FOO
138240
    1MOL0     O    1   7.180   4.159   5.431 -0.5462 -0.1828  0.0116
    1MOL0     C    2   7.169   4.265   5.374  0.3371 -0.6320  0.3360
    1MOL0     O    3   7.073   4.361   5.410 -0.5603  0.7519  0.8378
    1MOL0     C    4   6.970   4.320   5.489 -0.0678  0.3003 -0.1568
    1MOL0     C    5   6.839   4.333   5.439  0.0602 -0.1119 -0.0738
    1MOL0     C    6   6.729   4.309   5.519 -0.3615 -0.4127  0.1619
    1MOL0     C    7   6.745   4.249   5.644  0.0396  0.3627  0.0851
    1MOL0     O    8   6.620   4.216   5.708  0.1935  0.0762 -0.0150
    1MOL0     C    9   6.626   4.187   5.849 -0.0108 -0.2847 -0.3741
    1MOL0     C   10   6.488   4.129   5.896 -0.2611  0.0255 -0.5051
    1MOL0     C   11   6.373   4.228   5.884 -0.0415  0.4658  0.6281
    1MOL0     C   12   6.402   4.338   5.973  0.0470  0.0824  0.4319
    1MOL0     C   13   6.290   4.443   5.994 -0.4747  0.4453  0.2482
    1MOL0     C   14   6.344   4.583   6.020  1.0582 -0.7284 -0.2946
    1MOL0     C   15   6.409   4.587   6.155 -1.1795 -0.2454 -0.8852
    1MOL0     C   16   6.478   4.728   6.174  0.1906  0.2013  0.6658
    1MOL0     N   17   6.602   4.734   6.096 -0.8470  0.2840  0.3220
    1MOL0     C   18   6.638   4.852   6.037 -0.5793 -0.3189  0.2621
    1MOL0     C   19   6.764   4.823   5.984 -0.4646 -1.0305  0.5598
    1MOL0     C   20   6.852   4.917   5.907 -0.1630 -0.2561 -0.0751
    1MOL0     C   21   6.999   4.944   5.965  0.2489  0.1190  0.0642
    1MOL0     C   22   6.992   5.053   6.074 -0.4368 -0.1753  0.0422
    1MOL0     C   23   7.124   5.029   6.145 -0.3760  0.7109  0.0158
    1MOL0     O   24   7.150   5.142   6.231 -0.2781 -0.0373  0.3357
    1MOL0     C   25   7.200   5.116   6.354  1.0271  0.9244 -0.9572
    1MOL0     C   26   7.291   5.016   6.397  0.0348  0.0572 -0.0330
    1MOL0     C   27   7.344   5.022   6.527 -0.5252  0.7086 -0.1990
    1MOL0     C   28   7.296   5.099   6.626  0.1191 -0.7310 -0.4829
    1MOL0     C   29   7.323   5.094   6.774 -0.3568  0.6641 -0.4735
    1MOL0     O   30   7.258   5.178   6.857 -0.0247 -0.5929 -0.7882
    1MOL0     C   31   7.314   5.207   6.980 -0.4672  0.9043  0.9234
    1MOL0     C   32   7.233   5.170   7.094  0.4152 -0.4655 -0.9764
    1MOL0     C   33   7.288   5.184   7.222  0.7548 -0.7572  0.8896
    1MOL0     C   34   7.406   5.251   7.243 -0.2777 -0.6978 -0.1029
    1MOL0     O   35   7.443   5.273   7.371 -0.7033 -0.1790 -0.7438
    1MOL0     C   36   7.484   5.406   7.403 -0.2499 -0.1609 -0.6441
    1MOL0     C   37   7.369   5.494   7.435  0.2101 -0.5134  0.2096
    1MOL0     C   38   7.266   5.436   7.537  0.2978 -0.1233 -0.4495
    1MOL0     C   39   7.132   5.473   7.481  0.2818  0.0871 -0.8741
    1MOL0     C   40   7.017   5.436   7.577  0.0939 -0.1812 -0.1935
    1MOL0     C   41   7.014   5.517   7.701  0.4930  0.0127  0.7931
    1MOL0     C   42   6.864   5.554   7.744  1.2011  0.1705  0.2308
    1MOL0     C   43   6.881   5.650   7.858  0.0458 -0.3981 -0.2648
    1MOL0    Cl   44   6.959   5.562   7.995  0.2230  0.2725  0.0036
    1MOL0     C   45   7.482   5.278   7.127  0.1647 -0.7079 -0.4640
    1MOL0     C   46   7.450   5.252   6.995  0.3062  0.3482 -0.2342
    1MOL0     O   47   7.408   5.014   6.811 -0.5403 -0.7378  0.4199
    1MOL0     C   48   7.207   5.201   6.584  0.3598  0.4479 -0.1817
    1MOL0     C   49   7.160   5.207   6.452 -0.1862 -0.0656  0.2017
    1MOL0     N   50   6.789   4.683   6.008 -0.0959 -0.1559  0.7224
    1MOL0     N   51   6.689   4.632   6.072 -0.0028 -0.2037 -0.7318
    1MOL0     C   52   6.874   4.233   5.699  0.5989 -0.2053  0.5101
    1MOL0     C   53   6.989   4.268   5.619  0.5259 -0.9051  0.3175
    1MOL0     C   54   7.239   4.290   5.244  0.3996  0.5612 -0.0919
    1MOL0     C   55   7.200   4.398   5.173  0.0633 -0.7237  0.3795
    1MOL0     C   56   7.267   4.440   5.054  0.4665 -0.5827 -0.2466
    1MOL0     C   57   7.371   4.361   5.002  0.4556  0.6467  0.8637
    1MOL0     O   58   7.414   4.373   4.872  0.1302  0.3719  0.0245
    1MOL0     C   59   7.384   4.498   4.809  0.1578  0.6594 -0.4017
    1MOL0     C   60   7.472   4.499   4.684  0.8602 -0.0242  0.1576
    1MOL0     C   61   7.438   4.395   4.578  0.2528  0.0512 -0.8362
    1MOL0     C   62   7.316   4.420   4.496 -0.6285  0.3627 -0.0572
    1MOL0     C   63   7.193   4.390   4.565  0.0370 -0.0571  0.9935
    1MOL0     C   64   7.088   4.383   4.624 -0.4087 -0.9176 -0.2183
    1MOL0     C   65   7.407   4.248   5.076 -0.0744  0.4087  0.5850
    1MOL0     C   66   7.352   4.218   5.195  1.0789 -0.3083 -0.6880
    1MOL0     C   67   7.406   4.094   5.268  0.2676  0.2431  0.1195
    1MOL0     H   68   6.828   4.365   5.336 -1.9718 -4.2852 -1.3764
    1MOL0     H   69   6.638   4.340   5.469 -0.4122  3.2490  2.2075
    1MOL0     H   70   6.692   4.103   5.870  0.3785 -1.0936 -4.1139
    1MOL0     H   71   6.661   4.273   5.908  4.8556  0.2134 -3.4413
    1MOL0     H   72   6.504   4.094   5.998  2.0204  1.1742 -0.4050
    1MOL0     H   73   6.466   4.041   5.835  0.9839 -2.0456  1.8587
    1MOL0     H   74   6.277   4.182   5.910 -0.4276  0.5823 -0.5239
    1MOL0     H   75   6.359   4.261   5.781 -0.5960 -2.6248 -0.3761
    1MOL0     H   76   6.418   4.302   6.075 -0.0146  1.9685  1.1556
    1MOL0     H   77   6.487   4.393   5.931 -0.2002  0.0623 -0.0889
    1MOL0     H   78   6.233   4.453   5.901  1.8019  0.7376 -1.2048
    1MOL0     H   79   6.239   4.402   6.081  0.2264  1.4471  1.1534
    1MOL0     H   80   6.408   4.605   5.934 -1.3113  1.8735 -1.5525
    1MOL0     H   81   6.263   4.656   6.007  0.4930 -1.4503 -0.8754
    1MOL0     H   82   6.475   4.501   6.162 -2.7094 -1.4303 -0.5107
    1MOL0     H   83   6.334   4.579   6.234 -0.6969  1.4735 -0.1987
    1MOL0     H   84   6.404   4.808   6.166 -1.3117 -1.1459  0.5719
    1MOL0     H   85   6.503   4.724   6.280  3.2972  3.4399  0.2328
    1MOL0     H   86   6.585   4.946   6.041  2.4185  1.6845 -2.5608
    1MOL0     H   87   6.871   4.878   5.807  0.1773  2.9119 -1.3843
    1MOL0     H   88   6.804   5.013   5.883  1.7750  1.2213  1.6691
    1MOL0     H   89   7.033   4.848   6.004 -2.5712 -1.0940 -0.2181
    1MOL0     H   90   7.066   4.986   5.890  1.7174  2.0864  2.3124
    1MOL0     H   91   6.911   5.041   6.146 -0.1218  0.1459  0.4525
    1MOL0     H   92   6.993   5.152   6.027  0.4947  0.3795  1.1838
    1MOL0     H   93   7.205   5.028   6.072  0.0444  1.1590  0.4570
    1MOL0     H   94   7.119   4.938   6.205  0.0643  2.1796  2.4472
    1MOL0     H   95   7.335   4.939   6.335 -0.3643 -1.4208  1.4464
    1MOL0     H   96   7.428   4.955   6.542 -2.4776 -1.5344  1.5061
    1MOL0     H   97   7.131   5.133   7.087  0.3204 -0.6578  0.9332
    1MOL0     H   98   7.230   5.166   7.312  0.8780 -1.1858  0.8871
    1MOL0     H   99   7.560   5.413   7.482  0.0015  3.5156 -1.0490
    1MOL0     H  100   7.540   5.442   7.316  0.5817  3.8198  1.2995
    1MOL0     H  101   7.398   5.596   7.462  2.7460 -0.6070 -1.7464
    1MOL0     H  102   7.322   5.512   7.338 -0.3344 -0.6587  0.4444
    1MOL0     H  103   7.275   5.330   7.562 -0.5364  0.5608  3.4682
    1MOL0     H  104   7.281   5.476   7.638  1.3312 -2.8215  0.5340
    1MOL0     H  105   7.117   5.426   7.383 -2.9276 -0.0847 -0.3893
    1MOL0     H  106   7.142   5.581   7.469  2.1438  0.3592  2.1263
    1MOL0     H  107   7.011   5.329   7.595  0.4255 -0.1630  0.0193
    1MOL0     H  108   6.924   5.454   7.521 -0.0064 -0.7487 -0.2069
    1MOL0     H  109   7.062   5.469   7.786 -0.8076 -1.4522  0.7450
    1MOL0     H  110   7.061   5.611   7.671  1.0113 -0.5778 -0.3311
    1MOL0     H  111   6.813   5.462   7.776  1.0522  0.4386  0.7675
    1MOL0     H  112   6.800   5.601   7.669  1.3505  0.7415  0.4619
    1MOL0     H  113   6.942   5.735   7.826  1.4762 -1.7078 -1.1558
    1MOL0     H  114   6.784   5.693   7.885  0.3076 -0.4678  0.8284
    1MOL0     H  115   7.583   5.315   7.141 -0.1947 -0.4018  1.8023
    1MOL0     H  116   7.520   5.270   6.915 -0.1797 -0.8625 -0.9548
    1MOL0     H  117   7.167   5.285   6.641 -1.7186 -0.5810 -0.0684
    1MOL0     H  118   7.085   5.278   6.421 -0.3698 -0.6649 -0.7840
    1MOL0     H  119   6.886   4.171   5.787 -0.0522 -2.3574 -0.8122
    1MOL0     H  120   7.084   4.245   5.666 -0.1294 -1.2311  1.5239
    1MOL0     H  121   7.127   4.470   5.210 -1.0952 -1.3635 -0.5878
    1MOL0     H  122   7.220   4.514   4.991  0.7571 -0.0572  0.1495
    1MOL0     H  123   7.405   4.592   4.862 -1.6230  1.1656 -0.5328
    1MOL0     H  124   7.279   4.508   4.781  0.0898  1.5926  0.1591
    1MOL0     H  125   7.576   4.484   4.716  0.6854  0.0304  0.7666
    1MOL0     H  126   7.460   4.602   4.651  0.8323 -0.4798 -1.3210
    1MOL0     H  127   7.436   4.294   4.620  1.2633 -1.1181 -3.3816
    1MOL0     H  128   7.524   4.396   4.510  0.1476  0.1099 -0.9686
    1MOL0     H  129   7.324   4.525   4.465  3.0843 -0.5287 -2.7784
    1MOL0     H  130   7.321   4.365   4.402  0.3892  0.2359  0.0592
    1MOL0     H  131   6.996   4.394   4.676  0.9593 -0.3579  2.2488
    1MOL0     H  132   7.487   4.190   5.033 -0.3732  1.2539 -1.1869
    1MOL0     H  133   7.336   4.011   5.252  1.2060 -0.4063 -0.7648
    1MOL0     H  134   7.505   4.065   5.230  0.1933  1.5412 -1.1328
    1MOL0     H  135   7.411   4.100   5.378  1.7356 -0.5954  0.1328
    2MOL0     O  136   9.429   8.439  11.117  0.3645 -0.4873 -0.5859
    2MOL0     C  137   9.423   8.419  11.240 -0.4268 -0.8309  0.4934
    2MOL0     O  138   9.316   8.370  11.304 -0.0471  0.0689  0.1282
    2MOL0     C  139   9.216   8.331  11.215  0.6367 -0.4910 -0.1280
    2MOL0     C  140   9.105   8.414  11.205 -0.3433 -0.2837 -0.2737
    2MOL0     C  141   8.997   8.367  11.134  0.9430  0.1212 -0.3693
    2MOL0     C  142   8.987   8.238  11.071 -0.6773 -0.0070 -0.4014
    2MOL0     O  143   8.880   8.183  11.008 -0.2524  0.1621  0.6799
    2MOL0     C  144   8.752   8.246  11.033 -0.1759  0.2532 -0.1571
    2MOL0     C  145   8.648   8.148  10.995 -0.4835  0.6026  0.4306
    2MOL0     C  146   8.504   8.211  10.992  0.8822 -0.1874 -0.1929
    2MOL0     C  147   8.388   8.104  10.949 -0.7991 -0.2730 -0.4806
    2MOL0     C  148   8.257   8.165  10.981  0.2588  0.3018  0.1372
    2MOL0     C  149   8.201   8.253  10.872 -0.1683  0.0898  0.2552
    2MOL0     C  150   8.054   8.299  10.882  0.2074  0.1025  0.3615
    2MOL0     C  151   8.003   8.325  11.031  0.1104  0.6173 -0.1482
    2MOL0     N  152   8.080   8.424  11.103 -0.3151  0.6786  0.3810
    2MOL0     C  153   8.088   8.447  11.240 -0.7827 -1.2980  0.1743
    2MOL0     C  154   8.192   8.542  11.246 -0.0091  0.6577  0.2909
    2MOL0     C  155   8.283   8.584  11.367  0.3699 -0.7054  0.3929
    2MOL0     C  156   8.381   8.469  11.393 -0.6828  0.8155 -0.4293
    2MOL0     C  157   8.514   8.488  11.321 -0.3169  0.2074 -0.5744
    2MOL0     C  158   8.620   8.396  11.380 -0.6062 -0.9123 -0.1310
    2MOL0     O  159   8.648   8.435  11.514  0.6870  0.1201  0.3884
    2MOL0     C  160   8.762   8.407  11.575 -0.5903 -0.3150  0.2269
    2MOL0     C  161   8.772   8.429  11.717 -0.0101 -0.3515  0.4169
    2MOL0     C  162   8.887   8.414  11.781  0.2825 -0.0793  0.1463
    2MOL0     C  163   9.007   8.366  11.721 -0.1163  0.0833  0.5048
    2MOL0     C  164   9.138   8.340  11.792  0.1657  0.7705 -0.2897
    2MOL0     O  165   9.261   8.357  11.734  0.1462  0.0570  0.1895
    2MOL0     C  166   9.368   8.346  11.818  0.5640 -0.2506 -0.3602
    2MOL0     C  167   9.413   8.465  11.874  0.0068 -0.3451 -0.1939
    2MOL0     C  168   9.525   8.457  11.966  0.7116 -0.0398  0.6236
    2MOL0     C  169   9.598   8.341  11.983 -0.0685 -0.6064  0.5216
    2MOL0     O  170   9.706   8.319  12.064  0.6509 -0.1127 -0.5152
    2MOL0     C  171   9.778   8.432  12.113  0.9938  0.2366  0.1487
    2MOL0     C  172   9.884   8.382  12.211 -0.7436  0.8791  0.3643
    2MOL0     C  173   9.928   8.497  12.317  0.5808  0.3584  0.4540
    2MOL0     C  174  10.034   8.449  12.425 -0.1391  0.6155  1.2411
    2MOL0     C  175  10.095   8.573  12.496  0.1774 -0.1250 -0.0233
    2MOL0     C  176  10.196   8.532  12.595 -0.4756  0.6955  0.2839
    2MOL0     C  177  10.328   8.500  12.525 -0.4976 -0.5679  0.4716
    2MOL0     C  178  10.429   8.461  12.638 -0.4895  0.2832 -0.2658
    2MOL0    Cl  179  10.458   8.597  12.745  0.2768  0.1790  0.0849
    2MOL0     C  180   9.554   8.229  11.920  0.0569 -0.2183  0.2728
    2MOL0     C  181   9.447   8.231  11.827  0.9783  0.1699 -0.8975
    2MOL0     O  182   9.121   8.322  11.911 -0.7273  0.1353 -0.6853
    2MOL0     C  183   9.003   8.340  11.577 -0.3740 -1.3654  0.3221
    2MOL0     C  184   8.888   8.371  11.509  0.3910 -0.5684 -0.0354
    2MOL0     N  185   8.235   8.572  11.120  0.4650  0.0072 -0.2169
    2MOL0     N  186   8.168   8.508  11.029  0.5183 -0.2282  0.7396
    2MOL0     C  187   9.111   8.160  11.080 -0.5546  0.1331  0.1343
    2MOL0     C  188   9.216   8.204  11.152 -0.0127 -0.0956 -0.1242
    2MOL0     C  189   9.547   8.460  11.319  0.0692  0.1841  0.0338
    2MOL0     C  190   9.537   8.452  11.455 -0.1616 -0.5798  0.7306
    2MOL0     C  191   9.631   8.507  11.541  0.8129  0.1810 -0.6597
    2MOL0     C  192   9.751   8.551  11.501  0.1824  0.0278 -0.0800
    2MOL0     O  193   9.845   8.613  11.586 -0.6428 -0.1303 -0.2198
    2MOL0     C  194   9.987   8.618  11.535  0.4301 -0.4849  0.1674
    2MOL0     C  195  10.081   8.672  11.636  0.3107 -0.1200  0.2727
    2MOL0     C  196  10.040   8.812  11.663 -0.1312 -1.3683 -0.3991
    2MOL0     C  197  10.131   8.877  11.772 -0.4858  0.4603 -0.9313
    2MOL0     C  198  10.103   9.020  11.784  0.4171 -0.5812  0.8358
    2MOL0     C  199  10.087   9.134  11.819  0.3933 -0.5556 -0.3919
    2MOL0     C  200   9.774   8.553  11.360  0.3078  0.1906 -0.7100
    2MOL0     C  201   9.673   8.505  11.267  0.5650  0.4550  0.1512
    2MOL0     C  202   9.706   8.518  11.120 -0.7063  0.1792  0.5252
    2MOL0     H  203   9.089   8.510  11.252  2.0164 -0.5050  1.1471
    2MOL0     H  204   8.909   8.430  11.131 -0.6229 -1.8696  0.9286
    2MOL0     H  205   8.749   8.289  11.133 -0.0468  1.1261 -0.5133
    2MOL0     H  206   8.736   8.330  10.964 -0.5570  2.3548  2.3047
    2MOL0     H  207   8.654   8.073  11.075 -2.4761 -1.7414 -1.4544
    2MOL0     H  208   8.661   8.099  10.898 -1.7756  0.3741  0.3507
    2MOL0     H  209   8.495   8.286  10.912  1.8891 -1.7793 -1.8908
    2MOL0     H  210   8.478   8.263  11.084  0.1983 -1.7081  0.5137
    2MOL0     H  211   8.398   8.086  10.841  2.1367 -2.2582  0.0010
    2MOL0     H  212   8.394   8.015  11.012  0.9297  0.5294  0.5857
    2MOL0     H  213   8.191   8.078  10.993  2.0508 -0.8404  2.8681
    2MOL0     H  214   8.262   8.227  11.071 -1.1963  1.2964 -0.4176
    2MOL0     H  215   8.270   8.338  10.870  0.9414 -0.7813 -1.2627
    2MOL0     H  216   8.210   8.189  10.783 -1.2258  1.5284 -0.9405
    2MOL0     H  217   7.991   8.219  10.843 -1.2139  0.2985  2.1332
    2MOL0     H  218   8.032   8.377  10.808  1.0263  0.2097  0.2217
    2MOL0     H  219   7.896   8.346  11.028  0.4895  2.6580 -1.7397
    2MOL0     H  220   8.004   8.232  11.089 -0.5721 -0.0383 -1.1428
    2MOL0     H  221   8.054   8.386  11.323 -1.8609 -0.7437  0.1570
    2MOL0     H  222   8.333   8.680  11.349 -1.1067 -0.2082 -1.4840
    2MOL0     H  223   8.224   8.593  11.459  0.6339 -1.7140  0.6718
    2MOL0     H  224   8.403   8.459  11.500  2.2282  1.3930 -0.8843
    2MOL0     H  225   8.345   8.374  11.355 -1.1130 -1.2161  4.3027
    2MOL0     H  226   8.552   8.584  11.355 -2.4575  0.5944  0.9464
    2MOL0     H  227   8.508   8.479  11.212 -1.4046 -2.2356 -0.3876
    2MOL0     H  228   8.711   8.418  11.323 -0.5290 -0.0134  0.3339
    2MOL0     H  229   8.599   8.288  11.384 -0.1329 -0.9847  3.0992
    2MOL0     H  230   8.683   8.461  11.770 -1.5791 -1.8191 -1.1704
    2MOL0     H  231   8.883   8.444  11.885 -0.6475 -4.4594  1.6147
    2MOL0     H  232   9.361   8.559  11.862 -2.0285 -1.6220 -2.2092
    2MOL0     H  233   9.554   8.539  12.031  1.1174  2.0467 -2.0438
    2MOL0     H  234   9.816   8.487  12.026 -0.9610  2.2533  0.5119
    2MOL0     H  235   9.707   8.496  12.166 -0.8141 -0.3554 -1.4430
    2MOL0     H  236   9.840   8.292  12.255 -1.1102  1.1715  0.6040
    2MOL0     H  237   9.977   8.339  12.175 -0.2020 -0.6941  3.3806
    2MOL0     H  238   9.973   8.578  12.259 -2.0245  1.1409 -0.6435
    2MOL0     H  239   9.834   8.545  12.344 -0.5872 -0.9016 -1.1075
    2MOL0     H  240  10.113   8.382  12.391 -0.7919  0.2090  0.5036
    2MOL0     H  241   9.982   8.395  12.504 -0.7241  1.1868  1.2546
    2MOL0     H  242  10.015   8.624  12.549  3.2114  2.4124  2.4875
    2MOL0     H  243  10.139   8.635  12.417 -1.0728  1.3648  0.4104
    2MOL0     H  244  10.204   8.616  12.665 -1.6150  1.0818 -0.0323
    2MOL0     H  245  10.160   8.442  12.646  0.9184  1.1083  2.1297
    2MOL0     H  246  10.361   8.590  12.472 -2.1613 -1.4232 -2.2045
    2MOL0     H  247  10.328   8.419  12.452  1.3965 -0.8663  0.7367
    2MOL0     H  248  10.384   8.382  12.699 -0.5322  0.8909  0.5048
    2MOL0     H  249  10.524   8.435  12.592 -1.2598 -0.6132 -1.4094
    2MOL0     H  250   9.621   8.144  11.936  4.0377  2.3273 -1.3266
    2MOL0     H  251   9.416   8.145  11.768 -3.6619 -0.2223  1.6311
    2MOL0     H  252   9.097   8.312  11.531  0.2786  0.0123  0.7753
    2MOL0     H  253   8.887   8.336  11.406  1.8123 -0.4017 -0.1147
    2MOL0     H  254   9.115   8.064  11.031 -0.3138  0.3656 -0.3044
    2MOL0     H  255   9.304   8.141  11.154 -1.1079 -1.6960  0.4263
    2MOL0     H  256   9.436   8.443  11.494 -0.2744  1.2871  0.9479
    2MOL0     H  257   9.605   8.505  11.646 -1.7797 -1.8148 -1.2369
    2MOL0     H  258   9.989   8.691  11.454 -2.1967  0.8631  1.1873
    2MOL0     H  259  10.014   8.519  11.497  1.0921 -1.2096  2.3414
    2MOL0     H  260  10.183   8.671  11.597  0.5622 -0.8807  0.9071
    2MOL0     H  261  10.088   8.618  11.732  2.3007  0.0504  0.2693
    2MOL0     H  262   9.934   8.814  11.688  0.1050 -1.9048  0.6853
    2MOL0     H  263  10.055   8.870  11.571  2.4212  0.3332  0.9776
    2MOL0     H  264  10.115   8.831  11.870  1.5020 -0.7807 -1.1434
    2MOL0     H  265  10.235   8.860  11.746 -1.3807  1.0130 -5.7650
    2MOL0     H  266  10.079   9.238  11.844 -0.4554 -0.6717 -0.1285
    2MOL0     H  267   9.862   8.593  11.311  0.5684  3.0096  1.8051
    2MOL0     H  268   9.813   8.529  11.098 -0.8957  1.4856  0.2009
    2MOL0     H  269   9.680   8.426  11.066  0.4294  0.1456 -0.0118
    2MOL0     H  270   9.655   8.600  11.070 -2.3177 -0.7265  0.6225
    3MOL0     O  271   2.665   6.971   1.764 -0.3123  0.3772 -0.8124
    3MOL0     C  272   2.632   6.877   1.701 -0.0076  0.9069 -0.4483
    3MOL0     O  273   2.682   6.753   1.716 -0.7657 -0.2294 -0.3717
    3MOL0     C  274   2.797   6.733   1.781  0.6406  1.2342 -0.0963
    3MOL0     C  275   2.918   6.803   1.765 -0.2194  0.3231 -0.5173
    3MOL0     C  276   3.031   6.769   1.839  0.4329 -0.6477 -0.2839
    3MOL0     C  277   3.027   6.660   1.927  1.0404 -0.6644 -0.0847
    3MOL0     O  278   3.143   6.642   2.004  0.4226 -0.1631 -0.3702
    3MOL0     C  279   3.181   6.511   2.044  1.1781 -0.3409  0.3039
    3MOL0     C  280   3.309   6.509   2.128  0.3476  0.6194  0.8730
    3MOL0     C  281   3.433   6.551   2.040  0.8026  0.2515 -0.4606
    3MOL0     C  282   3.504   6.434   1.968  0.4581  0.3579  0.5696
    3MOL0     C  283   3.608   6.496   1.872 -0.2332 -0.6173  0.5126
    3MOL0     C  284   3.741   6.529   1.937 -0.0338 -0.0153 -0.5176
    3MOL0     C  285   3.816   6.639   1.862 -0.1116 -0.3116 -0.2636
    3MOL0     C  286   3.831   6.626   1.715 -0.5042  0.2215  0.7708
    3MOL0     N  287   3.975   6.599   1.694  0.5721  0.0997  0.5741
    3MOL0     C  288   4.040   6.478   1.703 -0.1842  0.5629  1.5243
    3MOL0     C  289   4.166   6.500   1.657 -0.5971 -0.1374 -0.3111
    3MOL0     C  290   4.275   6.399   1.675  0.3013  0.4948  0.0769
    3MOL0     C  291   4.346   6.410   1.807  0.1766 -0.4904 -0.0743
    3MOL0     C  292   4.414   6.551   1.822 -0.5112  0.6951 -0.3903
    3MOL0     C  293   4.515   6.593   1.715 -0.0050  0.2499  0.1537
    3MOL0     O  294   4.621   6.495   1.705 -0.1055 -0.0303 -0.0961
    3MOL0     C  295   4.748   6.547   1.667 -0.9140  0.9359  0.2188
    3MOL0     C  296   4.772   6.647   1.582 -0.1425  0.3173 -0.0975
    3MOL0     C  297   4.907   6.687   1.556 -0.5334  0.9451 -0.8391
    3MOL0     C  298   5.019   6.620   1.606  0.0759  0.7836 -0.6716
    3MOL0     C  299   5.156   6.680   1.601  0.0020  0.1662  0.1577
    3MOL0     O  300   5.259   6.593   1.606  0.3518 -0.2814  1.4417
    3MOL0     C  301   5.386   6.634   1.595 -0.1549  0.2363 -0.5399
    3MOL0     C  302   5.473   6.542   1.538 -0.2552  0.0050 -0.4106
    3MOL0     C  303   5.609   6.560   1.519  0.4676  0.0893  0.7834
    3MOL0     C  304   5.667   6.685   1.553  0.4543 -0.1522  0.3069
    3MOL0     O  305   5.804   6.703   1.538 -0.3593 -0.2702  0.9031
    3MOL0     C  306   5.865   6.834   1.546 -0.6072 -0.1639 -0.6998
    3MOL0     C  307   5.841   6.912   1.415 -0.0948  0.3993  0.0098
    3MOL0     C  308   5.896   7.057   1.408 -0.3100 -0.4135  0.5763
    3MOL0     C  309   6.023   7.071   1.478 -0.6497 -0.2112 -0.0862
    3MOL0     C  310   6.055   7.219   1.500 -0.1192  0.8968  0.2853
    3MOL0     C  311   6.186   7.234   1.590 -0.7206 -0.9996 -0.1590
    3MOL0     C  312   6.221   7.384   1.617 -0.2384 -0.5067 -0.7776
    3MOL0     C  313   6.368   7.407   1.674  1.1699  0.9581 -0.0689
    3MOL0    Cl  314   6.404   7.579   1.734 -0.1460 -0.4001 -0.1560
    3MOL0     C  315   5.578   6.778   1.609  0.7813 -0.6501  0.0559
    3MOL0     C  316   5.438   6.754   1.637  0.1218 -0.8386 -0.0028
    3MOL0     O  317   5.161   6.804   1.575  0.3007  1.0962 -0.1074
    3MOL0     C  318   4.998   6.499   1.676  0.3798  0.4953  0.3019
    3MOL0     C  319   4.863   6.461   1.693 -0.1851 -0.4635 -0.1364
    3MOL0     N  320   4.176   6.626   1.618 -0.2360 -0.2423 -0.4752
    3MOL0     N  321   4.065   6.685   1.643  0.2743  0.5100  0.1466
    3MOL0     C  322   2.913   6.578   1.929  0.6068 -0.1234  0.3388
    3MOL0     C  323   2.796   6.614   1.858  0.3317 -0.3148  0.3633
    3MOL0     C  324   2.529   6.881   1.592 -0.0347 -0.3099  0.1283
    3MOL0     C  325   2.523   6.768   1.506 -0.1150  0.4691  0.2475
    3MOL0     C  326   2.431   6.756   1.403  0.8556 -0.4697 -0.6429
    3MOL0     C  327   2.348   6.865   1.370  0.3538 -0.7323  0.0505
    3MOL0     O  328   2.256   6.875   1.266 -0.6290  0.5661  0.3106
    3MOL0     C  329   2.167   6.767   1.239 -0.7021  0.0969 -1.3041
    3MOL0     C  330   2.110   6.789   1.103  0.7045 -0.3651 -0.0689
    3MOL0     C  331   1.967   6.724   1.090 -0.6883 -0.4136 -0.0486
    3MOL0     C  332   1.977   6.581   1.022  0.2938  0.6003 -0.5372
    3MOL0     C  333   1.954   6.586   0.875 -0.2533 -0.1350 -0.8243
    3MOL0     C  334   1.927   6.597   0.755  0.1236  0.5161  0.2203
    3MOL0     C  335   2.348   6.980   1.451 -0.7408  0.4105 -0.0218
    3MOL0     C  336   2.440   6.988   1.564 -1.0062  1.1832  0.4182
    3MOL0     C  337   2.445   7.117   1.637  0.3242 -0.8324 -0.6405
    3MOL0     H  338   2.921   6.895   1.708  1.6575  1.2187  0.9019
    3MOL0     H  339   3.131   6.811   1.849  0.1767  0.0216 -0.5189
    3MOL0     H  340   3.101   6.477   2.110  1.5754  0.2062  1.0791
    3MOL0     H  341   3.202   6.442   1.962 -2.4954  0.8288 -1.8682
    3MOL0     H  342   3.328   6.407   2.162 -0.2810  0.5987  1.1934
    3MOL0     H  343   3.301   6.586   2.207 -0.1703  3.2016 -1.5381
    3MOL0     H  344   3.509   6.589   2.109  1.9869 -2.9375  0.1838
    3MOL0     H  345   3.400   6.634   1.977  1.3813  0.7653 -0.0902
    3MOL0     H  346   3.530   6.358   2.042 -2.4559  2.2858  3.9072
    3MOL0     H  347   3.426   6.389   1.906  0.3595  1.2692  0.0055
    3MOL0     H  348   3.625   6.425   1.791  0.7502  0.2084 -0.0432
    3MOL0     H  349   3.562   6.585   1.827 -2.3611 -2.6468 -1.6488
    3MOL0     H  350   3.724   6.560   2.040  0.9165  1.1603 -0.6994
    3MOL0     H  351   3.804   6.440   1.941  1.2658  0.8404 -1.2856
    3MOL0     H  352   3.914   6.650   1.907  1.0781 -1.5262 -2.3730
    3MOL0     H  353   3.766   6.735   1.876  0.5115  0.0280 -0.3843
    3MOL0     H  354   3.763   6.555   1.665  0.2319 -0.3363  0.5472
    3MOL0     H  355   3.802   6.726   1.682 -0.0841  0.3754  0.8713
    3MOL0     H  356   3.993   6.385   1.731 -0.5755 -0.4386 -1.9498
    3MOL0     H  357   4.236   6.298   1.686  2.9875 -0.4685  1.6333
    3MOL0     H  358   4.352   6.414   1.599 -1.6803  0.2428 -2.1045
    3MOL0     H  359   4.273   6.389   1.885  2.2195 -1.8256  1.5721
    3MOL0     H  360   4.416   6.328   1.821  1.8407  0.1629 -3.3694
    3MOL0     H  361   4.461   6.565   1.920 -0.0123  0.6120 -0.6159
    3MOL0     H  362   4.342   6.633   1.819  1.0527  2.1186 -0.3631
    3MOL0     H  363   4.558   6.693   1.732  1.4227 -0.7180  2.8940
    3MOL0     H  364   4.460   6.597   1.620 -1.6850 -2.3802  0.9216
    3MOL0     H  365   4.698   6.707   1.530  1.0657 -0.0518 -2.3649
    3MOL0     H  366   4.926   6.767   1.484 -0.5397  1.4186 -0.3237
    3MOL0     H  367   5.429   6.448   1.507  0.6924 -1.9799  3.6306
    3MOL0     H  368   5.676   6.485   1.477 -0.3362  0.9808 -2.3507
    3MOL0     H  369   5.820   6.890   1.628 -1.5287 -1.2822 -0.4175
    3MOL0     H  370   5.973   6.824   1.553 -0.6198 -0.3861 -0.8276
    3MOL0     H  371   5.897   6.868   1.332  0.7945  1.7476 -0.1385
    3MOL0     H  372   5.738   6.901   1.378 -0.5982  1.7576  0.8927
    3MOL0     H  373   5.915   7.089   1.306 -0.1186 -1.4349  0.2827
    3MOL0     H  374   5.810   7.115   1.442 -2.7706 -2.7456 -1.1867
    3MOL0     H  375   6.104   7.028   1.420  0.4262  0.3379  0.9646
    3MOL0     H  376   6.016   7.028   1.579  0.6978 -0.2747 -0.0019
    3MOL0     H  377   5.968   7.264   1.548 -2.1855 -0.4470 -2.0144
    3MOL0     H  378   6.074   7.264   1.401  0.1845 -2.9522 -1.5952
    3MOL0     H  379   6.171   7.180   1.685 -1.5315  1.7994  1.4074
    3MOL0     H  380   6.275   7.195   1.540 -0.1015  0.7247 -0.4746
    3MOL0     H  381   6.155   7.423   1.694 -0.7043 -1.6522 -0.5699
    3MOL0     H  382   6.214   7.429   1.518  2.1917  1.4308 -0.1544
    3MOL0     H  383   6.387   7.336   1.755 -0.2113 -0.2135 -0.7515
    3MOL0     H  384   6.445   7.386   1.599  0.2218  1.9114 -1.3506
    3MOL0     H  385   5.615   6.875   1.638  1.1760 -0.2089 -1.8288
    3MOL0     H  386   5.379   6.830   1.688  0.3978 -1.1539  0.8044
    3MOL0     H  387   5.087   6.447   1.712  0.4346  0.2333 -0.2184
    3MOL0     H  388   4.855   6.373   1.756 -2.4961  0.1124  0.4543
    3MOL0     H  389   2.917   6.485   1.984  1.3076 -0.7190 -0.6658
    3MOL0     H  390   2.703   6.559   1.867 -0.1970 -0.1703 -3.1266
    3MOL0     H  391   2.586   6.682   1.524 -1.6047 -1.2905 -2.2488
    3MOL0     H  392   2.422   6.663   1.349 -3.9593 -1.0218  0.6666
    3MOL0     H  393   2.083   6.774   1.309 -1.3773 -1.0826 -1.9665
    3MOL0     H  394   2.217   6.670   1.250  1.9765  1.6237  0.9779
    3MOL0     H  395   2.171   6.749   1.022 -1.1920 -2.1955 -0.6547
    3MOL0     H  396   2.104   6.897   1.087  3.0411 -0.1950 -0.2521
    3MOL0     H  397   1.907   6.791   1.028  3.5142  0.5163 -3.5236
    3MOL0     H  398   1.915   6.709   1.186 -1.9369  1.6786 -0.3359
    3MOL0     H  399   2.076   6.540   1.042  0.9834  2.4884  0.1246
    3MOL0     H  400   1.903   6.517   1.071  1.2859 -0.4927 -0.4306
    3MOL0     H  401   1.898   6.595   0.652  0.1681 -3.3067  0.1331
    3MOL0     H  402   2.285   7.067   1.430 -0.8515  0.6864  1.3778
    3MOL0     H  403   2.530   7.178   1.605 -1.5337  1.9509 -0.5698
    3MOL0     H  404   2.356   7.175   1.611  1.0082  0.0135 -1.1430
    3MOL0     H  405   2.443   7.107   1.746  0.2448  3.7771 -0.0139
    4MOL0     O  406   7.433   0.018  10.654 -0.1442  0.0073 -0.5059
    4MOL0     C  407   7.363  -0.080  10.656  1.0136  1.1242 -0.6478
    4MOL0     O  408   7.376  -0.185  10.570 -1.1177 -0.4135 -0.7346
    4MOL0     C  409   7.491  -0.208  10.491  0.0545 -0.8414  0.4367
    4MOL0     C  410   7.472  -0.260  10.363  0.0926  0.3027  0.1866
    4MOL0     C  411   7.580  -0.281  10.278 -0.0514 -0.5399 -0.0073
    4MOL0     C  412   7.713  -0.244  10.316  0.1706  0.4517  0.1576
    4MOL0     O  413   7.804  -0.263  10.221  0.3951 -0.3277  0.5200
    4MOL0     C  414   7.936  -0.218  10.253  0.2269  0.0230 -0.2949
    4MOL0     C  415   8.018  -0.230  10.126 -0.2439  0.5235  0.3416
    4MOL0     C  416   8.023  -0.369  10.061 -0.2808  0.0750  0.3320
    4MOL0     C  417   8.103  -0.359   9.924 -0.0369 -0.5046  0.3793
    4MOL0     C  418   8.071  -0.483   9.833  0.5460 -0.3673 -0.4685
    4MOL0     C  419   8.142  -0.490   9.695 -0.5960 -0.6318 -0.7633
    4MOL0     C  420   8.285  -0.457   9.698 -0.4923  0.0622 -0.3516
    4MOL0     C  421   8.362  -0.550   9.794  1.0759  0.2633  0.1523
    4MOL0     N  422   8.508  -0.522   9.777 -0.2503 -0.5738 -0.0867
    4MOL0     C  423   8.605  -0.590   9.841 -0.3404 -0.4749  0.1365
    4MOL0     C  424   8.717  -0.521   9.830  0.2587 -0.3879  1.0496
    4MOL0     C  425   8.849  -0.562   9.865  0.1531  0.5162 -0.4710
    4MOL0     C  426   8.880  -0.513  10.008  0.2922 -0.7238  0.0384
    4MOL0     C  427   8.900  -0.361  10.013  0.8151  0.5851 -0.2471
    4MOL0     C  428   8.936  -0.304  10.144  0.1203  0.4313  0.6298
    4MOL0     O  429   8.862  -0.358  10.253  0.2316 -0.4854 -0.0909
    4MOL0     C  430   8.739  -0.316  10.291  0.7004 -1.4599  0.6063
    4MOL0     C  431   8.725  -0.261  10.420 -0.5246  0.9876  0.1695
    4MOL0     C  432   8.596  -0.256  10.481 -0.4646  0.6542  0.0925
    4MOL0     C  433   8.478  -0.288  10.412  0.1991  0.0814  0.6793
    4MOL0     C  434   8.340  -0.267  10.476 -0.8836 -0.0031  0.0792
    4MOL0     O  435   8.348  -0.234  10.608  0.5494 -0.8198  0.0103
    4MOL0     C  436   8.234  -0.204  10.684 -0.2140  0.4960  0.6316
    4MOL0     C  437   8.249  -0.243  10.820 -0.0880 -0.5784  0.0740
    4MOL0     C  438   8.145  -0.230  10.910 -0.2565  1.0445 -1.3584
    4MOL0     C  439   8.022  -0.183  10.864 -0.4047  0.5659  0.4663
    4MOL0     O  440   7.922  -0.164  10.959  0.3177 -0.4623  0.0052
    4MOL0     C  441   7.787  -0.184  10.920  1.1974 -0.1405  0.4263
    4MOL0     C  442   7.755  -0.331  10.882 -0.3381 -0.0958 -0.8691
    4MOL0     C  443   7.603  -0.347  10.852  0.3974 -0.7306  0.4649
    4MOL0     C  444   7.518  -0.367  10.977  0.2801 -0.3459  0.0544
    4MOL0     C  445   7.380  -0.416  10.945 -0.1188  0.0385  0.3690
    4MOL0     C  446   7.296  -0.423  11.071 -0.7077  0.1359  0.1947
    4MOL0     C  447   7.146  -0.420  11.062  0.4420  0.9619  0.2620
    4MOL0     C  448   7.079  -0.549  11.006  1.1772  0.0643 -0.2053
    4MOL0    Cl  449   6.901  -0.547  10.983 -0.1444  0.6669 -0.2276
    4MOL0     C  450   8.010  -0.137  10.734 -0.3710 -0.0582 -0.3508
    4MOL0     C  451   8.121  -0.142  10.649 -0.6468  0.5137 -0.5668
    4MOL0     O  452   8.236  -0.284  10.408  0.3488  0.0477  0.4484
    4MOL0     C  453   8.490  -0.331  10.285  0.4645  0.1648 -0.4081
    4MOL0     C  454   8.615  -0.344  10.221  0.0589 -0.8434 -0.0086
    4MOL0     N  455   8.692  -0.410   9.742  0.0480  0.0405 -0.2025
    4MOL0     N  456   8.568  -0.412   9.716 -1.2076 -0.5505  0.1229
    4MOL0     C  457   7.731  -0.189  10.452 -0.0686  1.2596  0.8420
    4MOL0     C  458   7.617  -0.181  10.536  1.4474 -0.5590  0.3027
    4MOL0     C  459   7.245  -0.082  10.747  0.6441  0.3867 -0.8197
    4MOL0     C  460   7.128  -0.147  10.703 -0.7980 -0.2917 -0.3591
    4MOL0     C  461   7.016  -0.153  10.791 -0.7711 -0.0559  1.0367
    4MOL0     C  462   7.021  -0.106  10.916  0.4445 -0.0463 -0.8758
    4MOL0     O  463   6.916  -0.121  11.003  0.1617 -0.2926 -0.7535
    4MOL0     C  464   6.810  -0.213  10.996 -0.5546 -0.0017 -0.1143
    4MOL0     C  465   6.776  -0.248  11.142  0.1974 -0.3644  0.2800
    4MOL0     C  466   6.637  -0.320  11.155  0.7232  0.1395 -0.9871
    4MOL0     C  467   6.633  -0.419  11.273 -0.9120  0.9915 -0.7427
    4MOL0     C  468   6.495  -0.468  11.303  0.2230 -0.0647  0.5157
    4MOL0     C  469   6.402  -0.528  11.353  1.0225  0.4378  1.2319
    4MOL0     C  470   7.138  -0.032  10.957 -0.6152  0.1658  0.0939
    4MOL0     C  471   7.247  -0.015  10.871  0.1689  0.7088  0.8830
    4MOL0     C  472   7.369   0.047  10.936  0.4050 -0.7119 -0.1848
    4MOL0     H  473   7.381  -0.301  10.322  0.8143 -1.7941  0.5733
    4MOL0     H  474   7.568  -0.331  10.182 -2.0797  0.1553 -0.1500
    4MOL0     H  475   7.928  -0.113  10.282 -1.4935  0.5765 -2.4664
    4MOL0     H  476   7.987  -0.276  10.330  0.5025 -0.7107 -1.0070
    4MOL0     H  477   8.124  -0.210  10.143  1.1364 -2.7450 -3.0207
    4MOL0     H  478   7.981  -0.150  10.061 -0.9683  1.4279  1.8120
    4MOL0     H  479   7.920  -0.404  10.045 -0.2749  0.1086  0.2254
    4MOL0     H  480   8.072  -0.431  10.137 -0.7719  0.5498  1.0597
    4MOL0     H  481   8.067  -0.275   9.863 -0.1494 -2.6079 -2.6313
    4MOL0     H  482   8.212  -0.358   9.933 -0.0297 -2.4825  1.0203
    4MOL0     H  483   8.104  -0.575   9.883  0.2688 -0.7291 -0.9381
    4MOL0     H  484   7.964  -0.496   9.814  0.7075 -2.1473 -0.3428
    4MOL0     H  485   8.136  -0.591   9.651 -0.5781 -1.0834  0.2466
    4MOL0     H  486   8.097  -0.408   9.638  1.7419  2.7652  1.8918
    4MOL0     H  487   8.303  -0.352   9.720  0.6486  0.5053 -3.0209
    4MOL0     H  488   8.318  -0.463   9.594  0.5730 -0.5657  0.0095
    4MOL0     H  489   8.335  -0.531   9.898  1.2027 -2.7270  0.8252
    4MOL0     H  490   8.328  -0.653   9.781 -1.0198  0.8973  0.1999
    4MOL0     H  491   8.595  -0.667   9.917  3.0798 -0.7350  0.4629
    4MOL0     H  492   8.865  -0.671   9.860  0.8730  0.6002 -0.1023
    4MOL0     H  493   8.916  -0.521   9.790 -1.3595 -1.2168 -2.9053
    4MOL0     H  494   8.801  -0.546  10.075  0.8274 -1.9028  0.1034
    4MOL0     H  495   8.971  -0.560  10.046  1.1911  0.6647 -0.2804
    4MOL0     H  496   8.811  -0.309   9.976  1.8978  2.3114 -0.5108
    4MOL0     H  497   8.974  -0.327   9.940  0.2646  0.3349 -0.9372
    4MOL0     H  498   8.916  -0.197  10.144  0.1256  0.4460 -0.7497
    4MOL0     H  499   9.043  -0.321  10.157 -0.0763 -2.3890 -0.6574
    4MOL0     H  500   8.824  -0.254  10.465 -0.1742  0.5477 -0.5112
    4MOL0     H  501   8.583  -0.229  10.585 -3.5731  0.6445 -0.2234
    4MOL0     H  502   8.336  -0.296  10.858  0.1384 -0.2410  0.0408
    4MOL0     H  503   8.160  -0.259  11.014 -2.6859 -0.2608 -1.2972
    4MOL0     H  504   7.722  -0.160  11.005 -2.6334 -0.2684 -2.1945
    4MOL0     H  505   7.751  -0.109  10.849 -3.5096 -2.0143  0.4178
    4MOL0     H  506   7.803  -0.349  10.786  1.6336 -0.1086  0.0817
    4MOL0     H  507   7.789  -0.400  10.959 -3.2564  1.4547  2.0575
    4MOL0     H  508   7.561  -0.262  10.798  2.0622 -0.7545 -0.9282
    4MOL0     H  509   7.597  -0.435  10.787 -0.1392 -0.4298  0.0974
    4MOL0     H  510   7.515  -0.266  11.019 -1.9359 -0.4441  0.2686
    4MOL0     H  511   7.558  -0.431  11.055  0.1077  1.4010  1.6532
    4MOL0     H  512   7.373  -0.518  10.905 -2.3041  0.3121 -0.0354
    4MOL0     H  513   7.334  -0.345  10.876  3.1803  0.6194 -1.4430
    4MOL0     H  514   7.316  -0.520  11.117 -0.8881 -0.3635 -0.7586
    4MOL0     H  515   7.333  -0.342  11.134  1.4905  2.0423 -3.1887
    4MOL0     H  516   7.128  -0.336  10.994 -1.7753 -0.7262 -1.3812
    4MOL0     H  517   7.106  -0.399  11.161  1.6480  1.0631  0.7527
    4MOL0     H  518   7.128  -0.543  10.909  2.1033  0.1650  0.2659
    4MOL0     H  519   7.094  -0.635  11.071 -0.9827  1.7118  2.7455
    4MOL0     H  520   7.928  -0.079  10.695 -0.3274  0.4377  0.2877
    4MOL0     H  521   8.122  -0.109  10.545 -0.1495  2.3128 -0.0166
    4MOL0     H  522   8.398  -0.357  10.233  0.3106  1.8880 -1.0965
    4MOL0     H  523   8.614  -0.403  10.129  0.5338  0.4813 -0.8922
    4MOL0     H  524   7.824  -0.154  10.494  0.7512 -0.5769  0.6626
    4MOL0     H  525   7.648  -0.148  10.635  2.7913 -2.2999  0.5161
    4MOL0     H  526   7.122  -0.202  10.610 -0.6977  0.4251 -0.7978
    4MOL0     H  527   6.931  -0.209  10.753 -0.8376  0.1101  0.9377
    4MOL0     H  528   6.829  -0.298  10.930 -0.5472  0.3452 -0.5655
    4MOL0     H  529   6.723  -0.176  10.940 -2.1844 -3.4148 -0.0483
    4MOL0     H  530   6.775  -0.154  11.198  0.8383 -1.2518  1.8472
    4MOL0     H  531   6.854  -0.309  11.189  1.0776  0.9661  0.6222
    4MOL0     H  532   6.605  -0.368  11.062  1.6208  1.7181 -2.1600
    4MOL0     H  533   6.572  -0.239  11.188  1.6458  0.0206  1.3011
    4MOL0     H  534   6.698  -0.504  11.251 -5.1373 -2.2883 -2.0061
    4MOL0     H  535   6.668  -0.378  11.368 -2.7659  3.1079 -0.8687
    4MOL0     H  536   6.335  -0.586  11.413  1.6463 -0.0358  1.4856
    4MOL0     H  537   7.126   0.011  11.056  1.9281  0.9268  0.1526
    4MOL0     H  538   7.448  -0.020  10.972  1.0454  2.2950  4.8421
    4MOL0     H  539   7.405   0.122  10.864 -0.2506 -1.0609 -0.8889
    4MOL0     H  540   7.329   0.088  11.028 -2.6029 -0.4453 -1.5130
    5MOL0     O  541   8.409   8.530   2.440  0.3278 -0.3514 -0.4289
    5MOL0     C  542   8.363   8.535   2.321  0.1779  0.4343 -1.1192
    5MOL0     O  543   8.421   8.602   2.215  0.3289  0.1697  0.2181
    5MOL0     C  544   8.535   8.676   2.211  0.6685  0.0361  0.4552
    5MOL0     C  545   8.621   8.696   2.313  0.0672 -0.5172  0.2251
    5MOL0     C  546   8.732   8.778   2.286  0.0398 -0.3800 -0.4412
    5MOL0     C  547   8.741   8.844   2.164 -0.1211  0.3207 -0.5245
    5MOL0     O  548   8.845   8.939   2.158 -0.6049  0.0898 -0.3182
    5MOL0     C  549   8.862   9.021   2.041  1.1483 -0.3821 -0.1084
    5MOL0     C  550   8.969   9.125   2.061 -0.2413  0.2841 -0.4571
    5MOL0     C  551   9.110   9.078   2.065 -0.3263  0.2090  0.4891
    5MOL0     C  552   9.214   9.184   2.094  0.3433  0.0880  0.3755
    5MOL0     C  553   9.359   9.137   2.088  0.1049 -0.3774 -0.6193
    5MOL0     C  554   9.389   9.100   1.935  0.6576 -0.2096 -0.6831
    5MOL0     C  555   9.540   9.087   1.908  0.6603  0.0461  0.8519
    5MOL0     C  556   9.605   9.212   1.835  0.0119 -0.0465  0.2170
    5MOL0     N  557   9.755   9.190   1.819  0.1341  0.5981 -1.2346
    5MOL0     C  558   9.848   9.215   1.914  1.3460 -0.0869  0.4920
    5MOL0     C  559   9.960   9.158   1.866  0.7903  0.6008  0.1580
    5MOL0     C  560  10.096   9.156   1.940  0.4988  0.0778 -0.7369
    5MOL0     C  561  10.203   9.053   1.891  0.1091  0.3809 -0.0733
    5MOL0     C  562  10.145   8.914   1.873  0.2816  0.2986  0.2526
    5MOL0     C  563  10.260   8.823   1.818 -0.7847  0.7477 -0.7202
    5MOL0     O  564  10.367   8.813   1.915 -0.3650  0.7304 -0.3893
    5MOL0     C  565  10.484   8.762   1.871 -1.0783  1.0173  0.3363
    5MOL0     C  566  10.516   8.700   1.750 -0.1442  0.3216  0.5793
    5MOL0     C  567  10.640   8.636   1.729 -0.1549  0.4422  1.0588
    5MOL0     C  568  10.729   8.631   1.840 -0.7525 -0.0750 -0.3680
    5MOL0     C  569  10.864   8.570   1.825 -0.3196 -0.2341  0.5856
    5MOL0     O  570  10.950   8.565   1.932  0.5239 -0.2481  0.1051
    5MOL0     C  571  11.071   8.507   1.912  0.3326  0.2918 -0.0469
    5MOL0     C  572  11.174   8.557   1.998 -0.1656 -0.1548 -0.1369
    5MOL0     C  573  11.297   8.503   2.004  0.5775 -0.4151 -0.6490
    5MOL0     C  574  11.329   8.388   1.929  0.3255  0.6516  0.3012
    5MOL0     O  575  11.457   8.334   1.939  0.3395  0.1469 -0.0691
    5MOL0     C  576  11.486   8.210   1.891  0.1120 -0.9948 -0.4255
    5MOL0     C  577  11.625   8.156   1.916  0.5334  0.2912 -0.5946
    5MOL0     C  578  11.734   8.201   1.815  0.1792  0.7419  0.3872
    5MOL0     C  579  11.874   8.168   1.885 -0.2405 -0.3830  0.2392
    5MOL0     C  580  11.990   8.204   1.803 -0.9735 -0.0911  0.3858
    5MOL0     C  581  12.119   8.171   1.884 -0.4181 -0.1501  0.3148
    5MOL0     C  582  12.153   8.267   1.992  0.5361  0.3179 -0.3819
    5MOL0     C  583  12.297   8.269   2.007 -0.4766 -0.8630 -0.2469
    5MOL0    Cl  584  12.358   8.369   2.146  0.4797 -0.1875 -0.5670
    5MOL0     C  585  11.223   8.333   1.853  0.1134 -0.2728 -0.5689
    5MOL0     C  586  11.097   8.391   1.836 -0.1760 -0.2634 -0.4265
    5MOL0     O  587  10.891   8.547   1.704 -0.6624  0.3897  0.6106
    5MOL0     C  588  10.706   8.701   1.961 -0.2748  0.2206  0.3414
    5MOL0     C  589  10.586   8.776   1.964 -0.3316 -0.4757 -0.7238
    5MOL0     N  590   9.937   9.104   1.742 -0.8520  0.6346 -0.0651
    5MOL0     N  591   9.819   9.133   1.710  0.1262  0.6549  0.3883
    5MOL0     C  592   8.654   8.818   2.062 -0.4039  0.2860  0.5411
    5MOL0     C  593   8.549   8.734   2.084 -0.2222  0.3276 -0.6410
    5MOL0     C  594   8.239   8.455   2.296  0.2976 -0.2682  0.2803
    5MOL0     C  595   8.161   8.482   2.181 -0.1399  0.0562 -0.0041
    5MOL0     C  596   8.043   8.419   2.158 -0.0455 -0.1377 -0.0284
    5MOL0     C  597   7.993   8.329   2.253 -1.0404  0.2464 -0.6135
    5MOL0     O  598   7.878   8.260   2.240 -0.1934 -0.4963  0.4348
    5MOL0     C  599   7.775   8.301   2.143  0.4951  0.5538  0.1919
    5MOL0     C  600   7.671   8.196   2.126 -0.3034  0.6014  0.6042
    5MOL0     C  601   7.729   8.093   2.024  0.1070 -0.4191 -0.5338
    5MOL0     C  602   7.643   7.974   2.000  0.7065  0.4427 -0.3976
    5MOL0     C  603   7.689   7.879   1.907 -0.8700 -1.1370 -0.8498
    5MOL0     C  604   7.750   7.805   1.827  0.4589  0.3186 -0.8237
    5MOL0     C  605   8.069   8.294   2.366  0.4607 -0.6409  0.0130
    5MOL0     C  606   8.200   8.351   2.387 -0.0662  0.5207  0.4691
    5MOL0     C  607   8.294   8.279   2.493 -0.8141  0.4727  0.1051
    5MOL0     H  608   8.604   8.664   2.416 -2.9510  2.2391  0.7805
    5MOL0     H  609   8.811   8.794   2.359  0.5507 -0.6404 -0.9282
    5MOL0     H  610   8.880   8.964   1.950  1.8893  1.0270 -0.8771
    5MOL0     H  611   8.769   9.077   2.035  1.1639 -0.2005  1.1285
    5MOL0     H  612   8.948   9.171   2.157 -1.0183 -1.6856  0.3804
    5MOL0     H  613   8.966   9.199   1.980  0.8255  0.3148 -0.4738
    5MOL0     H  614   9.133   9.020   1.975 -1.7601  0.6108 -0.1788
    5MOL0     H  615   9.107   9.017   2.155  0.5055  0.0717  0.4308
    5MOL0     H  616   9.198   9.273   2.033 -1.3253 -0.6933 -0.3984
    5MOL0     H  617   9.197   9.222   2.196 -0.6798  1.2064 -0.1875
    5MOL0     H  618   9.422   9.216   2.130 -1.9590  1.3539 -0.5907
    5MOL0     H  619   9.368   9.054   2.158  0.0749  1.2716  1.4242
    5MOL0     H  620   9.339   9.004   1.921 -0.7416  0.7558 -2.7912
    5MOL0     H  621   9.342   9.175   1.869 -0.8448  1.1463  1.7882
    5MOL0     H  622   9.561   8.996   1.851  3.5896  0.0129  1.8027
    5MOL0     H  623   9.592   9.087   2.005  1.3506  1.1727  0.5031
    5MOL0     H  624   9.566   9.216   1.733  0.0863 -1.6516  0.1112
    5MOL0     H  625   9.579   9.303   1.890 -0.9978  2.8262 -4.4535
    5MOL0     H  626   9.829   9.276   2.001  0.4204  0.4430 -0.0629
    5MOL0     H  627  10.155   9.247   1.930  1.8107 -0.3828  2.0224
    5MOL0     H  628  10.079   9.150   2.047  0.0604  0.9376 -0.7517
    5MOL0     H  629  10.247   9.076   1.793  2.5615 -1.8076  0.4136
    5MOL0     H  630  10.285   9.055   1.963  1.5816  0.7384 -1.6956
    5MOL0     H  631  10.070   8.909   1.793 -2.0073 -0.5914  2.3615
    5MOL0     H  632  10.100   8.865   1.959  0.1965 -2.3045 -1.1855
    5MOL0     H  633  10.307   8.869   1.731  2.3936 -0.1211  0.4218
    5MOL0     H  634  10.218   8.730   1.779 -0.6180 -0.3614  1.5647
    5MOL0     H  635  10.448   8.697   1.666 -2.2643  2.0532  2.1438
    5MOL0     H  636  10.666   8.595   1.633 -1.7504  2.2458 -0.2327
    5MOL0     H  637  11.156   8.647   2.055  1.1690  1.5463 -2.2453
    5MOL0     H  638  11.366   8.537   2.080 -0.9764 -0.4910  0.8499
    5MOL0     H  639  11.406   8.139   1.916  0.0050 -0.4983  0.7444
    5MOL0     H  640  11.488   8.224   1.783  1.6136 -0.0137 -0.2942
    5MOL0     H  641  11.638   8.172   2.023 -2.0297 -1.4580  0.0659
    5MOL0     H  642  11.618   8.047   1.908  2.5811  0.0183  0.6324
    5MOL0     H  643  11.729   8.147   1.721  0.0316  0.5625  0.4973
    5MOL0     H  644  11.723   8.306   1.787  0.7101  0.2876 -1.6318
    5MOL0     H  645  11.871   8.062   1.911  0.9391 -0.8015 -1.2024
    5MOL0     H  646  11.870   8.229   1.976 -1.1399  0.2017 -0.1763
    5MOL0     H  647  11.980   8.305   1.762 -0.8701 -0.7391 -1.3084
    5MOL0     H  648  11.979   8.129   1.724 -1.5299  0.3107  0.0753
    5MOL0     H  649  12.114   8.066   1.913 -0.6717  0.0696  1.1110
    5MOL0     H  650  12.199   8.182   1.811 -0.5863  1.4216  0.3272
    5MOL0     H  651  12.123   8.240   2.094 -0.5987  2.9198  0.0620
    5MOL0     H  652  12.104   8.364   1.975 -1.2634  0.0309  2.4200
    5MOL0     H  653  12.324   8.168   2.040  2.3248 -0.1540 -0.0778
    5MOL0     H  654  12.359   8.298   1.921  0.3661  0.3288  0.7417
    5MOL0     H  655  11.243   8.244   1.795 -0.4851 -1.3862  0.8796
    5MOL0     H  656  11.009   8.347   1.789 -0.6373 -0.1746  0.3356
    5MOL0     H  657  10.778   8.709   2.042  0.2720  0.9847 -0.2093
    5MOL0     H  658  10.570   8.826   2.059  2.8298 -0.2091 -0.2077
    5MOL0     H  659   8.663   8.873   1.969 -1.7360  0.6625  0.6097
    5MOL0     H  660   8.475   8.711   2.008  0.1579 -0.6305 -0.7308
    5MOL0     H  661   8.190   8.567   2.120  0.4114  0.7711  1.2028
    5MOL0     H  662   7.996   8.450   2.065 -0.3160  0.2618  0.2367
    5MOL0     H  663   7.828   8.317   2.048  1.4904  1.5885  0.8980
    5MOL0     H  664   7.727   8.398   2.161  0.0166  0.7184 -1.7058
    5MOL0     H  665   7.573   8.234   2.095 -1.0296  0.1199  2.2522
    5MOL0     H  666   7.646   8.155   2.224 -3.0946  0.9279  0.1187
    5MOL0     H  667   7.823   8.061   2.071  0.6226  1.4560 -0.2310
    5MOL0     H  668   7.749   8.147   1.931  0.9536 -0.1864 -0.2260
    5MOL0     H  669   7.607   7.922   2.089  0.0700  0.3697 -0.6976
    5MOL0     H  670   7.553   8.019   1.957  0.3077 -1.7206 -1.9758
    5MOL0     H  671   7.787   7.728   1.764 -2.7154 -0.5841 -1.7900
    5MOL0     H  672   8.039   8.217   2.436 -0.5617  0.4006  0.7772
    5MOL0     H  673   8.393   8.275   2.447 -1.3798 -2.2388 -1.0908
    5MOL0     H  674   8.310   8.322   2.592  2.1907 -0.5159  0.1401
    5MOL0     H  675   8.255   8.178   2.507 -2.4536  0.6626 -2.4065
    6MOL0     O  676   3.743   6.415  10.237  0.7247 -0.1835  0.5525
    6MOL0     C  677   3.714   6.370  10.129  0.5534 -0.5245  0.8710
    6MOL0     O  678   3.788   6.274  10.070  0.0105  0.3992 -0.1429
    6MOL0     C  679   3.919   6.236  10.109  0.5366  1.4030 -0.2223
    6MOL0     C  680   3.947   6.188  10.239 -0.1033 -0.5188  0.1165
    6MOL0     C  681   4.075   6.145  10.268  0.8039 -0.5935 -0.5378
    6MOL0     C  682   4.172   6.158  10.171 -0.4192 -0.1619 -0.9458
    6MOL0     O  683   4.299   6.124  10.209 -0.5876 -0.7891  0.3787
    6MOL0     C  684   4.375   6.243  10.242  0.9260 -0.6090 -0.0782
    6MOL0     C  685   4.443   6.285  10.113 -0.3989  0.0625  0.6500
    6MOL0     C  686   4.550   6.395  10.145  0.1110 -0.0193  0.0672
    6MOL0     C  687   4.613   6.443  10.018 -0.5541  0.3658  0.1471
    6MOL0     C  688   4.697   6.565  10.055  0.0187 -0.6736 -0.1093
    6MOL0     C  689   4.761   6.642   9.929  1.5437  0.4210 -0.2229
    6MOL0     C  690   4.900   6.679   9.943 -0.4963 -1.2024 -0.7170
    6MOL0     C  691   5.013   6.581   9.913 -0.5356 -0.6673 -0.2501
    6MOL0     N  692   5.020   6.545   9.765  0.1954 -0.3451 -0.0155
    6MOL0     C  693   4.967   6.433   9.708 -0.2407  0.8510 -0.7902
    6MOL0     C  694   5.035   6.426   9.586  0.0119  0.2238  0.1837
    6MOL0     C  695   4.998   6.339   9.466  0.1599 -0.1788  0.5978
    6MOL0     C  696   5.071   6.209   9.468  0.3429  0.1414 -0.1786
    6MOL0     C  697   5.072   6.159   9.317  0.2959  0.2266 -0.0414
    6MOL0     C  698   5.149   6.021   9.321 -0.5826  0.5242  0.7635
    6MOL0     O  699   5.262   6.013   9.401  0.1113  0.6416 -0.2412
    6MOL0     C  700   5.372   6.089   9.380  0.1174  0.2531 -0.0109
    6MOL0     C  701   5.474   6.080   9.477 -0.5607 -0.2817  0.9689
    6MOL0     C  702   5.592   6.142   9.455 -0.2009 -0.3861  0.1716
    6MOL0     C  703   5.624   6.195   9.331 -0.4872 -0.3829  0.6558
    6MOL0     C  704   5.762   6.241   9.297 -1.3145  0.7879  0.5721
    6MOL0     O  705   5.783   6.322   9.182 -0.7290 -0.1958 -0.5440
    6MOL0     C  706   5.901   6.397   9.150  0.0142  0.1316 -0.3530
    6MOL0     C  707   5.977   6.464   9.253  0.5335 -0.4889  0.6921
    6MOL0     C  708   6.089   6.528   9.214 -0.7565 -0.0891 -0.9812
    6MOL0     C  709   6.130   6.540   9.079  0.3844  0.2661 -0.1266
    6MOL0     O  710   6.238   6.616   9.040  0.1902  0.4611 -0.4399
    6MOL0     C  711   6.358   6.559   9.081 -0.6369 -0.1329 -0.1010
    6MOL0     C  712   6.455   6.545   8.955  0.3951 -0.1758 -0.8623
    6MOL0     C  713   6.539   6.661   8.927 -0.7393  0.6362  0.9997
    6MOL0     C  714   6.619   6.622   8.791  0.8195  0.4770 -0.3552
    6MOL0     C  715   6.731   6.721   8.755  0.0878 -0.4227  0.3949
    6MOL0     C  716   6.847   6.709   8.853 -1.0657  0.3039  0.8654
    6MOL0     C  717   6.970   6.796   8.813  0.5353  0.2951 -0.0813
    6MOL0     C  718   7.105   6.737   8.876  0.3657 -0.1863 -0.3439
    6MOL0    Cl  719   7.114   6.573   8.845  0.6912  0.0767 -0.1585
    6MOL0     C  720   6.044   6.489   8.978  0.3627 -0.5036  1.0370
    6MOL0     C  721   5.932   6.413   9.018  0.0633 -0.0099  0.4968
    6MOL0     O  722   5.852   6.218   9.376  0.0217  0.4434  0.0741
    6MOL0     C  723   5.526   6.195   9.226  0.5939 -0.3066  0.2115
    6MOL0     C  724   5.398   6.155   9.256  0.4529  0.6149 -0.5842
    6MOL0     N  725   5.115   6.535   9.573 -1.4108  0.3075 -0.4041
    6MOL0     N  726   5.096   6.610   9.675 -0.3374 -0.5654  0.6135
    6MOL0     C  727   4.144   6.208  10.044  0.4340  1.0952  0.2477
    6MOL0     C  728   4.020   6.249  10.012  0.4516 -0.2436 -0.2601
    6MOL0     C  729   3.588   6.411  10.068 -0.5054 -0.4000  0.1485
    6MOL0     C  730   3.596   6.432   9.929  0.7363  0.3202 -0.0758
    6MOL0     C  731   3.506   6.489   9.841 -0.2912 -0.0238  0.1365
    6MOL0     C  732   3.389   6.538   9.908 -0.3149  0.3800 -0.2753
    6MOL0     O  733   3.297   6.611   9.852 -0.1892 -0.5332  0.6028
    6MOL0     C  734   3.290   6.622   9.705  0.3503 -0.3997  0.9660
    6MOL0     C  735   3.178   6.720   9.675 -0.5377  0.0341 -0.3062
    6MOL0     C  736   3.050   6.668   9.747  0.1358 -0.0194 -0.4263
    6MOL0     C  737   2.941   6.780   9.752 -0.1014 -0.3718  0.4892
    6MOL0     C  738   2.892   6.808   9.622 -1.1542 -0.3202  0.3546
    6MOL0     C  739   2.870   6.817   9.501  0.4547 -0.7182 -0.0478
    6MOL0     C  740   3.375   6.511  10.047 -0.3703 -0.0671 -0.2863
    6MOL0     C  741   3.469   6.447  10.131  0.1092 -0.6437  0.2494
    6MOL0     C  742   3.451   6.416  10.282 -0.4853  0.0705  1.4200
    6MOL0     H  743   3.871   6.181  10.316  1.4252  0.7383  1.8451
    6MOL0     H  744   4.099   6.115  10.369 -3.8676  1.4843  1.4710
    6MOL0     H  745   4.316   6.325  10.285 -0.2190 -1.4745  0.0388
    6MOL0     H  746   4.450   6.224  10.320  1.1298  0.2303 -0.0609
    6MOL0     H  747   4.376   6.329  10.039  1.3970 -0.5902 -1.5000
    6MOL0     H  748   4.492   6.200  10.065  0.0029  0.5738  0.1357
    6MOL0     H  749   4.620   6.348  10.215 -0.5567  1.1595  1.5822
    6MOL0     H  750   4.511   6.484  10.194 -0.4156  0.1645 -0.6601
    6MOL0     H  751   4.677   6.367   9.973 -2.8706 -0.9691 -1.1339
    6MOL0     H  752   4.538   6.477   9.946 -0.7937  1.8435  1.0504
    6MOL0     H  753   4.639   6.644  10.103 -1.7671 -0.9777 -1.6416
    6MOL0     H  754   4.773   6.550  10.133  0.5086  1.8573 -0.0212
    6MOL0     H  755   4.742   6.582   9.840  1.3609 -1.0942  0.7911
    6MOL0     H  756   4.710   6.738   9.924  1.1689  0.2907  0.8357
    6MOL0     H  757   4.924   6.716  10.043  0.0739 -2.4237 -0.3783
    6MOL0     H  758   4.914   6.765   9.877 -1.2311 -0.9079 -0.4899
    6MOL0     H  759   5.110   6.625   9.941  0.7947 -2.5675 -1.5662
    6MOL0     H  760   4.997   6.493   9.975  0.4727 -1.5117 -1.1494
    6MOL0     H  761   4.884   6.374   9.744  0.3822  0.5618  0.2080
    6MOL0     H  762   4.890   6.324   9.471 -0.1920  1.4010 -0.9735
    6MOL0     H  763   5.010   6.406   9.380 -1.1495 -0.5979  0.0702
    6MOL0     H  764   5.170   6.225   9.512 -0.3541 -1.4140  2.0932
    6MOL0     H  765   5.019   6.138   9.532 -0.2918  2.3228  1.8680
    6MOL0     H  766   5.119   6.244   9.268  1.0748  1.9521  3.3926
    6MOL0     H  767   4.970   6.147   9.278  0.1613 -0.4138  0.4884
    6MOL0     H  768   5.178   5.994   9.220  0.1204 -0.9950  1.3444
    6MOL0     H  769   5.080   5.940   9.346  2.0531 -2.9615 -2.1605
    6MOL0     H  770   5.458   6.038   9.576 -0.9703  0.4816  1.2357
    6MOL0     H  771   5.669   6.157   9.530 -1.1423  0.8655  0.9128
    6MOL0     H  772   5.938   6.452   9.354  0.4711 -0.6220  0.6521
    6MOL0     H  773   6.150   6.592   9.277 -2.5519  0.1948  0.5899
    6MOL0     H  774   6.418   6.623   9.146  0.7880 -1.6502  0.1239
    6MOL0     H  775   6.343   6.467   9.139 -0.0931  1.5248  2.8940
    6MOL0     H  776   6.512   6.453   8.967  1.4781  0.5644 -0.2329
    6MOL0     H  777   6.400   6.534   8.861  1.1787  0.5420 -1.4159
    6MOL0     H  778   6.474   6.746   8.907 -0.8902 -0.0150 -1.7179
    6MOL0     H  779   6.617   6.681   9.002 -0.4108  0.0669  0.8178
    6MOL0     H  780   6.542   6.620   8.713  1.7487 -1.9784 -1.3154
    6MOL0     H  781   6.668   6.524   8.802  0.7507  0.5420  0.5706
    6MOL0     H  782   6.687   6.820   8.762 -2.9463 -1.7540  2.3133
    6MOL0     H  783   6.766   6.708   8.652  1.3304  1.1946  0.5746
    6MOL0     H  784   6.804   6.745   8.947 -2.0394  3.3075 -0.6256
    6MOL0     H  785   6.870   6.603   8.871 -0.4376  0.7905  3.2732
    6MOL0     H  786   6.952   6.899   8.844 -1.1412  0.4685 -1.4767
    6MOL0     H  787   6.970   6.792   8.704 -4.1483  1.3785 -0.3302
    6MOL0     H  788   7.192   6.783   8.829  1.7606 -1.2821  1.0436
    6MOL0     H  789   7.102   6.767   8.981  0.6905  1.0126 -0.6628
    6MOL0     H  790   6.074   6.505   8.875 -0.3033 -0.9502  0.7637
    6MOL0     H  791   5.876   6.363   8.939  0.8353  1.4508 -1.0355
    6MOL0     H  792   5.541   6.232   9.125 -0.1495 -0.7436 -0.0669
    6MOL0     H  793   5.326   6.168   9.175 -0.5131  1.8466  0.4421
    6MOL0     H  794   4.222   6.193   9.970  0.3762 -2.8213  0.8100
    6MOL0     H  795   3.989   6.278   9.912  1.7612  4.0369  0.3875
    6MOL0     H  796   3.685   6.396   9.879  0.7159 -0.2227  0.2694
    6MOL0     H  797   3.524   6.488   9.734 -3.5569 -0.4447 -0.5335
    6MOL0     H  798   3.248   6.529   9.667 -1.0285  0.9377 -0.9805
    6MOL0     H  799   3.382   6.659   9.659 -2.4247  1.1668 -3.9735
    6MOL0     H  800   3.163   6.738   9.568 -1.7377  0.0950 -0.1357
    6MOL0     H  801   3.196   6.818   9.721 -1.0606  0.0320 -0.0899
    6MOL0     H  802   3.061   6.620   9.844 -4.3736  0.2849  0.4396
    6MOL0     H  803   3.019   6.586   9.682  0.2723  1.5036 -2.5339
    6MOL0     H  804   2.866   6.755   9.828 -0.1098 -0.1039  0.5718
    6MOL0     H  805   2.981   6.870   9.799  0.1365 -1.6264  2.8515
    6MOL0     H  806   2.841   6.813   9.398 -0.2533 -0.0774  0.1225
    6MOL0     H  807   3.285   6.551  10.094  1.8204  2.0150  2.4175
    6MOL0     H  808   3.369   6.479  10.317  0.5484  1.8928  0.7148
    6MOL0     H  809   3.426   6.309  10.286  0.5129 -0.6036 -3.4853
    6MOL0     H  810   3.537   6.423  10.349  0.7575  3.3560 -0.3175
    7MOL0     O  811   5.886   6.518   5.384  0.3457  0.3673 -0.1150
    7MOL0     C  812   5.844   6.619   5.437 -0.1464 -0.5315  0.0430
    7MOL0     O  813   5.869   6.653   5.569  1.2162  0.1072  0.1689
    7MOL0     C  814   5.968   6.611   5.651  0.3377  0.1853 -0.1185
    7MOL0     C  815   6.072   6.538   5.614 -0.5828 -0.8270 -0.6078
    7MOL0     C  816   6.165   6.494   5.709  0.0184  0.5038  0.8524
    7MOL0     C  817   6.154   6.533   5.843  0.6893 -0.2925 -0.3646
    7MOL0     O  818   6.236   6.481   5.940  0.3081  0.2158 -0.6525
    7MOL0     C  819   6.199   6.505   6.078 -0.4174  0.8827  0.2245
    7MOL0     C  820   6.280   6.418   6.179 -0.5450  0.3656 -1.1896
    7MOL0     C  821   6.280   6.486   6.322  0.0435 -0.7372  0.9561
    7MOL0     C  822   6.409   6.542   6.366 -0.6547  0.5968  1.2095
    7MOL0     C  823   6.537   6.458   6.323  0.1706 -0.0844 -0.4222
    7MOL0     C  824   6.657   6.523   6.400  0.0412 -0.3303 -0.6045
    7MOL0     C  825   6.789   6.459   6.390  0.6073  0.3448  0.4762
    7MOL0     C  826   6.842   6.449   6.240  0.2217 -0.1973  0.0175
    7MOL0     N  827   6.986   6.412   6.241 -0.5580 -0.6377 -0.2229
    7MOL0     C  828   7.091   6.494   6.217 -0.9104 -0.3101  0.3372
    7MOL0     C  829   7.200   6.409   6.207 -0.0454 -0.2018 -0.4587
    7MOL0     C  830   7.334   6.445   6.149 -0.1206 -0.6207  0.4766
    7MOL0     C  831   7.399   6.333   6.082 -0.0386  0.1600 -0.5463
    7MOL0     C  832   7.320   6.271   5.956 -0.0613 -0.4313 -0.3700
    7MOL0     C  833   7.403   6.155   5.895 -0.1977 -0.3486  1.3342
    7MOL0     O  834   7.533   6.196   5.853  0.4697 -0.2627  0.1181
    7MOL0     C  835   7.629   6.102   5.854  0.2640  0.1461 -1.5360
    7MOL0     C  836   7.744   6.120   5.932  1.6081 -0.1659 -0.0592
    7MOL0     C  837   7.849   6.022   5.932 -0.5004 -1.4337  0.1253
    7MOL0     C  838   7.840   5.910   5.847  0.3148 -0.4177 -0.3667
    7MOL0     C  839   7.950   5.816   5.834  0.0700 -0.6753 -0.6558
    7MOL0     O  840   7.947   5.749   5.717  0.2465 -0.3747  0.1423
    7MOL0     C  841   8.072   5.712   5.684 -0.6318 -0.3281 -0.3112
    7MOL0     C  842   8.140   5.792   5.595 -0.1919 -0.5247 -0.8364
    7MOL0     C  843   8.276   5.767   5.569  0.5599 -0.7840 -0.3646
    7MOL0     C  844   8.338   5.652   5.615 -0.0932 -0.3071  0.2091
    7MOL0     O  845   8.464   5.614   5.586 -0.4385 -0.5432  0.4359
    7MOL0     C  846   8.550   5.682   5.679  0.2558  0.0170 -0.4570
    7MOL0     C  847   8.702   5.640   5.649 -0.2386 -0.1534 -0.4275
    7MOL0     C  848   8.799   5.734   5.722  0.0729  0.2682 -0.1799
    7MOL0     C  849   8.942   5.678   5.746  0.2020 -0.4550  0.4625
    7MOL0     C  850   9.019   5.774   5.844  0.0112  0.6111  0.4657
    7MOL0     C  851   9.169   5.750   5.830  0.1088  0.3042  0.1449
    7MOL0     C  852   9.241   5.865   5.898 -0.3946  0.3916  0.5599
    7MOL0     C  853   9.390   5.861   5.873  0.5192  0.4877 -0.3846
    7MOL0    Cl  854   9.473   5.731   5.950 -0.0853 -0.4169 -0.2790
    7MOL0     C  855   8.256   5.560   5.684  0.0612  0.0963  0.2358
    7MOL0     C  856   8.130   5.591   5.725  0.3590 -0.3165 -0.2934
    7MOL0     O  857   8.047   5.832   5.901 -0.4440  0.8641 -0.1917
    7MOL0     C  858   7.726   5.905   5.768  0.2553  0.0396  0.2522
    7MOL0     C  859   7.623   5.996   5.771  0.4598  0.0312 -0.0115
    7MOL0     N  860   7.166   6.281   6.257  0.0518 -0.5584  0.5109
    7MOL0     N  861   7.035   6.281   6.265  0.3009 -0.2697  0.6557
    7MOL0     C  862   6.042   6.616   5.877 -0.6569  0.4619  0.1329
    7MOL0     C  863   5.950   6.650   5.779 -1.0361  0.1575  0.6393
    7MOL0     C  864   5.732   6.685   5.371  0.0153 -0.5928  0.5089
    7MOL0     C  865   5.626   6.723   5.448  0.4136  0.4625 -0.3867
    7MOL0     C  866   5.518   6.795   5.394 -0.3540 -0.6008  0.3524
    7MOL0     C  867   5.512   6.837   5.259  0.2914  0.4115  0.6598
    7MOL0     O  868   5.421   6.929   5.200 -0.8260 -0.2345  0.2287
    7MOL0     C  869   5.402   7.046   5.281  0.2500  0.3780 -0.2222
    7MOL0     C  870   5.333   7.153   5.213 -0.9912 -0.2323 -0.2834
    7MOL0     C  871   5.187   7.109   5.177  0.7094 -0.7474  0.1723
    7MOL0     C  872   5.098   7.227   5.122  0.9363 -0.7089  0.6051
    7MOL0     C  873   4.966   7.172   5.097 -0.1952 -0.6805  0.2889
    7MOL0     C  874   4.854   7.120   5.078 -0.5776  0.5432  0.0744
    7MOL0     C  875   5.621   6.805   5.189  0.5926  0.1781  0.1547
    7MOL0     C  876   5.732   6.721   5.236 -0.6355  0.1645 -0.1097
    7MOL0     C  877   5.832   6.698   5.129 -0.9337 -0.0629 -0.4025
    7MOL0     H  878   6.080   6.506   5.511 -0.3593  2.6593 -1.8039
    7MOL0     H  879   6.250   6.436   5.675  0.0475  1.3725 -0.6360
    7MOL0     H  880   6.225   6.605   6.114 -0.6691  0.1153  2.7687
    7MOL0     H  881   6.093   6.487   6.099 -0.7385  1.2258 -1.0201
    7MOL0     H  882   6.379   6.403   6.135  0.5995 -0.6148  1.4819
    7MOL0     H  883   6.234   6.319   6.188  0.1701  0.1610  0.6884
    7MOL0     H  884   6.266   6.400   6.388 -0.3491 -0.7719  0.8282
    7MOL0     H  885   6.197   6.556   6.332  0.9224  0.1531  2.3754
    7MOL0     H  886   6.412   6.637   6.312 -0.2946  1.2595  2.3554
    7MOL0     H  887   6.403   6.573   6.471 -0.4787  1.7140  0.8961
    7MOL0     H  888   6.530   6.352   6.350 -1.3245  0.2477  0.6132
    7MOL0     H  889   6.546   6.465   6.214 -2.1385 -0.5491 -0.6989
    7MOL0     H  890   6.670   6.627   6.368  3.7084 -0.7741 -1.0594
    7MOL0     H  891   6.629   6.535   6.504  1.3410 -1.4103 -0.0913
    7MOL0     H  892   6.786   6.358   6.432  3.5945  0.1981  0.5456
    7MOL0     H  893   6.858   6.516   6.452  1.3436  1.6004 -1.3925
    7MOL0     H  894   6.784   6.370   6.191 -1.1813 -0.1098  1.4700
    7MOL0     H  895   6.830   6.540   6.181 -0.6348  0.5730  1.3369
    7MOL0     H  896   7.090   6.601   6.196  4.3468 -0.3511 -1.7412
    7MOL0     H  897   7.330   6.524   6.073  1.2968 -1.9122 -1.0126
    7MOL0     H  898   7.399   6.471   6.233  1.0632 -0.0572 -0.5927
    7MOL0     H  899   7.497   6.372   6.050  1.6224 -2.8341  0.5345
    7MOL0     H  900   7.410   6.259   6.162 -1.0572  0.4640 -0.1070
    7MOL0     H  901   7.315   6.349   5.880  2.9837 -0.8954 -1.1930
    7MOL0     H  902   7.224   6.227   5.983  0.2242 -2.1154 -1.9253
    7MOL0     H  903   7.354   6.107   5.810  2.4121 -0.6011 -0.1364
    7MOL0     H  904   7.416   6.077   5.971  0.8932  0.5783  2.1275
    7MOL0     H  905   7.751   6.208   5.994  0.5974  0.0733 -0.2726
    7MOL0     H  906   7.927   6.021   6.007  0.7851 -2.5316 -1.1816
    7MOL0     H  907   8.090   5.879   5.553 -0.6976  1.4732  3.3425
    7MOL0     H  908   8.329   5.842   5.511 -0.8579  2.2239  1.9636
    7MOL0     H  909   8.539   5.789   5.657 -0.8686 -0.2725 -1.3997
    7MOL0     H  910   8.522   5.667   5.784 -2.9691 -0.5305 -1.3000
    7MOL0     H  911   8.728   5.537   5.675 -0.4294  0.2340  1.4203
    7MOL0     H  912   8.725   5.641   5.542 -0.0119 -3.5006 -0.4944
    7MOL0     H  913   8.810   5.824   5.660  1.4565 -0.2809 -0.7719
    7MOL0     H  914   8.774   5.761   5.825  0.3488 -0.5109  0.0945
    7MOL0     H  915   9.000   5.656   5.656  0.0929  0.5735  0.1246
    7MOL0     H  916   8.938   5.582   5.797  0.1268 -0.4963  0.3804
    7MOL0     H  917   8.986   5.763   5.948  0.3065 -1.7747  0.3613
    7MOL0     H  918   9.007   5.880   5.823  2.2942  0.4931 -1.9361
    7MOL0     H  919   9.213   5.660   5.874  2.7593  1.0645 -0.7491
    7MOL0     H  920   9.196   5.749   5.724 -0.1210  0.0265  0.0902
    7MOL0     H  921   9.210   5.859   6.002 -1.2158  1.2318  0.3719
    7MOL0     H  922   9.199   5.953   5.849  0.7706 -1.0601 -3.4860
    7MOL0     H  923   9.413   5.866   5.766 -0.1332 -0.3345 -0.5667
    7MOL0     H  924   9.431   5.957   5.907  1.1762 -1.0354  3.7041
    7MOL0     H  925   8.298   5.473   5.734 -1.9504 -0.4840  1.0171
    7MOL0     H  926   8.068   5.527   5.787  1.3769 -1.2974 -0.2555
    7MOL0     H  927   7.732   5.830   5.690 -0.1555  2.2161 -1.9964
    7MOL0     H  928   7.545   5.992   5.695  0.0774  1.3651  0.2857
    7MOL0     H  929   6.027   6.659   5.975  3.9550 -0.8430  1.6657
    7MOL0     H  930   5.858   6.705   5.800 -3.6222 -4.1278  1.7038
    7MOL0     H  931   5.634   6.701   5.554 -1.2398 -4.9489 -1.0808
    7MOL0     H  932   5.438   6.817   5.464 -0.8254 -4.0997  1.0983
    7MOL0     H  933   5.498   7.066   5.329  0.1572 -1.6393  0.8968
    7MOL0     H  934   5.337   7.016   5.363  0.4823 -0.7209 -0.4265
    7MOL0     H  935   5.385   7.186   5.122  0.0121  1.9060  0.9888
    7MOL0     H  936   5.321   7.240   5.278  2.8683  0.0122  0.3208
    7MOL0     H  937   5.132   7.072   5.264 -0.9286 -1.8300 -1.2519
    7MOL0     H  938   5.188   7.032   5.099  1.7945 -1.5456  0.9363
    7MOL0     H  939   5.083   7.316   5.183 -3.4627 -0.1737 -0.8889
    7MOL0     H  940   5.147   7.251   5.027 -0.1520  1.1561  0.4781
    7MOL0     H  941   4.761   7.069   5.063 -0.2139 -0.5675  1.3562
    7MOL0     H  942   5.626   6.837   5.085  1.5716 -2.5267 -0.7140
    7MOL0     H  943   5.804   6.747   5.035 -1.7545  0.6087  0.1718
    7MOL0     H  944   5.920   6.745   5.174 -1.1814 -2.0556  2.4263
    7MOL0     H  945   5.840   6.590   5.112 -0.1037 -0.3305  1.4511
    8MOL0     O  946   9.846   7.184   4.240  0.3366  0.2472  0.1918
    8MOL0     C  947   9.795   7.108   4.324  1.3226 -0.5597  0.4366
    8MOL0     O  948   9.854   7.016   4.392 -0.0750 -0.3934  0.1751
    8MOL0     C  949   9.980   6.979   4.373 -1.7531 -0.6040  0.4335
    8MOL0     C  950  10.085   7.066   4.332  0.6549 -0.2160 -0.1140
    8MOL0     C  951  10.214   7.018   4.295  0.5980  0.1032 -0.8831
    8MOL0     C  952  10.249   6.887   4.331  0.7454  0.2543  0.3668
    8MOL0     O  953  10.372   6.834   4.312 -0.1483 -0.2522  0.3420
    8MOL0     C  954  10.481   6.907   4.362  0.8942  0.2431  0.7799
    8MOL0     C  955  10.587   6.946   4.247 -0.4967  0.6840  0.3748
    8MOL0     C  956  10.660   6.808   4.207  0.4709 -0.4343 -0.2106
    8MOL0     C  957  10.729   6.813   4.067  0.2922  0.0719  0.3419
    8MOL0     C  958  10.826   6.689   4.045 -0.6401 -0.7378 -0.1722
    8MOL0     C  959  10.903   6.706   3.911 -0.3982  0.6558 -0.1023
    8MOL0     C  960  11.049   6.652   3.911 -0.4329 -0.4555  0.3906
    8MOL0     C  961  11.063   6.494   3.925 -0.4347  0.6364 -0.8221
    8MOL0     N  962  11.209   6.457   3.925 -0.6800 -0.7717 -0.8528
    8MOL0     C  963  11.285   6.464   4.039 -0.3423  0.2540  0.3861
    8MOL0     C  964  11.416   6.433   3.998 -0.8665 -0.9776 -0.2385
    8MOL0     C  965  11.536   6.431   4.086 -0.2944  0.0171  0.4678
    8MOL0     C  966  11.582   6.298   4.159  0.4464  0.0848 -0.1048
    8MOL0     C  967  11.572   6.172   4.072  0.1370  0.2614 -0.0283
    8MOL0     C  968  11.643   6.173   3.935 -0.0640  0.0175  0.2812
    8MOL0     O  969  11.780   6.210   3.948 -0.4478  0.2769  0.7278
    8MOL0     C  970  11.838   6.202   3.827 -1.0064 -1.0929  0.1567
    8MOL0     C  971  11.888   6.321   3.766  1.3310 -0.7625  0.5594
    8MOL0     C  972  11.960   6.310   3.649  0.9421 -0.0239  0.2253
    8MOL0     C  973  11.988   6.186   3.586  0.4256  0.2094 -0.2518
    8MOL0     C  974  12.078   6.183   3.469  0.5427 -0.4363  0.1528
    8MOL0     O  975  12.078   6.066   3.400  0.1604  0.1868  0.1026
    8MOL0     C  976  12.169   6.042   3.298  0.7120 -0.2784 -0.4108
    8MOL0     C  977  12.233   5.915   3.287  0.5948  0.3168 -0.5391
    8MOL0     C  978  12.309   5.882   3.172 -0.2970  1.2955  0.2169
    8MOL0     C  979  12.318   5.972   3.069 -0.7442 -0.3257  0.1789
    8MOL0     O  980  12.381   5.947   2.946  0.3190  0.2173  0.4112
    8MOL0     C  981  12.430   5.819   2.902 -0.7074 -0.7079 -0.2923
    8MOL0     C  982  12.454   5.809   2.752 -0.0692 -1.2460  0.0729
    8MOL0     C  983  12.591   5.881   2.716 -0.3239 -0.0721 -0.3435
    8MOL0     C  984  12.716   5.797   2.760  0.2251 -0.3145  0.0649
    8MOL0     C  985  12.843   5.876   2.736  0.4929  0.0503  1.2263
    8MOL0     C  986  12.977   5.806   2.756  0.3774 -1.0213 -0.3664
    8MOL0     C  987  13.079   5.894   2.686  0.7731 -0.3590 -0.0338
    8MOL0     C  988  13.211   5.876   2.756 -0.2187 -0.1164  0.2368
    8MOL0    Cl  989  13.336   5.964   2.656  0.3757 -0.4585 -0.4558
    8MOL0     C  990  12.247   6.098   3.074 -0.4393  0.6888  0.2134
    8MOL0     C  991  12.181   6.127   3.185 -0.3352  0.4448 -0.1964
    8MOL0     O  992  12.161   6.275   3.458  0.0976  0.4065 -0.0416
    8MOL0     C  993  11.934   6.068   3.646 -0.2109  0.9927 -0.8722
    8MOL0     C  994  11.866   6.077   3.771 -0.3963  0.0131  0.5064
    8MOL0     N  995  11.418   6.427   3.858  0.0843  0.2117 -1.1339
    8MOL0     N  996  11.295   6.439   3.825  0.8121 -0.3626  0.5441
    8MOL0     C  997  10.148   6.806   4.388 -0.3607  0.0344  0.0072
    8MOL0     C  998  10.020   6.847   4.404 -0.5209 -0.6260 -0.0552
    8MOL0     C  999   9.648   7.128   4.355  1.0145 -0.5037  0.3400
    8MOL0     C 1000   9.591   7.041   4.437  0.6943 -0.8315 -0.3367
    8MOL0     C 1001   9.461   7.049   4.480  0.4148  0.6166  1.2974
    8MOL0     C 1002   9.374   7.144   4.432  0.5518  0.6669 -0.3980
    8MOL0     O 1003   9.250   7.155   4.481  1.0835 -0.7419  0.2447
    8MOL0     C 1004   9.186   7.282   4.472  0.1756  0.0370  0.0202
    8MOL0     C 1005   9.046   7.284   4.535 -0.6786 -0.4231 -1.3736
    8MOL0     C 1006   8.976   7.422   4.520 -0.3042 -0.3014 -0.0426
    8MOL0     C 1007   8.885   7.456   4.631  0.0660 -0.0569 -0.2974
    8MOL0     C 1008   8.825   7.583   4.607 -0.2124 -1.2371  0.2365
    8MOL0     C 1009   8.767   7.691   4.586 -0.1750  0.1720  0.6201
    8MOL0     C 1010   9.430   7.235   4.345 -1.1969  0.0493  0.7280
    8MOL0     C 1011   9.566   7.231   4.306  0.3930  0.2382 -0.7692
    8MOL0     C 1012   9.614   7.340   4.212  0.1366  0.0487 -0.4224
    8MOL0     H 1013  10.067   7.171   4.311  4.4085  0.3109 -1.4543
    8MOL0     H 1014  10.294   7.081   4.257  0.3750  0.7239 -0.3465
    8MOL0     H 1015  10.438   6.992   4.417 -0.3936 -2.4333  4.3254
    8MOL0     H 1016  10.523   6.847   4.443  0.9149 -0.1012  0.5133
    8MOL0     H 1017  10.654   7.026   4.278 -1.3825  0.8258  2.0920
    8MOL0     H 1018  10.539   6.993   4.161 -2.5301 -0.2574  0.9168
    8MOL0     H 1019  10.589   6.725   4.199  1.4585 -1.2452 -0.7603
    8MOL0     H 1020  10.737   6.792   4.283  3.1888  1.1134 -2.4119
    8MOL0     H 1021  10.646   6.811   3.996  0.7654  2.8460 -0.3908
    8MOL0     H 1022  10.772   6.913   4.054 -0.9529  0.7466  1.2347
    8MOL0     H 1023  10.912   6.704   4.112  1.7271  0.4972 -3.2528
    8MOL0     H 1024  10.775   6.595   4.070 -3.4197  0.4306 -1.1206
    8MOL0     H 1025  10.851   6.656   3.829  1.0370 -1.7601  0.3831
    8MOL0     H 1026  10.906   6.815   3.903 -1.8592  0.7041 -0.2528
    8MOL0     H 1027  11.107   6.707   3.986 -0.6077 -1.4990  1.3243
    8MOL0     H 1028  11.095   6.675   3.814 -1.3622  2.4841  0.5671
    8MOL0     H 1029  11.021   6.446   4.014  0.1893 -1.2997 -1.5281
    8MOL0     H 1030  11.027   6.448   3.832 -3.4172  1.7729 -0.3686
    8MOL0     H 1031  11.255   6.505   4.135 -1.5423  1.7744 -0.6111
    8MOL0     H 1032  11.616   6.461   4.018  0.4998  2.6862  2.4185
    8MOL0     H 1033  11.535   6.507   4.165  0.1966  1.1498 -0.5926
    8MOL0     H 1034  11.687   6.322   4.176 -0.2371  4.9548 -1.0425
    8MOL0     H 1035  11.521   6.286   4.249 -0.7210  1.3095 -0.6851
    8MOL0     H 1036  11.465   6.172   4.046  0.1172 -0.2181  0.0384
    8MOL0     H 1037  11.600   6.082   4.129  1.2185 -2.1037 -3.9303
    8MOL0     H 1038  11.594   6.241   3.865  2.2248  1.8793  0.3891
    8MOL0     H 1039  11.614   6.073   3.900 -2.2099  0.0154  1.8151
    8MOL0     H 1040  11.865   6.418   3.810 -1.0633 -1.0092 -0.0106
    8MOL0     H 1041  11.989   6.401   3.599 -0.5446  1.2469  1.5636
    8MOL0     H 1042  12.219   5.850   3.373 -1.4403  0.9708 -0.3287
    8MOL0     H 1043  12.369   5.792   3.161  1.7192  2.4413  1.2922
    8MOL0     H 1044  12.520   5.785   2.954 -0.1894  0.1188 -0.6428
    8MOL0     H 1045  12.354   5.742   2.919  1.1906 -2.5818  0.1227
    8MOL0     H 1046  12.451   5.706   2.714  0.4503  0.0455 -3.9304
    8MOL0     H 1047  12.374   5.868   2.706  0.1394 -0.5097  0.6351
    8MOL0     H 1048  12.586   5.911   2.611  0.6080  0.9359 -0.1153
    8MOL0     H 1049  12.595   5.976   2.769 -2.0875  1.3329 -2.5295
    8MOL0     H 1050  12.712   5.705   2.701 -2.3560 -1.3188  1.6352
    8MOL0     H 1051  12.709   5.782   2.868 -1.4511 -0.5814 -0.0504
    8MOL0     H 1052  12.836   5.966   2.798  0.2959  0.3978  0.7032
    8MOL0     H 1053  12.839   5.903   2.630 -0.0876 -0.3538  1.1379
    8MOL0     H 1054  12.995   5.793   2.863  1.8910  2.1192 -0.1046
    8MOL0     H 1055  12.978   5.703   2.719  2.3251 -0.3353 -2.4814
    8MOL0     H 1056  13.045   5.998   2.681 -0.9140 -0.9279 -1.4459
    8MOL0     H 1057  13.080   5.864   2.581 -1.5169  0.6390 -0.4026
    8MOL0     H 1058  13.211   5.920   2.856 -0.0787  0.0271  0.1737
    8MOL0     H 1059  13.228   5.768   2.765 -1.6697 -0.3444  0.5357
    8MOL0     H 1060  12.238   6.174   2.997  1.5480  0.0763 -0.6915
    8MOL0     H 1061  12.131   6.223   3.178 -0.6828  0.4055  1.4699
    8MOL0     H 1062  11.969   5.970   3.614 -2.7371 -1.4055  2.8490
    8MOL0     H 1063  11.830   5.984   3.814  2.9621 -1.9498 -0.5552
    8MOL0     H 1064  10.167   6.703   4.415 -1.5851 -0.2206 -0.0397
    8MOL0     H 1065   9.951   6.767   4.432  0.7056 -2.7633 -2.6885
    8MOL0     H 1066   9.644   6.958   4.484 -1.8759 -0.2522  4.2160
    8MOL0     H 1067   9.428   6.969   4.547  0.0376  0.7431  1.2633
    8MOL0     H 1068   9.166   7.303   4.367 -1.0344 -1.5453 -0.1074
    8MOL0     H 1069   9.249   7.355   4.523  2.3864  0.3673 -2.9358
    8MOL0     H 1070   9.054   7.251   4.639  4.5855 -0.5745 -1.5808
    8MOL0     H 1071   8.986   7.205   4.488 -0.0971 -0.0668 -2.7565
    8MOL0     H 1072   8.915   7.424   4.429 -3.0304 -0.5332  1.6886
    8MOL0     H 1073   9.053   7.499   4.517  2.6737 -2.7464  3.7817
    8MOL0     H 1074   8.815   7.373   4.644  0.5487 -0.3598  0.4221
    8MOL0     H 1075   8.943   7.464   4.723  0.6121  1.2173 -0.7331
    8MOL0     H 1076   8.691   7.760   4.555 -0.6354  0.3802  2.1251
    8MOL0     H 1077   9.370   7.312   4.296  1.6936  0.5842 -2.3928
    8MOL0     H 1078   9.702   7.379   4.264  1.4541 -0.8973 -1.8545
    8MOL0     H 1079   9.639   7.308   4.111  1.6549  2.1795 -0.8005
    8MOL0     H 1080   9.536   7.416   4.220  0.1273 -0.1391  2.2213
    9MOL0     O 1081  11.259   7.008  11.249  0.7146 -0.1476 -0.6756
    9MOL0     C 1082  11.260   7.105  11.182  0.4999 -1.5344  0.5182
    9MOL0     O 1083  11.185   7.118  11.059 -0.7214 -0.2754 -0.1335
    9MOL0     C 1084  11.098   7.018  11.034 -0.2496 -0.9342 -0.2816
    9MOL0     C 1085  11.144   6.891  10.990 -0.3263 -0.8361  0.0830
    9MOL0     C 1086  11.058   6.789  10.935 -0.4922 -0.7559 -0.9315
    9MOL0     C 1087  10.919   6.818  10.937  0.1386 -0.7169 -0.8305
    9MOL0     O 1088  10.837   6.727  10.890  0.4258  0.9515 -0.5499
    9MOL0     C 1089  10.700   6.744  10.866 -0.5287  0.0112 -0.3644
    9MOL0     C 1090  10.643   6.620  10.795  0.1310  0.5214  0.3037
    9MOL0     C 1091  10.496   6.636  10.749 -0.2284  0.1409 -0.4980
    9MOL0     C 1092  10.464   6.516  10.660  0.5195 -0.1329  0.3542
    9MOL0     C 1093  10.328   6.521  10.595 -0.2529  0.0595 -0.2330
    9MOL0     C 1094  10.211   6.485  10.681 -0.3502 -0.2266  0.5554
    9MOL0     C 1095  10.080   6.466  10.597 -0.5905  0.0974 -0.6711
    9MOL0     C 1096   9.968   6.411  10.686  0.2312  0.0771  0.6181
    9MOL0     N 1097   9.844   6.406  10.599 -0.0501  0.1640 -0.2868
    9MOL0     C 1098   9.823   6.329  10.483 -0.2592 -0.7411  0.4679
    9MOL0     C 1099   9.686   6.321  10.472 -0.7094 -0.7727  0.4316
    9MOL0     C 1100   9.609   6.252  10.376  0.2582  0.5755  0.6039
    9MOL0     C 1101   9.649   6.275  10.232  0.3685  0.5793  0.7513
    9MOL0     C 1102   9.555   6.368  10.167 -0.1725 -0.7390 -0.3309
    9MOL0     C 1103   9.550   6.514  10.219 -0.0153  0.1378 -0.1259
    9MOL0     O 1104   9.480   6.526  10.343  0.1327 -0.3347  0.1926
    9MOL0     C 1105   9.342   6.504  10.341  0.7225  0.0833 -0.5216
    9MOL0     C 1106   9.269   6.506  10.462 -0.7294 -0.2751  0.6590
    9MOL0     C 1107   9.130   6.511  10.468  0.5962  0.0768  0.5446
    9MOL0     C 1108   9.059   6.503  10.345 -0.1573  0.6755  0.8654
    9MOL0     C 1109   8.913   6.528  10.331 -0.6605 -0.3313  0.5124
    9MOL0     O 1110   8.855   6.520  10.206  0.2381 -0.0739 -0.3988
    9MOL0     C 1111   8.727   6.473  10.194  0.1026  0.0675  0.1987
    9MOL0     C 1112   8.693   6.362  10.265 -0.1087 -0.0145  0.5590
    9MOL0     C 1113   8.558   6.318  10.257 -0.2682  0.7401 -0.5863
    9MOL0     C 1114   8.463   6.374  10.174 -0.3026 -0.8495 -0.2205
    9MOL0     O 1115   8.340   6.332  10.155 -0.3712  0.0485 -0.3583
    9MOL0     C 1116   8.288   6.233  10.245  0.4779 -0.8042 -0.2241
    9MOL0     C 1117   8.136   6.235  10.229  0.3512  0.5935 -0.2929
    9MOL0     C 1118   8.079   6.372  10.284  0.7183 -0.0537  0.4503
    9MOL0     C 1119   8.023   6.460  10.174  0.1596 -0.2784 -0.0545
    9MOL0     C 1120   7.875   6.428  10.128 -0.1467  0.4988 -0.7148
    9MOL0     C 1121   7.849   6.490   9.992 -0.3289  0.4352 -0.1919
    9MOL0     C 1122   7.710   6.465   9.942  0.5509 -0.5167 -0.1854
    9MOL0     C 1123   7.652   6.559   9.837  0.2431  0.3508  0.1311
    9MOL0    Cl 1124   7.499   6.490   9.776  0.0037 -0.0950  0.5899
    9MOL0     C 1125   8.512   6.477  10.086 -0.0306 -0.0699  0.0927
    9MOL0     C 1126   8.644   6.522  10.097  0.6204 -0.2300  0.0891
    9MOL0     O 1127   8.859   6.551  10.436 -0.0283  0.0890 -0.1149
    9MOL0     C 1128   9.131   6.487  10.226  0.6369  0.8542  0.0463
    9MOL0     C 1129   9.266   6.487  10.224 -0.5723 -0.4519 -0.2849
    9MOL0     N 1130   9.628   6.401  10.566  0.5498 -0.4285 -0.8738
    9MOL0     N 1131   9.719   6.438  10.645  0.4790  0.3662 -0.4730
    9MOL0     C 1132  10.868   6.939  10.993  0.3693 -0.4338  1.4117
    9MOL0     C 1133  10.961   7.044  11.022  0.2740 -0.0526  0.7540
    9MOL0     C 1134  11.325   7.228  11.237  0.5174  0.1810  0.6710
    9MOL0     C 1135  11.261   7.353  11.215 -0.1331  0.1130 -0.8746
    9MOL0     C 1136  11.305   7.469  11.266 -0.2317  0.2231  0.2459
    9MOL0     C 1137  11.408   7.473  11.356  0.9552  0.0498  0.0802
    9MOL0     O 1138  11.469   7.586  11.405  0.1295  0.8547  0.5013
    9MOL0     C 1139  11.397   7.713  11.390  0.1610  0.0755 -1.0008
    9MOL0     C 1140  11.471   7.823  11.454 -0.2761  0.4356 -1.2798
    9MOL0     C 1141  11.407   7.959  11.445 -0.1939  0.4960  0.0484
    9MOL0     C 1142  11.493   8.077  11.482 -0.1674  0.1012  0.1623
    9MOL0     C 1143  11.514   8.098  11.627  0.3244 -0.1014  0.2522
    9MOL0     C 1144  11.538   8.104  11.747  0.0115 -0.8694 -0.1808
    9MOL0     C 1145  11.463   7.355  11.386 -0.9718 -0.0345 -1.1000
    9MOL0     C 1146  11.438   7.229  11.327 -0.0289 -0.0595  0.1824
    9MOL0     C 1147  11.520   7.104  11.350  0.4445  0.3915 -0.4078
    9MOL0     H 1148  11.251   6.877  10.997 -0.0511  0.4726 -1.1498
    9MOL0     H 1149  11.099   6.697  10.895 -1.0350 -1.2312 -0.4209
    9MOL0     H 1150  10.645   6.753  10.960 -2.6411  2.6011 -1.7284
    9MOL0     H 1151  10.678   6.831  10.804  0.5941  1.5970  1.3319
    9MOL0     H 1152  10.648   6.534  10.862  0.4269  0.0549 -0.3106
    9MOL0     H 1153  10.714   6.600  10.714 -1.0083  0.0240 -0.5996
    9MOL0     H 1154  10.477   6.733  10.702 -1.5043 -0.8120 -2.0458
    9MOL0     H 1155  10.426   6.630  10.833 -0.9142 -0.9447 -1.1271
    9MOL0     H 1156  10.534   6.517  10.577 -0.8611  1.9942 -0.8825
    9MOL0     H 1157  10.477   6.419  10.711  0.0070  0.3590  1.4596
    9MOL0     H 1158  10.314   6.625  10.565 -3.0750 -0.9139 -2.7518
    9MOL0     H 1159  10.322   6.453  10.510 -2.7116 -0.6126  0.3940
    9MOL0     H 1160  10.236   6.385  10.716  0.9749  0.4870  1.7453
    9MOL0     H 1161  10.186   6.560  10.757 -3.6574 -0.9654  0.3527
    9MOL0     H 1162  10.097   6.405  10.508  1.8975  4.1524 -3.3415
    9MOL0     H 1163  10.048   6.565  10.563  1.3080  0.8171 -0.4956
    9MOL0     H 1164   9.994   6.310  10.717  0.7731  0.3007  0.9100
    9MOL0     H 1165   9.958   6.476  10.774  0.2356  1.4921 -0.3837
    9MOL0     H 1166   9.902   6.282  10.426  1.8275  1.3523  1.4948
    9MOL0     H 1167   9.632   6.146  10.395  0.7105  0.5526 -0.0197
    9MOL0     H 1168   9.503   6.272  10.394  0.4366  2.6675 -0.3838
    9MOL0     H 1169   9.757   6.296  10.232  1.2102 -2.3851  4.6753
    9MOL0     H 1170   9.649   6.179  10.179  3.5891  1.3002 -0.8005
    9MOL0     H 1171   9.459   6.315  10.162  1.1955 -3.8960  2.3111
    9MOL0     H 1172   9.597   6.374  10.066  2.4020 -4.6195  0.2927
    9MOL0     H 1173   9.506   6.590  10.154  0.4117  1.7055  1.3602
    9MOL0     H 1174   9.650   6.552  10.241 -0.4554 -0.0123  2.5548
    9MOL0     H 1175   9.333   6.511  10.549  2.0421  0.4367 -1.2569
    9MOL0     H 1176   9.072   6.516  10.560  1.4348 -1.1932  1.1722
    9MOL0     H 1177   8.759   6.304  10.330 -2.8454 -3.7272  0.3241
    9MOL0     H 1178   8.523   6.234  10.315 -1.1375  1.8594  0.5608
    9MOL0     H 1179   8.323   6.136  10.209  2.2220  0.6994 -2.9863
    9MOL0     H 1180   8.310   6.261  10.348 -2.3160 -1.6541  0.6884
    9MOL0     H 1181   8.111   6.208  10.126  2.5082 -0.6383 -0.5465
    9MOL0     H 1182   8.098   6.164  10.304 -2.5311  1.3329 -0.9206
    9MOL0     H 1183   7.994   6.351  10.350  0.1058 -0.7838 -0.5424
    9MOL0     H 1184   8.155   6.435  10.332 -0.9391  0.4375  2.5844
    9MOL0     H 1185   8.087   6.471  10.086  1.4738  1.3420  1.0185
    9MOL0     H 1186   8.021   6.562  10.214 -0.2269 -1.2076  2.4725
    9MOL0     H 1187   7.807   6.466  10.205  0.8979  1.1933 -0.1177
    9MOL0     H 1188   7.868   6.319  10.130 -0.4810  0.5276  0.4018
    9MOL0     H 1189   7.856   6.599   9.996 -1.5445  0.5013  0.5432
    9MOL0     H 1190   7.930   6.445   9.933 -0.4452 -0.5318  0.3806
    9MOL0     H 1191   7.633   6.457  10.020  1.4202  1.0449  0.8963
    9MOL0     H 1192   7.710   6.365   9.898  1.5545 -0.0576 -1.2955
    9MOL0     H 1193   7.634   6.662   9.871  0.3978 -0.1861  1.9267
    9MOL0     H 1194   7.723   6.562   9.754  2.1758  2.5195  1.7405
    9MOL0     H 1195   8.445   6.515  10.010 -1.9962  0.4460  1.9872
    9MOL0     H 1196   8.686   6.596  10.029 -2.3875  2.1605  0.6257
    9MOL0     H 1197   9.080   6.468  10.131 -0.8426  2.1284  0.5433
    9MOL0     H 1198   9.313   6.496  10.127  0.8071  3.0770  0.5472
    9MOL0     H 1199  10.761   6.951  10.990 -0.2318 -4.5549  1.0596
    9MOL0     H 1200  10.920   7.141  11.048  1.9147  0.9728 -0.3165
    9MOL0     H 1201  11.171   7.345  11.155 -2.1930  1.6987  1.7535
    9MOL0     H 1202  11.236   7.551  11.248 -1.1495 -0.2399  1.4869
    9MOL0     H 1203  11.295   7.710  11.431  0.1631  1.1378 -0.8794
    9MOL0     H 1204  11.383   7.730  11.283 -2.9469 -1.5674 -0.9626
    9MOL0     H 1205  11.573   7.826  11.415 -0.0592 -0.3058 -0.7858
    9MOL0     H 1206  11.489   7.802  11.560 -0.5892 -0.1838 -1.3459
    9MOL0     H 1207  11.314   7.957  11.502 -0.9636  0.0657 -1.1712
    9MOL0     H 1208  11.375   7.973  11.341 -1.0914  2.3303  0.5244
    9MOL0     H 1209  11.586   8.060  11.427 -1.2710  0.2332 -1.8812
    9MOL0     H 1210  11.447   8.166  11.438  0.9646 -0.3348 -2.0702
    9MOL0     H 1211  11.565   8.116  11.850 -0.5991  1.6453 -0.2525
    9MOL0     H 1212  11.550   7.357  11.451 -1.6193 -2.7298 -0.0354
    9MOL0     H 1213  11.613   7.135  11.400  0.0634  1.4635 -0.3250
    9MOL0     H 1214  11.465   7.041  11.421  0.2946  0.1829 -0.7093
    9MOL0     H 1215  11.524   7.036  11.265 -1.5978  0.3462 -0.5129
   10MOL0     O 1216  10.934   9.661   4.905 -0.4689 -0.1985 -0.6053
   10MOL0     C 1217  10.943   9.723   4.800  0.1964 -0.2566  0.0058
   10MOL0     O 1218  11.050   9.720   4.713  0.2702 -0.6486  0.6442
   10MOL0     C 1219  11.175   9.688   4.759  0.0485 -0.5447  0.8651
   10MOL0     C 1220  11.244   9.762   4.856  0.1545 -0.4676 -0.3813
   10MOL0     C 1221  11.377   9.722   4.907  0.3007  0.1246 -0.1803
   10MOL0     C 1222  11.428   9.606   4.859  0.0733  1.1070  0.1030
   10MOL0     O 1223  11.541   9.570   4.915 -0.2750 -0.5147  0.1677
   10MOL0     C 1224  11.646   9.527   4.833  0.0253 -0.1260 -0.6015
   10MOL0     C 1225  11.782   9.492   4.906  0.2111  0.5496 -0.1498
   10MOL0     C 1226  11.836   9.620   4.972  0.4064  0.6382 -0.3431
   10MOL0     C 1227  11.965   9.595   5.049  0.2905  0.4549 -0.1457
   10MOL0     C 1228  12.078   9.534   4.965  0.3846 -0.0774 -0.4533
   10MOL0     C 1229  12.210   9.512   5.043 -0.3817 -0.5480  0.8113
   10MOL0     C 1230  12.335   9.512   4.952  1.1449 -0.3019  0.0679
   10MOL0     C 1231  12.458   9.473   5.045 -0.4672  0.1429  0.0084
   10MOL0     N 1232  12.559   9.572   5.040 -0.8703  0.5552  0.4743
   10MOL0     C 1233  12.592   9.664   5.129  0.7979  0.5825  0.1471
   10MOL0     C 1234  12.695   9.736   5.074 -0.1111 -0.5273 -0.2473
   10MOL0     C 1235  12.755   9.854   5.151 -0.6109  0.4591  0.0627
   10MOL0     C 1236  12.902   9.836   5.187  0.3987 -1.0950  0.1623
   10MOL0     C 1237  12.972   9.963   5.235  0.3920 -0.1773  0.0715
   10MOL0     C 1238  13.113   9.940   5.284  0.1959 -0.5637 -0.0598
   10MOL0     O 1239  13.184   9.879   5.174  0.2882 -0.5897  0.2911
   10MOL0     C 1240  13.322   9.898   5.154 -0.0038 -0.6464  0.0154
   10MOL0     C 1241  13.414   9.914   5.265  0.6558  0.2997  1.1049
   10MOL0     C 1242  13.546   9.939   5.233  0.5104  0.4774  0.2133
   10MOL0     C 1243  13.602   9.936   5.102  0.5626  0.8582 -0.5153
   10MOL0     C 1244  13.749   9.957   5.075 -0.8941  0.4189 -0.1454
   10MOL0     O 1245  13.781   9.970   4.945 -0.0608  0.1250 -0.1864
   10MOL0     C 1246  13.912   9.985   4.897 -0.0954 -0.4020 -0.4411
   10MOL0     C 1247  14.033   9.963   4.959 -0.4895 -0.6439 -0.9888
   10MOL0     C 1248  14.155   9.972   4.891 -0.8030  0.4811 -0.3928
   10MOL0     C 1249  14.154  10.017   4.770  0.5134  0.6629 -0.2029
   10MOL0     O 1250  14.280  10.049   4.724  0.3027  0.1300 -0.3878
   10MOL0     C 1251  14.298  10.040   4.581  0.3720  0.2744  0.0580
   10MOL0     C 1252  14.449  10.008   4.541 -0.4715  0.1310 -0.2377
   10MOL0     C 1253  14.485   9.856   4.574 -0.3115  0.3555  0.0160
   10MOL0     C 1254  14.610   9.823   4.497 -0.2287 -1.2628  0.1189
   10MOL0     C 1255  14.671   9.685   4.522  0.7716 -0.3635 -0.5433
   10MOL0     C 1256  14.762   9.681   4.647 -0.1560  0.1517  0.4091
   10MOL0     C 1257  14.820   9.535   4.669 -0.1487 -0.2362  0.3404
   10MOL0     C 1258  14.914   9.517   4.788  0.6923  0.0928 -0.6050
   10MOL0    Cl 1259  14.841   9.578   4.938  0.1707  0.2345 -0.0346
   10MOL0     C 1260  14.039  10.048   4.700 -0.4817 -0.5890 -0.4324
   10MOL0     C 1261  13.912  10.027   4.760 -0.4475 -0.4940 -0.4297
   10MOL0     O 1262  13.817   9.967   5.177  0.2668  0.1835  0.2024
   10MOL0     C 1263  13.509   9.939   5.000  0.6155 -0.0081  0.2211
   10MOL0     C 1264  13.373   9.922   5.024  0.2829  0.1575  0.6461
   10MOL0     N 1265  12.734   9.677   4.953  1.3108 -0.4218 -0.2924
   10MOL0     N 1266  12.640   9.591   4.929 -0.0219  0.0854 -0.5768
   10MOL0     C 1267  11.363   9.542   4.756  0.6253  0.4372 -0.5133
   10MOL0     C 1268  11.233   9.582   4.706 -0.3457  0.2139 -0.4859
   10MOL0     C 1269  10.821   9.800   4.758  0.5815  0.4461  0.1732
   10MOL0     C 1270  10.688   9.753   4.778  0.3241  0.3168 -0.2389
   10MOL0     C 1271  10.570   9.815   4.740 -0.1001 -0.6295  0.3086
   10MOL0     C 1272  10.587   9.932   4.672 -0.2618  0.0326  0.1106
   10MOL0     O 1273  10.464   9.984   4.651  0.0211 -0.2343 -0.4207
   10MOL0     C 1274  10.459  10.093   4.560 -0.5089  0.2398  0.2029
   10MOL0     C 1275  10.319  10.108   4.500  0.4102  0.1454  0.3797
   10MOL0     C 1276  10.220  10.129   4.611  0.1117 -0.5240  0.2909
   10MOL0     C 1277  10.089  10.194   4.547 -0.5732 -0.5845 -0.7448
   10MOL0     C 1278  10.016  10.261   4.655 -1.1994  0.0995  0.4593
   10MOL0     C 1279   9.937  10.326   4.718 -0.6415 -0.2986 -0.2508
   10MOL0     C 1280  10.712   9.985   4.644  0.2018 -0.0888  0.0983
   10MOL0     C 1281  10.829   9.923   4.683 -0.2743  0.4099 -0.3257
   10MOL0     C 1282  10.960   9.988   4.652  0.3891  0.3303 -0.1137
   10MOL0     H 1283  11.205   9.840   4.921  0.3193  0.6870 -1.6131
   10MOL0     H 1284  11.422   9.774   4.991  0.6538 -1.8219  0.8997
   10MOL0     H 1285  11.625   9.434   4.780  1.6757 -2.0837  1.9428
   10MOL0     H 1286  11.668   9.608   4.763  0.5076  1.1310  0.9203
   10MOL0     H 1287  11.845   9.442   4.832 -0.8396 -3.5847  1.4700
   10MOL0     H 1288  11.757   9.431   4.993  1.1462  0.2179 -0.1042
   10MOL0     H 1289  11.764   9.652   5.048 -1.2732  0.4552 -1.8112
   10MOL0     H 1290  11.851   9.700   4.899  1.0454  2.0566  1.2863
   10MOL0     H 1291  11.993   9.689   5.097 -1.4871  0.8917  0.1103
   10MOL0     H 1292  11.940   9.532   5.135 -2.8407  1.1826 -0.4166
   10MOL0     H 1293  12.049   9.434   4.930 -4.5559  0.3849  1.4792
   10MOL0     H 1294  12.099   9.596   4.878  2.2631 -1.8832 -1.3790
   10MOL0     H 1295  12.219   9.584   5.125 -1.0382 -0.1816  0.5722
   10MOL0     H 1296  12.199   9.415   5.093 -0.0627 -1.5094 -0.9258
   10MOL0     H 1297  12.344   9.612   4.907  1.1912 -0.5742 -0.5357
   10MOL0     H 1298  12.331   9.438   4.872  1.5107 -1.4335  1.0711
   10MOL0     H 1299  12.434   9.459   5.150  0.7729 -0.9236  0.1875
   10MOL0     H 1300  12.506   9.379   5.016  0.9200  0.2575  1.7560
   10MOL0     H 1301  12.544   9.691   5.223 -1.2558 -0.3272 -0.5921
   10MOL0     H 1302  12.733   9.944   5.094  0.9251  0.3414 -0.7864
   10MOL0     H 1303  12.703   9.868   5.246  1.0341 -0.7923  1.2138
   10MOL0     H 1304  12.909   9.758   5.264  1.4314 -2.1106 -0.9265
   10MOL0     H 1305  12.952   9.794   5.100  1.9279 -1.6413  1.2592
   10MOL0     H 1306  12.907  10.007   5.311 -0.3482  2.1989 -1.8046
   10MOL0     H 1307  12.980  10.039   5.156  2.7503 -2.9765 -2.6593
   10MOL0     H 1308  13.131   9.892   5.380  1.7630  0.7173  0.3349
   10MOL0     H 1309  13.158  10.039   5.301  2.7180 -1.6827  0.2284
   10MOL0     H 1310  13.371   9.919   5.364  0.3876 -0.1954  1.0127
   10MOL0     H 1311  13.610   9.937   5.320  2.5620  1.5638 -1.1788
   10MOL0     H 1312  14.052   9.937   5.063  2.4494  0.6491 -1.0942
   10MOL0     H 1313  14.247   9.956   4.944  0.1539  0.9550 -1.8468
   10MOL0     H 1314  14.236   9.955   4.551  0.4496 -1.4172  4.1373
   10MOL0     H 1315  14.256  10.129   4.534 -3.3335 -0.3029  1.8903
   10MOL0     H 1316  14.454  10.031   4.435  1.1191 -0.4427 -0.3128
   10MOL0     H 1317  14.512  10.080   4.595  1.3192 -0.2151 -1.7475
   10MOL0     H 1318  14.493   9.836   4.681 -0.3504 -0.3146 -0.1043
   10MOL0     H 1319  14.410   9.790   4.531  2.2072 -1.7002 -1.5662
   10MOL0     H 1320  14.685   9.899   4.522 -0.5653 -0.9331  0.1378
   10MOL0     H 1321  14.579   9.827   4.393 -0.0467 -1.1874  0.0672
   10MOL0     H 1322  14.735   9.673   4.434  1.1732  2.5289 -0.7559
   10MOL0     H 1323  14.593   9.608   4.522  3.2618 -3.0716 -2.3315
   10MOL0     H 1324  14.848   9.748   4.631 -0.0708 -0.6968 -3.9763
   10MOL0     H 1325  14.691   9.707   4.726 -1.8012  3.0828 -1.8260
   10MOL0     H 1326  14.884   9.521   4.581  0.9888  1.0567  0.9310
   10MOL0     H 1327  14.739   9.461   4.674 -1.4370  1.0861 -0.3928
   10MOL0     H 1328  14.931   9.412   4.813 -1.0588 -0.1665 -0.3341
   10MOL0     H 1329  15.012   9.563   4.776  1.8309 -1.3216  2.2334
   10MOL0     H 1330  14.044  10.098   4.604 -2.5570  1.3294  0.3819
   10MOL0     H 1331  13.815  10.050   4.716 -0.6847  1.2395  0.8753
   10MOL0     H 1332  13.538   9.947   4.896  0.2742  1.9423  0.2324
   10MOL0     H 1333  13.301   9.903   4.945  2.0284 -0.7598 -0.7974
   10MOL0     H 1334  11.406   9.459   4.699  1.6342  0.7994 -0.3012
   10MOL0     H 1335  11.189   9.526   4.624  0.4266  0.6610 -1.2193
   10MOL0     H 1336  10.665   9.658   4.824 -1.7865  0.8407 -0.1100
   10MOL0     H 1337  10.476   9.763   4.756 -0.1378 -0.1707  1.7305
   10MOL0     H 1338  10.531  10.089   4.478  1.5052  4.8155  1.4174
   10MOL0     H 1339  10.487  10.182   4.617  2.8509  0.2889 -1.3020
   10MOL0     H 1340  10.274  10.017   4.461 -1.3530  0.0406  2.4521
   10MOL0     H 1341  10.324  10.192   4.429 -1.1842  0.5612  0.7278
   10MOL0     H 1342  10.265  10.198   4.684  0.5756  0.2031 -0.6577
   10MOL0     H 1343  10.199  10.040   4.671  0.7140 -0.9144 -0.0656
   10MOL0     H 1344  10.114  10.265   4.469 -2.5027  1.6362  0.5153
   10MOL0     H 1345  10.024  10.115   4.508 -3.7580  0.4117  1.9926
   10MOL0     H 1346   9.889  10.388   4.791 -0.7837 -1.3542  0.5780
   10MOL0     H 1347  10.729  10.079   4.593  3.1010 -0.9257 -0.6447
   10MOL0     H 1348  10.996   9.961   4.552 -0.6965 -0.4754 -0.3011
   10MOL0     H 1349  10.956  10.096   4.669  0.4740  0.0997  1.4724
   10MOL0     H 1350  11.023   9.953   4.734 -0.6121 -2.6418 -0.5165
   11MOL0     O 1351   7.962   9.473   2.137 -0.4674  0.5442  0.2428
   11MOL0     C 1352   7.965   9.369   2.204 -0.0434 -0.7284 -0.0890
   11MOL0     O 1353   8.074   9.293   2.209  0.5944  0.3348  0.1565
   11MOL0     C 1354   8.197   9.329   2.149  0.5871 -0.4034 -0.1451
   11MOL0     C 1355   8.254   9.252   2.055  0.1692  0.1487  0.6849
   11MOL0     C 1356   8.378   9.288   2.004 -0.8749 -0.1553 -0.9509
   11MOL0     C 1357   8.445   9.409   2.041 -0.7335  0.3136 -0.5820
   11MOL0     O 1358   8.569   9.425   1.992  0.2335 -0.6022 -0.4376
   11MOL0     C 1359   8.654   9.523   2.063  0.1894 -0.8553 -0.5115
   11MOL0     C 1360   8.807   9.516   2.026  0.1232  0.5805  0.4972
   11MOL0     C 1361   8.913   9.595   2.104 -0.6275  0.5661  0.0288
   11MOL0     C 1362   9.045   9.516   2.105  0.6700  0.5443  0.4062
   11MOL0     C 1363   9.148   9.605   2.175 -0.0800  0.0358  0.2280
   11MOL0     C 1364   9.287   9.535   2.184 -0.4736  0.2024  0.2603
   11MOL0     C 1365   9.404   9.627   2.229  0.3721 -0.9781  0.9123
   11MOL0     C 1366   9.406   9.646   2.376 -0.3092  0.7223 -0.1811
   11MOL0     N 1367   9.531   9.709   2.411  0.0718 -0.0674  0.9533
   11MOL0     C 1368   9.539   9.836   2.464  0.3487 -0.1108 -0.0937
   11MOL0     C 1369   9.633   9.844   2.560 -0.3784  0.0625  0.7498
   11MOL0     C 1370   9.658   9.959   2.648 -0.8240  0.5341 -0.5634
   11MOL0     C 1371   9.809   9.994   2.683  0.6322  0.8811 -0.5627
   11MOL0     C 1372   9.887  10.059   2.573  0.2743 -0.0111  0.7437
   11MOL0     C 1373  10.033  10.072   2.623 -0.3945 -0.8770  0.6936
   11MOL0     O 1374  10.115  10.067   2.503  0.6115 -0.9431 -0.1474
   11MOL0     C 1375  10.244  10.047   2.527 -0.3444  0.1537  0.6140
   11MOL0     C 1376  10.323  10.044   2.408 -1.0853  0.0757 -0.2172
   11MOL0     C 1377  10.464  10.029   2.415  0.7557 -0.6141 -0.2940
   11MOL0     C 1378  10.525   9.986   2.535 -0.4609 -0.0910 -0.5692
   11MOL0     C 1379  10.663   9.941   2.537  0.2030  0.0808  0.5835
   11MOL0     O 1380  10.698   9.859   2.645 -0.2170 -0.4041 -0.3214
   11MOL0     C 1381  10.823   9.806   2.652 -0.3242 -0.0980  0.6758
   11MOL0     C 1382  10.884   9.744   2.544  0.3764 -0.4094 -1.0807
   11MOL0     C 1383  11.008   9.680   2.561 -0.2457  0.3914  0.1539
   11MOL0     C 1384  11.078   9.688   2.674 -0.6514 -0.0674  0.3713
   11MOL0     O 1385  11.199   9.621   2.679  0.1402  1.0430  0.9643
   11MOL0     C 1386  11.252   9.578   2.813  0.0367 -0.2089  0.0132
   11MOL0     C 1387  11.353   9.461   2.790  0.2331 -0.2651  0.0148
   11MOL0     C 1388  11.482   9.528   2.733  0.1669 -0.6225 -0.8774
   11MOL0     C 1389  11.604   9.439   2.764 -1.3457 -0.7685 -0.0599
   11MOL0     C 1390  11.604   9.320   2.681  0.1782  0.7888  0.6804
   11MOL0     C 1391  11.707   9.220   2.726  0.9630  0.6469  0.1312
   11MOL0     C 1392  11.845   9.271   2.674 -0.4175 -0.2003 -0.0083
   11MOL0     C 1393  11.925   9.137   2.670  1.3003 -0.6435 -1.5049
   11MOL0    Cl 1394  12.104   9.171   2.656  0.5664  0.1199 -0.2438
   11MOL0     C 1395  11.023   9.749   2.783 -0.4657 -0.5051 -0.5141
   11MOL0     C 1396  10.893   9.797   2.778  0.4889 -0.7267  0.8708
   11MOL0     O 1397  10.739   9.983   2.448 -0.2325  0.6614  0.2339
   11MOL0     C 1398  10.448   9.998   2.648 -0.1887 -0.1457  0.4190
   11MOL0     C 1399  10.310  10.034   2.651  0.0075  0.7851  0.2922
   11MOL0     N 1400   9.687   9.712   2.577 -0.4707  1.2025 -0.3310
   11MOL0     N 1401   9.623   9.635   2.482  0.2084  0.5935  0.3927
   11MOL0     C 1402   8.372   9.499   2.122 -1.1505  0.5811  0.6799
   11MOL0     C 1403   8.253   9.459   2.179 -0.2754 -0.5408 -1.0891
   11MOL0     C 1404   7.862   9.325   2.307  1.5637 -0.1796  0.1863
   11MOL0     C 1405   7.848   9.188   2.323  0.5127 -0.8599  1.1199
   11MOL0     C 1406   7.753   9.131   2.415 -0.4954 -0.2351 -0.0543
   11MOL0     C 1407   7.658   9.217   2.474  0.0019 -0.1946 -0.3613
   11MOL0     O 1408   7.569   9.164   2.557  0.2467 -0.2966  0.2481
   11MOL0     C 1409   7.610   9.141   2.699  0.2685 -0.2874  0.1935
   11MOL0     C 1410   7.666   9.000   2.729 -0.8323 -0.0375  0.3553
   11MOL0     C 1411   7.557   8.899   2.697  0.4914  0.2806 -0.3746
   11MOL0     C 1412   7.598   8.751   2.698 -0.6678  1.2080  0.6113
   11MOL0     C 1413   7.614   8.705   2.836 -0.3635 -0.2542  0.6356
   11MOL0     C 1414   7.629   8.651   2.947 -0.1950 -0.4043  0.4654
   11MOL0     C 1415   7.668   9.352   2.457  0.4367 -0.2785  1.1238
   11MOL0     C 1416   7.773   9.411   2.373  0.5522 -0.4262 -0.0833
   11MOL0     C 1417   7.779   9.555   2.356 -0.5075 -0.3243  0.5355
   11MOL0     H 1418   8.214   9.158   2.017  1.0809  0.7616 -1.9766
   11MOL0     H 1419   8.432   9.214   1.945  0.3031  0.5557 -0.7804
   11MOL0     H 1420   8.619   9.626   2.052 -0.2476 -0.9092  0.2405
   11MOL0     H 1421   8.658   9.500   2.170  2.3101  0.7722 -0.1734
   11MOL0     H 1422   8.817   9.532   1.918  2.3547  0.2070  0.6121
   11MOL0     H 1423   8.828   9.410   2.046  2.2932  0.6172 -1.2775
   11MOL0     H 1424   8.885   9.613   2.208 -0.0415  1.0164  0.1061
   11MOL0     H 1425   8.921   9.695   2.061 -0.6271  0.5996  0.1085
   11MOL0     H 1426   9.026   9.418   2.151 -1.7733  0.6514 -0.2576
   11MOL0     H 1427   9.073   9.505   1.999 -1.6778  2.6517 -0.5273
   11MOL0     H 1428   9.146   9.700   2.120 -1.0148 -0.6198 -0.9097
   11MOL0     H 1429   9.108   9.638   2.271  1.4083 -1.1777  1.3176
   11MOL0     H 1430   9.280   9.438   2.233 -4.6532 -0.4502 -1.2897
   11MOL0     H 1431   9.315   9.506   2.082 -0.3133 -2.1450  0.9219
   11MOL0     H 1432   9.389   9.725   2.184 -0.4923 -0.2719  2.6848
   11MOL0     H 1433   9.503   9.587   2.204  1.5883  1.8275  0.8708
   11MOL0     H 1434   9.321   9.706   2.411 -0.3585  1.7547 -1.9530
   11MOL0     H 1435   9.395   9.548   2.423 -1.2231  0.2720 -1.2878
   11MOL0     H 1436   9.469   9.914   2.438 -0.1881 -0.4028  0.4779
   11MOL0     H 1437   9.593  10.042   2.619 -0.0198  1.6769  0.7443
   11MOL0     H 1438   9.601   9.925   2.734  0.1905 -2.1615 -0.8696
   11MOL0     H 1439   9.807  10.066   2.765  1.3507  0.2065  0.0529
   11MOL0     H 1440   9.865   9.905   2.711 -1.6824 -0.9962 -1.5353
   11MOL0     H 1441   9.852  10.161   2.552 -0.7505 -0.8284 -1.9235
   11MOL0     H 1442   9.866  10.009   2.478  0.2244 -0.2368  0.8744
   11MOL0     H 1443  10.060   9.989   2.688 -0.1114 -0.8248  0.6422
   11MOL0     H 1444  10.048  10.163   2.681 -1.2231 -0.1534 -0.1842
   11MOL0     H 1445  10.284  10.039   2.307 -0.1835 -1.7522 -0.5224
   11MOL0     H 1446  10.515  10.029   2.319 -1.0711  1.1510 -1.3234
   11MOL0     H 1447  10.828   9.741   2.451 -0.4161 -0.2713 -0.6113
   11MOL0     H 1448  11.054   9.630   2.476 -0.7382  0.8353 -0.3896
   11MOL0     H 1449  11.300   9.662   2.862 -0.0002 -0.0601 -0.2037
   11MOL0     H 1450  11.170   9.541   2.876  0.8274  0.7751  1.6700
   11MOL0     H 1451  11.379   9.424   2.890 -1.0772  1.6000  1.1008
   11MOL0     H 1452  11.311   9.375   2.737 -1.1553 -0.7294  1.7552
   11MOL0     H 1453  11.480   9.556   2.627 -0.9111 -0.5369 -0.8440
   11MOL0     H 1454  11.489   9.625   2.784 -0.9395 -1.8137  1.7372
   11MOL0     H 1455  11.598   9.403   2.868 -1.0480 -2.1985 -0.5058
   11MOL0     H 1456  11.700   9.488   2.752 -0.7226 -1.7853  0.5775
   11MOL0     H 1457  11.605   9.347   2.575 -1.5562 -0.2469  0.3512
   11MOL0     H 1458  11.509   9.267   2.694  0.0084  1.0469  0.4918
   11MOL0     H 1459  11.699   9.207   2.834 -0.8214 -2.0504 -0.2357
   11MOL0     H 1460  11.680   9.124   2.682  0.5631  1.2886 -1.0552
   11MOL0     H 1461  11.878   9.339   2.752 -2.7693  0.0263  0.8773
   11MOL0     H 1462  11.855   9.312   2.573 -2.0309 -1.3976 -0.7140
   11MOL0     H 1463  11.901   9.078   2.759  1.2095  0.3283 -0.8789
   11MOL0     H 1464  11.890   9.084   2.581  0.2314 -0.4261 -1.2239
   11MOL0     H 1465  11.072   9.768   2.878 -1.7195  0.8946 -0.1163
   11MOL0     H 1466  10.840   9.849   2.856  1.8357  1.5486  0.3602
   11MOL0     H 1467  10.485   9.975   2.748  0.9249  0.9151  0.2855
   11MOL0     H 1468  10.260  10.040   2.746  2.0868 -0.7812  1.5840
   11MOL0     H 1469   8.401   9.601   2.142 -2.3828  0.8820  0.9833
   11MOL0     H 1470   8.204   9.526   2.249  3.5173 -0.3848  1.7382
   11MOL0     H 1471   7.911   9.120   2.268 -0.5680 -1.2631  0.3367
   11MOL0     H 1472   7.756   9.024   2.434 -2.3422 -0.6484 -1.7223
   11MOL0     H 1473   7.525   9.163   2.765  0.1759  2.0776 -0.6519
   11MOL0     H 1474   7.680   9.214   2.740 -0.2518  1.3967 -1.7816
   11MOL0     H 1475   7.690   8.988   2.835  1.0452 -3.0295 -0.2838
   11MOL0     H 1476   7.757   8.974   2.675 -1.4711  0.4963 -1.0451
   11MOL0     H 1477   7.531   8.914   2.591  1.6586 -3.3181 -1.3217
   11MOL0     H 1478   7.464   8.908   2.755  0.1023 -2.2423 -0.4904
   11MOL0     H 1479   7.523   8.688   2.651  0.7239 -0.0413 -0.0052
   11MOL0     H 1480   7.694   8.736   2.648 -1.0648 -1.1157  0.4406
   11MOL0     H 1481   7.645   8.601   3.040 -0.6852  2.8227  2.4478
   11MOL0     H 1482   7.610   9.426   2.511 -0.6617  0.8990 -1.5110
   11MOL0     H 1483   7.716   9.583   2.270 -0.0358  1.6609  0.7827
   11MOL0     H 1484   7.726   9.596   2.443 -2.3098 -1.3928  0.0083
   11MOL0     H 1485   7.880   9.594   2.339 -1.3813  1.1003 -2.0847
   12MOL0     O 1486   3.717  10.284   2.559 -0.2887 -0.4306  0.3488
   12MOL0     C 1487   3.710  10.170   2.505 -0.0309  0.0675  0.6273
   12MOL0     O 1488   3.815  10.091   2.473 -0.1025 -0.0526 -0.1749
   12MOL0     C 1489   3.948  10.103   2.515 -0.1893 -0.2002  0.0210
   12MOL0     C 1490   3.989  10.060   2.640 -0.2257 -0.3086 -1.0099
   12MOL0     C 1491   4.126  10.062   2.674 -0.7198 -0.1125  0.0969
   12MOL0     C 1492   4.224  10.109   2.591 -0.1806  1.0729  0.9191
   12MOL0     O 1493   4.356  10.100   2.623 -0.8202 -0.3510  0.3120
   12MOL0     C 1494   4.414   9.969   2.622  0.8034  1.4419  0.1692
   12MOL0     C 1495   4.552   9.957   2.680  0.5140 -0.0401  0.8111
   12MOL0     C 1496   4.562   9.995   2.828 -0.3563  0.9848 -0.5684
   12MOL0     C 1497   4.712   9.979   2.868 -1.1744 -0.2342 -0.1462
   12MOL0     C 1498   4.734  10.028   3.014  0.1068  0.0059  0.4459
   12MOL0     C 1499   4.871   9.992   3.074 -0.8651 -0.2519 -0.3549
   12MOL0     C 1500   4.882   9.835   3.081  0.7575 -0.4614 -1.1881
   12MOL0     C 1501   5.022   9.803   3.150  0.3780 -0.5192  0.4454
   12MOL0     N 1502   5.148   9.842   3.077 -0.3288  0.5597 -0.2402
   12MOL0     C 1503   5.277   9.821   3.125 -0.0589 -0.6736 -0.1958
   12MOL0     C 1504   5.351   9.855   3.015 -0.0352  0.3098  0.6209
   12MOL0     C 1505   5.505   9.852   3.001 -0.6576 -1.1197 -0.4508
   12MOL0     C 1506   5.544   9.991   2.969  0.2019 -0.4521  0.5418
   12MOL0     C 1507   5.697  10.015   2.983 -0.8042  0.2418 -0.0995
   12MOL0     C 1508   5.730  10.149   2.918 -0.2278 -0.4335 -0.7363
   12MOL0     O 1509   5.864  10.197   2.927 -0.3682 -0.3858 -0.0833
   12MOL0     C 1510   5.928  10.220   3.048 -0.4912  0.6515  0.1644
   12MOL0     C 1511   5.866  10.233   3.173 -0.2085 -0.9854 -1.3064
   12MOL0     C 1512   5.938  10.252   3.292  0.0608 -0.1480  0.7932
   12MOL0     C 1513   6.078  10.257   3.287  0.7199  0.2491 -0.0795
   12MOL0     C 1514   6.154  10.249   3.407 -0.3794  0.9817 -0.3629
   12MOL0     O 1515   6.086  10.207   3.523  0.8308  0.2711  0.1103
   12MOL0     C 1516   6.136  10.198   3.646  0.2619 -0.3006  0.7322
   12MOL0     C 1517   6.245  10.264   3.697  0.6189  0.7683 -0.8798
   12MOL0     C 1518   6.262  10.254   3.837  0.2373  0.1922 -0.2218
   12MOL0     C 1519   6.202  10.156   3.917 -0.1651 -0.1290  0.2315
   12MOL0     O 1520   6.220  10.151   4.053 -1.0892  0.2165 -0.1671
   12MOL0     C 1521   6.309  10.038   4.083  0.1769 -0.2526  0.0289
   12MOL0     C 1522   6.446  10.059   4.056 -0.3035 -0.0548 -0.1863
   12MOL0     C 1523   6.509  10.175   4.138  0.0279 -0.4599 -0.5299
   12MOL0     C 1524   6.449  10.178   4.282 -1.0212 -0.1735 -0.0629
   12MOL0     C 1525   6.528  10.253   4.388 -0.0651  0.3563 -0.4148
   12MOL0     C 1526   6.521  10.413   4.362  0.4074 -0.6774 -0.4027
   12MOL0     C 1527   6.642  10.468   4.291 -0.4127  0.7575  0.5562
   12MOL0     C 1528   6.757  10.522   4.380 -0.1359  0.2996 -0.4696
   12MOL0    Cl 1529   6.918  10.547   4.303  0.2635  0.1947 -0.0953
   12MOL0     C 1530   6.089  10.092   3.864  0.5437 -0.6230  0.3167
   12MOL0     C 1531   6.060  10.114   3.727 -0.6344  0.0882 -0.1400
   12MOL0     O 1532   6.269  10.281   3.407  0.2353 -0.0894  0.1613
   12MOL0     C 1533   6.143  10.245   3.162  0.2446  0.1865 -0.3690
   12MOL0     C 1534   6.071  10.231   3.046 -0.7552 -0.2390  0.2490
   12MOL0     N 1535   5.278   9.902   2.910  0.5962 -0.0044 -0.1397
   12MOL0     N 1536   5.156   9.891   2.946  1.1280  0.3886 -0.2525
   12MOL0     C 1537   4.182  10.155   2.465 -0.1922 -0.8831 -0.5217
   12MOL0     C 1538   4.047  10.159   2.428  0.1423 -0.3590 -0.0542
   12MOL0     C 1539   3.592  10.132   2.437  0.2869 -0.1925 -0.0096
   12MOL0     C 1540   3.534  10.016   2.471  0.4165 -0.3970 -0.5399
   12MOL0     C 1541   3.409   9.980   2.418  0.1753  0.1109  0.6409
   12MOL0     C 1542   3.335  10.057   2.331  0.2968  1.0279  0.9159
   12MOL0     O 1543   3.207  10.015   2.303  0.1305 -0.1872  0.0423
   12MOL0     C 1544   3.124  10.111   2.240 -1.0932  0.3567 -0.7587
   12MOL0     C 1545   2.979  10.067   2.229 -0.6427  0.5928 -0.2242
   12MOL0     C 1546   2.957   9.953   2.118 -0.2927 -0.4259  0.3079
   12MOL0     C 1547   2.837   9.863   2.155  0.9991 -0.5275  0.1234
   12MOL0     C 1548   2.728   9.945   2.214  0.1429 -0.2207  0.2249
   12MOL0     C 1549   2.635  10.014   2.253 -1.1454  0.1725 -0.1589
   12MOL0     C 1550   3.400  10.176   2.296  1.1383 -1.2243  0.6519
   12MOL0     C 1551   3.525  10.214   2.347  0.4881  0.2474 -0.1463
   12MOL0     C 1552   3.592  10.348   2.301  0.5305  0.4109 -0.1074
   12MOL0     H 1553   3.920  10.034   2.720  1.4376  2.0381  1.3822
   12MOL0     H 1554   4.159  10.045   2.776  0.1383  0.5733 -0.0511
   12MOL0     H 1555   4.354   9.900   2.681  2.6252  0.3925  0.8892
   12MOL0     H 1556   4.411   9.925   2.522  0.7145 -0.2902  0.9082
   12MOL0     H 1557   4.624  10.025   2.633  3.0934 -2.1104  1.5461
   12MOL0     H 1558   4.585   9.854   2.666 -2.7538 -0.8657 -2.2072
   12MOL0     H 1559   4.504   9.926   2.890  2.3545  0.9238  2.1537
   12MOL0     H 1560   4.528  10.097   2.848 -0.2496  0.6495  1.6480
   12MOL0     H 1561   4.741   9.876   2.845  0.6889  1.0752 -4.5092
   12MOL0     H 1562   4.770  10.028   2.790 -0.6650 -2.3944 -1.1818
   12MOL0     H 1563   4.724  10.137   3.015 -1.0710 -0.0348 -1.5269
   12MOL0     H 1564   4.659   9.987   3.081 -0.9541 -1.5337 -1.5789
   12MOL0     H 1565   4.945  10.034   3.006  0.8062 -1.7380  0.4671
   12MOL0     H 1566   4.884  10.033   3.175 -1.8273  0.6851 -0.5970
   12MOL0     H 1567   4.885   9.784   2.984  2.1802  1.6275 -2.3015
   12MOL0     H 1568   4.800   9.804   3.148  0.9038 -0.9344 -1.2223
   12MOL0     H 1569   5.022   9.838   3.254  3.5231 -4.7485  2.1658
   12MOL0     H 1570   5.025   9.695   3.166 -1.1553 -0.2804  2.8509
   12MOL0     H 1571   5.310   9.782   3.221  0.1853 -0.9165 -0.3774
   12MOL0     H 1572   5.547   9.818   3.096 -0.9303  0.4015  0.2516
   12MOL0     H 1573   5.537   9.788   2.918  3.4289  0.9347 -0.6931
   12MOL0     H 1574   5.512  10.015   2.867  1.0709  0.4733  0.4566
   12MOL0     H 1575   5.494  10.052   3.046 -0.5117  1.0890 -1.0696
   12MOL0     H 1576   5.766   9.940   2.943  0.2271  1.1340 -0.0579
   12MOL0     H 1577   5.719  10.019   3.090  2.0438 -0.8283 -0.5499
   12MOL0     H 1578   5.669  10.225   2.967 -1.9113 -0.7350 -2.2514
   12MOL0     H 1579   5.702  10.130   2.814  1.1393 -0.7753 -1.0627
   12MOL0     H 1580   5.758  10.240   3.178 -0.0524  2.9592  1.7855
   12MOL0     H 1581   5.886  10.252   3.387 -2.5537 -1.0044 -0.5397
   12MOL0     H 1582   6.297  10.342   3.641  1.5058  0.6282 -0.2758
   12MOL0     H 1583   6.346  10.309   3.878 -0.6691  0.9046  0.6954
   12MOL0     H 1584   6.297  10.009   4.188  1.2605 -3.2654 -0.5692
   12MOL0     H 1585   6.279   9.946   4.031 -2.2809  1.2908 -1.5057
   12MOL0     H 1586   6.499   9.964   4.071  1.4910  0.9612  0.1543
   12MOL0     H 1587   6.467  10.087   3.952 -0.0126 -0.6700 -0.3006
   12MOL0     H 1588   6.618  10.173   4.145 -0.0314  0.5436  1.1230
   12MOL0     H 1589   6.486  10.271   4.091 -0.8057 -0.6900 -0.6094
   12MOL0     H 1590   6.447  10.072   4.310 -0.4251 -0.8783 -2.4957
   12MOL0     H 1591   6.347  10.219   4.281 -0.5631  1.0139  0.5332
   12MOL0     H 1592   6.634  10.231   4.373 -0.2169  0.6941 -2.1586
   12MOL0     H 1593   6.490  10.243   4.490 -0.3663  3.1168 -0.1790
   12MOL0     H 1594   6.433  10.444   4.305  1.4595 -0.3763 -1.9272
   12MOL0     H 1595   6.522  10.460   4.461  1.1838  0.2523 -0.8385
   12MOL0     H 1596   6.612  10.553   4.229  1.6029  1.2628  0.1804
   12MOL0     H 1597   6.673  10.391   4.219  1.4634  1.4864  0.5163
   12MOL0     H 1598   6.728  10.621   4.416 -0.7418  0.2078 -0.6800
   12MOL0     H 1599   6.779  10.455   4.464  1.3122  3.6501  2.0202
   12MOL0     H 1600   6.018  10.025   3.913 -1.7725  0.7817 -0.9147
   12MOL0     H 1601   5.969  10.061   3.701 -1.2658 -0.3545  2.5894
   12MOL0     H 1602   6.252  10.241   3.163  0.2559 -0.3364  1.3732
   12MOL0     H 1603   6.123  10.227   2.951  1.3407 -0.3476  1.3337
   12MOL0     H 1604   4.262  10.179   2.395 -0.6420  1.2868 -0.3591
   12MOL0     H 1605   3.998  10.196   2.338 -0.2047 -1.9442 -0.5514
   12MOL0     H 1606   3.579   9.958   2.551  1.8979  0.3021 -0.8328
   12MOL0     H 1607   3.377   9.878   2.437  2.8450 -1.3434 -1.7647
   12MOL0     H 1608   3.148  10.115   2.133 -1.4397  0.8329 -0.8235
   12MOL0     H 1609   3.138  10.209   2.288  1.1617 -1.3255  2.3376
   12MOL0     H 1610   2.917  10.153   2.201  0.2638  2.3390  2.6935
   12MOL0     H 1611   2.943  10.032   2.326 -1.9436  0.3575 -0.7736
   12MOL0     H 1612   3.044   9.888   2.104 -0.8152 -1.6178  2.3445
   12MOL0     H 1613   2.933  10.003   2.023  0.2460  1.5967  1.1791
   12MOL0     H 1614   2.809   9.802   2.069  1.0219 -0.7457  0.2677
   12MOL0     H 1615   2.862   9.795   2.237 -3.0776 -1.0329  1.1667
   12MOL0     H 1616   2.571  10.083   2.304  0.3751  1.6158 -0.1198
   12MOL0     H 1617   3.354  10.237   2.219  0.3921 -1.6175  0.7762
   12MOL0     H 1618   3.544  10.406   2.221  1.0127 -0.7712 -1.3010
   12MOL0     H 1619   3.608  10.419   2.382  1.3943  0.3703 -0.2273
   12MOL0     H 1620   3.688  10.319   2.258 -0.5930 -1.9701 -1.2127
   13MOL0     O 1621   8.979   1.695   3.721 -0.2416 -0.1141  0.3270
   13MOL0     C 1622   8.934   1.755   3.626  0.9994 -0.3896  0.3132
   13MOL0     O 1623   9.009   1.834   3.532  0.0735  0.2536 -0.4063
   13MOL0     C 1624   9.141   1.853   3.553  0.5657 -0.1553 -0.3285
   13MOL0     C 1625   9.188   1.951   3.639 -0.2110 -0.4213 -0.5291
   13MOL0     C 1626   9.333   1.962   3.654  0.1572 -0.4345  0.9420
   13MOL0     C 1627   9.421   1.883   3.576  0.0488 -0.1334  1.1590
   13MOL0     O 1628   9.559   1.902   3.597  0.2549  0.1304 -0.3318
   13MOL0     C 1629   9.615   2.030   3.617 -0.5841 -0.4654  0.0213
   13MOL0     C 1630   9.768   2.021   3.636  0.2366 -0.8829  0.1785
   13MOL0     C 1631   9.793   1.944   3.765 -0.2490  0.3307  0.8476
   13MOL0     C 1632   9.942   1.921   3.801  0.1979  0.3805  1.3739
   13MOL0     C 1633   9.932   1.877   3.948  0.4948  1.0245 -0.6690
   13MOL0     C 1634  10.058   1.839   4.021 -0.9548  0.5145 -0.8121
   13MOL0     C 1635  10.171   1.937   3.982 -0.5474 -0.2721 -0.5383
   13MOL0     C 1636  10.264   1.880   3.865 -0.8889 -0.9453 -0.4804
   13MOL0     N 1637  10.299   1.983   3.771 -0.9192 -0.3142 -0.1853
   13MOL0     C 1638  10.244   2.010   3.646  0.4200 -1.3128  0.2073
   13MOL0     C 1639  10.313   2.117   3.595  0.0220 -0.4537 -0.3935
   13MOL0     C 1640  10.269   2.186   3.462  0.4531  0.4288  0.3449
   13MOL0     C 1641  10.345   2.310   3.422 -0.3146  0.4535 -0.3531
   13MOL0     C 1642  10.487   2.254   3.385  0.6613 -0.4820  0.1848
   13MOL0     C 1643  10.572   2.383   3.366  1.1283 -0.3889 -0.4974
   13MOL0     O 1644  10.688   2.341   3.296  0.3746  0.2240 -0.1054
   13MOL0     C 1645  10.794   2.428   3.269 -0.1577 -0.1000  0.6355
   13MOL0     C 1646  10.909   2.363   3.225 -0.4207 -0.2173  0.1949
   13MOL0     C 1647  11.015   2.440   3.206  0.3581 -0.3520  0.0564
   13MOL0     C 1648  11.011   2.575   3.217 -0.2101 -0.1767 -0.0176
   13MOL0     C 1649  11.129   2.654   3.188  0.6437  0.3759  0.0996
   13MOL0     O 1650  11.121   2.786   3.231  0.2342  0.8274  0.6649
   13MOL0     C 1651  11.229   2.867   3.206  0.7451  0.6252 -0.1542
   13MOL0     C 1652  11.340   2.852   3.283 -0.2966  0.6576 -0.8426
   13MOL0     C 1653  11.453   2.927   3.271  0.0853 -0.2479  0.1394
   13MOL0     C 1654  11.441   3.038   3.181  0.3172 -0.5306  0.2506
   13MOL0     O 1655  11.540   3.135   3.183  0.0942  0.2535  0.3651
   13MOL0     C 1656  11.537   3.257   3.100 -0.3159 -0.0348 -0.0746
   13MOL0     C 1657  11.677   3.317   3.100 -0.9927 -0.4390  0.0076
   13MOL0     C 1658  11.711   3.364   3.242  0.1124  0.3551 -0.4712
   13MOL0     C 1659  11.864   3.401   3.244 -0.4575  0.0181  0.2461
   13MOL0     C 1660  11.899   3.498   3.353  0.3903  0.2163 -0.2064
   13MOL0     C 1661  11.889   3.417   3.484 -0.1244  0.5997  0.3090
   13MOL0     C 1662  11.932   3.504   3.605 -0.5750  0.6709 -0.0971
   13MOL0     C 1663  11.872   3.458   3.740 -0.4787 -0.0228  0.1870
   13MOL0    Cl 1664  11.851   3.283   3.749 -0.4340  0.1629  0.1186
   13MOL0     C 1665  11.333   3.048   3.089  0.5238  0.5353  0.0380
   13MOL0     C 1666  11.217   2.965   3.107 -0.5476 -0.3709 -0.5910
   13MOL0     O 1667  11.231   2.597   3.148 -0.0771  0.7708 -0.5419
   13MOL0     C 1668  10.891   2.645   3.250 -0.1792  0.7181 -0.5709
   13MOL0     C 1669  10.782   2.565   3.283  0.0390 -0.0821  0.5677
   13MOL0     N 1670  10.410   2.155   3.693  0.1260 -0.0770  0.0836
   13MOL0     N 1671  10.404   2.068   3.790 -0.8363 -0.3781 -0.3409
   13MOL0     C 1672   9.367   1.783   3.492  0.1376 -0.0989 -0.4092
   13MOL0     C 1673   9.225   1.781   3.475 -0.1572 -0.1325 -0.2612
   13MOL0     C 1674   8.784   1.763   3.607 -0.6131 -0.5768 -0.4698
   13MOL0     C 1675   8.743   1.876   3.520 -0.3713  1.1971 -0.7298
   13MOL0     C 1676   8.611   1.893   3.499 -0.5283  0.4508 -0.0400
   13MOL0     C 1677   8.515   1.807   3.554  0.6787 -0.7236 -0.3892
   13MOL0     O 1678   8.383   1.834   3.527 -0.1332  0.0507  0.5768
   13MOL0     C 1679   8.320   1.875   3.650 -0.4882  0.3656  0.8826
   13MOL0     C 1680   8.237   1.989   3.607  0.0470  0.3260 -0.7677
   13MOL0     C 1681   8.140   2.031   3.720 -0.5656 -0.3995 -1.0788
   13MOL0     C 1682   8.032   2.136   3.672 -0.5239 -0.8209  0.0867
   13MOL0     C 1683   8.108   2.252   3.617 -0.0410 -0.5342 -0.5729
   13MOL0     C 1684   8.167   2.349   3.577  0.7417 -0.3006 -0.6737
   13MOL0     C 1685   8.551   1.700   3.631 -0.3843  0.1607 -0.8651
   13MOL0     C 1686   8.683   1.675   3.658  0.6735 -0.4453 -0.0716
   13MOL0     C 1687   8.728   1.550   3.730  0.3528 -0.3902 -0.3455
   13MOL0     H 1688   9.120   2.004   3.705 -0.1321  0.6968 -1.3123
   13MOL0     H 1689   9.367   2.035   3.727 -1.8656  0.6455  0.8692
   13MOL0     H 1690   9.590   2.098   3.535  0.2881  1.0969  0.9886
   13MOL0     H 1691   9.572   2.080   3.705 -0.3994  0.5104 -0.4222
   13MOL0     H 1692   9.801   2.123   3.658 -1.0241 -0.3816 -0.1491
   13MOL0     H 1693   9.823   1.977   3.552 -2.3180 -3.2704 -0.3819
   13MOL0     H 1694   9.750   1.844   3.756 -0.9835  0.6982  0.1848
   13MOL0     H 1695   9.752   1.997   3.850 -1.2667  0.1523  0.4819
   13MOL0     H 1696   9.990   1.842   3.743 -0.5617 -1.4335  3.1285
   13MOL0     H 1697   9.994   2.013   3.769 -1.5276  0.4442 -1.5647
   13MOL0     H 1698   9.896   1.960   4.011  1.9259 -1.0334  3.2089
   13MOL0     H 1699   9.870   1.788   3.958  1.0102  0.6453 -0.8171
   13MOL0     H 1700  10.050   1.858   4.129  4.9790 -0.1403  0.0425
   13MOL0     H 1701  10.090   1.736   4.002  3.4503  1.7790 -1.1285
   13MOL0     H 1702  10.243   1.956   4.063 -1.1376 -2.1806  0.4868
   13MOL0     H 1703  10.137   2.039   3.965  0.2371  0.5076  2.0599
   13MOL0     H 1704  10.352   1.833   3.911 -1.4839 -1.1374  0.4912
   13MOL0     H 1705  10.205   1.808   3.808 -2.7704 -0.1294  0.3438
   13MOL0     H 1706  10.154   1.968   3.603  0.8123 -2.3903  0.3774
   13MOL0     H 1707  10.274   2.114   3.380  0.2838 -0.6346  1.2527
   13MOL0     H 1708  10.163   2.210   3.477  0.0872 -0.2341 -0.9911
   13MOL0     H 1709  10.288   2.359   3.342  0.6174  1.0820 -0.6462
   13MOL0     H 1710  10.358   2.378   3.506 -0.3979  3.3687 -2.5552
   13MOL0     H 1711  10.479   2.196   3.292  1.5768 -1.3901  0.6537
   13MOL0     H 1712  10.528   2.183   3.457  2.0788  0.0834 -0.0418
   13MOL0     H 1713  10.595   2.429   3.462 -0.9348  2.4676 -1.2136
   13MOL0     H 1714  10.507   2.456   3.316 -0.7880 -0.1592  2.0985
   13MOL0     H 1715  10.911   2.255   3.213 -2.1916 -0.3987  1.2384
   13MOL0     H 1716  11.112   2.392   3.192  0.9103  0.6765  0.2823
   13MOL0     H 1717  11.324   2.777   3.359  0.4126 -0.8472 -2.1185
   13MOL0     H 1718  11.539   2.926   3.337  0.9133 -0.8125 -0.9185
   13MOL0     H 1719  11.499   3.245   2.998  3.6377 -2.0278 -1.5115
   13MOL0     H 1720  11.462   3.321   3.148  0.0191  0.4469 -0.1843
   13MOL0     H 1721  11.755   3.247   3.067  0.3704  1.7825 -1.7771
   13MOL0     H 1722  11.677   3.400   3.029  4.9040 -1.3070 -1.5241
   13MOL0     H 1723  11.651   3.449   3.273 -3.2552 -2.1527  0.4671
   13MOL0     H 1724  11.687   3.289   3.318 -1.4059  1.3631  0.0834
   13MOL0     H 1725  11.890   3.458   3.155 -2.0336 -2.6749 -2.1132
   13MOL0     H 1726  11.925   3.310   3.258 -1.8101 -0.8955  0.3783
   13MOL0     H 1727  11.840   3.590   3.353  0.9243  0.6364 -2.4857
   13MOL0     H 1728  12.004   3.526   3.337  0.1148 -0.0029 -2.9125
   13MOL0     H 1729  11.786   3.386   3.502 -0.9068  1.7677 -1.8312
   13MOL0     H 1730  11.958   3.333   3.479  1.3322  1.7491  0.3214
   13MOL0     H 1731  11.899   3.608   3.598 -1.8055  0.5149  2.3123
   13MOL0     H 1732  12.040   3.513   3.614 -0.3180  0.0837 -2.0586
   13MOL0     H 1733  11.949   3.482   3.814  0.1887  1.3323 -0.8948
   13MOL0     H 1734  11.773   3.504   3.752 -0.7552  0.0699 -1.9875
   13MOL0     H 1735  11.323   3.122   3.010  1.1072 -0.3869 -0.9261
   13MOL0     H 1736  11.148   2.986   3.025 -1.9409  1.7762  1.0407
   13MOL0     H 1737  10.887   2.753   3.244 -0.8324  0.6265 -2.6558
   13MOL0     H 1738  10.685   2.611   3.299 -0.9120 -1.1833 -1.5530
   13MOL0     H 1739   9.437   1.720   3.438  1.1273  0.5071  0.1490
   13MOL0     H 1740   9.184   1.704   3.411  0.7299 -2.0041  1.3035
   13MOL0     H 1741   8.809   1.945   3.469  0.0564 -0.3700 -2.3947
   13MOL0     H 1742   8.578   1.966   3.426  3.5176  3.1443  0.5257
   13MOL0     H 1743   8.398   1.908   3.719  2.7273 -1.6394 -1.5546
   13MOL0     H 1744   8.272   1.789   3.698  1.0781  0.2136  2.2531
   13MOL0     H 1745   8.186   1.973   3.512  1.2950 -0.9220 -1.2610
   13MOL0     H 1746   8.301   2.076   3.589 -1.7945  1.9222  0.0664
   13MOL0     H 1747   8.191   2.063   3.811 -1.2177 -2.6012  0.1493
   13MOL0     H 1748   8.090   1.938   3.751 -0.5775  0.3707  1.3764
   13MOL0     H 1749   7.967   2.093   3.595 -0.0348  1.1902 -1.5479
   13MOL0     H 1750   7.967   2.172   3.752 -1.2349  0.3107 -0.9611
   13MOL0     H 1751   8.215   2.437   3.538 -1.7877  1.7299  0.4842
   13MOL0     H 1752   8.476   1.627   3.662 -1.3717  0.7150 -1.8773
   13MOL0     H 1753   8.769   1.570   3.830 -1.7725 -1.3803  0.7999
   13MOL0     H 1754   8.649   1.476   3.744 -1.1287  1.5797  3.5722
   13MOL0     H 1755   8.805   1.507   3.665  0.7848 -1.5359  0.8708
   14MOL0     O 1756   1.785   9.944   1.749 -0.1047 -0.0010  0.8666
   14MOL0     C 1757   1.743   9.831   1.771  1.5113 -0.1012 -0.2964
   14MOL0     O 1758   1.816   9.721   1.809 -0.2402  0.1190  0.7922
   14MOL0     C 1759   1.952   9.713   1.826  0.7722 -0.2201 -1.2633
   14MOL0     C 1760   1.996   9.583   1.841  0.3073 -0.5422 -0.0196
   14MOL0     C 1761   2.128   9.554   1.857 -0.7886 -0.3938  1.7664
   14MOL0     C 1762   2.225   9.651   1.851  0.1688  0.7306  0.9369
   14MOL0     O 1763   2.361   9.622   1.827 -0.8878 -1.0840 -0.5866
   14MOL0     C 1764   2.445   9.589   1.935 -0.6264 -0.6283  0.3774
   14MOL0     C 1765   2.590   9.600   1.867 -1.1415  0.9423  0.0941
   14MOL0     C 1766   2.620   9.490   1.760  0.0846  0.0186  0.1905
   14MOL0     C 1767   2.754   9.519   1.688  0.0332 -0.0495 -0.3583
   14MOL0     C 1768   2.879   9.533   1.781  0.1738  0.7550 -0.0315
   14MOL0     C 1769   3.002   9.586   1.700 -0.1881  0.9187 -0.1626
   14MOL0     C 1770   3.136   9.590   1.765 -1.0888 -0.2298 -0.1322
   14MOL0     C 1771   3.264   9.590   1.666  0.5575 -0.1307  0.2154
   14MOL0     N 1772   3.391   9.565   1.735 -0.8107  0.9255  0.2305
   14MOL0     C 1773   3.470   9.455   1.709  0.1050  0.7403 -0.3091
   14MOL0     C 1774   3.556   9.447   1.815 -0.2853 -0.0178  0.0934
   14MOL0     C 1775   3.658   9.342   1.859 -1.4646  0.0811 -0.8753
   14MOL0     C 1776   3.793   9.385   1.812  0.2517  0.2097  1.4159
   14MOL0     C 1777   3.859   9.485   1.911 -0.2486  0.8669 -0.0410
   14MOL0     C 1778   4.005   9.505   1.878 -0.2244 -0.9891 -0.8789
   14MOL0     O 1779   4.098   9.400   1.902  0.1914 -0.1436  0.4539
   14MOL0     C 1780   4.141   9.371   2.030 -0.1169  0.1424 -0.0299
   14MOL0     C 1781   4.099   9.436   2.147 -0.3644  0.6279  0.4205
   14MOL0     C 1782   4.152   9.397   2.271  0.3737 -0.6856 -0.5785
   14MOL0     C 1783   4.258   9.304   2.273  0.7176 -0.9329 -0.1848
   14MOL0     C 1784   4.324   9.260   2.398 -1.2982  0.5448 -0.4815
   14MOL0     O 1785   4.276   9.314   2.517 -0.9248  0.3420  0.4017
   14MOL0     C 1786   4.330   9.280   2.641 -0.2356  0.8059  0.0454
   14MOL0     C 1787   4.461   9.245   2.672 -0.3912  0.3205 -0.3679
   14MOL0     C 1788   4.511   9.221   2.806  0.6581  0.5598  0.4247
   14MOL0     C 1789   4.412   9.217   2.907 -0.6769 -0.4474 -1.0529
   14MOL0     O 1790   4.429   9.166   3.037  0.3850  0.1943 -0.4526
   14MOL0     C 1791   4.544   9.080   3.053  0.3998  0.5002  0.1148
   14MOL0     C 1792   4.661   9.166   3.098  1.1706 -0.7054 -0.6551
   14MOL0     C 1793   4.637   9.225   3.242 -0.7243  0.2188  0.5369
   14MOL0     C 1794   4.648   9.125   3.361  0.1213  0.5912  1.0734
   14MOL0     C 1795   4.765   9.145   3.463 -1.1622 -0.5794  0.1899
   14MOL0     C 1796   4.724   9.241   3.586 -0.0331 -0.4863 -0.0808
   14MOL0     C 1797   4.799   9.210   3.716  1.1714 -0.8340 -0.1130
   14MOL0     C 1798   4.943   9.256   3.707  0.5867  0.4826 -0.2210
   14MOL0    Cl 1799   4.947   9.432   3.670  0.1837  0.2710  0.7175
   14MOL0     C 1800   4.278   9.271   2.880 -0.6955  0.0497  0.5116
   14MOL0     C 1801   4.238   9.292   2.747  0.6375 -0.4532 -0.4352
   14MOL0     O 1802   4.414   9.181   2.391  0.7489  0.4250 -0.0247
   14MOL0     C 1803   4.301   9.253   2.154 -0.0795  0.0109  0.1829
   14MOL0     C 1804   4.247   9.281   2.029 -0.6305 -0.3912  0.0160
   14MOL0     N 1805   3.543   9.562   1.890  0.9288 -0.0098  0.6327
   14MOL0     N 1806   3.440   9.628   1.850 -0.4792  0.5403 -0.4683
   14MOL0     C 1807   2.179   9.782   1.835 -0.9604  0.0273  0.2534
   14MOL0     C 1808   2.044   9.817   1.834 -0.1814  0.0445 -0.4768
   14MOL0     C 1809   1.596   9.806   1.749  0.3691 -0.4124 -0.7505
   14MOL0     C 1810   1.553   9.673   1.734 -0.1070  0.0986  0.7368
   14MOL0     C 1811   1.429   9.640   1.684 -0.2140  0.4595  0.1457
   14MOL0     C 1812   1.330   9.739   1.652  0.3055  0.0292 -0.0582
   14MOL0     O 1813   1.206   9.693   1.608 -1.1571 -0.0009 -0.0689
   14MOL0     C 1814   1.096   9.789   1.581 -0.5708  0.8102  0.0487
   14MOL0     C 1815   1.004   9.720   1.482  0.3950  0.2886  0.3529
   14MOL0     C 1816   0.886   9.805   1.452 -0.1802  0.4094  0.2285
   14MOL0     C 1817   0.789   9.738   1.358 -0.8320 -0.0758 -0.5353
   14MOL0     C 1818   0.669   9.691   1.434 -0.2898 -0.8308  0.7851
   14MOL0     C 1819   0.566   9.666   1.482  0.3705  0.4478 -0.4946
   14MOL0     C 1820   1.364   9.866   1.689  0.5167  0.2591  0.0968
   14MOL0     C 1821   1.492   9.903   1.740 -0.2480  0.7476  0.6432
   14MOL0     C 1822   1.520  10.054   1.748 -1.0203  0.0174 -0.3305
   14MOL0     H 1823   1.934   9.494   1.833 -0.6650 -0.0662  1.6533
   14MOL0     H 1824   2.151   9.449   1.866  0.3832 -0.3454 -0.1576
   14MOL0     H 1825   2.438   9.664   2.014 -1.4356 -1.7188  1.3788
   14MOL0     H 1826   2.427   9.485   1.965  2.6663 -1.2131  0.6536
   14MOL0     H 1827   2.670   9.589   1.940 -1.7630 -1.4505  0.5059
   14MOL0     H 1828   2.611   9.698   1.823  1.6278  0.8447  1.0241
   14MOL0     H 1829   2.527   9.482   1.704 -2.2155  3.1858  3.1544
   14MOL0     H 1830   2.629   9.395   1.813 -0.8393  0.5143  1.2842
   14MOL0     H 1831   2.772   9.438   1.617  0.3159 -1.7549  1.5579
   14MOL0     H 1832   2.763   9.618   1.644  0.6116 -0.3458 -0.9211
   14MOL0     H 1833   2.855   9.608   1.857  1.0715  0.3014  0.7201
   14MOL0     H 1834   2.902   9.441   1.834  0.0338 -0.6906 -2.3380
   14MOL0     H 1835   3.003   9.528   1.607 -0.9317 -0.6154  0.7476
   14MOL0     H 1836   2.969   9.683   1.660 -3.9808 -0.9624 -2.1725
   14MOL0     H 1837   3.138   9.508   1.837 -1.3631  2.3839  3.0797
   14MOL0     H 1838   3.135   9.687   1.817 -0.3579 -0.3879  0.1888
   14MOL0     H 1839   3.247   9.507   1.596  1.2794 -1.6243  1.7388
   14MOL0     H 1840   3.261   9.682   1.608  1.2320 -0.4813 -0.3864
   14MOL0     H 1841   3.453   9.380   1.633 -2.4606  2.3968 -1.5158
   14MOL0     H 1842   3.657   9.334   1.968 -0.5953  1.2107 -0.7696
   14MOL0     H 1843   3.622   9.252   1.808  0.0894  0.0031 -1.8895
   14MOL0     H 1844   3.856   9.297   1.798  0.3714  0.7215 -2.8113
   14MOL0     H 1845   3.777   9.431   1.714 -0.2302  1.6901  2.1579
   14MOL0     H 1846   3.841   9.455   2.014 -0.4867  1.3525  0.0583
   14MOL0     H 1847   3.809   9.582   1.907 -0.9545  0.4850 -2.2904
   14MOL0     H 1848   4.028   9.579   1.954 -0.0639 -1.2201 -0.6991
   14MOL0     H 1849   4.022   9.563   1.787 -1.4294 -0.3328 -0.6949
   14MOL0     H 1850   4.020   9.509   2.157  1.4966  2.7893  0.2323
   14MOL0     H 1851   4.115   9.432   2.367  0.4575 -0.1740 -0.7349
   14MOL0     H 1852   4.541   9.239   2.599  2.6124 -0.8198  2.7554
   14MOL0     H 1853   4.614   9.188   2.820  0.6222  0.8459  1.4049
   14MOL0     H 1854   4.527   9.016   3.140 -1.6867 -0.2826 -0.8043
   14MOL0     H 1855   4.569   9.017   2.967  1.3296  0.5794  0.3151
   14MOL0     H 1856   4.753   9.108   3.093  0.8831 -1.1185 -1.2008
   14MOL0     H 1857   4.678   9.255   3.036 -0.0053  0.2342  0.3151
   14MOL0     H 1858   4.716   9.300   3.259  0.1948 -0.5555 -0.1751
   14MOL0     H 1859   4.537   9.263   3.262 -2.1151 -2.6648 -0.5142
   14MOL0     H 1860   4.668   9.027   3.316 -0.9003 -0.5365  2.9568
   14MOL0     H 1861   4.551   9.120   3.410 -0.4901  1.1143 -0.0467
   14MOL0     H 1862   4.856   9.182   3.416 -0.3409 -1.7955  0.7729
   14MOL0     H 1863   4.796   9.050   3.508  1.7383 -0.6386 -1.6611
   14MOL0     H 1864   4.735   9.347   3.560 -0.2510 -0.1189  1.2193
   14MOL0     H 1865   4.618   9.227   3.606 -0.1268  1.2457  0.8292
   14MOL0     H 1866   4.787   9.106   3.748  0.5874 -0.0977  2.1857
   14MOL0     H 1867   4.751   9.274   3.790  2.3454  3.4318 -2.6714
   14MOL0     H 1868   4.993   9.247   3.805 -1.4281  0.3132  0.8359
   14MOL0     H 1869   4.994   9.198   3.630 -1.2207 -2.3025  0.5267
   14MOL0     H 1870   4.226   9.282   2.974 -1.8350 -0.4315 -0.0348
   14MOL0     H 1871   4.140   9.333   2.725  1.8412  1.5926 -2.4527
   14MOL0     H 1872   4.378   9.177   2.166 -0.2260 -0.1501  0.1176
   14MOL0     H 1873   4.288   9.241   1.937  0.8310  1.3435 -0.1353
   14MOL0     H 1874   2.251   9.863   1.831  1.3082 -1.9267 -0.5727
   14MOL0     H 1875   2.002   9.918   1.835 -0.8115 -0.1700 -1.8225
   14MOL0     H 1876   1.628   9.597   1.753 -0.1322 -0.9386 -2.7069
   14MOL0     H 1877   1.407   9.536   1.666 -0.2466  0.4598  0.1834
   14MOL0     H 1878   1.138   9.878   1.534 -1.2637  0.3211 -1.5591
   14MOL0     H 1879   1.042   9.815   1.672 -1.6058  0.0926 -0.3353
   14MOL0     H 1880   0.974   9.625   1.527  0.6891  0.5607  1.1363
   14MOL0     H 1881   1.055   9.696   1.388 -0.1622  1.3552 -0.2427
   14MOL0     H 1882   0.912   9.900   1.404 -1.1339  2.2306  3.0105
   14MOL0     H 1883   0.834   9.844   1.541 -2.0342  1.7514 -1.3599
   14MOL0     H 1884   0.759   9.811   1.283  2.3590  1.9459 -0.0144
   14MOL0     H 1885   0.844   9.663   1.301  0.5767  0.7251 -0.2661
   14MOL0     H 1886   0.480   9.623   1.529 -0.0112  1.1108 -0.5745
   14MOL0     H 1887   1.285   9.939   1.679 -0.4807 -1.1019 -3.6525
   14MOL0     H 1888   1.567  10.079   1.844  2.4850  0.9823 -2.1202
   14MOL0     H 1889   1.580  10.076   1.659 -0.8931 -0.5530 -0.3886
   14MOL0     H 1890   1.428  10.112   1.742 -1.7390 -1.2116 -1.7248
   15MOL0     O 1891   3.062   1.260   5.955  0.0648  0.2130  0.0668
   15MOL0     C 1892   2.993   1.357   5.952 -0.1495  0.2903 -0.3479
   15MOL0     O 1893   2.997   1.450   5.850  0.3152 -0.0439  0.4370
   15MOL0     C 1894   3.067   1.446   5.733  0.4389 -0.0264 -0.7341
   15MOL0     C 1895   3.187   1.375   5.723 -1.1485 -0.7311 -0.9197
   15MOL0     C 1896   3.261   1.378   5.604 -0.4580 -0.0537 -0.4736
   15MOL0     C 1897   3.214   1.448   5.490  0.6243 -0.2291 -0.5473
   15MOL0     O 1898   3.266   1.443   5.369  0.3298  0.2621 -0.1356
   15MOL0     C 1899   3.369   1.350   5.341  0.0862  0.4926 -0.0794
   15MOL0     C 1900   3.390   1.354   5.183  0.4558 -1.2547 -0.7393
   15MOL0     C 1901   3.282   1.301   5.091 -0.1161  0.3184 -0.5924
   15MOL0     C 1902   3.226   1.169   5.137 -1.1663  0.8192  0.2810
   15MOL0     C 1903   3.166   1.089   5.033  0.1520 -0.1068 -0.1202
   15MOL0     C 1904   3.064   0.987   5.080 -0.4830  0.6204 -0.1440
   15MOL0     C 1905   3.008   0.895   4.971 -0.5055  0.2746  0.4721
   15MOL0     C 1906   2.921   0.785   5.023  0.6589 -0.4126  0.4325
   15MOL0     N 1907   2.898   0.703   4.902 -0.2255 -0.5166  0.1868
   15MOL0     C 1908   2.783   0.718   4.825 -0.3712 -0.0860 -0.3477
   15MOL0     C 1909   2.816   0.648   4.714 -0.0910  0.1214  0.1805
   15MOL0     C 1910   2.725   0.627   4.596 -0.5882 -0.1784  0.0744
   15MOL0     C 1911   2.734   0.745   4.499 -0.0379  0.3972  0.7070
   15MOL0     C 1912   2.644   0.714   4.375 -0.7910 -0.6179  0.7896
   15MOL0     C 1913   2.658   0.827   4.270  0.0673  0.1568 -0.4586
   15MOL0     O 1914   2.588   0.947   4.317 -0.0465 -0.1468  0.6085
   15MOL0     C 1915   2.457   0.928   4.315  0.6071 -1.0123 -1.1424
   15MOL0     C 1916   2.385   0.950   4.429  0.0508  0.4215 -0.3633
   15MOL0     C 1917   2.244   0.934   4.432 -0.0999 -0.1055  0.3222
   15MOL0     C 1918   2.173   0.898   4.315 -0.0699  0.2713  0.1864
   15MOL0     C 1919   2.033   0.862   4.313 -0.4971 -0.5633 -0.6381
   15MOL0     O 1920   1.974   0.822   4.198 -0.1964 -0.5722 -0.1475
   15MOL0     C 1921   1.838   0.816   4.176  0.5470  0.4677  0.4763
   15MOL0     C 1922   1.736   0.859   4.260  0.1297  0.4566  0.4877
   15MOL0     C 1923   1.594   0.870   4.229 -0.3092  0.2210  0.2782
   15MOL0     C 1924   1.559   0.838   4.087 -0.3088  0.1869 -0.6326
   15MOL0     O 1925   1.432   0.871   4.034  0.2951 -0.5108 -0.3730
   15MOL0     C 1926   1.377   0.790   3.933  0.2560  0.4481 -0.9010
   15MOL0     C 1927   1.230   0.800   3.959  0.9498 -0.0540  1.0204
   15MOL0     C 1928   1.140   0.697   3.895  0.4150  0.4781  0.5217
   15MOL0     C 1929   0.986   0.712   3.931 -0.6758 -0.0692  1.1562
   15MOL0     C 1930   0.916   0.616   3.840 -0.3387  0.2796 -0.0924
   15MOL0     C 1931   0.771   0.648   3.813  0.5548 -0.1972  0.1578
   15MOL0     C 1932   0.685   0.664   3.938  0.2808  0.4165 -0.1601
   15MOL0     C 1933   0.628   0.532   3.987  0.0032  0.3492  0.1809
   15MOL0    Cl 1934   0.530   0.530   4.142  0.0810 -0.4309  0.2810
   15MOL0     C 1935   1.659   0.789   4.005 -0.0833 -0.0324 -0.4984
   15MOL0     C 1936   1.796   0.769   4.051  0.0395 -0.7250  0.0500
   15MOL0     O 1937   1.978   0.889   4.417 -0.4479 -0.1287 -0.3577
   15MOL0     C 1938   2.250   0.879   4.198  0.1348  0.2526 -0.3327
   15MOL0     C 1939   2.387   0.896   4.196 -0.1265 -0.5441  0.3512
   15MOL0     N 1940   2.935   0.579   4.733  0.8897 -1.0635  0.4800
   15MOL0     N 1941   2.980   0.615   4.848 -0.4169 -1.1418 -0.1951
   15MOL0     C 1942   3.087   1.502   5.494  0.9841 -0.2969  0.0907
   15MOL0     C 1943   3.009   1.501   5.615  0.5609 -0.0311 -0.2788
   15MOL0     C 1944   2.900   1.388   6.070  0.4186 -0.0460 -1.1648
   15MOL0     C 1945   2.810   1.493   6.054  0.1451 -0.2425 -0.4035
   15MOL0     C 1946   2.705   1.522   6.145  0.3952 -0.2836 -0.1041
   15MOL0     C 1947   2.696   1.442   6.266  0.2856 -0.3195 -0.6598
   15MOL0     O 1948   2.602   1.454   6.365  0.6698  0.2263 -0.2168
   15MOL0     C 1949   2.498   1.548   6.356  0.0637 -0.0257  0.1131
   15MOL0     C 1950   2.383   1.497   6.441  0.8319  0.5269  0.1674
   15MOL0     C 1951   2.265   1.589   6.416  0.6947 -0.0977  1.0135
   15MOL0     C 1952   2.186   1.527   6.299 -0.3038  0.0856 -0.2679
   15MOL0     C 1953   2.063   1.604   6.278 -0.7359  1.0754  0.3361
   15MOL0     C 1954   1.951   1.654   6.280  0.0226 -0.7011 -0.0958
   15MOL0     C 1955   2.804   1.352   6.286 -0.0089 -0.4083  0.0565
   15MOL0     C 1956   2.906   1.323   6.198 -0.2018 -0.3194  0.6729
   15MOL0     C 1957   3.014   1.220   6.230  0.0066 -0.3733  0.2112
   15MOL0     H 1958   3.244   1.326   5.801  2.2991  4.9846  0.8196
   15MOL0     H 1959   3.345   1.311   5.591 -1.5452 -1.7860  0.9363
   15MOL0     H 1960   3.463   1.386   5.385  0.4613  0.6846 -1.0221
   15MOL0     H 1961   3.339   1.252   5.378  0.1576  0.3094 -0.4995
   15MOL0     H 1962   3.487   1.307   5.165  0.5905 -0.2051 -3.1332
   15MOL0     H 1963   3.405   1.462   5.168 -0.7457 -0.6828  1.5932
   15MOL0     H 1964   3.324   1.294   4.990  1.3721  0.1300  0.0200
   15MOL0     H 1965   3.199   1.372   5.081 -0.0202  0.8657  2.0039
   15MOL0     H 1966   3.302   1.116   5.197 -3.8748  1.5651  4.8045
   15MOL0     H 1967   3.148   1.181   5.213 -1.5464 -0.0016  0.0296
   15MOL0     H 1968   3.120   1.149   4.953  0.4874 -1.7147 -1.5800
   15MOL0     H 1969   3.246   1.036   4.981 -0.2934 -0.9573  0.0505
   15MOL0     H 1970   3.097   0.923   5.162 -2.4610  2.5286  2.3271
   15MOL0     H 1971   2.984   1.036   5.137  0.4610  1.7156  0.2889
   15MOL0     H 1972   3.091   0.866   4.906  0.1636  2.7194  0.1462
   15MOL0     H 1973   2.945   0.961   4.910 -0.9390  2.4934  3.1381
   15MOL0     H 1974   2.975   0.729   5.099 -0.1200 -1.2199  0.3971
   15MOL0     H 1975   2.827   0.828   5.060 -0.4172 -2.7791  0.6213
   15MOL0     H 1976   2.695   0.778   4.845  0.1392  0.2940  0.8318
   15MOL0     H 1977   2.746   0.534   4.541  3.2515 -0.6550  2.0042
   15MOL0     H 1978   2.626   0.618   4.641  0.1723 -2.5368  1.4886
   15MOL0     H 1979   2.686   0.826   4.554 -3.2908 -0.7189 -0.2531
   15MOL0     H 1980   2.831   0.775   4.459  0.1538  0.1151  0.9549
   15MOL0     H 1981   2.539   0.684   4.386 -0.9973 -1.4032 -2.4079
   15MOL0     H 1982   2.688   0.624   4.333 -1.2927 -2.0121  3.0573
   15MOL0     H 1983   2.611   0.798   4.175  0.4597  2.0089 -1.2771
   15MOL0     H 1984   2.763   0.845   4.246  0.0171  0.4166 -0.4888
   15MOL0     H 1985   2.446   0.971   4.517  0.7508  1.1433 -1.0032
   15MOL0     H 1986   2.193   0.951   4.526 -0.4944  1.7864 -0.1918
   15MOL0     H 1987   1.757   0.884   4.363 -1.4187 -3.7514  2.0627
   15MOL0     H 1988   1.523   0.913   4.298  0.8362  0.2331  1.4948
   15MOL0     H 1989   1.401   0.831   3.834  0.1183  0.0602 -1.0981
   15MOL0     H 1990   1.405   0.684   3.940  2.7467  1.0761 -0.2543
   15MOL0     H 1991   1.221   0.788   4.067  3.3392  0.3238  1.3184
   15MOL0     H 1992   1.188   0.899   3.935  1.2481 -0.1148  0.1943
   15MOL0     H 1993   1.149   0.711   3.787 -1.6799 -0.4388  0.1761
   15MOL0     H 1994   1.186   0.603   3.927  0.6738 -0.0849 -1.4032
   15MOL0     H 1995   0.962   0.817   3.913  0.2699 -0.1127 -0.5688
   15MOL0     H 1996   0.963   0.691   4.036  2.1523  0.0177  1.8752
   15MOL0     H 1997   0.903   0.521   3.893 -1.0978 -0.0801 -0.9015
   15MOL0     H 1998   0.973   0.601   3.748  0.6422 -1.7033  0.7769
   15MOL0     H 1999   0.769   0.742   3.756  1.9710 -0.6137 -0.6358
   15MOL0     H 2000   0.730   0.568   3.750  1.0699 -1.8995  1.8989
   15MOL0     H 2001   0.602   0.730   3.914  1.1294  1.8071  0.6285
   15MOL0     H 2002   0.742   0.711   4.019  0.7532  1.1443 -0.9045
   15MOL0     H 2003   0.562   0.485   3.913  0.3416 -0.1066  0.1644
   15MOL0     H 2004   0.714   0.467   4.002 -0.3307 -0.2240 -0.3550
   15MOL0     H 2005   1.633   0.772   3.901  1.4915 -1.1978 -0.7395
   15MOL0     H 2006   1.871   0.726   3.985  0.4091  2.4297 -1.8125
   15MOL0     H 2007   2.205   0.850   4.104  0.5079  2.4334 -1.2266
   15MOL0     H 2008   2.434   0.877   4.100 -2.5814 -0.0904 -1.0334
   15MOL0     H 2009   3.038   1.546   5.408  2.2911  2.1722  0.5362
   15MOL0     H 2010   2.908   1.538   5.625  0.1801 -1.2279  0.6491
   15MOL0     H 2011   2.806   1.555   5.965 -2.8800  1.2637  0.6524
   15MOL0     H 2012   2.631   1.596   6.116 -2.0265 -1.7743  1.8570
   15MOL0     H 2013   2.469   1.564   6.251 -3.2816  2.5929  1.2621
   15MOL0     H 2014   2.529   1.645   6.394  0.2958 -0.3295  0.7070
   15MOL0     H 2015   2.407   1.504   6.548  2.1225  0.7176 -0.1169
   15MOL0     H 2016   2.364   1.395   6.407 -1.9731  0.8189  0.6385
   15MOL0     H 2017   2.285   1.696   6.403 -3.9836  0.9578  0.8584
   15MOL0     H 2018   2.208   1.581   6.509 -1.5221  0.4908 -0.2065
   15MOL0     H 2019   2.240   1.529   6.204 -0.6288 -1.4573 -0.4984
   15MOL0     H 2020   2.159   1.423   6.317 -1.2273  0.4365  0.5005
   15MOL0     H 2021   1.860   1.708   6.296  1.0968  1.7670 -1.6576
   15MOL0     H 2022   2.812   1.300   6.381 -1.0635 -1.4282 -0.3935
   15MOL0     H 2023   3.109   1.274   6.235 -2.1603  4.0303 -1.2462
   15MOL0     H 2024   2.995   1.168   6.325 -3.3657 -1.4624 -0.9212
   15MOL0     H 2025   3.023   1.140   6.157  1.9453  1.0370 -1.1707
   16MOL0     O 2026   0.297   2.112   8.128  0.2559  0.0150  0.5289
   16MOL0     C 2027   0.261   2.199   8.050  0.6714 -0.1439  0.1422
   16MOL0     O 2028   0.305   2.328   8.053  0.2432  1.2210 -0.5983
   16MOL0     C 2029   0.437   2.344   8.095 -0.6892  0.5463 -0.4702
   16MOL0     C 2030   0.469   2.422   8.211  0.1519  0.1910 -0.0043
   16MOL0     C 2031   0.596   2.422   8.258  0.2968 -1.1787  0.0756
   16MOL0     C 2032   0.702   2.369   8.195  0.3931 -0.0764 -0.2625
   16MOL0     O 2033   0.825   2.395   8.256  0.3035 -0.2043  0.5748
   16MOL0     C 2034   0.950   2.362   8.191  0.3606 -0.1920 -0.0393
   16MOL0     C 2035   1.000   2.219   8.221  0.3530  0.0363 -0.8953
   16MOL0     C 2036   0.990   2.166   8.366 -0.8835 -0.5213  0.2248
   16MOL0     C 2037   1.027   2.014   8.386 -0.1968  0.0092 -0.3512
   16MOL0     C 2038   0.994   1.979   8.535  0.6102 -0.8676  0.0463
   16MOL0     C 2039   1.021   1.829   8.560 -0.0796  0.7390 -0.8030
   16MOL0     C 2040   0.922   1.740   8.480  0.7984 -0.3169 -0.7611
   16MOL0     C 2041   0.936   1.593   8.516 -0.5737  0.7819  0.1411
   16MOL0     N 2042   1.054   1.535   8.443  0.4637  0.4696  0.8203
   16MOL0     C 2043   1.049   1.483   8.309 -0.0609 -0.1694 -0.1068
   16MOL0     C 2044   1.175   1.445   8.286  0.3611  0.6446 -0.2312
   16MOL0     C 2045   1.222   1.377   8.163  0.0537 -0.0423 -0.8614
   16MOL0     C 2046   1.241   1.231   8.203  0.0773 -0.2199  0.3741
   16MOL0     C 2047   1.316   1.145   8.104  0.0768 -0.9417 -0.6893
   16MOL0     C 2048   1.463   1.174   8.075  0.3034 -0.2382 -0.5063
   16MOL0     O 2049   1.544   1.177   8.194 -0.3309 -0.0913 -0.5064
   16MOL0     C 2050   1.674   1.189   8.168  0.2236 -0.4957  0.1617
   16MOL0     C 2051   1.760   1.082   8.192  0.2487  0.8266 -0.5129
   16MOL0     C 2052   1.896   1.102   8.173 -0.3162 -0.8330  0.0438
   16MOL0     C 2053   1.950   1.232   8.153 -0.2704 -0.1634  0.0675
   16MOL0     C 2054   2.095   1.255   8.146 -0.7093 -0.4185 -0.0468
   16MOL0     O 2055   2.145   1.380   8.173 -0.0714 -0.1303  0.3637
   16MOL0     C 2056   2.275   1.402   8.127  0.3452  0.3608 -0.0358
   16MOL0     C 2057   2.387   1.366   8.198  0.0055  0.5488  0.7602
   16MOL0     C 2058   2.520   1.390   8.147  0.4506  0.7242  0.2385
   16MOL0     C 2059   2.546   1.465   8.030 -0.8553  0.0441 -0.1747
   16MOL0     O 2060   2.677   1.480   7.982  0.1399  0.3789  0.1813
   16MOL0     C 2061   2.716   1.621   7.972 -0.1986  0.3262 -1.1938
   16MOL0     C 2062   2.858   1.620   7.904  0.5336  0.3175  0.4239
   16MOL0     C 2063   2.971   1.553   7.969 -0.1895  0.3156 -1.3211
   16MOL0     C 2064   3.093   1.518   7.894  0.3363  0.2670  0.1985
   16MOL0     C 2065   3.206   1.438   7.971  0.1301 -0.2320 -0.0463
   16MOL0     C 2066   3.150   1.333   8.071  0.2095 -0.6093  0.3209
   16MOL0     C 2067   3.257   1.289   8.177 -0.6546 -0.3903  0.1273
   16MOL0     C 2068   3.309   1.392   8.267 -0.3057 -0.1609  1.4090
   16MOL0    Cl 2069   3.209   1.408   8.414  0.0552  0.0670 -0.3254
   16MOL0     C 2070   2.431   1.507   7.954 -0.6133  0.5848 -0.3818
   16MOL0     C 2071   2.300   1.480   8.002  0.1101  0.0259 -0.4144
   16MOL0     O 2072   2.170   1.163   8.119  0.0363  0.1583 -0.7431
   16MOL0     C 2073   1.856   1.336   8.142  0.0665 -0.3416 -0.0726
   16MOL0     C 2074   1.720   1.314   8.148 -0.5489 -0.2710 -0.2235
   16MOL0     N 2075   1.243   1.456   8.409 -0.7736 -0.0649 -1.0265
   16MOL0     N 2076   1.178   1.512   8.500 -0.5151 -0.1150 -0.3072
   16MOL0     C 2077   0.677   2.314   8.072  0.5545 -0.2631  0.8756
   16MOL0     C 2078   0.550   2.294   8.027  0.2578 -0.9004  1.0812
   16MOL0     C 2079   0.142   2.170   7.962  0.4089 -0.1958  0.3069
   16MOL0     C 2080   0.026   2.254   7.971 -0.2487 -0.3851  0.4898
   16MOL0     C 2081  -0.084   2.235   7.883 -0.3872 -0.3108 -1.1377
   16MOL0     C 2082  -0.080   2.128   7.798  0.1181  0.6920  0.4620
   16MOL0     O 2083  -0.187   2.095   7.714 -0.0122 -1.3706 -0.1641
   16MOL0     C 2084  -0.306   2.169   7.699  0.2252  0.6529 -0.1413
   16MOL0     C 2085  -0.409   2.090   7.625 -0.0355  0.5961 -0.9161
   16MOL0     C 2086  -0.465   1.973   7.707  0.3981 -0.3944  0.6416
   16MOL0     C 2087  -0.558   1.886   7.629  0.7986  0.7696 -0.5297
   16MOL0     C 2088  -0.486   1.801   7.530 -0.1612 -0.0239 -0.6039
   16MOL0     C 2089  -0.423   1.718   7.461  0.3843 -0.1812  0.0511
   16MOL0     C 2090   0.035   2.042   7.791  0.2702  0.1560 -0.1513
   16MOL0     C 2091   0.147   2.071   7.863 -0.7903 -0.1411 -0.4474
   16MOL0     C 2092   0.271   1.982   7.845 -0.3375 -0.5405  0.4978
   16MOL0     H 2093   0.399   2.475   8.274  0.9911  0.7825  0.4440
   16MOL0     H 2094   0.620   2.487   8.342  1.0743 -2.7958  1.1635
   16MOL0     H 2095   0.941   2.359   8.082 -2.9508  0.0447  0.1172
   16MOL0     H 2096   1.020   2.440   8.221  0.4702 -0.6938  1.0605
   16MOL0     H 2097   1.105   2.216   8.189 -0.0642 -0.2743 -2.3194
   16MOL0     H 2098   0.938   2.153   8.159 -0.7756  1.6257 -1.5138
   16MOL0     H 2099   0.893   2.180   8.414  0.1612  0.0173  2.3060
   16MOL0     H 2100   1.056   2.239   8.414  0.1384  0.7683 -2.9068
   16MOL0     H 2101   0.973   1.959   8.308  0.8612 -0.8726 -0.4864
   16MOL0     H 2102   1.133   1.991   8.371 -0.6535 -2.5044 -0.1319
   16MOL0     H 2103   1.058   2.042   8.597 -1.8270  1.3009  0.5420
   16MOL0     H 2104   0.890   1.994   8.565  1.4224 -2.4010  4.1752
   16MOL0     H 2105   1.123   1.797   8.537 -1.0330 -1.7067 -1.9873
   16MOL0     H 2106   1.011   1.821   8.669 -0.8056  1.2368 -0.8213
   16MOL0     H 2107   0.925   1.747   8.371  0.9460  1.4612 -0.6724
   16MOL0     H 2108   0.816   1.762   8.495  0.1947 -1.5626 -2.8607
   16MOL0     H 2109   0.956   1.578   8.623 -2.0978  0.0077  0.3527
   16MOL0     H 2110   0.843   1.537   8.502 -0.1064 -0.0735  0.3683
   16MOL0     H 2111   0.968   1.500   8.240 -1.3830 -1.3953  1.0751
   16MOL0     H 2112   1.152   1.401   8.082 -0.5879  1.9940  0.2144
   16MOL0     H 2113   1.323   1.411   8.139  1.4851 -2.5298  1.1438
   16MOL0     H 2114   1.300   1.232   8.295  2.4465  1.3892 -1.0490
   16MOL0     H 2115   1.149   1.182   8.237  1.9935 -2.0919  3.3088
   16MOL0     H 2116   1.269   1.161   8.006  1.6618 -2.5205 -1.7799
   16MOL0     H 2117   1.304   1.041   8.135  1.9402 -0.9748  0.0520
   16MOL0     H 2118   1.467   1.273   8.029 -1.8036 -0.5430 -1.4531
   16MOL0     H 2119   1.507   1.096   8.011  1.3811  0.1670 -0.2936
   16MOL0     H 2120   1.732   0.982   8.225 -1.5945  0.8965 -1.7187
   16MOL0     H 2121   1.973   1.027   8.175  2.9359  2.2324  1.7991
   16MOL0     H 2122   2.362   1.312   8.288  0.5844  1.6523  1.6061
   16MOL0     H 2123   2.592   1.355   8.221 -2.1029 -1.8056  1.7084
   16MOL0     H 2124   2.654   1.677   7.902 -2.3632  0.8733  1.0150
   16MOL0     H 2125   2.728   1.667   8.070  2.3059 -3.2437  0.4036
   16MOL0     H 2126   2.848   1.583   7.802  0.4867  1.7474 -0.1251
   16MOL0     H 2127   2.888   1.725   7.891  0.7968  0.5538  2.4991
   16MOL0     H 2128   2.995   1.607   8.061 -0.5398 -0.2273 -0.9038
   16MOL0     H 2129   2.927   1.459   8.002 -0.2617  0.7772 -0.0549
   16MOL0     H 2130   3.121   1.613   7.848 -2.9170  1.1368 -0.1665
   16MOL0     H 2131   3.057   1.458   7.809  1.9841 -1.5240  0.6774
   16MOL0     H 2132   3.268   1.511   8.023  1.6692 -2.1351  0.9269
   16MOL0     H 2133   3.266   1.388   7.894 -0.4177 -1.3308  0.2166
   16MOL0     H 2134   3.076   1.378   8.139  0.5332 -0.1325  0.3577
   16MOL0     H 2135   3.100   1.253   8.016 -2.0767  0.1722  1.1498
   16MOL0     H 2136   3.335   1.234   8.125 -0.1624  0.5119 -0.1009
   16MOL0     H 2137   3.218   1.213   8.246 -0.5974 -1.1322 -0.6380
   16MOL0     H 2138   3.413   1.359   8.280 -0.7587 -2.5539 -0.3647
   16MOL0     H 2139   3.325   1.485   8.211  0.9103 -0.2989  1.4820
   16MOL0     H 2140   2.450   1.563   7.863 -4.0440  1.4831 -0.6729
   16MOL0     H 2141   2.223   1.506   7.930  0.2719  0.3280 -0.4804
   16MOL0     H 2142   1.894   1.437   8.129 -0.5164 -0.2797 -1.5474
   16MOL0     H 2143   1.656   1.401   8.148  1.5472  1.3889 -1.8356
   16MOL0     H 2144   0.756   2.270   8.011 -1.1534  1.3797 -2.8026
   16MOL0     H 2145   0.521   2.233   7.942  0.8452 -0.0240  0.2250
   16MOL0     H 2146   0.036   2.337   8.040 -4.8493  1.7185 -0.9474
   16MOL0     H 2147  -0.167   2.305   7.876 -1.5542 -1.7567 -2.3172
   16MOL0     H 2148  -0.292   2.268   7.654  0.9321  1.0964  1.0057
   16MOL0     H 2149  -0.361   2.194   7.790 -2.7473  0.5118 -1.7686
   16MOL0     H 2150  -0.362   2.052   7.533 -0.6838  2.0480 -1.8792
   16MOL0     H 2151  -0.490   2.154   7.589 -1.6439  1.1948  3.2497
   16MOL0     H 2152  -0.520   2.019   7.790 -0.3145  0.6647 -0.3865
   16MOL0     H 2153  -0.386   1.909   7.746  1.4737 -0.9894 -2.2718
   16MOL0     H 2154  -0.611   1.832   7.709  1.5496  0.2757 -0.3490
   16MOL0     H 2155  -0.626   1.951   7.574 -0.4901 -0.2630 -0.2225
   16MOL0     H 2156  -0.374   1.638   7.408  0.6336 -0.8969  1.3143
   16MOL0     H 2157   0.026   1.951   7.732 -3.6878 -0.7313  1.4600
   16MOL0     H 2158   0.259   1.917   7.758 -0.6885  1.8958 -1.4094
   16MOL0     H 2159   0.367   2.032   7.831 -0.0152 -1.3409 -0.1961
   16MOL0     H 2160   0.287   1.912   7.927 -2.2982  0.2133  1.5832
   17MOL0     O 2161   4.677   1.512   8.375  0.3713  0.0197 -0.1125
   17MOL0     C 2162   4.772   1.594   8.396  0.1034  0.6042 -0.4760
   17MOL0     O 2163   4.802   1.692   8.310  0.4719 -0.0530  0.1957
   17MOL0     C 2164   4.717   1.715   8.199  1.2044 -0.2279  0.4571
   17MOL0     C 2165   4.773   1.730   8.069 -0.4139 -0.0559 -0.3459
   17MOL0     C 2166   4.695   1.751   7.952 -0.2033  0.6769 -0.0754
   17MOL0     C 2167   4.557   1.755   7.957  0.5255 -0.2365  0.0926
   17MOL0     O 2168   4.500   1.773   7.831 -0.1095 -0.3061  0.1271
   17MOL0     C 2169   4.370   1.833   7.846  0.4910 -0.2604 -0.3246
   17MOL0     C 2170   4.319   1.873   7.710  0.4979  0.3638 -0.2692
   17MOL0     C 2171   4.412   1.987   7.645 -0.2139 -0.0009 -0.2847
   17MOL0     C 2172   4.359   2.034   7.510 -0.2012  0.0138  0.7405
   17MOL0     C 2173   4.224   2.118   7.533 -0.3222 -0.0137  0.1038
   17MOL0     C 2174   4.158   2.130   7.395  0.6017  0.6029  0.5073
   17MOL0     C 2175   4.016   2.175   7.418 -0.9432 -1.1630 -0.2324
   17MOL0     C 2176   3.919   2.082   7.493  0.6627 -0.6448 -0.5959
   17MOL0     N 2177   3.944   1.940   7.459  0.3860 -0.6571  0.5772
   17MOL0     C 2178   3.879   1.863   7.361 -0.2699  0.2201 -0.4420
   17MOL0     C 2179   3.933   1.735   7.367 -0.0233  0.3270 -0.0835
   17MOL0     C 2180   3.902   1.612   7.270 -0.4226 -1.1030  0.0573
   17MOL0     C 2181   3.760   1.573   7.310 -0.5251 -0.0581  0.2125
   17MOL0     C 2182   3.726   1.434   7.241  0.7947 -0.3131  0.1553
   17MOL0     C 2183   3.574   1.408   7.244  0.1248  0.3581 -0.6045
   17MOL0     O 2184   3.537   1.359   7.371 -0.1079  0.1766 -0.0814
   17MOL0     C 2185   3.411   1.333   7.405 -0.5838 -0.4601 -0.4009
   17MOL0     C 2186   3.390   1.274   7.529  0.0325 -0.1582  0.3891
   17MOL0     C 2187   3.264   1.249   7.583  0.1303  0.4270 -0.0432
   17MOL0     C 2188   3.151   1.266   7.498 -0.3459  0.5839 -0.1003
   17MOL0     C 2189   3.017   1.251   7.555  0.9121  0.4404 -0.4101
   17MOL0     O 2190   2.914   1.260   7.472 -0.0318  0.3884  0.5488
   17MOL0     C 2191   2.792   1.223   7.518  0.5062 -0.2522  0.2697
   17MOL0     C 2192   2.715   1.309   7.599 -0.2585  0.9976  0.3300
   17MOL0     C 2193   2.598   1.268   7.660 -0.5266 -0.1927  0.0900
   17MOL0     C 2194   2.540   1.146   7.619  0.5752  0.4317  0.5021
   17MOL0     O 2195   2.425   1.095   7.672 -0.9828 -0.2208 -0.5751
   17MOL0     C 2196   2.383   1.134   7.808  0.1905 -0.0380  0.1148
   17MOL0     C 2197   2.329   1.007   7.871 -0.2388 -0.7760 -0.4774
   17MOL0     C 2198   2.186   0.970   7.824 -0.7798  0.4696 -0.0956
   17MOL0     C 2199   2.141   0.835   7.889 -0.3410  0.4393 -0.0716
   17MOL0     C 2200   2.000   0.802   7.854 -1.3347 -0.4450 -0.4862
   17MOL0     C 2201   1.986   0.763   7.704  0.3448  0.3577 -0.6717
   17MOL0     C 2202   1.835   0.735   7.691 -0.3001  0.6314 -0.1960
   17MOL0     C 2203   1.816   0.692   7.547  0.1573 -1.3460  1.1705
   17MOL0    Cl 2204   1.903   0.555   7.501 -0.0809  0.1000  0.2708
   17MOL0     C 2205   2.612   1.067   7.524  0.1412 -0.2246 -0.7035
   17MOL0     C 2206   2.740   1.102   7.479  0.0607  1.0051 -0.8075
   17MOL0     O 2207   3.007   1.243   7.679  0.1318  0.7068 -0.7847
   17MOL0     C 2208   3.174   1.315   7.375 -0.2139 -0.4410  0.5365
   17MOL0     C 2209   3.301   1.345   7.319  0.5602  0.2994 -0.2205
   17MOL0     N 2210   4.005   1.741   7.482 -0.2781  0.9867 -0.5283
   17MOL0     N 2211   4.011   1.852   7.532 -0.3458 -0.2227 -0.2618
   17MOL0     C 2212   4.499   1.743   8.082 -0.5038  0.6739 -0.6897
   17MOL0     C 2213   4.573   1.734   8.207 -0.4649  0.2745  0.2196
   17MOL0     C 2214   4.852   1.594   8.523  1.3409  0.6454  0.0605
   17MOL0     C 2215   4.888   1.720   8.568  0.0400 -0.3390 -0.3425
   17MOL0     C 2216   4.961   1.730   8.684  0.0461 -0.0013  0.7513
   17MOL0     C 2217   4.988   1.628   8.774 -0.2054  0.5087 -0.3700
   17MOL0     O 2218   5.064   1.652   8.886 -0.4943 -0.0219  0.3518
   17MOL0     C 2219   5.085   1.547   8.988 -0.0821 -0.4708  0.8217
   17MOL0     C 2220   4.961   1.519   9.075  0.2952 -0.6568 -0.1008
   17MOL0     C 2221   4.946   1.634   9.174 -1.4481 -1.6908 -0.4779
   17MOL0     C 2222   4.830   1.606   9.273 -0.3883  0.7893  0.3508
   17MOL0     C 2223   4.830   1.693   9.385  0.5233  1.1133  0.4554
   17MOL0     C 2224   4.809   1.779   9.460 -0.6659  0.2253 -0.2128
   17MOL0     C 2225   4.942   1.503   8.732  0.4591 -0.2861 -0.7265
   17MOL0     C 2226   4.882   1.485   8.606  0.0112 -0.5126 -0.7910
   17MOL0     C 2227   4.840   1.348   8.574  0.0566 -0.1117 -0.4525
   17MOL0     H 2228   4.877   1.715   8.043 -0.1644 -0.4777  0.8543
   17MOL0     H 2229   4.758   1.747   7.863  3.6858 -0.5043  2.4688
   17MOL0     H 2230   4.304   1.760   7.893  1.0964 -1.4962 -1.3131
   17MOL0     H 2231   4.366   1.928   7.900  0.9846 -0.0700 -0.6141
   17MOL0     H 2232   4.220   1.911   7.735 -0.5484 -1.4757 -1.3923
   17MOL0     H 2233   4.317   1.788   7.641  0.6486 -1.0358  1.3771
   17MOL0     H 2234   4.514   1.949   7.631  0.0542  1.0705 -1.4361
   17MOL0     H 2235   4.427   2.069   7.716 -0.9237 -0.5696  0.5446
   17MOL0     H 2236   4.430   2.091   7.450  0.1021 -2.7316 -1.7492
   17MOL0     H 2237   4.354   1.945   7.448 -0.3335  0.5767 -0.0759
   17MOL0     H 2238   4.163   2.066   7.608  2.5450  1.1426  3.5086
   17MOL0     H 2239   4.241   2.219   7.569  0.2608 -0.2264  0.4450
   17MOL0     H 2240   4.216   2.200   7.334  1.3354 -0.9173 -0.5878
   17MOL0     H 2241   4.162   2.029   7.354  0.7354  0.2022  1.4818
   17MOL0     H 2242   3.979   2.194   7.317  0.4655 -0.5527 -0.6614
   17MOL0     H 2243   4.016   2.269   7.476 -0.9021 -0.3124 -1.5711
   17MOL0     H 2244   3.939   2.094   7.600  0.3523 -1.7889 -0.4051
   17MOL0     H 2245   3.815   2.105   7.471  0.3975 -1.6408 -0.4235
   17MOL0     H 2246   3.797   1.892   7.296 -1.8781 -2.0898  0.3978
   17MOL0     H 2247   3.925   1.632   7.165  2.9519 -0.5854  0.7669
   17MOL0     H 2248   3.962   1.524   7.296 -0.2090 -1.0274 -0.1822
   17MOL0     H 2249   3.756   1.564   7.419  1.5090 -1.1578  0.2431
   17MOL0     H 2250   3.694   1.655   7.278 -1.2534  0.7317  3.4180
   17MOL0     H 2251   3.793   1.359   7.284  2.1739  0.0797 -1.2098
   17MOL0     H 2252   3.768   1.437   7.140  2.2341  1.1861  0.7281
   17MOL0     H 2253   3.563   1.329   7.169  1.9517 -2.0141  1.4724
   17MOL0     H 2254   3.514   1.496   7.222  1.4753  1.2253 -0.9141
   17MOL0     H 2255   3.477   1.247   7.589 -0.3822  0.6204  1.3567
   17MOL0     H 2256   3.245   1.211   7.682 -0.1498  3.2596  1.0896
   17MOL0     H 2257   2.765   1.398   7.638  0.3657 -0.6349  3.5948
   17MOL0     H 2258   2.556   1.341   7.728 -1.0672  0.5369 -0.9830
   17MOL0     H 2259   2.465   1.168   7.872  0.1113  0.5294 -0.0747
   17MOL0     H 2260   2.303   1.209   7.808  0.5763  0.4279  2.2989
   17MOL0     H 2261   2.401   0.932   7.836  1.4266 -0.1318  1.4001
   17MOL0     H 2262   2.340   1.022   7.979  0.2714  2.5633 -0.8901
   17MOL0     H 2263   2.123   1.055   7.855  1.7554  1.8923  1.6011
   17MOL0     H 2264   2.180   0.967   7.715  1.8356  1.5397 -0.3321
   17MOL0     H 2265   2.157   0.836   7.997 -0.7037  0.1486 -0.0140
   17MOL0     H 2266   2.211   0.758   7.856 -1.4792 -0.3440 -0.7156
   17MOL0     H 2267   1.949   0.896   7.878  2.2761  1.9391 -1.4581
   17MOL0     H 2268   1.964   0.719   7.916 -0.2587  0.3768  1.3217
   17MOL0     H 2269   2.012   0.851   7.644  2.5263 -0.4355 -1.0074
   17MOL0     H 2270   2.051   0.683   7.666 -0.3344  0.8592 -3.0333
   17MOL0     H 2271   1.771   0.819   7.717  0.5304  1.9249 -2.1462
   17MOL0     H 2272   1.799   0.660   7.762 -3.8555  0.5373 -1.9040
   17MOL0     H 2273   1.709   0.676   7.531  0.4392 -3.6870  1.2699
   17MOL0     H 2274   1.848   0.773   7.481  0.7704 -0.9433  1.9485
   17MOL0     H 2275   2.561   0.974   7.503 -0.1058  0.4590 -3.5834
   17MOL0     H 2276   2.804   1.042   7.414 -0.2235 -0.8057  0.5133
   17MOL0     H 2277   3.097   1.337   7.302  1.7936 -2.0223 -2.2302
   17MOL0     H 2278   3.316   1.378   7.217  1.8589 -0.5280 -0.3216
   17MOL0     H 2279   4.393   1.727   8.096 -0.2624  1.1455  2.6349
   17MOL0     H 2280   4.536   1.716   8.308  2.4891  3.5404  2.1605
   17MOL0     H 2281   4.866   1.812   8.513  3.0736  0.8222  0.2132
   17MOL0     H 2282   5.009   1.827   8.700 -0.1033  0.7438 -2.5362
   17MOL0     H 2283   5.173   1.581   9.043  2.3177  2.0066 -3.9103
   17MOL0     H 2284   5.118   1.451   8.946 -0.7608 -0.7218  0.8460
   17MOL0     H 2285   4.959   1.423   9.128 -0.6990  0.2260  1.5640
   17MOL0     H 2286   4.864   1.519   9.024  0.0308 -1.6662  0.3732
   17MOL0     H 2287   4.932   1.723   9.113 -3.1443 -0.2420  1.8395
   17MOL0     H 2288   5.045   1.655   9.217 -1.8631  1.3354 -0.7845
   17MOL0     H 2289   4.732   1.614   9.225  0.5856  0.2341 -1.8898
   17MOL0     H 2290   4.832   1.509   9.323 -4.0934  0.0897 -0.5494
   17MOL0     H 2291   4.793   1.852   9.536 -1.1968  0.5951 -0.6743
   17MOL0     H 2292   4.952   1.413   8.791  0.7198 -0.7158 -1.4067
   17MOL0     H 2293   4.919   1.286   8.618 -0.6591 -0.3956  0.4581
   17MOL0     H 2294   4.744   1.326   8.621  1.0201 -0.2506  1.5611
   17MOL0     H 2295   4.831   1.327   8.467  1.9612 -1.3780 -0.4078
   18MOL0     O 2296  10.890   4.417   4.913 -0.9629 -0.1820 -0.1118
   18MOL0     C 2297  10.809   4.402   4.818 -0.0715 -0.4755 -0.0176
   18MOL0     O 2298  10.851   4.356   4.694  0.7948  0.7936 -0.0036
   18MOL0     C 2299  10.984   4.328   4.680 -1.0069  0.1825 -0.1982
   18MOL0     C 2300  11.083   4.423   4.640  0.1789  0.2155  0.3756
   18MOL0     C 2301  11.216   4.389   4.619  0.3644  0.6043  0.4811
   18MOL0     C 2302  11.257   4.257   4.638  0.1244  0.2463 -0.0769
   18MOL0     O 2303  11.389   4.229   4.620 -0.4404 -1.0883  0.7107
   18MOL0     C 2304  11.460   4.156   4.718 -0.3636 -0.3080 -0.3290
   18MOL0     C 2305  11.500   4.019   4.669 -0.6847 -0.0328 -0.2927
   18MOL0     C 2306  11.594   4.002   4.541  0.6861  0.0518 -0.2041
   18MOL0     C 2307  11.734   4.053   4.561  0.0428  0.6153 -0.4765
   18MOL0     C 2308  11.818   3.983   4.463  0.3117 -0.1595 -0.4831
   18MOL0     C 2309  11.953   4.062   4.460  0.6704  0.5976 -0.1218
   18MOL0     C 2310  12.052   4.017   4.359  1.1319 -0.4671 -0.2163
   18MOL0     C 2311  12.190   4.065   4.388  0.1816 -0.1487  0.2367
   18MOL0     N 2312  12.278   4.001   4.288  0.1413 -0.1914  0.4438
   18MOL0     C 2313  12.407   3.964   4.314 -0.0871  0.1601  0.2231
   18MOL0     C 2314  12.446   3.914   4.198 -0.7022  0.6615  0.2840
   18MOL0     C 2315  12.592   3.885   4.166  0.8588  0.1035 -0.0911
   18MOL0     C 2316  12.608   3.780   4.049 -0.0286  1.0495 -0.5378
   18MOL0     C 2317  12.607   3.851   3.911  0.0421 -0.1030 -0.3105
   18MOL0     C 2318  12.734   3.935   3.874  0.8417  0.3129  0.9781
   18MOL0     O 2319  12.708   4.072   3.909  0.0805  0.1455  0.4394
   18MOL0     C 2320  12.818   4.158   3.917  0.0586  0.5825  0.5672
   18MOL0     C 2321  12.946   4.119   3.893  0.3630  0.7388 -0.2986
   18MOL0     C 2322  13.054   4.207   3.893  0.5891  0.9605  0.8292
   18MOL0     C 2323  13.042   4.340   3.942  0.2623 -0.8710  0.4038
   18MOL0     C 2324  13.155   4.424   3.934 -0.3818  0.3953  0.1528
   18MOL0     O 2325  13.250   4.377   3.845  0.3015 -0.3628  0.2603
   18MOL0     C 2326  13.377   4.428   3.844 -0.1889 -0.9530 -0.7826
   18MOL0     C 2327  13.484   4.344   3.854  0.3564 -0.2643  0.8558
   18MOL0     C 2328  13.609   4.398   3.849  0.1242 -0.7696 -1.0322
   18MOL0     C 2329  13.626   4.544   3.840 -0.0594 -0.1440  1.0942
   18MOL0     O 2330  13.758   4.583   3.824  1.1051 -0.2645  0.6440
   18MOL0     C 2331  13.786   4.723   3.854  0.2297  0.4288  0.1988
   18MOL0     C 2332  13.938   4.761   3.881  0.6980 -0.5013 -0.2022
   18MOL0     C 2333  13.991   4.659   3.980  0.3237 -0.6410  0.3332
   18MOL0     C 2334  14.138   4.684   4.006  0.6876 -0.8976 -0.4230
   18MOL0     C 2335  14.204   4.581   4.102  1.1424 -0.2770  0.9443
   18MOL0     C 2336  14.201   4.626   4.253  0.2571  1.4236 -0.0909
   18MOL0     C 2337  14.232   4.510   4.352 -0.4956 -1.2042 -0.4309
   18MOL0     C 2338  14.255   4.564   4.488 -0.3581  0.3716  0.4026
   18MOL0    Cl 2339  14.384   4.668   4.512 -0.5521  0.2164 -0.0956
   18MOL0     C 2340  13.513   4.626   3.821 -0.2023 -0.0052 -0.4099
   18MOL0     C 2341  13.391   4.569   3.822 -0.7767 -0.6580  0.2676
   18MOL0     O 2342  13.168   4.527   4.001 -0.3296 -0.0657 -0.2339
   18MOL0     C 2343  12.914   4.376   3.970 -0.2015  0.0738 -0.3707
   18MOL0     C 2344  12.801   4.292   3.965  0.5326 -0.6685  0.6031
   18MOL0     N 2345  12.342   3.906   4.106  0.5373  0.3220 -0.2367
   18MOL0     N 2346  12.238   3.959   4.164 -0.7909 -0.2235 -0.4572
   18MOL0     C 2347  11.159   4.167   4.681  0.8450  0.0535  0.8248
   18MOL0     C 2348  11.025   4.199   4.696 -0.5151  0.5228  0.6251
   18MOL0     C 2349  10.671   4.445   4.847  0.1881  0.1641 -0.6576
   18MOL0     C 2350  10.594   4.451   4.729  0.1774  0.7773  0.3017
   18MOL0     C 2351  10.463   4.497   4.734 -0.1044 -0.2723  0.1296
   18MOL0     C 2352  10.397   4.523   4.852  0.6372 -0.2973 -0.8283
   18MOL0     O 2353  10.268   4.567   4.836 -0.6031  0.4349  0.2842
   18MOL0     C 2354  10.187   4.560   4.956  0.2752 -0.1994 -0.8877
   18MOL0     C 2355  10.056   4.633   4.932  0.0906  0.4502 -0.1917
   18MOL0     C 2356   9.977   4.652   5.071 -0.0510 -0.2514  0.3470
   18MOL0     C 2357   9.849   4.733   5.039  0.0616 -1.2048  0.2136
   18MOL0     C 2358   9.876   4.867   4.990 -0.0506 -0.0670 -0.0596
   18MOL0     C 2359   9.897   4.984   4.961 -0.1563 -0.0656 -0.7075
   18MOL0     C 2360  10.466   4.486   4.972  0.1510  0.4755  0.0871
   18MOL0     C 2361  10.604   4.448   4.972  0.1295  1.0652  0.2149
   18MOL0     C 2362  10.664   4.418   5.105  0.0445 -0.4319 -0.2709
   18MOL0     H 2363  11.045   4.524   4.629  1.4284  0.6242 -0.3877
   18MOL0     H 2364  11.285   4.468   4.592  1.6708 -0.5174  0.4721
   18MOL0     H 2365  11.556   4.206   4.738 -1.0801  0.8784  0.2669
   18MOL0     H 2366  11.408   4.155   4.814  1.2228  0.7804  0.5939
   18MOL0     H 2367  11.410   3.961   4.647 -1.5982  1.0012  0.6198
   18MOL0     H 2368  11.544   3.962   4.751 -1.2396 -1.1230 -0.7324
   18MOL0     H 2369  11.544   4.061   4.464 -0.9935  2.4943  2.5392
   18MOL0     H 2370  11.587   3.896   4.513 -0.6220 -0.1337  0.7178
   18MOL0     H 2371  11.733   4.159   4.534  0.4295  1.4952  2.5795
   18MOL0     H 2372  11.764   4.043   4.666 -1.6347  0.5045  0.0203
   18MOL0     H 2373  11.841   3.881   4.496  1.9465  0.3011 -0.0799
   18MOL0     H 2374  11.768   3.971   4.367  0.7771 -1.8375 -0.5450
   18MOL0     H 2375  11.936   4.170   4.454 -2.0853  0.3653  1.6123
   18MOL0     H 2376  12.000   4.039   4.556 -1.8540  0.0727  1.0800
   18MOL0     H 2377  12.017   4.052   4.262 -1.0843  1.2708  1.1248
   18MOL0     H 2378  12.056   3.908   4.349  1.1604 -0.5906  1.0184
   18MOL0     H 2379  12.189   4.174   4.382 -1.6223 -0.0329  1.6322
   18MOL0     H 2380  12.228   4.042   4.488  0.8746  2.1071  0.5677
   18MOL0     H 2381  12.472   3.989   4.397 -0.1390  1.2199 -0.0405
   18MOL0     H 2382  12.634   3.981   4.135  0.7138  0.4029  0.6262
   18MOL0     H 2383  12.655   3.853   4.249 -0.0333 -1.4579  0.0341
   18MOL0     H 2384  12.707   3.734   4.058  1.1083  3.4851  0.4835
   18MOL0     H 2385  12.523   3.711   4.053 -0.4924  1.6460  0.3019
   18MOL0     H 2386  12.512   3.906   3.900  0.8646  0.8462 -3.6252
   18MOL0     H 2387  12.591   3.771   3.838  1.7040  0.4132 -1.2722
   18MOL0     H 2388  12.769   3.924   3.771  2.7142 -1.3455  1.7323
   18MOL0     H 2389  12.814   3.903   3.941  0.7671 -0.3508  0.7511
   18MOL0     H 2390  12.967   4.015   3.871  1.4774  0.4597  1.8642
   18MOL0     H 2391  13.150   4.161   3.873  1.1879  0.3281  4.4298
   18MOL0     H 2392  13.462   4.238   3.864  4.6506 -1.3615  0.4831
   18MOL0     H 2393  13.699   4.339   3.866  1.2200  1.6578  2.9419
   18MOL0     H 2394  13.756   4.778   3.764 -4.0627 -1.3310  0.3325
   18MOL0     H 2395  13.723   4.756   3.937  0.2341  3.0449 -0.7413
   18MOL0     H 2396  13.998   4.763   3.789  0.8949  1.0188 -0.0740
   18MOL0     H 2397  13.931   4.863   3.919  0.1053 -0.1087 -1.3206
   18MOL0     H 2398  13.931   4.660   4.072  2.2523  0.1072  1.6497
   18MOL0     H 2399  13.973   4.555   3.953 -2.3465  0.0711 -0.9838
   18MOL0     H 2400  14.130   4.782   4.055 -3.4024 -0.2921 -1.8584
   18MOL0     H 2401  14.188   4.690   3.909 -0.0197 -0.3780 -0.7702
   18MOL0     H 2402  14.307   4.566   4.067  1.4304 -1.1669  2.0950
   18MOL0     H 2403  14.149   4.489   4.081  3.1674 -1.2682 -0.2983
   18MOL0     H 2404  14.267   4.712   4.271  2.3530 -0.0800 -0.2468
   18MOL0     H 2405  14.098   4.655   4.274 -0.9758 -2.3095 -0.2943
   18MOL0     H 2406  14.311   4.445   4.314 -0.0564 -1.8903  1.5379
   18MOL0     H 2407  14.147   4.441   4.363  0.2141 -2.1350 -0.7085
   18MOL0     H 2408  14.176   4.623   4.535  1.0432  0.6528  2.5252
   18MOL0     H 2409  14.276   4.473   4.544 -1.2885 -1.1835 -1.6387
   18MOL0     H 2410  13.532   4.732   3.804 -0.9702  0.6458  2.3050
   18MOL0     H 2411  13.311   4.640   3.810  1.2613  1.8596  0.7416
   18MOL0     H 2412  12.890   4.477   4.003 -0.8840 -0.8713  2.3603
   18MOL0     H 2413  12.701   4.324   3.992  0.3745 -1.6696  1.2818
   18MOL0     H 2414  11.191   4.063   4.685  0.6096 -0.1506 -1.3018
   18MOL0     H 2415  10.946   4.126   4.712 -0.3822  0.5812  1.5560
   18MOL0     H 2416  10.643   4.439   4.633 -0.5241  1.4048 -0.1342
   18MOL0     H 2417  10.418   4.515   4.636 -0.7977 -2.7443 -0.0755
   18MOL0     H 2418  10.241   4.596   5.044  0.9119 -2.0084 -0.4854
   18MOL0     H 2419  10.163   4.457   4.987 -3.9296  0.1191 -2.4448
   18MOL0     H 2420   9.998   4.561   4.874  2.0761 -1.7615  0.4319
   18MOL0     H 2421  10.078   4.728   4.881  4.9110  0.9031  2.2114
   18MOL0     H 2422  10.043   4.706   5.139 -0.5278  0.8435 -0.0359
   18MOL0     H 2423   9.968   4.550   5.109  0.9253 -0.3064  0.4594
   18MOL0     H 2424   9.793   4.686   4.957 -2.4715  1.3851  0.3106
   18MOL0     H 2425   9.801   4.739   5.136 -0.3900 -2.6399  0.1038
   18MOL0     H 2426   9.892   5.087   4.933  0.5753  0.0991 -0.2565
   18MOL0     H 2427  10.410   4.485   5.065  2.9078  0.0118  1.8320
   18MOL0     H 2428  10.598   4.389   5.187  1.2779  1.7540  1.6303
   18MOL0     H 2429  10.738   4.338   5.093 -0.2206 -0.9825  1.4191
   18MOL0     H 2430  10.716   4.510   5.135  1.3296 -0.4001 -2.3775
   19MOL0     O 2431   9.758   5.792   4.072 -0.2655  0.9399  0.2077
   19MOL0     C 2432   9.672   5.871   4.031  0.3097  0.3473  0.4803
   19MOL0     O 2433   9.609   5.963   4.108 -0.0450 -0.1740 -0.2452
   19MOL0     C 2434   9.676   5.996   4.221  0.3600 -0.9525 -0.0015
   19MOL0     C 2435   9.713   6.131   4.243  0.1334 -0.3442  0.3221
   19MOL0     C 2436   9.763   6.166   4.371  0.1185 -0.1194  0.5499
   19MOL0     C 2437   9.789   6.070   4.466  0.2083  0.0893 -0.1593
   19MOL0     O 2438   9.841   6.123   4.582  0.3167  0.6639  0.0214
   19MOL0     C 2439   9.816   6.034   4.697  0.3759  0.3619  0.6035
   19MOL0     C 2440   9.852   6.107   4.825  0.2108 -0.5929  0.6131
   19MOL0     C 2441  10.002   6.128   4.845 -0.6510 -0.8380  0.1531
   19MOL0     C 2442  10.041   6.163   4.992 -0.0932 -0.0243 -0.3147
   19MOL0     C 2443  10.192   6.211   5.008  1.1355 -0.8698  0.1422
   19MOL0     C 2444  10.221   6.347   4.960  0.3307 -0.5379  1.5556
   19MOL0     C 2445  10.346   6.403   5.016 -0.0341  0.7840 -0.3667
   19MOL0     C 2446  10.482   6.353   4.965  0.3158 -0.0366 -0.2154
   19MOL0     N 2447  10.576   6.361   5.066 -0.2387 -0.1536  0.1581
   19MOL0     C 2448  10.596   6.275   5.169 -0.3228  0.7085  0.0929
   19MOL0     C 2449  10.708   6.317   5.237  0.1581 -1.3479  1.0796
   19MOL0     C 2450  10.754   6.270   5.373 -0.8128 -0.6033 -0.0064
   19MOL0     C 2451  10.899   6.216   5.358 -0.3896  0.5855  1.0255
   19MOL0     C 2452  10.941   6.151   5.502 -0.7367  0.2209  1.0154
   19MOL0     C 2453  11.097   6.159   5.540  0.8340  0.1432  0.1657
   19MOL0     O 2454  11.137   6.302   5.537 -0.1215 -0.2556 -0.2578
   19MOL0     C 2455  11.270   6.328   5.549 -0.6631 -0.1327 -0.6052
   19MOL0     C 2456  11.325   6.449   5.503  0.0617  0.7521  0.1898
   19MOL0     C 2457  11.460   6.482   5.513 -0.0518 -0.7422 -0.9283
   19MOL0     C 2458  11.551   6.390   5.572 -0.0627  0.0390  0.1767
   19MOL0     C 2459  11.691   6.417   5.577  0.4486 -0.3018  0.6560
   19MOL0     O 2460  11.757   6.359   5.677  0.2435 -0.1269 -0.0757
   19MOL0     C 2461  11.886   6.370   5.692  0.1883 -0.2609  0.0379
   19MOL0     C 2462  11.933   6.460   5.793 -0.9498  0.0267  0.2366
   19MOL0     C 2463  12.075   6.472   5.822  0.6170 -0.2336  0.4143
   19MOL0     C 2464  12.157   6.380   5.756  0.2034 -0.2747 -0.0960
   19MOL0     O 2465  12.288   6.393   5.791  0.2330 -0.3335 -1.1764
   19MOL0     C 2466  12.372   6.280   5.767  0.7374 -0.0615  0.5847
   19MOL0     C 2467  12.484   6.311   5.860  0.3030  0.6153 -0.7428
   19MOL0     C 2468  12.564   6.175   5.874 -1.4460 -0.5689  0.1755
   19MOL0     C 2469  12.709   6.210   5.904  0.3935 -0.5726  0.5547
   19MOL0     C 2470  12.812   6.095   5.879 -0.1254 -0.6655 -0.3140
   19MOL0     C 2471  12.781   5.968   5.964  0.1046 -0.6554 -0.1599
   19MOL0     C 2472  12.896   5.869   5.934  0.2954 -0.0045  0.6922
   19MOL0     C 2473  12.885   5.747   6.022  0.5678 -1.0930  0.4802
   19MOL0    Cl 2474  13.027   5.662   5.998  0.1580  0.2714  0.2363
   19MOL0     C 2475  12.109   6.292   5.652  0.0824 -0.1481  0.2622
   19MOL0     C 2476  11.974   6.284   5.627  0.4324  0.5388 -0.1639
   19MOL0     O 2477  11.749   6.468   5.478  0.2035 -0.4626  0.6445
   19MOL0     C 2478  11.503   6.269   5.618  0.1270  0.2997  0.5288
   19MOL0     C 2479  11.359   6.237   5.619  0.8167  0.4217  0.2973
   19MOL0     N 2480  10.755   6.429   5.170 -0.0753 -0.1976 -0.0230
   19MOL0     N 2481  10.673   6.459   5.073  0.2320  0.5433 -0.5332
   19MOL0     C 2482   9.765   5.936   4.440 -0.0985  0.0966 -0.2727
   19MOL0     C 2483   9.699   5.902   4.318 -1.0030 -0.4608 -0.4017
   19MOL0     C 2484   9.620   5.838   3.895  0.8258 -0.9741 -0.7105
   19MOL0     C 2485   9.505   5.903   3.855 -0.6599 -0.6031  0.4186
   19MOL0     C 2486   9.458   5.894   3.723  0.1785  0.0235  0.6298
   19MOL0     C 2487   9.528   5.821   3.622 -0.1817  0.5967 -0.2519
   19MOL0     O 2488   9.494   5.807   3.490 -0.2032  0.3392 -0.0514
   19MOL0     C 2489   9.390   5.885   3.434 -0.0716  0.7597 -0.1722
   19MOL0     C 2490   9.407   5.861   3.284  0.3673  0.1723  0.7338
   19MOL0     C 2491   9.547   5.889   3.226 -0.8101 -0.0272 -0.5058
   19MOL0     C 2492   9.632   5.772   3.181  0.0079  0.0517 -0.3074
   19MOL0     C 2493   9.761   5.826   3.151 -0.1100  0.4536  1.7690
   19MOL0     C 2494   9.860   5.875   3.097 -0.1748  0.1463 -0.7720
   19MOL0     C 2495   9.642   5.756   3.665  0.4722  0.1848  0.4174
   19MOL0     C 2496   9.683   5.763   3.797  0.2423 -0.4366 -0.4589
   19MOL0     C 2497   9.811   5.687   3.809  0.1055 -1.0331  0.0165
   19MOL0     H 2498   9.680   6.202   4.168 -1.8394 -0.8929  0.5902
   19MOL0     H 2499   9.781   6.272   4.389  0.2918  0.3134 -1.8477
   19MOL0     H 2500   9.709   6.013   4.692  0.3485  0.7674 -2.9579
   19MOL0     H 2501   9.867   5.938   4.709  1.7162  0.9155 -0.4674
   19MOL0     H 2502   9.803   6.057   4.909 -1.7722  1.4344  0.7577
   19MOL0     H 2503   9.794   6.200   4.823 -0.6609 -1.1273  0.3014
   19MOL0     H 2504  10.018   6.208   4.772  2.0156 -2.2645 -0.9696
   19MOL0     H 2505  10.065   6.046   4.810 -0.9190 -0.0265 -2.4113
   19MOL0     H 2506   9.979   6.249   5.020  0.0921  0.0131 -0.0150
   19MOL0     H 2507  10.022   6.070   5.046 -2.8497  0.1293 -0.8751
   19MOL0     H 2508  10.220   6.201   5.113  0.1749 -0.7583  0.4227
   19MOL0     H 2509  10.256   6.138   4.959  0.2348  0.3908 -3.2191
   19MOL0     H 2510  10.217   6.351   4.851 -4.0979  1.8385  1.6057
   19MOL0     H 2511  10.142   6.413   4.994 -0.8627 -1.0184 -0.1511
   19MOL0     H 2512  10.335   6.388   5.124 -0.5442 -1.2024 -0.6583
   19MOL0     H 2513  10.338   6.507   4.984  3.4916  1.1190 -0.5782
   19MOL0     H 2514  10.464   6.248   4.938 -2.8330  0.5318 -0.6930
   19MOL0     H 2515  10.496   6.416   4.877 -1.8072 -0.7574 -1.1318
   19MOL0     H 2516  10.539   6.187   5.200 -1.3965  1.5936  0.7052
   19MOL0     H 2517  10.747   6.359   5.437 -0.7072  0.8042 -1.8674
   19MOL0     H 2518  10.685   6.194   5.412 -3.2138  0.8610 -1.1350
   19MOL0     H 2519  10.898   6.138   5.281 -1.8898  2.6876 -1.2423
   19MOL0     H 2520  10.973   6.291   5.328 -0.0669  0.5972  1.8278
   19MOL0     H 2521  10.915   6.045   5.511  3.0263 -0.8065  1.8150
   19MOL0     H 2522  10.891   6.207   5.581 -1.2771 -3.4426  3.5335
   19MOL0     H 2523  11.163   6.093   5.482 -0.8182 -0.3878 -1.1701
   19MOL0     H 2524  11.113   6.130   5.645  0.8202  1.4703  0.5547
   19MOL0     H 2525  11.263   6.521   5.451  1.8968  0.0920 -3.2177
   19MOL0     H 2526  11.495   6.580   5.482  0.7188 -1.3500 -2.0264
   19MOL0     H 2527  11.869   6.531   5.845 -0.7136  1.9343 -1.9105
   19MOL0     H 2528  12.106   6.546   5.895 -2.0780  0.1022  1.3388
   19MOL0     H 2529  12.309   6.194   5.790  0.5147  0.0865  0.5290
   19MOL0     H 2530  12.409   6.267   5.665 -2.2952  0.4414 -0.6801
   19MOL0     H 2531  12.540   6.402   5.835  1.6917  0.0953  0.3289
   19MOL0     H 2532  12.451   6.323   5.964  4.0170 -2.3720  0.9829
   19MOL0     H 2533  12.531   6.108   5.954  1.0593 -1.1599  0.7893
   19MOL0     H 2534  12.562   6.118   5.781 -0.4517  0.6682 -0.6385
   19MOL0     H 2535  12.725   6.258   6.001  1.9169 -2.9994  1.5740
   19MOL0     H 2536  12.739   6.288   5.833 -0.8541 -0.1266  0.4894
   19MOL0     H 2537  12.911   6.136   5.900 -0.2391 -0.5252 -0.0438
   19MOL0     H 2538  12.810   6.063   5.775 -3.0599 -0.3148 -0.4493
   19MOL0     H 2539  12.791   5.988   6.071  0.3590 -0.3391 -0.2395
   19MOL0     H 2540  12.686   5.916   5.950  0.1059 -1.7574  3.0745
   19MOL0     H 2541  12.995   5.910   5.956  1.6596 -1.7554 -1.6551
   19MOL0     H 2542  12.900   5.844   5.828  0.1694  1.9115  0.1933
   19MOL0     H 2543  12.879   5.779   6.127  0.8098  0.9393 -0.0782
   19MOL0     H 2544  12.807   5.681   5.982 -1.1421  2.9759 -3.8090
   19MOL0     H 2545  12.183   6.236   5.595  0.3795  0.8037 -0.3227
   19MOL0     H 2546  11.935   6.222   5.547  1.0600 -2.0648  1.4029
   19MOL0     H 2547  11.571   6.197   5.663  0.5509 -0.5092 -1.3295
   19MOL0     H 2548  11.327   6.143   5.663 -0.1384  1.4395  1.9022
   19MOL0     H 2549   9.786   5.856   4.511  0.1313 -1.5393 -2.0868
   19MOL0     H 2550   9.666   5.799   4.303 -0.9264 -1.0941  2.9906
   19MOL0     H 2551   9.446   5.972   3.915  0.1976  0.3733  0.1871
   19MOL0     H 2552   9.369   5.949   3.692  2.6500  2.5948 -2.7365
   19MOL0     H 2553   9.408   5.990   3.458  3.9390  1.3002 -4.2222
   19MOL0     H 2554   9.296   5.853   3.481  0.4993 -1.8975 -0.6884
   19MOL0     H 2555   9.342   5.937   3.240 -0.5829  0.0757  1.9321
   19MOL0     H 2556   9.362   5.763   3.264  1.7462 -0.2332 -0.5900
   19MOL0     H 2557   9.606   5.941   3.301 -3.3550  1.4391  0.6057
   19MOL0     H 2558   9.532   5.944   3.132 -2.3367 -3.7123 -2.6498
   19MOL0     H 2559   9.630   5.696   3.259 -1.1707 -0.2619 -0.6314
   19MOL0     H 2560   9.597   5.719   3.091 -0.8556 -1.9970  1.1617
   19MOL0     H 2561   9.949   5.922   3.061 -0.1439 -0.4527 -1.5021
   19MOL0     H 2562   9.688   5.700   3.583 -1.3585 -2.5436  1.0911
   19MOL0     H 2563   9.815   5.620   3.722 -4.6530 -1.3350 -0.2230
   19MOL0     H 2564   9.894   5.758   3.802 -0.6437  0.1557  2.2455
   19MOL0     H 2565   9.827   5.621   3.895  2.3830 -3.2008 -1.9060
   20MOL0     O 2566   7.400   5.024   2.749 -0.0349  0.8474 -0.4766
   20MOL0     C 2567   7.417   5.113   2.670  0.0316 -0.3708  0.0269
   20MOL0     O 2568   7.534   5.181   2.651 -0.7688  0.4615  0.2754
   20MOL0     C 2569   7.654   5.140   2.700  0.3294  0.3618 -0.4539
   20MOL0     C 2570   7.704   5.014   2.681 -0.4840  0.7079 -0.6352
   20MOL0     C 2571   7.837   4.975   2.715 -0.4291 -1.1940  0.4031
   20MOL0     C 2572   7.923   5.075   2.775  0.1523 -0.4667  0.4980
   20MOL0     O 2573   8.058   5.045   2.812 -0.5379 -0.1293 -0.5106
   20MOL0     C 2574   8.114   4.917   2.795 -0.7116 -0.7993  0.9307
   20MOL0     C 2575   8.254   4.926   2.849  0.1511  0.0254  0.3895
   20MOL0     C 2576   8.341   4.798   2.815 -0.6304  0.1818 -0.2672
   20MOL0     C 2577   8.487   4.828   2.863 -0.1364 -0.0878  0.5564
   20MOL0     C 2578   8.583   4.710   2.842 -0.3068 -0.2317 -0.9015
   20MOL0     C 2579   8.720   4.740   2.886  0.4338 -0.9172  0.5298
   20MOL0     C 2580   8.823   4.660   2.809  0.1970 -0.1744  0.0945
   20MOL0     C 2581   8.968   4.696   2.852 -0.6630 -0.2875  0.0492
   20MOL0     N 2582   9.066   4.610   2.806  0.6531  0.6552  0.5574
   20MOL0     C 2583   9.106   4.498   2.885  0.5333 -0.6667  0.8908
   20MOL0     C 2584   9.220   4.469   2.823 -0.1161 -0.0923  0.3365
   20MOL0     C 2585   9.313   4.364   2.870 -0.1193 -0.3805 -0.4850
   20MOL0     C 2586   9.291   4.222   2.807 -0.0197  0.6649 -0.1002
   20MOL0     C 2587   9.408   4.129   2.836 -0.0612 -1.2037  0.1082
   20MOL0     C 2588   9.447   4.130   2.983 -0.0934  0.6156 -1.0052
   20MOL0     O 2589   9.528   4.018   3.022 -1.1569 -0.0130  0.9492
   20MOL0     C 2590   9.665   4.035   3.031  0.8364 -0.1317  0.3614
   20MOL0     C 2591   9.736   4.122   2.942  0.3855  0.2959 -0.4880
   20MOL0     C 2592   9.875   4.136   2.966  0.3379 -0.2205  0.0111
   20MOL0     C 2593   9.945   4.068   3.062 -0.2270 -0.1225  0.8097
   20MOL0     C 2594  10.085   4.083   3.086 -0.7908 -0.4473 -0.3549
   20MOL0     O 2595  10.138   3.981   3.161  0.5953 -0.4632 -0.2127
   20MOL0     C 2596  10.269   3.984   3.189 -1.2136 -0.1066  0.2906
   20MOL0     C 2597  10.310   3.965   3.321 -1.0297  0.0625  0.0024
   20MOL0     C 2598  10.449   3.970   3.355 -0.1623  0.0902 -0.2620
   20MOL0     C 2599  10.543   3.998   3.255 -0.8674  0.0960  0.1165
   20MOL0     O 2600  10.666   4.032   3.299 -0.4014 -0.5515  0.0831
   20MOL0     C 2601  10.764   3.929   3.293 -0.5458 -0.5247 -0.7454
   20MOL0     C 2602  10.899   3.984   3.227  0.4598 -0.8609  0.2981
   20MOL0     C 2603  10.986   4.056   3.332 -1.3300  0.0514 -0.4385
   20MOL0     C 2604  11.070   3.960   3.411  0.0395  0.1253 -0.6408
   20MOL0     C 2605  11.172   4.040   3.485 -0.0048  0.0313  0.1099
   20MOL0     C 2606  11.253   3.959   3.591  0.7870 -0.4906  0.3029
   20MOL0     C 2607  11.179   3.892   3.709  0.1383 -0.0940 -0.0263
   20MOL0     C 2608  11.115   4.008   3.793  0.3555  0.7131  0.7463
   20MOL0    Cl 2609  10.950   4.027   3.746  0.2525  0.2254 -0.1270
   20MOL0     C 2610  10.496   4.013   3.121 -0.1887  0.3275  0.4095
   20MOL0     C 2611  10.365   3.996   3.089 -0.5983  0.1316  0.0991
   20MOL0     O 2612  10.137   4.192   3.055 -0.1900 -0.0450  0.4216
   20MOL0     C 2613   9.871   3.974   3.141 -0.3161  0.1542 -0.1145
   20MOL0     C 2614   9.731   3.950   3.120  0.1130 -0.2290  0.2139
   20MOL0     N 2615   9.248   4.551   2.710  0.7281 -0.5159  0.3385
   20MOL0     N 2616   9.157   4.642   2.712  0.3205  0.4185  0.4480
   20MOL0     C 2617   7.869   5.198   2.809 -0.1916 -0.2599 -0.1520
   20MOL0     C 2618   7.738   5.229   2.773  0.2309 -0.3299  0.4567
   20MOL0     C 2619   7.303   5.139   2.570  0.0936 -0.4978 -0.4988
   20MOL0     C 2620   7.318   5.239   2.479  0.3272  0.5621  1.0233
   20MOL0     C 2621   7.217   5.266   2.388 -0.6682  0.3301 -0.0234
   20MOL0     C 2622   7.095   5.195   2.390 -0.0401  0.3287 -0.1939
   20MOL0     O 2623   6.986   5.213   2.309 -0.4174  0.0037 -0.5278
   20MOL0     C 2624   7.006   5.303   2.200  0.3786  0.1192 -0.2585
   20MOL0     C 2625   7.049   5.210   2.085 -0.4564 -0.3457 -0.2841
   20MOL0     C 2626   6.939   5.158   1.998 -1.0324 -0.1392  0.2493
   20MOL0     C 2627   6.851   5.059   2.068 -0.4274 -0.4404 -0.4158
   20MOL0     C 2628   6.781   4.989   1.968  0.5812  0.9375  0.2327
   20MOL0     C 2629   6.704   4.966   1.878 -0.3179  0.7051 -0.9724
   20MOL0     C 2630   7.078   5.095   2.484  0.6106  0.7647  0.0436
   20MOL0     C 2631   7.179   5.062   2.572 -0.1161 -0.1547 -0.3485
   20MOL0     C 2632   7.146   4.949   2.666 -0.5014 -0.2934 -0.1828
   20MOL0     H 2633   7.646   4.936   2.635  0.3811 -1.9923  2.4830
   20MOL0     H 2634   7.878   4.877   2.694  1.3861  0.2473 -3.9470
   20MOL0     H 2635   8.076   4.835   2.857  0.2550 -0.6792  1.7034
   20MOL0     H 2636   8.121   4.895   2.687  0.0403 -1.3779  1.0905
   20MOL0     H 2637   8.264   4.925   2.958  2.6286 -0.7349  0.2133
   20MOL0     H 2638   8.295   5.020   2.808 -2.5816  0.5512 -1.3727
   20MOL0     H 2639   8.331   4.769   2.710  0.3085  0.5976 -0.4826
   20MOL0     H 2640   8.297   4.719   2.877  0.2529 -2.2065 -2.4982
   20MOL0     H 2641   8.523   4.922   2.818 -1.1673  0.3820  0.6858
   20MOL0     H 2642   8.479   4.864   2.966 -1.4295  0.4155  0.2954
   20MOL0     H 2643   8.561   4.626   2.908  0.5202  0.1304 -0.1398
   20MOL0     H 2644   8.572   4.668   2.742  0.9584 -1.3741 -0.5934
   20MOL0     H 2645   8.748   4.843   2.865  1.5178 -1.0520  1.2368
   20MOL0     H 2646   8.723   4.725   2.994  0.8075 -2.2278  0.3579
   20MOL0     H 2647   8.824   4.695   2.705 -1.3410  0.6574  0.3117
   20MOL0     H 2648   8.808   4.552   2.814 -1.0980 -0.0188 -0.0597
   20MOL0     H 2649   8.978   4.800   2.818 -2.2979  0.2169  0.9888
   20MOL0     H 2650   8.982   4.695   2.960  2.0689  0.2279 -0.2258
   20MOL0     H 2651   9.069   4.442   2.970  2.9925 -1.7473  1.3356
   20MOL0     H 2652   9.416   4.390   2.847  1.1677 -1.9792  2.7744
   20MOL0     H 2653   9.304   4.351   2.979  0.1219  1.1810 -0.2592
   20MOL0     H 2654   9.205   4.178   2.860  2.4279 -2.3506  1.7312
   20MOL0     H 2655   9.275   4.230   2.699  4.3477 -0.1304 -1.0082
   20MOL0     H 2656   9.489   4.161   2.770 -1.5230 -2.4117 -2.4639
   20MOL0     H 2657   9.374   4.032   2.798 -1.0076 -0.5576 -0.7779
   20MOL0     H 2658   9.351   4.120   3.035  1.3037 -0.8565  1.4803
   20MOL0     H 2659   9.488   4.225   3.020  0.6933  0.1752 -0.7124
   20MOL0     H 2660   9.678   4.173   2.866 -1.8579  1.1127  1.6073
   20MOL0     H 2661   9.907   4.208   2.892 -1.4850  0.7569  0.1058
   20MOL0     H 2662  10.240   3.954   3.402  0.2976  1.2541  1.3698
   20MOL0     H 2663  10.471   3.980   3.461 -0.9038  3.2075 -0.3156
   20MOL0     H 2664  10.785   3.889   3.393  0.7863 -2.5123 -1.7567
   20MOL0     H 2665  10.738   3.850   3.223  1.3836 -0.3975 -1.6685
   20MOL0     H 2666  10.958   3.901   3.187 -0.6193 -1.6526  0.3194
   20MOL0     H 2667  10.864   4.055   3.152  1.2148 -1.7422 -0.9109
   20MOL0     H 2668  11.050   4.124   3.276  0.1424 -0.4055  0.6338
   20MOL0     H 2669  10.924   4.112   3.402  1.0122  0.3003  1.5550
   20MOL0     H 2670  11.127   3.893   3.346  1.0986  0.0464  0.3384
   20MOL0     H 2671  11.006   3.901   3.477  0.0424  2.0194  1.1358
   20MOL0     H 2672  11.123   4.126   3.531 -1.4909 -1.4166  1.3629
   20MOL0     H 2673  11.247   4.076   3.414 -1.6468  3.5394 -0.0482
   20MOL0     H 2674  11.308   3.886   3.532 -1.2725 -1.6829 -0.2399
   20MOL0     H 2675  11.339   4.017   3.625  1.7082 -1.0553 -0.9839
   20MOL0     H 2676  11.255   3.833   3.762 -0.8244 -0.6357  0.7825
   20MOL0     H 2677  11.099   3.827   3.673  0.7891 -1.4288  0.8640
   20MOL0     H 2678  11.115   3.983   3.899  1.5575 -1.2985  0.3275
   20MOL0     H 2679  11.182   4.094   3.782  0.5000  0.3285 -2.1176
   20MOL0     H 2680  10.560   4.051   3.042 -1.0808 -1.1981 -1.1220
   20MOL0     H 2681  10.341   4.002   2.983 -1.5602  0.5922  0.3353
   20MOL0     H 2682   9.922   3.915   3.216 -2.9667 -2.0142  0.1151
   20MOL0     H 2683   9.689   3.868   3.177  1.1790 -0.3658  0.8318
   20MOL0     H 2684   7.930   5.274   2.856  1.5138 -0.2419 -2.2516
   20MOL0     H 2685   7.710   5.333   2.786  0.8543 -0.1755  0.6096
   20MOL0     H 2686   7.408   5.297   2.464  0.4344  0.2132  0.2530
   20MOL0     H 2687   7.234   5.349   2.320 -0.9023 -0.4935 -1.1161
   20MOL0     H 2688   7.080   5.381   2.218  2.3827 -1.8404  0.5067
   20MOL0     H 2689   6.911   5.345   2.167  1.2577  0.3212 -2.7969
   20MOL0     H 2690   7.110   5.127   2.121  0.3367  1.0075  1.6341
   20MOL0     H 2691   7.120   5.274   2.031  0.1260 -0.2144  0.6195
   20MOL0     H 2692   6.996   5.115   1.915  1.9487 -3.3345  3.6061
   20MOL0     H 2693   6.879   5.246   1.972  0.5784  1.3836  1.4014
   20MOL0     H 2694   6.908   4.990   2.131  1.3070  0.2595 -1.1702
   20MOL0     H 2695   6.787   5.123   2.131  2.4519  3.6230 -1.2698
   20MOL0     H 2696   6.639   4.935   1.799  2.1909 -3.6055 -1.7243
   20MOL0     H 2697   6.993   5.028   2.486  1.3028 -0.1342  0.4698
   20MOL0     H 2698   7.209   4.862   2.645  0.3432 -0.1473  1.4971
   20MOL0     H 2699   7.152   4.986   2.770  2.6463 -0.3163 -0.2534
   20MOL0     H 2700   7.046   4.909   2.650 -0.1666 -0.7572 -1.1406
   21MOL0     O 2701   3.600   1.523  11.185 -0.2713 -0.2518 -0.1197
   21MOL0     C 2702   3.644   1.632  11.223 -0.0209 -0.8383 -1.2713
   21MOL0     O 2703   3.564   1.742  11.256 -0.4863  0.3012  0.6618
   21MOL0     C 2704   3.427   1.722  11.241 -0.5317  0.6825  0.3583
   21MOL0     C 2705   3.348   1.748  11.348 -0.5189  0.0354 -0.1583
   21MOL0     C 2706   3.209   1.727  11.340 -1.1884  0.1664  0.1738
   21MOL0     C 2707   3.148   1.672  11.223 -0.4261 -0.7175  0.7732
   21MOL0     O 2708   3.020   1.655  11.219 -0.2484  0.4653  0.4097
   21MOL0     C 2709   2.939   1.754  11.277  0.9314 -0.9997  0.2770
   21MOL0     C 2710   2.811   1.742  11.202 -0.1472  0.0346  0.2922
   21MOL0     C 2711   2.716   1.859  11.239 -1.1678  0.8265  0.3624
   21MOL0     C 2712   2.576   1.846  11.174  0.6917 -0.7360  0.2025
   21MOL0     C 2713   2.463   1.913  11.259 -0.1342  0.8662 -0.3299
   21MOL0     C 2714   2.327   1.854  11.215 -0.1309  0.2480  0.7330
   21MOL0     C 2715   2.206   1.911  11.289  0.1029  0.1423 -1.2159
   21MOL0     C 2716   2.096   1.809  11.323 -0.3309 -0.2680  0.9374
   21MOL0     N 2717   2.003   1.867  11.424 -0.4467  0.1827  0.3203
   21MOL0     C 2718   1.944   1.992  11.423 -0.4099 -0.1047 -0.5900
   21MOL0     C 2719   1.874   1.993  11.541 -0.9736  0.4152 -0.3679
   21MOL0     C 2720   1.782   2.100  11.586  0.1581 -0.6943  0.3121
   21MOL0     C 2721   1.679   2.049  11.692  0.8891 -0.3385  0.3583
   21MOL0     C 2722   1.638   2.157  11.778 -0.2431  0.0973  0.0155
   21MOL0     C 2723   1.519   2.125  11.868  1.1405  0.7689  0.0613
   21MOL0     O 2724   1.485   2.233  11.945 -0.6682  0.3850 -0.2968
   21MOL0     C 2725   1.380   2.223  12.030 -0.7586 -1.0011  0.2598
   21MOL0     C 2726   1.277   2.130  12.025 -0.4545  0.7422 -0.3699
   21MOL0     C 2727   1.168   2.134  12.116  1.0501 -0.0323  0.6811
   21MOL0     C 2728   1.157   2.232  12.217 -0.2463 -0.7076  0.1467
   21MOL0     C 2729   1.041   2.223  12.313 -0.1977 -0.2707 -0.6280
   21MOL0     O 2730   0.988   2.096  12.332  0.7867 -0.5097 -0.4437
   21MOL0     C 2731   0.863   2.080  12.390  0.0756 -0.0329 -0.3387
   21MOL0     C 2732   0.760   2.172  12.363 -0.0743  0.3682  0.4719
   21MOL0     C 2733   0.631   2.141  12.397 -0.4347 -0.4953 -0.1767
   21MOL0     C 2734   0.599   2.013  12.448 -0.3818  0.4068  0.3886
   21MOL0     O 2735   0.480   1.964  12.482  0.0166 -0.4689 -0.2135
   21MOL0     C 2736   0.372   2.054  12.500 -0.1254  0.9956  0.1265
   21MOL0     C 2737   0.247   1.967  12.544  0.5484  0.3275  0.2479
   21MOL0     C 2738   0.116   2.039  12.534  0.6912  0.7329 -1.0473
   21MOL0     C 2739  -0.014   1.944  12.528  0.1773 -0.8505 -0.2892
   21MOL0     C 2740  -0.145   2.019  12.491  0.1613 -0.3288 -0.1337
   21MOL0     C 2741  -0.259   1.915  12.516  0.4809  0.3275  0.1359
   21MOL0     C 2742  -0.308   1.849  12.384 -0.6704 -0.0860 -0.2205
   21MOL0     C 2743  -0.448   1.790  12.383 -0.0100 -0.3733 -0.4669
   21MOL0    Cl 2744  -0.470   1.663  12.516 -0.1195 -0.5282  0.0831
   21MOL0     C 2745   0.700   1.930  12.478  1.2928  0.5826 -0.0481
   21MOL0     C 2746   0.835   1.964  12.445  0.3508  0.5216  0.4815
   21MOL0     O 2747   1.004   2.328  12.376 -0.2455 -0.1206  0.1333
   21MOL0     C 2748   1.260   2.328  12.218 -0.3635  0.4851  0.5616
   21MOL0     C 2749   1.369   2.326  12.125 -0.2901  0.5308  0.3892
   21MOL0     N 2750   1.908   1.881  11.617 -0.3552  0.4162  0.2403
   21MOL0     N 2751   1.993   1.808  11.545 -0.5621 -0.0804 -0.6272
   21MOL0     C 2752   3.230   1.650  11.113  0.3376 -0.2769 -1.1547
   21MOL0     C 2753   3.365   1.680  11.119  0.8996  0.7001  0.5708
   21MOL0     C 2754   3.787   1.638  11.274 -0.5312 -0.2638  0.1513
   21MOL0     C 2755   3.825   1.746  11.359  0.5499  0.6216  1.2370
   21MOL0     C 2756   3.951   1.776  11.405  0.0318 -0.0511  0.1682
   21MOL0     C 2757   4.055   1.691  11.367 -0.1677  0.9696  0.0913
   21MOL0     O 2758   4.185   1.720  11.407  0.0391 -0.3797  0.0948
   21MOL0     C 2759   4.300   1.665  11.344  1.1689  0.7213 -0.0129
   21MOL0     C 2760   4.420   1.698  11.419 -0.0804 -0.1730  0.2213
   21MOL0     C 2761   4.540   1.631  11.344  1.3221  0.3923  0.1249
   21MOL0     C 2762   4.661   1.648  11.431  0.2354 -0.4719  0.5192
   21MOL0     C 2763   4.701   1.791  11.429  0.2839  0.4037  0.0683
   21MOL0     C 2764   4.747   1.900  11.418 -0.1537  0.4833 -0.2115
   21MOL0     C 2765   4.021   1.577  11.293 -0.5396 -0.1831  0.6470
   21MOL0     C 2766   3.891   1.549  11.245 -1.1778  0.1117  1.0827
   21MOL0     C 2767   3.875   1.415  11.176 -0.8177  0.7934 -0.6153
   21MOL0     H 2768   3.397   1.790  11.436  0.3373  2.3678 -1.6393
   21MOL0     H 2769   3.154   1.742  11.432 -0.4337  1.7708  0.3994
   21MOL0     H 2770   2.916   1.728  11.381 -2.0146  1.5748  0.4067
   21MOL0     H 2771   2.984   1.853  11.269  1.0494 -0.8310  2.4324
   21MOL0     H 2772   2.762   1.649  11.229 -0.1258  0.7415  3.0705
   21MOL0     H 2773   2.833   1.748  11.095  1.5491 -1.8766  0.4874
   21MOL0     H 2774   2.758   1.959  11.222  0.3801  0.2641  0.7457
   21MOL0     H 2775   2.705   1.867  11.348  1.8156 -0.7705  0.8947
   21MOL0     H 2776   2.583   1.894  11.077  3.1108 -0.3628  0.4916
   21MOL0     H 2777   2.553   1.741  11.151 -0.1841 -0.2616 -1.2038
   21MOL0     H 2778   2.483   1.905  11.367  0.3903 -0.4842 -0.5091
   21MOL0     H 2779   2.460   2.021  11.240  2.4226  0.7920 -1.6049
   21MOL0     H 2780   2.316   1.880  11.109  1.9760  2.3515  0.9397
   21MOL0     H 2781   2.331   1.745  11.221 -2.1160 -0.0417 -1.5220
   21MOL0     H 2782   2.167   1.994  11.229  0.5839 -0.2586 -2.0930
   21MOL0     H 2783   2.244   1.969  11.374 -3.5287  0.4831  0.3659
   21MOL0     H 2784   2.051   1.793  11.225 -0.1883  1.0814  0.6368
   21MOL0     H 2785   2.132   1.713  11.363 -2.1802 -0.6356  1.8336
   21MOL0     H 2786   1.946   2.077  11.356 -0.3973 -0.6105 -1.2393
   21MOL0     H 2787   1.850   2.177  11.622  0.7522 -0.7846 -0.5822
   21MOL0     H 2788   1.724   2.144  11.504  0.8729 -1.2578 -0.5218
   21MOL0     H 2789   1.591   1.999  11.651 -1.4136 -0.8824  5.3160
   21MOL0     H 2790   1.722   1.976  11.761 -2.6401 -0.7604  2.2975
   21MOL0     H 2791   1.623   2.250  11.723  1.8956 -0.2492 -1.2722
   21MOL0     H 2792   1.726   2.180  11.838  0.4168 -1.4525 -0.3058
   21MOL0     H 2793   1.554   2.036  11.921  3.7641  1.9175  0.4602
   21MOL0     H 2794   1.431   2.094  11.811  0.8711 -0.0861  0.9131
   21MOL0     H 2795   1.282   2.051  11.949 -1.2318 -0.1746  0.5028
   21MOL0     H 2796   1.084   2.066  12.100  0.7628  0.6569 -0.9388
   21MOL0     H 2797   0.769   2.263  12.304  1.1436 -0.0452  0.0066
   21MOL0     H 2798   0.556   2.211  12.361 -0.0615 -1.2892 -2.6589
   21MOL0     H 2799   0.399   2.120  12.583  2.9786 -0.5688  0.5005
   21MOL0     H 2800   0.358   2.106  12.405  5.1217 -0.3406 -1.7103
   21MOL0     H 2801   0.251   1.875  12.485  1.0454  0.1817  0.5003
   21MOL0     H 2802   0.260   1.929  12.646 -3.4398 -1.6866  0.1813
   21MOL0     H 2803   0.100   2.098  12.625 -1.1121 -2.6827  1.0506
   21MOL0     H 2804   0.124   2.109  12.449  0.6956  1.7568 -0.2261
   21MOL0     H 2805  -0.032   1.894  12.624 -2.7258 -2.5979 -1.6257
   21MOL0     H 2806  -0.002   1.871  12.448 -0.1601 -2.6461  1.2409
   21MOL0     H 2807  -0.143   2.068  12.393 -0.2489  0.1223  0.0809
   21MOL0     H 2808  -0.147   2.103  12.560  1.7572 -0.5401  0.2121
   21MOL0     H 2809  -0.228   1.840  12.590 -0.9654 -1.3489 -0.8567
   21MOL0     H 2810  -0.348   1.961  12.559 -0.3908 -1.7190  0.6632
   21MOL0     H 2811  -0.234   1.771  12.365 -1.1121 -0.9897  1.4809
   21MOL0     H 2812  -0.301   1.926  12.307 -1.3902 -0.1746 -0.3830
   21MOL0     H 2813  -0.527   1.862  12.404 -0.9143 -1.8537  1.5301
   21MOL0     H 2814  -0.454   1.736  12.288 -0.5354 -0.5925 -0.3129
   21MOL0     H 2815   0.688   1.830  12.517  1.3926 -0.6705 -2.9984
   21MOL0     H 2816   0.906   1.888  12.476 -0.2968 -0.7592 -1.0453
   21MOL0     H 2817   1.254   2.419  12.277  2.6877 -0.0832  1.9261
   21MOL0     H 2818   1.444   2.405  12.123  2.0341 -1.5563 -0.7456
   21MOL0     H 2819   3.178   1.606  11.028 -0.2638 -0.8230 -0.5169
   21MOL0     H 2820   3.417   1.661  11.026  1.2822  0.4418  0.8334
   21MOL0     H 2821   3.747   1.816  11.389 -0.1471 -0.0360  0.9974
   21MOL0     H 2822   3.971   1.865  11.463  0.0972  0.0320  0.0192
   21MOL0     H 2823   4.307   1.696  11.239 -1.0457 -0.1179 -0.4460
   21MOL0     H 2824   4.280   1.558  11.357 -2.7296  1.0528 -2.0392
   21MOL0     H 2825   4.414   1.657  11.521 -0.5735 -2.0968 -0.5285
   21MOL0     H 2826   4.426   1.806  11.408 -1.9449 -0.0215  0.4347
   21MOL0     H 2827   4.558   1.688  11.252 -0.3364 -0.0899 -0.5257
   21MOL0     H 2828   4.524   1.526  11.321  1.5342  0.1384  1.1068
   21MOL0     H 2829   4.651   1.613  11.534  1.2391 -0.5852  0.5839
   21MOL0     H 2830   4.739   1.586  11.386 -0.4421  0.8304 -2.7991
   21MOL0     H 2831   4.782   2.001  11.413 -1.3522  0.8767 -1.7405
   21MOL0     H 2832   4.095   1.499  11.276 -0.8425 -0.3239 -0.0640
   21MOL0     H 2833   3.970   1.364  11.197 -1.0372  0.1986 -1.0566
   21MOL0     H 2834   3.794   1.360  11.226 -0.2636  0.9233  0.4699
   21MOL0     H 2835   3.857   1.422  11.069  0.1251 -1.1835 -0.9452
   22MOL0     O 2836   9.800   9.614   5.725  0.0120  0.5278  0.2230
   22MOL0     C 2837   9.815   9.624   5.606  0.6223  0.7625 -0.8898
   22MOL0     O 2838   9.933   9.613   5.542  0.0203  0.6028 -0.2977
   22MOL0     C 2839  10.041   9.552   5.601 -1.5565  0.6808 -0.3215
   22MOL0     C 2840  10.164   9.572   5.536  0.3237 -0.2517  0.5417
   22MOL0     C 2841  10.290   9.516   5.578  0.4680 -1.0240  0.3371
   22MOL0     C 2842  10.282   9.428   5.681 -0.1795  0.5927  0.5889
   22MOL0     O 2843  10.413   9.372   5.705 -0.5252  0.3287 -0.0369
   22MOL0     C 2844  10.439   9.265   5.788  0.2056 -0.0220 -0.3222
   22MOL0     C 2845  10.553   9.178   5.728  0.3138 -0.3347  0.1965
   22MOL0     C 2846  10.677   9.242   5.761 -0.1502 -0.3828  0.9439
   22MOL0     C 2847  10.734   9.187   5.892 -0.1120 -0.0048 -0.4611
   22MOL0     C 2848  10.843   9.270   5.961 -0.0818 -0.1712  0.4456
   22MOL0     C 2849  10.979   9.292   5.874  1.1354 -0.1407  0.0766
   22MOL0     C 2850  11.102   9.344   5.957 -0.1247 -0.7141  0.7042
   22MOL0     C 2851  11.171   9.241   6.052 -0.2365  0.4954  0.5275
   22MOL0     N 2852  11.248   9.312   6.161 -0.0018  0.5545 -0.2013
   22MOL0     C 2853  11.369   9.365   6.149  0.5048  0.2956 -0.6588
   22MOL0     C 2854  11.414   9.399   6.267  0.9023 -0.2855 -0.1230
   22MOL0     C 2855  11.538   9.477   6.298  0.1054 -0.3991  0.2063
   22MOL0     C 2856  11.504   9.621   6.339  0.1873 -0.3047  0.2170
   22MOL0     C 2857  11.627   9.715   6.355  0.0133 -0.1063  0.1063
   22MOL0     C 2858  11.689   9.703   6.487  0.9219  0.2154  0.4568
   22MOL0     O 2859  11.761   9.580   6.508 -0.0966 -0.2853  0.0396
   22MOL0     C 2860  11.865   9.563   6.598 -0.6445 -0.4582  0.4888
   22MOL0     C 2861  11.872   9.608   6.730  0.6684 -0.6507 -0.2108
   22MOL0     C 2862  11.979   9.570   6.808  1.1584 -0.0114  0.0899
   22MOL0     C 2863  12.082   9.493   6.763  0.2320  0.5589  0.6141
   22MOL0     C 2864  12.198   9.442   6.853 -0.2158 -0.7540  0.3596
   22MOL0     O 2865  12.188   9.471   6.990  0.0010 -0.2668  0.2802
   22MOL0     C 2866  12.295   9.445   7.073  0.7331  0.0771 -1.0138
   22MOL0     C 2867  12.416   9.516   7.071 -0.1430  0.3891 -0.1363
   22MOL0     C 2868  12.516   9.492   7.162  0.1017  0.6627 -0.5499
   22MOL0     C 2869  12.507   9.392   7.265 -0.3575 -0.6007 -0.0814
   22MOL0     O 2870  12.615   9.347   7.344  0.1109 -0.3913  0.1426
   22MOL0     C 2871  12.726   9.429   7.364 -0.0536 -0.0983  0.1545
   22MOL0     C 2872  12.805   9.374   7.474 -0.1453 -0.4079 -0.6867
   22MOL0     C 2873  12.893   9.483   7.515  0.0307 -0.2756  0.1232
   22MOL0     C 2874  12.969   9.442   7.642 -0.3483 -0.7119 -0.9813
   22MOL0     C 2875  13.031   9.559   7.694 -0.1469  0.1433 -0.5385
   22MOL0     C 2876  13.140   9.525   7.799 -0.1733 -0.3408 -0.6593
   22MOL0     C 2877  13.189   9.667   7.851 -0.4550 -0.1280 -0.3564
   22MOL0     C 2878  13.294   9.642   7.965  0.6459  0.0132 -0.2925
   22MOL0    Cl 2879  13.384   9.786   8.007  0.0156 -0.5046 -0.2899
   22MOL0     C 2880  12.395   9.311   7.255  0.7400 -0.7913 -0.6442
   22MOL0     C 2881  12.281   9.351   7.173 -1.0580  1.5675 -0.1163
   22MOL0     O 2882  12.285   9.375   6.805 -0.3894  0.5471  0.3709
   22MOL0     C 2883  12.080   9.446   6.630  0.0840  0.5295 -0.0942
   22MOL0     C 2884  11.962   9.475   6.551 -0.0377 -0.0073  0.7499
   22MOL0     N 2885  11.313   9.366   6.359 -0.1303 -0.2039 -0.0752
   22MOL0     N 2886  11.218   9.302   6.296 -0.4793  0.0804  0.2181
   22MOL0     C 2887  10.161   9.400   5.747 -0.9673 -0.2200  0.2939
   22MOL0     C 2888  10.046   9.462   5.709  0.0526 -0.2823 -0.7602
   22MOL0     C 2889   9.691   9.649   5.536  0.1068 -0.2079  1.3256
   22MOL0     C 2890   9.678   9.756   5.443  0.2119 -0.3493 -0.5029
   22MOL0     C 2891   9.562   9.780   5.369 -0.3571  0.2323  0.4932
   22MOL0     C 2892   9.449   9.703   5.383 -0.7260 -0.3551  0.6106
   22MOL0     O 2893   9.341   9.703   5.296  0.4451 -0.7514  0.1720
   22MOL0     C 2894   9.371   9.662   5.162 -0.7622  0.3826  0.3165
   22MOL0     C 2895   9.332   9.515   5.124 -0.3950  0.2314 -0.6310
   22MOL0     C 2896   9.188   9.489   5.078  0.1337  0.1454  0.0290
   22MOL0     C 2897   9.088   9.517   5.176  0.2501  0.1370 -0.4447
   22MOL0     C 2898   9.110   9.467   5.314  0.4218 -0.8085 -0.0227
   22MOL0     C 2899   9.108   9.442   5.429  0.1120 -0.3008  0.4629
   22MOL0     C 2900   9.460   9.607   5.478 -0.4178  0.0665  0.2056
   22MOL0     C 2901   9.573   9.575   5.556  0.0889 -0.4631  0.4160
   22MOL0     C 2902   9.567   9.457   5.654 -0.2563 -0.0238  0.3261
   22MOL0     H 2903  10.159   9.647   5.457 -1.3630 -0.8475  0.0276
   22MOL0     H 2904  10.384   9.554   5.540  1.3052  0.2769  3.4725
   22MOL0     H 2905  10.455   9.297   5.891 -0.1846 -0.7830 -0.0116
   22MOL0     H 2906  10.355   9.195   5.782 -1.1031  1.5760 -2.3006
   22MOL0     H 2907  10.536   9.161   5.621 -0.2198  3.2974 -0.4086
   22MOL0     H 2908  10.551   9.077   5.771 -0.9243 -0.8536 -1.0305
   22MOL0     H 2909  10.672   9.351   5.771  2.8700 -0.1874  1.1975
   22MOL0     H 2910  10.755   9.233   5.684 -0.0211 -3.2513  1.2871
   22MOL0     H 2911  10.659   9.181   5.971  0.1378  0.7725 -0.1532
   22MOL0     H 2912  10.781   9.089   5.884 -1.8501 -1.1461  2.1965
   22MOL0     H 2913  10.795   9.366   5.985  1.8575  1.4592 -1.7874
   22MOL0     H 2914  10.865   9.229   6.060  1.0653  1.3811  0.8800
   22MOL0     H 2915  10.997   9.196   5.824  1.7209  0.6093 -1.2127
   22MOL0     H 2916  10.973   9.371   5.798 -0.1847 -1.5734 -1.3668
   22MOL0     H 2917  11.066   9.431   6.013 -0.2115 -1.0099  1.1134
   22MOL0     H 2918  11.170   9.383   5.880 -1.0831  3.1336  1.5488
   22MOL0     H 2919  11.101   9.182   6.111  1.7767  0.0720  2.6232
   22MOL0     H 2920  11.226   9.166   5.995  0.6609 -1.0641  3.2767
   22MOL0     H 2921  11.422   9.380   6.056  0.4178  0.2643 -0.7138
   22MOL0     H 2922  11.603   9.440   6.378  1.1056  0.3102 -0.2609
   22MOL0     H 2923  11.597   9.491   6.207  1.5944 -0.3358  1.1500
   22MOL0     H 2924  11.423   9.661   6.277 -4.2703 -4.5047  2.6577
   22MOL0     H 2925  11.456   9.628   6.437 -2.8874  1.9515 -1.2715
   22MOL0     H 2926  11.596   9.820   6.350  2.6299  0.9143  2.4356
   22MOL0     H 2927  11.704   9.711   6.277  1.0005 -2.4595  1.1170
   22MOL0     H 2928  11.611   9.706   6.563  0.4708 -1.0042  0.0637
   22MOL0     H 2929  11.747   9.792   6.512 -1.8122  2.0844  0.5444
   22MOL0     H 2930  11.793   9.675   6.764  3.4087  2.8269 -0.0635
   22MOL0     H 2931  11.962   9.591   6.913 -0.0200  0.0712 -0.0984
   22MOL0     H 2932  12.411   9.584   6.987 -3.9534 -1.9390 -2.0443
   22MOL0     H 2933  12.611   9.538   7.140 -0.7539  2.3317 -0.8808
   22MOL0     H 2934  12.784   9.439   7.272 -2.6380  0.1673 -1.5564
   22MOL0     H 2935  12.696   9.529   7.396  1.5814  0.1207  1.1116
   22MOL0     H 2936  12.736   9.364   7.558  0.2846 -0.0442 -0.2852
   22MOL0     H 2937  12.855   9.277   7.462  2.1592  0.7299 -0.8660
   22MOL0     H 2938  12.958   9.513   7.432  0.7128  1.4776  1.2394
   22MOL0     H 2939  12.835   9.572   7.542  1.4613  1.5951 -2.4411
   22MOL0     H 2940  13.047   9.372   7.611  1.1235  1.5350 -2.7108
   22MOL0     H 2941  12.903   9.403   7.720 -1.3474  0.3387 -1.2711
   22MOL0     H 2942  12.955   9.628   7.733  1.1664  1.8317 -0.8379
   22MOL0     H 2943  13.084   9.615   7.617 -0.9509  1.8433  0.0907
   22MOL0     H 2944  13.099   9.472   7.885  0.1345  1.4218  0.6309
   22MOL0     H 2945  13.226   9.468   7.762 -0.0437  0.2287 -1.2692
   22MOL0     H 2946  13.117   9.737   7.895 -3.0234 -1.2422 -2.5198
   22MOL0     H 2947  13.237   9.718   7.766  1.1635  0.7494  1.0222
   22MOL0     H 2948  13.231   9.609   8.048  1.0264  0.5717  0.2306
   22MOL0     H 2949  13.363   9.559   7.944 -1.0881 -2.2778  2.3507
   22MOL0     H 2950  12.384   9.227   7.324 -2.5517  1.7238  2.2660
   22MOL0     H 2951  12.196   9.284   7.166  0.6057 -1.1260  2.6178
   22MOL0     H 2952  12.159   9.383   6.591 -1.6442 -0.9486 -1.4112
   22MOL0     H 2953  11.955   9.425   6.454 -0.9205 -1.1963  1.3965
   22MOL0     H 2954  10.158   9.346   5.841  3.4255  0.5107  1.0883
   22MOL0     H 2955   9.959   9.444   5.771  0.2746 -2.2586 -0.9666
   22MOL0     H 2956   9.761   9.824   5.425 -0.8589  0.8104 -1.2709
   22MOL0     H 2957   9.571   9.872   5.312  2.7156  0.2291  0.8005
   22MOL0     H 2958   9.480   9.668   5.158 -0.5585 -1.0020  2.4065
   22MOL0     H 2959   9.332   9.721   5.078 -3.5595 -2.6842 -0.7649
   22MOL0     H 2960   9.358   9.464   5.217  1.6687  5.0770  1.8350
   22MOL0     H 2961   9.393   9.467   5.047 -1.2655 -1.7897 -0.1185
   22MOL0     H 2962   9.179   9.384   5.049 -1.4537 -0.2317  1.7025
   22MOL0     H 2963   9.164   9.569   5.007 -1.2284  1.4669  1.8568
   22MOL0     H 2964   9.059   9.623   5.175 -2.2495 -0.4631  0.8950
   22MOL0     H 2965   8.994   9.471   5.144 -1.0259  1.0594  1.7284
   22MOL0     H 2966   9.093   9.419   5.533 -0.0452 -2.3041  0.0344
   22MOL0     H 2967   9.378   9.537   5.490  0.4332 -0.9461  0.2192
   22MOL0     H 2968   9.507   9.377   5.611 -0.4746  0.7481 -0.8626
   22MOL0     H 2969   9.661   9.410   5.684  0.0028  1.4606  2.0583
   22MOL0     H 2970   9.534   9.497   5.750  1.8192  0.5465  0.8572
   23MOL0     O 2971  10.620   9.398   6.631  0.3481 -0.4128 -0.4329
   23MOL0     C 2972  10.579   9.465   6.724 -0.0253 -0.3580 -1.2367
   23MOL0     O 2973  10.657   9.531   6.815 -0.1752  1.1565 -0.2658
   23MOL0     C 2974  10.796   9.510   6.806 -0.4886  0.2414  0.4131
   23MOL0     C 2975  10.876   9.578   6.711  0.5535 -0.2798 -0.3022
   23MOL0     C 2976  11.010   9.558   6.700  0.0583 -0.3746 -0.7260
   23MOL0     C 2977  11.080   9.489   6.797  0.6808  0.2177 -1.3766
   23MOL0     O 2978  11.215   9.474   6.786 -0.1804 -0.2281 -0.5852
   23MOL0     C 2979  11.273   9.438   6.667  0.1801 -0.2366 -0.1487
   23MOL0     C 2980  11.426   9.443   6.694  0.1043 -0.0241 -0.6873
   23MOL0     C 2981  11.470   9.338   6.793  0.2421  0.1908 -0.4888
   23MOL0     C 2982  11.623   9.329   6.804  0.0244 -0.1838 -0.0656
   23MOL0     C 2983  11.667   9.219   6.910  0.5897 -0.4678 -0.3584
   23MOL0     C 2984  11.811   9.198   6.903  0.0566 -0.3332 -0.8844
   23MOL0     C 2985  11.866   9.100   7.003 -0.0958  0.0534  0.7543
   23MOL0     C 2986  11.883   9.163   7.150  0.0926 -0.0954 -0.2213
   23MOL0     N 2987  11.948   9.051   7.221 -0.9545  0.0759 -0.0292
   23MOL0     C 2988  11.883   8.935   7.252  0.5531  0.0272  0.4527
   23MOL0     C 2989  11.980   8.842   7.268  0.2580 -0.2943 -1.0613
   23MOL0     C 2990  11.969   8.695   7.317 -0.7230  0.4842  0.2094
   23MOL0     C 2991  11.951   8.692   7.473 -0.6773 -0.3279  0.3807
   23MOL0     C 2992  12.086   8.688   7.547  0.4909 -0.4138 -0.1905
   23MOL0     C 2993  12.118   8.822   7.614 -0.2834  0.2651  0.2664
   23MOL0     O 2994  12.188   8.789   7.738 -0.7300 -0.3917 -0.1012
   23MOL0     C 2995  12.326   8.759   7.735  0.9916  0.0447  0.4326
   23MOL0     C 2996  12.397   8.746   7.606  0.1059  0.5853  0.5875
   23MOL0     C 2997  12.539   8.715   7.596  0.0586 -0.2359 -0.7922
   23MOL0     C 2998  12.608   8.699   7.720  0.0148  0.1357 -0.0088
   23MOL0     C 2999  12.755   8.687   7.722  0.3580 -0.2910 -1.1645
   23MOL0     O 3000  12.823   8.651   7.609  0.4164 -0.0514  0.3066
   23MOL0     C 3001  12.953   8.610   7.613  0.2793  0.0695 -0.3593
   23MOL0     C 3002  13.051   8.600   7.722  0.4735 -1.5153 -0.1324
   23MOL0     C 3003  13.183   8.578   7.697 -0.0417  0.4479 -0.4569
   23MOL0     C 3004  13.228   8.565   7.567 -0.3750  0.3836  0.6452
   23MOL0     O 3005  13.367   8.537   7.558 -0.2228 -0.0544 -0.7917
   23MOL0     C 3006  13.439   8.551   7.437 -0.1137  0.4322  1.1361
   23MOL0     C 3007  13.588   8.557   7.462  0.0666  0.0084  0.5505
   23MOL0     C 3008  13.688   8.550   7.345  0.1497  0.5319 -0.1418
   23MOL0     C 3009  13.715   8.397   7.325 -0.3401  0.3676  0.5082
   23MOL0     C 3010  13.803   8.370   7.199 -0.0742 -0.3787 -0.1686
   23MOL0     C 3011  13.722   8.378   7.071  0.5823 -0.2947  0.9462
   23MOL0     C 3012  13.816   8.344   6.950 -0.1453  0.3070  0.1001
   23MOL0     C 3013  13.737   8.312   6.816  0.0287 -0.3658 -0.1164
   23MOL0    Cl 3014  13.850   8.275   6.679  0.1084 -0.0816 -0.4715
   23MOL0     C 3015  13.135   8.566   7.459 -0.4848 -0.1998  0.6630
   23MOL0     C 3016  12.999   8.575   7.487 -0.1948 -0.4953  0.0382
   23MOL0     O 3017  12.807   8.718   7.830 -0.3850 -0.1105 -0.2153
   23MOL0     C 3018  12.538   8.716   7.846  0.5538 -0.6813  0.4255
   23MOL0     C 3019  12.401   8.740   7.850  0.2713  0.9864 -0.0914
   23MOL0     N 3020  12.107   8.909   7.249 -0.4934  0.4260  0.4411
   23MOL0     N 3021  12.084   9.034   7.225  0.0004 -0.7239  0.3658
   23MOL0     C 3022  11.003   9.428   6.902 -0.2874 -0.1748 -0.7866
   23MOL0     C 3023  10.866   9.436   6.902  0.2953 -0.7129  0.3768
   23MOL0     C 3024  10.436   9.461   6.758 -0.8514 -0.1151  0.0325
   23MOL0     C 3025  10.397   9.503   6.892  0.5202 -0.1215 -0.3196
   23MOL0     C 3026  10.262   9.488   6.931  0.1675 -0.5350  0.3531
   23MOL0     C 3027  10.170   9.427   6.844 -0.2994  0.6891  0.2250
   23MOL0     O 3028  10.043   9.388   6.869 -0.3421 -0.0060 -0.7253
   23MOL0     C 3029  10.002   9.377   7.012  0.4767  0.4916  0.3893
   23MOL0     C 3030   9.842   9.334   7.018 -0.1755  0.6079  0.9484
   23MOL0     C 3031   9.750   9.407   6.926  0.1000  0.1578 -0.0355
   23MOL0     C 3032   9.750   9.556   6.944  0.4361 -0.4382  0.2302
   23MOL0     C 3033   9.694   9.591   7.080  0.5525 -0.1599 -0.5730
   23MOL0     C 3034   9.663   9.603   7.197  0.0826 -0.5581  0.4130
   23MOL0     C 3035  10.205   9.395   6.713  0.0886 -0.4825 -1.2947
   23MOL0     C 3036  10.332   9.412   6.671 -0.5260 -1.1444  0.2502
   23MOL0     C 3037  10.351   9.372   6.523  0.5718  0.0783 -0.2899
   23MOL0     H 3038  10.822   9.631   6.633 -2.4180 -0.7497  1.2805
   23MOL0     H 3039  11.053   9.598   6.609 -1.1086  1.6849 -0.4250
   23MOL0     H 3040  11.254   9.336   6.633  0.1931 -0.2002 -0.2649
   23MOL0     H 3041  11.243   9.508   6.588 -2.6938  1.3091  2.1267
   23MOL0     H 3042  11.446   9.547   6.722 -0.5362  0.0603 -0.5197
   23MOL0     H 3043  11.477   9.412   6.602  1.7222 -0.6113  0.3708
   23MOL0     H 3044  11.427   9.240   6.774 -1.2075  0.1292  2.5295
   23MOL0     H 3045  11.435   9.371   6.891  2.1339  1.0829 -0.0572
   23MOL0     H 3046  11.666   9.311   6.705  2.2770  1.0408  0.6187
   23MOL0     H 3047  11.660   9.420   6.851  1.6994 -0.6422 -0.4431
   23MOL0     H 3048  11.646   9.244   7.015  1.1399 -1.0416 -0.1016
   23MOL0     H 3049  11.615   9.129   6.876 -1.6093 -0.0351  1.5848
   23MOL0     H 3050  11.828   9.152   6.805  0.5441 -2.7765  0.2712
   23MOL0     H 3051  11.863   9.294   6.907  0.8034 -0.7741  1.1653
   23MOL0     H 3052  11.966   9.079   6.963 -0.5587  0.7245 -0.8310
   23MOL0     H 3053  11.816   9.003   7.002  0.4254 -0.3046  2.8881
   23MOL0     H 3054  11.928   9.262   7.152 -1.3972  0.6020  0.8956
   23MOL0     H 3055  11.786   9.189   7.195  0.0198  0.8419 -0.9055
   23MOL0     H 3056  11.775   8.923   7.261  0.0609  1.2334 -2.6993
   23MOL0     H 3057  11.887   8.644   7.264 -0.2195 -0.5862  0.4329
   23MOL0     H 3058  12.060   8.639   7.294  0.7076  0.6212  4.5894
   23MOL0     H 3059  11.876   8.764   7.507 -0.3906 -0.8150  2.1287
   23MOL0     H 3060  11.893   8.601   7.490  0.2303 -0.9425  0.2317
   23MOL0     H 3061  12.162   8.648   7.479 -0.2133 -0.7856 -0.7724
   23MOL0     H 3062  12.078   8.618   7.631 -3.0673  2.0709  1.8081
   23MOL0     H 3063  12.028   8.872   7.650 -1.0937 -1.4426  0.7291
   23MOL0     H 3064  12.156   8.899   7.546 -2.6388  1.4470  0.1976
   23MOL0     H 3065  12.346   8.763   7.512 -0.7735  0.8692  1.1014
   23MOL0     H 3066  12.583   8.701   7.498  0.5863 -4.8621 -0.1515
   23MOL0     H 3067  13.021   8.604   7.826 -0.0541 -1.1278 -0.2961
   23MOL0     H 3068  13.253   8.565   7.779  2.2536  3.3457 -1.7245
   23MOL0     H 3069  13.430   8.460   7.377  2.4822  1.1807 -0.5516
   23MOL0     H 3070  13.404   8.625   7.364 -0.4757 -1.1638 -0.3628
   23MOL0     H 3071  13.608   8.658   7.499  0.5032 -0.3310  1.2716
   23MOL0     H 3072  13.607   8.479   7.536 -2.0214 -3.0259 -1.8166
   23MOL0     H 3073  13.647   8.594   7.253  1.2451 -0.8635 -1.3417
   23MOL0     H 3074  13.774   8.613   7.367  0.1758 -0.1866  2.0956
   23MOL0     H 3075  13.626   8.336   7.316  0.5439 -0.6956 -2.2710
   23MOL0     H 3076  13.777   8.363   7.408 -2.6595 -3.2347  0.9397
   23MOL0     H 3077  13.859   8.276   7.202  0.8614  0.1155 -1.2792
   23MOL0     H 3078  13.875   8.452   7.198 -0.1883 -0.2788 -0.4291
   23MOL0     H 3079  13.641   8.304   7.078 -0.3349  0.7237  1.5647
   23MOL0     H 3080  13.687   8.482   7.065  0.1027 -0.5140 -2.7777
   23MOL0     H 3081  13.870   8.250   6.967 -0.6739  0.2484  1.5394
   23MOL0     H 3082  13.894   8.420   6.940  0.4313  0.1977  2.9683
   23MOL0     H 3083  13.664   8.231   6.828  1.6182 -1.9988 -0.9733
   23MOL0     H 3084  13.677   8.400   6.788  1.1584  0.2822 -0.5622
   23MOL0     H 3085  13.171   8.568   7.356 -1.5384 -1.7131  0.2401
   23MOL0     H 3086  12.939   8.591   7.398 -0.4242  1.8403  0.5476
   23MOL0     H 3087  12.591   8.697   7.939  1.3558 -4.1775 -0.5926
   23MOL0     H 3088  12.355   8.749   7.947  0.8955 -0.3503  0.3523
   23MOL0     H 3089  11.049   9.367   6.979  0.5762  1.7574  0.2726
   23MOL0     H 3090  10.797   9.398   6.977 -1.5014 -0.2887 -1.0100
   23MOL0     H 3091  10.475   9.548   6.953  2.0302 -0.1667 -2.1271
   23MOL0     H 3092  10.255   9.519   7.034 -0.0706  2.3713 -0.4411
   23MOL0     H 3093   9.997   9.480   7.046 -1.0535  0.1251  1.3705
   23MOL0     H 3094  10.070   9.307   7.061 -1.9473 -2.0022  0.4784
   23MOL0     H 3095   9.787   9.331   7.112  0.1051  1.5808  1.1575
   23MOL0     H 3096   9.845   9.229   6.986 -0.1967  0.0976  2.5145
   23MOL0     H 3097   9.649   9.369   6.942 -0.0026  0.4016 -0.0894
   23MOL0     H 3098   9.769   9.385   6.820  1.1009  1.4023 -0.1428
   23MOL0     H 3099   9.854   9.588   6.933  0.7082 -1.7579 -1.4385
   23MOL0     H 3100   9.691   9.605   6.867 -2.3475 -2.6732  0.7627
   23MOL0     H 3101   9.629   9.600   7.299  3.0797 -0.0490  1.5461
   23MOL0     H 3102  10.122   9.367   6.650 -1.1072  1.3657 -0.6099
   23MOL0     H 3103  10.406   9.453   6.474 -2.9621  3.0589  0.2246
   23MOL0     H 3104  10.405   9.277   6.525  4.1673  1.9091  2.2197
   23MOL0     H 3105  10.260   9.356   6.465 -0.1477 -1.7189  1.2263
   24MOL0     O 3106   0.650   8.170   1.389 -0.2834 -0.2457  0.6191
   24MOL0     C 3107   0.698   8.280   1.402 -0.7035  0.7317  0.0240
   24MOL0     O 3108   0.636   8.407   1.379  0.0194 -0.1205  0.0357
   24MOL0     C 3109   0.503   8.391   1.351 -0.2644 -0.0009 -0.1484
   24MOL0     C 3110   0.447   8.406   1.229  0.5454 -0.0233  0.0865
   24MOL0     C 3111   0.308   8.390   1.201 -0.6538  0.3480  0.1011
   24MOL0     C 3112   0.229   8.351   1.308  0.9904  0.4414 -0.2181
   24MOL0     O 3113   0.090   8.351   1.300 -0.2552 -0.5464 -0.5082
   24MOL0     C 3114   0.010   8.403   1.193  0.6708  0.3339  0.7965
   24MOL0     C 3115   0.003   8.315   1.064 -0.8899  1.0153 -0.7685
   24MOL0     C 3116  -0.015   8.169   1.094  1.2572 -0.5916  0.3301
   24MOL0     C 3117  -0.001   8.086   0.963  0.4353 -0.0351 -0.2681
   24MOL0     C 3118  -0.077   7.955   0.986 -0.4686  0.2223 -0.6029
   24MOL0     C 3119  -0.231   7.978   0.942 -0.9609 -0.1789  0.9178
   24MOL0     C 3120  -0.336   7.889   1.011 -0.1216  0.6160 -0.1221
   24MOL0     C 3121  -0.321   7.740   0.971  0.1978 -0.2548  0.4165
   24MOL0     N 3122  -0.315   7.708   0.823  0.4050  0.0562 -0.1948
   24MOL0     C 3123  -0.207   7.649   0.779 -0.0567  0.3338  0.1665
   24MOL0     C 3124  -0.216   7.661   0.641 -0.3224  0.2620 -0.2104
   24MOL0     C 3125  -0.128   7.602   0.538  0.9965  0.4318  0.2045
   24MOL0     C 3126   0.003   7.672   0.512 -0.0172  0.6298  0.0711
   24MOL0     C 3127   0.098   7.582   0.439 -0.6045 -0.2658  0.4474
   24MOL0     C 3128   0.235   7.639   0.408 -0.0359 -0.1377 -0.1093
   24MOL0     O 3129   0.295   7.552   0.307 -0.2248  1.2098 -0.4028
   24MOL0     C 3130   0.416   7.588   0.252  0.2724  0.4351 -0.2028
   24MOL0     C 3131   0.446   7.534   0.124  0.2198 -0.0649 -0.1827
   24MOL0     C 3132   0.569   7.568   0.060  0.6786  0.6202 -0.7824
   24MOL0     C 3133   0.655   7.660   0.120  0.0061  0.6650 -0.1031
   24MOL0     C 3134   0.769   7.714   0.046 -0.4479 -0.4933 -0.0512
   24MOL0     O 3135   0.805   7.650  -0.071 -0.4065  0.7870  0.4644
   24MOL0     C 3136   0.912   7.707  -0.133 -0.0353 -0.3751 -0.8443
   24MOL0     C 3137   0.909   7.822  -0.212  0.1972 -0.1779 -0.6640
   24MOL0     C 3138   1.024   7.879  -0.274  0.0640  0.2525 -0.8371
   24MOL0     C 3139   1.153   7.828  -0.243 -0.0988 -1.0873 -0.1969
   24MOL0     O 3140   1.258   7.905  -0.301  1.2006 -0.5148 -0.1911
   24MOL0     C 3141   1.377   7.837  -0.326 -0.6672 -0.3626 -0.7600
   24MOL0     C 3142   1.360   7.721  -0.426 -0.4295  0.6640 -0.1563
   24MOL0     C 3143   1.503   7.662  -0.429  0.1495 -0.9668  0.0229
   24MOL0     C 3144   1.500   7.515  -0.476  0.2265 -0.2598  0.4198
   24MOL0     C 3145   1.389   7.422  -0.419 -0.1622  0.2845  0.6012
   24MOL0     C 3146   1.415   7.375  -0.274 -0.3606 -0.5759  0.1362
   24MOL0     C 3147   1.294   7.312  -0.221  0.8293 -0.0717 -0.5501
   24MOL0     C 3148   1.329   7.244  -0.089  0.1469  0.1230 -0.9246
   24MOL0    Cl 3149   1.440   7.104  -0.122 -0.3029 -0.5084  0.1608
   24MOL0     C 3150   1.158   7.715  -0.155 -0.2394  0.6771  0.7093
   24MOL0     C 3151   1.043   7.657  -0.102  1.1851  0.0321  0.3557
   24MOL0     O 3152   0.831   7.812   0.089  0.1326 -0.4078 -0.1643
   24MOL0     C 3153   0.631   7.705   0.250  0.2764 -0.1504 -0.1784
   24MOL0     C 3154   0.512   7.674   0.315  0.1957 -0.4590  0.0681
   24MOL0     N 3155  -0.325   7.731   0.607 -0.0999  0.5299 -0.6631
   24MOL0     N 3156  -0.379   7.768   0.715  0.2468 -0.7484 -0.3489
   24MOL0     C 3157   0.281   8.319   1.433 -0.4119 -0.1101 -0.1239
   24MOL0     C 3158   0.422   8.346   1.454  1.0150  0.0847 -0.2966
   24MOL0     C 3159   0.840   8.278   1.450  0.9519 -2.1714 -0.4992
   24MOL0     C 3160   0.929   8.176   1.408  0.5568  0.3875 -0.2221
   24MOL0     C 3161   1.066   8.188   1.445  0.0566  0.1251  0.5155
   24MOL0     C 3162   1.115   8.285   1.529  0.0084 -0.5133 -0.4096
   24MOL0     O 3163   1.242   8.308   1.580 -1.1909  0.2499 -0.5052
   24MOL0     C 3164   1.355   8.238   1.525  0.0659  0.2653 -1.4518
   24MOL0     C 3165   1.411   8.281   1.391  0.0861 -0.2890  0.2307
   24MOL0     C 3166   1.413   8.437   1.360  0.1079  0.3877  0.4216
   24MOL0     C 3167   1.488   8.481   1.230 -0.1953 -0.2878  0.0243
   24MOL0     C 3168   1.632   8.480   1.258  0.0764  0.0868 -0.2311
   24MOL0     C 3169   1.751   8.493   1.263  0.2571  0.0564 -0.2473
   24MOL0     C 3170   1.024   8.386   1.565 -0.2953  0.5250 -0.4199
   24MOL0     C 3171   0.888   8.382   1.536  0.0702 -0.9757 -0.0740
   24MOL0     C 3172   0.813   8.494   1.589  0.0800 -0.2772 -0.1525
   24MOL0     H 3173   0.514   8.436   1.149  2.6068  0.4368  1.8809
   24MOL0     H 3174   0.271   8.429   1.106 -3.4571  3.8223  2.3633
   24MOL0     H 3175  -0.086   8.433   1.235 -0.3244  1.3027 -1.8866
   24MOL0     H 3176   0.065   8.496   1.175  0.5297  1.1780  4.1873
   24MOL0     H 3177   0.097   8.336   1.012 -1.1678  0.0829 -1.6807
   24MOL0     H 3178  -0.073   8.357   0.997 -2.3612 -1.4435 -0.7607
   24MOL0     H 3179  -0.111   8.157   1.147  0.2313 -1.7035 -1.6629
   24MOL0     H 3180   0.065   8.139   1.162  0.8227 -0.1202  1.0689
   24MOL0     H 3181  -0.031   8.133   0.869 -0.0008 -0.3440 -0.2854
   24MOL0     H 3182   0.103   8.061   0.938 -0.3361 -2.0189 -1.7699
   24MOL0     H 3183  -0.041   7.882   0.913 -1.0132 -0.7099  0.0375
   24MOL0     H 3184  -0.060   7.926   1.091 -1.6967 -0.3718 -0.5365
   24MOL0     H 3185  -0.270   8.075   0.976  0.1514  1.1580 -1.4057
   24MOL0     H 3186  -0.241   7.971   0.834  1.8615 -0.0812  0.5909
   24MOL0     H 3187  -0.438   7.919   0.987 -1.7742 -2.8668  1.8413
   24MOL0     H 3188  -0.320   7.898   1.119  1.9282  0.5182 -0.3726
   24MOL0     H 3189  -0.234   7.693   1.017 -0.9882 -3.4242 -0.3697
   24MOL0     H 3190  -0.412   7.697   1.014 -0.7604 -0.2235 -1.4618
   24MOL0     H 3191  -0.136   7.597   0.844  1.6813  1.2666 -0.9012
   24MOL0     H 3192  -0.116   7.495   0.556  0.3870  0.2502 -0.4092
   24MOL0     H 3193  -0.176   7.612   0.440  1.7541  4.4875  0.0683
   24MOL0     H 3194  -0.008   7.768   0.461  0.8768  0.6736 -0.0678
   24MOL0     H 3195   0.055   7.691   0.606  0.5718  2.9480 -0.6606
   24MOL0     H 3196   0.054   7.558   0.342 -1.6315 -2.3687  1.3526
   24MOL0     H 3197   0.109   7.496   0.507  0.6295  1.4734  2.5989
   24MOL0     H 3198   0.302   7.640   0.495  2.1168  1.9563 -1.6448
   24MOL0     H 3199   0.213   7.740   0.370 -0.9683 -0.5987 -0.8408
   24MOL0     H 3200   0.357   7.482   0.088 -0.0840  0.7635 -0.6428
   24MOL0     H 3201   0.584   7.528  -0.040 -0.7651 -1.8860 -0.0628
   24MOL0     H 3202   0.810   7.861  -0.237 -0.0849 -0.9672 -0.8086
   24MOL0     H 3203   1.001   7.964  -0.337 -0.0286 -1.8772 -3.8998
   24MOL0     H 3204   1.450   7.905  -0.371 -1.2955 -0.5290 -2.0797
   24MOL0     H 3205   1.424   7.801  -0.234  2.0424 -2.7862 -2.9135
   24MOL0     H 3206   1.282   7.655  -0.385  1.0713 -0.1114  1.6300
   24MOL0     H 3207   1.327   7.767  -0.519  1.5500  1.7034 -0.3910
   24MOL0     H 3208   1.569   7.716  -0.497  1.1373 -3.8208 -1.4315
   24MOL0     H 3209   1.551   7.660  -0.331  2.0890  0.0872 -0.8464
   24MOL0     H 3210   1.593   7.462  -0.451  0.1374 -0.7038 -0.1915
   24MOL0     H 3211   1.495   7.512  -0.585  0.8346 -0.8830  0.3997
   24MOL0     H 3212   1.405   7.341  -0.492  0.1810  0.5749  0.3509
   24MOL0     H 3213   1.287   7.454  -0.440  1.1347  2.1959 -3.8990
   24MOL0     H 3214   1.499   7.305  -0.277 -0.8922 -1.1911 -0.8430
   24MOL0     H 3215   1.440   7.460  -0.209 -0.9079 -0.4587  0.1974
   24MOL0     H 3216   1.256   7.241  -0.296  3.3042 -0.6766 -1.3205
   24MOL0     H 3217   1.211   7.383  -0.216  1.0177  0.1452 -0.5106
   24MOL0     H 3218   1.366   7.327  -0.028 -1.6380 -0.6834  1.4352
   24MOL0     H 3219   1.242   7.204  -0.034 -0.9721  1.2892 -1.7837
   24MOL0     H 3220   1.256   7.671  -0.142 -0.0096  0.4225 -1.5914
   24MOL0     H 3221   1.058   7.564  -0.048  0.7637  0.7473  1.7466
   24MOL0     H 3222   0.692   7.790   0.282 -1.2853  0.4494  1.3414
   24MOL0     H 3223   0.486   7.731   0.403 -1.6167 -1.8197  0.4749
   24MOL0     H 3224   0.223   8.277   1.515  0.4265 -1.4847 -0.2171
   24MOL0     H 3225   0.459   8.322   1.553  0.8081 -0.7223 -0.4060
   24MOL0     H 3226   0.903   8.102   1.334  4.2446 -1.7048  0.3386
   24MOL0     H 3227   1.136   8.118   1.401 -1.3091 -0.0814 -1.4858
   24MOL0     H 3228   1.332   8.131   1.514 -0.1835  0.4378 -2.7814
   24MOL0     H 3229   1.433   8.234   1.601 -1.2350 -0.1683 -0.0925
   24MOL0     H 3230   1.346   8.233   1.317  1.3039 -1.5003 -0.0989
   24MOL0     H 3231   1.508   8.241   1.362  0.0648  0.1072 -0.4072
   24MOL0     H 3232   1.455   8.483   1.449 -1.5219  2.7088  0.0630
   24MOL0     H 3233   1.312   8.476   1.352 -0.5169 -0.5250  2.8231
   24MOL0     H 3234   1.462   8.413   1.148 -0.2437  0.2079 -0.3824
   24MOL0     H 3235   1.461   8.584   1.204 -1.1442 -0.4219  0.4540
   24MOL0     H 3236   1.858   8.498   1.257  0.2339  0.7882 -0.2351
   24MOL0     H 3237   1.060   8.472   1.622 -1.9822  0.8036  0.2916
   24MOL0     H 3238   0.861   8.531   1.680 -1.7484  1.0505  0.3455
   24MOL0     H 3239   0.808   8.575   1.515 -2.3048 -0.0123  0.2000
   24MOL0     H 3240   0.715   8.466   1.630 -1.4000  4.8353  0.5491
   25MOL0     O 3241   0.495   3.735   1.634 -0.0318  0.0451  0.2708
   25MOL0     C 3242   0.426   3.765   1.723  0.0769  0.4713 -0.2357
   25MOL0     O 3243   0.470   3.817   1.845  0.0952  0.2365 -0.5638
   25MOL0     C 3244   0.599   3.794   1.895  0.2039 -0.1461  0.5389
   25MOL0     C 3245   0.705   3.719   1.836  0.3101  0.1840 -0.8206
   25MOL0     C 3246   0.817   3.689   1.917 -0.5158 -0.7303  0.5943
   25MOL0     C 3247   0.841   3.751   2.040  0.8079 -1.3185  0.6106
   25MOL0     O 3248   0.952   3.740   2.113  0.3304 -0.1869  0.4440
   25MOL0     C 3249   0.962   3.609   2.181 -0.0766 -0.3817  0.0262
   25MOL0     C 3250   1.075   3.625   2.277  0.0080  0.4134 -0.6730
   25MOL0     C 3251   1.206   3.659   2.201  0.8812 -0.3224  0.1585
   25MOL0     C 3252   1.331   3.616   2.269 -0.7385 -0.4544 -0.4903
   25MOL0     C 3253   1.359   3.463   2.263  0.8129 -0.1927 -0.0208
   25MOL0     C 3254   1.441   3.438   2.386 -0.2732  0.0913  0.4039
   25MOL0     C 3255   1.513   3.297   2.378 -0.0417  0.2079 -0.2900
   25MOL0     C 3256   1.638   3.298   2.474 -0.8063  0.1410 -0.0333
   25MOL0     N 3257   1.748   3.375   2.419 -1.1727 -0.0204 -0.2081
   25MOL0     C 3258   1.830   3.332   2.317 -0.6404 -0.7416 -0.9358
   25MOL0     C 3259   1.937   3.416   2.334  0.3487  0.0470 -0.2169
   25MOL0     C 3260   2.047   3.415   2.234 -0.3997  1.0789  0.2552
   25MOL0     C 3261   2.182   3.419   2.303  0.5438  0.5301  0.0127
   25MOL0     C 3262   2.197   3.283   2.361  0.5045  0.2794  0.0503
   25MOL0     C 3263   2.334   3.261   2.416  0.2891  0.2841  0.6637
   25MOL0     O 3264   2.420   3.279   2.306 -0.1213 -0.2690 -0.7251
   25MOL0     C 3265   2.544   3.230   2.310 -0.4233  0.7320  0.0373
   25MOL0     C 3266   2.621   3.248   2.203 -0.0871  0.0281  0.0479
   25MOL0     C 3267   2.756   3.227   2.210  0.2146 -0.0019  1.0544
   25MOL0     C 3268   2.813   3.173   2.318 -0.6449 -0.2644 -0.3282
   25MOL0     C 3269   2.955   3.144   2.312  0.3832  0.8341 -0.6669
   25MOL0     O 3270   3.028   3.153   2.430 -0.4628 -1.2332  0.8479
   25MOL0     C 3271   3.168   3.137   2.426 -0.0687 -0.6528  0.0583
   25MOL0     C 3272   3.223   3.222   2.518 -0.2330 -0.2789  0.0344
   25MOL0     C 3273   3.361   3.223   2.541  0.1492 -0.3475 -0.1432
   25MOL0     C 3274   3.441   3.144   2.468 -0.5581 -0.0876  0.1043
   25MOL0     O 3275   3.577   3.153   2.487  0.2910  0.6869  0.4425
   25MOL0     C 3276   3.640   3.263   2.562  0.5893  0.9724  0.1099
   25MOL0     C 3277   3.792   3.279   2.533 -0.5307 -0.4022 -0.6257
   25MOL0     C 3278   3.880   3.184   2.619 -0.5413  1.1290 -0.8746
   25MOL0     C 3279   4.015   3.141   2.558  0.2713  0.3074  0.2563
   25MOL0     C 3280   4.135   3.137   2.656 -0.5029 -0.6899  0.1018
   25MOL0     C 3281   4.183   3.282   2.674  0.2562 -0.3973  0.1814
   25MOL0     C 3282   4.339   3.295   2.680  0.3909  0.0939 -0.0881
   25MOL0     C 3283   4.367   3.435   2.740  1.2769 -0.3304 -0.0740
   25MOL0    Cl 3284   4.290   3.578   2.650  0.4291 -0.0009  0.1625
   25MOL0     C 3285   3.392   3.054   2.380  0.5054  0.1653  0.1481
   25MOL0     C 3286   3.246   3.049   2.353 -0.5633 -1.1387 -0.9674
   25MOL0     O 3287   2.998   3.102   2.201 -0.3668 -0.3626 -0.0755
   25MOL0     C 3288   2.740   3.154   2.431  0.0673 -0.1969  0.0529
   25MOL0     C 3289   2.603   3.183   2.433 -0.4392  0.1475 -0.0394
   25MOL0     N 3290   1.922   3.510   2.446  0.0454  0.0827  0.4407
   25MOL0     N 3291   1.816   3.469   2.501  0.5100 -0.0795  0.6393
   25MOL0     C 3292   0.745   3.830   2.084 -0.4543 -0.4591  0.4716
   25MOL0     C 3293   0.617   3.849   2.015  0.0629 -0.5687 -0.9180
   25MOL0     C 3294   0.277   3.754   1.690 -0.5303 -0.1432  0.0516
   25MOL0     C 3295   0.193   3.799   1.794  0.0200  0.5029  0.0735
   25MOL0     C 3296   0.053   3.769   1.792  0.2824  0.4667  0.3079
   25MOL0     C 3297  -0.001   3.701   1.685  0.2698 -0.9406  0.4132
   25MOL0     O 3298  -0.126   3.647   1.675 -0.3889  0.8253 -0.1394
   25MOL0     C 3299  -0.223   3.697   1.774 -0.1479  1.3417  0.7312
   25MOL0     C 3300  -0.362   3.642   1.754  0.5226  0.4970  0.5655
   25MOL0     C 3301  -0.416   3.622   1.608  0.1265  0.1415  0.3430
   25MOL0     C 3302  -0.399   3.740   1.509  0.2436  0.0538 -0.0183
   25MOL0     C 3303  -0.471   3.694   1.392  1.4977  0.0310  0.3237
   25MOL0     C 3304  -0.540   3.637   1.303  0.1568 -0.9703 -0.6715
   25MOL0     C 3305   0.082   3.668   1.583  0.9555  0.1067 -0.3278
   25MOL0     C 3306   0.218   3.695   1.578  1.0502  0.0623 -0.0848
   25MOL0     C 3307   0.297   3.654   1.457  0.2289 -0.2294 -0.0758
   25MOL0     H 3308   0.697   3.662   1.744 -2.0073 -0.3244 -0.3764
   25MOL0     H 3309   0.899   3.634   1.872 -1.4237 -2.4283  0.9234
   25MOL0     H 3310   0.873   3.581   2.238  0.5852 -0.5519  0.9954
   25MOL0     H 3311   0.984   3.531   2.107 -1.8135  0.8732 -1.9422
   25MOL0     H 3312   1.087   3.533   2.336 -0.7677 -0.4284 -1.7744
   25MOL0     H 3313   1.051   3.701   2.351 -1.7066 -0.7936  0.0869
   25MOL0     H 3314   1.211   3.769   2.198  0.2809 -0.1743  2.5866
   25MOL0     H 3315   1.202   3.621   2.098  3.5085  2.5515 -1.2139
   25MOL0     H 3316   1.411   3.663   2.212  0.0146 -2.6987 -1.3639
   25MOL0     H 3317   1.332   3.651   2.373 -2.0847 -0.0268 -0.5993
   25MOL0     H 3318   1.272   3.397   2.257  0.2558  0.3080  1.8154
   25MOL0     H 3319   1.418   3.447   2.172  2.3106  1.8529  0.5253
   25MOL0     H 3320   1.522   3.509   2.399  1.8982 -2.0887 -0.4353
   25MOL0     H 3321   1.380   3.452   2.476  0.4323  1.4771  0.6880
   25MOL0     H 3322   1.539   3.284   2.273 -2.5408 -2.5928 -0.6911
   25MOL0     H 3323   1.441   3.217   2.400  0.0122  0.0837 -0.5681
   25MOL0     H 3324   1.607   3.342   2.569 -2.6837 -1.2054  0.0295
   25MOL0     H 3325   1.675   3.197   2.492 -1.9014 -0.4381 -0.9132
   25MOL0     H 3326   1.809   3.258   2.240 -4.2066  0.4118 -1.2540
   25MOL0     H 3327   2.043   3.330   2.165  0.1159  0.3136  1.1518
   25MOL0     H 3328   2.053   3.510   2.179  2.8847  0.4365 -0.6976
   25MOL0     H 3329   2.261   3.444   2.232 -0.4080  0.7428 -0.9994
   25MOL0     H 3330   2.178   3.495   2.382  0.3737 -0.8239  1.3580
   25MOL0     H 3331   2.179   3.208   2.284  0.3365  1.7765 -1.4152
   25MOL0     H 3332   2.112   3.266   2.428  1.6968 -1.8946  1.1112
   25MOL0     H 3333   2.331   3.155   2.447  2.0402  0.0818  0.2584
   25MOL0     H 3334   2.348   3.328   2.501 -2.5316  1.2878  0.4313
   25MOL0     H 3335   2.574   3.278   2.111 -0.3100 -1.2994 -0.2969
   25MOL0     H 3336   2.809   3.230   2.116 -1.6209 -0.2377 -0.0396
   25MOL0     H 3337   3.164   3.297   2.569 -2.4497 -0.7143 -1.7439
   25MOL0     H 3338   3.397   3.289   2.618  2.4659 -0.9854 -0.6233
   25MOL0     H 3339   3.589   3.356   2.534 -0.8388 -0.2159 -1.4501
   25MOL0     H 3340   3.632   3.261   2.671  1.5455  0.4675  0.1797
   25MOL0     H 3341   3.817   3.265   2.427  1.0316  2.7447 -0.7754
   25MOL0     H 3342   3.816   3.380   2.567 -1.1913 -0.4246 -0.0680
   25MOL0     H 3343   3.901   3.226   2.718  2.3570 -2.9863  0.5821
   25MOL0     H 3344   3.829   3.089   2.638  0.9922  0.2148 -1.1023
   25MOL0     H 3345   4.037   3.209   2.475 -0.5563 -2.5726 -2.5167
   25MOL0     H 3346   4.003   3.037   2.526 -3.0045  0.4448  0.7092
   25MOL0     H 3347   4.203   3.071   2.602  1.0719  1.0108 -0.0928
   25MOL0     H 3348   4.112   3.103   2.757  2.0439  1.3947  1.4932
   25MOL0     H 3349   4.142   3.344   2.594 -0.3487 -2.0684 -0.8627
   25MOL0     H 3350   4.139   3.325   2.765  0.5000 -0.1817  0.1980
   25MOL0     H 3351   4.382   3.282   2.580 -0.7273 -0.6331 -0.4938
   25MOL0     H 3352   4.381   3.221   2.749  0.4532 -0.0031 -0.2283
   25MOL0     H 3353   4.320   3.439   2.838  2.4592  1.4103  0.4727
   25MOL0     H 3354   4.474   3.445   2.762  0.4720  0.0577  4.6564
   25MOL0     H 3355   3.449   2.969   2.344 -0.1349 -0.6206  0.9528
   25MOL0     H 3356   3.212   2.972   2.284 -1.2499 -2.4503  0.7491
   25MOL0     H 3357   2.795   3.113   2.516 -1.7009  0.3179  1.5173
   25MOL0     H 3358   2.542   3.155   2.519 -2.3737  0.4415 -1.2561
   25MOL0     H 3359   0.766   3.868   2.184  2.8939 -1.5258  0.3206
   25MOL0     H 3360   0.537   3.895   2.071  1.4819 -0.0411  0.7755
   25MOL0     H 3361   0.229   3.857   1.878 -0.6149  1.2469 -0.1654
   25MOL0     H 3362  -0.005   3.795   1.880  0.0437 -3.6955  1.5707
   25MOL0     H 3363  -0.227   3.806   1.771  0.0151  1.3234 -0.8240
   25MOL0     H 3364  -0.186   3.666   1.872  2.6609 -1.2641 -0.9528
   25MOL0     H 3365  -0.426   3.709   1.812  0.1584  1.5483 -1.0036
   25MOL0     H 3366  -0.360   3.543   1.801  2.7632 -1.2055 -2.7216
   25MOL0     H 3367  -0.518   3.585   1.615  0.6648 -1.4263  0.4503
   25MOL0     H 3368  -0.355   3.538   1.574  3.0715  2.2995 -0.1495
   25MOL0     H 3369  -0.450   3.832   1.537 -1.3180 -0.8751  0.3034
   25MOL0     H 3370  -0.294   3.754   1.480 -0.0158 -1.4759 -1.8828
   25MOL0     H 3371  -0.611   3.595   1.234 -0.0958 -2.1373  0.2714
   25MOL0     H 3372   0.039   3.629   1.492  0.2864 -0.4819  0.2296
   25MOL0     H 3373   0.379   3.722   1.436  0.0780  0.0881  0.3453
   25MOL0     H 3374   0.332   3.551   1.471 -0.0257 -0.7465 -2.8222
   25MOL0     H 3375   0.242   3.651   1.363 -1.3068  2.1700  0.6433
   26MOL0     O 3376   8.117   7.855   1.249 -0.0488 -0.4823  0.6996
   26MOL0     C 3377   8.051   7.939   1.304  0.3916  0.4144 -0.1784
   26MOL0     O 3378   7.942   7.994   1.244  0.0854  0.4046  0.4563
   26MOL0     C 3379   7.914   7.983   1.110 -0.5130 -0.3989  0.1481
   26MOL0     C 3380   7.783   7.960   1.079 -0.4087  0.4052  0.2862
   26MOL0     C 3381   7.738   7.953   0.948  0.4332 -0.2367  0.9218
   26MOL0     C 3382   7.833   7.963   0.844  0.4735  0.7669  0.1244
   26MOL0     O 3383   7.803   7.966   0.709  0.0453  0.3216 -0.4083
   26MOL0     C 3384   7.679   7.913   0.659  0.1297 -0.0474  0.4257
   26MOL0     C 3385   7.640   8.016   0.562 -0.3581 -0.1935  0.4262
   26MOL0     C 3386   7.514   7.974   0.484  0.5958  0.7702 -1.0373
   26MOL0     C 3387   7.383   7.959   0.572  0.2018 -0.2070 -0.6257
   26MOL0     C 3388   7.339   8.083   0.650 -0.6013 -0.0348 -0.2761
   26MOL0     C 3389   7.306   8.204   0.561 -1.0487 -0.1567  0.0716
   26MOL0     C 3390   7.222   8.301   0.641  0.3699  0.2722 -0.0370
   26MOL0     C 3391   7.065   8.270   0.647  0.0104 -0.7500 -0.1243
   26MOL0     N 3392   6.986   8.373   0.718  1.4715  0.3555 -1.0146
   26MOL0     C 3393   7.017   8.430   0.839 -0.4800  0.2616 -0.1806
   26MOL0     C 3394   6.911   8.512   0.869  0.0438 -0.2821 -0.1917
   26MOL0     C 3395   6.912   8.622   0.979 -1.0677  0.4617  0.3757
   26MOL0     C 3396   6.930   8.551   1.111  0.7398  0.1147  0.3325
   26MOL0     C 3397   6.968   8.643   1.228 -0.2855  0.6252  0.3894
   26MOL0     C 3398   6.859   8.747   1.263  0.4956  0.5097 -0.3705
   26MOL0     O 3399   6.727   8.683   1.275 -0.0723  0.6457  0.2053
   26MOL0     C 3400   6.627   8.776   1.296  0.7601  0.1019 -0.3171
   26MOL0     C 3401   6.529   8.751   1.391  0.0141  0.3641 -0.5494
   26MOL0     C 3402   6.411   8.818   1.401  0.4070 -0.1661 -0.4615
   26MOL0     C 3403   6.390   8.926   1.317  0.4418  0.0735  0.1680
   26MOL0     C 3404   6.262   8.995   1.348  0.1595 -0.4433  0.2722
   26MOL0     O 3405   6.145   8.917   1.385 -0.3003 -0.1081 -0.2428
   26MOL0     C 3406   6.031   8.995   1.429  0.5899  0.5941  0.0421
   26MOL0     C 3407   5.967   8.966   1.551 -0.1294  0.0611 -0.3804
   26MOL0     C 3408   5.843   9.033   1.581  0.3668 -0.3428 -0.2122
   26MOL0     C 3409   5.788   9.127   1.494  0.0298 -0.7845  1.5936
   26MOL0     O 3410   5.663   9.174   1.533 -0.8088 -0.0285 -0.6011
   26MOL0     C 3411   5.604   9.281   1.451  0.3324 -0.5067 -0.1379
   26MOL0     C 3412   5.479   9.351   1.519 -0.2228  0.5124 -0.6686
   26MOL0     C 3413   5.428   9.476   1.439 -0.6863 -0.7106  0.5570
   26MOL0     C 3414   5.289   9.522   1.489 -0.0992 -1.4307  0.7054
   26MOL0     C 3415   5.257   9.672   1.434  0.6048 -0.3551  0.4911
   26MOL0     C 3416   5.103   9.695   1.456  0.0696 -0.7350  0.5642
   26MOL0     C 3417   5.060   9.734   1.596 -1.0557 -0.2436  0.5383
   26MOL0     C 3418   4.908   9.761   1.616 -0.6593  1.1446  1.1677
   26MOL0    Cl 3419   4.854   9.917   1.533 -0.4081  0.0745 -0.3682
   26MOL0     C 3420   5.844   9.158   1.364  0.2852 -0.0192  0.3544
   26MOL0     C 3421   5.967   9.091   1.338  0.1732  0.3186  0.5566
   26MOL0     O 3422   6.260   9.121   1.333  1.3519 -0.6000  0.5494
   26MOL0     C 3423   6.483   8.967   1.220  0.2707 -0.4416 -0.3285
   26MOL0     C 3424   6.606   8.891   1.215 -0.3998  0.8754  0.5720
   26MOL0     N 3425   6.814   8.497   0.777  0.2633  0.5984  1.1360
   26MOL0     N 3426   6.854   8.408   0.688 -0.2263 -0.6180 -0.6601
   26MOL0     C 3427   7.966   7.986   0.869 -1.0540  0.6937 -0.8536
   26MOL0     C 3428   8.010   8.006   1.002  0.8674 -0.0761  0.3569
   26MOL0     C 3429   8.076   7.981   1.439  0.2121 -0.1600  0.0401
   26MOL0     C 3430   7.988   7.933   1.536 -0.4711  0.4927 -0.3518
   26MOL0     C 3431   8.014   7.979   1.676 -0.2320 -0.1258 -0.4140
   26MOL0     C 3432   8.115   8.071   1.703 -0.2974  1.3811 -0.8045
   26MOL0     O 3433   8.162   8.110   1.831  0.8224 -0.0083  0.1381
   26MOL0     C 3434   8.064   8.085   1.939  0.3937  0.6535 -0.1647
   26MOL0     C 3435   8.087   7.946   2.009  0.6952  0.0245 -0.6978
   26MOL0     C 3436   8.223   7.936   2.089 -0.5212 -0.8283 -0.0419
   26MOL0     C 3437   8.244   8.053   2.193 -0.0341  0.2246 -0.1276
   26MOL0     C 3438   8.376   8.045   2.258 -0.1568  0.3267 -0.7593
   26MOL0     C 3439   8.480   8.046   2.317  0.3041 -1.0694 -0.2686
   26MOL0     C 3440   8.198   8.104   1.607 -0.3848 -0.0803  0.6109
   26MOL0     C 3441   8.186   8.062   1.473  1.7261  0.0800 -1.3280
   26MOL0     C 3442   8.282   8.098   1.367 -0.3881  0.5078 -0.3420
   26MOL0     H 3443   7.709   7.942   1.157 -2.0047  3.7144 -0.2889
   26MOL0     H 3444   7.634   7.955   0.918  0.5541 -3.9107 -0.2307
   26MOL0     H 3445   7.701   7.821   0.605  1.1807  0.5691 -0.2356
   26MOL0     H 3446   7.600   7.898   0.733 -1.1546  0.2430 -0.8358
   26MOL0     H 3447   7.718   8.007   0.485 -0.6539 -0.7218  0.1823
   26MOL0     H 3448   7.615   8.115   0.600 -3.5495 -0.4569 -0.7241
   26MOL0     H 3449   7.535   7.875   0.442 -2.1777  0.2234 -1.3190
   26MOL0     H 3450   7.484   8.043   0.405 -1.1253  2.7745  1.2284
   26MOL0     H 3451   7.302   7.919   0.510  0.8797 -0.2245 -1.5353
   26MOL0     H 3452   7.405   7.883   0.647  1.3893  0.4440 -0.2917
   26MOL0     H 3453   7.248   8.057   0.706 -2.9556  2.9666 -2.3125
   26MOL0     H 3454   7.414   8.110   0.724  0.1950 -1.6606 -0.4557
   26MOL0     H 3455   7.403   8.247   0.537 -1.3805  0.3681 -0.3540
   26MOL0     H 3456   7.250   8.184   0.469  2.0697 -0.9092 -1.7981
   26MOL0     H 3457   7.221   8.403   0.602  0.7959  0.8999  1.4851
   26MOL0     H 3458   7.263   8.294   0.743  2.6217  2.2189 -0.7028
   26MOL0     H 3459   7.027   8.259   0.545 -1.9859  0.3175  0.4556
   26MOL0     H 3460   7.054   8.184   0.714 -2.6865 -2.0127 -2.0044
   26MOL0     H 3461   7.116   8.411   0.879  2.7255 -0.7708 -7.1299
   26MOL0     H 3462   6.992   8.695   0.960  0.7047 -1.1493  1.3541
   26MOL0     H 3463   6.827   8.691   0.973 -0.1784  1.5988  0.3943
   26MOL0     H 3464   6.846   8.482   1.123  2.8338 -3.0791 -1.5714
   26MOL0     H 3465   7.012   8.481   1.089  0.5672 -0.0965  0.3548
   26MOL0     H 3466   7.066   8.685   1.205  1.0058 -2.5608 -0.4808
   26MOL0     H 3467   6.985   8.581   1.316 -5.0755 -0.9043  0.5580
   26MOL0     H 3468   6.866   8.823   1.185  0.0714 -0.1573 -1.0881
   26MOL0     H 3469   6.881   8.808   1.350  2.1263 -0.5329 -0.0182
   26MOL0     H 3470   6.547   8.675   1.467  1.9346  1.2134 -0.0882
   26MOL0     H 3471   6.341   8.790   1.479  1.4635 -1.4524  0.0770
   26MOL0     H 3472   6.022   8.893   1.610  2.0752  1.8682 -0.0328
   26MOL0     H 3473   5.776   9.032   1.666  1.2306 -0.4070  0.4869
   26MOL0     H 3474   5.683   9.351   1.423 -0.1453  0.9146  1.8122
   26MOL0     H 3475   5.572   9.227   1.361  0.7282 -0.3585 -0.3676
   26MOL0     H 3476   5.403   9.272   1.525  0.1608  0.1826  0.0239
   26MOL0     H 3477   5.507   9.391   1.617  4.1170 -0.7628 -1.1814
   26MOL0     H 3478   5.500   9.555   1.461 -0.1847 -0.9394 -0.2513
   26MOL0     H 3479   5.425   9.470   1.330 -2.1600 -1.2080  0.5954
   26MOL0     H 3480   5.283   9.514   1.598  1.9521  2.2453  1.2656
   26MOL0     H 3481   5.220   9.447   1.448 -0.7900 -0.6057  0.3276
   26MOL0     H 3482   5.294   9.674   1.331 -0.2534 -0.4785  0.1714
   26MOL0     H 3483   5.315   9.742   1.494 -0.2959 -1.3434  2.6080
   26MOL0     H 3484   5.060   9.773   1.393  2.4072 -1.2061 -1.7977
   26MOL0     H 3485   5.056   9.605   1.414  1.0567 -0.6046 -0.8976
   26MOL0     H 3486   5.106   9.830   1.621 -2.8439  0.5976  0.7905
   26MOL0     H 3487   5.084   9.652   1.664  1.9558  0.2266  0.1587
   26MOL0     H 3488   4.854   9.681   1.565  2.6397 -0.9739  0.7033
   26MOL0     H 3489   4.877   9.745   1.720 -0.7897 -0.9868  0.8580
   26MOL0     H 3490   5.816   9.238   1.297  0.2115  0.0719  0.4936
   26MOL0     H 3491   6.019   9.114   1.245 -1.0854 -0.9372 -0.5065
   26MOL0     H 3492   6.491   9.060   1.164  1.4510 -1.3665 -1.7648
   26MOL0     H 3493   6.676   8.923   1.139 -0.2739  1.5251  0.9498
   26MOL0     H 3494   8.050   7.977   0.801 -0.0368 -1.2721  0.5866
   26MOL0     H 3495   8.113   8.022   1.032  1.2755 -3.0012  0.8304
   26MOL0     H 3496   7.920   7.852   1.510 -1.1147  1.4428 -1.7642
   26MOL0     H 3497   7.942   7.937   1.745 -0.4421 -0.1486 -0.6443
   26MOL0     H 3498   7.961   8.088   1.901  1.1235 -0.1475 -2.4143
   26MOL0     H 3499   8.090   8.157   2.017  2.5275 -2.4628  2.2516
   26MOL0     H 3500   8.076   7.862   1.938  2.6807 -2.5368  1.7861
   26MOL0     H 3501   8.001   7.935   2.076 -0.5939  3.1428 -1.6394
   26MOL0     H 3502   8.297   7.950   2.010  0.3499  3.3799  1.2888
   26MOL0     H 3503   8.228   7.842   2.146 -0.1891  1.6834  4.5833
   26MOL0     H 3504   8.228   8.153   2.152  0.4218  0.0993 -0.6359
   26MOL0     H 3505   8.180   8.044   2.281  1.6520 -2.6202  0.9407
   26MOL0     H 3506   8.569   8.053   2.376  1.7959 -1.1696 -2.4324
   26MOL0     H 3507   8.284   8.166   1.631  0.0020  0.9065 -2.8475
   26MOL0     H 3508   8.238   8.116   1.269 -2.2489 -2.5369 -0.1948
   26MOL0     H 3509   8.333   8.186   1.407 -1.6296 -0.2277  3.3031
   26MOL0     H 3510   8.358   8.018   1.365 -1.6805 -1.1930  4.3769
   27MOL0     O 3511  10.718   5.619   3.079 -0.1289 -0.3975  0.5262
   27MOL0     C 3512  10.702   5.691   2.982  0.5534  0.4017 -0.0859
   27MOL0     O 3513  10.590   5.760   2.960  0.5011 -0.5290 -0.2494
   27MOL0     C 3514  10.477   5.721   3.032  0.3207  0.3859 -0.8103
   27MOL0     C 3515  10.405   5.816   3.101 -0.0302 -0.9494 -0.6916
   27MOL0     C 3516  10.296   5.772   3.176  0.7765  0.1824  0.0243
   27MOL0     C 3517  10.244   5.645   3.174  1.0022 -0.6469 -0.3541
   27MOL0     O 3518  10.142   5.606   3.247 -0.2920 -0.8955 -0.4366
   27MOL0     C 3519  10.033   5.566   3.184 -0.0057  0.4661 -0.4689
   27MOL0     C 3520   9.932   5.540   3.298 -0.0399  0.9872 -0.0386
   27MOL0     C 3521   9.959   5.414   3.387 -0.3207  0.9315  0.5660
   27MOL0     C 3522   9.865   5.407   3.508  0.5017  0.4845 -0.1112
   27MOL0     C 3523   9.897   5.280   3.590  0.1668 -0.7162 -0.2754
   27MOL0     C 3524   9.815   5.291   3.720  0.1701  0.1883 -0.4903
   27MOL0     C 3525   9.903   5.321   3.841  0.1941  0.0721  0.7958
   27MOL0     C 3526   9.820   5.316   3.976  0.6914 -0.1104 -0.4693
   27MOL0     N 3527   9.900   5.386   4.079  0.8615  0.3236 -0.1944
   27MOL0     C 3528   9.849   5.473   4.173 -0.4624 -0.0765  0.6655
   27MOL0     C 3529   9.956   5.495   4.251  0.2572  0.1525  0.5698
   27MOL0     C 3530   9.941   5.591   4.355 -0.1277 -0.4159 -0.0866
   27MOL0     C 3531  10.077   5.649   4.394  0.4645  0.8833  1.2745
   27MOL0     C 3532  10.083   5.718   4.534 -1.0335 -0.3860 -0.2704
   27MOL0     C 3533  10.227   5.745   4.594  0.1667  0.7019  0.0879
   27MOL0     O 3534  10.215   5.728   4.739 -0.8128 -0.3130  0.0224
   27MOL0     C 3535  10.332   5.764   4.801  0.3578 -1.2911  0.7567
   27MOL0     C 3536  10.464   5.727   4.756 -0.9189 -0.2703 -0.5793
   27MOL0     C 3537  10.569   5.752   4.845 -0.2485  0.2246 -0.6852
   27MOL0     C 3538  10.561   5.814   4.959 -0.6150 -0.1989 -0.5969
   27MOL0     C 3539  10.682   5.836   5.038 -0.3799 -0.4677  0.8296
   27MOL0     O 3540  10.802   5.783   4.986  0.2610 -0.1405 -0.2169
   27MOL0     C 3541  10.923   5.840   5.026 -0.2653 -0.3370 -0.2726
   27MOL0     C 3542  10.950   5.980   5.032  0.2234 -0.1251  0.2451
   27MOL0     C 3543  11.070   6.031   5.085  0.6391 -0.0482 -0.8023
   27MOL0     C 3544  11.170   5.937   5.125  0.3423 -0.6689 -0.5789
   27MOL0     O 3545  11.292   5.974   5.179  0.4009 -0.0388 -0.9009
   27MOL0     C 3546  11.327   6.105   5.199  0.0407  0.2471 -0.6045
   27MOL0     C 3547  11.459   6.111   5.279  0.2180 -0.1221  0.2795
   27MOL0     C 3548  11.574   6.055   5.184  0.1069 -0.5625 -0.1169
   27MOL0     C 3549  11.624   6.162   5.084 -1.4596 -0.0243 -0.5485
   27MOL0     C 3550  11.735   6.093   4.995 -0.3214  0.3891 -0.5542
   27MOL0     C 3551  11.842   6.004   5.063  0.2282  0.7104 -0.3620
   27MOL0     C 3552  11.965   5.972   4.966 -0.0229  0.3306 -0.6751
   27MOL0     C 3553  12.048   5.854   5.017  0.8605  0.2901  0.1703
   27MOL0    Cl 3554  12.213   5.847   4.956  0.1845  0.1823  0.1128
   27MOL0     C 3555  11.145   5.806   5.102  0.6582 -0.5043 -1.2335
   27MOL0     C 3556  11.029   5.761   5.047 -1.1650  0.0551  0.9324
   27MOL0     O 3557  10.674   5.895   5.147 -0.4621 -0.0951  0.3970
   27MOL0     C 3558  10.434   5.857   4.994  0.3242  0.8329  0.3591
   27MOL0     C 3559  10.321   5.848   4.915 -0.4987  0.5532  0.7522
   27MOL0     N 3560  10.066   5.420   4.206  0.2612 -0.6114  0.8197
   27MOL0     N 3561  10.029   5.355   4.110 -0.5552  0.2807  0.6631
   27MOL0     C 3562  10.325   5.553   3.103 -0.3537  0.7116 -1.1961
   27MOL0     C 3563  10.435   5.585   3.030  0.2432  0.0991 -0.4307
   27MOL0     C 3564  10.815   5.710   2.878 -0.0457  0.1318  0.8051
   27MOL0     C 3565  10.793   5.799   2.769  0.0140 -0.3534 -0.3514
   27MOL0     C 3566  10.879   5.807   2.667  0.2872 -1.0461  0.4489
   27MOL0     C 3567  10.988   5.726   2.657  0.3638 -0.0985 -0.7422
   27MOL0     O 3568  11.060   5.748   2.543 -0.0432  0.2514  0.2113
   27MOL0     C 3569  11.169   5.654   2.524  0.0433  0.3173 -1.1245
   27MOL0     C 3570  11.293   5.737   2.577  0.4978 -0.1950 -0.1365
   27MOL0     C 3571  11.289   5.878   2.521 -1.0145 -0.1759  0.4539
   27MOL0     C 3572  11.398   5.967   2.573 -0.5682  0.2460  0.4834
   27MOL0     C 3573  11.539   5.920   2.563 -0.5215 -0.3008 -0.2825
   27MOL0     C 3574  11.653   5.892   2.553  0.7653 -0.2856  0.2577
   27MOL0     C 3575  11.019   5.645   2.769  0.3981 -0.3060 -0.4060
   27MOL0     C 3576  10.933   5.634   2.881  0.0804 -0.0124  0.7421
   27MOL0     C 3577  10.973   5.534   2.989 -0.1072  0.2008  0.9371
   27MOL0     H 3578  10.427   5.919   3.125 -1.5228 -0.8659  0.4881
   27MOL0     H 3579  10.249   5.845   3.241  1.9759  0.0554  1.0688
   27MOL0     H 3580   9.995   5.643   3.116 -2.2459  1.2368  1.5112
   27MOL0     H 3581  10.055   5.474   3.130 -1.1865 -0.5639  0.7309
   27MOL0     H 3582   9.833   5.533   3.251 -0.8509 -0.6551  1.7541
   27MOL0     H 3583   9.925   5.631   3.357 -0.4187  0.0776  1.3622
   27MOL0     H 3584  10.065   5.404   3.410  0.1556  1.4226 -1.2507
   27MOL0     H 3585   9.925   5.332   3.323 -0.4896  1.9114 -0.6300
   27MOL0     H 3586   9.889   5.498   3.564  1.6433  1.2094 -1.7236
   27MOL0     H 3587   9.760   5.401   3.478  0.5033 -1.5463  0.1149
   27MOL0     H 3588   9.863   5.186   3.546 -0.8485 -0.9790  1.0033
   27MOL0     H 3589  10.001   5.270   3.619 -0.6704 -0.8234  3.0820
   27MOL0     H 3590   9.726   5.353   3.714  0.9486  1.2219 -2.0853
   27MOL0     H 3591   9.790   5.187   3.742  2.5509 -0.6064 -1.1703
   27MOL0     H 3592   9.935   5.426   3.837 -1.4289  0.5563 -2.2587
   27MOL0     H 3593   9.991   5.257   3.839  2.6205  3.1078  1.9929
   27MOL0     H 3594   9.720   5.356   3.957 -0.3676 -3.6032 -3.4422
   27MOL0     H 3595   9.800   5.219   4.022 -3.9226  0.5065 -0.7275
   27MOL0     H 3596   9.756   5.527   4.190 -0.3302  0.9863 -1.6912
   27MOL0     H 3597   9.880   5.671   4.312  2.0517  0.3845 -1.9213
   27MOL0     H 3598   9.903   5.541   4.444  1.7419 -0.6499  0.6290
   27MOL0     H 3599  10.140   5.562   4.411  0.8961  0.8773 -0.2029
   27MOL0     H 3600  10.116   5.724   4.324  2.8269 -0.1686  1.3546
   27MOL0     H 3601  10.033   5.661   4.613 -1.3273  1.8681  1.2757
   27MOL0     H 3602  10.025   5.811   4.532  1.9196  1.5892 -1.4093
   27MOL0     H 3603  10.271   5.843   4.571  1.5631 -0.1229 -0.9113
   27MOL0     H 3604  10.298   5.670   4.558 -1.6454 -0.1031 -2.0217
   27MOL0     H 3605  10.479   5.663   4.670 -0.3425 -0.4486 -0.3530
   27MOL0     H 3606  10.658   5.711   4.798 -0.1944  2.1258 -2.3836
   27MOL0     H 3607  10.880   6.052   4.991  3.4098  1.3667 -3.1998
   27MOL0     H 3608  11.085   6.138   5.088 -0.8178  0.1597 -0.4199
   27MOL0     H 3609  11.329   6.149   5.099  1.6780  0.3069 -0.5638
   27MOL0     H 3610  11.246   6.155   5.254  0.4613 -0.9828  1.2287
   27MOL0     H 3611  11.482   6.214   5.308  1.1275 -0.3112  0.2745
   27MOL0     H 3612  11.458   6.066   5.379 -3.2826 -3.4569 -1.0071
   27MOL0     H 3613  11.656   6.021   5.247  0.0141  0.0895  0.3655
   27MOL0     H 3614  11.539   5.972   5.121  0.9300 -0.6866 -0.4258
   27MOL0     H 3615  11.668   6.239   5.148 -1.7742 -0.5596  0.3274
   27MOL0     H 3616  11.539   6.204   5.029 -0.8454  1.9010 -0.1248
   27MOL0     H 3617  11.790   6.166   4.934  0.9549 -0.3115 -0.2585
   27MOL0     H 3618  11.681   6.038   4.917 -0.8739  0.7807 -0.4559
   27MOL0     H 3619  11.868   6.072   5.144 -3.0385  1.9714 -0.2263
   27MOL0     H 3620  11.792   5.909   5.086  0.6065 -0.0679 -2.4980
   27MOL0     H 3621  12.028   6.059   4.981  1.0515 -0.4272 -0.7046
   27MOL0     H 3622  11.941   5.976   4.859  2.5835  1.7409 -1.2648
   27MOL0     H 3623  12.064   5.859   5.125  0.6058  0.7585  0.1934
   27MOL0     H 3624  11.999   5.760   4.992 -1.5639  1.2561  0.9551
   27MOL0     H 3625  11.229   5.749   5.140  0.6782  1.0694  1.2491
   27MOL0     H 3626  11.010   5.655   5.041 -1.8460  0.2029  0.4284
   27MOL0     H 3627  10.422   5.915   5.085 -0.3668  1.9238 -0.4058
   27MOL0     H 3628  10.221   5.874   4.950 -1.6552  1.6764 -2.8996
   27MOL0     H 3629  10.297   5.450   3.125  1.7972  0.7660  2.7056
   27MOL0     H 3630  10.490   5.505   2.981  1.0181  0.4486 -0.1503
   27MOL0     H 3631  10.708   5.865   2.782  1.3085  1.3689 -0.3409
   27MOL0     H 3632  10.850   5.868   2.582  0.3155 -1.1369  0.3744
   27MOL0     H 3633  11.181   5.628   2.419 -1.6035 -0.6446 -1.1007
   27MOL0     H 3634  11.156   5.559   2.577 -2.5035  2.0830  1.7360
   27MOL0     H 3635  11.383   5.680   2.552  0.2626 -0.5949 -0.0747
   27MOL0     H 3636  11.283   5.751   2.685 -3.2516 -1.5333 -0.1630
   27MOL0     H 3637  11.207   5.937   2.563  1.7944  1.7396  3.7703
   27MOL0     H 3638  11.297   5.877   2.412 -0.0938  1.5323  0.4612
   27MOL0     H 3639  11.395   6.060   2.516  3.4455  2.2389  3.1100
   27MOL0     H 3640  11.370   5.997   2.674 -2.5617  0.5726 -0.1177
   27MOL0     H 3641  11.759   5.874   2.554  1.5173  3.3738  1.0453
   27MOL0     H 3642  11.112   5.592   2.785  0.4728  0.3144  1.4989
   27MOL0     H 3643  10.890   5.467   3.014 -1.3770  1.5368  0.4479
   27MOL0     H 3644  11.066   5.487   2.955 -0.8664  0.2044 -1.3608
   27MOL0     H 3645  11.006   5.591   3.076  1.7700  1.6325 -0.6230
   28MOL0     O 3646   9.971   7.696  10.250 -0.3673  0.7084 -0.0114
   28MOL0     C 3647  10.007   7.790  10.174 -0.1329  0.2946 -0.6312
   28MOL0     O 3648   9.919   7.875  10.120 -0.1135 -0.3293 -0.0217
   28MOL0     C 3649   9.781   7.859  10.134  0.3767 -0.2654 -0.0427
   28MOL0     C 3650   9.713   7.899  10.024 -0.5958  0.6464 -0.0757
   28MOL0     C 3651   9.574   7.900  10.034 -0.0749 -1.1572  0.2502
   28MOL0     C 3652   9.506   7.870  10.152  0.3148  0.1014 -0.7155
   28MOL0     O 3653   9.371   7.880  10.174 -1.1277 -0.0471  0.6730
   28MOL0     C 3654   9.309   7.999  10.129 -0.4574  0.9696  0.5771
   28MOL0     C 3655   9.177   7.996  10.195  0.7725  0.5991  0.0174
   28MOL0     C 3656   9.118   8.137  10.176  0.0893 -0.8963 -0.8607
   28MOL0     C 3657   9.001   8.164  10.276  0.9179  0.3494  0.2120
   28MOL0     C 3658   8.939   8.306  10.264  0.0891 -0.4816  0.4763
   28MOL0     C 3659   9.033   8.433  10.273  1.3932  0.5197 -0.1087
   28MOL0     C 3660   8.949   8.560  10.300 -0.0869 -0.5673  0.9436
   28MOL0     C 3661   8.866   8.597  10.172 -0.5699 -0.4076  0.7665
   28MOL0     N 3662   8.734   8.519  10.169  0.0233 -0.1319 -0.6004
   28MOL0     C 3663   8.630   8.528  10.254 -0.3510  0.3943  0.2606
   28MOL0     C 3664   8.535   8.442  10.208  0.2088  0.7892  0.4522
   28MOL0     C 3665   8.386   8.424  10.257  0.0120  0.3027  0.3290
   28MOL0     C 3666   8.387   8.403  10.407  0.0129  0.6266 -0.1625
   28MOL0     C 3667   8.445   8.271  10.446  0.1438  0.2504 -0.4394
   28MOL0     C 3668   8.453   8.246  10.596 -0.4911  0.0731  0.5988
   28MOL0     O 3669   8.504   8.364  10.660  0.1608  0.6315 -0.5754
   28MOL0     C 3670   8.632   8.392  10.674  1.2158  0.2083 -0.7521
   28MOL0     C 3671   8.656   8.519  10.732 -0.4830 -0.4173 -0.8402
   28MOL0     C 3672   8.787   8.565  10.754  0.0315  0.0924 -0.5444
   28MOL0     C 3673   8.899   8.484  10.712  0.6317  0.7584 -0.3338
   28MOL0     C 3674   9.042   8.528  10.719 -1.1969  1.0970 -0.2739
   28MOL0     O 3675   9.144   8.462  10.661  0.2343 -0.0622  0.2696
   28MOL0     C 3676   9.278   8.498  10.674 -0.0203 -0.2752 -0.5277
   28MOL0     C 3677   9.360   8.509  10.559  0.5197  0.7586 -0.6244
   28MOL0     C 3678   9.487   8.557  10.578  1.4862 -0.0502  0.0581
   28MOL0     C 3679   9.546   8.596  10.706  0.1967 -0.8734  0.4012
   28MOL0     O 3680   9.670   8.641  10.721  0.5919 -0.2859 -0.0827
   28MOL0     C 3681   9.752   8.641  10.601 -0.2361 -0.2731 -0.2589
   28MOL0     C 3682   9.887   8.686  10.648 -1.0428 -0.5579  0.9572
   28MOL0     C 3683   9.987   8.572  10.611  0.0653  0.3894 -0.1098
   28MOL0     C 3684  10.129   8.595  10.645 -0.3500  0.3303 -0.4658
   28MOL0     C 3685  10.225   8.477  10.628  0.0920 -0.3741 -0.7150
   28MOL0     C 3686  10.369   8.515  10.679  0.0523  0.7816  0.5323
   28MOL0     C 3687  10.451   8.581  10.561 -0.3010  0.3886  0.0332
   28MOL0     C 3688  10.593   8.599  10.609  0.0493  0.5490 -0.0091
   28MOL0    Cl 3689  10.694   8.453  10.652  0.2453 -0.3173  0.2152
   28MOL0     C 3690   9.469   8.579  10.819 -0.6889 -0.3669  0.2733
   28MOL0     C 3691   9.333   8.547  10.806 -0.6229  0.7851 -0.0423
   28MOL0     O 3692   9.052   8.647  10.757 -0.3060  0.8528  0.0861
   28MOL0     C 3693   8.869   8.354  10.653  0.5069  0.3537 -0.6759
   28MOL0     C 3694   8.738   8.309  10.632  0.9234 -0.2910  0.2638
   28MOL0     N 3695   8.579   8.398  10.081 -0.5804 -0.4496  0.3137
   28MOL0     N 3696   8.696   8.437  10.066  0.0245 -0.3642  0.3960
   28MOL0     C 3697   9.580   7.837  10.267  0.5713  0.1061  0.4746
   28MOL0     C 3698   9.717   7.827  10.255  0.3420 -0.4232 -0.4671
   28MOL0     C 3699  10.153   7.816  10.156  0.4197  0.5278 -0.3135
   28MOL0     C 3700  10.187   7.929  10.080 -0.8240 -0.0103  0.1168
   28MOL0     C 3701  10.322   7.952  10.050 -0.1319  0.8244  0.6271
   28MOL0     C 3702  10.423   7.874  10.104 -0.1137 -0.4649  0.1458
   28MOL0     O 3703  10.555   7.896  10.075 -0.7626  0.3194  0.5139
   28MOL0     C 3704  10.629   7.977  10.168  0.0059  0.6634  0.2680
   28MOL0     C 3705  10.782   7.978  10.131  0.3431 -0.1009 -0.3510
   28MOL0     C 3706  10.804   8.093  10.039 -0.0801  1.1578  0.9300
   28MOL0     C 3707  10.949   8.087   9.971 -0.2358 -0.2277 -0.3989
   28MOL0     C 3708  10.978   8.181   9.865  0.3094 -0.3787  0.3874
   28MOL0     C 3709  10.980   8.246   9.764  0.3914 -0.3722 -0.0383
   28MOL0     C 3710  10.387   7.758  10.180  0.8726  0.0334  0.7569
   28MOL0     C 3711  10.258   7.729  10.210  0.0050 -0.6993 -0.1068
   28MOL0     C 3712  10.235   7.606  10.293 -0.0855  0.0594 -0.3564
   28MOL0     H 3713   9.783   7.924   9.945  1.0768  0.0927  1.1754
   28MOL0     H 3714   9.516   7.927   9.947 -0.9046 -0.6628  0.9440
   28MOL0     H 3715   9.370   8.090  10.140 -3.0488  2.9460 -0.3096
   28MOL0     H 3716   9.307   7.994  10.020  0.5385 -0.1996  0.5885
   28MOL0     H 3717   9.177   7.966  10.300 -0.4018  1.0539  0.1578
   28MOL0     H 3718   9.108   7.929  10.143 -2.3517  4.1192 -0.8186
   28MOL0     H 3719   9.094   8.161  10.072  0.2892  1.3680 -0.4310
   28MOL0     H 3720   9.196   8.208  10.203 -1.2015 -0.3578  1.8431
   28MOL0     H 3721   8.918   8.098  10.247  2.6094 -0.9749 -1.9679
   28MOL0     H 3722   9.024   8.138  10.380  0.6357  1.7069  0.6268
   28MOL0     H 3723   8.881   8.313  10.171  0.8920 -0.0894 -0.0100
   28MOL0     H 3724   8.857   8.317  10.334 -0.8610 -0.4091 -0.6207
   28MOL0     H 3725   9.111   8.433  10.349  1.2437  1.5573  0.0647
   28MOL0     H 3726   9.094   8.452  10.184  0.3803 -1.9207 -1.4262
   28MOL0     H 3727   9.022   8.638  10.323  0.4208 -1.4750  2.5238
   28MOL0     H 3728   8.893   8.546  10.393  2.2537 -1.5406  2.2986
   28MOL0     H 3729   8.832   8.700  10.186 -1.7951 -0.7348  0.3237
   28MOL0     H 3730   8.922   8.595  10.078 -0.3771  4.6791  0.4603
   28MOL0     H 3731   8.622   8.602  10.333 -3.2961  0.6751 -0.1938
   28MOL0     H 3732   8.318   8.508  10.241 -0.4963 -0.2208 -0.2934
   28MOL0     H 3733   8.345   8.331  10.217  0.6229  0.6497 -1.1797
   28MOL0     H 3734   8.444   8.485  10.453 -0.3810  1.4730 -1.1362
   28MOL0     H 3735   8.282   8.398  10.437 -0.0685 -1.4713 -0.6310
   28MOL0     H 3736   8.543   8.269  10.397  1.0952  0.5751  1.3604
   28MOL0     H 3737   8.384   8.194  10.398  0.5198 -0.4426  0.1637
   28MOL0     H 3738   8.515   8.157  10.605  2.2882  1.6494 -1.4837
   28MOL0     H 3739   8.351   8.230  10.634 -0.9311 -1.1375 -0.9839
   28MOL0     H 3740   8.577   8.585  10.766  1.1459  1.8219 -1.1757
   28MOL0     H 3741   8.814   8.656  10.807  0.6018 -0.7421  0.6450
   28MOL0     H 3742   9.322   8.473  10.464  2.3800 -2.2662 -0.3672
   28MOL0     H 3743   9.543   8.566  10.485 -1.8030  4.4564 -1.8538
   28MOL0     H 3744   9.745   8.553  10.537  2.0602 -0.6496 -0.0777
   28MOL0     H 3745   9.720   8.721  10.533  1.4551  1.3538  0.7572
   28MOL0     H 3746   9.924   8.779  10.604  0.3724 -0.5824  2.0375
   28MOL0     H 3747   9.898   8.693  10.757  0.8882 -3.1916  1.0088
   28MOL0     H 3748   9.952   8.482  10.662  2.9917 -0.5735  0.3568
   28MOL0     H 3749   9.976   8.565  10.503 -1.1661  1.4635 -0.0869
   28MOL0     H 3750  10.135   8.623  10.750 -0.7079  2.2436 -0.9135
   28MOL0     H 3751  10.178   8.680  10.595 -0.2449  2.2687  2.6501
   28MOL0     H 3752  10.229   8.451  10.521 -0.2353 -0.8445 -0.6165
   28MOL0     H 3753  10.180   8.396  10.686 -2.7915  0.8093 -1.1677
   28MOL0     H 3754  10.361   8.584  10.764 -2.3956  0.3416  0.7330
   28MOL0     H 3755  10.420   8.424  10.714  0.6404  1.5837  1.8482
   28MOL0     H 3756  10.407   8.680  10.546  0.1654  0.6555  0.4197
   28MOL0     H 3757  10.445   8.514  10.474  1.5438 -1.2505  1.0721
   28MOL0     H 3758  10.648   8.659  10.536  0.0864  1.7263  0.9496
   28MOL0     H 3759  10.601   8.664  10.696  2.6400  0.7700 -0.3325
   28MOL0     H 3760   9.515   8.601  10.914  0.6859 -0.6950 -0.2864
   28MOL0     H 3761   9.269   8.549  10.893 -1.5899  1.6446 -0.7436
   28MOL0     H 3762   8.938   8.271  10.644 -2.3057 -2.4709  1.4506
   28MOL0     H 3763   8.717   8.212  10.590  0.9534 -0.4155  0.5343
   28MOL0     H 3764   9.525   7.822  10.359  0.1678 -0.6033  0.1241
   28MOL0     H 3765   9.773   7.801  10.345  0.0664  3.3173  0.9349
   28MOL0     H 3766  10.100   7.974  10.033  0.3054  1.2734 -0.7993
   28MOL0     H 3767  10.357   8.033   9.986  2.1497 -0.3222  0.3377
   28MOL0     H 3768  10.610   7.939  10.269  1.0338 -0.8034 -0.0572
   28MOL0     H 3769  10.594   8.081  10.169  0.7322  0.9167  1.1158
   28MOL0     H 3770  10.814   7.887  10.080  2.0001  1.7058 -2.7895
   28MOL0     H 3771  10.849   7.980  10.217  2.8284 -3.8895 -1.9655
   28MOL0     H 3772  10.780   8.185  10.093  1.6679  1.4643  1.2721
   28MOL0     H 3773  10.728   8.082   9.962  0.4125  0.0769  0.5830
   28MOL0     H 3774  11.021   8.083  10.052  1.7572  2.1250 -1.9276
   28MOL0     H 3775  10.958   7.986   9.931 -0.1923  0.3225 -1.8612
   28MOL0     H 3776  10.980   8.312   9.679  4.5893  1.6143  1.2476
   28MOL0     H 3777  10.458   7.685  10.217 -0.9006 -1.1206  2.0368
   28MOL0     H 3778  10.188   7.531  10.229  1.2209 -1.3990  0.3155
   28MOL0     H 3779  10.330   7.561  10.324 -1.9192 -2.7095  1.8037
   28MOL0     H 3780  10.178   7.623  10.386  0.6821  0.5799  0.0247
   29MOL0     O 3781   4.007   2.585   6.153 -0.6247 -0.3448 -0.1094
   29MOL0     C 3782   4.014   2.516   6.254  0.0736 -0.7716 -0.3921
   29MOL0     O 3783   4.127   2.457   6.292  0.2726  0.6643  0.1388
   29MOL0     C 3784   4.234   2.447   6.206 -0.7514 -0.7841  0.4288
   29MOL0     C 3785   4.290   2.326   6.154 -0.1251  0.5180 -0.2575
   29MOL0     C 3786   4.391   2.325   6.054  0.3712 -0.0869 -0.0058
   29MOL0     C 3787   4.438   2.445   6.007 -0.4398  0.7028 -0.2197
   29MOL0     O 3788   4.547   2.465   5.930  0.2839 -0.3937 -0.3863
   29MOL0     C 3789   4.635   2.349   5.921  0.1387  0.4866  0.4784
   29MOL0     C 3790   4.763   2.402   5.859 -0.0874  0.8482 -0.6180
   29MOL0     C 3791   4.862   2.288   5.835  0.9964  0.5441  0.1024
   29MOL0     C 3792   4.972   2.331   5.741  1.5908  0.2930  0.0768
   29MOL0     C 3793   5.034   2.200   5.678 -0.1807 -0.5391  0.2349
   29MOL0     C 3794   5.156   2.242   5.584 -0.0908 -0.9992 -0.2147
   29MOL0     C 3795   5.119   2.297   5.447  0.0112  0.2228  0.5433
   29MOL0     C 3796   5.023   2.211   5.376 -0.0604  0.0212 -0.5627
   29MOL0     N 3797   5.023   2.252   5.232  0.1841  0.0680 -0.5652
   29MOL0     C 3798   4.966   2.364   5.179  0.0702  0.0680 -0.1305
   29MOL0     C 3799   4.976   2.350   5.045  1.0260 -0.1475  1.3643
   29MOL0     C 3800   4.947   2.455   4.936 -1.2146  0.0413 -0.2445
   29MOL0     C 3801   5.052   2.560   4.952 -0.6653 -0.2518 -0.1333
   29MOL0     C 3802   5.033   2.681   4.861  0.1574  0.3503  0.5492
   29MOL0     C 3803   4.890   2.748   4.873  0.3811  0.2545 -0.3768
   29MOL0     O 3804   4.867   2.864   4.783 -0.3364  0.1768  0.1904
   29MOL0     C 3805   4.744   2.903   4.751 -0.2621 -0.5007 -0.2890
   29MOL0     C 3806   4.628   2.872   4.822 -0.5826  0.2472 -0.2353
   29MOL0     C 3807   4.505   2.928   4.790  0.3050 -0.1595 -0.0467
   29MOL0     C 3808   4.495   3.020   4.684 -0.9667 -0.7235  1.2568
   29MOL0     C 3809   4.363   3.088   4.652 -0.4543  1.1673  0.4119
   29MOL0     O 3810   4.264   3.041   4.720 -0.1743  0.3709 -0.3460
   29MOL0     C 3811   4.141   3.090   4.699  0.5516  0.3585  0.1910
   29MOL0     C 3812   4.091   3.178   4.796  0.3219  0.1977 -0.1555
   29MOL0     C 3813   3.955   3.209   4.782  0.0480  0.8110 -0.4150
   29MOL0     C 3814   3.876   3.151   4.685  0.3092  0.0369  0.4046
   29MOL0     O 3815   3.736   3.166   4.668  0.0220  0.3453  0.3202
   29MOL0     C 3816   3.676   3.255   4.762 -0.3922  0.5169  0.6229
   29MOL0     C 3817   3.532   3.279   4.730 -0.0556  0.1773 -0.0777
   29MOL0     C 3818   3.510   3.418   4.687  0.4692 -0.2273  0.1739
   29MOL0     C 3819   3.361   3.443   4.651  0.3334  0.8793  0.5417
   29MOL0     C 3820   3.348   3.581   4.602  0.0683  0.8918 -0.0049
   29MOL0     C 3821   3.198   3.611   4.584  0.3437 -0.7216 -0.6006
   29MOL0     C 3822   3.199   3.758   4.571  0.4840 -0.3915 -0.6051
   29MOL0     C 3823   3.053   3.806   4.570  0.2193  0.1899 -0.6415
   29MOL0    Cl 3824   2.952   3.791   4.720  0.1088 -0.2368  0.4087
   29MOL0     C 3825   3.930   3.073   4.592  0.2343  0.1521  0.2672
   29MOL0     C 3826   4.065   3.048   4.594  0.0134  0.1008  0.1144
   29MOL0     O 3827   4.368   3.183   4.570  0.8723 -0.3716  0.1803
   29MOL0     C 3828   4.611   3.061   4.620 -0.0159  0.2183 -0.4185
   29MOL0     C 3829   4.734   2.996   4.646  0.0908  1.1816  1.0886
   29MOL0     N 3830   5.023   2.222   5.017  0.7175  0.3678 -0.2418
   29MOL0     N 3831   5.041   2.161   5.134 -0.2273 -0.0556  0.0067
   29MOL0     C 3832   4.385   2.565   6.045  0.6480  0.2027 -0.9737
   29MOL0     C 3833   4.290   2.570   6.152 -0.1906  0.6235  0.5482
   29MOL0     C 3834   3.892   2.495   6.346 -0.6074 -0.7646  0.0734
   29MOL0     C 3835   3.878   2.377   6.421  0.0037 -0.4462  0.3975
   29MOL0     C 3836   3.765   2.359   6.498  0.7952 -0.1601 -0.4662
   29MOL0     C 3837   3.667   2.460   6.513  0.2577 -0.2725 -0.3437
   29MOL0     O 3838   3.546   2.459   6.592 -0.2048  0.0321 -0.3744
   29MOL0     C 3839   3.516   2.335   6.666  0.3576 -0.5666  0.3692
   29MOL0     C 3840   3.370   2.288   6.651  0.9111 -0.0427  0.3400
   29MOL0     C 3841   3.308   2.315   6.512  1.1040 -0.2259 -0.5105
   29MOL0     C 3842   3.170   2.260   6.491  0.8174 -0.3992  0.4883
   29MOL0     C 3843   3.144   2.117   6.515  0.1219 -0.1532 -0.5822
   29MOL0     C 3844   3.123   1.996   6.534  0.3170  0.0810 -0.2575
   29MOL0     C 3845   3.678   2.571   6.436  0.0052  0.1575 -0.9559
   29MOL0     C 3846   3.789   2.591   6.353 -0.1465  0.5003 -0.2832
   29MOL0     C 3847   3.782   2.719   6.275  0.0462  0.4080 -0.0827
   29MOL0     H 3848   4.236   2.237   6.184  0.6960  0.0354 -0.1602
   29MOL0     H 3849   4.426   2.228   6.022 -1.8167 -1.1003  0.4528
   29MOL0     H 3850   4.652   2.309   6.022 -2.4481 -1.4571  0.2475
   29MOL0     H 3851   4.592   2.270   5.858  2.5488  0.0645 -0.7358
   29MOL0     H 3852   4.804   2.473   5.931  1.1791 -2.9030  2.7444
   29MOL0     H 3853   4.754   2.450   5.761 -2.2887  1.1885 -0.2943
   29MOL0     H 3854   4.803   2.204   5.798 -0.3541  1.0638  1.0113
   29MOL0     H 3855   4.912   2.265   5.930 -0.9187 -1.3451  0.7165
   29MOL0     H 3856   4.922   2.382   5.658 -0.6764 -1.1819  0.4627
   29MOL0     H 3857   5.048   2.393   5.790 -1.5531  1.5653  3.9319
   29MOL0     H 3858   5.076   2.138   5.757  1.6777  0.0471 -0.2265
   29MOL0     H 3859   4.955   2.143   5.629 -0.3470  0.3004 -0.5116
   29MOL0     H 3860   5.219   2.315   5.636 -0.7024 -0.3194 -0.4126
   29MOL0     H 3861   5.206   2.145   5.573  0.3530 -0.5331 -2.8775
   29MOL0     H 3862   5.216   2.304   5.397  2.4159  0.0178  4.7030
   29MOL0     H 3863   5.069   2.394   5.451 -2.6946 -1.1234  1.9440
   29MOL0     H 3864   5.048   2.105   5.382  1.5763  0.3557 -1.0732
   29MOL0     H 3865   4.922   2.237   5.411  0.1439  0.2116 -0.1071
   29MOL0     H 3866   4.938   2.458   5.226 -2.5542 -1.8390  2.5599
   29MOL0     H 3867   4.939   2.409   4.837  1.5627 -0.4669 -0.3342
   29MOL0     H 3868   4.848   2.493   4.959 -1.5335 -1.2209  0.6104
   29MOL0     H 3869   5.060   2.605   5.051  0.9583  1.0592 -0.8157
   29MOL0     H 3870   5.146   2.511   4.925  1.0803  1.0268  3.0961
   29MOL0     H 3871   5.062   2.658   4.758 -1.3391  1.9583 -0.2744
   29MOL0     H 3872   5.109   2.758   4.881  1.7737 -0.5544 -1.6741
   29MOL0     H 3873   4.876   2.780   4.977 -2.9154 -1.2942 -0.1876
   29MOL0     H 3874   4.806   2.678   4.866  1.9424 -1.7749  0.1150
   29MOL0     H 3875   4.621   2.795   4.898  0.1372  2.5725  2.3621
   29MOL0     H 3876   4.421   2.910   4.855  0.6137  4.2750  1.9038
   29MOL0     H 3877   4.154   3.219   4.875 -1.7770  1.3826  0.9831
   29MOL0     H 3878   3.914   3.267   4.864 -0.5234 -1.2827  0.8536
   29MOL0     H 3879   3.696   3.204   4.857  1.4434 -3.2182 -1.5238
   29MOL0     H 3880   3.722   3.354   4.767 -0.2490  0.4724  0.2520
   29MOL0     H 3881   3.492   3.208   4.658  0.5666  0.9880 -1.2673
   29MOL0     H 3882   3.474   3.260   4.821 -0.6700 -2.7185 -0.9761
   29MOL0     H 3883   3.533   3.491   4.765  1.0505 -0.1091 -0.0998
   29MOL0     H 3884   3.584   3.453   4.614  2.2628 -2.8501  0.5893
   29MOL0     H 3885   3.299   3.427   4.740  1.3682 -3.5503  0.7050
   29MOL0     H 3886   3.324   3.366   4.583  0.6993  0.9368  0.2693
   29MOL0     H 3887   3.391   3.594   4.502 -0.5466  1.0866 -0.2491
   29MOL0     H 3888   3.404   3.650   4.665  2.3539 -0.2220 -0.6978
   29MOL0     H 3889   3.159   3.561   4.495  1.9049  1.2977 -2.5516
   29MOL0     H 3890   3.141   3.593   4.675 -0.4395 -1.7097 -1.2726
   29MOL0     H 3891   3.242   3.786   4.474 -2.0569 -1.9937 -2.3114
   29MOL0     H 3892   3.247   3.800   4.660 -0.3790 -1.6167  0.4770
   29MOL0     H 3893   3.062   3.911   4.541  0.8463  0.1894 -0.4687
   29MOL0     H 3894   2.982   3.759   4.501  0.8799 -0.1614 -1.0977
   29MOL0     H 3895   3.860   3.023   4.525 -1.5607  0.5215  1.7772
   29MOL0     H 3896   4.110   2.981   4.521 -0.6768 -2.1145  1.6349
   29MOL0     H 3897   4.593   3.137   4.546  0.2928 -0.0113 -0.7313
   29MOL0     H 3898   4.821   3.023   4.589 -0.3759  1.2376  0.3903
   29MOL0     H 3899   4.428   2.657   6.009 -0.1538  1.5045  1.1964
   29MOL0     H 3900   4.251   2.667   6.184 -0.4588  1.1757 -1.3645
   29MOL0     H 3901   3.955   2.301   6.429  0.4169  0.0636  1.5057
   29MOL0     H 3902   3.754   2.274   6.564 -1.4687  0.6000  0.2436
   29MOL0     H 3903   3.534   2.341   6.773 -4.3315 -3.7894  1.6210
   29MOL0     H 3904   3.581   2.255   6.629 -0.1417 -1.6456  1.7781
   29MOL0     H 3905   3.314   2.336   6.731  0.5811  3.1506 -1.6189
   29MOL0     H 3906   3.369   2.181   6.672 -2.8601  0.2771  2.6665
   29MOL0     H 3907   3.373   2.289   6.429  1.2939  0.8290 -0.7104
   29MOL0     H 3908   3.283   2.422   6.504  0.5260 -0.3017  0.0962
   29MOL0     H 3909   3.097   2.305   6.560 -1.1052  1.6570 -2.6122
   29MOL0     H 3910   3.139   2.283   6.389 -1.7618 -0.5082  1.1677
   29MOL0     H 3911   3.126   1.891   6.552  5.6406 -0.0461 -0.3610
   29MOL0     H 3912   3.605   2.649   6.456  1.8443  1.7971 -0.3342
   29MOL0     H 3913   3.874   2.777   6.287  0.2586  0.0850 -0.1391
   29MOL0     H 3914   3.780   2.693   6.168  1.9283 -0.1061 -0.0349
   29MOL0     H 3915   3.702   2.789   6.301  1.1020  1.4747  0.4155
   30MOL0     O 3916   9.394   8.150   4.245 -0.2667  0.6140 -0.3403
   30MOL0     C 3917   9.325   8.112   4.336 -0.2167  0.1965 -0.5742
   30MOL0     O 3918   9.361   8.039   4.444 -0.0183 -0.1523  0.2618
   30MOL0     C 3919   9.495   8.015   4.488  0.9198  0.3029 -0.5171
   30MOL0     C 3920   9.607   8.070   4.431 -0.6669  0.7877 -0.4792
   30MOL0     C 3921   9.728   8.037   4.494  0.0063 -0.6848  1.1794
   30MOL0     C 3922   9.737   7.944   4.594 -0.7864  0.3880  0.2632
   30MOL0     O 3923   9.851   7.934   4.660 -0.5219  0.7784 -0.2704
   30MOL0     C 3924   9.965   7.907   4.579 -0.2439 -0.9773  0.1952
   30MOL0     C 3925  10.075   7.837   4.654 -0.1970 -1.0102 -0.7654
   30MOL0     C 3926  10.204   7.848   4.573  0.4515  0.0238 -0.0949
   30MOL0     C 3927  10.220   7.744   4.463 -0.4530 -0.0600  0.8439
   30MOL0     C 3928  10.347   7.759   4.380 -0.7119  0.3471 -0.4363
   30MOL0     C 3929  10.327   7.840   4.248 -0.0583  0.4275  0.1300
   30MOL0     C 3930  10.443   7.806   4.149  0.6169 -0.3971  0.2466
   30MOL0     C 3931  10.468   7.916   4.050  0.0410 -0.1485  0.4519
   30MOL0     N 3932  10.596   7.892   3.979  0.4616 -0.6238  0.1690
   30MOL0     C 3933  10.606   7.870   3.840 -0.0903 -0.6278 -0.2830
   30MOL0     C 3934  10.736   7.866   3.816 -0.3640 -1.0008 -0.1502
   30MOL0     C 3935  10.798   7.847   3.681 -0.8605  0.4182  0.2717
   30MOL0     C 3936  10.891   7.728   3.663 -0.4793  0.0926 -0.1014
   30MOL0     C 3937  10.972   7.742   3.534 -0.2299  0.3149 -0.3857
   30MOL0     C 3938  10.991   7.595   3.478 -0.4082 -0.6424 -0.0419
   30MOL0     O 3939  11.075   7.530   3.569  0.2223 -0.2039 -0.8669
   30MOL0     C 3940  11.195   7.467   3.520  0.0502  0.6008 -0.2203
   30MOL0     C 3941  11.312   7.527   3.561 -0.0599 -0.2002  0.9372
   30MOL0     C 3942  11.445   7.465   3.539  0.7151  0.2176  0.5431
   30MOL0     C 3943  11.446   7.338   3.472 -0.6398  0.1011 -0.7801
   30MOL0     C 3944  11.574   7.268   3.451 -0.8365 -0.5834  0.1211
   30MOL0     O 3945  11.692   7.340   3.483  0.2741  0.1221  0.4419
   30MOL0     C 3946  11.811   7.280   3.499  0.4688  0.7150 -0.7555
   30MOL0     C 3947  11.920   7.339   3.433 -0.3251  0.1742 -0.3369
   30MOL0     C 3948  12.054   7.287   3.448 -0.7215 -0.3750 -0.3826
   30MOL0     C 3949  12.071   7.169   3.524 -0.1119  0.8881  0.0310
   30MOL0     O 3950  12.189   7.107   3.542 -0.3236  0.1649  0.0108
   30MOL0     C 3951  12.303   7.196   3.577 -0.4631  0.0617 -0.5178
   30MOL0     C 3952  12.417   7.104   3.620 -0.1693  0.2783  0.7334
   30MOL0     C 3953  12.482   7.028   3.495 -0.3158  0.2479 -0.0942
   30MOL0     C 3954  12.636   6.993   3.506 -0.3676 -0.0725 -0.8289
   30MOL0     C 3955  12.692   6.897   3.400  0.2655  0.4888 -1.2375
   30MOL0     C 3956  12.840   6.874   3.405 -0.5872  0.3159  0.7672
   30MOL0     C 3957  12.885   6.832   3.263  0.8834 -0.1808 -0.0860
   30MOL0     C 3958  13.007   6.737   3.272  0.2808  0.3861 -0.1594
   30MOL0    Cl 3959  13.144   6.825   3.360  0.1649  0.0547  0.0499
   30MOL0     C 3960  11.963   7.102   3.579  0.4286 -0.2963 -0.1785
   30MOL0     C 3961  11.840   7.160   3.568  0.0084  0.5707 -0.4344
   30MOL0     O 3962  11.578   7.156   3.410  0.0364 -0.0544 -0.3191
   30MOL0     C 3963  11.322   7.283   3.430  0.0145  0.9475 -0.3760
   30MOL0     C 3964  11.199   7.343   3.461  0.1435  0.1538 -0.9434
   30MOL0     N 3965  10.810   7.892   3.934  0.5276  0.3126 -0.2104
   30MOL0     N 3966  10.723   7.907   4.030 -0.3102  0.1737 -0.2234
   30MOL0     C 3967   9.624   7.884   4.641 -0.4623 -0.2625 -0.0782
   30MOL0     C 3968   9.503   7.939   4.599 -1.3810  0.0854  0.3634
   30MOL0     C 3969   9.183   8.150   4.329  1.1814 -0.2612  1.2442
   30MOL0     C 3970   9.135   8.206   4.446  0.7097 -0.6624 -1.0214
   30MOL0     C 3971   9.000   8.245   4.450 -0.0675  0.2045  0.1075
   30MOL0     C 3972   8.920   8.242   4.343  0.7564  0.4776  0.2152
   30MOL0     O 3973   8.803   8.304   4.349  0.2831  0.4301 -0.5316
   30MOL0     C 3974   8.782   8.398   4.238  0.1281 -0.1618  0.2845
   30MOL0     C 3975   8.648   8.470   4.254 -0.4679 -0.7102 -0.3147
   30MOL0     C 3976   8.522   8.383   4.247  0.6436  0.6303 -0.9440
   30MOL0     C 3977   8.401   8.481   4.240 -0.9988  0.0577  0.0302
   30MOL0     C 3978   8.273   8.425   4.224  0.5955  0.3465  0.5786
   30MOL0     C 3979   8.165   8.376   4.199 -0.6939 -0.1278  0.2806
   30MOL0     C 3980   8.963   8.178   4.227 -0.5062 -0.2203 -0.8020
   30MOL0     C 3981   9.097   8.132   4.214  0.1159  0.7354 -0.8291
   30MOL0     C 3982   9.151   8.062   4.084 -0.6958  0.2730 -0.8967
   30MOL0     H 3983   9.597   8.139   4.348  1.1515 -0.6493 -1.9904
   30MOL0     H 3984   9.814   8.098   4.468 -0.8904  0.3798  0.5818
   30MOL0     H 3985   9.931   7.833   4.506  1.1190 -0.7046 -0.7584
   30MOL0     H 3986  10.000   7.999   4.531 -1.6604 -0.3545  0.3296
   30MOL0     H 3987  10.056   7.729   4.662 -1.7840 -0.8285 -1.6116
   30MOL0     H 3988  10.088   7.883   4.752 -1.0198 -3.1472  0.4306
   30MOL0     H 3989  10.286   7.837   4.645  0.3689  1.4795  0.2516
   30MOL0     H 3990  10.213   7.948   4.529 -3.3396  1.6844  2.3893
   30MOL0     H 3991  10.202   7.642   4.500 -3.2111 -0.2897 -0.8010
   30MOL0     H 3992  10.130   7.749   4.401 -1.0440  1.6430  1.7911
   30MOL0     H 3993  10.421   7.797   4.452  0.4177  0.3803 -1.5727
   30MOL0     H 3994  10.378   7.657   4.356 -0.4709  0.4271 -0.4706
   30MOL0     H 3995  10.234   7.818   4.194  0.6041  0.5068 -1.0845
   30MOL0     H 3996  10.332   7.947   4.269 -2.5832  0.4150  1.0734
   30MOL0     H 3997  10.418   7.714   4.097  0.5774 -1.5445  2.1735
   30MOL0     H 3998  10.539   7.787   4.199  1.9501  2.8197 -0.8465
   30MOL0     H 3999  10.388   7.911   3.975  0.2185 -3.8149  0.3434
   30MOL0     H 4000  10.471   8.007   4.112  1.2697 -1.0479  1.7809
   30MOL0     H 4001  10.526   7.857   3.768  0.8704 -0.0855 -1.4913
   30MOL0     H 4002  10.728   7.846   3.597  1.8157  0.1847 -2.1211
   30MOL0     H 4003  10.863   7.934   3.664  0.6072 -0.8350 -0.8947
   30MOL0     H 4004  10.960   7.713   3.746 -1.1203 -2.1046  0.0790
   30MOL0     H 4005  10.821   7.645   3.649  1.8248 -2.1861  1.0685
   30MOL0     H 4006  11.059   7.799   3.567 -1.2679  3.0029 -1.9654
   30MOL0     H 4007  10.914   7.797   3.459 -0.6800 -0.1278 -0.3693
   30MOL0     H 4008  11.033   7.601   3.378 -0.4057  2.8162  0.0386
   30MOL0     H 4009  10.892   7.549   3.463 -1.3029  1.6341 -1.7119
   30MOL0     H 4010  11.316   7.618   3.620  1.5053  1.6751 -1.8330
   30MOL0     H 4011  11.535   7.516   3.571  0.4073  1.2129 -0.1119
   30MOL0     H 4012  11.906   7.418   3.361 -0.1361  1.0113  0.5253
   30MOL0     H 4013  12.133   7.349   3.408  0.1992 -1.1815  0.1373
   30MOL0     H 4014  12.344   7.269   3.506  2.6483 -0.6322  0.4285
   30MOL0     H 4015  12.268   7.254   3.663  2.5591  0.4601  0.5726
   30MOL0     H 4016  12.488   7.174   3.666  0.5232  1.4149 -1.9165
   30MOL0     H 4017  12.389   7.035   3.701  0.9961  0.0214  0.9364
   30MOL0     H 4018  12.418   6.939   3.490 -2.2266  1.5750 -0.6753
   30MOL0     H 4019  12.464   7.094   3.410 -3.3084  0.1136  0.3377
   30MOL0     H 4020  12.656   6.963   3.609  2.3379 -0.0774 -1.2883
   30MOL0     H 4021  12.703   7.080   3.503  1.2848 -1.3250 -2.1906
   30MOL0     H 4022  12.661   6.920   3.298 -0.2234 -0.6638 -1.3573
   30MOL0     H 4023  12.656   6.795   3.414  1.9665 -0.0685 -0.7603
   30MOL0     H 4024  12.892   6.963   3.441  1.4530 -0.2622 -0.5929
   30MOL0     H 4025  12.866   6.794   3.475  2.6467  1.0066  0.5238
   30MOL0     H 4026  12.891   6.921   3.199 -1.0168  0.9543  1.2276
   30MOL0     H 4027  12.805   6.781   3.210 -0.2319 -0.4494  1.7813
   30MOL0     H 4028  12.990   6.641   3.322  1.0120  0.6196  0.5660
   30MOL0     H 4029  13.038   6.702   3.173 -0.5217 -2.2373  0.4285
   30MOL0     H 4030  11.980   7.018   3.646 -1.2453 -0.4619  0.0901
   30MOL0     H 4031  11.753   7.118   3.619 -0.1806 -1.2056 -2.1078
   30MOL0     H 4032  11.320   7.189   3.375 -2.0390 -0.0349  1.2356
   30MOL0     H 4033  11.107   7.299   3.423 -0.0816 -0.2506  0.0483
   30MOL0     H 4034   9.633   7.801   4.709 -2.1698 -0.5250 -0.1315
   30MOL0     H 4035   9.419   7.902   4.657 -1.2481  0.8635  1.0641
   30MOL0     H 4036   9.191   8.238   4.532  0.4612  2.2997 -1.8518
   30MOL0     H 4037   8.982   8.307   4.537  1.3231 -0.5961  1.0042
   30MOL0     H 4038   8.775   8.326   4.157 -1.3985 -0.6117  0.7819
   30MOL0     H 4039   8.866   8.459   4.204 -0.7930 -0.8658 -3.6830
   30MOL0     H 4040   8.637   8.538   4.169 -2.1573  1.2260  1.3347
   30MOL0     H 4041   8.653   8.525   4.349  2.0581 -2.9893  0.9963
   30MOL0     H 4042   8.521   8.314   4.332 -0.4611 -0.2447 -1.6279
   30MOL0     H 4043   8.517   8.314   4.162  1.5441 -0.0680 -0.4542
   30MOL0     H 4044   8.416   8.541   4.330  1.1716 -1.4960  0.7895
   30MOL0     H 4045   8.414   8.545   4.153  0.8177 -0.8632 -0.4238
   30MOL0     H 4046   8.073   8.326   4.180  0.1780 -1.3257 -0.9873
   30MOL0     H 4047   8.902   8.170   4.137 -0.1280 -0.2701 -1.0544
   30MOL0     H 4048   9.081   7.982   4.056  0.3882 -1.2275  0.4479
   30MOL0     H 4049   9.187   8.135   4.011 -0.9236  3.0049  1.5443
   30MOL0     H 4050   9.238   8.002   4.111 -2.3673 -1.9371 -0.0361
   31MOL0     O 4051   8.505   6.278   1.503 -0.2282  0.5552  0.4033
   31MOL0     C 4052   8.464   6.381   1.561  0.2781  0.6941  0.9169
   31MOL0     O 4053   8.519   6.433   1.682  0.2057 -0.8706  0.6311
   31MOL0     C 4054   8.622   6.377   1.746 -0.7847  0.4014  0.5282
   31MOL0     C 4055   8.712   6.465   1.809  0.0626 -0.8523 -0.1156
   31MOL0     C 4056   8.835   6.425   1.863  0.3092 -0.3784 -0.2102
   31MOL0     C 4057   8.862   6.281   1.851 -0.2587  0.0089 -0.4551
   31MOL0     O 4058   8.990   6.229   1.876 -0.2924 -0.2493 -0.3955
   31MOL0     C 4059   9.081   6.296   1.963  0.5988 -0.3108  0.3822
   31MOL0     C 4060   9.166   6.199   2.043 -0.9412  0.3436  0.0495
   31MOL0     C 4061   9.237   6.255   2.168 -0.0503 -0.0393  0.1708
   31MOL0     C 4062   9.324   6.380   2.133  0.1496  1.5619  0.2714
   31MOL0     C 4063   9.422   6.404   2.252  0.6012 -0.2641 -0.0538
   31MOL0     C 4064   9.491   6.544   2.223 -0.7672  0.9185  0.5013
   31MOL0     C 4065   9.574   6.602   2.343  0.8137 -0.6034  0.0822
   31MOL0     C 4066   9.676   6.515   2.408  0.1643  1.4829  0.0142
   31MOL0     N 4067   9.772   6.587   2.477 -0.5420 -0.5515  0.0006
   31MOL0     C 4068   9.907   6.572   2.467 -0.7591  0.3834  0.2764
   31MOL0     C 4069   9.959   6.689   2.516 -0.2238  0.5560  1.0430
   31MOL0     C 4070  10.106   6.739   2.510  0.8257 -0.0686 -0.8884
   31MOL0     C 4071  10.194   6.622   2.568 -0.6329  0.1866  0.6004
   31MOL0     C 4072  10.339   6.681   2.593  0.8496  1.4097 -0.1936
   31MOL0     C 4073  10.423   6.555   2.609 -0.5920  0.1499  0.0574
   31MOL0     O 4074  10.536   6.581   2.686 -0.1774 -1.0807 -0.1486
   31MOL0     C 4075  10.664   6.584   2.630  0.0777 -0.1785  0.1075
   31MOL0     C 4076  10.691   6.654   2.507  0.6750  0.5301  0.2612
   31MOL0     C 4077  10.826   6.671   2.463  0.0599  0.6303 -0.6665
   31MOL0     C 4078  10.927   6.599   2.528 -0.7779 -0.2387 -0.0031
   31MOL0     C 4079  11.057   6.588   2.459  0.3148 -0.0925 -0.8936
   31MOL0     O 4080  11.078   6.679   2.362  0.0524 -0.1652 -0.4345
   31MOL0     C 4081  11.189   6.673   2.276 -0.0022 -0.0347  0.3119
   31MOL0     C 4082  11.322   6.623   2.295  0.3785  0.7597  0.0968
   31MOL0     C 4083  11.413   6.634   2.196  0.5972  0.5082 -0.4689
   31MOL0     C 4084  11.383   6.706   2.074 -0.0202 -0.1041  0.4815
   31MOL0     O 4085  11.483   6.709   1.985 -0.3224 -0.0163  0.1424
   31MOL0     C 4086  11.455   6.665   1.851  0.4161 -0.0910  0.3775
   31MOL0     C 4087  11.450   6.515   1.815 -0.3021 -0.4571 -0.0269
   31MOL0     C 4088  11.571   6.445   1.882 -1.0170  0.8176 -0.0066
   31MOL0     C 4089  11.603   6.324   1.796  0.7136  0.2944  0.7396
   31MOL0     C 4090  11.749   6.289   1.777 -0.8691  0.2620 -0.4135
   31MOL0     C 4091  11.834   6.398   1.688  1.3341 -0.4115 -0.3125
   31MOL0     C 4092  11.981   6.357   1.692 -0.4791  0.3418 -0.3409
   31MOL0     C 4093  12.057   6.431   1.589  0.2867  0.3849 -0.6908
   31MOL0    Cl 4094  12.238   6.392   1.607 -0.0078  0.2455  0.0336
   31MOL0     C 4095  11.260   6.766   2.060 -0.7928  0.1664  0.1533
   31MOL0     C 4096  11.164   6.747   2.158 -0.3068 -0.0361  0.1588
   31MOL0     O 4097  11.138   6.503   2.500  0.5414 -0.5651  0.0586
   31MOL0     C 4098  10.900   6.522   2.650  0.4151 -0.1972  0.5137
   31MOL0     C 4099  10.766   6.526   2.700  0.8826  0.8970  0.1359
   31MOL0     N 4100   9.859   6.742   2.588  0.0468 -0.1826 -0.8129
   31MOL0     N 4101   9.744   6.688   2.566  0.2279 -0.2526  1.1035
   31MOL0     C 4102   8.777   6.193   1.798  1.3043  0.1205 -0.8116
   31MOL0     C 4103   8.652   6.238   1.747 -0.7496 -0.5846 -0.8103
   31MOL0     C 4104   8.347   6.450   1.511  1.2983  0.7996  0.2690
   31MOL0     C 4105   8.328   6.588   1.549  0.8133 -0.4385 -0.0595
   31MOL0     C 4106   8.204   6.650   1.528  0.3335 -0.0633  0.2153
   31MOL0     C 4107   8.105   6.579   1.455 -0.2685  0.1611  0.6242
   31MOL0     O 4108   7.997   6.628   1.387  0.6003 -0.3124 -0.1144
   31MOL0     C 4109   7.940   6.748   1.441  0.7122 -0.2123 -0.4748
   31MOL0     C 4110   7.793   6.769   1.402  0.7425  0.0784  0.3242
   31MOL0     C 4111   7.761   6.804   1.255  0.3626 -0.3229  0.1177
   31MOL0     C 4112   7.618   6.805   1.225 -0.1587 -0.0444  0.4993
   31MOL0     C 4113   7.593   6.851   1.080  0.6867  0.0636 -0.3409
   31MOL0     C 4114   7.549   6.902   0.977  0.6548  0.3880  0.5966
   31MOL0     C 4115   8.128   6.455   1.409  0.7915  0.2912  0.0580
   31MOL0     C 4116   8.238   6.384   1.444 -0.7434  0.4581 -0.1087
   31MOL0     C 4117   8.235   6.230   1.433 -0.1914 -1.0060  0.2877
   31MOL0     H 4118   8.671   6.564   1.829  0.1863 -1.3637  3.2254
   31MOL0     H 4119   8.902   6.499   1.905 -0.3901 -0.3510  0.9213
   31MOL0     H 4120   9.143   6.361   1.901  1.8778 -3.3831 -1.8247
   31MOL0     H 4121   9.029   6.356   2.038  3.4102  2.2201  0.4947
   31MOL0     H 4122   9.249   6.163   1.982 -1.3175  0.8062 -0.7446
   31MOL0     H 4123   9.103   6.114   2.072 -0.9729  0.1254 -0.6443
   31MOL0     H 4124   9.295   6.175   2.214  0.0186  0.3040  0.7014
   31MOL0     H 4125   9.157   6.284   2.237 -0.6830  3.8214 -1.8847
   31MOL0     H 4126   9.370   6.363   2.035  2.0162  1.1243  1.1767
   31MOL0     H 4127   9.268   6.474   2.131  1.3197  2.3767  2.1765
   31MOL0     H 4128   9.385   6.417   2.354  5.1974  0.0548  1.8441
   31MOL0     H 4129   9.486   6.315   2.257  0.3660 -0.7054 -3.1393
   31MOL0     H 4130   9.570   6.528   2.149  0.6147  1.0364  1.9085
   31MOL0     H 4131   9.421   6.612   2.173  2.9181  2.6016 -2.9204
   31MOL0     H 4132   9.511   6.645   2.422 -1.4229 -1.4033 -1.1689
   31MOL0     H 4133   9.629   6.686   2.300 -2.3665  2.1871  0.9855
   31MOL0     H 4134   9.628   6.450   2.483  1.2008  1.7171  0.9154
   31MOL0     H 4135   9.727   6.470   2.323  0.8857  1.4311  0.4654
   31MOL0     H 4136   9.952   6.494   2.405  1.6126  2.4436 -0.7620
   31MOL0     H 4137  10.132   6.763   2.407  0.3686 -0.5149 -1.1145
   31MOL0     H 4138  10.120   6.827   2.573  0.4554 -0.4316 -0.2912
   31MOL0     H 4139  10.151   6.593   2.664 -0.1726  0.9831  1.0575
   31MOL0     H 4140  10.186   6.535   2.502  1.5955  0.5044 -0.1807
   31MOL0     H 4141  10.357   6.727   2.691 -3.5864  1.1951  0.9202
   31MOL0     H 4142  10.371   6.742   2.508  2.0830 -1.2615 -1.7979
   31MOL0     H 4143  10.439   6.509   2.510 -3.9123 -0.7445 -0.1961
   31MOL0     H 4144  10.368   6.481   2.668  0.1656 -0.4953 -0.0416
   31MOL0     H 4145  10.612   6.696   2.446 -0.1204  0.8308  1.4527
   31MOL0     H 4146  10.848   6.716   2.366  0.8820 -2.6363 -2.1363
   31MOL0     H 4147  11.345   6.559   2.379 -0.2232 -0.1672 -0.4161
   31MOL0     H 4148  11.515   6.597   2.205  0.2378 -0.1252  1.5701
   31MOL0     H 4149  11.359   6.697   1.809  0.6179 -1.7156 -1.4500
   31MOL0     H 4150  11.530   6.709   1.784 -1.1812  0.0382 -1.4013
   31MOL0     H 4151  11.360   6.479   1.867 -0.4075  2.5555  2.1589
   31MOL0     H 4152  11.455   6.508   1.706  1.2950  1.0352 -0.1038
   31MOL0     H 4153  11.652   6.516   1.861 -0.8896 -0.1288 -3.2095
   31MOL0     H 4154  11.559   6.411   1.985  0.7928 -0.2947 -0.1103
   31MOL0     H 4155  11.556   6.328   1.697 -0.7535 -0.1396  1.3933
   31MOL0     H 4156  11.543   6.247   1.845  1.5728  0.9601  2.9417
   31MOL0     H 4157  11.769   6.194   1.727  1.2961  1.5059 -2.0588
   31MOL0     H 4158  11.792   6.286   1.877  2.2418 -0.0018 -1.6538
   31MOL0     H 4159  11.793   6.399   1.586  0.0447 -1.0508  0.1769
   31MOL0     H 4160  11.823   6.497   1.733  0.4513 -0.7399  0.2090
   31MOL0     H 4161  11.990   6.250   1.670 -3.1870  0.4136 -2.4012
   31MOL0     H 4162  12.018   6.382   1.792 -2.4998  1.4934  0.1792
   31MOL0     H 4163  12.038   6.404   1.485  2.2812 -1.1298 -0.7399
   31MOL0     H 4164  12.042   6.538   1.603  2.1314  0.4151  1.9186
   31MOL0     H 4165  11.240   6.824   1.970  0.1282  1.3103  0.6644
   31MOL0     H 4166  11.066   6.793   2.158  0.4385  1.7385  2.7605
   31MOL0     H 4167  10.979   6.468   2.700  1.1229  0.5862  0.2557
   31MOL0     H 4168  10.738   6.467   2.786  2.3933  2.9310  2.1470
   31MOL0     H 4169   8.807   6.089   1.794  1.5500  0.2221 -2.5663
   31MOL0     H 4170   8.579   6.169   1.706 -0.9813 -0.0988 -1.2364
   31MOL0     H 4171   8.411   6.649   1.583  2.5128 -0.5999 -3.4676
   31MOL0     H 4172   8.194   6.754   1.558  0.2654  0.6503 -2.0478
   31MOL0     H 4173   8.001   6.837   1.425  0.5157  0.0872  0.4189
   31MOL0     H 4174   7.933   6.744   1.550 -2.1422 -0.9976 -0.5933
   31MOL0     H 4175   7.758   6.849   1.468  2.4280  1.0001  0.1593
   31MOL0     H 4176   7.738   6.679   1.433  0.2957  0.2908  0.1486
   31MOL0     H 4177   7.807   6.723   1.197  2.7807  0.3690  0.9320
   31MOL0     H 4178   7.801   6.899   1.219 -1.1122 -0.8519 -3.2645
   31MOL0     H 4179   7.573   6.708   1.248 -0.3678 -0.1085 -0.1573
   31MOL0     H 4180   7.562   6.879   1.282 -2.5030  0.0411 -1.7342
   31MOL0     H 4181   7.505   6.927   0.882  2.4147 -1.1814 -0.7224
   31MOL0     H 4182   8.057   6.414   1.339 -0.8517  3.2348 -0.1455
   31MOL0     H 4183   8.301   6.196   1.353  3.7215  0.9301  2.3981
   31MOL0     H 4184   8.267   6.191   1.530  0.5741 -3.8369 -0.9751
   31MOL0     H 4185   8.134   6.190   1.417 -0.0847 -1.6992  1.2290
   32MOL0     O 4186   2.232   7.208   6.107 -0.3827  0.6914  0.3443
   32MOL0     C 4187   2.194   7.137   6.202  0.3229 -0.2145  0.2725
   32MOL0     O 4188   2.256   7.025   6.242 -0.0569  0.3533 -0.6860
   32MOL0     C 4189   2.374   6.971   6.200  0.8340 -0.1373 -0.1036
   32MOL0     C 4190   2.486   7.044   6.157  1.2387  0.4894  0.0958
   32MOL0     C 4191   2.596   6.972   6.113  0.2503 -0.6329  0.1049
   32MOL0     C 4192   2.613   6.832   6.126  0.2216 -0.5267 -0.8710
   32MOL0     O 4193   2.738   6.780   6.104 -0.0792 -0.2710  0.0449
   32MOL0     C 4194   2.738   6.647   6.043 -0.9502 -0.5224  0.1515
   32MOL0     C 4195   2.880   6.611   6.004 -0.6780 -0.0555  0.4050
   32MOL0     C 4196   2.893   6.468   5.943 -0.8349  0.5697 -0.1264
   32MOL0     C 4197   3.044   6.431   5.911  0.3241  0.0300 -0.0650
   32MOL0     C 4198   3.068   6.283   5.895  0.0531  0.8478 -0.2550
   32MOL0     C 4199   3.205   6.259   5.833  0.3243 -0.7529 -1.1303
   32MOL0     C 4200   3.239   6.115   5.793  0.0460 -0.1161 -0.1483
   32MOL0     C 4201   3.370   6.108   5.717 -0.8043  0.6342  0.2883
   32MOL0     N 4202   3.495   6.144   5.790 -0.1542  0.1838  0.2237
   32MOL0     C 4203   3.570   6.263   5.777 -0.1421  0.1213  0.3986
   32MOL0     C 4204   3.636   6.278   5.893 -0.1489 -0.1491  0.5320
   32MOL0     C 4205   3.747   6.379   5.924 -0.0595  0.2041 -0.0002
   32MOL0     C 4206   3.871   6.328   5.845  0.1632  0.7685  0.6264
   32MOL0     C 4207   3.997   6.406   5.875 -0.0996  0.5594 -1.4210
   32MOL0     C 4208   4.120   6.332   5.839 -0.2097  0.4553  0.3669
   32MOL0     O 4209   4.223   6.425   5.863 -0.3767  0.1461  0.7329
   32MOL0     C 4210   4.347   6.383   5.895 -0.2525  0.2667 -0.2487
   32MOL0     C 4211   4.418   6.468   5.982 -0.4544  0.3113  0.4643
   32MOL0     C 4212   4.546   6.436   6.036 -0.1256  0.1653 -0.2603
   32MOL0     C 4213   4.593   6.305   6.003  0.1514 -0.6652 -0.1553
   32MOL0     C 4214   4.715   6.263   6.074 -0.0195  0.4534  1.0627
   32MOL0     O 4215   4.763   6.326   6.182 -0.8126  0.2907  0.1993
   32MOL0     C 4216   4.873   6.275   6.253  0.3565 -0.2487  0.4101
   32MOL0     C 4217   4.913   6.135   6.263  0.9553  0.3518 -0.5209
   32MOL0     C 4218   5.028   6.093   6.332  0.1433 -0.3953  0.1198
   32MOL0     C 4219   5.105   6.196   6.391  0.1988  0.6065  0.8911
   32MOL0     O 4220   5.203   6.155   6.479 -0.3001 -0.1772  0.2452
   32MOL0     C 4221   5.341   6.189   6.446  0.7695 -0.1710  0.2995
   32MOL0     C 4222   5.433   6.086   6.526 -0.3779 -0.2919  0.4725
   32MOL0     C 4223   5.425   6.090   6.675  0.7304 -0.2976  0.1532
   32MOL0     C 4224   5.502   5.989   6.768 -0.5710  0.0582 -0.1059
   32MOL0     C 4225   5.646   6.034   6.789 -0.1961  0.0671  0.0950
   32MOL0     C 4226   5.734   5.969   6.901  0.4974  0.4046  0.5037
   32MOL0     C 4227   5.823   6.072   6.964  0.5052 -0.8333 -0.0676
   32MOL0     C 4228   5.872   6.015   7.097  0.5097 -0.1304 -0.2844
   32MOL0    Cl 4229   5.983   6.124   7.181  0.0464 -0.0954 -0.2284
   32MOL0     C 4230   5.073   6.329   6.373  1.0205  0.8811 -0.3402
   32MOL0     C 4231   4.957   6.368   6.308 -0.4119  0.2454 -0.3180
   32MOL0     O 4232   4.769   6.167   6.024 -0.4288  0.7352 -0.0979
   32MOL0     C 4233   4.534   6.233   5.898  1.0288  0.4117 -0.0057
   32MOL0     C 4234   4.409   6.267   5.845  0.4296 -0.0015 -0.9971
   32MOL0     N 4235   3.611   6.173   5.975 -0.3925 -0.2853 -0.8089
   32MOL0     N 4236   3.531   6.095   5.908 -0.3557 -0.1942  0.1180
   32MOL0     C 4237   2.502   6.768   6.188  0.4726 -0.2248  0.0181
   32MOL0     C 4238   2.381   6.835   6.215  0.7113  0.2907 -0.0677
   32MOL0     C 4239   2.061   7.165   6.260  0.3806  0.3405  0.2979
   32MOL0     C 4240   1.985   7.255   6.183 -0.4649  0.5841  0.5798
   32MOL0     C 4241   1.844   7.264   6.199 -0.6655  1.5089  0.3601
   32MOL0     C 4242   1.781   7.202   6.301  0.8883  0.1563  0.5761
   32MOL0     O 4243   1.642   7.226   6.315 -0.0385  0.0398  0.4389
   32MOL0     C 4244   1.562   7.108   6.328  0.0157 -0.1719 -0.1871
   32MOL0     C 4245   1.412   7.128   6.278 -0.9489  0.0612 -0.2409
   32MOL0     C 4246   1.400   7.193   6.140  0.0406  0.7181  0.1379
   32MOL0     C 4247   1.491   7.131   6.029 -0.4402  0.9158  0.2210
   32MOL0     C 4248   1.435   7.151   5.901 -0.5266  0.4410  0.4238
   32MOL0     C 4249   1.412   7.182   5.782 -0.1362 -0.4776  0.1672
   32MOL0     C 4250   1.859   7.126   6.390 -0.3572  0.8815  0.2551
   32MOL0     C 4251   2.001   7.098   6.369  0.8913  0.0987  0.0889
   32MOL0     C 4252   2.073   7.015   6.475  0.3038 -1.1609 -0.3747
   32MOL0     H 4253   2.481   7.146   6.118 -1.1685 -0.0739 -1.2882
   32MOL0     H 4254   2.671   7.017   6.049  0.3021 -1.9926 -0.8347
   32MOL0     H 4255   2.695   6.568   6.105  1.4422 -2.1580 -0.1563
   32MOL0     H 4256   2.691   6.658   5.945 -0.3172  2.6204  0.1004
   32MOL0     H 4257   2.940   6.619   6.095  0.8812 -0.4796 -0.5430
   32MOL0     H 4258   2.914   6.688   5.935  0.3832 -0.8034  0.0771
   32MOL0     H 4259   2.840   6.465   5.847 -2.0487  3.8109  0.3080
   32MOL0     H 4260   2.845   6.406   6.020 -4.0246  1.9848 -0.7786
   32MOL0     H 4261   3.070   6.484   5.819 -0.7527 -1.7550 -1.4509
   32MOL0     H 4262   3.114   6.468   5.986 -1.7481 -0.2879  2.1595
   32MOL0     H 4263   3.069   6.228   5.990  1.7651 -1.7722 -1.6750
   32MOL0     H 4264   2.991   6.246   5.827 -1.2203  0.9244  1.0873
   32MOL0     H 4265   3.204   6.317   5.740  0.4292  0.1177 -0.6057
   32MOL0     H 4266   3.276   6.300   5.905 -1.3140  0.8167 -0.3146
   32MOL0     H 4267   3.159   6.081   5.726 -2.0808  3.2131  0.4752
   32MOL0     H 4268   3.249   6.048   5.879 -1.2628  2.6743  2.3523
   32MOL0     H 4269   3.374   6.017   5.657 -0.3911  0.5170  0.4863
   32MOL0     H 4270   3.344   6.184   5.644 -2.3414  1.3633  1.5226
   32MOL0     H 4271   3.580   6.320   5.685 -0.8835 -1.3579 -0.6413
   32MOL0     H 4272   3.704   6.478   5.906  1.5300  1.1348  1.1251
   32MOL0     H 4273   3.775   6.374   6.030 -1.4799  1.0083  0.4456
   32MOL0     H 4274   3.885   6.221   5.866 -0.3267  0.1680 -1.8393
   32MOL0     H 4275   3.838   6.338   5.741 -0.4402 -0.5705  0.6599
   32MOL0     H 4276   4.002   6.427   5.982  2.4891 -2.1333 -0.8739
   32MOL0     H 4277   3.985   6.504   5.828 -0.5491  0.5379 -1.3538
   32MOL0     H 4278   4.095   6.304   5.736 -1.2325  3.2210 -0.2092
   32MOL0     H 4279   4.132   6.242   5.899  1.3766  0.0002 -0.5823
   32MOL0     H 4280   4.375   6.567   5.993  0.7416  1.0199 -0.8893
   32MOL0     H 4281   4.603   6.494   6.108 -0.4453 -0.0599  0.1823
   32MOL0     H 4282   4.843   6.060   6.227  2.1412 -1.1662  0.1920
   32MOL0     H 4283   5.050   5.988   6.345  4.3604  0.2246 -0.4117
   32MOL0     H 4284   5.365   6.187   6.339  3.5463  0.6784  0.8238
   32MOL0     H 4285   5.363   6.289   6.486  0.8576 -0.0472 -0.0570
   32MOL0     H 4286   5.415   5.984   6.489 -1.6671  0.8846 -2.3713
   32MOL0     H 4287   5.539   6.105   6.508 -0.5550  2.5833  1.9660
   32MOL0     H 4288   5.460   6.192   6.695  0.3787  0.0541 -0.9410
   32MOL0     H 4289   5.320   6.079   6.705  0.7745 -0.7607  0.1333
   32MOL0     H 4290   5.500   5.886   6.732 -3.0744 -0.3032  0.8533
   32MOL0     H 4291   5.450   5.979   6.864 -1.0222 -0.7560 -0.4251
   32MOL0     H 4292   5.635   6.140   6.812 -1.9347 -0.3472  1.3789
   32MOL0     H 4293   5.697   6.020   6.694 -0.1244  0.8866  0.0095
   32MOL0     H 4294   5.668   5.928   6.978 -0.0112 -0.0947 -0.1842
   32MOL0     H 4295   5.792   5.883   6.866 -0.4731 -0.6212  1.3320
   32MOL0     H 4296   5.775   6.164   6.998  0.5123 -0.9567  0.2819
   32MOL0     H 4297   5.899   6.103   6.892 -1.0997  0.4687 -1.2695
   32MOL0     H 4298   5.785   6.010   7.162  1.0278  1.2657  0.5574
   32MOL0     H 4299   5.913   5.917   7.071  1.4389  0.7856 -2.5800
   32MOL0     H 4300   5.128   6.405   6.427 -0.7281  0.8596  1.5746
   32MOL0     H 4301   4.940   6.474   6.298 -1.9216  0.0914  0.3060
   32MOL0     H 4302   4.570   6.140   5.856  0.2254 -1.0717  2.3814
   32MOL0     H 4303   4.359   6.205   5.772 -0.4800  1.8578 -2.0259
   32MOL0     H 4304   2.510   6.666   6.223 -0.7928 -0.0730  0.8105
   32MOL0     H 4305   2.304   6.774   6.261  0.0517  1.1405 -0.0196
   32MOL0     H 4306   2.030   7.323   6.111 -0.9536  1.0290  0.6867
   32MOL0     H 4307   1.785   7.323   6.131 -1.4270  0.0488 -0.2870
   32MOL0     H 4308   1.571   7.070   6.431 -0.7456  0.0861 -0.0180
   32MOL0     H 4309   1.608   7.031   6.266  2.5158  0.8579  0.2309
   32MOL0     H 4310   1.353   7.191   6.345 -0.3359  0.7482 -0.3416
   32MOL0     H 4311   1.371   7.026   6.275  0.5991 -0.6499  1.1684
   32MOL0     H 4312   1.416   7.300   6.153 -3.0400  1.2175  0.5873
   32MOL0     H 4313   1.294   7.181   6.113  0.2819  0.6286 -0.8035
   32MOL0     H 4314   1.592   7.174   6.033  0.2712 -0.7625  2.6821
   32MOL0     H 4315   1.494   7.025   6.055  1.2972  0.3252 -2.0822
   32MOL0     H 4316   1.411   7.223   5.683  2.9572 -2.5746 -0.9024
   32MOL0     H 4317   1.820   7.073   6.477  2.2353 -1.3678  0.1799
   32MOL0     H 4318   2.014   7.003   6.566 -0.7217 -0.5426 -0.9372
   32MOL0     H 4319   2.107   6.913   6.457  0.3184 -1.1551 -0.3811
   32MOL0     H 4320   2.162   7.065   6.513  1.3610 -3.8614  0.9429
   33MOL0     O 4321   6.920  10.733   1.163 -0.1500  0.2740  0.0341
   33MOL0     C 4322   6.925  10.759   1.043 -0.1416  0.4374  0.8594
   33MOL0     O 4323   7.040  10.756   0.961  0.3492  0.3040  0.1138
   33MOL0     C 4324   7.159  10.704   1.013 -0.4171  0.3279 -2.0754
   33MOL0     C 4325   7.166  10.563   1.030  0.4870 -0.3791  0.2575
   33MOL0     C 4326   7.278  10.502   1.079 -0.0068 -0.3351  0.3626
   33MOL0     C 4327   7.401  10.574   1.107 -0.3846 -0.6074  0.4818
   33MOL0     O 4328   7.504  10.499   1.169 -0.3692 -0.1796  0.1029
   33MOL0     C 4329   7.621  10.578   1.216 -0.1325  0.0462 -0.7070
   33MOL0     C 4330   7.742  10.483   1.197 -0.4394  1.3058  0.1769
   33MOL0     C 4331   7.885  10.531   1.240  0.1141  0.6765  0.8734
   33MOL0     C 4332   7.891  10.596   1.378 -0.0735  0.1520  1.1868
   33MOL0     C 4333   8.030  10.592   1.437  0.7668  0.2395  0.1973
   33MOL0     C 4334   8.114  10.700   1.358  0.1742  0.3035 -0.0840
   33MOL0     C 4335   8.258  10.683   1.402 -0.7288  0.2335  0.9743
   33MOL0     C 4336   8.294  10.714   1.543 -0.4736  0.8568 -0.5103
   33MOL0     N 4337   8.443  10.730   1.554 -0.4485  0.2950  0.5370
   33MOL0     C 4338   8.492  10.857   1.563  0.8131 -0.0484 -0.3482
   33MOL0     C 4339   8.611  10.838   1.610  0.5216  0.2263  0.6027
   33MOL0     C 4340   8.700  10.959   1.642 -0.1268  0.1047 -0.3137
   33MOL0     C 4341   8.774  10.989   1.514  0.4974 -0.5077  0.4349
   33MOL0     C 4342   8.858  10.882   1.444  0.0389  0.0988 -0.4752
   33MOL0     C 4343   8.976  10.825   1.520 -0.0402  0.3832  0.2362
   33MOL0     O 4344   9.058  10.927   1.561 -0.8722 -0.4617 -0.0357
   33MOL0     C 4345   9.157  10.912   1.659  0.5729 -0.4286 -0.3297
   33MOL0     C 4346   9.200  10.790   1.722 -1.1936  0.5844  0.1210
   33MOL0     C 4347   9.316  10.794   1.798  0.3418 -0.6611 -0.0271
   33MOL0     C 4348   9.379  10.925   1.831  0.7868 -0.7888  1.3273
   33MOL0     C 4349   9.490  10.922   1.925 -0.2929  0.2827  0.3447
   33MOL0     O 4350   9.574  10.809   1.928  0.7125 -1.1276 -0.3923
   33MOL0     C 4351   9.693  10.821   1.988 -0.8977  0.2449  0.0385
   33MOL0     C 4352   9.756  10.708   2.039  0.4914  0.8135 -0.2812
   33MOL0     C 4353   9.892  10.712   2.062  0.1932 -0.6355  0.2504
   33MOL0     C 4354   9.969  10.829   2.046 -0.3801  0.0531 -0.2819
   33MOL0     O 4355  10.098  10.819   2.090 -0.5961  0.5229  0.7329
   33MOL0     C 4356  10.163  10.929   2.152  0.2959 -0.2168  0.0358
   33MOL0     C 4357  10.289  10.891   2.224  0.2811 -0.2565 -0.2763
   33MOL0     C 4358  10.341  11.023   2.278 -0.0087  0.0737 -0.8353
   33MOL0     C 4359  10.477  11.069   2.239 -0.1750  0.2587  0.6814
   33MOL0     C 4360  10.553  11.162   2.341  0.5896  0.1862 -0.6371
   33MOL0     C 4361  10.671  11.240   2.274 -0.1399 -0.6138  0.7139
   33MOL0     C 4362  10.761  11.293   2.382  0.2411 -0.4478  0.0157
   33MOL0     C 4363  10.882  11.369   2.333 -0.6918 -0.1840  0.0778
   33MOL0    Cl 4364  10.983  11.411   2.467 -0.4767 -0.0154 -0.0445
   33MOL0     C 4365   9.908  10.949   1.994 -0.1266  0.9221  0.0597
   33MOL0     C 4366   9.774  10.937   1.960 -0.1767  0.4931 -0.1006
   33MOL0     O 4367   9.509  11.025   1.992  0.9254  0.1881  0.0077
   33MOL0     C 4368   9.324  11.039   1.777  0.1953 -0.0304  0.5565
   33MOL0     C 4369   9.217  11.033   1.697  0.8140 -0.1975  0.3507
   33MOL0     N 4370   8.642  10.697   1.613 -0.4728 -0.0759 -1.2619
   33MOL0     N 4371   8.534  10.632   1.583  0.1010  0.2926  0.3524
   33MOL0     C 4372   7.399  10.712   1.089 -0.2418  0.7826  0.7631
   33MOL0     C 4373   7.282  10.778   1.047 -0.9629 -0.4570  0.4345
   33MOL0     C 4374   6.799  10.789   0.975  0.3172  0.0914 -0.2233
   33MOL0     C 4375   6.686  10.832   1.048 -0.6697 -0.1082  0.2241
   33MOL0     C 4376   6.565  10.865   0.985 -0.6156  1.1868  0.3237
   33MOL0     C 4377   6.547  10.862   0.846 -0.3063 -0.8704 -0.1060
   33MOL0     O 4378   6.432  10.907   0.785 -0.2453  0.2475  0.4778
   33MOL0     C 4379   6.348  10.828   0.700 -0.1717 -0.2217 -0.8255
   33MOL0     C 4380   6.210  10.806   0.764  0.2371  0.2301 -1.0214
   33MOL0     C 4381   6.113  10.741   0.665 -0.4523 -0.2668  0.1922
   33MOL0     C 4382   5.969  10.769   0.707 -0.2099 -0.1998  0.1651
   33MOL0     C 4383   5.870  10.728   0.601 -0.3087  0.3964  0.4437
   33MOL0     C 4384   5.794  10.679   0.523 -0.3651  0.4321  0.0425
   33MOL0     C 4385   6.653  10.820   0.773  0.1042  0.1364  0.5243
   33MOL0     C 4386   6.779  10.785   0.832 -0.4696 -1.0897  0.8795
   33MOL0     C 4387   6.870  10.718   0.727 -0.2280  0.0489 -0.0548
   33MOL0     H 4388   7.083  10.498   1.002  0.9307 -0.0543 -2.0516
   33MOL0     H 4389   7.262  10.399   1.109  0.3291 -0.7474 -0.7947
   33MOL0     H 4390   7.654  10.667   1.162 -0.5593  1.4203  1.2047
   33MOL0     H 4391   7.609  10.614   1.319 -0.2055  2.0482 -1.3808
   33MOL0     H 4392   7.756  10.458   1.091 -1.0539 -3.6705  1.0514
   33MOL0     H 4393   7.723  10.392   1.254 -0.8747  2.7520  2.4918
   33MOL0     H 4394   7.902  10.615   1.172 -2.8832  0.1288 -0.7173
   33MOL0     H 4395   7.958  10.450   1.227 -1.1862 -0.4015  0.0294
   33MOL0     H 4396   7.855  10.699   1.371  0.3434  0.6781  4.7254
   33MOL0     H 4397   7.814  10.543   1.435 -1.2194  0.6058  0.0911
   33MOL0     H 4398   8.018  10.622   1.541 -1.0050  1.7825 -0.3974
   33MOL0     H 4399   8.079  10.494   1.436  0.4881  0.0975  0.4071
   33MOL0     H 4400   8.099  10.685   1.250  0.1501 -1.2972  0.1231
   33MOL0     H 4401   8.074  10.799   1.382 -0.3904 -0.4616  2.3285
   33MOL0     H 4402   8.318  10.744   1.335  0.5551 -1.1115  0.8584
   33MOL0     H 4403   8.285  10.580   1.377  0.8090  1.0722 -0.9679
   33MOL0     H 4404   8.243  10.803   1.580  0.0359  0.2433  1.8837
   33MOL0     H 4405   8.275  10.622   1.599  4.0642 -0.5274 -0.7824
   33MOL0     H 4406   8.432  10.947   1.561 -0.3762 -0.7281  1.5437
   33MOL0     H 4407   8.643  11.043   1.683  0.7640  0.2092  0.7332
   33MOL0     H 4408   8.775  10.940   1.719  0.6252  1.0480 -0.7806
   33MOL0     H 4409   8.701  11.019   1.439 -1.3673  3.8481  3.5754
   33MOL0     H 4410   8.846  11.069   1.534  0.5291 -0.1877 -0.8581
   33MOL0     H 4411   8.898  10.933   1.356  0.5356  1.1679  0.3545
   33MOL0     H 4412   8.789  10.803   1.415  1.6199 -1.6933  0.3672
   33MOL0     H 4413   9.021  10.769   1.438 -1.8453  0.8842 -1.1571
   33MOL0     H 4414   8.935  10.762   1.600 -0.8419 -2.2698 -2.1058
   33MOL0     H 4415   9.160  10.695   1.692  1.6502 -1.9419  3.4220
   33MOL0     H 4416   9.357  10.700   1.832  1.5613  0.2666  1.1639
   33MOL0     H 4417   9.697  10.618   2.054  1.4178  0.2089 -0.1609
   33MOL0     H 4418   9.948  10.622   2.087  2.2986 -0.1195 -2.1681
   33MOL0     H 4419  10.201  10.994   2.073 -0.6690  0.6130  0.2269
   33MOL0     H 4420  10.098  10.989   2.217  2.0128  0.8631  0.8381
   33MOL0     H 4421  10.256  10.816   2.296 -2.3519 -1.2934 -2.4058
   33MOL0     H 4422  10.361  10.851   2.152 -0.1315  1.5313 -1.7546
   33MOL0     H 4423  10.265  11.102   2.283 -0.6581 -0.2958 -3.4378
   33MOL0     H 4424  10.365  11.011   2.384 -1.3555  0.7923 -0.4269
   33MOL0     H 4425  10.462  11.122   2.145 -1.3071 -0.1608  0.6031
   33MOL0     H 4426  10.536  10.979   2.223 -0.0743  0.4358  0.0532
   33MOL0     H 4427  10.589  11.091   2.416 -0.2258 -2.2631 -2.4251
   33MOL0     H 4428  10.482  11.232   2.388  1.6990  0.6496  0.4212
   33MOL0     H 4429  10.724  11.177   2.203 -0.2929 -0.2325  0.2567
   33MOL0     H 4430  10.629  11.327   2.223 -0.4481 -0.2090  1.6286
   33MOL0     H 4431  10.786  11.205   2.441  0.1543 -0.3315  0.2276
   33MOL0     H 4432  10.710  11.372   2.438 -1.2240 -1.8071  0.6632
   33MOL0     H 4433  10.947  11.304   2.273 -0.6499  0.8959 -1.0913
   33MOL0     H 4434  10.858  11.459   2.275 -0.8870  0.4873  1.1713
   33MOL0     H 4435   9.967  11.037   1.973  2.6944 -0.5965  1.0542
   33MOL0     H 4436   9.735  11.028   1.915  2.0959  1.4275 -0.2765
   33MOL0     H 4437   9.358  11.138   1.807 -0.4688 -0.0349  1.3680
   33MOL0     H 4438   9.180  11.121   1.645  1.4802 -0.1223 -0.0107
   33MOL0     H 4439   7.481  10.777   1.119  0.7503 -0.5347  1.0181
   33MOL0     H 4440   7.289  10.883   1.020  0.2606 -0.8001 -0.7066
   33MOL0     H 4441   6.690  10.848   1.155  2.7350 -0.0306  0.1747
   33MOL0     H 4442   6.475  10.882   1.043 -0.8630  1.3233 -0.0973
   33MOL0     H 4443   6.386  10.730   0.670 -1.0587 -0.5352 -0.9747
   33MOL0     H 4444   6.341  10.890   0.610  1.2239  0.4276 -0.5190
   33MOL0     H 4445   6.178  10.903   0.802  2.0762  0.2600  0.6161
   33MOL0     H 4446   6.210  10.743   0.854 -3.8538  0.7967 -0.4444
   33MOL0     H 4447   6.125  10.632   0.668 -0.1632 -0.3328 -1.9055
   33MOL0     H 4448   6.135  10.772   0.562  1.0383 -0.9183  0.2858
   33MOL0     H 4449   5.941  10.699   0.786  0.9168 -0.4612  0.3540
   33MOL0     H 4450   5.955  10.876   0.725  1.1326 -0.2738  1.9140
   33MOL0     H 4451   5.715  10.631   0.470  0.1950  3.5021 -3.9863
   33MOL0     H 4452   6.642  10.820   0.665  1.9375 -2.5705  0.2355
   33MOL0     H 4453   6.820  10.695   0.632 -0.6234  2.1454 -0.4089
   33MOL0     H 4454   6.950  10.787   0.702  0.8483 -1.3331 -0.5649
   33MOL0     H 4455   6.909  10.624   0.768  0.7563  0.8104  0.7757
   34MOL0     O 4456   9.771   0.876  11.273 -0.2126  0.1517  0.5365
   34MOL0     C 4457   9.723   0.879  11.383 -0.6967 -0.0151 -0.1166
   34MOL0     O 4458   9.780   0.838  11.503  0.5952  0.7317 -0.3403
   34MOL0     C 4459   9.907   0.782  11.485  0.2138 -0.4910 -0.5876
   34MOL0     C 4460   9.923   0.655  11.435  0.5211  0.1368 -0.9695
   34MOL0     C 4461  10.052   0.607  11.409  0.6352  0.5688 -0.0621
   34MOL0     C 4462  10.162   0.686  11.422 -0.8116  1.1424  0.1895
   34MOL0     O 4463  10.282   0.637  11.369  0.4649  0.0317 -1.1839
   34MOL0     C 4464  10.387   0.730  11.380 -1.4426 -0.0067  0.2310
   34MOL0     C 4465  10.513   0.656  11.336  0.1050  0.2680 -0.4616
   34MOL0     C 4466  10.555   0.567  11.451 -0.9547  0.7709 -0.5235
   34MOL0     C 4467  10.666   0.473  11.398 -0.5076 -0.1467 -0.2615
   34MOL0     C 4468  10.730   0.388  11.519 -0.2758 -0.8212  1.2566
   34MOL0     C 4469  10.878   0.355  11.496 -0.5009 -0.2192 -0.3242
   34MOL0     C 4470  10.958   0.325  11.628  0.8566  0.3133  0.7674
   34MOL0     C 4471  11.104   0.277  11.588  0.8078 -0.8258 -0.3467
   34MOL0     N 4472  11.108   0.156  11.506 -0.3537  0.0169 -0.3477
   34MOL0     C 4473  11.035   0.046  11.536  0.4525  0.1009 -1.2930
   34MOL0     C 4474  11.047  -0.027  11.427  0.9362  0.0078  0.7987
   34MOL0     C 4475  10.993  -0.168  11.403  0.4993  0.5362 -0.8335
   34MOL0     C 4476  11.079  -0.290  11.447 -0.5397  0.0253 -0.3176
   34MOL0     C 4477  11.155  -0.337  11.324 -0.0824 -0.2874  0.4667
   34MOL0     C 4478  11.245  -0.464  11.337 -0.0859  0.7155 -0.4211
   34MOL0     O 4479  11.348  -0.432  11.422 -0.0616  1.2727  0.2795
   34MOL0     C 4480  11.457  -0.357  11.375  0.1979  0.5540  0.4003
   34MOL0     C 4481  11.487  -0.337  11.246 -0.8473 -0.6264  0.5279
   34MOL0     C 4482  11.598  -0.262  11.208  0.3112 -0.2438 -0.5710
   34MOL0     C 4483  11.675  -0.193  11.302  0.2555 -0.2523  0.5704
   34MOL0     C 4484  11.778  -0.093  11.254 -0.2091 -0.0726  0.0863
   34MOL0     O 4485  11.852  -0.023  11.349  0.7724 -0.1960 -0.1384
   34MOL0     C 4486  11.937   0.076  11.307  0.1168 -0.7456  0.1953
   34MOL0     C 4487  12.074   0.051  11.318  0.1619  0.0817  0.9086
   34MOL0     C 4488  12.166   0.146  11.279 -0.4387 -0.3601 -0.9057
   34MOL0     C 4489  12.121   0.271  11.239  0.0034 -0.2326 -0.3573
   34MOL0     O 4490  12.228   0.350  11.211  0.0179 -0.0917  0.3489
   34MOL0     C 4491  12.224   0.492  11.230 -0.0671 -0.3609 -0.1563
   34MOL0     C 4492  12.222   0.528  11.384 -0.6482  0.2692  0.5019
   34MOL0     C 4493  12.229   0.680  11.399 -0.1032 -0.5790 -0.3659
   34MOL0     C 4494  12.356   0.745  11.359  0.1642  0.7455  0.2777
   34MOL0     C 4495  12.359   0.891  11.403 -0.8059  0.3144 -0.0122
   34MOL0     C 4496  12.501   0.939  11.369  0.6399  0.8635 -0.4839
   34MOL0     C 4497  12.528   1.087  11.383  0.7398  0.1369  0.0548
   34MOL0     C 4498  12.675   1.122  11.401  0.1758  0.3117  0.4706
   34MOL0    Cl 4499  12.700   1.302  11.406 -0.0988  0.1413  0.3373
   34MOL0     C 4500  11.981   0.306  11.245  0.6175 -0.0090  0.6443
   34MOL0     C 4501  11.891   0.205  11.273 -0.3969 -0.2695 -0.3348
   34MOL0     O 4502  11.796  -0.076  11.133  0.0160  0.1501  0.0765
   34MOL0     C 4503  11.641  -0.214  11.438 -0.2311 -0.8077  1.3045
   34MOL0     C 4504  11.538  -0.296  11.469 -0.2965  0.2444 -1.0445
   34MOL0     N 4505  11.115   0.045  11.331  0.2715  0.5341 -0.4974
   34MOL0     N 4506  11.151   0.155  11.378 -1.2170  0.6718  0.8065
   34MOL0     C 4507  10.145   0.811  11.484 -0.5591  0.4843 -0.1466
   34MOL0     C 4508  10.018   0.863  11.511  0.0267  0.2860 -0.1794
   34MOL0     C 4509   9.574   0.901  11.396 -0.5943  0.6019  0.5443
   34MOL0     C 4510   9.503   0.833  11.495  0.0635  0.8009 -0.0465
   34MOL0     C 4511   9.372   0.872  11.527 -0.9559  0.1088 -1.5961
   34MOL0     C 4512   9.298   0.956  11.452 -0.1450 -0.9398 -0.4825
   34MOL0     O 4513   9.168   0.979  11.488  0.7023 -0.4977  0.3508
   34MOL0     C 4514   9.067   1.036  11.403  0.2425  0.1068  0.5223
   34MOL0     C 4515   9.000   0.925  11.308 -0.7330 -1.1031 -0.1801
   34MOL0     C 4516   8.857   0.976  11.272  0.1637 -0.6048 -0.0589
   34MOL0     C 4517   8.853   1.114  11.201  0.2075  0.4864  0.8712
   34MOL0     C 4518   8.952   1.114  11.087 -1.0920 -0.4816 -0.5990
   34MOL0     C 4519   9.041   1.100  11.007  1.1195 -0.5238 -0.0804
   34MOL0     C 4520   9.368   1.024  11.355 -0.1759 -0.1190  0.5906
   34MOL0     C 4521   9.505   1.001  11.322 -0.6904  0.4199 -0.4387
   34MOL0     C 4522   9.571   1.094  11.220  0.1406  0.2618  0.1910
   34MOL0     H 4523   9.840   0.588  11.413 -2.8138  3.6479 -0.1019
   34MOL0     H 4524  10.071   0.509  11.368 -0.5910  0.9571 -1.6365
   34MOL0     H 4525  10.363   0.818  11.318  0.8072 -0.4248 -1.3643
   34MOL0     H 4526  10.407   0.765  11.481 -2.6218  0.8049  0.2089
   34MOL0     H 4527  10.594   0.726  11.314 -0.2802  1.1548  0.7912
   34MOL0     H 4528  10.482   0.605  11.245 -0.7789 -0.9479  0.4776
   34MOL0     H 4529  10.475   0.504  11.492  1.8853 -1.1519  2.6255
   34MOL0     H 4530  10.606   0.623  11.530  1.2702  0.1087 -1.4010
   34MOL0     H 4531  10.636   0.403  11.320 -2.3235 -2.2651  2.1475
   34MOL0     H 4532  10.740   0.544  11.361 -1.1140  1.8186  2.0710
   34MOL0     H 4533  10.731   0.450  11.608 -1.4201  3.2086 -1.2899
   34MOL0     H 4534  10.670   0.298  11.538  0.2744 -1.4256  0.2613
   34MOL0     H 4535  10.890   0.274  11.423  0.3584 -1.3375  1.0176
   34MOL0     H 4536  10.920   0.452  11.467  1.0113 -0.5126  0.7540
   34MOL0     H 4537  10.913   0.235  11.670 -0.4525 -0.7395 -2.5566
   34MOL0     H 4538  10.969   0.411  11.695  3.6904  2.2785 -1.9145
   34MOL0     H 4539  11.170   0.358  11.554  0.9564 -0.3791  0.9278
   34MOL0     H 4540  11.144   0.243  11.684 -0.7208  1.7705  1.3242
   34MOL0     H 4541  10.977   0.008  11.619 -0.8609 -2.7073 -3.3309
   34MOL0     H 4542  10.898  -0.164  11.457  0.8976  2.2859 -0.1661
   34MOL0     H 4543  10.971  -0.179  11.297  2.1426 -1.7161 -1.0083
   34MOL0     H 4544  11.145  -0.267  11.531  0.7614  2.1856 -1.8492
   34MOL0     H 4545  10.998  -0.362  11.459 -0.7139  0.4172  0.9232
   34MOL0     H 4546  11.209  -0.257  11.273  0.0605 -0.2253  0.7090
   34MOL0     H 4547  11.076  -0.362  11.252  0.3765  1.5198 -0.7203
   34MOL0     H 4548  11.275  -0.518  11.247 -0.4181 -1.3126  0.6100
   34MOL0     H 4549  11.169  -0.527  11.384  0.6336  0.6461  0.7063
   34MOL0     H 4550  11.438  -0.396  11.170 -3.3431 -0.8737  2.2308
   34MOL0     H 4551  11.610  -0.238  11.102 -0.5556  3.0501 -0.0249
   34MOL0     H 4552  12.116  -0.046  11.340  0.3924 -0.1873 -0.6551
   34MOL0     H 4553  12.272   0.124  11.268 -0.4853 -0.3007 -1.5020
   34MOL0     H 4554  12.305   0.547  11.183  0.9049 -1.9293 -0.3878
   34MOL0     H 4555  12.134   0.542  11.193 -1.0653 -1.4342  0.7108
   34MOL0     H 4556  12.128   0.497  11.431 -1.6447  0.3858 -1.3363
   34MOL0     H 4557  12.304   0.476  11.435  2.2714  1.9861 -2.0754
   34MOL0     H 4558  12.143   0.717  11.342 -0.1439 -0.1508 -0.0314
   34MOL0     H 4559  12.210   0.708  11.503 -1.5699  0.7397 -0.9447
   34MOL0     H 4560  12.369   0.736  11.250 -2.7555 -0.5906 -0.0815
   34MOL0     H 4561  12.434   0.686  11.406  0.0184  0.9399  0.7636
   34MOL0     H 4562  12.338   0.901  11.509  1.0617  0.3721  0.3795
   34MOL0     H 4563  12.281   0.953  11.356  1.5569  3.6797  0.1518
   34MOL0     H 4564  12.582   0.882  11.414  0.5631 -0.6233 -2.1141
   34MOL0     H 4565  12.513   0.916  11.263  1.1037 -1.4559  0.0366
   34MOL0     H 4566  12.479   1.129  11.472 -0.9156 -1.0804 -0.2315
   34MOL0     H 4567  12.490   1.135  11.292 -0.2622 -2.4182 -0.9580
   34MOL0     H 4568  12.704   1.069  11.492 -0.5318 -0.8848  0.0261
   34MOL0     H 4569  12.729   1.078  11.317 -0.1972  2.0591 -0.7425
   34MOL0     H 4570  11.955   0.408  11.221  2.1848  0.6566  1.5865
   34MOL0     H 4571  11.786   0.227  11.286 -0.2719 -0.3075  0.7600
   34MOL0     H 4572  11.716  -0.175  11.506  2.6033  0.0691 -2.0177
   34MOL0     H 4573  11.520  -0.318  11.573 -1.0149  0.3373 -1.1473
   34MOL0     H 4574  10.226   0.881  11.497 -0.5889  0.6256 -0.7104
   34MOL0     H 4575   9.997   0.960  11.555 -2.3860  0.6016 -1.8434
   34MOL0     H 4576   9.547   0.749  11.549  0.2364  0.9360  0.0229
   34MOL0     H 4577   9.323   0.816  11.606  1.0638  0.3690 -0.0653
   34MOL0     H 4578   9.119   1.112  11.345  4.8995 -2.0526  1.3623
   34MOL0     H 4579   8.989   1.079  11.467  1.3022  1.1421  1.1652
   34MOL0     H 4580   8.991   0.832  11.364  4.7642 -0.2940  2.7835
   34MOL0     H 4581   9.065   0.914  11.221 -0.3018  2.5174 -0.4636
   34MOL0     H 4582   8.792   0.974  11.360  0.4432  4.0761  0.4911
   34MOL0     H 4583   8.819   0.898  11.205  1.4723 -0.8771 -0.5146
   34MOL0     H 4584   8.749   1.130  11.171  1.1896  3.7476 -1.3078
   34MOL0     H 4585   8.874   1.199  11.266  2.3031  2.1025 -1.7149
   34MOL0     H 4586   9.108   1.092  10.925 -2.2952  2.3486 -3.5378
   34MOL0     H 4587   9.309   1.094  11.297 -2.6978 -0.9624  1.9853
   34MOL0     H 4588   9.570   1.047  11.121 -3.6868  0.1974  0.1173
   34MOL0     H 4589   9.518   1.189  11.224  3.0928  2.1104 -1.2997
   34MOL0     H 4590   9.666   1.132  11.257 -0.0711  0.6142  0.3787
   35MOL0     O 4591   4.516   3.051   6.019  0.5864 -0.2410  1.1076
   35MOL0     C 4592   4.571   3.068   6.124 -0.3760  0.0416  0.2617
   35MOL0     O 4593   4.684   3.006   6.165 -0.2288  0.0282 -0.2113
   35MOL0     C 4594   4.766   2.944   6.069 -0.3542  0.4301  0.2447
   35MOL0     C 4595   4.729   2.834   5.993  0.1141 -0.6914  0.4849
   35MOL0     C 4596   4.822   2.767   5.912  0.5487 -0.2516 -0.5532
   35MOL0     C 4597   4.962   2.799   5.921  0.8963 -0.8490  0.4669
   35MOL0     O 4598   5.057   2.732   5.849  0.4729  0.1605  0.3559
   35MOL0     C 4599   5.082   2.803   5.720 -0.5123  0.3358  0.2779
   35MOL0     C 4600   5.222   2.786   5.684 -0.7942  0.6947  0.0675
   35MOL0     C 4601   5.329   2.855   5.777  0.3142 -0.2784  0.1865
   35MOL0     C 4602   5.458   2.884   5.700  0.6242 -0.0310  0.2136
   35MOL0     C 4603   5.526   3.007   5.757  0.0899 -0.2477 -0.3423
   35MOL0     C 4604   5.658   3.034   5.705 -0.6499 -1.1417  0.6167
   35MOL0     C 4605   5.709   3.170   5.782 -0.0532  0.0674  0.2903
   35MOL0     C 4606   5.847   3.213   5.722  0.0969 -0.2233  0.3427
   35MOL0     N 4607   5.854   3.363   5.748 -1.0567  0.8604 -1.2955
   35MOL0     C 4608   5.807   3.470   5.677 -0.1543  0.2186  0.5576
   35MOL0     C 4609   5.836   3.581   5.742  0.3919 -0.4760 -0.7550
   35MOL0     C 4610   5.789   3.727   5.716  0.5236  0.5372 -0.3133
   35MOL0     C 4611   5.910   3.811   5.694 -0.1630 -0.5359  0.6470
   35MOL0     C 4612   5.875   3.950   5.643  0.2777  0.6054  0.2012
   35MOL0     C 4613   6.000   4.023   5.602  0.7500  0.0443 -0.0983
   35MOL0     O 4614   5.972   4.154   5.544  0.1329  0.5766  0.4644
   35MOL0     C 4615   6.078   4.231   5.489  0.0085  0.2392 -0.8347
   35MOL0     C 4616   6.044   4.323   5.393  0.2421 -0.1457  0.2409
   35MOL0     C 4617   6.150   4.393   5.323  0.0280  0.0590 -0.1032
   35MOL0     C 4618   6.287   4.367   5.348  0.1886  0.2621  0.7359
   35MOL0     C 4619   6.389   4.436   5.264  0.0027 -0.5865  0.7915
   35MOL0     O 4620   6.517   4.379   5.261  0.3675  0.3693  0.4775
   35MOL0     C 4621   6.607   4.448   5.185 -0.2720 -0.3145  0.0688
   35MOL0     C 4622   6.647   4.395   5.064  0.3481  0.4436  0.2969
   35MOL0     C 4623   6.740   4.462   4.982 -0.7743  0.3515  0.5214
   35MOL0     C 4624   6.804   4.578   5.018 -0.0305 -0.0562 -0.0326
   35MOL0     O 4625   6.902   4.639   4.952 -0.1798 -0.5831  0.2860
   35MOL0     C 4626   6.865   4.766   4.893 -0.2073 -0.0333 -0.5051
   35MOL0     C 4627   6.989   4.834   4.833 -0.0519  0.5803 -0.4664
   35MOL0     C 4628   7.052   4.767   4.715  0.6259  0.5205  0.2189
   35MOL0     C 4629   7.182   4.826   4.666  0.6184 -0.8193 -0.6954
   35MOL0     C 4630   7.194   4.810   4.516 -0.4796  0.2822 -0.0595
   35MOL0     C 4631   7.287   4.909   4.451 -0.2465 -0.5484 -0.4510
   35MOL0     C 4632   7.285   4.892   4.297  0.6994  0.2616  0.2460
   35MOL0     C 4633   7.400   4.968   4.240 -0.0489  0.3591 -0.2722
   35MOL0    Cl 4634   7.418   5.131   4.302 -0.4970 -0.2981 -0.2025
   35MOL0     C 4635   6.764   4.623   5.145 -0.1886 -0.4265 -0.6177
   35MOL0     C 4636   6.679   4.565   5.229  0.0337  0.6123 -0.5688
   35MOL0     O 4637   6.354   4.539   5.210  0.7953 -0.3293 -0.4616
   35MOL0     C 4638   6.315   4.274   5.454  0.0609  0.0215  0.7503
   35MOL0     C 4639   6.212   4.205   5.520  0.0522 -0.2017  0.2014
   35MOL0     N 4640   5.911   3.542   5.847 -0.4569  0.0760 -0.6860
   35MOL0     N 4641   5.919   3.411   5.856  0.6795 -0.2733 -0.2723
   35MOL0     C 4642   4.994   2.911   6.001 -0.2268  0.4172 -0.1242
   35MOL0     C 4643   4.898   2.979   6.069  0.2360  0.1435 -0.3230
   35MOL0     C 4644   4.516   3.145   6.234  0.1895 -0.2767 -0.4636
   35MOL0     C 4645   4.583   3.266   6.273  0.2300 -0.6782  0.0024
   35MOL0     C 4646   4.529   3.345   6.378 -0.0959 -0.3293 -0.0949
   35MOL0     C 4647   4.404   3.314   6.437  0.1023 -0.3434 -0.1085
   35MOL0     O 4648   4.352   3.413   6.505  0.5629 -0.0742  0.0674
   35MOL0     C 4649   4.332   3.392   6.643 -0.4888 -0.9335  0.6907
   35MOL0     C 4650   4.415   3.514   6.702 -0.7115 -0.3461 -0.8532
   35MOL0     C 4651   4.415   3.517   6.856 -0.3789 -0.3647 -0.2023
   35MOL0     C 4652   4.435   3.653   6.923  0.8811  0.5652 -0.2944
   35MOL0     C 4653   4.329   3.749   6.898 -0.5710  0.5115  0.4195
   35MOL0     C 4654   4.218   3.795   6.871  0.2684 -0.2803 -0.4961
   35MOL0     C 4655   4.332   3.199   6.386 -0.0052  1.0763 -0.0785
   35MOL0     C 4656   4.390   3.118   6.291 -0.5518 -0.1066 -0.7492
   35MOL0     C 4657   4.332   2.982   6.263 -0.0618 -0.6077  0.0628
   35MOL0     H 4658   4.623   2.810   5.998  0.1408 -1.3548 -1.4204
   35MOL0     H 4659   4.790   2.679   5.858 -2.6726  0.0993  0.5705
   35MOL0     H 4660   5.028   2.751   5.640  1.4215  0.5980 -1.2812
   35MOL0     H 4661   5.037   2.902   5.723 -4.1792 -1.1982  0.4780
   35MOL0     H 4662   5.227   2.831   5.585 -0.5654  0.7861  0.1188
   35MOL0     H 4663   5.248   2.680   5.674  0.9129  1.2576 -2.1094
   35MOL0     H 4664   5.346   2.788   5.862 -2.0667 -0.6370  0.4275
   35MOL0     H 4665   5.278   2.950   5.795  1.9097  2.1979 -6.0402
   35MOL0     H 4666   5.510   2.788   5.700 -0.2689 -0.5296 -0.6044
   35MOL0     H 4667   5.438   2.904   5.594  3.2891  3.1065  0.1405
   35MOL0     H 4668   5.465   3.095   5.736  0.5269  0.9890  2.9773
   35MOL0     H 4669   5.552   2.995   5.863  0.7097 -0.8362 -0.5558
   35MOL0     H 4670   5.723   2.947   5.722  1.5353  0.2809  0.0284
   35MOL0     H 4671   5.668   3.055   5.598 -1.4978 -0.1641  0.7082
   35MOL0     H 4672   5.721   3.141   5.887 -1.4242 -3.4736 -0.3670
   35MOL0     H 4673   5.632   3.246   5.766 -0.3194 -0.4760 -1.2075
   35MOL0     H 4674   5.935   3.165   5.767  0.3778 -0.2659 -0.2403
   35MOL0     H 4675   5.843   3.186   5.616  0.6148  0.1158  0.2303
   35MOL0     H 4676   5.734   3.479   5.597 -0.6677 -0.1259  0.9825
   35MOL0     H 4677   5.725   3.731   5.628  0.1814  0.4526 -0.0693
   35MOL0     H 4678   5.736   3.770   5.801 -0.7968 -2.6631  0.6381
   35MOL0     H 4679   5.967   3.816   5.787  1.5618 -1.1540 -0.3220
   35MOL0     H 4680   5.968   3.761   5.616 -1.9903  2.5480 -3.0317
   35MOL0     H 4681   5.825   4.014   5.716  0.8910  2.5380 -0.9944
   35MOL0     H 4682   5.810   3.925   5.558  2.4333  0.0764 -1.3798
   35MOL0     H 4683   6.047   3.966   5.521  0.5076  1.0497 -0.9751
   35MOL0     H 4684   6.074   4.032   5.682  0.8638  0.1530 -0.2136
   35MOL0     H 4685   5.944   4.354   5.365  0.8030  1.8649  0.3604
   35MOL0     H 4686   6.106   4.459   5.248  0.5004 -1.3063 -1.6353
   35MOL0     H 4687   6.613   4.297   5.032  0.3592  1.5315 -3.4642
   35MOL0     H 4688   6.768   4.416   4.888  2.6127 -1.3721  2.1728
   35MOL0     H 4689   6.783   4.754   4.821 -1.1999 -0.6437  0.6804
   35MOL0     H 4690   6.840   4.836   4.973  2.0520 -0.5620  0.7530
   35MOL0     H 4691   6.950   4.926   4.790  2.3848  1.4783 -0.9536
   35MOL0     H 4692   7.073   4.849   4.903  1.5176 -0.9915 -1.9095
   35MOL0     H 4693   7.069   4.661   4.739 -0.2009  0.6485  1.4846
   35MOL0     H 4694   6.971   4.780   4.644 -0.4613 -0.3333  1.2544
   35MOL0     H 4695   7.271   4.787   4.716  1.4944  1.3646 -0.4457
   35MOL0     H 4696   7.178   4.931   4.695  0.6876 -0.6927 -1.1507
   35MOL0     H 4697   7.096   4.817   4.467  1.0168 -0.9085 -3.5181
   35MOL0     H 4698   7.229   4.707   4.502 -0.2938  0.2244  0.7402
   35MOL0     H 4699   7.238   5.005   4.472 -1.2887 -1.5091  1.7878
   35MOL0     H 4700   7.380   4.915   4.507  0.2614  1.8432 -1.3915
   35MOL0     H 4701   7.190   4.939   4.272  0.6980  0.5901  0.8614
   35MOL0     H 4702   7.285   4.790   4.258  1.8306 -0.5270  2.1490
   35MOL0     H 4703   7.494   4.912   4.236 -0.1451  0.2618 -2.0203
   35MOL0     H 4704   7.365   4.971   4.136  1.4891 -0.2461 -0.8312
   35MOL0     H 4705   6.817   4.701   5.198 -1.5037 -0.5375  0.9385
   35MOL0     H 4706   6.663   4.609   5.328 -1.6835  0.8257 -0.9083
   35MOL0     H 4707   6.417   4.249   5.482  0.1955 -0.4917 -0.1761
   35MOL0     H 4708   6.234   4.134   5.600 -1.6564  0.4367  1.3076
   35MOL0     H 4709   5.094   2.952   6.008  1.0490 -2.3921 -0.4761
   35MOL0     H 4710   4.934   3.056   6.135  4.0864 -1.5488 -0.1827
   35MOL0     H 4711   4.683   3.292   6.238  0.6650 -0.0684  1.5910
   35MOL0     H 4712   4.585   3.436   6.401  1.4355 -1.1745 -0.3541
   35MOL0     H 4713   4.366   3.295   6.679  1.8133  0.1633  1.6223
   35MOL0     H 4714   4.228   3.405   6.674 -0.9422 -1.7056 -0.4251
   35MOL0     H 4715   4.387   3.610   6.659  0.2639  0.9599  1.2818
   35MOL0     H 4716   4.515   3.498   6.660 -0.6052 -0.4317 -0.5670
   35MOL0     H 4717   4.486   3.445   6.896 -1.7046 -1.1398  0.7978
   35MOL0     H 4718   4.319   3.488   6.898 -1.4795 -4.0453 -4.4249
   35MOL0     H 4719   4.440   3.634   7.031 -0.1286  1.1337 -0.1342
   35MOL0     H 4720   4.531   3.690   6.883 -0.2307  0.8141 -2.9486
   35MOL0     H 4721   4.123   3.843   6.854  0.8523  0.6510 -1.2686
   35MOL0     H 4722   4.235   3.164   6.422 -0.2870 -1.8270 -3.2357
   35MOL0     H 4723   4.233   2.976   6.310 -1.6396  4.2172 -2.0372
   35MOL0     H 4724   4.310   2.954   6.159 -0.4160 -0.6026  0.1335
   35MOL0     H 4725   4.407   2.906   6.287 -0.2802 -0.1771  2.2537
   36MOL0     O 4726   4.592   9.384   7.141  0.3473  0.5267  0.3892
   36MOL0     C 4727   4.563   9.318   7.044  0.7476  0.5158  0.7218
   36MOL0     O 4728   4.445   9.242   7.019 -0.4212 -0.5703 -0.2026
   36MOL0     C 4729   4.346   9.250   7.109  0.3383  0.3333 -0.1209
   36MOL0     C 4730   4.283   9.376   7.134 -0.3500 -0.3478 -0.3108
   36MOL0     C 4731   4.170   9.391   7.213 -0.3153 -0.2139  0.7445
   36MOL0     C 4732   4.115   9.282   7.281 -0.4821 -1.4077  0.3944
   36MOL0     O 4733   3.998   9.310   7.343 -0.1087  0.0071  0.4720
   36MOL0     C 4734   3.917   9.199   7.392 -0.0852 -0.1222 -0.1835
   36MOL0     C 4735   3.798   9.264   7.459 -0.9620  0.4551 -0.7313
   36MOL0     C 4736   3.694   9.320   7.361 -0.2245  0.2291 -0.2249
   36MOL0     C 4737   3.557   9.344   7.422  0.3821 -0.7408 -0.2156
   36MOL0     C 4738   3.480   9.427   7.331 -0.1575 -0.1390 -0.1488
   36MOL0     C 4739   3.397   9.349   7.225 -0.0006 -0.0548 -0.1475
   36MOL0     C 4740   3.336   9.428   7.108  0.4885 -0.5365  0.4070
   36MOL0     C 4741   3.421   9.518   7.019  1.2100 -0.2295  0.0752
   36MOL0     N 4742   3.532   9.439   6.957 -0.8033 -0.0824 -0.0513
   36MOL0     C 4743   3.652   9.397   7.023  0.4706  0.8017 -0.4471
   36MOL0     C 4744   3.698   9.307   6.932 -0.0357 -0.4322 -0.7862
   36MOL0     C 4745   3.822   9.220   6.943  0.2187  0.2193  0.1826
   36MOL0     C 4746   3.959   9.281   6.910  0.8900  0.3496  0.1241
   36MOL0     C 4747   3.969   9.362   6.785 -0.3261 -0.2633 -0.9493
   36MOL0     C 4748   4.112   9.419   6.774 -0.1792  0.7380 -0.4294
   36MOL0     O 4749   4.109   9.502   6.660  0.7638 -0.4307 -0.3511
   36MOL0     C 4750   4.227   9.562   6.614  0.1169  0.6473 -0.3893
   36MOL0     C 4751   4.354   9.552   6.683  0.6777 -0.3127 -0.0381
   36MOL0     C 4752   4.470   9.606   6.619  0.4503  0.1072 -0.5563
   36MOL0     C 4753   4.460   9.671   6.494 -0.9003  0.2350 -0.1817
   36MOL0     C 4754   4.589   9.724   6.443 -0.0803  0.0793 -0.2284
   36MOL0     O 4755   4.706   9.680   6.488 -1.0633 -1.1200  0.0494
   36MOL0     C 4756   4.826   9.735   6.436 -0.1946  0.3783  0.1583
   36MOL0     C 4757   4.868   9.698   6.304 -0.5909  0.1109  0.0230
   36MOL0     C 4758   4.977   9.769   6.241 -0.5150  0.9033 -1.5182
   36MOL0     C 4759   5.048   9.859   6.318  0.4230 -1.5206 -0.3969
   36MOL0     O 4760   5.159   9.911   6.257  0.5045 -1.0326  0.3241
   36MOL0     C 4761   5.226  10.022   6.315  0.0665 -0.4829 -0.2039
   36MOL0     C 4762   5.345  10.058   6.226 -0.0559 -0.7104 -0.3859
   36MOL0     C 4763   5.455   9.951   6.235  0.6912 -0.4820 -0.0382
   36MOL0     C 4764   5.542   9.947   6.111 -0.0798  0.1986  0.1857
   36MOL0     C 4765   5.596   9.795   6.106 -0.5883  0.2183  0.0495
   36MOL0     C 4766   5.721   9.795   6.018  0.7926  0.4670  0.5133
   36MOL0     C 4767   5.782   9.659   5.995 -0.3344  0.2571  0.3430
   36MOL0     C 4768   5.925   9.677   5.934  0.4276 -0.5967 -0.5422
   36MOL0    Cl 4769   6.053   9.724   6.056  0.1163 -0.4200  0.1016
   36MOL0     C 4770   5.007   9.886   6.449  0.0629  0.0080  0.1615
   36MOL0     C 4771   4.895   9.838   6.504 -0.2309 -1.1667 -0.1918
   36MOL0     O 4772   4.573   9.802   6.346  0.1802  0.2291  0.2379
   36MOL0     C 4773   4.338   9.668   6.428  0.8258 -0.2177 -0.0421
   36MOL0     C 4774   4.229   9.611   6.487  0.8507 -0.1745  1.0846
   36MOL0     N 4775   3.618   9.289   6.823  0.0077  0.2884  0.0047
   36MOL0     N 4776   3.517   9.365   6.847  0.2325 -0.1471 -0.1985
   36MOL0     C 4777   4.175   9.154   7.258 -0.3216  0.1191  0.2685
   36MOL0     C 4778   4.280   9.137   7.159  0.8678 -0.5884 -0.1996
   36MOL0     C 4779   4.666   9.330   6.932  0.2108  1.2948  0.2843
   36MOL0     C 4780   4.617   9.281   6.806 -0.7261  1.4308 -0.2549
   36MOL0     C 4781   4.699   9.271   6.697 -0.5547 -0.0649 -0.1540
   36MOL0     C 4782   4.831   9.327   6.700  0.2780  0.6498 -0.3870
   36MOL0     O 4783   4.907   9.342   6.582  0.1156  0.1637 -0.1004
   36MOL0     C 4784   4.851   9.288   6.468  0.2830  0.5843 -0.4148
   36MOL0     C 4785   4.940   9.330   6.355  0.4883  0.0235  0.1359
   36MOL0     C 4786   4.872   9.311   6.217  0.5396  0.1407  0.3470
   36MOL0     C 4787   4.956   9.373   6.108  0.3432 -0.5123  0.2964
   36MOL0     C 4788   4.899   9.356   5.970  0.3444  0.5424  0.4204
   36MOL0     C 4789   4.849   9.356   5.857  0.9048 -0.1348 -0.1805
   36MOL0     C 4790   4.878   9.374   6.825 -0.3440  0.1287 -0.1320
   36MOL0     C 4791   4.801   9.364   6.944  0.4381 -0.1436  0.1570
   36MOL0     C 4792   4.876   9.387   7.074 -0.8460 -0.3586 -0.3095
   36MOL0     H 4793   4.327   9.457   7.076 -1.4653 -1.3420 -2.6717
   36MOL0     H 4794   4.132   9.492   7.222 -0.5243 -0.2446  0.2802
   36MOL0     H 4795   3.883   9.131   7.314 -1.3228  0.7584 -0.4388
   36MOL0     H 4796   3.971   9.150   7.474 -0.4157  1.5568  1.0957
   36MOL0     H 4797   3.830   9.344   7.525 -0.6842 -0.8713  0.8002
   36MOL0     H 4798   3.758   9.194   7.533  3.1460  1.1558  2.5088
   36MOL0     H 4799   3.683   9.262   7.269  0.7287 -2.5677  1.2806
   36MOL0     H 4800   3.744   9.414   7.337 -1.6852  1.4717  1.3621
   36MOL0     H 4801   3.513   9.246   7.447  0.2308 -1.1755 -2.0687
   36MOL0     H 4802   3.577   9.406   7.510 -0.2571  1.6030 -1.6389
   36MOL0     H 4803   3.416   9.495   7.387  2.7256  1.7936  1.0425
   36MOL0     H 4804   3.553   9.495   7.286 -1.1693 -1.0314 -3.3936
   36MOL0     H 4805   3.458   9.267   7.186 -1.3060  0.0390 -2.5673
   36MOL0     H 4806   3.314   9.300   7.278 -0.4493  1.9676  1.1172
   36MOL0     H 4807   3.248   9.488   7.133 -0.9304 -0.6475 -3.6382
   36MOL0     H 4808   3.288   9.361   7.036  0.0448  0.4947 -0.2657
   36MOL0     H 4809   3.370   9.574   6.940  1.9107  0.1679 -0.1051
   36MOL0     H 4810   3.469   9.593   7.084 -2.3913  0.5568  2.0709
   36MOL0     H 4811   3.705   9.424   7.113 -0.4021  0.6264  0.1324
   36MOL0     H 4812   3.826   9.163   7.036  0.8194  0.4781  0.3256
   36MOL0     H 4813   3.812   9.139   6.871  0.7207 -1.0506  1.4925
   36MOL0     H 4814   3.981   9.349   6.993  0.1496 -1.1402  1.5840
   36MOL0     H 4815   4.033   9.202   6.922  0.1586 -0.2467  0.8394
   36MOL0     H 4816   3.895   9.442   6.784  0.0467  0.0845 -0.7664
   36MOL0     H 4817   3.949   9.306   6.693 -0.2654 -0.2743 -0.9553
   36MOL0     H 4818   4.171   9.329   6.753  1.6188  2.0375 -1.1994
   36MOL0     H 4819   4.158   9.465   6.862  2.3783  1.2237 -1.9350
   36MOL0     H 4820   4.358   9.514   6.785  1.7793 -0.3356 -0.0739
   36MOL0     H 4821   4.559   9.601   6.680 -1.0757  1.5239  1.9988
   36MOL0     H 4822   4.808   9.624   6.252 -0.8879 -1.2132  2.1383
   36MOL0     H 4823   5.006   9.753   6.137 -0.5658  1.4767 -1.6248
   36MOL0     H 4824   5.157  10.105   6.333 -0.5116 -1.1614  0.8200
   36MOL0     H 4825   5.259   9.989   6.414  0.6303  0.8552  0.0757
   36MOL0     H 4826   5.301  10.055   6.126 -2.2589 -1.3481  0.5357
   36MOL0     H 4827   5.386  10.158   6.244 -1.2779 -0.4224  0.9963
   36MOL0     H 4828   5.506   9.967   6.330  0.0625 -3.0240  0.8148
   36MOL0     H 4829   5.411   9.851   6.243 -0.0203 -0.0258  2.9766
   36MOL0     H 4830   5.620  10.024   6.109 -0.7240  0.9255  1.6650
   36MOL0     H 4831   5.483   9.959   6.020 -0.6883 -2.9943  0.0334
   36MOL0     H 4832   5.514   9.737   6.063 -0.5047 -0.5909  0.9414
   36MOL0     H 4833   5.620   9.763   6.208 -1.7295  1.4634  0.7395
   36MOL0     H 4834   5.692   9.828   5.917  3.2441 -0.3435 -0.5345
   36MOL0     H 4835   5.800   9.858   6.061  3.3925 -2.8244  0.9601
   36MOL0     H 4836   5.718   9.610   5.920  0.9235  1.0641 -1.3191
   36MOL0     H 4837   5.772   9.590   6.079 -0.4992 -0.0353  0.0887
   36MOL0     H 4838   5.951   9.584   5.881  1.0647  0.1418 -1.5801
   36MOL0     H 4839   5.919   9.746   5.849 -0.0505 -1.0233 -0.8592
   36MOL0     H 4840   5.066   9.951   6.513  1.3551  0.7281 -1.6391
   36MOL0     H 4841   4.867   9.886   6.597 -3.8460 -0.6371 -1.4054
   36MOL0     H 4842   4.318   9.699   6.327 -2.4565  0.5926  0.7429
   36MOL0     H 4843   4.143   9.610   6.421  1.1896  1.9817  0.5221
   36MOL0     H 4844   4.122   9.079   7.315  1.2054  0.2512  1.9295
   36MOL0     H 4845   4.324   9.045   7.123  3.6361 -0.3504  2.2362
   36MOL0     H 4846   4.518   9.238   6.794  0.0259 -0.8313  1.0374
   36MOL0     H 4847   4.661   9.213   6.614  0.3646  1.2533 -1.5484
   36MOL0     H 4848   4.764   9.351   6.447 -0.2667  0.3577  1.0488
   36MOL0     H 4849   4.830   9.182   6.483 -1.3594  1.3119  3.9866
   36MOL0     H 4850   5.026   9.262   6.358 -0.0584 -0.6486  0.9552
   36MOL0     H 4851   4.983   9.430   6.361  2.6955 -0.8576  0.1615
   36MOL0     H 4852   4.772   9.352   6.202  0.9369  0.6245 -1.1341
   36MOL0     H 4853   4.870   9.204   6.196  1.3814  0.7418 -3.6298
   36MOL0     H 4854   4.968   9.481   6.113  2.8549 -0.6509 -1.2415
   36MOL0     H 4855   5.058   9.331   6.110  0.2723 -0.6866  0.3134
   36MOL0     H 4856   4.798   9.338   5.764  0.6447  1.6346 -0.4202
   36MOL0     H 4857   4.980   9.408   6.834 -1.1926  2.8777 -0.1857
   36MOL0     H 4858   4.851   9.309   7.146 -2.6171  0.9615  0.5637
   36MOL0     H 4859   4.985   9.377   7.067 -0.5829  0.1594  2.1836
   36MOL0     H 4860   4.857   9.477   7.133 -0.7068 -0.7618  0.3619
   37MOL0     O 4861   5.088   3.578  10.872 -0.7156  0.2072  0.0591
   37MOL0     C 4862   5.043   3.564  10.985 -0.4874 -0.0311 -0.9856
   37MOL0     O 4863   5.126   3.547  11.096  0.1508 -0.2123 -0.0826
   37MOL0     C 4864   5.262   3.526  11.090  0.2431 -0.3836  0.5600
   37MOL0     C 4865   5.331   3.575  11.191  0.0454 -0.2451  0.1570
   37MOL0     C 4866   5.466   3.567  11.194 -0.3669  0.3991 -0.0784
   37MOL0     C 4867   5.533   3.502  11.085  0.5719 -0.7163 -0.2092
   37MOL0     O 4868   5.673   3.500  11.084  0.1234  0.7194  0.3111
   37MOL0     C 4869   5.761   3.572  11.177 -0.4995  0.1711 -0.6431
   37MOL0     C 4870   5.777   3.497  11.310  0.6481 -0.0498  0.3596
   37MOL0     C 4871   5.875   3.386  11.319  0.2874  0.2241 -0.5235
   37MOL0     C 4872   6.020   3.442  11.332 -0.4191 -0.5811 -0.4180
   37MOL0     C 4873   6.122   3.349  11.396 -0.2682  0.1252 -0.8224
   37MOL0     C 4874   6.118   3.214  11.337 -0.2019 -0.1063  0.9943
   37MOL0     C 4875   6.245   3.134  11.355  1.2436 -0.5561  0.0894
   37MOL0     C 4876   6.229   3.039  11.474  0.6999  0.0521 -0.0017
   37MOL0     N 4877   6.360   2.989  11.506  0.1881 -0.0766 -0.1842
   37MOL0     C 4878   6.418   2.881  11.450  0.0316  0.2841 -0.4914
   37MOL0     C 4879   6.545   2.878  11.513  0.2379  0.3795  0.8954
   37MOL0     C 4880   6.645   2.775  11.484  0.3582 -0.0190 -0.5919
   37MOL0     C 4881   6.759   2.831  11.401 -0.2418  0.5107 -1.0465
   37MOL0     C 4882   6.720   2.915  11.279  0.1478 -0.1346  0.3122
   37MOL0     C 4883   6.838   2.952  11.193 -0.0394  0.2600 -0.1848
   37MOL0     O 4884   6.919   3.058  11.246 -0.2298  0.4224 -0.1417
   37MOL0     C 4885   7.027   3.031  11.328  0.1647  0.5578 -0.7697
   37MOL0     C 4886   7.072   2.902  11.360  1.1814  0.9869  0.3837
   37MOL0     C 4887   7.182   2.882  11.443  0.6749  0.5118  0.1922
   37MOL0     C 4888   7.241   2.987  11.519  0.4425 -0.5841 -0.0096
   37MOL0     C 4889   7.365   2.982  11.606 -0.4866  1.2184  0.3836
   37MOL0     O 4890   7.446   3.091  11.615 -0.1013 -0.1626  0.8961
   37MOL0     C 4891   7.549   3.082  11.699 -0.3029 -0.5291  0.6919
   37MOL0     C 4892   7.536   3.102  11.837  0.2273  0.6928 -0.5181
   37MOL0     C 4893   7.649   3.109  11.914 -0.3232  0.1550  0.0079
   37MOL0     C 4894   7.778   3.096  11.862 -0.1322 -0.6793  0.4102
   37MOL0     O 4895   7.888   3.117  11.940  0.0920 -0.0136 -1.0475
   37MOL0     C 4896   7.930   3.026  12.036  0.7124 -0.5497  0.0926
   37MOL0     C 4897   8.078   3.017  12.064  0.4046 -0.6456  0.4122
   37MOL0     C 4898   8.127   2.901  12.152  0.5172 -0.6690 -0.0016
   37MOL0     C 4899   8.040   2.896  12.287  0.1218  0.5369 -0.5724
   37MOL0     C 4900   8.093   2.776  12.365  0.1293  0.6596  0.1493
   37MOL0     C 4901   8.016   2.761  12.498  0.1532  1.1107  0.8915
   37MOL0     C 4902   8.016   2.885  12.594 -1.0224  0.1367 -0.2874
   37MOL0     C 4903   7.977   2.834  12.724  0.0325 -0.0133  0.0268
   37MOL0    Cl 4904   7.811   2.769  12.720  0.2775 -0.0446  0.0337
   37MOL0     C 4905   7.784   3.069  11.724  0.3575 -1.3546  0.7872
   37MOL0     C 4906   7.675   3.063  11.648  0.5074  0.3657  0.2680
   37MOL0     O 4907   7.394   2.869  11.646 -0.3142  0.6777 -0.9165
   37MOL0     C 4908   7.199   3.116  11.475 -0.0289 -1.2991  0.4718
   37MOL0     C 4909   7.089   3.138  11.387 -0.9452 -0.4977 -0.0669
   37MOL0     N 4910   6.549   2.974  11.615 -0.6049  0.5724 -0.1350
   37MOL0     N 4911   6.436   3.040  11.607  0.1546 -0.5262 -0.7529
   37MOL0     C 4912   5.466   3.450  10.981  0.3242 -0.0644 -0.5307
   37MOL0     C 4913   5.329   3.472  10.975  0.8162 -0.2759 -0.3808
   37MOL0     C 4914   4.893   3.550  11.017  0.2712  0.2033 -0.0722
   37MOL0     C 4915   4.806   3.508  10.918  0.7160  0.4272  0.4469
   37MOL0     C 4916   4.668   3.492  10.923  0.0096 -0.6462 -0.5117
   37MOL0     C 4917   4.611   3.523  11.045  0.2829 -0.2060 -0.4439
   37MOL0     O 4918   4.480   3.526  11.067  0.1345 -0.0058  0.1374
   37MOL0     C 4919   4.404   3.619  10.999  0.8543 -0.0155  0.8369
   37MOL0     C 4920   4.405   3.748  11.076  0.3209 -0.0858  0.8846
   37MOL0     C 4921   4.335   3.728  11.217  0.0907 -0.4118 -1.5267
   37MOL0     C 4922   4.373   3.839  11.322 -0.5978  0.5803 -0.1070
   37MOL0     C 4923   4.519   3.862  11.311  0.7727 -0.5703  0.2119
   37MOL0     C 4924   4.642   3.884  11.300  1.2847  0.0651 -0.3724
   37MOL0     C 4925   4.694   3.570  11.153  0.5653 -0.2789  0.2582
   37MOL0     C 4926   4.836   3.580  11.140  0.4667 -0.4205 -0.4993
   37MOL0     C 4927   4.912   3.633  11.264 -0.5568 -0.3457 -0.3038
   37MOL0     H 4928   5.267   3.610  11.272  0.0836  0.6498 -0.1890
   37MOL0     H 4929   5.515   3.626  11.272  0.7558  0.9898 -1.1949
   37MOL0     H 4930   5.858   3.597  11.133  0.1423  0.1878  0.7165
   37MOL0     H 4931   5.710   3.667  11.196 -0.2524  0.1161  0.3715
   37MOL0     H 4932   5.680   3.454  11.336  0.3992  0.4724  0.2865
   37MOL0     H 4933   5.797   3.579  11.380  1.6101  0.4699 -0.5105
   37MOL0     H 4934   5.864   3.332  11.225  0.1119 -0.8408  0.0950
   37MOL0     H 4935   5.854   3.328  11.409  2.1115  2.1408  1.2590
   37MOL0     H 4936   6.069   3.461  11.236  1.8668  0.3270  0.8448
   37MOL0     H 4937   6.018   3.542  11.376  2.8542 -0.4512 -0.3254
   37MOL0     H 4938   6.223   3.390  11.388  0.4588 -0.5678  2.8271
   37MOL0     H 4939   6.093   3.329  11.500  1.2967  0.7783 -0.2225
   37MOL0     H 4940   6.022   3.164  11.353 -2.1878  1.3192 -4.4020
   37MOL0     H 4941   6.110   3.240  11.231  5.4110  0.4472  0.4305
   37MOL0     H 4942   6.322   3.208  11.380 -0.3984  1.2177  0.0929
   37MOL0     H 4943   6.268   3.079  11.264 -3.7271 -0.5819 -1.4371
   37MOL0     H 4944   6.183   3.105  11.549 -1.3677 -1.1051 -0.1890
   37MOL0     H 4945   6.154   2.961  11.458 -0.6776  0.8904  1.8591
   37MOL0     H 4946   6.378   2.825  11.366  0.4313 -0.4715 -0.1907
   37MOL0     H 4947   6.691   2.725  11.569 -1.5787 -0.8773  0.0262
   37MOL0     H 4948   6.591   2.701  11.423 -0.9700  3.2784 -3.7916
   37MOL0     H 4949   6.826   2.881  11.472  1.0550 -3.3507  0.7191
   37MOL0     H 4950   6.806   2.738  11.368 -1.9054 -1.3586  1.5265
   37MOL0     H 4951   6.662   3.000  11.317 -0.3334  0.5333 -1.7621
   37MOL0     H 4952   6.652   2.855  11.218 -0.3170 -2.5802  3.0336
   37MOL0     H 4953   6.799   2.984  11.097 -2.8536 -0.4843  0.6243
   37MOL0     H 4954   6.887   2.856  11.173 -0.5394  0.2262 -1.2629
   37MOL0     H 4955   7.036   2.817  11.303  0.8129  1.5318 -0.2108
   37MOL0     H 4956   7.219   2.785  11.475  0.2933 -0.4518 -2.0549
   37MOL0     H 4957   7.438   3.104  11.884  0.3871  5.9551  0.2279
   37MOL0     H 4958   7.640   3.115  12.022  1.9602 -3.8705  0.6108
   37MOL0     H 4959   7.882   3.050  12.131  3.2340 -1.2431  1.5987
   37MOL0     H 4960   7.891   2.927  12.009 -1.6850  0.6113 -1.1182
   37MOL0     H 4961   8.121   3.010  11.963 -0.0624  4.8845 -0.4598
   37MOL0     H 4962   8.112   3.115  12.098 -2.1318  0.9042 -1.1600
   37MOL0     H 4963   8.109   2.807  12.099 -1.7999 -1.8573  2.6142
   37MOL0     H 4964   8.235   2.910  12.165  0.5098  0.9630 -0.7896
   37MOL0     H 4965   7.935   2.880  12.261 -0.5805 -0.6996  2.5541
   37MOL0     H 4966   8.038   2.993  12.339 -1.0679 -0.1797  0.8071
   37MOL0     H 4967   8.200   2.764  12.384 -0.1031 -0.7224  0.7179
   37MOL0     H 4968   8.074   2.686  12.305  0.2141  1.8681 -1.7596
   37MOL0     H 4969   7.915   2.753  12.457  0.0838  1.7626  0.9218
   37MOL0     H 4970   8.057   2.673  12.548 -1.6277 -1.4350 -1.7703
   37MOL0     H 4971   7.942   2.954  12.551 -0.6769  0.4341 -0.4080
   37MOL0     H 4972   8.120   2.919  12.596 -0.8881 -0.2740  1.5879
   37MOL0     H 4973   8.041   2.750  12.753 -0.0922 -0.9069 -2.0667
   37MOL0     H 4974   7.979   2.916  12.796  1.0510 -0.6879  0.7950
   37MOL0     H 4975   7.876   3.061  11.666 -0.6735 -0.6808 -1.0468
   37MOL0     H 4976   7.680   3.050  11.541 -0.1459 -0.4657  0.3213
   37MOL0     H 4977   7.240   3.211  11.508 -4.0474  1.0532 -0.6510
   37MOL0     H 4978   7.044   3.232  11.358 -0.1843  0.0720  0.5576
   37MOL0     H 4979   5.519   3.393  10.906  0.7312 -0.5566  0.1226
   37MOL0     H 4980   5.279   3.432  10.887 -0.2212  0.8277 -0.3177
   37MOL0     H 4981   4.855   3.474  10.828  0.2525 -0.0859  0.3821
   37MOL0     H 4982   4.608   3.446  10.845 -0.3861 -0.8243 -0.1036
   37MOL0     H 4983   4.301   3.585  10.987  1.6748 -1.9583 -1.3406
   37MOL0     H 4984   4.440   3.627  10.896  0.7418 -1.8996  0.6284
   37MOL0     H 4985   4.347   3.825  11.025 -0.8197 -0.7660  1.1174
   37MOL0     H 4986   4.510   3.777  11.083  0.1724  0.8887 -0.5077
   37MOL0     H 4987   4.370   3.629  11.247  4.1456  0.8888 -1.2737
   37MOL0     H 4988   4.226   3.729  11.213 -0.0678  2.6278  0.0494
   37MOL0     H 4989   4.315   3.932  11.314 -0.0705  1.1173  1.8444
   37MOL0     H 4990   4.362   3.809  11.427  2.1598  1.3716  0.4861
   37MOL0     H 4991   4.745   3.915  11.291  0.8589  0.7983 -4.6519
   37MOL0     H 4992   4.645   3.608  11.242  0.0168 -1.7050  0.5989
   37MOL0     H 4993   4.842   3.679  11.334 -1.5877 -1.2071 -0.7408
   37MOL0     H 4994   4.976   3.558  11.312  3.6374  3.2048  0.2823
   37MOL0     H 4995   4.979   3.712  11.229  0.1346 -0.2673  1.1121
   38MOL0     O 4996   8.101   4.834   2.398  0.0508 -0.4166 -0.0094
   38MOL0     C 4997   8.109   4.959   2.407 -0.4117 -0.0305 -0.2681
   38MOL0     O 4998   8.211   5.033   2.444 -0.4030 -0.2177 -0.5635
   38MOL0     C 4999   8.340   4.992   2.478  0.5747  0.2059  0.1068
   38MOL0     C 5000   8.383   4.855   2.481 -0.2226  0.2610 -0.0862
   38MOL0     C 5001   8.511   4.824   2.509  0.0892 -0.8080 -0.6129
   38MOL0     C 5002   8.608   4.923   2.533 -0.5298  0.0869 -0.0734
   38MOL0     O 5003   8.735   4.879   2.535 -1.2938  0.6096  0.5339
   38MOL0     C 5004   8.848   4.970   2.557  0.0078 -0.5203 -0.2454
   38MOL0     C 5005   8.963   4.879   2.526  0.3122  0.6603  0.0495
   38MOL0     C 5006   8.996   4.889   2.379  0.4643 -0.0037  0.6674
   38MOL0     C 5007   9.026   5.032   2.327 -0.1338  0.1519  0.7289
   38MOL0     C 5008   9.112   5.022   2.199  0.2217 -0.1809  0.1531
   38MOL0     C 5009   9.113   5.161   2.119  0.1246  0.7495  0.0182
   38MOL0     C 5010   9.159   5.153   1.968 -0.6477 -0.2038 -0.4476
   38MOL0     C 5011   9.293   5.085   1.941  0.4770  0.3319 -0.4128
   38MOL0     N 5012   9.397   5.178   1.910  0.5682  0.7772 -0.1709
   38MOL0     C 5013   9.464   5.257   1.997 -0.2888  0.1484 -0.3330
   38MOL0     C 5014   9.539   5.339   1.931  0.0223 -0.0571 -0.0928
   38MOL0     C 5015   9.631   5.446   1.980 -0.2673 -0.2677 -0.3819
   38MOL0     C 5016   9.746   5.455   1.885  0.7419 -0.1851 -0.4588
   38MOL0     C 5017   9.855   5.534   1.934  0.2734  0.4020 -0.0307
   38MOL0     C 5018   9.960   5.528   1.827 -0.1304  0.8233 -0.4699
   38MOL0     O 5019  10.069   5.616   1.852 -0.4819  0.4969  0.1339
   38MOL0     C 5020  10.162   5.636   1.752 -0.0289  1.1283 -0.7825
   38MOL0     C 5021  10.168   5.566   1.629  0.4137  0.0755 -1.3789
   38MOL0     C 5022  10.273   5.584   1.536 -1.5900 -0.1506  0.0387
   38MOL0     C 5023  10.382   5.673   1.559 -0.3351 -0.0025  0.0366
   38MOL0     C 5024  10.504   5.683   1.477  1.1788 -0.5373  0.6451
   38MOL0     O 5025  10.605   5.746   1.538 -1.1361  0.4679  0.8625
   38MOL0     C 5026  10.707   5.771   1.450  0.6641  0.8322  0.7706
   38MOL0     C 5027  10.732   5.898   1.394 -0.4430 -0.4454 -0.0656
   38MOL0     C 5028  10.839   5.918   1.312 -0.3878 -0.6747  0.7641
   38MOL0     C 5029  10.919   5.811   1.278 -0.3312 -0.0865  0.1278
   38MOL0     O 5030  11.027   5.840   1.199 -0.6576 -0.4651  0.4165
   38MOL0     C 5031  11.009   5.920   1.074  0.4069  0.0488 -0.5206
   38MOL0     C 5032  11.149   5.949   1.016 -0.1446 -0.2768 -0.2051
   38MOL0     C 5033  11.235   6.048   1.102  0.2644  0.1869 -0.2646
   38MOL0     C 5034  11.369   6.077   1.039  0.7686 -0.3351  0.1065
   38MOL0     C 5035  11.358   6.167   0.921  0.1452  0.0362  0.5315
   38MOL0     C 5036  11.485   6.235   0.896 -0.2050 -0.5946 -0.6603
   38MOL0     C 5037  11.597   6.146   0.849 -0.3877  0.4231  0.9865
   38MOL0     C 5038  11.733   6.221   0.821 -0.3479 -0.4202 -0.6076
   38MOL0    Cl 5039  11.728   6.322   0.669  0.2234  0.3181 -0.4813
   38MOL0     C 5040  10.895   5.684   1.328 -0.2661 -0.3340  0.4679
   38MOL0     C 5041  10.791   5.665   1.411  0.4755  0.6377  0.7926
   38MOL0     O 5042  10.492   5.650   1.356 -0.1993 -0.4268 -0.3997
   38MOL0     C 5043  10.378   5.746   1.674 -0.7167  0.1582 -0.6071
   38MOL0     C 5044  10.271   5.725   1.771 -0.7385 -0.7545 -0.4547
   38MOL0     N 5045   9.521   5.313   1.792 -0.4703 -0.1227 -0.5754
   38MOL0     N 5046   9.436   5.214   1.784 -0.9961  0.0046  0.9948
   38MOL0     C 5047   8.571   5.065   2.529 -0.0177  0.4661 -0.4745
   38MOL0     C 5048   8.438   5.089   2.504 -0.2991 -0.3456  0.2713
   38MOL0     C 5049   7.982   5.038   2.382 -0.1358  0.0018 -0.4307
   38MOL0     C 5050   7.975   5.167   2.434  0.0827 -0.7570  0.0907
   38MOL0     C 5051   7.865   5.253   2.418 -0.7673  0.1884 -0.2644
   38MOL0     C 5052   7.759   5.226   2.342 -0.2563  0.1106  0.5746
   38MOL0     O 5053   7.658   5.313   2.311  0.6186  0.8102 -1.1823
   38MOL0     C 5054   7.670   5.450   2.346 -0.0049 -0.0625 -0.6760
   38MOL0     C 5055   7.554   5.510   2.265  0.1610 -0.1119 -0.0511
   38MOL0     C 5056   7.551   5.470   2.115 -0.7621  0.0825  0.3290
   38MOL0     C 5057   7.428   5.524   2.052  0.8203  0.5297 -0.9294
   38MOL0     C 5058   7.404   5.673   2.063 -0.2214 -0.1456 -0.0573
   38MOL0     C 5059   7.371   5.795   2.061  0.5424  0.2058 -0.0311
   38MOL0     C 5060   7.756   5.096   2.301  0.0239  0.0130 -0.1351
   38MOL0     C 5061   7.859   4.997   2.315 -0.2826 -0.2718 -0.4948
   38MOL0     C 5062   7.836   4.863   2.252 -0.1269  0.0500 -0.2984
   38MOL0     H 5063   8.313   4.773   2.467  1.9208 -1.7170  0.1927
   38MOL0     H 5064   8.544   4.722   2.525  0.2930 -0.3915  2.2401
   38MOL0     H 5065   8.837   5.058   2.493  0.8199  0.5813  1.0698
   38MOL0     H 5066   8.847   4.997   2.663 -2.2395  0.4611 -0.4664
   38MOL0     H 5067   8.948   4.776   2.559 -3.3124  0.9511 -0.1863
   38MOL0     H 5068   9.049   4.906   2.587 -0.5729  3.1835  0.3013
   38MOL0     H 5069   8.911   4.847   2.324 -0.8484 -0.2950  2.8112
   38MOL0     H 5070   9.076   4.817   2.362 -0.3070 -0.7812  0.2229
   38MOL0     H 5071   8.932   5.077   2.295  0.4105 -1.2213 -3.3531
   38MOL0     H 5072   9.071   5.098   2.402 -0.3477  5.1694 -3.0399
   38MOL0     H 5073   9.216   4.992   2.218 -1.1882 -4.0483  2.8481
   38MOL0     H 5074   9.066   4.947   2.135 -2.1631  2.0011 -0.8560
   38MOL0     H 5075   9.012   5.203   2.123 -0.1268  0.0810  1.5172
   38MOL0     H 5076   9.182   5.229   2.171  0.6465  0.0355  0.2734
   38MOL0     H 5077   9.160   5.248   1.913  0.7000 -0.4955 -0.9723
   38MOL0     H 5078   9.078   5.106   1.912 -0.4359 -0.2867 -0.6870
   38MOL0     H 5079   9.338   5.036   2.028  3.5126 -0.0621 -2.0471
   38MOL0     H 5080   9.282   5.007   1.865 -1.0387 -0.1298  0.2497
   38MOL0     H 5081   9.458   5.257   2.105 -0.0926  1.9100 -0.2901
   38MOL0     H 5082   9.586   5.545   1.979  0.6723  0.2003  0.7834
   38MOL0     H 5083   9.665   5.433   2.084 -1.5280 -0.7894 -0.0198
   38MOL0     H 5084   9.780   5.357   1.851 -1.0599  0.3636 -4.4365
   38MOL0     H 5085   9.707   5.512   1.800 -1.4598  1.0663  1.2826
   38MOL0     H 5086   9.900   5.499   2.027 -1.7678  0.4437  1.0423
   38MOL0     H 5087   9.817   5.635   1.956 -3.9597 -0.8739 -0.4946
   38MOL0     H 5088   9.918   5.543   1.727 -2.2593  0.9080  0.3787
   38MOL0     H 5089  10.001   5.426   1.829 -1.3420  0.3105  1.8292
   38MOL0     H 5090  10.091   5.497   1.597  0.0642  0.1110 -0.6463
   38MOL0     H 5091  10.266   5.517   1.450  0.6366 -1.1702  0.5738
   38MOL0     H 5092  10.661   5.978   1.409 -1.1116 -0.8146 -1.1643
   38MOL0     H 5093  10.876   6.016   1.282 -4.7649  0.6676 -1.2144
   38MOL0     H 5094  10.949   5.854   1.011 -0.5073 -1.5238  1.8618
   38MOL0     H 5095  10.960   6.016   1.091  1.5848  0.6435 -0.3252
   38MOL0     H 5096  11.206   5.855   1.013  1.1487  0.4880 -1.6458
   38MOL0     H 5097  11.148   5.979   0.910  3.7676 -1.3753 -0.7151
   38MOL0     H 5098  11.183   6.140   1.129 -0.9286 -1.3046  3.0192
   38MOL0     H 5099  11.247   5.990   1.194 -4.5030  1.9199  1.7640
   38MOL0     H 5100  11.426   5.986   1.015  1.2370  0.5755 -2.5717
   38MOL0     H 5101  11.437   6.117   1.116 -1.2376  1.7899  0.8835
   38MOL0     H 5102  11.289   6.248   0.943 -0.5302  0.0699 -1.5779
   38MOL0     H 5103  11.331   6.113   0.830  2.2581  0.7014 -0.5688
   38MOL0     H 5104  11.453   6.316   0.830 -0.9570 -0.1200  0.2513
   38MOL0     H 5105  11.514   6.280   0.992 -3.1516 -2.1562  1.1304
   38MOL0     H 5106  11.575   6.095   0.755  4.3989  0.1510 -0.2233
   38MOL0     H 5107  11.615   6.069   0.925 -0.4021 -1.3030 -0.6601
   38MOL0     H 5108  11.766   6.282   0.906  0.4567 -1.6781  0.0018
   38MOL0     H 5109  11.813   6.147   0.817 -0.8717 -0.9486 -1.8672
   38MOL0     H 5110  10.957   5.604   1.289 -0.4007  0.4359 -1.4166
   38MOL0     H 5111  10.774   5.568   1.458 -2.4494  1.6939  2.2001
   38MOL0     H 5112  10.466   5.793   1.716 -1.5843  1.4253 -0.1573
   38MOL0     H 5113  10.285   5.765   1.870  1.6775 -0.1968 -0.9621
   38MOL0     H 5114   8.633   5.149   2.556 -0.7274  1.6600 -2.3110
   38MOL0     H 5115   8.396   5.189   2.508 -2.1020 -0.9613 -1.4546
   38MOL0     H 5116   8.051   5.201   2.504 -0.3959 -0.3893  0.4344
   38MOL0     H 5117   7.879   5.341   2.480 -1.8235  1.4336 -1.7527
   38MOL0     H 5118   7.764   5.499   2.316  0.5982 -0.4073  0.5773
   38MOL0     H 5119   7.649   5.483   2.448 -0.2139  0.4065 -0.8691
   38MOL0     H 5120   7.551   5.619   2.268 -2.2406 -0.0784 -1.5404
   38MOL0     H 5121   7.461   5.477   2.313  0.1827 -1.6505 -0.9858
   38MOL0     H 5122   7.556   5.361   2.104  0.4253  0.3517 -2.9359
   38MOL0     H 5123   7.644   5.500   2.067 -0.2722 -2.3619 -0.4092
   38MOL0     H 5124   7.439   5.497   1.946  1.7008  1.3274 -1.0613
   38MOL0     H 5125   7.340   5.466   2.079 -0.7492  2.9753 -0.4698
   38MOL0     H 5126   7.334   5.895   2.052 -3.2872 -1.0079  0.6839
   38MOL0     H 5127   7.669   5.059   2.249  0.2691 -3.1586  1.4647
   38MOL0     H 5128   7.735   4.861   2.210 -1.2974  0.8383  2.2584
   38MOL0     H 5129   7.901   4.857   2.164  3.5688 -3.1206  2.3184
   38MOL0     H 5130   7.855   4.788   2.329  1.0046 -0.0620 -0.6586
   39MOL0     O 5131   3.884   2.665   3.701 -0.1013  0.0378  0.2671
   39MOL0     C 5132   3.844   2.605   3.802  0.5345  1.0653 -0.0560
   39MOL0     O 5133   3.910   2.587   3.914  0.1344  0.5200 -0.5866
   39MOL0     C 5134   4.048   2.594   3.914 -0.5652 -0.0968  0.3996
   39MOL0     C 5135   4.132   2.513   3.832 -0.7351  0.0649  0.2634
   39MOL0     C 5136   4.273   2.530   3.832 -0.7215  0.2975 -0.3669
   39MOL0     C 5137   4.331   2.632   3.900 -0.3962 -0.2753 -1.0695
   39MOL0     O 5138   4.460   2.662   3.900 -0.3017 -0.4510 -0.3771
   39MOL0     C 5139   4.552   2.557   3.897 -0.8765 -0.4862  0.4879
   39MOL0     C 5140   4.695   2.608   3.873  0.1280 -0.1329  0.3695
   39MOL0     C 5141   4.791   2.492   3.897 -0.5471  0.8146 -0.7400
   39MOL0     C 5142   4.941   2.502   3.839  0.2648  0.6053 -0.5634
   39MOL0     C 5143   5.033   2.388   3.879  0.5228 -0.4040 -0.3188
   39MOL0     C 5144   5.156   2.409   3.796  0.9392 -0.7408 -0.7745
   39MOL0     C 5145   5.255   2.297   3.836 -0.8064  0.4518  0.4162
   39MOL0     C 5146   5.362   2.300   3.723 -0.3810 -0.1160 -0.6898
   39MOL0     N 5147   5.435   2.432   3.715  0.1497 -0.2945 -0.1054
   39MOL0     C 5148   5.476   2.496   3.598 -0.5640 -0.1497  0.0270
   39MOL0     C 5149   5.570   2.590   3.632  0.8873 -0.6894  0.6968
   39MOL0     C 5150   5.649   2.687   3.548 -0.1120 -0.8917 -0.5441
   39MOL0     C 5151   5.787   2.629   3.510 -0.3091 -0.7101 -0.5575
   39MOL0     C 5152   5.891   2.655   3.614  0.5799  1.0119 -1.3409
   39MOL0     C 5153   6.032   2.612   3.567  0.4874  0.4712 -0.5165
   39MOL0     O 5154   6.077   2.689   3.457 -0.5601  0.0251 -0.0092
   39MOL0     C 5155   6.206   2.670   3.415  0.0123 -0.4455 -0.3806
   39MOL0     C 5156   6.281   2.549   3.433 -0.4766 -0.4579  0.3341
   39MOL0     C 5157   6.420   2.541   3.403 -0.5276 -0.5159  0.1117
   39MOL0     C 5158   6.484   2.651   3.338 -0.8283 -0.2098  0.8241
   39MOL0     C 5159   6.628   2.653   3.290  0.5955  0.6440 -0.8897
   39MOL0     O 5160   6.660   2.727   3.174  0.1201 -0.3135  0.5220
   39MOL0     C 5161   6.785   2.727   3.126 -0.1851  0.1620 -0.2161
   39MOL0     C 5162   6.844   2.614   3.065 -0.0925  0.6148  0.8217
   39MOL0     C 5163   6.980   2.611   3.030  0.0318 -0.1593 -0.3149
   39MOL0     C 5164   7.066   2.716   3.059  0.8309  0.7393 -0.8406
   39MOL0     O 5165   7.195   2.703   3.011  0.1271 -0.1145  0.3312
   39MOL0     C 5166   7.293   2.790   3.076 -0.7955  0.4742  0.3737
   39MOL0     C 5167   7.436   2.773   3.010  0.3418  0.3809 -0.3322
   39MOL0     C 5168   7.535   2.860   3.093 -0.7261  0.9070 -0.2428
   39MOL0     C 5169   7.683   2.815   3.057  0.6752  0.6820  0.3899
   39MOL0     C 5170   7.717   2.881   2.928  0.0030  0.5240  0.4869
   39MOL0     C 5171   7.831   2.826   2.852  0.2509  0.5705  0.4802
   39MOL0     C 5172   7.963   2.817   2.933 -0.0963  0.0827 -0.5012
   39MOL0     C 5173   8.077   2.758   2.844 -0.4757 -0.1114 -0.2083
   39MOL0    Cl 5174   8.224   2.762   2.949 -0.2537 -0.1138 -0.0476
   39MOL0     C 5175   7.007   2.832   3.111  0.6016 -0.5424  0.3188
   39MOL0     C 5176   6.861   2.843   3.143  0.5514  0.2786  0.0637
   39MOL0     O 5177   6.709   2.579   3.344 -0.5257 -0.0918 -0.6898
   39MOL0     C 5178   6.406   2.763   3.299 -1.0892  0.3614 -0.3992
   39MOL0     C 5179   6.274   2.770   3.347 -0.2218 -0.2447  1.3521
   39MOL0     N 5180   5.594   2.583   3.766  0.3638  0.5947  0.4842
   39MOL0     N 5181   5.512   2.494   3.816  0.1368  0.0720  0.4095
   39MOL0     C 5182   4.252   2.713   3.987  0.1549 -0.5283 -0.7748
   39MOL0     C 5183   4.109   2.691   3.984  0.2272 -0.1106 -0.1124
   39MOL0     C 5184   3.700   2.545   3.800  0.0626 -0.5286  0.3528
   39MOL0     C 5185   3.638   2.512   3.924  0.0402 -1.6067  0.0409
   39MOL0     C 5186   3.516   2.458   3.932  0.5022 -0.6829  0.0190
   39MOL0     C 5187   3.433   2.434   3.821  0.0426 -0.6928  1.6711
   39MOL0     O 5188   3.312   2.373   3.837 -0.2556  0.6809 -0.8097
   39MOL0     C 5189   3.236   2.311   3.735  0.0163 -0.0952  0.6550
   39MOL0     C 5190   3.142   2.423   3.689 -0.6627  0.4924 -0.6016
   39MOL0     C 5191   3.048   2.382   3.571 -0.2057  1.0131 -0.3146
   39MOL0     C 5192   2.973   2.491   3.482  0.3699 -0.8962  0.4656
   39MOL0     C 5193   2.898   2.418   3.380  0.0149 -0.0203  0.4704
   39MOL0     C 5194   2.835   2.375   3.284  0.1776  0.6230  0.3593
   39MOL0     C 5195   3.488   2.464   3.703  0.2907  0.3332  0.1538
   39MOL0     C 5196   3.618   2.525   3.688 -1.3422 -0.3100  0.2276
   39MOL0     C 5197   3.674   2.537   3.551  0.4617  0.0385 -0.6199
   39MOL0     H 5198   4.077   2.448   3.765 -3.6934  3.1632 -0.6150
   39MOL0     H 5199   4.322   2.463   3.763  0.1997  0.2862  0.2807
   39MOL0     H 5200   4.547   2.490   3.984 -1.1534  0.8079  1.5012
   39MOL0     H 5201   4.535   2.502   3.804  1.9008  2.3330 -1.9064
   39MOL0     H 5202   4.708   2.685   3.950 -0.1841 -1.1394  1.4631
   39MOL0     H 5203   4.699   2.646   3.771 -3.2236  3.6286  1.3743
   39MOL0     H 5204   4.744   2.398   3.869 -2.7689  1.1821  1.4643
   39MOL0     H 5205   4.798   2.490   4.006 -2.4834  0.0227 -0.6020
   39MOL0     H 5206   4.927   2.494   3.730  3.4934 -0.6029 -0.9771
   39MOL0     H 5207   4.980   2.600   3.870 -3.1756  1.7819  0.5573
   39MOL0     H 5208   5.054   2.389   3.987 -1.0998 -1.1011  0.0383
   39MOL0     H 5209   4.965   2.306   3.854 -0.3631  0.5539 -1.1634
   39MOL0     H 5210   5.124   2.408   3.692 -0.8831 -1.8612 -0.2534
   39MOL0     H 5211   5.184   2.509   3.829 -3.4376  0.2986  0.4522
   39MOL0     H 5212   5.218   2.194   3.838  0.7636 -0.1211  1.6268
   39MOL0     H 5213   5.294   2.309   3.938 -0.8193 -0.6598  0.5635
   39MOL0     H 5214   5.438   2.222   3.737 -0.2077  0.4688  2.1980
   39MOL0     H 5215   5.316   2.277   3.626 -0.9360  0.7420 -0.6373
   39MOL0     H 5216   5.450   2.467   3.497 -0.0059 -1.2210  0.1778
   39MOL0     H 5217   5.592   2.732   3.466 -3.3853 -1.0072  1.5006
   39MOL0     H 5218   5.673   2.769   3.617  0.8436 -1.7006  0.1038
   39MOL0     H 5219   5.781   2.522   3.490 -1.5524 -0.5084 -1.3242
   39MOL0     H 5220   5.810   2.677   3.414 -2.6808  2.5677  0.3186
   39MOL0     H 5221   5.864   2.612   3.711 -0.0700  2.7472 -0.7169
   39MOL0     H 5222   5.906   2.757   3.649  0.3178 -0.2281  2.9744
   39MOL0     H 5223   6.027   2.506   3.541  2.5266  0.8281 -2.7715
   39MOL0     H 5224   6.101   2.623   3.651 -0.0478  0.1379 -0.0297
   39MOL0     H 5225   6.224   2.472   3.484 -2.3149 -0.9484 -2.2693
   39MOL0     H 5226   6.476   2.455   3.438  1.9128  1.0888  0.4146
   39MOL0     H 5227   6.788   2.523   3.046 -0.2534  0.6502  1.1227
   39MOL0     H 5228   7.007   2.516   2.985 -1.6104  0.1565 -2.1161
   39MOL0     H 5229   7.280   2.899   3.073  0.9146  0.7579  1.8375
   39MOL0     H 5230   7.298   2.762   3.181  2.4117 -1.4944 -0.1589
   39MOL0     H 5231   7.460   2.668   3.026  1.5177  0.3142 -2.2258
   39MOL0     H 5232   7.431   2.786   2.901  2.1653 -2.4419 -0.8468
   39MOL0     H 5233   7.527   2.968   3.074  0.7730  1.1910  0.5626
   39MOL0     H 5234   7.515   2.833   3.197  0.5772  1.7332  0.2468
   39MOL0     H 5235   7.688   2.706   3.054  1.2577  0.4922  3.7505
   39MOL0     H 5236   7.758   2.856   3.125  1.0550 -0.1544  0.4830
   39MOL0     H 5237   7.751   2.982   2.951  0.9976 -0.0044  1.3877
   39MOL0     H 5238   7.625   2.879   2.868 -1.4690 -1.7052  2.6448
   39MOL0     H 5239   7.795   2.727   2.824  0.7437  0.4240  0.3415
   39MOL0     H 5240   7.849   2.879   2.758  0.3251  0.1808  0.2707
   39MOL0     H 5241   7.950   2.757   3.023  1.1185  1.2893  0.5248
   39MOL0     H 5242   8.000   2.916   2.962  4.4424 -1.4319 -0.1790
   39MOL0     H 5243   8.038   2.664   2.803 -4.3065  0.4809  1.5952
   39MOL0     H 5244   8.091   2.835   2.767  1.6442  1.3855  1.5392
   39MOL0     H 5245   7.067   2.921   3.122 -0.6500  0.1665  1.6800
   39MOL0     H 5246   6.810   2.923   3.195  0.7678 -0.8393  2.0993
   39MOL0     H 5247   6.446   2.853   3.254  0.6357 -0.0927  0.1506
   39MOL0     H 5248   6.221   2.864   3.334  0.5114 -0.1126 -1.0879
   39MOL0     H 5249   4.296   2.795   4.044 -1.1963  0.8025 -1.5646
   39MOL0     H 5250   4.040   2.757   4.034  1.4599  0.1935  1.2568
   39MOL0     H 5251   3.697   2.537   4.011 -1.6116  0.3875  0.6804
   39MOL0     H 5252   3.477   2.437   4.031  0.2661 -1.3984 -0.2191
   39MOL0     H 5253   3.180   2.237   3.793 -1.1505  2.6104  3.3203
   39MOL0     H 5254   3.293   2.269   3.653  2.0789 -0.0534  1.9876
   39MOL0     H 5255   3.202   2.505   3.648 -0.2190  0.0289 -0.9040
   39MOL0     H 5256   3.085   2.456   3.776  1.4884 -3.6002  2.7443
   39MOL0     H 5257   2.974   2.315   3.616  0.4062 -0.3257 -1.2310
   39MOL0     H 5258   3.107   2.324   3.500 -0.9276 -2.8599  1.9695
   39MOL0     H 5259   2.902   2.549   3.541 -0.2960 -0.6692 -0.5371
   39MOL0     H 5260   3.047   2.553   3.430 -1.5864  0.1566 -1.1722
   39MOL0     H 5261   2.787   2.350   3.191  0.1455  2.5509 -0.1833
   39MOL0     H 5262   3.438   2.438   3.611  2.9875  0.2684 -1.3934
   39MOL0     H 5263   3.587   2.540   3.485 -0.8690 -2.9442  0.8186
   39MOL0     H 5264   3.739   2.624   3.536 -0.6079  0.7634 -1.1922
   39MOL0     H 5265   3.742   2.455   3.524  0.2867  0.0122 -0.9870
   40MOL0     O 5266   1.247   9.725   3.004 -0.2365  0.3638 -0.5730
   40MOL0     C 5267   1.179   9.706   2.899  0.5574  0.1661 -0.6044
   40MOL0     O 5268   1.220   9.636   2.792 -0.2337  0.9067 -0.2008
   40MOL0     C 5269   1.352   9.628   2.761  1.1520  0.3730 -0.1518
   40MOL0     C 5270   1.380   9.535   2.663 -0.4863 -0.0212 -0.1865
   40MOL0     C 5271   1.513   9.505   2.625  0.6659 -0.0404 -0.6677
   40MOL0     C 5272   1.623   9.570   2.682 -0.0338  0.0378 -0.2000
   40MOL0     O 5273   1.753   9.535   2.650 -0.4512 -0.3430 -0.0108
   40MOL0     C 5274   1.862   9.582   2.724 -0.0782  0.4600 -0.2742
   40MOL0     C 5275   1.977   9.536   2.637 -0.0219 -0.9388  0.5742
   40MOL0     C 5276   1.967   9.604   2.506 -0.4164  0.4143 -0.3754
   40MOL0     C 5277   2.108   9.623   2.450 -0.2583 -0.0741 -0.4484
   40MOL0     C 5278   2.093   9.706   2.319 -0.6955 -0.7366 -0.8251
   40MOL0     C 5279   2.220   9.710   2.237 -0.4791  1.3869  0.3200
   40MOL0     C 5280   2.347   9.723   2.324  0.3278 -0.3723  0.0899
   40MOL0     C 5281   2.342   9.856   2.395 -0.2850  0.3583 -0.4741
   40MOL0     N 5282   2.444   9.884   2.502 -0.1094 -0.1882 -0.1090
   40MOL0     C 5283   2.552   9.814   2.541  0.0833  0.4607 -0.2708
   40MOL0     C 5284   2.610   9.893   2.639  0.5694  0.2378 -0.1293
   40MOL0     C 5285   2.734   9.872   2.717  0.1631 -0.4658 -0.5925
   40MOL0     C 5286   2.849   9.946   2.645 -0.4736 -0.0885  0.3429
   40MOL0     C 5287   2.986   9.925   2.724 -0.1553 -1.3627 -0.9561
   40MOL0     C 5288   3.109   9.966   2.645  0.4553  0.3828  0.0325
   40MOL0     O 5289   3.224   9.886   2.674  0.1051  0.1598 -0.3068
   40MOL0     C 5290   3.337   9.938   2.742 -0.3848 -0.4611 -0.5466
   40MOL0     C 5291   3.381  10.068   2.753  0.5253  0.5972 -0.0566
   40MOL0     C 5292   3.513  10.101   2.804 -0.0262 -1.3337  1.0248
   40MOL0     C 5293   3.593   9.993   2.857 -0.2129 -0.3314 -0.1844
   40MOL0     C 5294   3.718  10.034   2.929 -0.0336  0.5640  0.0738
   40MOL0     O 5295   3.737  10.162   2.949 -0.5266 -0.3315  0.3775
   40MOL0     C 5296   3.854  10.210   2.990  0.3324 -0.6265 -0.4168
   40MOL0     C 5297   3.907  10.210   3.116 -0.5065  0.4673 -0.6617
   40MOL0     C 5298   4.030  10.263   3.145  0.3524 -0.0373 -0.1037
   40MOL0     C 5299   4.113  10.314   3.049 -0.5357 -0.5053  1.1650
   40MOL0     O 5300   4.242  10.348   3.086  0.2400  0.1967 -0.2493
   40MOL0     C 5301   4.313  10.440   3.007  0.2421  0.2981 -0.2027
   40MOL0     C 5302   4.431  10.474   3.091 -0.4767 -1.0064  0.2378
   40MOL0     C 5303   4.507  10.589   3.027 -0.0551  0.5565  0.1878
   40MOL0     C 5304   4.543  10.559   2.878  0.0618 -0.0632 -0.1746
   40MOL0     C 5305   4.630  10.665   2.814 -0.1960 -0.0527 -0.3918
   40MOL0     C 5306   4.549  10.781   2.770  0.7307 -0.4268  0.1200
   40MOL0     C 5307   4.639  10.889   2.693 -0.4840 -0.2723 -0.7954
   40MOL0     C 5308   4.673  10.855   2.550  0.7525 -0.4270  0.3033
   40MOL0    Cl 5309   4.531  10.904   2.439 -0.1823  0.0112  0.0167
   40MOL0     C 5310   4.057  10.328   2.921 -0.3161 -0.6369  0.4150
   40MOL0     C 5311   3.928  10.282   2.890  0.9245  0.7920  0.1233
   40MOL0     O 5312   3.803   9.951   2.942  0.8642  0.7165  0.2211
   40MOL0     C 5313   3.548   9.863   2.842  0.0080  0.0848  0.2360
   40MOL0     C 5314   3.425   9.837   2.785 -0.1482  0.3736  0.5904
   40MOL0     N 5315   2.537  10.013   2.657  0.0721  0.6780  0.6803
   40MOL0     N 5316   2.443  10.003   2.577 -0.0239 -1.2261 -0.0177
   40MOL0     C 5317   1.593   9.669   2.780 -0.4388  0.0112  0.2707
   40MOL0     C 5318   1.461   9.696   2.808 -0.0629 -0.2314  0.1600
   40MOL0     C 5319   1.036   9.743   2.920  0.1271  0.1869  0.4480
   40MOL0     C 5320   0.945   9.659   2.862  0.3219  0.8476  0.1823
   40MOL0     C 5321   0.806   9.675   2.890 -0.2176 -1.1939  0.0971
   40MOL0     C 5322   0.757   9.776   2.971 -0.0472 -0.1231  1.6451
   40MOL0     O 5323   0.617   9.783   2.989 -0.4839 -0.4239 -0.0187
   40MOL0     C 5324   0.584   9.796   3.125  0.1823 -0.2736 -0.9836
   40MOL0     C 5325   0.439   9.739   3.152  0.2411  0.8927  0.0509
   40MOL0     C 5326   0.341   9.846   3.113  0.2146  0.7454  0.8644
   40MOL0     C 5327   0.202   9.772   3.117  0.0749 -0.8071 -0.0111
   40MOL0     C 5328   0.086   9.855   3.095  0.9615 -0.2375 -0.2430
   40MOL0     C 5329  -0.023   9.898   3.056  0.1256  0.5012 -0.3435
   40MOL0     C 5330   0.851   9.866   3.018 -1.0086 -0.8945 -0.6575
   40MOL0     C 5331   0.992   9.848   2.997  0.3678  0.4457  0.4845
   40MOL0     C 5332   1.084   9.950   3.062 -0.5490 -0.4397  0.5609
   40MOL0     H 5333   1.291   9.483   2.630  0.5663 -0.4372 -2.5532
   40MOL0     H 5334   1.542   9.429   2.553  1.9618 -0.7555  0.5566
   40MOL0     H 5335   1.846   9.691   2.727 -1.7077  0.2605 -0.6547
   40MOL0     H 5336   1.872   9.535   2.822 -3.5802  0.9015  0.4245
   40MOL0     H 5337   1.979   9.427   2.630 -4.6702 -1.1141 -2.7434
   40MOL0     H 5338   2.067   9.573   2.687  0.2714 -0.3471 -0.3559
   40MOL0     H 5339   1.928   9.704   2.524  1.0975  0.8754  0.4409
   40MOL0     H 5340   1.904   9.546   2.436 -1.0011 -1.5706  1.6717
   40MOL0     H 5341   2.165   9.670   2.531 -2.0363  2.6435 -0.6360
   40MOL0     H 5342   2.152   9.526   2.427  0.9013 -0.1728  1.9373
   40MOL0     H 5343   2.027   9.651   2.252 -0.5625 -3.6951  1.2484
   40MOL0     H 5344   2.061   9.808   2.341  2.1035  0.3830 -1.5075
   40MOL0     H 5345   2.228   9.613   2.187 -1.7991 -0.0964  2.7794
   40MOL0     H 5346   2.209   9.792   2.165  0.8326  2.2890  1.0864
   40MOL0     H 5347   2.436   9.723   2.261  2.3538 -2.5401  2.7056
   40MOL0     H 5348   2.365   9.640   2.393 -2.2802 -1.5797 -0.5745
   40MOL0     H 5349   2.367   9.929   2.318 -0.6911 -1.1328 -2.0540
   40MOL0     H 5350   2.241   9.874   2.433 -1.1519  0.9337 -2.8969
   40MOL0     H 5351   2.584   9.723   2.491 -1.1381  0.0728 -0.3802
   40MOL0     H 5352   2.718   9.895   2.822  1.4335 -2.5729  0.1197
   40MOL0     H 5353   2.771   9.769   2.718  4.6364  0.7852  3.4051
   40MOL0     H 5354   2.847   9.902   2.544  0.8170 -0.9782  0.6809
   40MOL0     H 5355   2.817  10.050   2.632 -2.0189 -0.6091 -0.2498
   40MOL0     H 5356   2.977   9.819   2.749 -0.7040 -0.8717  1.1401
   40MOL0     H 5357   2.981   9.978   2.820  0.6615 -1.5782 -0.7848
   40MOL0     H 5358   3.134  10.070   2.671  2.0787  0.1263 -0.3986
   40MOL0     H 5359   3.083   9.966   2.539 -0.0336 -1.6429  0.1197
   40MOL0     H 5360   3.325  10.159   2.732 -0.0059  2.2239  6.3363
   40MOL0     H 5361   3.539  10.206   2.806 -0.5042 -1.1526 -0.7969
   40MOL0     H 5362   3.848  10.173   3.199  1.8028 -1.7675  0.1085
   40MOL0     H 5363   4.059  10.254   3.249 -0.4536 -0.4120  0.0988
   40MOL0     H 5364   4.327  10.389   2.911 -0.5900 -1.4565  0.5775
   40MOL0     H 5365   4.256  10.532   2.988 -0.5440 -0.0719  0.3200
   40MOL0     H 5366   4.401  10.509   3.190  0.9509  0.9242  0.0381
   40MOL0     H 5367   4.494  10.384   3.094 -0.5515 -1.0303  1.7186
   40MOL0     H 5368   4.448  10.681   3.040 -2.0269 -0.5848 -0.3220
   40MOL0     H 5369   4.603  10.591   3.081 -0.0783 -4.9184  0.9537
   40MOL0     H 5370   4.444  10.542   2.834 -0.3492 -0.9741  1.0515
   40MOL0     H 5371   4.598  10.464   2.881  0.1310 -0.0939 -1.7039
   40MOL0     H 5372   4.673  10.627   2.721  4.5878 -1.0684  1.9059
   40MOL0     H 5373   4.701  10.697   2.890 -0.3150 -0.0970 -0.2611
   40MOL0     H 5374   4.467  10.755   2.702  0.4275  1.6405 -0.3690
   40MOL0     H 5375   4.499  10.829   2.855 -2.5515 -1.5581 -0.9866
   40MOL0     H 5376   4.734  10.905   2.745 -2.0909 -2.6039  3.2505
   40MOL0     H 5377   4.578  10.980   2.703 -1.0793 -0.8813  1.6305
   40MOL0     H 5378   4.754  10.920   2.518 -1.1873  2.2706  0.5130
   40MOL0     H 5379   4.694  10.748   2.539 -1.5361 -1.0981  1.7052
   40MOL0     H 5380   4.107  10.380   2.841  0.4589 -3.8010 -1.3520
   40MOL0     H 5381   3.889  10.296   2.790  2.8487  0.6980 -0.6725
   40MOL0     H 5382   3.600   9.775   2.877 -1.0594 -0.9266 -0.6477
   40MOL0     H 5383   3.400   9.737   2.753  2.5476 -0.4755  0.8516
   40MOL0     H 5384   1.669   9.710   2.845  2.1045 -2.5024 -0.9121
   40MOL0     H 5385   1.447   9.781   2.874 -1.1722  0.8660 -1.4123
   40MOL0     H 5386   0.986   9.579   2.802 -2.1717 -1.6672  1.5807
   40MOL0     H 5387   0.729   9.623   2.834 -1.6834 -0.3447  1.2476
   40MOL0     H 5388   0.593   9.897   3.165 -0.4038 -0.9322  0.9427
   40MOL0     H 5389   0.661   9.740   3.180 -1.3340 -2.3372 -0.8484
   40MOL0     H 5390   0.434   9.729   3.260 -0.5444  1.4908  0.0807
   40MOL0     H 5391   0.420   9.644   3.102  1.1158  1.6664 -1.8813
   40MOL0     H 5392   0.353   9.869   3.007  2.2453 -2.8382  0.1613
   40MOL0     H 5393   0.349   9.933   3.178 -2.9122  3.4013 -1.9642
   40MOL0     H 5394   0.209   9.692   3.043 -1.2481  1.5871 -2.9692
   40MOL0     H 5395   0.188   9.728   3.216  0.4001 -1.6156 -0.3196
   40MOL0     H 5396  -0.115   9.934   3.014  1.8419  0.7765 -4.3310
   40MOL0     H 5397   0.820   9.954   3.073  1.0238  0.5005 -1.6012
   40MOL0     H 5398   1.028  10.034   3.105  0.6208  1.3966 -1.3237
   40MOL0     H 5399   1.139   9.903   3.144  1.8382 -0.5392 -0.9939
   40MOL0     H 5400   1.152   9.988   2.984 -1.6060 -1.7658 -1.0597
   41MOL0     O 5401   8.293   2.093   1.331 -0.5009 -0.1501  0.2435
   41MOL0     C 5402   8.376   2.008   1.344  0.2126 -0.7935  0.3574
   41MOL0     O 5403   8.505   2.027   1.391 -0.2128  0.0638 -0.1289
   41MOL0     C 5404   8.564   2.144   1.417  0.3500 -0.5515 -0.7523
   41MOL0     C 5405   8.501   2.264   1.449  0.0693 -0.5372 -0.6086
   41MOL0     C 5406   8.572   2.377   1.463  0.5918 -0.3920 -1.1256
   41MOL0     C 5407   8.707   2.376   1.449  1.0445 -0.1879  1.0716
   41MOL0     O 5408   8.785   2.489   1.469 -0.4523  0.3884 -0.5757
   41MOL0     C 5409   8.733   2.603   1.400 -0.1141 -0.3730  0.0873
   41MOL0     C 5410   8.823   2.729   1.407 -0.2934  0.8150  0.4723
   41MOL0     C 5411   8.940   2.732   1.311 -0.1703  0.4617 -0.3395
   41MOL0     C 5412   9.023   2.610   1.293 -0.0464 -0.4550  0.1130
   41MOL0     C 5413   9.093   2.552   1.413 -1.0109  0.1788 -0.0873
   41MOL0     C 5414   9.210   2.625   1.478  0.3852  0.3545 -0.5461
   41MOL0     C 5415   9.319   2.673   1.388 -0.3499  0.0843  0.1851
   41MOL0     C 5416   9.389   2.792   1.459  0.0615  0.6454  0.2504
   41MOL0     N 5417   9.489   2.854   1.379 -0.0663  0.2764  0.1657
   41MOL0     C 5418   9.573   2.784   1.293 -0.7167 -0.5246  0.1285
   41MOL0     C 5419   9.627   2.878   1.211  0.3159 -0.1183 -0.0282
   41MOL0     C 5420   9.689   2.847   1.082 -0.3032  0.9129  0.8187
   41MOL0     C 5421   9.843   2.856   1.083  0.6867 -0.4320 -0.5663
   41MOL0     C 5422   9.910   2.785   0.960  0.2973  0.3663 -0.6132
   41MOL0     C 5423  10.049   2.843   0.925 -1.0119 -0.6250 -0.1621
   41MOL0     O 5424  10.140   2.823   1.028  0.5844  0.2183  0.6891
   41MOL0     C 5425  10.265   2.872   1.011 -0.1280 -0.1741  0.8542
   41MOL0     C 5426  10.296   2.998   0.966  0.5537 -0.3617  0.4915
   41MOL0     C 5427  10.423   3.055   0.949  0.1396 -0.4378  0.3498
   41MOL0     C 5428  10.533   2.980   0.993  1.2672 -0.1442 -1.1151
   41MOL0     C 5429  10.671   3.039   1.011 -0.5954  0.5866 -0.3880
   41MOL0     O 5430  10.696   3.162   0.956  0.5577  0.7930 -0.0559
   41MOL0     C 5431  10.824   3.209   0.965  0.5439  0.2073 -0.3376
   41MOL0     C 5432  10.847   3.334   1.015  0.9108 -0.5804 -0.8371
   41MOL0     C 5433  10.975   3.384   1.028 -0.2129  0.2978  0.1829
   41MOL0     C 5434  11.084   3.312   0.981  0.3315 -1.4115 -0.5043
   41MOL0     O 5435  11.216   3.352   0.998 -0.5644  0.1378  0.5699
   41MOL0     C 5436  11.253   3.465   1.085 -1.0132 -0.0638  0.3733
   41MOL0     C 5437  11.214   3.448   1.235  0.1447  0.1478 -0.2982
   41MOL0     C 5438  11.296   3.324   1.288  0.3715  0.5380 -0.0015
   41MOL0     C 5439  11.251   3.292   1.423 -0.3532 -0.3377  0.0086
   41MOL0     C 5440  11.363   3.212   1.487  0.1536 -0.4766  0.3963
   41MOL0     C 5441  11.325   3.172   1.629  0.2311  0.1616  0.1699
   41MOL0     C 5442  11.348   3.286   1.731  0.7795 -1.5705  0.3981
   41MOL0     C 5443  11.331   3.243   1.874  0.3624  0.9324  0.3915
   41MOL0    Cl 5444  11.372   3.385   1.976  0.5306 -0.0613  0.4660
   41MOL0     C 5445  11.057   3.196   0.901 -0.6032  0.3169  0.4631
   41MOL0     C 5446  10.926   3.139   0.901  0.5635 -0.6704  0.0210
   41MOL0     O 5447  10.751   2.967   1.076 -0.3378 -0.2350  0.2585
   41MOL0     C 5448  10.504   2.850   1.045 -0.4882 -0.6006 -0.0014
   41MOL0     C 5449  10.374   2.797   1.059  0.3316 -0.7080  0.7545
   41MOL0     N 5450   9.583   3.006   1.265  0.8743 -0.5431  1.0268
   41MOL0     N 5451   9.498   2.988   1.356  0.1745  0.1827 -0.4577
   41MOL0     C 5452   8.772   2.250   1.423 -0.2476 -0.6264 -0.1233
   41MOL0     C 5453   8.698   2.131   1.415 -0.2267  1.4593  0.0826
   41MOL0     C 5454   8.360   1.869   1.296  0.8369 -0.8746  0.4097
   41MOL0     C 5455   8.468   1.787   1.264 -0.9495  0.6133  0.5152
   41MOL0     C 5456   8.456   1.649   1.242 -0.8001  0.0975  0.4004
   41MOL0     C 5457   8.331   1.591   1.249 -0.0320 -0.4182  0.6880
   41MOL0     O 5458   8.327   1.455   1.235  0.0419 -0.4289  0.1188
   41MOL0     C 5459   8.199   1.403   1.254  0.1903  0.0816  0.0931
   41MOL0     C 5460   8.208   1.246   1.276  0.3901  0.1620 -0.7777
   41MOL0     C 5461   8.270   1.163   1.168  0.2252 -0.1085 -0.0065
   41MOL0     C 5462   8.159   1.137   1.062 -0.6993  0.1756  0.8388
   41MOL0     C 5463   8.225   1.106   0.928 -0.2182 -0.0490 -0.8753
   41MOL0     C 5464   8.285   1.061   0.829 -0.0599 -0.4253  0.3348
   41MOL0     C 5465   8.220   1.679   1.254 -0.7382 -0.6206  0.6284
   41MOL0     C 5466   8.231   1.818   1.291 -0.1049 -0.2211  0.1332
   41MOL0     C 5467   8.101   1.891   1.312 -0.1431  0.5937  0.3579
   41MOL0     H 5468   8.393   2.275   1.455  0.0328 -0.6665 -0.9971
   41MOL0     H 5469   8.513   2.466   1.480 -1.2815 -1.4474 -1.8674
   41MOL0     H 5470   8.720   2.580   1.294 -0.7663  1.7574 -0.3463
   41MOL0     H 5471   8.640   2.628   1.454 -1.7189 -3.4083 -1.0402
   41MOL0     H 5472   8.868   2.728   1.507  1.2876 -1.0244 -0.2023
   41MOL0     H 5473   8.754   2.810   1.383 -1.3326 -1.0194 -3.6365
   41MOL0     H 5474   8.999   2.818   1.344 -1.6516  0.9476  1.1242
   41MOL0     H 5475   8.908   2.768   1.213 -0.9067 -0.6476 -0.5187
   41MOL0     H 5476   8.959   2.531   1.254 -0.9421  0.1611  0.3187
   41MOL0     H 5477   9.090   2.634   1.211 -2.3550 -0.4335 -1.8645
   41MOL0     H 5478   9.026   2.558   1.499  0.5672  0.4401  1.1817
   41MOL0     H 5479   9.127   2.452   1.385 -0.1459  0.8658 -1.6079
   41MOL0     H 5480   9.160   2.707   1.531  1.2845  0.3461  0.3524
   41MOL0     H 5481   9.259   2.561   1.552 -1.9439 -0.3235  0.5203
   41MOL0     H 5482   9.289   2.705   1.287 -0.2778 -1.4641 -0.3483
   41MOL0     H 5483   9.384   2.588   1.365 -1.2228 -1.3205  2.6438
   41MOL0     H 5484   9.305   2.858   1.486  0.2120  0.8050  0.3295
   41MOL0     H 5485   9.427   2.761   1.557  2.2652  1.8507 -0.1420
   41MOL0     H 5486   9.589   2.678   1.276 -2.7922 -1.0860  1.2864
   41MOL0     H 5487   9.664   2.744   1.056  0.3648  0.8914  0.2301
   41MOL0     H 5488   9.650   2.907   0.999  1.3244 -2.2908 -2.5901
   41MOL0     H 5489   9.869   2.962   1.081 -0.9194  0.0121  0.3409
   41MOL0     H 5490   9.889   2.812   1.172  0.6571  1.3093  0.3583
   41MOL0     H 5491   9.844   2.799   0.873  0.2702  0.4964 -0.5706
   41MOL0     H 5492   9.932   2.679   0.979 -1.5814 -0.0269 -0.3796
   41MOL0     H 5493  10.033   2.951   0.911 -1.9016 -0.8441 -0.9179
   41MOL0     H 5494  10.102   2.814   0.834 -1.3637 -1.0573 -0.2318
   41MOL0     H 5495  10.212   3.055   0.928  0.7114 -0.3046  0.2272
   41MOL0     H 5496  10.435   3.156   0.911  2.2481 -1.0149 -0.6881
   41MOL0     H 5497  10.769   3.400   1.052  3.1716  1.9836 -0.2643
   41MOL0     H 5498  10.998   3.479   1.075  1.2242 -0.4092  0.9872
   41MOL0     H 5499  11.361   3.478   1.073 -0.8245 -0.3392  1.6332
   41MOL0     H 5500  11.212   3.558   1.044  0.0285  0.1977 -0.1003
   41MOL0     H 5501  11.229   3.545   1.284 -2.2530 -0.1564  1.2446
   41MOL0     H 5502  11.109   3.428   1.258  0.4967 -0.4429  0.9227
   41MOL0     H 5503  11.274   3.236   1.226 -0.9623  2.0596 -1.7807
   41MOL0     H 5504  11.402   3.348   1.277 -0.2280  3.0057 -1.0110
   41MOL0     H 5505  11.154   3.241   1.423  0.1521 -1.3349  0.4627
   41MOL0     H 5506  11.238   3.386   1.479 -2.7558 -1.0296  0.7410
   41MOL0     H 5507  11.453   3.275   1.486  0.9314 -1.5622 -0.4552
   41MOL0     H 5508  11.389   3.123   1.429  1.5791 -0.5481  1.1006
   41MOL0     H 5509  11.219   3.144   1.628  0.8617 -2.6111  0.9633
   41MOL0     H 5510  11.373   3.077   1.653 -1.5578 -1.0580 -0.8074
   41MOL0     H 5511  11.274   3.362   1.703  1.9560 -0.1745  0.9317
   41MOL0     H 5512  11.450   3.325   1.716 -0.1311  0.9025  0.0695
   41MOL0     H 5513  11.232   3.198   1.883  2.0255 -4.4690 -3.3752
   41MOL0     H 5514  11.406   3.168   1.899  2.5604  2.5970 -0.8078
   41MOL0     H 5515  11.140   3.143   0.855  0.6023  2.4096  0.0992
   41MOL0     H 5516  10.908   3.041   0.857  1.4843 -0.5486 -0.6484
   41MOL0     H 5517  10.593   2.799   1.079 -1.0602 -1.7630 -0.1801
   41MOL0     H 5518  10.361   2.697   1.099  3.4695 -0.6123  2.3189
   41MOL0     H 5519   8.880   2.253   1.414 -0.4120 -0.0736 -3.0478
   41MOL0     H 5520   8.735   2.035   1.381 -1.4352  1.1740 -0.4933
   41MOL0     H 5521   8.567   1.831   1.254 -1.1931  1.1628  0.4738
   41MOL0     H 5522   8.551   1.602   1.217 -0.9695  1.2800 -3.0559
   41MOL0     H 5523   8.154   1.441   1.161  1.0725  0.8258 -0.0424
   41MOL0     H 5524   8.156   1.447   1.345 -0.8237  1.7325 -1.1188
   41MOL0     H 5525   8.108   1.205   1.295 -0.2782  2.1629  0.2294
   41MOL0     H 5526   8.253   1.240   1.375  1.3141 -2.4012 -1.2760
   41MOL0     H 5527   8.302   1.067   1.210 -2.1136 -2.0854 -2.3361
   41MOL0     H 5528   8.363   1.203   1.127  2.6239 -4.0891  1.0198
   41MOL0     H 5529   8.092   1.057   1.097 -3.9269  0.8925 -2.9630
   41MOL0     H 5530   8.097   1.226   1.046 -0.6272  0.4450  1.9744
   41MOL0     H 5531   8.335   1.047   0.735  1.0817 -1.3514  1.0540
   41MOL0     H 5532   8.117   1.646   1.249 -0.7404 -0.3986 -2.4047
   41MOL0     H 5533   8.106   1.963   1.395  0.1156 -0.1221  0.9742
   41MOL0     H 5534   8.061   1.937   1.221 -0.3403 -1.4744 -0.6371
   41MOL0     H 5535   8.036   1.810   1.345  0.3328  0.2953  0.5821
   42MOL0     O 5536   6.931   9.895  10.460  0.4273  0.4393  0.1621
   42MOL0     C 5537   6.912   9.815  10.552 -0.2298 -0.0398  0.2973
   42MOL0     O 5538   6.998   9.790  10.649  0.2820  0.0048 -0.1876
   42MOL0     C 5539   7.110   9.869  10.657  0.4560  0.7452  0.7421
   42MOL0     C 5540   7.104  10.000  10.711  0.0707  0.2476 -0.3331
   42MOL0     C 5541   7.227  10.063  10.738  0.8415  0.2857  0.2398
   42MOL0     C 5542   7.347  10.007  10.687 -0.3147  0.9149 -0.4931
   42MOL0     O 5543   7.466  10.062  10.705 -0.0947 -0.1137  0.1038
   42MOL0     C 5544   7.479  10.188  10.772  0.0908 -0.0375 -0.9929
   42MOL0     C 5545   7.628  10.246  10.765 -0.3582  0.8571 -1.0197
   42MOL0     C 5546   7.727  10.191  10.873 -0.3746 -0.5901 -0.0917
   42MOL0     C 5547   7.747  10.039  10.866  0.3193 -0.2489  0.0034
   42MOL0     C 5548   7.854  10.001  10.966 -0.0005  0.2489 -1.0361
   42MOL0     C 5549   7.861   9.848  10.964 -0.7959 -0.6455  0.0353
   42MOL0     C 5550   7.979   9.780  11.030  0.2379 -0.3455 -0.0944
   42MOL0     C 5551   7.992   9.807  11.184 -0.1408 -0.6798  0.5506
   42MOL0     N 5552   8.103   9.731  11.245  0.3555 -0.6274  0.4839
   42MOL0     C 5553   8.233   9.716  11.202  0.1611 -0.0149  0.7706
   42MOL0     C 5554   8.282   9.624  11.285 -0.4952 -0.0166  0.0238
   42MOL0     C 5555   8.407   9.544  11.261 -0.5564 -1.2802 -0.4225
   42MOL0     C 5556   8.510   9.581  11.372 -0.4399  0.2548  0.7743
   42MOL0     C 5557   8.645   9.495  11.349  0.8405 -0.2669  0.1354
   42MOL0     C 5558   8.744   9.523  11.460 -1.0703  0.3975  0.4564
   42MOL0     O 5559   8.851   9.433  11.427 -0.0212  0.3144 -1.1229
   42MOL0     C 5560   8.960   9.440  11.517 -0.0218  0.4704 -0.5921
   42MOL0     C 5561   8.959   9.528  11.630 -1.1816 -0.2768  0.0224
   42MOL0     C 5562   9.068   9.534  11.716 -0.0537 -0.5875  0.4672
   42MOL0     C 5563   9.178   9.455  11.699 -0.2442 -0.7648  0.3990
   42MOL0     C 5564   9.297   9.487  11.792 -0.5499  0.5434  0.2792
   42MOL0     O 5565   9.375   9.376  11.815 -0.4593 -0.3400  0.0648
   42MOL0     C 5566   9.483   9.371  11.902 -0.3764 -0.4172 -0.1796
   42MOL0     C 5567   9.514   9.248  11.963  0.9157  0.0571  1.2092
   42MOL0     C 5568   9.613   9.243  12.064 -1.0616 -0.4666  0.5679
   42MOL0     C 5569   9.690   9.357  12.094 -0.0545  0.6335 -0.8623
   42MOL0     O 5570   9.780   9.361  12.202 -0.3094  0.2221 -0.0796
   42MOL0     C 5571   9.849   9.244  12.259 -0.6207 -0.7791  0.0611
   42MOL0     C 5572   9.958   9.208  12.151 -0.2857  0.1875 -0.1007
   42MOL0     C 5573  10.085   9.292  12.178  0.6187 -1.2893  1.1013
   42MOL0     C 5574  10.211   9.211  12.174  0.2617 -0.2956 -0.8127
   42MOL0     C 5575  10.337   9.294  12.146  0.0243 -0.1348  0.0105
   42MOL0     C 5576  10.460   9.201  12.133 -0.2976 -0.1651  0.4412
   42MOL0     C 5577  10.542   9.191  12.255  0.3435 -0.4883  0.1831
   42MOL0     C 5578  10.668   9.112  12.217  0.1661 -0.1012  0.1894
   42MOL0    Cl 5579  10.761   9.070  12.356  0.2088  0.3013 -0.1120
   42MOL0     C 5580   9.662   9.474  12.032 -1.4946  0.4308  0.1298
   42MOL0     C 5581   9.566   9.480  11.937  0.0972 -0.9421  1.0898
   42MOL0     O 5582   9.307   9.599  11.845 -0.1705  0.7919  0.0942
   42MOL0     C 5583   9.173   9.359  11.594 -0.6069  0.2833 -0.7419
   42MOL0     C 5584   9.071   9.361  11.495 -0.3248  0.5662 -0.0017
   42MOL0     N 5585   8.188   9.593  11.383 -0.2203  0.4142 -0.1192
   42MOL0     N 5586   8.080   9.657  11.352 -0.9831 -0.1480  0.0360
   42MOL0     C 5587   7.349   9.889  10.610  0.9606  0.4060  0.2759
   42MOL0     C 5588   7.226   9.821  10.595 -0.7030 -0.0935 -0.0562
   42MOL0     C 5589   6.788   9.733  10.550 -0.5494 -0.6127 -0.0919
   42MOL0     C 5590   6.769   9.637  10.648  0.6249  0.0626 -0.4188
   42MOL0     C 5591   6.656   9.555  10.650  0.3918 -1.0272 -0.4059
   42MOL0     C 5592   6.556   9.572  10.559 -0.2000 -0.1197  0.3916
   42MOL0     O 5593   6.437   9.509  10.563  0.0778 -0.1134  0.4103
   42MOL0     C 5594   6.415   9.390  10.633  0.9640 -0.4222  0.5593
   42MOL0     C 5595   6.469   9.264  10.569 -0.0658  0.3801  0.4535
   42MOL0     C 5596   6.404   9.234  10.444  0.7194  1.1055 -0.6786
   42MOL0     C 5597   6.475   9.154  10.339  0.4686 -0.3154 -0.5406
   42MOL0     C 5598   6.374   9.130  10.230 -0.0678  0.7174 -0.6571
   42MOL0     C 5599   6.286   9.116  10.143 -0.5296 -0.0139 -0.1935
   42MOL0     C 5600   6.569   9.670  10.460 -0.0482 -0.5535  0.3789
   42MOL0     C 5601   6.681   9.752  10.455  0.6576  0.4092  0.0526
   42MOL0     C 5602   6.687   9.858  10.344  0.8887  0.3498 -0.2418
   42MOL0     H 5603   7.015  10.051  10.747 -0.0951 -0.1412 -0.1842
   42MOL0     H 5604   7.215  10.153  10.798 -2.8439  0.3396 -0.3389
   42MOL0     H 5605   7.416  10.258  10.717 -0.3751 -0.3974 -0.9189
   42MOL0     H 5606   7.457  10.182  10.879  0.5185  4.2362 -0.4919
   42MOL0     H 5607   7.624  10.355  10.775 -3.8149  0.8851 -1.4158
   42MOL0     H 5608   7.649  10.222  10.661 -0.0945  2.0152 -1.2477
   42MOL0     H 5609   7.701  10.222  10.975 -0.4309  0.5361 -0.4405
   42MOL0     H 5610   7.816  10.243  10.838 -1.9839  1.2039 -1.7421
   42MOL0     H 5611   7.654   9.990  10.898  0.6097  1.1807  3.5202
   42MOL0     H 5612   7.784  10.012  10.767 -0.2225  2.0509 -0.8952
   42MOL0     H 5613   7.952  10.036  10.934 -0.4520  1.5895 -1.0090
   42MOL0     H 5614   7.827  10.043  11.064 -0.1370  2.8078 -2.1006
   42MOL0     H 5615   7.774   9.793  11.000 -2.6576  1.8762 -0.3538
   42MOL0     H 5616   7.875   9.813  10.861 -0.8365 -0.5543 -0.0016
   42MOL0     H 5617   8.068   9.811  10.976  0.9575  0.9469  1.7399
   42MOL0     H 5618   7.987   9.671  11.029  3.8443 -0.1779 -0.6002
   42MOL0     H 5619   8.005   9.913  11.210  5.9967 -0.1391 -2.6806
   42MOL0     H 5620   7.896   9.770  11.220 -0.1743 -0.3071  0.8478
   42MOL0     H 5621   8.277   9.767  11.117 -0.7684  1.8316  1.3295
   42MOL0     H 5622   8.384   9.437  11.261 -1.7061 -1.0402 -0.7235
   42MOL0     H 5623   8.450   9.574  11.164  1.2418  0.6261  0.8690
   42MOL0     H 5624   8.532   9.688  11.365 -0.5887  0.2332 -0.0405
   42MOL0     H 5625   8.469   9.571  11.473 -0.6464  1.4579  0.8206
   42MOL0     H 5626   8.683   9.527  11.251  3.0129 -1.1752  0.6309
   42MOL0     H 5627   8.622   9.388  11.340  0.5852 -0.4982  2.8041
   42MOL0     H 5628   8.713   9.497  11.562  2.3508 -0.3185  1.4427
   42MOL0     H 5629   8.781   9.626  11.469 -1.3691  0.5076  0.4245
   42MOL0     H 5630   8.875   9.591  11.654 -0.7608  0.4075 -0.2722
   42MOL0     H 5631   9.060   9.598  11.803  2.8516  2.4450 -1.2610
   42MOL0     H 5632   9.462   9.155  11.942  0.7340 -0.1157  2.3478
   42MOL0     H 5633   9.631   9.150  12.115  2.6344 -0.8379 -1.1020
   42MOL0     H 5634   9.899   9.282  12.348  0.2243 -3.1695  0.6895
   42MOL0     H 5635   9.784   9.159  12.284 -3.4349  1.3463  0.4288
   42MOL0     H 5636   9.982   9.102  12.158  1.0812  0.5269  0.8615
   42MOL0     H 5637   9.926   9.215  12.046  2.2499 -0.5046 -1.0120
   42MOL0     H 5638  10.097   9.371  12.103  1.7441 -0.2267  2.3419
   42MOL0     H 5639  10.076   9.340  12.276 -2.6623 -0.6609  0.5974
   42MOL0     H 5640  10.201   9.144  12.088 -3.7259 -2.0131  0.7338
   42MOL0     H 5641  10.209   9.162  12.272 -2.2214  0.6133 -0.3399
   42MOL0     H 5642  10.356   9.373  12.219  1.1425 -0.6124  0.2647
   42MOL0     H 5643  10.320   9.342  12.049  0.1952  0.8284  0.4477
   42MOL0     H 5644  10.419   9.101  12.114 -0.6221  0.1681 -0.7500
   42MOL0     H 5645  10.528   9.228  12.052 -0.3789 -1.0654  0.0501
   42MOL0     H 5646  10.482   9.135  12.327 -1.1155  0.4199 -0.2883
   42MOL0     H 5647  10.577   9.292  12.278  1.7511 -0.5690 -1.3625
   42MOL0     H 5648  10.628   9.025  12.165  0.9628  1.6996 -3.7895
   42MOL0     H 5649  10.737   9.162  12.149 -2.1939 -0.1589 -2.4180
   42MOL0     H 5650   9.727   9.557  12.060 -0.0758 -1.0252  1.3713
   42MOL0     H 5651   9.547   9.573  11.883 -0.5018 -1.7125 -0.0801
   42MOL0     H 5652   9.261   9.300  11.572 -0.4787 -0.1165  0.7331
   42MOL0     H 5653   9.066   9.291  11.412  0.4953 -1.1205  1.3116
   42MOL0     H 5654   7.434   9.861  10.548 -1.2679  4.5933 -5.5776
   42MOL0     H 5655   7.217   9.727  10.542 -1.2676  0.7384 -1.5004
   42MOL0     H 5656   6.844   9.613  10.723 -1.4771 -0.4755  1.6378
   42MOL0     H 5657   6.638   9.480  10.725  2.3005  0.0201  1.1955
   42MOL0     H 5658   6.306   9.389  10.645  0.6597 -1.2617 -1.7636
   42MOL0     H 5659   6.453   9.396  10.735  0.3615  0.3109  0.7579
   42MOL0     H 5660   6.460   9.184  10.643  0.2175  3.3816  4.0696
   42MOL0     H 5661   6.576   9.272  10.547 -0.3327 -1.2380 -1.7643
   42MOL0     H 5662   6.375   9.331  10.401 -4.4849  1.0381  1.8589
   42MOL0     H 5663   6.315   9.181  10.479  0.7664  0.0732 -2.0885
   42MOL0     H 5664   6.555   9.207  10.287  0.0515  2.2537  1.2515
   42MOL0     H 5665   6.511   9.064  10.388  0.0791 -0.2613 -0.1554
   42MOL0     H 5666   6.222   9.105  10.058 -0.4188  0.1697 -0.3003
   42MOL0     H 5667   6.485   9.697  10.397 -0.8169  2.4614  2.4369
   42MOL0     H 5668   6.594   9.872  10.289  0.8244  0.7404 -0.0351
   42MOL0     H 5669   6.722   9.958  10.369 -0.6356  1.5264 -2.4743
   42MOL0     H 5670   6.757   9.811  10.274  0.5861 -0.0199 -0.2960
   43MOL0     O 5671   8.498   8.549   1.786 -0.2442  0.5654  0.5193
   43MOL0     C 5672   8.393   8.496   1.805  0.0756 -0.1869  1.1761
   43MOL0     O 5673   8.382   8.364   1.857 -0.5363  0.2348  0.0181
   43MOL0     C 5674   8.499   8.296   1.894 -0.0164 -1.5542  0.0783
   43MOL0     C 5675   8.533   8.174   1.839 -0.2075  0.0427  0.3066
   43MOL0     C 5676   8.657   8.100   1.871 -0.4430  0.2697 -0.2306
   43MOL0     C 5677   8.742   8.149   1.979  0.7844  0.5030  0.6345
   43MOL0     O 5678   8.867   8.100   2.005  0.9594  0.5307 -0.4472
   43MOL0     C 5679   8.954   8.104   1.890  0.4467  0.8411 -0.3162
   43MOL0     C 5680   9.103   8.086   1.937  0.7079 -0.3247 -0.2613
   43MOL0     C 5681   9.141   8.209   2.020  0.9273  0.3445  0.0839
   43MOL0     C 5682   9.286   8.197   2.087  0.1545 -0.6516  0.3735
   43MOL0     C 5683   9.310   8.316   2.170 -0.3126 -0.5004 -0.2539
   43MOL0     C 5684   9.439   8.308   2.240 -0.3103 -0.3549 -0.4374
   43MOL0     C 5685   9.456   8.417   2.350  0.2047  0.3858  0.6150
   43MOL0     C 5686   9.587   8.386   2.426  0.0606  0.5186  0.5813
   43MOL0     N 5687   9.619   8.498   2.507 -1.1656  0.4644  0.0330
   43MOL0     C 5688   9.703   8.602   2.468  0.0863  0.2564 -0.1710
   43MOL0     C 5689   9.724   8.672   2.586 -0.6140  1.7334 -0.2205
   43MOL0     C 5690   9.812   8.793   2.594  0.2307  0.7644 -0.4507
   43MOL0     C 5691   9.968   8.762   2.611  0.2968  0.0328 -0.0397
   43MOL0     C 5692  10.041   8.895   2.650  0.1464 -0.4838  0.2198
   43MOL0     C 5693  10.181   8.861   2.714 -0.3307  0.5641 -0.5995
   43MOL0     O 5694  10.285   8.815   2.619 -0.0608 -0.4830  0.1433
   43MOL0     C 5695  10.416   8.826   2.660  0.3337  0.2934 -0.2459
   43MOL0     C 5696  10.481   8.728   2.742 -0.0117 -0.0382 -0.1733
   43MOL0     C 5697  10.618   8.732   2.771 -0.3705 -0.3760  0.6441
   43MOL0     C 5698  10.694   8.845   2.725  0.4289  0.4924 -0.4877
   43MOL0     C 5699  10.841   8.858   2.745 -1.0099 -0.0074 -0.0024
   43MOL0     O 5700  10.898   8.767   2.830  0.2888  0.3562  0.5272
   43MOL0     C 5701  11.027   8.777   2.869  0.4561 -0.0747  0.1951
   43MOL0     C 5702  11.063   8.786   3.006  0.1685 -0.7058 -0.3371
   43MOL0     C 5703  11.199   8.786   3.046 -0.7182 -0.4509  0.7165
   43MOL0     C 5704  11.296   8.781   2.942  0.1436  0.1485  0.1518
   43MOL0     O 5705  11.428   8.790   2.978 -1.0234 -0.8380  0.4760
   43MOL0     C 5706  11.511   8.878   2.903 -0.5013  0.3681 -0.3378
   43MOL0     C 5707  11.617   8.821   2.809  0.0087 -0.1541 -0.3611
   43MOL0     C 5708  11.724   8.728   2.870  0.2848 -0.4097 -0.1235
   43MOL0     C 5709  11.805   8.673   2.758  0.2471 -0.7779 -0.2516
   43MOL0     C 5710  11.936   8.612   2.823  0.5859 -1.1835  0.2212
   43MOL0     C 5711  12.033   8.575   2.713  0.8066  0.6055 -0.1062
   43MOL0     C 5712  12.135   8.475   2.764 -0.3773  0.4197  0.5125
   43MOL0     C 5713  12.237   8.460   2.652  0.0130 -0.1420 -0.1419
   43MOL0    Cl 5714  12.366   8.360   2.711  0.0383  0.0733 -0.5133
   43MOL0     C 5715  11.259   8.767   2.807  0.6341  0.8400 -0.5950
   43MOL0     C 5716  11.128   8.765   2.770 -0.8347 -0.0503  0.4307
   43MOL0     O 5717  10.902   8.943   2.689  0.3706 -0.5923  0.1860
   43MOL0     C 5718  10.623   8.945   2.655  0.0870  0.3253 -0.1669
   43MOL0     C 5719  10.489   8.935   2.620 -0.1097 -0.2816 -0.7337
   43MOL0     N 5720   9.649   8.614   2.683  0.1120  0.5541 -0.1157
   43MOL0     N 5721   9.576   8.521   2.636 -0.1433  0.7964 -0.3662
   43MOL0     C 5722   8.703   8.276   2.032  0.3071 -0.0256 -0.2885
   43MOL0     C 5723   8.587   8.347   1.992 -0.1603  0.5746  0.5678
   43MOL0     C 5724   8.264   8.563   1.765  0.1160 -0.3383  0.5267
   43MOL0     C 5725   8.144   8.494   1.788 -0.1452  0.9140  0.6892
   43MOL0     C 5726   8.016   8.539   1.741  0.1208 -0.2502  0.4394
   43MOL0     C 5727   7.997   8.660   1.687 -0.2651 -0.5275  0.3804
   43MOL0     O 5728   7.868   8.687   1.646 -0.7727 -0.3839 -0.1769
   43MOL0     C 5729   7.839   8.789   1.548  0.2057 -0.6315 -0.5687
   43MOL0     C 5730   7.701   8.774   1.488  0.1975  0.0498 -0.1186
   43MOL0     C 5731   7.598   8.855   1.572 -0.5284  0.4408 -0.0381
   43MOL0     C 5732   7.568   8.792   1.705  0.2450  0.1307 -0.1591
   43MOL0     C 5733   7.454   8.852   1.772  0.9385 -0.1333 -0.3916
   43MOL0     C 5734   7.371   8.911   1.836 -0.1075  0.2936  0.8554
   43MOL0     C 5735   8.115   8.748   1.670  1.2937 -0.3987 -0.6157
   43MOL0     C 5736   8.250   8.696   1.712  0.9129 -0.0452 -0.0193
   43MOL0     C 5737   8.368   8.797   1.703 -0.3987  0.0880  0.3551
   43MOL0     H 5738   8.458   8.131   1.773 -1.4019  2.7606 -0.2568
   43MOL0     H 5739   8.663   7.999   1.834  1.5847 -0.5868  2.1645
   43MOL0     H 5740   8.928   8.013   1.836 -0.9008  1.4724 -0.7689
   43MOL0     H 5741   8.948   8.191   1.824  3.7459  0.8682 -0.7740
   43MOL0     H 5742   9.163   8.076   1.846 -0.7002  0.7617 -1.3642
   43MOL0     H 5743   9.111   7.989   1.986 -3.4709 -1.1144 -0.7515
   43MOL0     H 5744   9.075   8.229   2.104  1.9440  2.1664  0.4992
   43MOL0     H 5745   9.135   8.290   1.947 -0.4340 -3.4047 -4.5034
   43MOL0     H 5746   9.278   8.102   2.141 -3.3124 -2.2017 -2.4373
   43MOL0     H 5747   9.364   8.187   2.010  0.5418 -2.7045  0.9634
   43MOL0     H 5748   9.317   8.407   2.110 -1.7007  0.5422  1.0993
   43MOL0     H 5749   9.229   8.323   2.242  0.8853  1.0737  1.0063
   43MOL0     H 5750   9.447   8.212   2.293  1.9479 -0.3689 -0.6883
   43MOL0     H 5751   9.521   8.323   2.169 -0.3897  1.2708 -0.2148
   43MOL0     H 5752   9.377   8.404   2.424  0.0362 -2.1533  0.0837
   43MOL0     H 5753   9.467   8.515   2.303 -0.0392  0.2711  0.3122
   43MOL0     H 5754   9.561   8.303   2.492 -0.8118 -0.9193 -1.4492
   43MOL0     H 5755   9.677   8.374   2.365  0.3724  3.1153  0.4216
   43MOL0     H 5756   9.751   8.621   2.372  1.3939  1.8275  0.7433
   43MOL0     H 5757   9.813   8.852   2.502 -1.9341  2.0856  0.2982
   43MOL0     H 5758   9.778   8.850   2.681  1.0449  2.3016 -1.1039
   43MOL0     H 5759   9.973   8.690   2.693 -1.1300  0.4186  0.4202
   43MOL0     H 5760  10.004   8.724   2.516  1.9568 -0.9076  0.9270
   43MOL0     H 5761   9.988   8.948   2.731 -3.5684 -2.9220 -0.3552
   43MOL0     H 5762  10.046   8.955   2.559 -1.9206 -1.9573 -0.9548
   43MOL0     H 5763  10.169   8.794   2.800  1.0798  1.2378  0.1450
   43MOL0     H 5764  10.223   8.957   2.745  0.1551  1.3707 -3.4950
   43MOL0     H 5765  10.424   8.648   2.789  0.1465 -0.1205 -0.1189
   43MOL0     H 5766  10.667   8.657   2.833  0.9066 -0.2991 -0.2241
   43MOL0     H 5767  10.986   8.779   3.082  0.5833  0.8937  0.2722
   43MOL0     H 5768  11.233   8.794   3.149  1.0065  0.9036  0.1032
   43MOL0     H 5769  11.443   8.932   2.836 -0.5432  0.2616 -0.3818
   43MOL0     H 5770  11.566   8.949   2.965 -0.9453  2.2087 -1.9299
   43MOL0     H 5771  11.563   8.770   2.729  1.8346 -0.6218 -1.3381
   43MOL0     H 5772  11.665   8.903   2.755  0.8822 -0.9395 -0.7781
   43MOL0     H 5773  11.789   8.772   2.946 -0.0263 -1.6456  0.8864
   43MOL0     H 5774  11.681   8.642   2.922 -2.3079  0.8633  0.0029
   43MOL0     H 5775  11.826   8.758   2.693 -2.4454  2.6966  2.9599
   43MOL0     H 5776  11.746   8.599   2.703 -2.1496  0.8476 -0.0205
   43MOL0     H 5777  11.900   8.517   2.864 -0.1164 -0.9038  0.2679
   43MOL0     H 5778  11.975   8.675   2.904 -2.0118 -1.7923  2.0974
   43MOL0     H 5779  11.981   8.526   2.630  1.5289 -0.2844 -0.0564
   43MOL0     H 5780  12.079   8.667   2.676 -1.8925  1.2989 -2.0962
   43MOL0     H 5781  12.092   8.378   2.791  0.0802  0.2575  0.6587
   43MOL0     H 5782  12.184   8.519   2.851  0.4201  1.2797 -0.3434
   43MOL0     H 5783  12.188   8.417   2.564 -1.1569 -0.0115  0.4294
   43MOL0     H 5784  12.279   8.558   2.627 -0.4356  0.2547  0.5988
   43MOL0     H 5785  11.335   8.745   2.733 -1.0787 -1.5707 -1.7646
   43MOL0     H 5786  11.105   8.741   2.667  1.7969 -0.3474 -0.1703
   43MOL0     H 5787  10.683   9.031   2.624  1.2451  0.0136  1.1129
   43MOL0     H 5788  10.428   8.993   2.552 -0.8744  0.7528  0.7808
   43MOL0     H 5789   8.767   8.324   2.106  0.7732  0.3989 -0.9550
   43MOL0     H 5790   8.557   8.431   2.053  1.4723  1.1784  0.6029
   43MOL0     H 5791   8.139   8.402   1.843  1.1313 -1.1646 -2.3646
   43MOL0     H 5792   7.933   8.473   1.764  1.3666 -1.1398  2.7922
   43MOL0     H 5793   7.908   8.778   1.463  0.9144  0.7615 -0.2076
   43MOL0     H 5794   7.863   8.889   1.586 -3.3635  0.1796 -0.1329
   43MOL0     H 5795   7.678   8.667   1.487  1.7900 -0.3731 -3.0688
   43MOL0     H 5796   7.707   8.815   1.386  2.0949  1.4622  0.5153
   43MOL0     H 5797   7.506   8.860   1.514 -0.7362 -1.8550 -0.0012
   43MOL0     H 5798   7.633   8.956   1.593 -1.9859  1.3587 -1.7406
   43MOL0     H 5799   7.541   8.687   1.703  0.1852  0.0477  2.1948
   43MOL0     H 5800   7.653   8.810   1.771  1.0062 -1.3450 -0.7017
   43MOL0     H 5801   7.304   8.963   1.901 -1.6981 -1.6110  0.8416
   43MOL0     H 5802   8.109   8.853   1.644 -1.3378 -0.3911 -0.2767
   43MOL0     H 5803   8.450   8.755   1.643 -0.4439 -1.4905  1.3495
   43MOL0     H 5804   8.339   8.895   1.666  1.7303  0.5424 -0.3016
   43MOL0     H 5805   8.414   8.823   1.799 -1.4851  0.7032  0.7192
   44MOL0     O 5806   7.873   7.119   8.011 -0.0830 -0.3402 -0.3796
   44MOL0     C 5807   7.863   7.018   8.087  0.8935 -1.1777  0.1135
   44MOL0     O 5808   7.748   6.937   8.100 -0.2716  0.1021  0.4708
   44MOL0     C 5809   7.655   6.956   8.006 -0.0190  0.3388  0.4226
   44MOL0     C 5810   7.662   6.917   7.866  0.1264  0.5570  0.3996
   44MOL0     C 5811   7.552   6.948   7.786 -0.4932  0.5688 -0.0103
   44MOL0     C 5812   7.435   7.001   7.829 -0.1655  0.3863 -0.1148
   44MOL0     O 5813   7.334   7.027   7.745  0.8938  0.3457 -0.1727
   44MOL0     C 5814   7.258   6.903   7.722 -0.5087 -0.6157  0.1669
   44MOL0     C 5815   7.118   6.948   7.687  0.0112 -0.4341 -0.5640
   44MOL0     C 5816   7.104   7.033   7.566  0.5892  0.2549 -0.5688
   44MOL0     C 5817   6.951   7.025   7.516  0.4812 -0.5384 -0.4644
   44MOL0     C 5818   6.929   7.119   7.391 -0.0268 -0.2697 -1.0055
   44MOL0     C 5819   6.876   7.249   7.443  0.0151 -0.4196 -0.1743
   44MOL0     C 5820   6.832   7.336   7.330  0.7514 -0.4169 -0.4884
   44MOL0     C 5821   6.832   7.488   7.364 -0.5435 -0.5843  0.7735
   44MOL0     N 5822   6.972   7.533   7.407 -0.7374 -0.1694  0.0548
   44MOL0     C 5823   7.092   7.510   7.334 -0.9418 -0.8437  0.2434
   44MOL0     C 5824   7.199   7.524   7.410 -0.4648  0.0675 -0.9854
   44MOL0     C 5825   7.341   7.508   7.375  1.0190 -0.0834 -0.6267
   44MOL0     C 5826   7.372   7.371   7.308 -0.8505  0.6490 -0.3428
   44MOL0     C 5827   7.353   7.246   7.405  1.5051 -0.0951  0.3021
   44MOL0     C 5828   7.474   7.220   7.497 -0.9811 -0.3998 -0.5270
   44MOL0     O 5829   7.584   7.174   7.420  0.3143  0.0386  0.0082
   44MOL0     C 5830   7.688   7.106   7.477  0.3658 -1.1788  0.7937
   44MOL0     C 5831   7.781   7.042   7.395  0.5178  0.2710  0.1463
   44MOL0     C 5832   7.899   6.992   7.459 -0.2038 -0.0390 -0.1705
   44MOL0     C 5833   7.931   6.998   7.592  0.9064 -0.0419  0.3127
   44MOL0     C 5834   8.057   6.932   7.643 -1.0467  0.2036 -0.3656
   44MOL0     O 5835   8.080   6.942   7.777  0.0385 -0.4528  0.0463
   44MOL0     C 5836   8.187   6.909   7.851 -0.0833  0.4364  1.0172
   44MOL0     C 5837   8.280   6.999   7.912  0.3443 -0.7776  0.2652
   44MOL0     C 5838   8.378   6.959   7.995  0.8604 -0.0374 -0.5339
   44MOL0     C 5839   8.406   6.819   8.016  0.6737 -0.5775  0.1948
   44MOL0     O 5840   8.520   6.788   8.090  0.7624 -0.0194  0.1388
   44MOL0     C 5841   8.575   6.655   8.070 -0.0457  0.2506  0.3966
   44MOL0     C 5842   8.717   6.642   8.121 -0.5500  0.9601  0.1801
   44MOL0     C 5843   8.800   6.526   8.052 -0.3795 -0.2372 -1.1744
   44MOL0     C 5844   8.944   6.528   8.114  0.1379 -0.6854 -0.0189
   44MOL0     C 5845   9.024   6.394   8.091 -1.3366 -0.7490  0.0887
   44MOL0     C 5846   9.063   6.390   7.949  0.4140  0.3797  0.0174
   44MOL0     C 5847   9.148   6.260   7.915  1.0790  0.2878 -0.6095
   44MOL0     C 5848   9.227   6.271   7.788  0.0974  0.5239  0.6918
   44MOL0    Cl 5849   9.391   6.322   7.814 -0.6964 -0.1179 -0.1430
   44MOL0     C 5850   8.318   6.733   7.951 -0.2056  1.2655 -0.0785
   44MOL0     C 5851   8.210   6.770   7.872  0.3825  0.2566  0.9833
   44MOL0     O 5852   8.125   6.858   7.565  1.2458 -0.4290 -0.3958
   44MOL0     C 5853   7.839   7.077   7.673 -0.2243  0.0471  0.7052
   44MOL0     C 5854   7.724   7.126   7.611 -0.2277 -0.3892 -0.4822
   44MOL0     N 5855   7.152   7.550   7.534 -0.2983 -0.2445  0.5002
   44MOL0     N 5856   7.024   7.559   7.531  0.2198 -0.1073 -0.1620
   44MOL0     C 5857   7.428   7.039   7.962  0.5944  0.1245  0.3090
   44MOL0     C 5858   7.535   7.005   8.052  0.2930  0.6607  0.0654
   44MOL0     C 5859   7.993   6.975   8.158  0.3115  0.0495 -0.0335
   44MOL0     C 5860   8.026   6.835   8.183 -0.2834  0.7242  0.0848
   44MOL0     C 5861   8.133   6.793   8.264 -0.1043 -0.4630 -0.3624
   44MOL0     C 5862   8.223   6.882   8.330  0.2967 -0.5125  0.0291
   44MOL0     O 5863   8.324   6.849   8.420 -0.4355 -0.2046 -0.3690
   44MOL0     C 5864   8.362   6.710   8.425  0.2422 -0.6797 -0.1478
   44MOL0     C 5865   8.482   6.681   8.506 -0.4018  0.7891  0.7568
   44MOL0     C 5866   8.497   6.520   8.524  0.0777 -1.0884 -0.0482
   44MOL0     C 5867   8.614   6.487   8.620 -0.2847  0.5214  0.2351
   44MOL0     C 5868   8.751   6.500   8.566  0.2262 -0.2700 -0.2388
   44MOL0     C 5869   8.850   6.489   8.500 -0.1452  0.3343  0.3930
   44MOL0     C 5870   8.193   7.023   8.301  0.1387 -0.0795 -0.5754
   44MOL0     C 5871   8.082   7.067   8.229 -0.1126 -0.7898  0.4379
   44MOL0     C 5872   8.085   7.219   8.214 -0.6941 -0.2617  0.2244
   44MOL0     H 5873   7.754   6.873   7.829  0.2185  0.1303  1.1273
   44MOL0     H 5874   7.570   6.934   7.680 -0.4018  0.7515 -0.0179
   44MOL0     H 5875   7.295   6.839   7.642  0.1358 -0.7510  0.5632
   44MOL0     H 5876   7.248   6.846   7.815  2.3012  0.6415  1.3609
   44MOL0     H 5877   7.075   7.001   7.773 -0.8429  0.3335 -1.4270
   44MOL0     H 5878   7.058   6.858   7.673  0.3429 -1.0147  1.4471
   44MOL0     H 5879   7.174   7.007   7.486 -2.0669 -4.0930 -1.7881
   44MOL0     H 5880   7.119   7.139   7.589 -1.5842  0.0110  2.4506
   44MOL0     H 5881   6.929   6.919   7.498  1.4232 -0.7133 -0.6363
   44MOL0     H 5882   6.888   7.061   7.598  0.7788  1.5659 -1.0937
   44MOL0     H 5883   7.026   7.136   7.342  0.2481  0.0785 -0.3488
   44MOL0     H 5884   6.853   7.077   7.323 -0.6221 -0.0283 -0.4919
   44MOL0     H 5885   6.795   7.245   7.516  1.4387  0.1750  1.4960
   44MOL0     H 5886   6.962   7.282   7.501  0.9187 -1.8695 -0.6365
   44MOL0     H 5887   6.730   7.306   7.307  0.9176 -1.7488  0.4022
   44MOL0     H 5888   6.899   7.332   7.243 -1.0040 -1.8830 -1.8676
   44MOL0     H 5889   6.803   7.532   7.268 -0.8585  1.4229  1.7278
   44MOL0     H 5890   6.767   7.519   7.447 -0.1862 -0.1259  0.8894
   44MOL0     H 5891   7.110   7.475   7.233 -0.4974 -2.1233  0.7460
   44MOL0     H 5892   7.366   7.581   7.297  1.4350 -1.1142 -1.4803
   44MOL0     H 5893   7.393   7.534   7.468 -3.7460 -0.2161  2.4016
   44MOL0     H 5894   7.310   7.354   7.219  0.3085  1.0968 -1.2668
   44MOL0     H 5895   7.472   7.382   7.265 -0.4132  1.3680  0.8114
   44MOL0     H 5896   7.336   7.153   7.349  1.1293 -1.1250  2.0590
   44MOL0     H 5897   7.267   7.259   7.471 -0.1281 -1.8108 -1.3518
   44MOL0     H 5898   7.432   7.148   7.568 -1.7551 -0.9890 -1.5535
   44MOL0     H 5899   7.504   7.311   7.550 -0.6344 -0.8282  0.0275
   44MOL0     H 5900   7.767   7.033   7.288  1.3550 -2.4682  0.1834
   44MOL0     H 5901   7.969   6.945   7.391  0.1388 -1.9306  1.3833
   44MOL0     H 5902   8.269   7.107   7.904  4.8568 -0.2410 -1.6691
   44MOL0     H 5903   8.451   7.023   8.043 -0.3295  1.1975 -0.3336
   44MOL0     H 5904   8.516   6.575   8.116  1.0403 -1.5535 -1.2323
   44MOL0     H 5905   8.584   6.630   7.964  1.4140  1.0893  0.3051
   44MOL0     H 5906   8.773   6.736   8.126  0.3024  0.4733 -0.0492
   44MOL0     H 5907   8.699   6.610   8.224 -0.2294 -0.0276 -0.0601
   44MOL0     H 5908   8.749   6.430   8.058 -1.6942  0.4346 -1.1329
   44MOL0     H 5909   8.792   6.550   7.946 -0.8969 -4.6843 -2.3292
   44MOL0     H 5910   8.937   6.534   8.222  2.8069  0.0329  0.1833
   44MOL0     H 5911   9.006   6.612   8.081  2.6727 -1.7893  1.6809
   44MOL0     H 5912   8.978   6.299   8.120 -0.9504 -0.2661  2.5297
   44MOL0     H 5913   9.118   6.399   8.146 -2.5152 -0.1183  2.1575
   44MOL0     H 5914   8.973   6.400   7.887 -0.3878  0.7411  1.1899
   44MOL0     H 5915   9.101   6.490   7.924  0.1210 -0.0342 -2.2587
   44MOL0     H 5916   9.070   6.185   7.899  1.5318 -0.4845  0.6383
   44MOL0     H 5917   9.208   6.220   7.997  1.7376  1.5820 -0.4382
   44MOL0     H 5918   9.229   6.174   7.738 -0.1520  1.6282 -1.5588
   44MOL0     H 5919   9.172   6.340   7.723 -1.4609  0.2568  1.6751
   44MOL0     H 5920   8.340   6.628   7.972 -0.1133  1.5336  1.2870
   44MOL0     H 5921   8.141   6.692   7.843  2.0394 -1.2078  0.8579
   44MOL0     H 5922   7.860   7.083   7.780 -0.2304 -0.0639  0.7132
   44MOL0     H 5923   7.650   7.177   7.672  0.6797  0.1853  0.1702
   44MOL0     H 5924   7.332   7.077   7.997  0.3569 -0.0333 -0.1715
   44MOL0     H 5925   7.545   7.056   8.148  1.9619  2.0168 -0.7845
   44MOL0     H 5926   7.982   6.745   8.143 -0.7306  0.8070  0.3835
   44MOL0     H 5927   8.143   6.687   8.286  1.0195  0.0325  1.7569
   44MOL0     H 5928   8.374   6.672   8.323 -2.1876  1.6222 -1.4298
   44MOL0     H 5929   8.274   6.658   8.462  0.2008 -0.1573  0.4958
   44MOL0     H 5930   8.481   6.727   8.605 -0.5014 -1.9256  2.1069
   44MOL0     H 5931   8.569   6.719   8.451 -0.2415 -1.8894 -0.9965
   44MOL0     H 5932   8.516   6.469   8.430 -1.2543  0.2639 -1.0965
   44MOL0     H 5933   8.412   6.469   8.570 -0.7563 -0.5274 -0.9325
   44MOL0     H 5934   8.598   6.551   8.708 -1.2246  3.4909 -1.9106
   44MOL0     H 5935   8.601   6.381   8.644  0.3721  0.0166 -1.4992
   44MOL0     H 5936   8.939   6.471   8.443 -0.6778 -2.1984  0.2257
   44MOL0     H 5937   8.252   7.096   8.357 -1.6851  1.3470 -0.4102
   44MOL0     H 5938   8.083   7.245   8.108  0.6561  1.4389  0.5799
   44MOL0     H 5939   7.995   7.254   8.265  0.5102 -0.8281  2.9264
   44MOL0     H 5940   8.166   7.268   8.270 -1.4251  0.7981  0.3731
   45MOL0     O 5941   0.903   0.557   3.067  0.0783  0.2804 -0.1295
   45MOL0     C 5942   0.925   0.496   3.171  0.3537 -0.1099  0.2649
   45MOL0     O 5943   1.039   0.430   3.209 -0.2097 -0.0606  1.1338
   45MOL0     C 5944   1.140   0.435   3.128 -1.3610 -0.1509  0.6582
   45MOL0     C 5945   1.267   0.482   3.175 -0.2229  0.1245  0.2833
   45MOL0     C 5946   1.382   0.496   3.091 -0.2106  0.5624  0.0384
   45MOL0     C 5947   1.374   0.453   2.961 -0.3590  0.3240 -0.3164
   45MOL0     O 5948   1.466   0.467   2.859  0.4663  0.2655 -0.4208
   45MOL0     C 5949   1.576   0.554   2.899 -0.4581 -0.9134  0.0922
   45MOL0     C 5950   1.683   0.470   2.973 -0.3142  0.3072  0.0271
   45MOL0     C 5951   1.816   0.545   2.997 -0.8484 -0.0437 -0.1188
   45MOL0     C 5952   1.905   0.488   3.111 -1.0575  0.2997 -0.0280
   45MOL0     C 5953   2.042   0.561   3.129  0.1432 -0.0041 -0.3435
   45MOL0     C 5954   2.121   0.546   3.011  0.2207 -0.4928  0.1043
   45MOL0     C 5955   2.271   0.558   3.037  0.2770  0.1989  0.5067
   45MOL0     C 5956   2.327   0.428   3.093 -0.6072 -0.3054 -0.0373
   45MOL0     N 5957   2.474   0.434   3.077  0.2375 -0.3124 -0.6436
   45MOL0     C 5958   2.537   0.438   2.950  1.1447  0.2372  0.4143
   45MOL0     C 5959   2.664   0.446   2.994  0.9103 -0.0126 -0.2046
   45MOL0     C 5960   2.775   0.483   2.894  0.1960  0.0035 -0.5155
   45MOL0     C 5961   2.919   0.475   2.950  0.5881  0.9211  1.0687
   45MOL0     C 5962   3.028   0.523   2.844 -0.0462 -0.3249  0.2209
   45MOL0     C 5963   3.169   0.486   2.884  0.4634  0.1069  0.1531
   45MOL0     O 5964   3.250   0.571   2.797 -0.2783 -0.3861 -0.5648
   45MOL0     C 5965   3.385   0.564   2.816  0.2364  0.0125  0.1173
   45MOL0     C 5966   3.462   0.652   2.751 -0.5043  0.5712  0.8753
   45MOL0     C 5967   3.599   0.667   2.763 -0.1283 -0.4353  0.5964
   45MOL0     C 5968   3.668   0.583   2.848  0.2857  1.2951 -0.6006
   45MOL0     C 5969   3.811   0.585   2.862  0.1627 -0.9306  0.1335
   45MOL0     O 5970   3.880   0.680   2.782 -0.4169  0.0958 -0.7388
   45MOL0     C 5971   4.018   0.689   2.797 -0.2773 -1.2009 -0.1740
   45MOL0     C 5972   4.082   0.669   2.927 -0.0940 -0.1651  0.2680
   45MOL0     C 5973   4.221   0.680   2.931 -0.8864 -0.2828 -0.0184
   45MOL0     C 5974   4.300   0.696   2.813 -0.0945 -0.5395  0.3215
   45MOL0     O 5975   4.437   0.705   2.830  0.2957  0.1827  0.3040
   45MOL0     C 5976   4.502   0.794   2.909 -1.0715  0.5219 -0.5941
   45MOL0     C 5977   4.600   0.873   2.810  0.7336 -0.5248  0.4932
   45MOL0     C 5978   4.732   0.791   2.780 -0.5418  0.6102  1.0226
   45MOL0     C 5979   4.832   0.870   2.693  0.7867  0.0689  0.4084
   45MOL0     C 5980   4.945   0.784   2.651 -0.4706  0.3031  0.0313
   45MOL0     C 5981   5.076   0.856   2.671 -0.7331 -0.4514 -0.2244
   45MOL0     C 5982   5.095   0.977   2.589  0.1705  0.6268 -0.5108
   45MOL0     C 5983   5.221   1.049   2.624 -0.5251  0.8118 -0.9197
   45MOL0    Cl 5984   5.204   1.116   2.795 -0.2832  0.2839 -0.5163
   45MOL0     C 5985   4.237   0.709   2.688  0.2391  0.0046 -0.3360
   45MOL0     C 5986   4.099   0.708   2.683 -0.1517 -0.0569 -0.1177
   45MOL0     O 5987   3.864   0.504   2.940 -0.0233  0.2736  0.2869
   45MOL0     C 5988   3.589   0.485   2.910 -0.2307 -0.3419 -0.4741
   45MOL0     C 5989   3.453   0.475   2.898  0.2580 -0.0507 -0.1002
   45MOL0     N 5990   2.680   0.430   3.132 -0.0106 -0.1905 -0.1974
   45MOL0     N 5991   2.561   0.422   3.184  0.2186 -1.5201 -0.3138
   45MOL0     C 5992   1.259   0.383   2.919  0.0685  0.1966 -0.2730
   45MOL0     C 5993   1.140   0.376   3.001 -1.4525  0.8731 -1.0372
   45MOL0     C 5994   0.817   0.476   3.261 -0.2696  0.4457  0.8722
   45MOL0     C 5995   0.802   0.345   3.313  0.3592 -0.6514  0.1872
   45MOL0     C 5996   0.691   0.315   3.403  0.6865 -0.8269  0.8514
   45MOL0     C 5997   0.604   0.418   3.440  0.1571 -0.3201 -0.6771
   45MOL0     O 5998   0.515   0.393   3.542 -0.6206  0.3349 -0.3006
   45MOL0     C 5999   0.452   0.499   3.609 -0.0032  0.0647  1.0961
   45MOL0     C 6000   0.324   0.557   3.537  0.8311  0.2407  0.9202
   45MOL0     C 6001   0.203   0.465   3.527 -0.0382  0.2680 -0.2148
   45MOL0     C 6002   0.073   0.540   3.495 -0.1711 -0.1029 -0.7358
   45MOL0     C 6003   0.030   0.648   3.579 -0.0213  0.2215 -0.7090
   45MOL0     C 6004  -0.007   0.741   3.647  0.5806  0.0863  0.3852
   45MOL0     C 6005   0.618   0.544   3.387 -0.5001  0.4562 -0.3830
   45MOL0     C 6006   0.723   0.572   3.295 -0.6438 -0.0384 -0.0609
   45MOL0     C 6007   0.744   0.710   3.251 -0.3585  0.0913 -0.3230
   45MOL0     H 6008   1.269   0.525   3.274 -1.6116 -0.0191  0.3934
   45MOL0     H 6009   1.466   0.547   3.137 -1.1781  2.7681 -0.4952
   45MOL0     H 6010   1.632   0.579   2.808 -1.1170  1.0956  0.1812
   45MOL0     H 6011   1.543   0.646   2.948 -1.1737 -0.9365 -0.3360
   45MOL0     H 6012   1.703   0.380   2.914 -1.1359 -1.0926  1.8251
   45MOL0     H 6013   1.653   0.433   3.071 -2.4128 -4.4841 -2.0904
   45MOL0     H 6014   1.796   0.653   3.007 -0.4965  0.4530 -3.5319
   45MOL0     H 6015   1.864   0.543   2.899  0.2149  1.2373  0.3499
   45MOL0     H 6016   1.849   0.488   3.205 -0.3238  0.6741  0.4115
   45MOL0     H 6017   1.929   0.383   3.091  0.1133  0.2066  1.6232
   45MOL0     H 6018   2.020   0.666   3.150 -2.4425 -0.5423 -0.0565
   45MOL0     H 6019   2.105   0.525   3.211  0.9216 -1.7510 -1.6386
   45MOL0     H 6020   2.110   0.452   2.955 -2.6376 -1.3591  1.9377
   45MOL0     H 6021   2.102   0.631   2.945 -0.6066 -0.6295  0.1625
   45MOL0     H 6022   2.298   0.640   3.105  2.1004  0.9286 -0.9948
   45MOL0     H 6023   2.309   0.588   2.939  0.1892  1.6947  0.8990
   45MOL0     H 6024   2.301   0.414   3.198  2.7276  0.1033  0.9498
   45MOL0     H 6025   2.295   0.340   3.037  0.7373  0.0230 -1.3929
   45MOL0     H 6026   2.496   0.452   2.851 -0.3439 -1.4696  0.7384
   45MOL0     H 6027   2.770   0.414   2.810  0.9687 -3.3463  2.0134
   45MOL0     H 6028   2.759   0.587   2.861 -0.0232 -0.6212 -2.5128
   45MOL0     H 6029   2.925   0.535   3.041  1.6173  1.1577  0.8640
   45MOL0     H 6030   2.929   0.371   2.983 -3.1359  0.5253  1.3072
   45MOL0     H 6031   3.025   0.632   2.837  0.3642 -0.2257  1.3991
   45MOL0     H 6032   3.001   0.486   2.744 -0.8843  0.2784  0.2086
   45MOL0     H 6033   3.185   0.379   2.869 -0.9780 -0.2631  1.0864
   45MOL0     H 6034   3.182   0.511   2.990 -2.9987 -0.3985  0.8214
   45MOL0     H 6035   3.404   0.710   2.681  0.1482 -1.7321 -1.7782
   45MOL0     H 6036   3.646   0.744   2.702  1.0494  0.0726  2.0803
   45MOL0     H 6037   4.025   0.657   3.019 -0.6750  2.6257  0.3660
   45MOL0     H 6038   4.271   0.673   3.027 -2.9380 -0.5669  1.0974
   45MOL0     H 6039   4.440   0.868   2.961 -1.0163  1.4332 -1.7601
   45MOL0     H 6040   4.566   0.754   2.987 -0.3688 -0.4938 -1.6568
   45MOL0     H 6041   4.562   0.916   2.717 -0.6409  2.0749  2.1671
   45MOL0     H 6042   4.627   0.959   2.870  0.9902 -0.0393 -0.3033
   45MOL0     H 6043   4.779   0.795   2.879  0.4235  2.1834  0.5302
   45MOL0     H 6044   4.722   0.687   2.749  0.3151  0.6960  0.3927
   45MOL0     H 6045   4.862   0.960   2.747 -1.2346  0.4745  0.9383
   45MOL0     H 6046   4.770   0.897   2.607 -1.5551  0.6611  2.1696
   45MOL0     H 6047   4.941   0.755   2.546  2.1290  0.0410 -0.0599
   45MOL0     H 6048   4.950   0.689   2.706 -0.4714  1.6497  2.5039
   45MOL0     H 6049   5.087   0.897   2.771  0.8194 -1.3289 -0.0164
   45MOL0     H 6050   5.152   0.780   2.655  0.1818  0.2527  0.6650
   45MOL0     H 6051   5.014   1.049   2.605  0.3109  0.6712  0.0320
   45MOL0     H 6052   5.103   0.949   2.484  2.8801  2.2743 -0.8457
   45MOL0     H 6053   5.300   0.974   2.619 -1.2046 -0.0524  0.5420
   45MOL0     H 6054   5.232   1.131   2.553 -0.1425 -1.0894 -3.1929
   45MOL0     H 6055   4.288   0.709   2.593  0.2505 -2.4787 -0.4078
   45MOL0     H 6056   4.054   0.730   2.587  2.3662 -0.2241 -1.4141
   45MOL0     H 6057   3.629   0.406   2.973  0.4267 -0.7114 -1.3372
   45MOL0     H 6058   3.400   0.397   2.952  2.2726  0.4151  2.7543
   45MOL0     H 6059   1.252   0.335   2.822 -4.3447 -0.0972 -0.0024
   45MOL0     H 6060   1.041   0.336   2.979 -1.0449 -0.9265  0.1602
   45MOL0     H 6061   0.871   0.272   3.274  1.9012  1.5476 -1.4411
   45MOL0     H 6062   0.682   0.218   3.453  0.0157 -0.8622  0.6734
   45MOL0     H 6063   0.525   0.576   3.636  0.8848 -0.4804  0.3004
   45MOL0     H 6064   0.417   0.454   3.703  0.3786 -1.1069  0.6971
   45MOL0     H 6065   0.346   0.589   3.435  1.4541 -1.7058  0.3988
   45MOL0     H 6066   0.294   0.647   3.592 -2.7153  0.9448 -1.7887
   45MOL0     H 6067   0.189   0.409   3.619 -3.0739  0.7272 -0.3122
   45MOL0     H 6068   0.230   0.400   3.444  2.8246 -0.6840  1.3201
   45MOL0     H 6069   0.090   0.591   3.399  0.5273 -0.5533 -0.8600
   45MOL0     H 6070  -0.007   0.471   3.467 -1.2100  2.0798 -3.6720
   45MOL0     H 6071  -0.044   0.822   3.706  0.2306  1.2302 -1.3207
   45MOL0     H 6072   0.551   0.625   3.413 -1.7912 -0.2415 -1.4190
   45MOL0     H 6073   0.849   0.741   3.259  0.1441 -1.9009  1.3757
   45MOL0     H 6074   0.706   0.725   3.149  0.3983  0.7388 -0.5211
   45MOL0     H 6075   0.710   0.783   3.325  3.0800 -1.4210  3.0915
   46MOL0     O 6076   9.706   3.405  10.295 -0.9013 -0.0066 -0.0313
   46MOL0     C 6077   9.693   3.508  10.221 -0.2765  0.4461 -0.8231
   46MOL0     O 6078   9.773   3.530  10.114 -0.4457 -0.6992  0.0198
   46MOL0     C 6079   9.890   3.461  10.112  0.2743  0.6970  0.7471
   46MOL0     C 6080   9.897   3.324  10.094  0.7933 -0.5955  0.5308
   46MOL0     C 6081  10.014   3.259  10.085 -0.4262 -0.0413  0.8664
   46MOL0     C 6082  10.131   3.329  10.069 -1.0015 -0.0389 -0.6204
   46MOL0     O 6083  10.244   3.250  10.062 -0.8300 -0.4487 -0.5155
   46MOL0     C 6084  10.362   3.299  10.129 -0.4893  0.9167  0.4626
   46MOL0     C 6085  10.453   3.167  10.150  0.1322  0.5773 -0.7208
   46MOL0     C 6086  10.561   3.189  10.255  0.0841  0.4615  0.3019
   46MOL0     C 6087  10.688   3.131  10.187  0.2172 -0.2596  0.7372
   46MOL0     C 6088  10.789   3.123  10.302 -0.0942  0.6207 -0.4141
   46MOL0     C 6089  10.930   3.080  10.251 -0.1515 -0.6946 -0.2104
   46MOL0     C 6090  11.022   3.049  10.364  0.2393  0.3707 -0.1223
   46MOL0     C 6091  11.163   3.008  10.325 -0.9284 -0.7081  0.2273
   46MOL0     N 6092  11.244   3.000  10.451  0.9795 -0.0559  0.1988
   46MOL0     C 6093  11.333   3.094  10.504 -0.1599  0.0257  0.0826
   46MOL0     C 6094  11.392   3.026  10.608 -0.0034  0.0899 -0.5493
   46MOL0     C 6095  11.522   3.062  10.681 -0.4061  0.4248 -0.2204
   46MOL0     C 6096  11.637   2.973  10.631  0.4037 -0.3555  0.7160
   46MOL0     C 6097  11.753   3.008  10.719 -0.0453 -0.9137  0.0872
   46MOL0     C 6098  11.881   2.933  10.687 -0.6327  0.3856 -0.1493
   46MOL0     O 6099  11.948   2.995  10.578 -0.1923  0.0582 -0.5612
   46MOL0     C 6100  12.082   2.997  10.558  0.4802 -0.0958 -0.2145
   46MOL0     C 6101  12.172   2.983  10.660 -0.1015  0.5173  0.0334
   46MOL0     C 6102  12.307   2.983  10.627  0.2407 -0.1244 -0.5038
   46MOL0     C 6103  12.357   3.003  10.495  0.5559  0.1396 -0.3868
   46MOL0     C 6104  12.501   2.996  10.462  0.3440  0.0808 -0.0150
   46MOL0     O 6105  12.530   3.029  10.328  0.3471  0.8447  0.9956
   46MOL0     C 6106  12.659   3.082  10.294 -0.4706  0.6226  0.1286
   46MOL0     C 6107  12.687   3.208  10.337  0.7048 -1.0494 -0.1873
   46MOL0     C 6108  12.806   3.268  10.306  0.6850 -0.0598 -0.1772
   46MOL0     C 6109  12.906   3.209  10.231  0.2248 -0.9383 -0.1162
   46MOL0     O 6110  13.016   3.271  10.179  0.4819 -0.3619  0.0316
   46MOL0     C 6111  13.054   3.400  10.217  0.5578 -0.7357 -0.1217
   46MOL0     C 6112  13.196   3.423  10.172 -0.6334  0.4478 -0.1550
   46MOL0     C 6113  13.260   3.549  10.237  0.1614  0.1081  0.0575
   46MOL0     C 6114  13.407   3.577  10.185  0.1112  0.2209  0.3160
   46MOL0     C 6115  13.459   3.717  10.238  0.0635  0.2715  0.4340
   46MOL0     C 6116  13.615   3.724  10.203  0.2440  0.0361  0.1081
   46MOL0     C 6117  13.702   3.840  10.260 -0.0700 -0.8444 -1.3820
   46MOL0     C 6118  13.655   3.977  10.215 -0.2144  0.9644 -0.0183
   46MOL0    Cl 6119  13.502   4.020  10.298  0.2643  0.5848 -0.0576
   46MOL0     C 6120  12.873   3.075  10.193 -0.5455  0.6910 -0.0990
   46MOL0     C 6121  12.754   3.007  10.225 -0.2131  0.4343  0.5626
   46MOL0     O 6122  12.586   2.966  10.547 -0.2741  0.4730  0.6448
   46MOL0     C 6123  12.261   3.017  10.388  0.7413 -0.8839  0.5782
   46MOL0     C 6124  12.124   3.019  10.423  0.4987  0.0588 -0.3114
   46MOL0     N 6125  11.331   2.906  10.622 -0.1407 -0.5497 -0.5430
   46MOL0     N 6126  11.240   2.892  10.521  0.3445  0.6910  0.2988
   46MOL0     C 6127  10.129   3.470  10.070  0.2307  0.6115  0.2693
   46MOL0     C 6128  10.006   3.539  10.103 -0.3088  0.2298 -1.2997
   46MOL0     C 6129   9.590   3.604  10.257 -0.1515 -0.8068  0.4697
   46MOL0     C 6130   9.638   3.742  10.266  0.0707 -0.5689  0.7212
   46MOL0     C 6131   9.549   3.838  10.308 -0.0658  0.1676  0.6908
   46MOL0     C 6132   9.413   3.803  10.323 -0.5866 -0.8553 -0.2447
   46MOL0     O 6133   9.324   3.902  10.347  0.4657 -0.2324  0.0505
   46MOL0     C 6134   9.323   3.942  10.485  0.0096 -0.0095 -0.4863
   46MOL0     C 6135   9.176   3.948  10.541  0.5519  0.4940 -0.1727
   46MOL0     C 6136   9.160   4.039  10.664  0.2378 -0.4898  0.8529
   46MOL0     C 6137   9.024   4.019  10.735  0.0560  0.3828  0.6958
   46MOL0     C 6138   9.026   4.084  10.866 -0.7039  0.3037 -0.3834
   46MOL0     C 6139   9.015   4.133  10.971 -0.5770  0.2428 -0.1551
   46MOL0     C 6140   9.372   3.667  10.323 -0.6015 -0.2852  0.5480
   46MOL0     C 6141   9.459   3.566  10.280 -0.4739  0.2700 -0.1131
   46MOL0     C 6142   9.410   3.424  10.286  0.1177  0.0472  0.4502
   46MOL0     H 6143   9.806   3.267  10.104  1.3539 -1.6973 -0.3836
   46MOL0     H 6144  10.022   3.151  10.087  2.2579  0.0014 -1.3550
   46MOL0     H 6145  10.414   3.378  10.074 -1.5163  1.0421 -0.3711
   46MOL0     H 6146  10.345   3.347  10.226 -0.5351  3.2159 -0.6117
   46MOL0     H 6147  10.476   3.114  10.057 -1.4397  1.2449 -1.5304
   46MOL0     H 6148  10.379   3.099  10.191 -0.1609  0.4131 -1.4951
   46MOL0     H 6149  10.538   3.121  10.338  2.6680 -0.9394 -0.0462
   46MOL0     H 6150  10.559   3.295  10.281  0.0310  0.7668 -0.9100
   46MOL0     H 6151  10.669   3.028  10.155 -0.6314  0.3287 -0.7731
   46MOL0     H 6152  10.715   3.181  10.094  0.8022  0.6082  1.3597
   46MOL0     H 6153  10.791   3.220  10.353 -2.8861 -0.0306  1.1590
   46MOL0     H 6154  10.759   3.055  10.382  0.0491  0.7030 -0.2906
   46MOL0     H 6155  10.918   2.993  10.186 -2.8105 -0.2376 -0.4418
   46MOL0     H 6156  10.977   3.144  10.175 -0.8575 -2.4271 -2.2002
   46MOL0     H 6157  10.982   2.961  10.415  0.3654  0.3208 -0.1089
   46MOL0     H 6158  11.035   3.136  10.429 -0.2485  0.4905 -0.1855
   46MOL0     H 6159  11.172   2.910  10.276  2.0964 -0.1220 -0.6215
   46MOL0     H 6160  11.198   3.088  10.259  0.5563  0.5932  2.4478
   46MOL0     H 6161  11.356   3.191  10.461 -1.7693  0.8391  0.9748
   46MOL0     H 6162  11.548   3.166  10.659 -2.0521  0.6508 -1.3193
   46MOL0     H 6163  11.508   3.054  10.790  0.8391  4.1392  0.3586
   46MOL0     H 6164  11.610   2.867  10.627  0.9606 -0.5341  1.4978
   46MOL0     H 6165  11.654   3.005  10.528  3.2136  0.9710  1.4669
   46MOL0     H 6166  11.726   2.982  10.822  2.5992 -0.7297  0.8854
   46MOL0     H 6167  11.774   3.115  10.709 -0.9148 -0.8752 -1.7621
   46MOL0     H 6168  11.865   2.827  10.666 -0.9862 -0.1871  2.6025
   46MOL0     H 6169  11.946   2.937  10.775 -0.3229 -0.1164 -0.3530
   46MOL0     H 6170  12.151   2.965  10.765 -0.7429  0.1554 -0.1535
   46MOL0     H 6171  12.377   2.977  10.709  0.6214  2.1664 -0.6121
   46MOL0     H 6172  12.601   3.247  10.392 -0.1883 -1.4123 -1.2827
   46MOL0     H 6173  12.820   3.371  10.338  1.5958  0.1277 -1.0925
   46MOL0     H 6174  12.983   3.475  10.182  1.1437 -0.6217 -1.0937
   46MOL0     H 6175  13.061   3.406  10.327  0.5634  1.9273 -0.2004
   46MOL0     H 6176  13.254   3.337  10.204  2.3413  1.6831 -1.8494
   46MOL0     H 6177  13.206   3.436  10.064  0.7881 -1.8087 -0.3486
   46MOL0     H 6178  13.198   3.637  10.217 -1.1953 -1.3053 -2.4927
   46MOL0     H 6179  13.258   3.531  10.345  1.6734  0.1605  0.1091
   46MOL0     H 6180  13.413   3.575  10.076  1.0697 -0.2359  0.3698
   46MOL0     H 6181  13.473   3.502  10.229 -0.0194  0.3504  0.7457
   46MOL0     H 6182  13.433   3.727  10.344  3.2704  3.8170  1.0771
   46MOL0     H 6183  13.418   3.803  10.185  3.9008  1.8219 -0.2945
   46MOL0     H 6184  13.665   3.629  10.220  2.2618  1.4640  3.0861
   46MOL0     H 6185  13.635   3.736  10.096  2.9507 -2.4316  0.2243
   46MOL0     H 6186  13.807   3.830  10.234  0.4831  0.1351  0.3435
   46MOL0     H 6187  13.687   3.847  10.368 -3.6272  4.1010 -1.8422
   46MOL0     H 6188  13.735   4.051  10.227  0.9752 -0.5225  1.8145
   46MOL0     H 6189  13.627   3.981  10.109 -1.1987  0.5694  0.2149
   46MOL0     H 6190  12.949   3.022  10.136 -1.9308 -2.8391  1.0249
   46MOL0     H 6191  12.746   2.903  10.196  2.6536  0.1826  0.3962
   46MOL0     H 6192  12.296   3.024  10.286  3.9568 -0.9034  1.5817
   46MOL0     H 6193  12.041   3.012  10.353  0.2090  0.7236 -0.0357
   46MOL0     H 6194  10.219   3.530  10.072  2.3913 -2.3624  2.8818
   46MOL0     H 6195  10.008   3.647  10.114  3.0807  0.2032 -0.5154
   46MOL0     H 6196   9.743   3.755  10.243 -0.3986  0.4893 -1.0134
   46MOL0     H 6197   9.580   3.941  10.317  0.9332 -0.0166 -0.4335
   46MOL0     H 6198   9.362   4.044  10.475 -0.1152  0.1434  0.4999
   46MOL0     H 6199   9.393   3.882  10.545  0.5637 -1.3803 -2.3982
   46MOL0     H 6200   9.141   3.848  10.568 -1.5358  1.9740  3.2271
   46MOL0     H 6201   9.112   3.981  10.459  0.1828 -2.5713 -1.2393
   46MOL0     H 6202   9.185   4.143  10.640  0.3575 -0.6374  0.3382
   46MOL0     H 6203   9.239   4.007  10.733  1.1341  2.0397  1.1353
   46MOL0     H 6204   8.944   4.061  10.672  1.2675 -2.3276 -2.9926
   46MOL0     H 6205   8.989   3.915  10.742  1.7282 -0.1483  1.4274
   46MOL0     H 6206   9.001   4.184  11.064 -2.3129 -1.2906  0.4803
   46MOL0     H 6207   9.269   3.640  10.342 -0.0631 -2.4738  0.6691
   46MOL0     H 6208   9.470   3.360  10.220 -0.1049  2.0471 -1.7745
   46MOL0     H 6209   9.418   3.382  10.387  1.3003  0.0671  0.3881
   46MOL0     H 6210   9.307   3.421  10.250  0.1622 -0.6455  0.3575
   47MOL0     O 6211   1.449   9.783   6.174  0.0593  0.4566 -0.1282
   47MOL0     C 6212   1.420   9.688   6.099 -0.2925 -0.2851 -0.0415
   47MOL0     O 6213   1.504   9.586   6.063 -0.2065 -0.4577  0.6363
   47MOL0     C 6214   1.640   9.592   6.087 -0.0632 -0.0296  0.2685
   47MOL0     C 6215   1.723   9.676   6.009  0.8232  0.4508  0.2758
   47MOL0     C 6216   1.862   9.688   6.007 -0.6520  0.5499 -0.7636
   47MOL0     C 6217   1.926   9.597   6.101  0.6801  0.4813 -0.0804
   47MOL0     O 6218   2.063   9.586   6.085  0.4647  0.3631 -0.1694
   47MOL0     C 6219   2.135   9.613   6.200 -1.3982  0.2322 -0.6666
   47MOL0     C 6220   2.285   9.631   6.159 -0.2939  1.3900  0.5085
   47MOL0     C 6221   2.346   9.493   6.129 -0.7704  0.7680  0.2649
   47MOL0     C 6222   2.494   9.487   6.090  0.2050 -0.3016 -0.3501
   47MOL0     C 6223   2.541   9.347   6.074  0.8194  0.6594 -0.7620
   47MOL0     C 6224   2.685   9.349   6.022 -0.3048 -0.2501  0.2037
   47MOL0     C 6225   2.753   9.215   5.999 -0.5627 -1.4221 -0.3641
   47MOL0     C 6226   2.857   9.179   6.104  0.1775 -0.3206 -0.1120
   47MOL0     N 6227   2.927   9.051   6.075 -0.2257  0.1781 -0.8371
   47MOL0     C 6228   2.866   8.928   6.088  0.8396  0.0849 -0.0154
   47MOL0     C 6229   2.950   8.829   6.045  0.3438 -0.3969 -0.4323
   47MOL0     C 6230   2.897   8.688   6.041 -0.6342  0.6734 -0.1533
   47MOL0     C 6231   3.005   8.600   5.988 -0.3850  0.3153  0.2108
   47MOL0     C 6232   3.029   8.613   5.840 -0.7422 -0.4000 -0.1719
   47MOL0     C 6233   3.183   8.604   5.812 -1.0623 -0.7104  0.0370
   47MOL0     O 6234   3.222   8.465   5.843  0.0391 -0.1788 -0.2123
   47MOL0     C 6235   3.349   8.417   5.840 -0.3212 -0.6338  0.7491
   47MOL0     C 6236   3.368   8.285   5.882  0.5811  0.2601 -0.6519
   47MOL0     C 6237   3.498   8.233   5.868  0.3944 -0.3034 -0.3746
   47MOL0     C 6238   3.608   8.307   5.820  0.4630  0.8752 -0.1746
   47MOL0     C 6239   3.747   8.249   5.813  0.3347  0.3947 -0.9422
   47MOL0     O 6240   3.840   8.336   5.774 -0.4426  0.6703  0.8185
   47MOL0     C 6241   3.963   8.272   5.737 -0.1210  0.4037 -0.3401
   47MOL0     C 6242   4.002   8.274   5.608 -0.3423  0.0070  0.7495
   47MOL0     C 6243   4.125   8.231   5.569 -0.5286  0.1658 -0.3507
   47MOL0     C 6244   4.214   8.173   5.668  0.1337 -0.4831  0.4605
   47MOL0     O 6245   4.336   8.134   5.629 -0.2344  0.7260  0.0967
   47MOL0     C 6246   4.395   8.022   5.695  0.1744 -0.3111  0.5291
   47MOL0     C 6247   4.529   7.984   5.617  0.0322  0.2628 -0.0772
   47MOL0     C 6248   4.622   8.107   5.600  0.0839  0.5229 -0.5150
   47MOL0     C 6249   4.774   8.070   5.602 -0.6256 -0.1129  0.2114
   47MOL0     C 6250   4.863   8.200   5.588 -0.1925  0.3129  0.5662
   47MOL0     C 6251   5.018   8.181   5.578  0.2183  0.0161 -0.5319
   47MOL0     C 6252   5.100   8.306   5.582 -0.6112  0.2968 -1.3404
   47MOL0     C 6253   5.247   8.277   5.560 -0.3615  0.5934 -0.3027
   47MOL0    Cl 6254   5.372   8.412   5.563  0.2206  0.3459 -0.5989
   47MOL0     C 6255   4.176   8.174   5.801 -0.3589 -0.3001  0.3384
   47MOL0     C 6256   4.054   8.221   5.838  0.1720 -0.1946 -1.2755
   47MOL0     O 6257   3.762   8.142   5.864  0.4881  0.7204 -0.4433
   47MOL0     C 6258   3.584   8.444   5.795 -0.4527  0.3354 -0.7165
   47MOL0     C 6259   3.458   8.497   5.805  1.0717 -1.0185  0.5289
   47MOL0     N 6260   3.063   8.894   5.997  0.1267 -0.6291 -1.3543
   47MOL0     N 6261   3.047   9.025   6.021 -0.0056 -0.2283 -0.4471
   47MOL0     C 6262   1.855   9.504   6.183  0.2407 -0.1164  0.2667
   47MOL0     C 6263   1.709   9.501   6.170  0.8026 -0.4996 -0.0321
   47MOL0     C 6264   1.285   9.672   6.039  0.4778  0.2617  0.4188
   47MOL0     C 6265   1.222   9.800   6.019 -0.1567  0.7737 -0.0956
   47MOL0     C 6266   1.096   9.811   5.973 -0.4583  0.3705  0.9842
   47MOL0     C 6267   1.035   9.690   5.926  1.1495 -0.8143  0.6617
   47MOL0     O 6268   0.915   9.702   5.863  0.1705 -0.8967 -0.1576
   47MOL0     C 6269   0.867   9.583   5.800 -0.0249  0.1176 -0.9866
   47MOL0     C 6270   0.729   9.624   5.744  0.2667 -0.2945 -0.5351
   47MOL0     C 6271   0.738   9.758   5.667 -0.5444  0.1515 -0.1632
   47MOL0     C 6272   0.607   9.792   5.591  0.8386 -0.6196 -0.2731
   47MOL0     C 6273   0.574   9.696   5.488 -0.4924 -0.4761  0.6794
   47MOL0     C 6274   0.532   9.632   5.388  0.2928  0.1203 -0.3199
   47MOL0     C 6275   1.097   9.563   5.945 -0.1505  0.1949 -0.2234
   47MOL0     C 6276   1.224   9.556   6.014  0.6117 -0.6982  0.8300
   47MOL0     C 6277   1.274   9.419   6.039 -1.2302 -0.4567  0.3399
   47MOL0     H 6278   1.681   9.741   5.933  0.1128 -1.2701 -0.8701
   47MOL0     H 6279   1.914   9.762   5.946 -1.6564  0.1095 -2.1943
   47MOL0     H 6280   2.111   9.708   6.248 -1.9461 -0.5881  0.7204
   47MOL0     H 6281   2.129   9.531   6.272  0.1223  1.0859  0.4957
   47MOL0     H 6282   2.343   9.671   6.242 -0.1754  0.9660  0.6318
   47MOL0     H 6283   2.304   9.699   6.076  0.2659 -0.8287 -1.2847
   47MOL0     H 6284   2.285   9.441   6.054 -1.0170  1.0472  0.2701
   47MOL0     H 6285   2.345   9.431   6.219 -0.2842  0.3227 -0.0281
   47MOL0     H 6286   2.508   9.542   5.997 -1.3507 -2.8958 -2.2562
   47MOL0     H 6287   2.552   9.534   6.170 -0.1969  0.1421 -0.3151
   47MOL0     H 6288   2.540   9.294   6.169 -0.5140  1.0725 -0.5170
   47MOL0     H 6289   2.477   9.288   6.009 -0.0342  1.1657 -0.4029
   47MOL0     H 6290   2.691   9.407   5.929  1.0872  1.3827  1.2335
   47MOL0     H 6291   2.746   9.408   6.091  0.5772  2.4352 -2.5926
   47MOL0     H 6292   2.790   9.212   5.895 -0.4897  0.7831 -0.4415
   47MOL0     H 6293   2.671   9.143   6.002 -2.2111  0.4183  0.3890
   47MOL0     H 6294   2.934   9.255   6.119  0.1086 -0.6856  2.5669
   47MOL0     H 6295   2.806   9.165   6.199 -0.4946 -1.8859 -0.6773
   47MOL0     H 6296   2.766   8.911   6.126  0.0789 -2.1930 -2.6894
   47MOL0     H 6297   2.876   8.643   6.138  2.6460 -0.0970  0.3098
   47MOL0     H 6298   2.810   8.680   5.975 -1.2586 -1.7905  0.8829
   47MOL0     H 6299   3.091   8.639   6.045  0.4977 -1.0313 -0.1697
   47MOL0     H 6300   2.981   8.498   6.018  1.3520 -0.7086 -1.6921
   47MOL0     H 6301   2.998   8.712   5.806  4.5356  0.6040 -3.0989
   47MOL0     H 6302   2.983   8.534   5.780 -0.7094  0.8557 -1.9396
   47MOL0     H 6303   3.252   8.670   5.864  1.2629 -1.9784 -1.2668
   47MOL0     H 6304   3.192   8.626   5.705  0.0751 -0.3016  0.2034
   47MOL0     H 6305   3.292   8.219   5.922  2.2099 -0.5822  1.2558
   47MOL0     H 6306   3.510   8.133   5.908 -1.3900 -0.7837 -0.9472
   47MOL0     H 6307   3.948   8.336   5.537 -0.6547 -2.0340 -0.8771
   47MOL0     H 6308   4.169   8.253   5.472 -1.5213  0.1104 -0.8279
   47MOL0     H 6309   4.427   8.043   5.797  1.2723 -0.1734  0.1652
   47MOL0     H 6310   4.334   7.931   5.693  0.5269 -0.5867  1.8829
   47MOL0     H 6311   4.570   7.906   5.682 -0.9279 -2.9049 -2.9904
   47MOL0     H 6312   4.512   7.941   5.518  1.8554  2.4673 -1.4559
   47MOL0     H 6313   4.583   8.166   5.517 -1.1119  0.6557  0.1124
   47MOL0     H 6314   4.604   8.165   5.691  1.6193 -1.1540  0.9447
   47MOL0     H 6315   4.795   8.001   5.520 -0.4939 -1.2156  1.1398
   47MOL0     H 6316   4.808   8.031   5.699  0.0916 -0.7739 -0.2928
   47MOL0     H 6317   4.842   8.267   5.673  1.0884  0.6633  0.6303
   47MOL0     H 6318   4.828   8.254   5.500  1.0440  1.5147  0.7825
   47MOL0     H 6319   5.040   8.108   5.656 -1.7194  0.0204  0.0630
   47MOL0     H 6320   5.027   8.133   5.480 -0.0356  2.2608 -1.7178
   47MOL0     H 6321   5.078   8.360   5.674 -2.3353 -0.7979 -1.0778
   47MOL0     H 6322   5.063   8.381   5.511 -1.5364  2.3085  1.1321
   47MOL0     H 6323   5.282   8.202   5.632  0.3766  0.0348 -1.2275
   47MOL0     H 6324   5.253   8.230   5.461 -1.2268  3.5129 -1.8524
   47MOL0     H 6325   4.237   8.144   5.886 -1.9082  2.0881  2.4348
   47MOL0     H 6326   4.018   8.229   5.940  1.0495 -0.9383 -0.8937
   47MOL0     H 6327   3.666   8.512   5.771 -0.6954  1.7832  2.1127
   47MOL0     H 6328   3.452   8.605   5.793  1.8720 -0.9150  0.9585
   47MOL0     H 6329   1.903   9.425   6.240  0.0111 -1.2871 -1.1074
   47MOL0     H 6330   1.649   9.425   6.218  0.3150 -1.9089 -2.6955
   47MOL0     H 6331   1.281   9.890   6.034  0.8203  1.1459 -4.7274
   47MOL0     H 6332   1.039   9.903   5.959  2.4381  2.1341 -0.2358
   47MOL0     H 6333   0.859   9.506   5.877  0.8936 -0.0520 -1.0565
   47MOL0     H 6334   0.932   9.559   5.716  1.7792 -0.1817  0.4450
   47MOL0     H 6335   0.646   9.631   5.815  0.1029  0.0562 -0.7572
   47MOL0     H 6336   0.696   9.541   5.680  0.5087 -1.3527  0.6798
   47MOL0     H 6337   0.827   9.760   5.603 -0.0006  0.0704  0.5738
   47MOL0     H 6338   0.752   9.844   5.733  1.9248  2.2597 -3.1672
   47MOL0     H 6339   0.519   9.804   5.655 -1.0497  1.1336 -2.9586
   47MOL0     H 6340   0.612   9.890   5.542  0.1726  0.8456  2.3816
   47MOL0     H 6341   0.496   9.579   5.302  0.9760  1.4752 -1.4884
   47MOL0     H 6342   1.053   9.471   5.907  0.1409  0.0555 -0.2272
   47MOL0     H 6343   1.303   9.417   6.144  1.0865  0.9526 -0.1916
   47MOL0     H 6344   1.198   9.347   6.007 -1.8288  0.7615 -1.1218
   47MOL0     H 6345   1.360   9.392   5.977 -1.3800 -1.5638  0.5957
   48MOL0     O 6346  11.163   1.971  10.180  0.4619  0.2004 -0.0158
   48MOL0     C 6347  11.091   2.063  10.148 -0.2382 -0.2551 -0.1581
   48MOL0     O 6348  11.134   2.176  10.088  0.4695 -0.0354 -0.0981
   48MOL0     C 6349  11.274   2.191  10.075  0.2414  0.5637  0.3818
   48MOL0     C 6350  11.356   2.241  10.176 -0.0211 -0.0650  0.5180
   48MOL0     C 6351  11.490   2.248  10.155  0.6826  0.3118  0.6378
   48MOL0     C 6352  11.544   2.217  10.021  0.1663 -0.5321 -0.1472
   48MOL0     O 6353  11.675   2.193   9.995 -0.3194 -0.4525 -0.0124
   48MOL0     C 6354  11.786   2.198  10.098  0.5475 -0.5078 -0.1507
   48MOL0     C 6355  11.932   2.194  10.040 -0.6456  0.3913 -0.4667
   48MOL0     C 6356  11.957   2.069   9.957  0.1914  0.5903  1.0626
   48MOL0     C 6357  12.100   2.072   9.905 -0.2150 -0.6060 -0.2533
   48MOL0     C 6358  12.134   1.958   9.809 -0.7884 -0.8217  0.7247
   48MOL0     C 6359  12.249   1.878   9.861 -0.3875 -0.1785 -0.7750
   48MOL0     C 6360  12.328   1.794   9.761 -0.2349 -0.2629 -0.5079
   48MOL0     C 6361  12.235   1.692   9.699  0.8679  0.6087  0.0540
   48MOL0     N 6362  12.305   1.638   9.578 -0.2741  0.6164 -1.0118
   48MOL0     C 6363  12.245   1.606   9.461  0.9843 -0.1894  0.5831
   48MOL0     C 6364  12.341   1.573   9.372 -0.0806  0.7242  0.7625
   48MOL0     C 6365  12.311   1.531   9.230 -0.3740  0.0543  0.0213
   48MOL0     C 6366  12.425   1.576   9.132  0.3030  0.2944  0.0843
   48MOL0     C 6367  12.395   1.518   8.998  0.7821 -0.4853 -1.0158
   48MOL0     C 6368  12.509   1.555   8.899 -0.8187  0.8653 -0.5000
   48MOL0     O 6369  12.512   1.698   8.889 -0.0083  0.7838  0.7688
   48MOL0     C 6370  12.638   1.742   8.871  0.2273  0.3002 -0.1644
   48MOL0     C 6371  12.685   1.817   8.975  1.3597 -0.0586  1.2304
   48MOL0     C 6372  12.821   1.862   8.980  0.3405  0.8594  0.4277
   48MOL0     C 6373  12.905   1.832   8.875  0.0779  0.3821 -0.4370
   48MOL0     C 6374  13.045   1.873   8.897 -0.5920 -0.1993 -0.0864
   48MOL0     O 6375  13.131   1.860   8.795  0.9331  0.4200 -0.0274
   48MOL0     C 6376  13.266   1.890   8.792  0.2094  0.4804  0.3398
   48MOL0     C 6377  13.342   1.878   8.910  0.0264  0.0012 -0.3800
   48MOL0     C 6378  13.480   1.913   8.911 -0.7529  0.1539  0.1688
   48MOL0     C 6379  13.543   1.951   8.788 -0.6321 -0.2263  0.1519
   48MOL0     O 6380  13.678   1.972   8.781  0.8585  0.0959 -0.1334
   48MOL0     C 6381  13.755   1.978   8.905 -0.1146  0.4817  0.0787
   48MOL0     C 6382  13.898   2.025   8.892  0.6956 -0.1004  1.0386
   48MOL0     C 6383  13.989   1.917   8.824 -0.2640 -0.2154 -0.9008
   48MOL0     C 6384  14.140   1.947   8.845 -0.2138 -0.0862 -0.2572
   48MOL0     C 6385  14.227   1.855   8.768  0.9521  0.8269  0.0615
   48MOL0     C 6386  14.364   1.912   8.740  0.5266 -0.0178 -0.2263
   48MOL0     C 6387  14.446   1.931   8.867  0.5083  0.3814  1.1100
   48MOL0     C 6388  14.591   1.970   8.836 -0.3903 -0.2845  0.2072
   48MOL0    Cl 6389  14.685   2.012   8.981  0.3427  0.1076  0.1982
   48MOL0     C 6390  13.461   1.958   8.673 -0.1302  0.8681 -0.4725
   48MOL0     C 6391  13.321   1.940   8.680 -0.8386 -0.2516  0.1124
   48MOL0     O 6392  13.077   1.933   9.004 -0.1595  0.2517  0.1041
   48MOL0     C 6393  12.853   1.753   8.767 -0.4666 -1.1235 -0.1984
   48MOL0     C 6394  12.723   1.704   8.768  0.4295  0.0385 -0.6800
   48MOL0     N 6395  12.459   1.599   9.429  0.9024  0.1565 -0.8790
   48MOL0     N 6396  12.440   1.645   9.547  0.0392  0.2062  0.6164
   48MOL0     C 6397  11.456   2.165   9.927 -0.7189 -1.1977 -0.2635
   48MOL0     C 6398  11.328   2.154   9.957 -0.7949  0.5999  0.6394
   48MOL0     C 6399  10.950   2.069  10.197 -0.7592  0.0306 -0.1576
   48MOL0     C 6400  10.893   2.191  10.238  0.1288  0.2669  0.0254
   48MOL0     C 6401  10.756   2.196  10.276  0.1588 -0.9465  0.3366
   48MOL0     C 6402  10.677   2.083  10.274 -0.1199 -0.8873  0.4559
   48MOL0     O 6403  10.548   2.092  10.303 -0.2335  0.0261  0.6205
   48MOL0     C 6404  10.470   2.208  10.273  1.4638  0.0047 -0.5554
   48MOL0     C 6405  10.473   2.249  10.126  0.2031  0.8207 -0.3128
   48MOL0     C 6406  10.485   2.139  10.025 -0.5879  0.7528  1.0306
   48MOL0     C 6407  10.536   2.174   9.887 -0.3432 -1.0361  1.8196
   48MOL0     C 6408  10.460   2.295   9.834 -0.3899  0.7023 -0.4996
   48MOL0     C 6409  10.397   2.372   9.768  0.1264 -0.3445 -0.2933
   48MOL0     C 6410  10.733   1.961  10.240  0.9519 -0.5800 -0.7609
   48MOL0     C 6411  10.869   1.951  10.198 -0.4892  0.1362  0.3192
   48MOL0     C 6412  10.924   1.816  10.165 -0.7019 -0.4794  0.1067
   48MOL0     H 6413  11.327   2.269  10.276 -0.0421  3.0127 -0.2287
   48MOL0     H 6414  11.560   2.246  10.238  0.3606 -0.8793  0.9026
   48MOL0     H 6415  11.773   2.293  10.152  0.2185  0.0109 -1.1202
   48MOL0     H 6416  11.767   2.113  10.164 -0.0990 -0.8907 -0.8294
   48MOL0     H 6417  12.008   2.196  10.119  1.6767  0.9296 -2.5724
   48MOL0     H 6418  11.967   2.275   9.975 -2.0431  0.4179 -1.2160
   48MOL0     H 6419  11.886   2.069   9.874  1.7412 -0.7833 -0.3574
   48MOL0     H 6420  11.939   1.984  10.023  2.0844 -0.1157  0.7499
   48MOL0     H 6421  12.130   2.171   9.867  0.8746 -0.2460  1.4232
   48MOL0     H 6422  12.159   2.062   9.996 -1.9541  0.4203  1.0382
   48MOL0     H 6423  12.046   1.898   9.783 -0.5345 -0.7076 -0.4577
   48MOL0     H 6424  12.179   2.001   9.719 -2.9350 -0.4680 -0.2463
   48MOL0     H 6425  12.316   1.950   9.907 -0.1387 -1.0153  0.2183
   48MOL0     H 6426  12.211   1.806   9.935  2.5093  0.5702  1.6630
   48MOL0     H 6427  12.407   1.741   9.814 -0.9257  0.3834  1.2329
   48MOL0     H 6428  12.369   1.857   9.681  1.1245 -0.1249  0.2864
   48MOL0     H 6429  12.213   1.613   9.771 -1.5664  0.6536 -0.5618
   48MOL0     H 6430  12.133   1.719   9.670 -0.7090 -3.5750  1.0075
   48MOL0     H 6431  12.140   1.604   9.434  1.3091  0.2728 -0.8025
   48MOL0     H 6432  12.325   1.422   9.226  1.3787  0.2447 -4.0542
   48MOL0     H 6433  12.212   1.566   9.201  0.5155  1.6872 -1.2174
   48MOL0     H 6434  12.442   1.684   9.126  2.0447  0.1999  1.9714
   48MOL0     H 6435  12.519   1.540   9.176 -0.0828  2.2826  2.8263
   48MOL0     H 6436  12.302   1.563   8.962  0.2134 -1.2252 -0.4944
   48MOL0     H 6437  12.374   1.411   9.002 -0.7006 -0.1989 -0.6641
   48MOL0     H 6438  12.498   1.512   8.800  0.8227  0.2795 -0.4470
   48MOL0     H 6439  12.604   1.511   8.928 -1.5720 -1.7232 -1.6513
   48MOL0     H 6440  12.607   1.846   9.044 -0.2348  1.6983 -1.1331
   48MOL0     H 6441  12.853   1.891   9.080 -3.7754  3.6509  1.2077
   48MOL0     H 6442  13.303   1.847   9.006 -0.9300 -0.7925 -1.0127
   48MOL0     H 6443  13.535   1.914   9.005 -0.4476  1.1949 -0.0042
   48MOL0     H 6444  13.716   2.050   8.977  1.7135  0.8284  0.7748
   48MOL0     H 6445  13.751   1.885   8.962 -0.1482  2.2107  3.1069
   48MOL0     H 6446  13.892   2.118   8.836 -0.2364 -0.5923  0.2877
   48MOL0     H 6447  13.936   2.040   8.994 -0.5021  0.1925  1.4642
   48MOL0     H 6448  13.962   1.826   8.879 -0.3119  0.3631  0.0679
   48MOL0     H 6449  13.958   1.904   8.721 -1.0164 -0.2768 -0.6710
   48MOL0     H 6450  14.164   1.953   8.952  0.6940  2.5267 -0.5297
   48MOL0     H 6451  14.164   2.046   8.806  1.8074 -1.4670 -2.8301
   48MOL0     H 6452  14.170   1.825   8.679  0.2066  0.7253  0.5601
   48MOL0     H 6453  14.239   1.755   8.811  1.8402  1.3781  1.1303
   48MOL0     H 6454  14.412   1.841   8.672 -0.2518 -0.6042 -0.1817
   48MOL0     H 6455  14.349   2.012   8.698 -0.2778  0.6520  1.5733
   48MOL0     H 6456  14.441   1.844   8.934  0.8021  1.3488  2.4339
   48MOL0     H 6457  14.399   2.011   8.926 -0.7170  1.6480 -1.4100
   48MOL0     H 6458  14.642   1.891   8.780 -0.5006  1.1888 -2.1010
   48MOL0     H 6459  14.588   2.060   8.773 -0.0522  0.3357  1.0605
   48MOL0     H 6460  13.514   1.975   8.580  0.2465  0.5657 -0.3180
   48MOL0     H 6461  13.252   1.955   8.597 -0.6287  0.2692  0.0299
   48MOL0     H 6462  12.911   1.712   8.685 -1.9976 -2.4043 -0.6685
   48MOL0     H 6463  12.692   1.641   8.686  2.3095 -1.1074 -0.5789
   48MOL0     H 6464  11.495   2.126   9.833  1.0030  3.4006 -1.7451
   48MOL0     H 6465  11.268   2.104   9.882  1.5422 -0.2876 -0.7359
   48MOL0     H 6466  10.945   2.285  10.251 -0.5551  0.7600 -0.7428
   48MOL0     H 6467  10.715   2.288  10.318 -2.0028 -1.3429 -0.7582
   48MOL0     H 6468  10.492   2.295  10.336  0.0686 -1.2613  1.8569
   48MOL0     H 6469  10.363   2.187  10.283  1.2466  0.5503 -1.6026
   48MOL0     H 6470  10.554   2.321  10.113 -0.3831  1.3485 -1.1329
   48MOL0     H 6471  10.380   2.301  10.103 -1.8028 -2.4280 -0.2630
   48MOL0     H 6472  10.390   2.086  10.018  1.3348 -2.9169 -0.1070
   48MOL0     H 6473  10.556   2.064  10.064 -0.4309  1.5608  2.3822
   48MOL0     H 6474  10.644   2.191   9.882 -0.5811  1.0492  2.7978
   48MOL0     H 6475  10.519   2.094   9.814 -3.9235  1.5899 -0.5343
   48MOL0     H 6476  10.340   2.442   9.709 -1.8855 -0.2723  1.5725
   48MOL0     H 6477  10.669   1.874  10.229  0.1445 -0.0071 -0.6702
   48MOL0     H 6478  10.842   1.745  10.149 -0.0648 -1.0206 -0.8263
   48MOL0     H 6479  10.994   1.814  10.081  1.3303  3.3007  1.4649
   48MOL0     H 6480  10.975   1.780  10.254 -2.4561  1.0663  1.8570
   49MOL0     O 6481   0.902   2.233   7.705  0.1672  0.0624 -1.0147
   49MOL0     C 6482   0.889   2.351   7.675 -0.2876 -0.4285 -0.1108
   49MOL0     O 6483   0.960   2.459   7.730 -0.0653  0.1672 -0.3195
   49MOL0     C 6484   1.068   2.450   7.815  0.4021 -0.6005 -0.2503
   49MOL0     C 6485   1.080   2.556   7.908 -0.5171 -0.0168  0.1940
   49MOL0     C 6486   1.184   2.557   8.003 -0.1205 -0.1833 -0.3562
   49MOL0     C 6487   1.271   2.451   8.016  0.5626  0.2380 -0.0262
   49MOL0     O 6488   1.371   2.443   8.104  0.4451 -0.1793 -0.5739
   49MOL0     C 6489   1.395   2.533   8.211  0.6193  0.1499 -0.1297
   49MOL0     C 6490   1.532   2.500   8.263 -0.0216  0.2031 -0.0386
   49MOL0     C 6491   1.648   2.539   8.181  1.0766  0.6403  0.3714
   49MOL0     C 6492   1.775   2.556   8.257  0.2578 -0.7783 -0.8218
   49MOL0     C 6493   1.900   2.618   8.181  0.2946  0.9787 -0.4810
   49MOL0     C 6494   1.962   2.510   8.105 -0.5243  0.1716  0.5395
   49MOL0     C 6495   2.074   2.572   8.010  0.6200 -0.1371  0.1410
   49MOL0     C 6496   2.018   2.624   7.864  0.4412 -0.2912 -0.1994
   49MOL0     N 6497   2.141   2.677   7.795 -0.2004  0.2707  1.1953
   49MOL0     C 6498   2.234   2.598   7.738  0.1888 -0.7643  0.1935
   49MOL0     C 6499   2.312   2.672   7.654 -0.4189 -0.2313 -0.7773
   49MOL0     C 6500   2.415   2.642   7.558 -0.2707 -0.3951 -0.4596
   49MOL0     C 6501   2.560   2.611   7.619  0.1105  0.1461  0.2098
   49MOL0     C 6502   2.639   2.632   7.495 -0.3473 -0.5207  0.4396
   49MOL0     C 6503   2.790   2.604   7.523 -0.4576 -0.2896 -0.3851
   49MOL0     O 6504   2.872   2.633   7.414  0.8129  0.1192  0.3176
   49MOL0     C 6505   3.005   2.629   7.414  0.6536  0.3674  0.0513
   49MOL0     C 6506   3.068   2.667   7.303 -0.0377 -1.2309  1.0500
   49MOL0     C 6507   3.205   2.681   7.298 -0.4763  0.7130 -0.0789
   49MOL0     C 6508   3.279   2.654   7.410  0.7292  0.7293 -1.0973
   49MOL0     C 6509   3.427   2.657   7.417 -0.8779  0.7751 -0.4036
   49MOL0     O 6510   3.495   2.582   7.516  0.3501 -0.0833 -0.7033
   49MOL0     C 6511   3.632   2.573   7.505 -0.5714 -1.0605 -1.5598
   49MOL0     C 6512   3.696   2.499   7.401 -0.0186 -0.7305 -0.0035
   49MOL0     C 6513   3.834   2.510   7.389  0.1718  0.6018 -0.7247
   49MOL0     C 6514   3.909   2.590   7.480  0.2863  0.5838  0.5402
   49MOL0     O 6515   4.043   2.596   7.453 -0.4117  0.3237 -0.3619
   49MOL0     C 6516   4.135   2.593   7.562 -0.7044  0.2554 -0.0241
   49MOL0     C 6517   4.285   2.557   7.505 -0.6158  0.0830 -0.4065
   49MOL0     C 6518   4.324   2.652   7.391  0.4542 -0.0520  0.3220
   49MOL0     C 6519   4.471   2.638   7.355  0.1050  0.1918 -0.5411
   49MOL0     C 6520   4.522   2.731   7.241 -1.0258 -0.1281 -0.7880
   49MOL0     C 6521   4.674   2.712   7.219 -0.5812  0.5865 -0.8721
   49MOL0     C 6522   4.725   2.770   7.090  0.4359 -0.6743 -0.6525
   49MOL0     C 6523   4.877   2.803   7.095 -0.6393  0.8998 -0.6508
   49MOL0    Cl 6524   4.969   2.652   7.094 -0.2153 -0.2142  0.0736
   49MOL0     C 6525   3.848   2.651   7.590 -0.7490 -0.7795 -0.1409
   49MOL0     C 6526   3.710   2.651   7.605 -0.0401  0.9241  0.9098
   49MOL0     O 6527   3.477   2.709   7.319 -0.0597 -0.1286 -0.4742
   49MOL0     C 6528   3.208   2.618   7.525 -0.2980  0.0550  0.3768
   49MOL0     C 6529   3.071   2.590   7.529  0.3495  0.1082 -0.3018
   49MOL0     N 6530   2.267   2.797   7.665 -0.3791  0.0377  0.3940
   49MOL0     N 6531   2.175   2.802   7.751  1.0591  0.4499 -0.7252
   49MOL0     C 6532   1.254   2.336   7.934 -0.3271 -0.2352 -0.2349
   49MOL0     C 6533   1.163   2.342   7.825  0.5528 -0.0817 -0.3855
   49MOL0     C 6534   0.792   2.396   7.561 -0.2305 -0.0012 -0.7722
   49MOL0     C 6535   0.834   2.507   7.491  0.0971 -0.1815  0.0184
   49MOL0     C 6536   0.779   2.542   7.367 -0.1498 -0.5933  0.6372
   49MOL0     C 6537   0.668   2.465   7.314 -0.0655  0.4938 -0.3795
   49MOL0     O 6538   0.612   2.500   7.197 -0.5539  0.0637  0.6511
   49MOL0     C 6539   0.648   2.625   7.129 -0.2881  1.2156 -0.5154
   49MOL0     C 6540   0.553   2.640   7.016  0.1582 -0.1925 -0.5338
   49MOL0     C 6541   0.614   2.568   6.896 -0.4599 -0.2068  0.7751
   49MOL0     C 6542   0.503   2.540   6.799 -0.1884 -0.3086  0.9780
   49MOL0     C 6543   0.392   2.454   6.841  0.5548  0.0061  0.7756
   49MOL0     C 6544   0.294   2.399   6.869  0.2194  0.6788 -0.1826
   49MOL0     C 6545   0.620   2.353   7.394 -0.2855 -0.1017  0.4920
   49MOL0     C 6546   0.677   2.319   7.513  0.3169  0.0737  0.0056
   49MOL0     C 6547   0.622   2.198   7.571  0.7497  1.7841 -0.0604
   49MOL0     H 6548   1.006   2.635   7.910 -1.6820 -1.0051 -1.1247
   49MOL0     H 6549   1.197   2.641   8.072  0.8841  1.1171 -2.0442
   49MOL0     H 6550   1.394   2.636   8.173  1.2352 -0.0057 -0.5759
   49MOL0     H 6551   1.325   2.528   8.295  1.3581  1.4654  0.6008
   49MOL0     H 6552   1.535   2.392   8.280 -1.5414  0.5412  3.0671
   49MOL0     H 6553   1.537   2.552   8.359 -3.7893  0.5293  0.0957
   49MOL0     H 6554   1.616   2.633   8.136 -1.2871  0.2884  1.1520
   49MOL0     H 6555   1.653   2.460   8.104 -2.3620  0.5194  0.0833
   49MOL0     H 6556   1.749   2.613   8.347  1.4194 -3.9812  1.7347
   49MOL0     H 6557   1.805   2.459   8.298  1.4049 -0.6221 -1.2665
   49MOL0     H 6558   1.873   2.694   8.107  3.1999  0.9795 -1.6415
   49MOL0     H 6559   1.965   2.662   8.257  0.0472 -0.4473  0.6148
   49MOL0     H 6560   2.016   2.444   8.174 -0.2290  1.0905  1.2050
   49MOL0     H 6561   1.890   2.448   8.051 -1.5944  0.8510  1.1354
   49MOL0     H 6562   2.147   2.495   7.983  1.8056  1.4087 -1.2576
   49MOL0     H 6563   2.124   2.653   8.065 -1.4070  1.1355  0.1769
   49MOL0     H 6564   1.982   2.536   7.810 -1.6830 -0.5627  1.5242
   49MOL0     H 6565   1.934   2.693   7.876  0.1948 -0.8814  1.9626
   49MOL0     H 6566   2.243   2.493   7.762  1.0601 -0.6533  0.3938
   49MOL0     H 6567   2.393   2.556   7.494  1.7967 -0.9174 -0.5432
   49MOL0     H 6568   2.420   2.735   7.500 -0.2919 -0.7362 -1.0167
   49MOL0     H 6569   2.591   2.685   7.693  0.7156 -0.9649  1.0968
   49MOL0     H 6570   2.563   2.506   7.647 -0.1547 -0.3523 -1.5042
   49MOL0     H 6571   2.632   2.733   7.453  2.9901 -0.0843  0.5804
   49MOL0     H 6572   2.607   2.557   7.422  1.6593 -0.7312 -0.2948
   49MOL0     H 6573   2.803   2.499   7.550  1.6471  0.8345  3.7400
   49MOL0     H 6574   2.821   2.664   7.608  0.1024  0.1967 -0.9251
   49MOL0     H 6575   3.022   2.681   7.206  3.5789  0.9699 -0.5974
   49MOL0     H 6576   3.262   2.702   7.207 -0.0208  0.9041  0.2471
   49MOL0     H 6577   3.633   2.455   7.325  2.0140 -1.9319 -1.1038
   49MOL0     H 6578   3.880   2.462   7.303 -0.4509 -0.9924 -0.2145
   49MOL0     H 6579   4.137   2.696   7.598  1.0358 -0.5679  2.5631
   49MOL0     H 6580   4.106   2.517   7.635 -2.1732 -2.7602 -3.4266
   49MOL0     H 6581   4.362   2.568   7.581 -0.5881  1.3487 -0.5911
   49MOL0     H 6582   4.283   2.452   7.477  1.0990 -0.3976  1.1412
   49MOL0     H 6583   4.255   2.654   7.306  0.6176 -1.3730  0.1363
   49MOL0     H 6584   4.313   2.750   7.438  0.5878 -0.2621  0.7952
   49MOL0     H 6585   4.484   2.535   7.320  1.1894  0.7054 -1.7688
   49MOL0     H 6586   4.535   2.660   7.441  0.3510 -0.1468 -0.6343
   49MOL0     H 6587   4.489   2.833   7.263  0.1272 -0.3827  2.8269
   49MOL0     H 6588   4.472   2.686   7.154 -1.0480 -0.3215 -0.6768
   49MOL0     H 6589   4.701   2.769   7.309  0.3470  0.5392 -1.1152
   49MOL0     H 6590   4.704   2.607   7.228 -0.7857  0.4207 -2.0161
   49MOL0     H 6591   4.667   2.856   7.056 -0.2872 -1.7601 -2.2897
   49MOL0     H 6592   4.703   2.691   7.018 -0.1444  0.4600 -1.7533
   49MOL0     H 6593   4.908   2.865   7.010  0.2267 -0.4729 -1.3547
   49MOL0     H 6594   4.898   2.862   7.185  0.3004  0.0318 -0.2889
   49MOL0     H 6595   3.904   2.712   7.661 -0.5252  1.5093 -2.1382
   49MOL0     H 6596   3.669   2.713   7.685  0.6235  1.7202  0.6441
   49MOL0     H 6597   3.260   2.593   7.616  2.1091  1.9862 -0.3792
   49MOL0     H 6598   3.025   2.553   7.620  0.2644  0.4790 -0.1923
   49MOL0     H 6599   1.330   2.261   7.955 -0.3244  0.3282  2.0583
   49MOL0     H 6600   1.161   2.255   7.760 -1.4346  0.9367 -1.7774
   49MOL0     H 6601   0.912   2.575   7.522 -0.4619  0.8906 -0.8440
   49MOL0     H 6602   0.829   2.624   7.316  1.4145 -1.9556 -0.1345
   49MOL0     H 6603   0.753   2.640   7.100 -0.0667 -1.3581 -1.3059
   49MOL0     H 6604   0.638   2.710   7.197  0.3670  1.4908 -0.7541
   49MOL0     H 6605   0.538   2.742   6.982  0.9603  0.6453  1.4708
   49MOL0     H 6606   0.450   2.608   7.037 -0.6678  2.1700 -0.7864
   49MOL0     H 6607   0.671   2.477   6.917 -0.4325  0.4841  4.3435
   49MOL0     H 6608   0.676   2.653   6.866 -3.5925  1.3483 -1.9784
   49MOL0     H 6609   0.461   2.636   6.765 -0.1015 -0.9828 -1.1305
   49MOL0     H 6610   0.551   2.498   6.711  1.0764  1.2643  0.8723
   49MOL0     H 6611   0.202   2.355   6.901  0.0724 -0.1570 -1.7037
   49MOL0     H 6612   0.531   2.301   7.361  1.4654 -2.2555 -1.0681
   49MOL0     H 6613   0.516   2.176   7.555  0.6250  1.0506  1.6299
   49MOL0     H 6614   0.676   2.106   7.549  0.9553  1.7369  0.6205
   49MOL0     H 6615   0.625   2.204   7.680 -3.5561 -1.8469  0.5342
   50MOL0     O 6616   0.366   3.806  11.105  0.0847 -0.0767 -0.1662
   50MOL0     C 6617   0.420   3.712  11.156 -0.9921  0.1409 -0.4590
   50MOL0     O 6618   0.355   3.625  11.247  0.3417  0.0196  0.1222
   50MOL0     C 6619   0.218   3.625  11.258 -0.1788  0.3208  0.2014
   50MOL0     C 6620   0.168   3.614  11.384 -0.4865 -0.1783 -0.6866
   50MOL0     C 6621   0.026   3.618  11.406  0.1845 -0.0763 -0.7486
   50MOL0     C 6622  -0.061   3.632  11.306  1.0028 -0.1127 -0.0147
   50MOL0     O 6623  -0.194   3.646  11.325  0.1409 -0.7217 -0.0249
   50MOL0     C 6624  -0.262   3.519  11.318  0.0913 -0.2634 -0.3013
   50MOL0     C 6625  -0.405   3.548  11.273 -0.4925 -0.0087  0.3156
   50MOL0     C 6626  -0.410   3.621  11.139  0.0297  0.0467 -0.3174
   50MOL0     C 6627  -0.551   3.646  11.109 -0.4030 -0.7364  0.1487
   50MOL0     C 6628  -0.580   3.687  10.969  0.5529  0.4922 -0.7454
   50MOL0     C 6629  -0.471   3.781  10.901  0.1020 -0.5615 -0.8050
   50MOL0     C 6630  -0.477   3.920  10.963 -0.7621  0.3560  0.4656
   50MOL0     C 6631  -0.382   4.013  10.882  0.3851  0.5314 -0.4232
   50MOL0     N 6632  -0.281   4.069  10.967 -0.5480  0.3604 -0.1174
   50MOL0     C 6633  -0.154   4.022  10.979 -0.2708  0.5659  0.6671
   50MOL0     C 6634  -0.084   4.121  11.045 -0.3649  0.7216 -0.5951
   50MOL0     C 6635   0.056   4.103  11.095 -0.9440  1.0454  0.3491
   50MOL0     C 6636   0.129   4.235  11.148  0.2342  0.1255 -0.1306
   50MOL0     C 6637   0.159   4.338  11.039 -0.6455  0.3237  0.3206
   50MOL0     C 6638   0.274   4.432  11.090  0.7298 -0.4972 -0.2765
   50MOL0     O 6639   0.305   4.533  10.996 -1.1165  0.7220  0.4561
   50MOL0     C 6640   0.426   4.591  11.024 -0.2293 -0.0698  0.8600
   50MOL0     C 6641   0.477   4.684  10.927 -0.7530 -0.0568 -0.0859
   50MOL0     C 6642   0.606   4.744  10.938  0.3987 -0.7417 -0.2679
   50MOL0     C 6643   0.686   4.713  11.051  0.3287 -1.1081 -0.7921
   50MOL0     C 6644   0.813   4.784  11.069 -0.0777  0.5848  0.3686
   50MOL0     O 6645   0.832   4.893  10.994 -0.2617  0.4123 -0.0274
   50MOL0     C 6646   0.957   4.936  10.988  0.8013 -0.3820  0.4287
   50MOL0     C 6647   0.990   5.046  11.069 -0.1070  0.2818 -0.7255
   50MOL0     C 6648   1.106   5.116  11.046  0.2324 -0.3832 -0.3468
   50MOL0     C 6649   1.196   5.076  10.944  0.2493  0.6229  0.7220
   50MOL0     O 6650   1.305   5.155  10.932  0.3269 -0.3050 -0.2273
   50MOL0     C 6651   1.434   5.104  10.897  0.0481 -0.1772 -0.6236
   50MOL0     C 6652   1.479   5.065  11.039 -0.2854  0.2066  0.1050
   50MOL0     C 6653   1.599   4.972  11.032  0.6682 -0.6310 -0.6127
   50MOL0     C 6654   1.643   4.927  11.173 -0.1590  0.3188 -0.3517
   50MOL0     C 6655   1.773   4.839  11.178  0.7923  0.0292 -0.1923
   50MOL0     C 6656   1.894   4.909  11.119 -0.0634  0.3014  0.5572
   50MOL0     C 6657   2.019   4.822  11.100  0.0896 -0.1403  0.9915
   50MOL0     C 6658   2.106   4.796  11.212 -0.4076 -0.4301 -0.0295
   50MOL0    Cl 6659   2.146   4.961  11.280  0.5029  0.0811 -0.7613
   50MOL0     C 6660   1.168   4.956  10.869  0.2162  0.3289 -1.3825
   50MOL0     C 6661   1.051   4.889  10.900  0.4019  0.0453 -0.1661
   50MOL0     O 6662   0.899   4.729  11.143 -0.0864  0.3176  0.0542
   50MOL0     C 6663   0.638   4.617  11.141  0.0066  0.1263 -0.3613
   50MOL0     C 6664   0.509   4.564  11.124 -0.4201  0.8228  0.1188
   50MOL0     N 6665  -0.166   4.224  11.065  0.7511  1.0381 -0.7857
   50MOL0     N 6666  -0.285   4.194  11.027 -0.2463  0.9572 -0.2609
   50MOL0     C 6667  -0.006   3.641  11.169  0.2259 -0.1563 -0.4757
   50MOL0     C 6668   0.128   3.641  11.152 -0.0378  0.2348  0.4739
   50MOL0     C 6669   0.567   3.701  11.130  0.6455 -0.1397  0.3823
   50MOL0     C 6670   0.622   3.590  11.197  0.4220  0.0066 -0.7587
   50MOL0     C 6671   0.759   3.567  11.184  1.0134  0.1621  0.1468
   50MOL0     C 6672   0.837   3.643  11.106  0.9660 -0.1253 -0.1389
   50MOL0     O 6673   0.963   3.604  11.086 -0.6380 -0.1841  0.9155
   50MOL0     C 6674   1.063   3.681  11.164  0.1530  0.1026  0.6324
   50MOL0     C 6675   1.184   3.585  11.156  0.5949  0.1150 -0.5336
   50MOL0     C 6676   1.163   3.457  11.243 -0.0259  1.0400 -0.8906
   50MOL0     C 6677   1.304   3.393  11.269  0.4190 -0.1891 -0.5068
   50MOL0     C 6678   1.386   3.474  11.358  0.3697 -0.4149 -1.0358
   50MOL0     C 6679   1.433   3.554  11.441  0.6851  0.0360  0.2324
   50MOL0     C 6680   0.784   3.742  11.031 -0.4151 -0.7541  0.6802
   50MOL0     C 6681   0.648   3.774  11.038 -0.1632  0.1461 -0.3337
   50MOL0     C 6682   0.601   3.887  10.951  1.1417 -0.1889  0.0467
   50MOL0     H 6683   0.224   3.598  11.475 -2.2020  1.0771  0.6606
   50MOL0     H 6684  -0.002   3.623  11.511  0.4224  1.4378 -0.7331
   50MOL0     H 6685  -0.212   3.454  11.246 -0.3823  0.6491 -1.4700
   50MOL0     H 6686  -0.252   3.467  11.414  3.3291 -0.2256 -0.5064
   50MOL0     H 6687  -0.443   3.610  11.356  1.2120  1.1826  0.2735
   50MOL0     H 6688  -0.465   3.458  11.263 -0.2007 -0.0134 -1.7997
   50MOL0     H 6689  -0.360   3.559  11.064  1.7422  2.3016 -1.1664
   50MOL0     H 6690  -0.349   3.711  11.142  1.7502 -1.0574 -0.7655
   50MOL0     H 6691  -0.611   3.557  11.131 -1.4173 -0.7545 -2.4051
   50MOL0     H 6692  -0.592   3.725  11.172  2.3661  2.4233 -1.7098
   50MOL0     H 6693  -0.585   3.592  10.914  0.9043 -0.8780  1.4473
   50MOL0     H 6694  -0.682   3.727  10.958  1.0553  1.8499 -0.6561
   50MOL0     H 6695  -0.368   3.745  10.900  0.2458 -0.1528 -1.0595
   50MOL0     H 6696  -0.495   3.803  10.796  0.8595  1.5794 -0.5789
   50MOL0     H 6697  -0.452   3.912  11.069 -2.1097  1.8580  0.9507
   50MOL0     H 6698  -0.582   3.948  10.951 -0.5950  0.5467 -0.6748
   50MOL0     H 6699  -0.333   3.951  10.807 -2.0397 -0.6549 -1.1600
   50MOL0     H 6700  -0.428   4.104  10.843 -1.5319  0.3299  1.1861
   50MOL0     H 6701  -0.113   3.931  10.937  0.6468  0.9444  0.7189
   50MOL0     H 6702   0.065   4.030  11.176  2.0207  3.0846  2.1150
   50MOL0     H 6703   0.116   4.060  11.014 -0.0442  0.1545  1.4511
   50MOL0     H 6704   0.056   4.281  11.214 -2.0107 -3.9528  0.5474
   50MOL0     H 6705   0.221   4.201  11.197 -0.3015  2.9474  3.2058
   50MOL0     H 6706   0.065   4.389  11.017  0.0447  1.4334 -0.1139
   50MOL0     H 6707   0.205   4.298  10.948  2.5971 -0.3160  2.0728
   50MOL0     H 6708   0.363   4.370  11.103 -0.2836 -2.2928 -1.4883
   50MOL0     H 6709   0.243   4.481  11.183 -0.1321 -0.6181 -0.4929
   50MOL0     H 6710   0.408   4.693  10.844 -0.7421 -0.4380 -0.1374
   50MOL0     H 6711   0.649   4.814  10.866  1.7044 -0.2360  0.9592
   50MOL0     H 6712   0.923   5.082  11.146 -0.8922 -0.1612 -1.1871
   50MOL0     H 6713   1.128   5.211  11.095  0.4549 -0.2351 -0.7307
   50MOL0     H 6714   1.432   5.010  10.841  2.7576 -3.0582  3.5406
   50MOL0     H 6715   1.501   5.180  10.854 -1.6798  2.0682  0.4449
   50MOL0     H 6716   1.501   5.153  11.101 -1.6672  0.3773  0.3905
   50MOL0     H 6717   1.400   5.007  11.087 -0.4823 -0.7009 -1.2532
   50MOL0     H 6718   1.570   4.885  10.971 -0.6491 -0.3514 -0.4027
   50MOL0     H 6719   1.675   5.034  10.984 -1.0631  3.0045  1.0016
   50MOL0     H 6720   1.565   4.859  11.209  0.5128 -1.2118 -1.6529
   50MOL0     H 6721   1.653   5.001  11.253  0.8166 -3.5944  3.5966
   50MOL0     H 6722   1.738   4.748  11.129 -2.5708  0.3542  1.3518
   50MOL0     H 6723   1.795   4.813  11.281 -0.1607 -0.8778 -0.2029
   50MOL0     H 6724   1.856   4.934  11.020 -1.3225  0.5524  1.0823
   50MOL0     H 6725   1.908   5.000  11.179 -0.9506  0.9640 -0.2036
   50MOL0     H 6726   2.081   4.867  11.022 -0.0374 -2.4720 -0.5397
   50MOL0     H 6727   1.990   4.727  11.055  0.8693  1.0592 -2.3101
   50MOL0     H 6728   2.056   4.737  11.289 -2.0888  0.9512 -0.0052
   50MOL0     H 6729   2.199   4.748  11.180 -0.2858  0.0766 -0.4611
   50MOL0     H 6730   1.248   4.920  10.805  1.6819 -1.8893  1.4831
   50MOL0     H 6731   1.017   4.803  10.843 -6.7083  3.6841 -2.6593
   50MOL0     H 6732   0.685   4.599  11.237  0.1718  2.0454 -0.0382
   50MOL0     H 6733   0.493   4.483  11.194 -0.5174 -0.3797 -1.2561
   50MOL0     H 6734  -0.062   3.649  11.077  0.2483  0.6740 -0.4236
   50MOL0     H 6735   0.173   3.662  11.055  0.0615 -1.0377  0.2384
   50MOL0     H 6736   0.558   3.529  11.260  1.8534 -0.5654  0.1984
   50MOL0     H 6737   0.808   3.483  11.233  0.3977  0.1319  0.7151
   50MOL0     H 6738   1.027   3.704  11.265  0.2131  1.4862  0.3565
   50MOL0     H 6739   1.097   3.766  11.104 -1.1645  1.1201  1.2782
   50MOL0     H 6740   1.270   3.646  11.185  0.7284 -0.9370  1.4453
   50MOL0     H 6741   1.211   3.555  11.054 -0.5497 -1.2956 -0.4485
   50MOL0     H 6742   1.101   3.390  11.183 -0.3702  0.7768 -0.2521
   50MOL0     H 6743   1.114   3.470  11.340 -0.4413 -2.1819 -0.5477
   50MOL0     H 6744   1.276   3.298  11.314 -0.3755 -0.0521 -0.6964
   50MOL0     H 6745   1.362   3.376  11.178  1.1626 -3.4962  0.4329
   50MOL0     H 6746   1.476   3.638  11.493 -1.4365  1.7462 -0.5850
   50MOL0     H 6747   0.843   3.798  10.959  0.4580  0.8262  2.5440
   50MOL0     H 6748   0.552   3.963  11.013  0.4949 -0.4745 -0.1069
   50MOL0     H 6749   0.687   3.943  10.911  0.0320  1.4531 -0.1470
   50MOL0     H 6750   0.521   3.853  10.886  0.8266  1.1850 -0.3098
   51MOL0     O 6751   0.889   5.240   0.046  0.6482  0.1057  0.3980
   51MOL0     C 6752   0.907   5.283   0.161  0.1265  0.3973 -0.1219
   51MOL0     O 6753   1.034   5.300   0.217  0.2243 -0.4267 -0.1100
   51MOL0     C 6754   1.158   5.271   0.169  0.9483  0.0583  1.2909
   51MOL0     C 6755   1.179   5.220   0.040 -0.1033  1.0627 -0.4760
   51MOL0     C 6756   1.306   5.170   0.004 -0.7095  0.1911 -0.4480
   51MOL0     C 6757   1.415   5.182   0.094 -0.4854 -0.0056 -0.3560
   51MOL0     O 6758   1.536   5.132   0.057  0.0449  0.4034 -0.4566
   51MOL0     C 6759   1.659   5.140   0.139  0.0390 -0.5206  0.2410
   51MOL0     C 6760   1.714   5.006   0.176  0.3802 -0.1316 -0.8923
   51MOL0     C 6761   1.838   5.018   0.267  0.6918  0.1643  0.0280
   51MOL0     C 6762   1.912   4.886   0.292 -0.8569 -0.0477  0.3445
   51MOL0     C 6763   2.040   4.902   0.357  0.0100  0.2374 -0.0435
   51MOL0     C 6764   2.135   4.989   0.286 -0.0449  0.2146  0.7053
   51MOL0     C 6765   2.280   4.965   0.314 -0.0528  0.2219 -0.0332
   51MOL0     C 6766   2.334   4.990   0.456  0.6645 -0.7613  0.6597
   51MOL0     N 6767   2.385   5.121   0.488 -0.7589  0.2911 -0.2393
   51MOL0     C 6768   2.467   5.203   0.410 -0.5242 -0.2480  0.3762
   51MOL0     C 6769   2.486   5.312   0.494  0.4419  0.3732 -0.3301
   51MOL0     C 6770   2.558   5.437   0.487 -0.6408 -0.0924 -0.9716
   51MOL0     C 6771   2.495   5.547   0.398  0.3744 -0.3745 -0.5921
   51MOL0     C 6772   2.396   5.635   0.490  0.0692  0.8410  0.4673
   51MOL0     C 6773   2.337   5.737   0.399 -0.7110 -0.4030  0.9632
   51MOL0     O 6774   2.226   5.813   0.442  0.0928  0.2824  0.2433
   51MOL0     C 6775   2.258   5.944   0.480 -0.6811  0.0212  0.2924
   51MOL0     C 6776   2.296   5.970   0.614  0.4935  0.2271 -0.1200
   51MOL0     C 6777   2.342   6.090   0.660  0.1774 -0.2413  0.0957
   51MOL0     C 6778   2.345   6.199   0.567  0.0660  0.1926 -0.2803
   51MOL0     C 6779   2.392   6.323   0.612  0.4007  0.6467 -0.3297
   51MOL0     O 6780   2.478   6.320   0.711 -0.2257  0.2453 -0.2541
   51MOL0     C 6781   2.516   6.443   0.772 -0.7476  1.0930  0.3516
   51MOL0     C 6782   2.431   6.542   0.819  0.6496  0.8663 -0.1058
   51MOL0     C 6783   2.484   6.652   0.881 -0.5679 -0.3059 -0.6543
   51MOL0     C 6784   2.624   6.676   0.878 -0.5566 -0.5665 -0.3674
   51MOL0     O 6785   2.688   6.778   0.944 -0.8921 -0.0968  0.0906
   51MOL0     C 6786   2.616   6.895   0.975 -0.0640 -0.8517 -0.4943
   51MOL0     C 6787   2.696   7.000   1.047  0.4164 -0.4182 -0.7588
   51MOL0     C 6788   2.607   7.130   1.057  0.2315  0.0608 -0.9174
   51MOL0     C 6789   2.684   7.244   1.114 -1.1302  0.3789 -0.4990
   51MOL0     C 6790   2.629   7.387   1.098  1.0600  0.2185  0.1991
   51MOL0     C 6791   2.608   7.439   0.957  0.6771  1.2077  0.0778
   51MOL0     C 6792   2.559   7.579   0.969  0.1797  0.0364  0.9914
   51MOL0     C 6793   2.547   7.650   0.837 -0.0354 -0.9021  0.1229
   51MOL0    Cl 6794   2.697   7.648   0.737 -0.0217  0.3352 -0.2721
   51MOL0     C 6795   2.711   6.586   0.813  0.4977 -0.2893 -0.3933
   51MOL0     C 6796   2.653   6.459   0.769 -0.0830  0.2855  0.6266
   51MOL0     O 6797   2.351   6.423   0.550 -0.0533  0.7497  0.4842
   51MOL0     C 6798   2.304   6.187   0.437 -0.4108  0.4017 -0.3514
   51MOL0     C 6799   2.265   6.058   0.395  0.2833  0.1199  0.0971
   51MOL0     N 6800   2.421   5.284   0.616  0.5735  0.4995  0.6215
   51MOL0     N 6801   2.366   5.174   0.607  0.4348  0.5234 -0.0326
   51MOL0     C 6802   1.385   5.232   0.223 -0.0346  0.3732 -0.4631
   51MOL0     C 6803   1.263   5.282   0.257  0.1962 -0.3152 -0.0825
   51MOL0     C 6804   0.785   5.331   0.238  0.3294  1.0912 -0.7882
   51MOL0     C 6805   0.660   5.328   0.181  0.2441 -0.4797  0.1393
   51MOL0     C 6806   0.548   5.384   0.225 -0.1702 -0.6947 -0.4012
   51MOL0     C 6807   0.546   5.440   0.352 -1.0689  0.3072  0.3775
   51MOL0     O 6808   0.442   5.499   0.414 -0.2348  0.6483 -0.5231
   51MOL0     C 6809   0.321   5.529   0.348 -0.4052 -0.5343 -0.0076
   51MOL0     C 6810   0.224   5.412   0.339  0.2930 -0.0407  0.8490
   51MOL0     C 6811   0.073   5.452   0.323 -0.8331 -0.5264 -0.3729
   51MOL0     C 6812   0.054   5.476   0.175 -0.2400 -0.6436  0.1723
   51MOL0     C 6813   0.066   5.352   0.095  0.7492  0.3058 -0.2456
   51MOL0     C 6814   0.055   5.237   0.047 -0.1165  0.0710  0.4209
   51MOL0     C 6815   0.672   5.444   0.421  0.9548  0.9494 -0.8454
   51MOL0     C 6816   0.790   5.395   0.362 -0.5873  0.2331 -0.4229
   51MOL0     C 6817   0.915   5.411   0.450 -0.5478 -0.2359 -0.9988
   51MOL0     H 6818   1.105   5.211  -0.039  1.8276 -0.2778 -2.2382
   51MOL0     H 6819   1.312   5.137  -0.099  1.3546 -1.5123  0.1390
   51MOL0     H 6820   1.724   5.179   0.060  0.4805  0.1134  0.9045
   51MOL0     H 6821   1.662   5.208   0.224 -1.0842 -0.6247  0.3831
   51MOL0     H 6822   1.742   4.969   0.077 -0.3248  1.6133 -1.7973
   51MOL0     H 6823   1.640   4.940   0.220  1.4734 -0.7546  0.0472
   51MOL0     H 6824   1.812   5.050   0.368  0.5379 -0.8419  0.3089
   51MOL0     H 6825   1.899   5.093   0.215  1.7352 -1.8447 -1.7917
   51MOL0     H 6826   1.843   4.827   0.354 -0.2958 -3.1499 -1.7359
   51MOL0     H 6827   1.926   4.825   0.202 -2.3662  1.6213 -1.0977
   51MOL0     H 6828   2.030   4.948   0.455  0.3945 -1.0720  0.6333
   51MOL0     H 6829   2.076   4.799   0.366  1.5917  0.9372  3.3905
   51MOL0     H 6830   2.125   4.979   0.178 -0.3440  1.4184  0.6096
   51MOL0     H 6831   2.119   5.093   0.313  0.4316  0.4754  0.0121
   51MOL0     H 6832   2.340   5.030   0.251  0.2216  0.5233  0.5279
   51MOL0     H 6833   2.290   4.858   0.294  0.6705  0.4988 -1.2295
   51MOL0     H 6834   2.266   4.940   0.526 -1.5825  0.4521 -0.5510
   51MOL0     H 6835   2.429   4.936   0.463  2.2818  2.0046  1.5557
   51MOL0     H 6836   2.501   5.206   0.308 -2.0557 -0.2388 -0.1562
   51MOL0     H 6837   2.564   5.481   0.587  1.3634 -2.9546  0.2740
   51MOL0     H 6838   2.662   5.424   0.459  0.3853 -1.3993  2.8788
   51MOL0     H 6839   2.577   5.613   0.368  0.8606 -0.7131 -0.0396
   51MOL0     H 6840   2.451   5.502   0.308 -0.8833  2.2590 -1.3778
   51MOL0     H 6841   2.450   5.678   0.574  0.3669  0.1544  0.6357
   51MOL0     H 6842   2.315   5.577   0.536 -1.7885  3.7379  1.1632
   51MOL0     H 6843   2.318   5.700   0.298  1.7405 -0.1832  0.3485
   51MOL0     H 6844   2.423   5.804   0.389 -1.3153  0.3637  0.7766
   51MOL0     H 6845   2.302   5.886   0.683  1.2824  3.5325  4.3328
   51MOL0     H 6846   2.373   6.109   0.762  0.5037  2.0102 -0.3739
   51MOL0     H 6847   2.327   6.522   0.799  1.1057  0.3694 -2.1858
   51MOL0     H 6848   2.413   6.727   0.915 -2.4200 -2.3152  0.1682
   51MOL0     H 6849   2.575   6.946   0.887 -0.5602  1.0318  0.7718
   51MOL0     H 6850   2.533   6.858   1.036  0.2883 -0.2670  0.3544
   51MOL0     H 6851   2.725   6.972   1.149 -0.6245 -1.5309 -0.7440
   51MOL0     H 6852   2.785   7.015   0.984  1.3692 -0.8735  0.4286
   51MOL0     H 6853   2.571   7.151   0.956 -5.3284 -2.3719  0.1530
   51MOL0     H 6854   2.517   7.106   1.115  0.5249 -1.0631 -0.9023
   51MOL0     H 6855   2.781   7.245   1.063 -1.9438  4.7886 -2.4471
   51MOL0     H 6856   2.688   7.218   1.220 -4.3921 -1.6534 -0.7227
   51MOL0     H 6857   2.697   7.449   1.157  0.2351 -0.7619  2.2885
   51MOL0     H 6858   2.538   7.404   1.156  1.7565 -1.4073  1.8830
   51MOL0     H 6859   2.705   7.433   0.907  0.8333  2.3479  0.2197
   51MOL0     H 6860   2.531   7.379   0.907  0.1348  1.9670 -0.0342
   51MOL0     H 6861   2.631   7.636   1.029 -3.4652  1.0695  4.8723
   51MOL0     H 6862   2.460   7.589   1.014  1.1349  2.3342  2.8306
   51MOL0     H 6863   2.465   7.602   0.782  2.0443 -2.1569 -2.0515
   51MOL0     H 6864   2.526   7.757   0.850 -1.8995 -0.5480 -4.1346
   51MOL0     H 6865   2.816   6.614   0.814  0.0149  1.8407  2.6914
   51MOL0     H 6866   2.711   6.374   0.735 -2.7717 -1.3583 -0.1685
   51MOL0     H 6867   2.291   6.268   0.366  3.3331  1.5562  0.0829
   51MOL0     H 6868   2.248   6.041   0.289 -1.0471  3.2150 -0.2872
   51MOL0     H 6869   1.462   5.236   0.299 -0.4530 -1.9993  0.1987
   51MOL0     H 6870   1.246   5.315   0.359 -0.4984 -0.3685 -0.1784
   51MOL0     H 6871   0.640   5.278   0.087 -2.1644  2.5740 -1.1606
   51MOL0     H 6872   0.456   5.373   0.168 -0.7766 -1.5560  0.6856
   51MOL0     H 6873   0.343   5.587   0.258 -2.8804  0.7038  0.0903
   51MOL0     H 6874   0.265   5.594   0.416  0.4228  1.4527 -1.1477
   51MOL0     H 6875   0.240   5.342   0.421 -1.1426 -2.2973 -0.6953
   51MOL0     H 6876   0.260   5.348   0.258 -0.3199 -1.1592  1.4448
   51MOL0     H 6877   0.055   5.542   0.382  0.4102  0.1388 -0.9558
   51MOL0     H 6878   0.001   5.384   0.369 -0.9965 -0.8155 -1.0468
   51MOL0     H 6879  -0.048   5.516   0.173  0.5759  1.5737 -0.3858
   51MOL0     H 6880   0.122   5.547   0.127  0.2793 -1.3702 -0.1771
   51MOL0     H 6881   0.048   5.142  -0.002 -0.5722  2.2284 -4.3509
   51MOL0     H 6882   0.667   5.496   0.516 -4.2502 -1.0082  0.2720
   51MOL0     H 6883   0.953   5.317   0.490 -0.2069  0.0356 -0.6756
   51MOL0     H 6884   0.997   5.452   0.390 -0.6796  1.8186  0.1370
   51MOL0     H 6885   0.891   5.475   0.535 -1.5511 -1.6998 -0.1422
   52MOL0     O 6886   7.987   9.600   1.424 -0.4574  0.3231 -0.1190
   52MOL0     C 6887   7.965   9.594   1.304  0.6335  0.3581  1.1382
   52MOL0     O 6888   8.064   9.621   1.208  0.9743 -0.7498  0.8085
   52MOL0     C 6889   8.176   9.687   1.255 -0.0835  0.8631  0.2069
   52MOL0     C 6890   8.282   9.614   1.307 -0.0034 -0.2665 -0.0939
   52MOL0     C 6891   8.398   9.680   1.361  0.3328 -0.4606  0.6021
   52MOL0     C 6892   8.415   9.815   1.337  0.3417  0.8886  0.4313
   52MOL0     O 6893   8.523   9.873   1.396  0.1071  0.6508 -0.4362
   52MOL0     C 6894   8.617   9.957   1.330  0.2915  0.0116 -0.2745
   52MOL0     C 6895   8.742   9.871   1.284 -0.0458 -0.8252 -0.1581
   52MOL0     C 6896   8.874   9.937   1.276  0.5214 -0.1070  0.6699
   52MOL0     C 6897   8.913   9.986   1.415  1.1331  0.3426  0.2389
   52MOL0     C 6898   9.066   9.969   1.443  0.5076 -0.1273  0.6837
   52MOL0     C 6899   9.160  10.075   1.381  1.1525  0.6867 -0.0077
   52MOL0     C 6900   9.293  10.076   1.452 -1.1421  0.1954  0.5932
   52MOL0     C 6901   9.360   9.940   1.430  1.1655  0.7314 -0.5393
   52MOL0     N 6902   9.506   9.939   1.453  0.1676 -0.8186 -1.1360
   52MOL0     C 6903   9.563   9.968   1.576  1.6009 -0.1020  0.4858
   52MOL0     C 6904   9.696   9.960   1.547 -0.3286  0.6523  0.4649
   52MOL0     C 6905   9.798   9.967   1.660  0.4974 -0.1454 -0.2183
   52MOL0     C 6906   9.927   9.936   1.591 -0.5874  0.1552 -0.4699
   52MOL0     C 6907  10.046   9.943   1.688  1.6277  0.0571  0.3737
   52MOL0     C 6908  10.177   9.902   1.623  0.5365  0.9908  0.1191
   52MOL0     O 6909  10.215   9.987   1.519  0.0086  0.5640 -0.1677
   52MOL0     C 6910  10.334   9.966   1.448 -1.0960  0.1789 -1.0723
   52MOL0     C 6911  10.363  10.033   1.326  0.4293 -0.4778 -0.4260
   52MOL0     C 6912  10.477  10.018   1.247  0.2946 -0.1163 -1.1622
   52MOL0     C 6913  10.584   9.935   1.294  0.5231 -0.0822  0.0559
   52MOL0     C 6914  10.721   9.936   1.238 -0.8730  0.0395 -0.7156
   52MOL0     O 6915  10.744  10.020   1.136 -0.0902 -0.0112  0.3863
   52MOL0     C 6916  10.849  10.014   1.049  0.1379  0.0737  1.1866
   52MOL0     C 6917  10.921   9.893   1.006  0.0806 -0.2573 -0.1811
   52MOL0     C 6918  11.027   9.898   0.916  0.5559  0.1316 -0.4971
   52MOL0     C 6919  11.061  10.011   0.844  0.5190 -0.4566 -0.4584
   52MOL0     O 6920  11.165  10.025   0.745  0.4003  0.0265 -0.2583
   52MOL0     C 6921  11.217   9.909   0.686  0.2603 -0.4547 -0.3139
   52MOL0     C 6922  11.332   9.840   0.766 -0.0842 -0.0081  0.7843
   52MOL0     C 6923  11.422   9.741   0.695 -0.0445 -0.4111 -0.0578
   52MOL0     C 6924  11.358   9.602   0.698  0.2027 -0.4560 -0.3124
   52MOL0     C 6925  11.436   9.527   0.593  0.3075  0.6387  0.3334
   52MOL0     C 6926  11.387   9.380   0.584 -0.1913  0.5860 -0.2794
   52MOL0     C 6927  11.414   9.293   0.708  0.3719  0.4364 -0.0648
   52MOL0     C 6928  11.380   9.146   0.681 -0.3199  0.3006 -0.0551
   52MOL0    Cl 6929  11.474   9.080   0.545  0.4061 -0.1777  0.3395
   52MOL0     C 6930  11.006  10.128   0.896  1.0687  0.1029  0.3572
   52MOL0     C 6931  10.902  10.128   0.995  0.4977 -0.4939 -0.5317
   52MOL0     O 6932  10.799   9.855   1.293  1.0087 -0.6845 -0.1754
   52MOL0     C 6933  10.553   9.875   1.420 -0.0730 -0.1349 -0.2237
   52MOL0     C 6934  10.440   9.888   1.497 -0.2984 -1.0904 -0.5152
   52MOL0     N 6935   9.721   9.924   1.420  0.0845 -0.0892  0.2356
   52MOL0     N 6936   9.609   9.913   1.363 -0.4260  0.2960  1.0032
   52MOL0     C 6937   8.314   9.890   1.270 -0.3616  0.7887  1.1001
   52MOL0     C 6938   8.198   9.823   1.231 -0.1870  0.1681  0.8818
   52MOL0     C 6939   7.831   9.561   1.244  0.1178 -0.6617  0.3069
   52MOL0     C 6940   7.821   9.599   1.105 -0.3434  0.5589 -0.2729
   52MOL0     C 6941   7.696   9.590   1.042  0.1233  0.5130 -0.0507
   52MOL0     C 6942   7.586   9.529   1.091  0.2229  0.0529 -0.6120
   52MOL0     O 6943   7.472   9.501   1.023 -0.4585 -0.0001  0.1304
   52MOL0     C 6944   7.483   9.440   0.892  0.6806  0.3606 -0.5995
   52MOL0     C 6945   7.589   9.326   0.873  0.5260 -0.3415  0.7892
   52MOL0     C 6946   7.587   9.296   0.717  1.0031  1.1270  0.5648
   52MOL0     C 6947   7.465   9.240   0.643  1.0369  0.7028  0.2184
   52MOL0     C 6948   7.510   9.221   0.505  0.2537 -0.4362 -0.3272
   52MOL0     C 6949   7.544   9.206   0.390  0.3534 -0.4176  0.4511
   52MOL0     C 6950   7.599   9.489   1.220  0.3086  0.8565 -0.0947
   52MOL0     C 6951   7.711   9.506   1.300  0.5692 -0.2863  1.0983
   52MOL0     C 6952   7.682   9.489   1.449 -0.2794 -0.1785  0.4287
   52MOL0     H 6953   8.262   9.509   1.328 -0.3947  0.0037  0.9444
   52MOL0     H 6954   8.486   9.625   1.395  0.3652 -0.4553  0.5266
   52MOL0     H 6955   8.574  10.020   1.251 -0.8710  0.1598  0.4522
   52MOL0     H 6956   8.657  10.024   1.406  0.6727  2.4485 -2.4761
   52MOL0     H 6957   8.712   9.831   1.186  2.0023 -2.6614 -0.1053
   52MOL0     H 6958   8.753   9.779   1.341  3.4207 -0.2102  0.3987
   52MOL0     H 6959   8.859  10.029   1.218 -0.2463  1.8268  3.6882
   52MOL0     H 6960   8.942   9.864   1.230 -1.8168 -1.2374 -1.1984
   52MOL0     H 6961   8.891  10.093   1.425  1.6495  0.6479 -1.5150
   52MOL0     H 6962   8.866   9.924   1.492  3.0805  0.2231  1.3805
   52MOL0     H 6963   9.087   9.971   1.551 -0.6591 -0.2424  0.9286
   52MOL0     H 6964   9.096   9.868   1.414 -1.8381  0.0347 -2.8553
   52MOL0     H 6965   9.167  10.048   1.275  2.1766 -1.8948  0.6339
   52MOL0     H 6966   9.125  10.175   1.406  2.4391  1.1968 -0.1991
   52MOL0     H 6967   9.281  10.098   1.559  0.1572  1.5716  0.4973
   52MOL0     H 6968   9.354  10.155   1.406 -0.9358  0.6475  1.6076
   52MOL0     H 6969   9.307   9.868   1.492  1.3513  2.8190  2.2848
   52MOL0     H 6970   9.352   9.908   1.326 -0.0306 -2.0815  0.3228
   52MOL0     H 6971   9.511   9.973   1.671  2.1516 -0.9987  0.8475
   52MOL0     H 6972   9.796  10.063   1.714  1.6840  2.7305 -4.7159
   52MOL0     H 6973   9.777   9.888   1.732 -0.9624 -1.2218 -1.7448
   52MOL0     H 6974   9.918   9.833   1.556 -0.2720 -1.0227  2.5864
   52MOL0     H 6975   9.957  10.001   1.508  0.4838 -1.4774 -1.4166
   52MOL0     H 6976  10.032   9.883   1.778 -1.7187  1.1063  0.6915
   52MOL0     H 6977  10.052  10.044   1.731 -1.6436  0.9406 -0.9997
   52MOL0     H 6978  10.167   9.801   1.581  1.7160  1.3025 -0.9622
   52MOL0     H 6979  10.244   9.897   1.709 -1.0500 -2.5820  1.3892
   52MOL0     H 6980  10.277  10.091   1.293  1.4957  1.6975  0.4278
   52MOL0     H 6981  10.498  10.076   1.158  1.7820  3.1832  1.1448
   52MOL0     H 6982  10.892   9.795   1.044  1.3407 -0.8868 -0.7673
   52MOL0     H 6983  11.070   9.803   0.883  1.9025  1.1973 -1.9956
   52MOL0     H 6984  11.135   9.839   0.675  1.1380 -1.3323 -1.5460
   52MOL0     H 6985  11.245   9.951   0.589  0.0458  2.3021  0.7391
   52MOL0     H 6986  11.400   9.918   0.802  0.7811 -0.3407 -0.0864
   52MOL0     H 6987  11.303   9.792   0.860  2.8895 -2.4157  0.6036
   52MOL0     H 6988  11.438   9.768   0.590  0.8578  0.2781  0.2405
   52MOL0     H 6989  11.518   9.737   0.746  0.8773  1.1445 -1.5739
   52MOL0     H 6990  11.253   9.614   0.670 -0.3662 -1.5715  1.2355
   52MOL0     H 6991  11.357   9.558   0.798  0.1972 -2.7015 -1.2255
   52MOL0     H 6992  11.539   9.522   0.631  0.9260 -0.2116 -1.3482
   52MOL0     H 6993  11.441   9.568   0.492  0.1112 -2.8527 -1.2356
   52MOL0     H 6994  11.279   9.374   0.569 -0.4369  0.3217  1.4359
   52MOL0     H 6995  11.436   9.332   0.498 -2.1044 -0.6480 -0.7332
   52MOL0     H 6996  11.361   9.324   0.799  1.1020 -1.5598  1.1075
   52MOL0     H 6997  11.519   9.307   0.732  0.4836  1.1949 -0.9657
   52MOL0     H 6998  11.396   9.084   0.770 -2.8401 -1.0433 -0.4254
   52MOL0     H 6999  11.273   9.140   0.657 -0.4337  0.9077  0.2926
   52MOL0     H 7000  11.048  10.218   0.853  1.7662 -0.4460 -0.1392
   52MOL0     H 7001  10.867  10.222   1.035  0.9064 -1.4403  2.3033
   52MOL0     H 7002  10.630   9.808   1.457 -1.1377 -1.8437 -0.9823
   52MOL0     H 7003  10.435   9.840   1.594 -1.3094 -0.4989 -0.2536
   52MOL0     H 7004   8.338   9.994   1.249 -1.0521  1.3331  2.8215
   52MOL0     H 7005   8.119   9.874   1.178 -0.4538 -0.9895  0.1134
   52MOL0     H 7006   7.892   9.659   1.049 -1.4722  1.4301 -0.8104
   52MOL0     H 7007   7.689   9.635   0.943 -0.0162  0.5902 -0.0066
   52MOL0     H 7008   7.504   9.523   0.823 -2.6473  2.2522  0.4142
   52MOL0     H 7009   7.383   9.397   0.877 -0.5320  2.1528  1.6595
   52MOL0     H 7010   7.564   9.235   0.927  2.3680 -1.1427  0.3440
   52MOL0     H 7011   7.684   9.367   0.908 -0.3297  1.4515  1.1382
   52MOL0     H 7012   7.662   9.218   0.701 -1.6851 -1.8506  1.4869
   52MOL0     H 7013   7.621   9.387   0.668 -0.5563  0.6663 -1.5120
   52MOL0     H 7014   7.428   9.152   0.696 -1.9935  2.3298  1.0376
   52MOL0     H 7015   7.387   9.316   0.646  0.8457  0.6309 -1.8298
   52MOL0     H 7016   7.577   9.191   0.289 -0.9295  0.6607 -0.1591
   52MOL0     H 7017   7.522   9.424   1.262  0.6294  1.7433  1.9931
   52MOL0     H 7018   7.607   9.563   1.477 -3.5876 -2.6900 -1.1055
   52MOL0     H 7019   7.632   9.395   1.474 -0.8875 -0.3038 -1.1327
   52MOL0     H 7020   7.774   9.493   1.508 -0.6331  1.0282  0.9309
   53MOL0     O 7021  10.969   0.312   0.582 -0.6870  0.1145  0.5155
   53MOL0     C 7022  10.879   0.398   0.583 -0.3348 -0.8466  0.6505
   53MOL0     O 7023  10.893   0.528   0.638 -0.0469 -0.0001  0.7149
   53MOL0     C 7024  10.998   0.580   0.705 -0.1538 -0.6295  0.9215
   53MOL0     C 7025  11.104   0.509   0.757 -0.5056  0.4156 -0.9003
   53MOL0     C 7026  11.195   0.578   0.842  0.2268  0.5967 -0.2159
   53MOL0     C 7027  11.180   0.716   0.872 -0.2004  0.8132  0.5737
   53MOL0     O 7028  11.282   0.768   0.941 -0.3757  0.5081 -0.5904
   53MOL0     C 7029  11.294   0.908   0.970  0.7712 -0.4163 -0.2531
   53MOL0     C 7030  11.436   0.951   0.972 -0.5073 -0.6949  0.1590
   53MOL0     C 7031  11.517   0.921   0.844 -0.8105 -0.5746 -0.7976
   53MOL0     C 7032  11.654   0.989   0.829  0.7430  0.6982 -0.9634
   53MOL0     C 7033  11.692   0.988   0.686 -0.1743  0.3332  0.0736
   53MOL0     C 7034  11.840   0.992   0.655 -0.0584  0.8748  0.5551
   53MOL0     C 7035  11.919   1.087   0.740 -0.6037 -0.8090  0.0530
   53MOL0     C 7036  11.900   1.237   0.692  0.3942  0.0927 -0.4091
   53MOL0     N 7037  11.987   1.275   0.581  0.2433  0.1299 -0.4096
   53MOL0     C 7038  12.118   1.283   0.608 -0.2208 -0.9175 -0.3095
   53MOL0     C 7039  12.171   1.312   0.483  0.9111 -0.5568 -0.2947
   53MOL0     C 7040  12.319   1.337   0.456  0.1983 -0.3386 -0.0257
   53MOL0     C 7041  12.384   1.197   0.442  0.1022  0.5175 -0.5507
   53MOL0     C 7042  12.539   1.213   0.446 -0.5395 -0.6224  0.2175
   53MOL0     C 7043  12.606   1.075   0.408 -0.0310 -0.4498 -0.6201
   53MOL0     O 7044  12.608   1.016   0.540  0.8647 -0.2544 -0.0175
   53MOL0     C 7045  12.691   0.916   0.564 -0.8433 -1.0232  0.1295
   53MOL0     C 7046  12.760   0.851   0.466  0.2776 -0.1251  0.1752
   53MOL0     C 7047  12.855   0.752   0.489 -0.4792  0.8819 -0.4744
   53MOL0     C 7048  12.865   0.708   0.619  0.0144  0.0240 -0.3880
   53MOL0     C 7049  12.948   0.589   0.645 -0.2947  0.2989 -0.2498
   53MOL0     O 7050  13.007   0.527   0.539  0.3483 -0.4390  0.4730
   53MOL0     C 7051  13.056   0.406   0.556  0.1935  0.3983 -0.5183
   53MOL0     C 7052  12.990   0.282   0.525  0.8048  0.2347  0.5542
   53MOL0     C 7053  13.059   0.155   0.540 -0.6485  0.4022 -0.1302
   53MOL0     C 7054  13.190   0.158   0.600 -0.1541 -0.8594 -0.4259
   53MOL0     O 7055  13.248   0.031   0.614 -0.7897  0.3153 -0.3099
   53MOL0     C 7056  13.365   0.007   0.696  0.2740  0.0872  0.1686
   53MOL0     C 7057  13.364   0.050   0.850 -0.2884 -0.5644  0.2734
   53MOL0     C 7058  13.479   0.014   0.936 -1.0347  0.8417 -0.4603
   53MOL0     C 7059  13.474   0.076   1.073  0.0143 -0.2070 -0.6832
   53MOL0     C 7060  13.393  -0.002   1.174  0.0641  0.2111  0.2178
   53MOL0     C 7061  13.379   0.058   1.316 -1.2224 -0.3252 -0.1722
   53MOL0     C 7062  13.512   0.074   1.392  0.5322  0.0636  0.7887
   53MOL0     C 7063  13.500   0.150   1.526  0.2543 -0.0410  0.2009
   53MOL0    Cl 7064  13.659   0.188   1.592 -0.0151 -0.5810  0.3649
   53MOL0     C 7065  13.253   0.276   0.623  0.8464 -0.3769  0.3819
   53MOL0     C 7066  13.190   0.398   0.604  0.9646 -0.8177 -0.3100
   53MOL0     O 7067  12.938   0.537   0.755 -0.5170 -0.3995  0.0382
   53MOL0     C 7068  12.797   0.765   0.727  0.1034 -1.0966  0.0056
   53MOL0     C 7069  12.710   0.880   0.699  0.1878  0.2300  0.5003
   53MOL0     N 7070  12.074   1.317   0.389  0.1667 -0.4183 -0.3191
   53MOL0     N 7071  11.959   1.285   0.449 -0.1343  0.1288 -0.2512
   53MOL0     C 7072  11.078   0.782   0.814  0.5396 -0.8286  0.6584
   53MOL0     C 7073  10.985   0.720   0.729 -0.2922 -0.3366 -0.5490
   53MOL0     C 7074  10.745   0.380   0.523 -0.0090 -0.0679  0.0914
   53MOL0     C 7075  10.672   0.496   0.483 -0.6617  0.6496  1.1428
   53MOL0     C 7076  10.546   0.484   0.422  1.0185 -0.0397 -0.8980
   53MOL0     C 7077  10.490   0.358   0.410  0.5595 -0.3448 -0.3977
   53MOL0     O 7078  10.370   0.328   0.351 -0.2428  0.2339 -0.8219
   53MOL0     C 7079  10.272   0.429   0.337  0.5096 -0.1344  0.2871
   53MOL0     C 7080  10.201   0.450   0.468  0.7805  0.0627 -1.1451
   53MOL0     C 7081  10.104   0.565   0.460 -0.3666 -0.4543  0.2451
   53MOL0     C 7082  10.047   0.606   0.600 -0.1972  0.0035  0.0482
   53MOL0     C 7083   9.972   0.486   0.649 -0.3812 -0.0664  0.9764
   53MOL0     C 7084   9.903   0.392   0.688 -0.3941  0.5258  0.7404
   53MOL0     C 7085  10.562   0.246   0.454 -1.1144  0.0798 -1.0039
   53MOL0     C 7086  10.691   0.251   0.502  0.2397  0.5072 -0.0077
   53MOL0     C 7087  10.760   0.120   0.544  0.1829 -1.1221  1.0645
   53MOL0     H 7088  11.120   0.402   0.759 -2.3487  0.1148 -0.4472
   53MOL0     H 7089  11.286   0.525   0.869  0.8766 -1.0388 -4.7443
   53MOL0     H 7090  11.234   0.966   0.899  1.0478 -1.0397 -1.0189
   53MOL0     H 7091  11.256   0.930   1.070 -2.5322 -3.5998 -0.5821
   53MOL0     H 7092  11.486   0.897   1.053 -0.6234  0.0132  0.7152
   53MOL0     H 7093  11.447   1.060   0.977 -3.4603 -0.1206 -2.6601
   53MOL0     H 7094  11.453   0.956   0.762  1.8092  4.2279 -1.1667
   53MOL0     H 7095  11.521   0.812   0.834 -2.5515 -0.6842 -0.6586
   53MOL0     H 7096  11.647   1.089   0.874 -0.6060  0.5688 -0.8288
   53MOL0     H 7097  11.731   0.929   0.877 -1.0770 -0.8436  0.1571
   53MOL0     H 7098  11.650   0.893   0.652 -0.4154  0.0825  1.0251
   53MOL0     H 7099  11.639   1.073   0.641 -2.1879 -0.7026  0.3528
   53MOL0     H 7100  11.866   0.889   0.682 -0.4762  0.5350 -0.3144
   53MOL0     H 7101  11.847   1.015   0.549 -1.7229  0.1238  0.2557
   53MOL0     H 7102  12.026   1.068   0.730 -0.2395  1.2629 -0.4238
   53MOL0     H 7103  11.897   1.075   0.847 -0.1359 -0.2404  0.2236
   53MOL0     H 7104  11.798   1.265   0.664  1.2921  3.1355 -1.0013
   53MOL0     H 7105  11.932   1.294   0.780 -2.0683 -1.7831  1.8483
   53MOL0     H 7106  12.167   1.280   0.705  1.4868  1.8788 -0.9571
   53MOL0     H 7107  12.317   1.398   0.366 -5.0253 -0.1234 -0.0898
   53MOL0     H 7108  12.367   1.401   0.530  0.3641  0.9581 -1.2183
   53MOL0     H 7109  12.350   1.124   0.516  0.3625 -0.5766 -1.4811
   53MOL0     H 7110  12.352   1.167   0.342 -0.8044 -4.0995  0.8810
   53MOL0     H 7111  12.578   1.254   0.540 -1.8705 -1.5341  1.2055
   53MOL0     H 7112  12.575   1.282   0.370 -2.5702  1.3438  0.9585
   53MOL0     H 7113  12.703   1.093   0.360 -0.5880  1.9097 -0.9815
   53MOL0     H 7114  12.543   1.023   0.335 -0.7562 -0.4896  0.0228
   53MOL0     H 7115  12.738   0.878   0.364 -1.0497 -3.2609 -0.4858
   53MOL0     H 7116  12.915   0.705   0.412  0.1536  0.6074  0.1694
   53MOL0     H 7117  12.890   0.284   0.483 -0.6073  5.3305  3.2825
   53MOL0     H 7118  13.002   0.066   0.515  0.5849 -0.8249  1.2733
   53MOL0     H 7119  13.372  -0.102   0.700  0.5843  0.0990 -0.0462
   53MOL0     H 7120  13.448   0.066   0.657 -0.1444  0.1810 -0.6020
   53MOL0     H 7121  13.334   0.155   0.856 -1.0096 -0.8383  1.8392
   53MOL0     H 7122  13.279  -0.005   0.892  0.2596 -0.8942  0.9526
   53MOL0     H 7123  13.471  -0.095   0.930 -3.5537  1.0290 -4.6345
   53MOL0     H 7124  13.573   0.055   0.897 -0.7418 -0.2669 -0.9783
   53MOL0     H 7125  13.442   0.181   1.064  0.3602  0.1193  1.3049
   53MOL0     H 7126  13.573   0.085   1.118  0.1993 -0.9942 -0.9226
   53MOL0     H 7127  13.437  -0.102   1.173  0.9565  0.5306 -3.1242
   53MOL0     H 7128  13.293  -0.006   1.130 -0.5590 -1.6589  1.6823
   53MOL0     H 7129  13.335   0.158   1.318  1.8984  1.2318 -1.5154
   53MOL0     H 7130  13.314  -0.002   1.380  0.6503  1.0031  3.2543
   53MOL0     H 7131  13.589   0.115   1.327 -0.7899  1.5542  0.1069
   53MOL0     H 7132  13.545  -0.028   1.414 -1.5928 -0.4060  2.0842
   53MOL0     H 7133  13.446   0.244   1.514  2.0846  1.1507  0.9308
   53MOL0     H 7134  13.440   0.094   1.598 -0.4112  4.5079  3.5798
   53MOL0     H 7135  13.343   0.281   0.683  1.9151  0.1149 -1.1924
   53MOL0     H 7136  13.245   0.488   0.628 -0.4192  0.1508 -0.6924
   53MOL0     H 7137  12.812   0.725   0.826  0.3714 -0.1476  0.3577
   53MOL0     H 7138  12.665   0.934   0.781 -0.2907 -2.3723  2.0692
   53MOL0     H 7139  11.063   0.890   0.815 -0.6302 -0.9178 -1.6157
   53MOL0     H 7140  10.896   0.775   0.698 -0.4684  0.7424  1.6867
   53MOL0     H 7141  10.723   0.592   0.481  0.2247  0.1960 -0.8850
   53MOL0     H 7142  10.490   0.570   0.385 -1.5807 -1.1097  0.3097
   53MOL0     H 7143  10.194   0.406   0.263  1.8388  0.2578 -1.3027
   53MOL0     H 7144  10.313   0.523   0.299 -0.9388  0.1741 -0.6064
   53MOL0     H 7145  10.279   0.470   0.542  0.9360 -1.3180 -0.8979
   53MOL0     H 7146  10.146   0.360   0.497  1.1728 -0.1604 -1.0806
   53MOL0     H 7147  10.022   0.554   0.388 -0.0498  1.6358 -0.4944
   53MOL0     H 7148  10.154   0.654   0.423 -0.1819  0.1683  1.9053
   53MOL0     H 7149  10.130   0.629   0.667  1.5206 -2.2573 -1.1599
   53MOL0     H 7150   9.973   0.685   0.586 -0.2166 -0.1374 -0.7002
   53MOL0     H 7151   9.857   0.297   0.710  0.1891 -0.5776 -2.2654
   53MOL0     H 7152  10.515   0.148   0.462 -1.8472  0.5345  0.7072
   53MOL0     H 7153  10.684   0.042   0.552 -1.6442  0.6360  1.4084
   53MOL0     H 7154  10.840   0.097   0.472  0.4073 -0.3683  1.0730
   53MOL0     H 7155  10.805   0.137   0.643  0.8355 -0.3325  0.6464
   54MOL0     O 7156   6.119   1.228  10.205  0.0120  0.2110 -0.2377
   54MOL0     C 7157   6.121   1.112  10.257 -0.3395 -0.6798  0.3361
   54MOL0     O 7158   6.229   1.036  10.266 -0.3204  0.1609  0.3324
   54MOL0     C 7159   6.341   1.090  10.218 -0.6036  0.6621  0.7662
   54MOL0     C 7160   6.390   1.046  10.087 -0.3735  0.7598 -0.4263
   54MOL0     C 7161   6.516   1.085  10.038  0.2446 -0.0707  0.3299
   54MOL0     C 7162   6.599   1.153  10.121 -0.1425  0.4368  0.6905
   54MOL0     O 7163   6.720   1.178  10.069 -0.7085  0.4233  0.3100
   54MOL0     C 7164   6.830   1.095  10.129 -0.5434 -0.1680 -0.6196
   54MOL0     C 7165   6.963   1.145  10.066 -0.1804 -0.0054  0.5893
   54MOL0     C 7166   7.016   1.279  10.140  0.1844 -1.1382 -0.1149
   54MOL0     C 7167   7.131   1.337  10.062 -0.2341 -0.3745 -0.4759
   54MOL0     C 7168   7.181   1.468  10.114 -0.2496  0.0579  0.7239
   54MOL0     C 7169   7.251   1.464  10.250 -0.8342  0.2234 -0.5048
   54MOL0     C 7170   7.230   1.597  10.322 -0.6449  0.3835  0.2305
   54MOL0     C 7171   7.338   1.700  10.282  0.6117  0.4431 -0.7467
   54MOL0     N 7172   7.462   1.669  10.342 -0.5357 -0.6040  0.5520
   54MOL0     C 7173   7.498   1.699  10.469 -0.1365  0.5474  0.2038
   54MOL0     C 7174   7.630   1.666  10.476  0.0444 -0.7749 -0.4327
   54MOL0     C 7175   7.697   1.645  10.615 -0.3553  0.4875 -1.3152
   54MOL0     C 7176   7.840   1.707  10.606 -0.4509 -0.1774  0.4185
   54MOL0     C 7177   7.959   1.618  10.561 -0.6868 -0.0350  0.0226
   54MOL0     C 7178   8.000   1.509  10.670 -0.4546 -0.4648  0.5040
   54MOL0     O 7179   8.100   1.423  10.616  0.0723  0.5661 -0.6348
   54MOL0     C 7180   8.228   1.449  10.646 -0.3135 -0.2709  0.7859
   54MOL0     C 7181   8.287   1.535  10.747 -0.3164 -0.2705  0.5206
   54MOL0     C 7182   8.423   1.552  10.751 -0.6136  0.3894 -0.5261
   54MOL0     C 7183   8.513   1.484  10.674 -0.3047 -0.3235  0.8436
   54MOL0     C 7184   8.658   1.506  10.673  0.3457  0.4654  0.0281
   54MOL0     O 7185   8.732   1.438  10.577 -0.2145 -0.4021  0.2004
   54MOL0     C 7186   8.868   1.414  10.597  0.4788  0.3252  0.1848
   54MOL0     C 7187   8.941   1.424  10.717  0.1872  0.0869  0.5180
   54MOL0     C 7188   9.075   1.385  10.715 -0.2447 -1.0189 -0.4687
   54MOL0     C 7189   9.129   1.341  10.594  0.3423 -0.9142  0.0055
   54MOL0     O 7190   9.260   1.293  10.610  0.5694  0.3897  0.2104
   54MOL0     C 7191   9.344   1.332  10.507 -0.9345  0.1575  0.3909
   54MOL0     C 7192   9.487   1.301  10.540  0.4431  0.7689 -0.7365
   54MOL0     C 7193   9.591   1.340  10.433  0.1546  0.3569  0.7391
   54MOL0     C 7194   9.720   1.280  10.483  0.3991  0.3832  0.1846
   54MOL0     C 7195   9.832   1.327  10.395 -0.0872 -0.0292  0.6149
   54MOL0     C 7196   9.967   1.256  10.412 -0.1907  0.3640 -0.8410
   54MOL0     C 7197  10.034   1.255  10.556 -0.2902  0.3604  0.7318
   54MOL0     C 7198  10.098   1.383  10.600  0.0024 -0.3212  0.6530
   54MOL0    Cl 7199  10.208   1.433  10.471  0.5339  0.8505 -0.0066
   54MOL0     C 7200   9.056   1.332  10.473 -0.7189 -0.4734 -0.3575
   54MOL0     C 7201   8.925   1.376  10.479 -0.1101 -0.1687  0.5477
   54MOL0     O 7202   8.708   1.577  10.766  0.1541 -0.2703  0.6991
   54MOL0     C 7203   8.452   1.385  10.594 -0.2772  0.1309 -0.1105
   54MOL0     C 7204   8.315   1.370  10.577 -0.0756 -0.9545  0.7895
   54MOL0     N 7205   7.671   1.615  10.361  0.8448 -0.1224 -0.0879
   54MOL0     N 7206   7.572   1.620  10.277 -0.1719  0.4282 -0.1244
   54MOL0     C 7207   6.565   1.185  10.247  0.9910 -0.7862  0.4849
   54MOL0     C 7208   6.442   1.150  10.300  0.1558 -0.2148 -0.4792
   54MOL0     C 7209   6.000   1.061  10.328  0.5941 -0.2899 -0.3702
   54MOL0     C 7210   6.013   0.955  10.420  0.8960 -0.2113 -0.4507
   54MOL0     C 7211   5.914   0.901  10.498 -1.1297 -0.0600  0.4336
   54MOL0     C 7212   5.789   0.961  10.489  0.4302 -0.6041  0.3552
   54MOL0     O 7213   5.674   0.923  10.559  0.0901 -0.5789 -0.5214
   54MOL0     C 7214   5.680   0.827  10.663 -0.7141  0.2378  0.4051
   54MOL0     C 7215   5.761   0.882  10.786 -0.3124  0.3840 -0.2196
   54MOL0     C 7216   5.776   0.789  10.897  0.2709 -0.2429 -0.9747
   54MOL0     C 7217   5.858   0.668  10.870  0.1139 -0.2172  0.4201
   54MOL0     C 7218   5.762   0.566  10.818  0.5599  0.3600  0.0873
   54MOL0     C 7219   5.678   0.487  10.779  0.1959  0.7822  0.2824
   54MOL0     C 7220   5.770   1.067  10.399 -0.3347  0.8576 -0.3943
   54MOL0     C 7221   5.870   1.114  10.312 -0.2424  0.4737 -0.3848
   54MOL0     C 7222   5.825   1.231  10.216 -0.9864  0.3973  1.1848
   54MOL0     H 7223   6.324   0.984  10.026  0.6107 -0.7053 -0.0615
   54MOL0     H 7224   6.539   1.055   9.936  0.0471  0.6855  0.0597
   54MOL0     H 7225   6.835   1.106  10.238  1.2731 -0.1224 -0.6839
   54MOL0     H 7226   6.822   0.988  10.110 -0.6283 -0.3484  0.3713
   54MOL0     H 7227   6.958   1.152   9.957 -1.3785 -4.3016  0.1938
   54MOL0     H 7228   7.038   1.068  10.090  1.5421  1.1706 -0.7496
   54MOL0     H 7229   7.050   1.250  10.240  1.5158 -0.1356 -0.2378
   54MOL0     H 7230   6.933   1.350  10.151  1.8612  0.8358  0.5463
   54MOL0     H 7231   7.215   1.267  10.054  0.6400  0.7478 -1.5187
   54MOL0     H 7232   7.098   1.364   9.961 -0.3860  1.3794  0.0037
   54MOL0     H 7233   7.256   1.513  10.048  0.5671 -0.9301  0.9460
   54MOL0     H 7234   7.092   1.530  10.124  1.2436  2.4605 -0.2171
   54MOL0     H 7235   7.208   1.391  10.319 -0.4374  1.7608  1.4443
   54MOL0     H 7236   7.358   1.445  10.237 -1.2961 -1.5550 -2.2084
   54MOL0     H 7237   7.242   1.569  10.427 -0.4824 -2.2828 -0.4201
   54MOL0     H 7238   7.133   1.644  10.306  0.3641  2.9860  1.1447
   54MOL0     H 7239   7.349   1.708  10.174  2.2652 -0.4211 -0.6789
   54MOL0     H 7240   7.306   1.794  10.328  1.3202 -0.5723  2.0255
   54MOL0     H 7241   7.437   1.725  10.555  0.9040 -1.1296  1.5207
   54MOL0     H 7242   7.643   1.696  10.694  1.9127  0.1134  0.5860
   54MOL0     H 7243   7.694   1.540  10.647 -0.0882  1.3942  2.0054
   54MOL0     H 7244   7.829   1.803  10.555 -0.1625  0.3971  1.3989
   54MOL0     H 7245   7.868   1.733  10.709  2.4257 -1.0503 -0.0664
   54MOL0     H 7246   8.041   1.689  10.544 -1.0365  0.1051 -1.2010
   54MOL0     H 7247   7.943   1.573  10.462  0.5295  1.5568 -0.9573
   54MOL0     H 7248   7.910   1.447  10.679  0.5499 -1.7629  2.1180
   54MOL0     H 7249   8.025   1.561  10.762  1.7168 -0.6325  0.0638
   54MOL0     H 7250   8.226   1.586  10.821 -0.2673 -2.1348  1.9053
   54MOL0     H 7251   8.455   1.628  10.822  2.4137  0.2370 -1.5623
   54MOL0     H 7252   8.898   1.458  10.811  1.8465  0.5013  1.1669
   54MOL0     H 7253   9.128   1.371  10.809 -1.8968 -1.8854  0.3837
   54MOL0     H 7254   9.324   1.271  10.419 -3.2363  0.5945  0.5473
   54MOL0     H 7255   9.336   1.439  10.482  1.9258  0.4088  0.2558
   54MOL0     H 7256   9.496   1.357  10.634 -0.3323 -0.2264 -0.0340
   54MOL0     H 7257   9.492   1.195  10.567 -1.0172  0.2946 -2.1337
   54MOL0     H 7258   9.578   1.291  10.335 -0.2616  0.7161  0.6157
   54MOL0     H 7259   9.603   1.446  10.412  2.4051 -0.3231 -2.1368
   54MOL0     H 7260   9.712   1.172  10.468  1.1276  0.1194  1.6075
   54MOL0     H 7261   9.741   1.296  10.589  3.1789 -0.0068 -0.2444
   54MOL0     H 7262   9.844   1.433  10.422 -0.8356 -0.2160  1.7388
   54MOL0     H 7263   9.809   1.313  10.289  1.7229 -0.3106  0.2264
   54MOL0     H 7264   9.954   1.149  10.393 -0.4218 -0.6272  3.6957
   54MOL0     H 7265  10.038   1.290  10.336  1.2120 -0.3796  0.0968
   54MOL0     H 7266  10.120   1.188  10.552 -1.1117 -0.6719 -1.2777
   54MOL0     H 7267   9.959   1.221  10.627 -0.3105  1.3980  1.2248
   54MOL0     H 7268  10.023   1.462  10.608 -0.6152 -0.9078  0.7149
   54MOL0     H 7269  10.150   1.357  10.693  0.7396  0.3514  0.4397
   54MOL0     H 7270   9.097   1.302  10.377  0.8723  3.6376 -1.1566
   54MOL0     H 7271   8.863   1.387  10.391 -1.3559 -1.3455  1.2372
   54MOL0     H 7272   8.525   1.333  10.533  0.6985  2.7429 -1.3418
   54MOL0     H 7273   8.281   1.286  10.517  2.5380 -1.8114  0.3811
   54MOL0     H 7274   6.631   1.226  10.322  0.3378  1.0338  0.1369
   54MOL0     H 7275   6.423   1.180  10.403  2.4806 -0.2705  0.0366
   54MOL0     H 7276   6.114   0.918  10.427  0.8988 -0.0016  0.6870
   54MOL0     H 7277   5.936   0.820  10.567 -0.1564 -0.1645  0.0027
   54MOL0     H 7278   5.725   0.740  10.613 -1.9027  0.0027 -0.2686
   54MOL0     H 7279   5.580   0.796  10.694 -1.0847 -1.2010 -2.0261
   54MOL0     H 7280   5.714   0.976  10.815 -0.1206  0.4821 -0.2278
   54MOL0     H 7281   5.865   0.908  10.762 -0.2389  1.7382  1.4482
   54MOL0     H 7282   5.676   0.754  10.927  0.9945 -2.2364 -0.7829
   54MOL0     H 7283   5.817   0.844  10.983  0.2419  0.9767 -1.7189
   54MOL0     H 7284   5.933   0.671  10.790 -3.1150 -3.0518 -3.1167
   54MOL0     H 7285   5.911   0.627  10.957  2.6166 -0.5201 -1.1338
   54MOL0     H 7286   5.608   0.418  10.736  1.7409 -1.5167  1.2546
   54MOL0     H 7287   5.676   1.122  10.399 -0.9777 -0.0427 -3.2811
   54MOL0     H 7288   5.854   1.322  10.270  3.1487 -0.8624  1.4476
   54MOL0     H 7289   5.882   1.233  10.122 -1.4951  3.0511  0.8676
   54MOL0     H 7290   5.720   1.232  10.186 -1.2405  0.5695  2.0564
   55MOL0     O 7291   2.751   1.782   5.600 -0.2350 -0.5463  0.0788
   55MOL0     C 7292   2.721   1.898   5.583 -0.5987  0.1472 -0.8719
   55MOL0     O 7293   2.797   1.998   5.521  0.0968  0.1753 -0.0001
   55MOL0     C 7294   2.931   1.992   5.473  0.2663 -0.3707 -0.0570
   55MOL0     C 7295   3.026   1.887   5.460  0.3699  0.6774 -0.7813
   55MOL0     C 7296   3.155   1.902   5.413 -0.4303  0.0580 -0.1286
   55MOL0     C 7297   3.206   2.027   5.386  0.4637 -0.0520  0.4623
   55MOL0     O 7298   3.341   2.045   5.346  0.4536  0.3015  0.1085
   55MOL0     C 7299   3.405   2.175   5.377  0.7274  0.7293  0.0710
   55MOL0     C 7300   3.543   2.170   5.312  0.9378  0.0877  0.0664
   55MOL0     C 7301   3.620   2.288   5.365 -0.5846 -0.9033  0.6128
   55MOL0     C 7302   3.763   2.283   5.297 -0.5494 -0.3442  0.4521
   55MOL0     C 7303   3.878   2.355   5.378  0.8552  0.3215 -0.3149
   55MOL0     C 7304   3.873   2.510   5.347  0.3229 -0.6589  0.8919
   55MOL0     C 7305   3.928   2.605   5.456 -0.7079 -1.1089  0.3707
   55MOL0     C 7306   4.071   2.656   5.434  0.7226  1.0250  0.5416
   55MOL0     N 7307   4.120   2.756   5.529  0.0046 -0.0032 -0.3200
   55MOL0     C 7308   4.138   2.748   5.665 -0.3687 -0.3214  0.0215
   55MOL0     C 7309   4.158   2.871   5.718  0.2660  0.0970 -0.8392
   55MOL0     C 7310   4.181   2.923   5.854  0.3767  0.4131  1.3779
   55MOL0     C 7311   4.079   2.853   5.945 -0.3793  0.6783  0.1470
   55MOL0     C 7312   3.928   2.899   5.936 -0.0190 -0.0897 -0.1431
   55MOL0     C 7313   3.859   2.875   5.803  1.1872 -0.5456 -0.0950
   55MOL0     O 7314   3.715   2.906   5.819 -0.9200 -1.1466 -0.4970
   55MOL0     C 7315   3.637   2.898   5.710  0.1510 -0.5611  0.0423
   55MOL0     C 7316   3.499   2.918   5.724  0.5625  0.7979 -0.6425
   55MOL0     C 7317   3.410   2.893   5.618 -0.9662  0.3703  1.4757
   55MOL0     C 7318   3.452   2.862   5.491 -0.3225 -0.2984  0.2859
   55MOL0     C 7319   3.362   2.825   5.372  0.3897 -0.6871  0.4248
   55MOL0     O 7320   3.234   2.785   5.405  0.6412  0.0759  0.5464
   55MOL0     C 7321   3.149   2.739   5.311  0.6293  0.4317 -0.1284
   55MOL0     C 7322   3.123   2.602   5.304  0.4780  0.5971  0.0998
   55MOL0     C 7323   3.035   2.552   5.210  0.2093  0.2099  0.3996
   55MOL0     C 7324   2.968   2.639   5.121 -0.7264 -0.7670 -0.1230
   55MOL0     O 7325   2.869   2.600   5.032  0.1891  0.1340  0.7516
   55MOL0     C 7326   2.748   2.670   5.013  0.4688 -0.1441 -0.1614
   55MOL0     C 7327   2.639   2.614   5.117  0.1221 -0.3878  0.0999
   55MOL0     C 7328   2.510   2.696   5.126 -0.1958 -0.1949  0.1853
   55MOL0     C 7329   2.531   2.792   5.245  0.0431 -0.1198 -0.6066
   55MOL0     C 7330   2.399   2.849   5.287  0.7147 -0.0127  0.3288
   55MOL0     C 7331   2.397   2.965   5.395 -0.5295  0.5484 -0.0736
   55MOL0     C 7332   2.438   3.108   5.346 -0.1500 -0.2092 -0.0222
   55MOL0     C 7333   2.478   3.201   5.450  0.3019 -0.4436  0.6562
   55MOL0    Cl 7334   2.334   3.232   5.560 -0.2479  0.4409 -0.2180
   55MOL0     C 7335   3.003   2.775   5.125  0.3381  0.4142  0.7420
   55MOL0     C 7336   3.092   2.831   5.218  1.1720 -1.1376 -0.4158
   55MOL0     O 7337   3.414   2.808   5.261  0.0785  0.5102 -0.4561
   55MOL0     C 7338   3.595   2.850   5.480  0.0125  0.4879  0.2194
   55MOL0     C 7339   3.689   2.868   5.587  0.1039  1.1935  0.1087
   55MOL0     N 7340   4.142   2.960   5.612  0.5103  0.7932 -0.1574
   55MOL0     N 7341   4.123   2.893   5.506  0.1840 -0.5117 -0.8736
   55MOL0     C 7342   3.110   2.134   5.392 -0.2670 -0.8064  0.1200
   55MOL0     C 7343   2.977   2.120   5.428  0.2425  0.7712 -0.1799
   55MOL0     C 7344   2.585   1.934   5.613 -0.2715  0.3848 -0.3006
   55MOL0     C 7345   2.518   2.031   5.537  0.2400 -0.4617 -0.1578
   55MOL0     C 7346   2.395   2.080   5.578 -0.2170 -0.3477  0.3555
   55MOL0     C 7347   2.320   2.015   5.685  0.1356 -0.3152  0.3831
   55MOL0     O 7348   2.198   2.047   5.736 -1.1843 -0.5884 -0.4196
   55MOL0     C 7349   2.098   2.084   5.636  0.1010 -0.6741 -0.4320
   55MOL0     C 7350   1.972   2.140   5.704  0.4098 -0.6631 -0.0207
   55MOL0     C 7351   1.891   2.226   5.612 -0.4096 -0.5527  0.3758
   55MOL0     C 7352   1.765   2.287   5.675  0.7840 -0.0543  0.0465
   55MOL0     C 7353   1.800   2.415   5.746  0.3946 -0.2153 -0.1698
   55MOL0     C 7354   1.830   2.525   5.782  0.5383 -0.0482 -0.3701
   55MOL0     C 7355   2.384   1.921   5.758  0.0021  0.7454 -0.3224
   55MOL0     C 7356   2.513   1.874   5.727  0.4057  0.2690  0.3583
   55MOL0     C 7357   2.578   1.776   5.826 -0.4362 -0.8307  0.6290
   55MOL0     H 7358   2.984   1.794   5.495 -0.2397  1.5899  1.0459
   55MOL0     H 7359   3.229   1.823   5.402 -0.1124  0.5039 -1.4015
   55MOL0     H 7360   3.348   2.259   5.338 -0.9133  0.7368  2.2288
   55MOL0     H 7361   3.412   2.192   5.485  0.7996 -1.8927  0.5609
   55MOL0     H 7362   3.533   2.178   5.203  0.0839  1.5135  0.2302
   55MOL0     H 7363   3.594   2.077   5.338 -0.1369 -0.2003  1.2880
   55MOL0     H 7364   3.635   2.286   5.474 -1.1281  0.7983  0.7493
   55MOL0     H 7365   3.571   2.383   5.344  0.4404 -0.6057 -0.4986
   55MOL0     H 7366   3.788   2.176   5.295  0.8342 -0.0330  0.0182
   55MOL0     H 7367   3.756   2.323   5.196 -1.8558 -0.4153  0.5032
   55MOL0     H 7368   3.864   2.343   5.486  1.9328  0.8855 -0.1022
   55MOL0     H 7369   3.971   2.307   5.349 -0.8403 -3.4335 -0.0765
   55MOL0     H 7370   3.920   2.527   5.250 -1.0137 -1.8119 -0.0063
   55MOL0     H 7371   3.772   2.547   5.326  1.1684  1.5397  0.3542
   55MOL0     H 7372   3.918   2.559   5.555 -1.5518 -0.9216  0.3835
   55MOL0     H 7373   3.858   2.689   5.469 -0.1323 -0.7171  1.0191
   55MOL0     H 7374   4.141   2.572   5.438  3.7969  3.2572 -1.3839
   55MOL0     H 7375   4.081   2.705   5.337 -0.5462 -0.1127 -0.1862
   55MOL0     H 7376   4.156   2.662   5.729 -0.8109 -0.4514 -0.0281
   55MOL0     H 7377   4.277   2.880   5.886 -0.1516 -1.9933  0.0012
   55MOL0     H 7378   4.193   3.031   5.859 -0.1050  0.5607 -0.0665
   55MOL0     H 7379   4.074   2.748   5.915 -0.9996  0.6635  0.2928
   55MOL0     H 7380   4.104   2.846   6.051 -2.1999 -2.5037  0.4962
   55MOL0     H 7381   3.920   3.005   5.961 -2.1943  0.4520 -2.6782
   55MOL0     H 7382   3.865   2.842   6.004 -2.6330  2.5516 -0.1644
   55MOL0     H 7383   3.880   2.772   5.771  1.3144 -0.6381  0.2846
   55MOL0     H 7384   3.900   2.941   5.726 -1.6866  1.4358 -0.0606
   55MOL0     H 7385   3.458   2.940   5.821  0.9828 -2.8723  0.4948
   55MOL0     H 7386   3.304   2.913   5.632 -1.3495 -1.5647  1.5431
   55MOL0     H 7387   3.177   2.531   5.366 -0.8969 -1.5466 -1.0514
   55MOL0     H 7388   3.013   2.447   5.194  3.7109 -1.0665  2.7915
   55MOL0     H 7389   2.750   2.778   5.033 -0.3430 -0.0242 -0.6887
   55MOL0     H 7390   2.709   2.653   4.913  1.9783 -2.7364 -0.3979
   55MOL0     H 7391   2.604   2.519   5.078 -0.5375  0.5814 -1.7616
   55MOL0     H 7392   2.690   2.589   5.211  2.3403 -6.5930 -2.2701
   55MOL0     H 7393   2.490   2.749   5.033  0.3948 -2.7371 -1.4979
   55MOL0     H 7394   2.425   2.629   5.145  0.5749 -0.3065  4.0953
   55MOL0     H 7395   2.603   2.870   5.219  0.6638 -1.1763 -2.2181
   55MOL0     H 7396   2.571   2.738   5.332 -1.3420  1.1112  0.8521
   55MOL0     H 7397   2.332   2.768   5.318 -1.5546  0.7925 -2.0993
   55MOL0     H 7398   2.362   2.894   5.194  2.0677  1.7203  0.5575
   55MOL0     H 7399   2.291   2.970   5.421 -1.1848  2.1783 -2.7081
   55MOL0     H 7400   2.460   2.936   5.480  1.2002 -1.3164 -1.8622
   55MOL0     H 7401   2.357   3.156   5.289  1.5194  1.7726 -0.8485
   55MOL0     H 7402   2.526   3.093   5.284 -0.4330 -2.3532  0.0126
   55MOL0     H 7403   2.560   3.151   5.502  1.5716  1.8346  0.9699
   55MOL0     H 7404   2.523   3.295   5.416 -0.5240  0.0616  0.9389
   55MOL0     H 7405   2.953   2.839   5.054 -0.7626 -0.1214  1.0192
   55MOL0     H 7406   3.122   2.935   5.217  0.7166 -0.9826 -2.4777
   55MOL0     H 7407   3.644   2.819   5.388  0.8199  0.2185  0.7366
   55MOL0     H 7408   3.794   2.860   5.560  0.2960 -1.6307  1.2956
   55MOL0     H 7409   3.145   2.228   5.351  1.9752 -1.2645  0.8435
   55MOL0     H 7410   2.905   2.200   5.421 -1.6293 -0.7436  0.7644
   55MOL0     H 7411   2.564   2.072   5.447 -1.1492 -2.6194 -1.9613
   55MOL0     H 7412   2.358   2.163   5.518  1.5112 -2.2667 -3.7748
   55MOL0     H 7413   2.069   2.003   5.568 -0.6566 -0.3667 -0.4857
   55MOL0     H 7414   2.147   2.157   5.570 -0.8336  0.9156  0.5838
   55MOL0     H 7415   2.009   2.207   5.782  1.8993 -0.0767 -1.1726
   55MOL0     H 7416   1.922   2.056   5.753 -0.9628  2.0701  3.7750
   55MOL0     H 7417   1.872   2.164   5.524 -0.7124 -2.3684  1.6646
   55MOL0     H 7418   1.962   2.305   5.586  0.0228 -1.2974 -0.7998
   55MOL0     H 7419   1.714   2.313   5.581  1.9867  1.0039 -0.3527
   55MOL0     H 7420   1.695   2.228   5.734 -0.5984  2.7405  1.4227
   55MOL0     H 7421   1.861   2.625   5.805  3.9045 -1.1153  0.3275
   55MOL0     H 7422   2.334   1.870   5.840 -0.8892  0.3698 -1.0829
   55MOL0     H 7423   2.519   1.765   5.917 -0.0754 -2.2539  0.7165
   55MOL0     H 7424   2.569   1.673   5.790  0.2285 -0.1726 -1.5937
   55MOL0     H 7425   2.687   1.790   5.834 -0.0259  0.0220 -3.7448
   56MOL0     O 7426   8.309   0.477   7.900 -0.1408 -0.6404  0.8590
   56MOL0     C 7427   8.271   0.419   7.799  0.0761 -0.2345  1.5508
   56MOL0     O 7428   8.336   0.429   7.673 -0.1782 -0.0693  0.1585
   56MOL0     C 7429   8.458   0.502   7.663  0.4821  0.1692 -0.4110
   56MOL0     C 7430   8.556   0.456   7.579 -1.2854 -0.1020  0.1357
   56MOL0     C 7431   8.670   0.541   7.566 -0.2329 -0.2234 -0.4204
   56MOL0     C 7432   8.688   0.656   7.638  0.0420  0.5749  0.9426
   56MOL0     O 7433   8.809   0.725   7.643 -0.2231  0.2987  0.5039
   56MOL0     C 7434   8.841   0.809   7.750  0.1664 -0.6195 -0.1776
   56MOL0     C 7435   8.986   0.825   7.738  0.2777  0.1852  0.0794
   56MOL0     C 7436   9.055   0.864   7.863 -0.1063 -0.8251 -0.3221
   56MOL0     C 7437   9.206   0.843   7.871 -0.6983 -0.4366 -0.0636
   56MOL0     C 7438   9.268   0.875   8.012  0.1834  0.6245 -0.6803
   56MOL0     C 7439   9.394   0.804   8.035  0.5656  0.2043  0.3154
   56MOL0     C 7440   9.484   0.846   8.161  0.1328 -0.9584 -0.0635
   56MOL0     C 7441   9.580   0.955   8.134  0.5034  0.5419  0.2086
   56MOL0     N 7442   9.709   0.900   8.095 -0.0523  0.2830  0.0174
   56MOL0     C 7443   9.807   0.836   8.173  0.6967  0.4471 -0.0294
   56MOL0     C 7444   9.904   0.794   8.087 -0.6541  0.8935 -0.1394
   56MOL0     C 7445  10.030   0.711   8.114 -0.0683  0.3735 -0.9752
   56MOL0     C 7446  10.156   0.792   8.081 -0.0223  0.9846 -0.5157
   56MOL0     C 7447  10.286   0.718   8.127 -0.4292  0.1191  0.4861
   56MOL0     C 7448  10.410   0.780   8.064 -0.5427 -0.1952  0.1951
   56MOL0     O 7449  10.537   0.724   8.122 -0.0183 -0.6097  0.6343
   56MOL0     C 7450  10.659   0.771   8.095 -0.3337  0.6851 -0.0723
   56MOL0     C 7451  10.679   0.877   8.015  0.2328  0.4999  0.2946
   56MOL0     C 7452  10.805   0.938   8.000  0.1728  0.1401  0.6708
   56MOL0     C 7453  10.917   0.885   8.061 -0.4770  0.2623 -0.1277
   56MOL0     C 7454  11.046   0.956   8.043  0.0448  0.2673  0.1504
   56MOL0     O 7455  11.052   1.061   7.963  0.1517  0.1493  0.1372
   56MOL0     C 7456  11.162   1.138   7.974  0.0509 -0.7634  0.4321
   56MOL0     C 7457  11.277   1.111   7.903 -0.3183 -0.1942 -0.3295
   56MOL0     C 7458  11.391   1.180   7.927 -0.1627 -1.0707 -0.6144
   56MOL0     C 7459  11.400   1.294   8.019  1.1665  0.2711  0.9679
   56MOL0     O 7460  11.525   1.356   8.029 -0.5753 -0.5648  0.5572
   56MOL0     C 7461  11.537   1.448   8.137 -0.5880 -0.7045 -0.1114
   56MOL0     C 7462  11.673   1.526   8.146  0.0762  0.5277  0.4208
   56MOL0     C 7463  11.694   1.605   8.014 -0.1207 -0.4567 -0.1356
   56MOL0     C 7464  11.784   1.526   7.919 -0.9894 -0.1964 -0.7921
   56MOL0     C 7465  11.824   1.607   7.796  0.1182  1.3590 -0.4069
   56MOL0     C 7466  11.722   1.609   7.681  0.8390  1.5732  0.1325
   56MOL0     C 7467  11.657   1.470   7.669 -0.2312 -0.4914  0.1346
   56MOL0     C 7468  11.606   1.455   7.532  0.5672  0.7577  1.1175
   56MOL0    Cl 7469  11.544   1.294   7.485  0.3759 -0.1098 -0.6402
   56MOL0     C 7470  11.286   1.336   8.089  0.7530 -0.1694 -0.6795
   56MOL0     C 7471  11.168   1.253   8.061  0.1831  0.7471  0.1983
   56MOL0     O 7472  11.133   0.912   8.112 -0.2386 -0.8227  0.5152
   56MOL0     C 7473  10.894   0.770   8.145  0.3115  0.2210 -0.3020
   56MOL0     C 7474  10.765   0.707   8.153 -0.2107 -0.0471 -0.2765
   56MOL0     N 7475   9.865   0.836   7.960 -0.3143 -0.8413 -0.4179
   56MOL0     N 7476   9.755   0.897   7.961  0.2048 -0.0870  0.3860
   56MOL0     C 7477   8.583   0.703   7.708  0.0998  0.3069  0.2440
   56MOL0     C 7478   8.468   0.634   7.713  1.0831  0.2193 -1.4090
   56MOL0     C 7479   8.162   0.317   7.805  0.7742 -0.1219 -0.0492
   56MOL0     C 7480   8.177   0.191   7.744  0.1963 -0.4075  0.4518
   56MOL0     C 7481   8.091   0.082   7.765 -0.3654  0.0680 -0.4843
   56MOL0     C 7482   7.985   0.091   7.864  0.1380  0.5228 -0.1961
   56MOL0     O 7483   7.905  -0.009   7.912  0.2722 -0.6530 -0.0703
   56MOL0     C 7484   7.872  -0.114   7.819  0.3110 -0.2607 -0.2461
   56MOL0     C 7485   7.774  -0.218   7.874 -0.3210  0.0542 -0.0813
   56MOL0     C 7486   7.648  -0.148   7.919  0.0640 -0.2556 -0.2350
   56MOL0     C 7487   7.552  -0.238   7.981  0.3528  0.1295 -0.2084
   56MOL0     C 7488   7.501  -0.323   7.877 -0.1358  0.2472 -0.5226
   56MOL0     C 7489   7.442  -0.376   7.789  1.0283  0.8397 -0.2241
   56MOL0     C 7490   7.966   0.215   7.917  0.0984 -0.4701 -0.2975
   56MOL0     C 7491   8.046   0.329   7.887 -0.4934  0.2977  0.4099
   56MOL0     C 7492   8.002   0.458   7.953  0.6080  0.0240 -0.0035
   56MOL0     H 7493   8.547   0.362   7.525  2.3239 -0.8583  0.5399
   56MOL0     H 7494   8.757   0.521   7.504  0.3122 -1.0547  0.5719
   56MOL0     H 7495   8.801   0.910   7.737  2.0360  0.1868  0.0509
   56MOL0     H 7496   8.801   0.769   7.843 -0.9039  1.1739  0.1747
   56MOL0     H 7497   9.013   0.884   7.649  1.7375 -3.8397 -2.4389
   56MOL0     H 7498   9.034   0.729   7.719  2.3170  1.0589  0.5166
   56MOL0     H 7499   9.007   0.811   7.945 -0.5078 -2.5909 -1.6579
   56MOL0     H 7500   9.032   0.967   7.893 -0.6809 -1.6045  2.1449
   56MOL0     H 7501   9.221   0.740   7.839 -0.7069  0.3612 -2.8944
   56MOL0     H 7502   9.253   0.913   7.802 -2.0416  1.4249  0.8219
   56MOL0     H 7503   9.286   0.982   8.026  1.1144  0.6350 -1.8261
   56MOL0     H 7504   9.207   0.854   8.101  3.5048 -2.1205  1.2149
   56MOL0     H 7505   9.365   0.700   8.057 -0.9856  0.8242  1.3933
   56MOL0     H 7506   9.453   0.789   7.945 -3.8088 -0.7573 -2.7080
   56MOL0     H 7507   9.539   0.756   8.191 -1.2766 -2.2807 -1.2930
   56MOL0     H 7508   9.424   0.873   8.248  1.7863 -0.2159  0.8997
   56MOL0     H 7509   9.538   1.019   8.057 -1.6385 -0.6261  0.3333
   56MOL0     H 7510   9.610   1.022   8.215  0.8276  2.2439 -1.2563
   56MOL0     H 7511   9.810   0.806   8.277  3.6442  1.4029  0.2533
   56MOL0     H 7512  10.026   0.689   8.221 -2.2452 -3.0439 -1.5932
   56MOL0     H 7513  10.038   0.614   8.065  0.4480  0.1790 -0.5191
   56MOL0     H 7514  10.149   0.811   7.973 -1.7150  2.8865 -0.1458
   56MOL0     H 7515  10.156   0.883   8.142  0.7311 -0.8203  2.3467
   56MOL0     H 7516  10.275   0.615   8.092 -0.1262  0.8899 -2.0886
   56MOL0     H 7517  10.289   0.727   8.236  0.2406  0.8838  0.4124
   56MOL0     H 7518  10.404   0.886   8.090  0.0483  0.6982 -2.9036
   56MOL0     H 7519  10.410   0.771   7.955 -1.0648  0.6307  0.1211
   56MOL0     H 7520  10.595   0.932   7.973  0.4951  0.3119 -0.4949
   56MOL0     H 7521  10.796   1.027   7.939  2.1619  1.5051  2.2378
   56MOL0     H 7522  11.281   1.033   7.828 -1.7461  0.3176 -0.9655
   56MOL0     H 7523  11.477   1.136   7.877 -0.1712 -2.5686  0.6162
   56MOL0     H 7524  11.456   1.519   8.117  0.8334  0.0498 -4.0341
   56MOL0     H 7525  11.512   1.401   8.233 -0.8667 -1.2434 -0.4457
   56MOL0     H 7526  11.683   1.594   8.231  0.5767 -0.3923  1.1198
   56MOL0     H 7527  11.759   1.460   8.157  0.1409  0.0825 -2.1529
   56MOL0     H 7528  11.600   1.619   7.959  0.8195  0.5808 -1.5446
   56MOL0     H 7529  11.739   1.704   8.025  0.1727 -0.7960  2.2334
   56MOL0     H 7530  11.737   1.428   7.903 -3.0267  0.5306  0.2672
   56MOL0     H 7531  11.878   1.517   7.974 -0.5079  1.1054 -1.3772
   56MOL0     H 7532  11.909   1.552   7.754 -0.7615 -0.7366  0.4018
   56MOL0     H 7533  11.858   1.707   7.825  1.1943  0.6950  0.7307
   56MOL0     H 7534  11.642   1.683   7.695 -0.6892 -0.2709  1.8496
   56MOL0     H 7535  11.770   1.628   7.585  1.3371 -1.6733 -0.3909
   56MOL0     H 7536  11.576   1.452   7.740 -0.9222 -2.2335 -1.0412
   56MOL0     H 7537  11.731   1.391   7.686  0.1061  0.0266  1.1680
   56MOL0     H 7538  11.514   1.513   7.519  0.1805  0.1762  1.2439
   56MOL0     H 7539  11.687   1.485   7.464  1.6356  0.0769  2.0692
   56MOL0     H 7540  11.273   1.421   8.155  0.5956  1.3846 -2.6306
   56MOL0     H 7541  11.079   1.276   8.117 -1.0869  0.2011 -1.4999
   56MOL0     H 7542  10.973   0.705   8.182 -0.7540 -0.3874  1.0342
   56MOL0     H 7543  10.742   0.618   8.211  1.1170 -0.4862 -0.3864
   56MOL0     H 7544   8.598   0.791   7.770  3.8105  0.1623 -0.1928
   56MOL0     H 7545   8.383   0.680   7.762  1.2721  0.0179 -0.8853
   56MOL0     H 7546   8.263   0.188   7.676  1.1512 -3.8833  1.6147
   56MOL0     H 7547   8.103  -0.016   7.721 -1.2590 -0.1002 -0.3726
   56MOL0     H 7548   7.962  -0.168   7.790  0.8726  0.6122 -0.1919
   56MOL0     H 7549   7.837  -0.062   7.730 -1.7888 -2.1566 -0.6157
   56MOL0     H 7550   7.823  -0.276   7.953  3.6970  3.0798 -0.0179
   56MOL0     H 7551   7.746  -0.273   7.783 -0.9687  3.6841 -2.2677
   56MOL0     H 7552   7.602  -0.125   7.822  0.4568 -3.0640 -1.1736
   56MOL0     H 7553   7.675  -0.062   7.980  0.8509 -0.6011 -0.0952
   56MOL0     H 7554   7.600  -0.283   8.068 -0.0896 -0.9337 -0.4999
   56MOL0     H 7555   7.471  -0.189   8.035 -0.3110 -1.1508 -0.0205
   56MOL0     H 7556   7.378  -0.402   7.707  0.9361 -1.1554  0.4051
   56MOL0     H 7557   7.889   0.226   7.992 -0.2206 -1.9763 -0.3780
   56MOL0     H 7558   8.057   0.472   8.047  0.1289  0.5683  0.2046
   56MOL0     H 7559   8.013   0.537   7.878  0.0217 -0.0043 -0.1248
   56MOL0     H 7560   7.899   0.454   7.987  1.0975 -2.0897  1.3914
   57MOL0     O 7561   7.709   3.818  11.173  0.2507 -0.8000 -0.4431
   57MOL0     C 7562   7.699   3.778  11.293  0.2604  0.0333 -0.0349
   57MOL0     O 7563   7.760   3.672  11.345  0.3989 -0.3283  0.5695
   57MOL0     C 7564   7.824   3.587  11.266 -0.5318  0.3692 -0.4288
   57MOL0     C 7565   7.940   3.633  11.200  0.5304 -0.1501  0.4782
   57MOL0     C 7566   8.008   3.544  11.125  0.5938  0.3597  1.1520
   57MOL0     C 7567   7.971   3.416  11.105  0.0079  0.4097  1.2939
   57MOL0     O 7568   8.043   3.326  11.019  0.2212 -0.2775  0.3334
   57MOL0     C 7569   8.103   3.212  11.077 -0.0605  0.6128  0.1977
   57MOL0     C 7570   8.004   3.096  11.101 -0.2437 -1.1200 -0.1582
   57MOL0     C 7571   8.081   2.961  11.132  0.1253 -0.1620  0.9384
   57MOL0     C 7572   8.124   2.939  11.277  1.3990  0.4062  0.5091
   57MOL0     C 7573   8.130   2.792  11.305  0.7884 -0.4417  0.2137
   57MOL0     C 7574   8.181   2.760  11.445  0.4089 -1.1283 -0.7799
   57MOL0     C 7575   8.085   2.818  11.552 -0.3200  0.4195 -0.1687
   57MOL0     C 7576   8.136   2.801  11.694  0.9628 -0.1804  0.2965
   57MOL0     N 7577   8.255   2.878  11.726  0.6389  0.2952  0.2411
   57MOL0     C 7578   8.272   3.016  11.701  0.1767  0.2695 -1.3576
   57MOL0     C 7579   8.378   3.055  11.771  1.2154 -0.2318 -0.6589
   57MOL0     C 7580   8.438   3.191  11.772  0.4514 -1.0901  1.2265
   57MOL0     C 7581   8.580   3.179  11.712  0.0987  0.0364 -0.1386
   57MOL0     C 7582   8.657   3.311  11.717 -0.0770 -1.1447  0.7346
   57MOL0     C 7583   8.803   3.282  11.680 -0.3418  0.5628 -0.2711
   57MOL0     O 7584   8.819   3.226  11.552 -0.0229 -0.4615  0.8378
   57MOL0     C 7585   8.925   3.150  11.521  0.1601  0.8810  0.0792
   57MOL0     C 7586   9.059   3.163  11.569  0.5070 -0.4448 -0.0848
   57MOL0     C 7587   9.156   3.085  11.508 -0.0838  0.1513 -0.6447
   57MOL0     C 7588   9.136   3.005  11.394 -0.6285  0.3602 -0.2411
   57MOL0     C 7589   9.254   2.949  11.321 -0.3939 -0.8001  0.5063
   57MOL0     O 7590   9.383   2.965  11.364 -1.0041 -0.5747 -0.7396
   57MOL0     C 7591   9.483   2.945  11.270 -0.1747  0.7156 -0.6348
   57MOL0     C 7592   9.474   3.008  11.144 -0.0792 -0.6134 -0.3794
   57MOL0     C 7593   9.576   2.995  11.046 -0.3892 -0.4720 -0.5359
   57MOL0     C 7594   9.694   2.923  11.083 -0.0468  0.2489 -0.5258
   57MOL0     O 7595   9.784   2.889  10.992 -0.4670 -0.5682 -0.5315
   57MOL0     C 7596   9.860   2.990  10.923  0.6423  0.5222  1.6811
   57MOL0     C 7597   9.929   3.088  11.014 -0.0945 -0.3600  0.2251
   57MOL0     C 7598  10.047   3.161  10.949  0.2935 -0.1821  0.7291
   57MOL0     C 7599  10.108   3.253  11.058  0.6511  0.7436 -0.1094
   57MOL0     C 7600  10.203   3.348  10.982  0.4520  0.3652  0.2641
   57MOL0     C 7601  10.302   3.432  11.076  0.4568 -0.0677  0.5007
   57MOL0     C 7602  10.397   3.340  11.148 -0.1136  0.2871 -0.0131
   57MOL0     C 7603  10.491   3.431  11.228 -0.3907  0.4921 -1.1300
   57MOL0    Cl 7604  10.637   3.348  11.300 -0.0209  0.0027  0.1233
   57MOL0     C 7605   9.712   2.863  11.204 -0.0230  0.4663 -0.5491
   57MOL0     C 7606   9.607   2.883  11.295 -0.2666  0.3002 -0.2066
   57MOL0     O 7607   9.222   2.896  11.212 -0.5003 -0.1261  0.2611
   57MOL0     C 7608   9.003   2.976  11.361 -0.0881  0.7981 -0.2160
   57MOL0     C 7609   8.896   3.048  11.424  0.4100 -0.3977 -0.2710
   57MOL0     N 7610   8.423   2.947  11.838  0.5668 -0.1148 -0.4583
   57MOL0     N 7611   8.345   2.847  11.825  0.1469  0.6258 -0.6015
   57MOL0     C 7612   7.846   3.380  11.155 -0.3626 -0.3501  0.4190
   57MOL0     C 7613   7.780   3.462  11.240  0.4843  0.1433 -0.0754
   57MOL0     C 7614   7.623   3.856  11.381 -0.3848  0.2717 -0.2952
   57MOL0     C 7615   7.485   3.848  11.377 -0.3436  0.5485 -0.4875
   57MOL0     C 7616   7.414   3.888  11.492  0.0540 -0.4983 -1.3725
   57MOL0     C 7617   7.479   3.957  11.603  0.6506  0.9898 -0.4856
   57MOL0     O 7618   7.419   3.978  11.723  1.0694 -0.3479  0.1974
   57MOL0     C 7619   7.296   4.056  11.737  0.7302  0.3782  0.0204
   57MOL0     C 7620   7.325   4.206  11.720 -0.0507 -0.6542 -0.1563
   57MOL0     C 7621   7.344   4.279  11.850  0.0737 -0.2449 -0.2680
   57MOL0     C 7622   7.481   4.237  11.924  0.6979  0.3841  0.0168
   57MOL0     C 7623   7.602   4.277  11.854 -0.0746 -0.1217  0.5170
   57MOL0     C 7624   7.695   4.300  11.789 -0.0807 -1.0410  0.1723
   57MOL0     C 7625   7.609   3.988  11.591  0.3394 -0.1702 -0.5083
   57MOL0     C 7626   7.686   3.927  11.490  0.4469  0.2758  0.3798
   57MOL0     C 7627   7.836   3.936  11.495  0.6463 -0.1429  0.0327
   57MOL0     H 7628   7.971   3.736  11.216 -0.3466  0.3301 -0.8316
   57MOL0     H 7629   8.098   3.575  11.074 -0.6410  3.8928  0.8468
   57MOL0     H 7630   8.165   3.187  10.990 -3.6839  2.8735 -3.3465
   57MOL0     H 7631   8.152   3.248  11.168 -0.2446  0.9674  0.1548
   57MOL0     H 7632   7.944   3.086  11.010 -1.0981  0.8771  0.1170
   57MOL0     H 7633   7.929   3.122  11.176  0.5496  1.9494 -0.2637
   57MOL0     H 7634   8.171   2.963  11.071  1.8383  0.5539  3.3630
   57MOL0     H 7635   8.008   2.881  11.112 -0.3104 -0.3609  3.1274
   57MOL0     H 7636   8.221   2.984  11.299  3.7268 -4.1899  0.8849
   57MOL0     H 7637   8.053   2.988  11.344  0.8215  0.8793 -0.4207
   57MOL0     H 7638   8.030   2.750  11.292  0.9791 -0.7274 -0.3067
   57MOL0     H 7639   8.192   2.750  11.226 -1.4527  1.7323 -2.9427
   57MOL0     H 7640   8.178   2.651  11.449 -1.3060 -1.1611 -2.0591
   57MOL0     H 7641   8.279   2.802  11.468  1.1296 -3.3345  0.4821
   57MOL0     H 7642   7.987   2.770  11.536  0.4957 -1.2839 -0.2696
   57MOL0     H 7643   8.069   2.926  11.540 -5.1332 -0.2301 -2.2402
   57MOL0     H 7644   8.056   2.837  11.760  1.5640 -1.1793  1.6196
   57MOL0     H 7645   8.156   2.695  11.714  0.5702 -0.0684  1.3617
   57MOL0     H 7646   8.208   3.069  11.632 -1.5613 -2.3018 -1.8872
   57MOL0     H 7647   8.392   3.265  11.705  0.3747 -0.2142  2.2226
   57MOL0     H 7648   8.442   3.237  11.871 -1.5073  2.3469 -0.1320
   57MOL0     H 7649   8.637   3.104  11.768 -0.2299 -0.2161 -0.1388
   57MOL0     H 7650   8.572   3.152  11.606  2.5310  0.2842 -0.4503
   57MOL0     H 7651   8.655   3.351  11.819 -0.2259 -3.1301  1.5546
   57MOL0     H 7652   8.621   3.386  11.646  2.0280 -1.8769 -1.2448
   57MOL0     H 7653   8.836   3.209  11.754  1.2164  1.6225  0.1474
   57MOL0     H 7654   8.871   3.368  11.683  0.5836 -0.1527 -0.4505
   57MOL0     H 7655   9.084   3.239  11.642 -0.3574 -1.0785  0.8879
   57MOL0     H 7656   9.257   3.082  11.549  0.0476 -3.6189 -0.8833
   57MOL0     H 7657   9.391   3.071  11.113  0.8364 -0.2970 -2.4037
   57MOL0     H 7658   9.556   3.035  10.948 -3.3182  0.9653  0.5244
   57MOL0     H 7659   9.939   2.942  10.866  0.3796  0.8484  1.0328
   57MOL0     H 7660   9.790   3.036  10.853  2.6260  2.9948  1.1971
   57MOL0     H 7661   9.855   3.162  11.043 -2.1239 -2.4645  0.6520
   57MOL0     H 7662   9.960   3.026  11.098  0.3811 -1.6386 -0.8587
   57MOL0     H 7663  10.129   3.092  10.927 -0.2880  0.3498 -4.2113
   57MOL0     H 7664  10.013   3.217  10.861 -1.2274 -1.0562  0.7292
   57MOL0     H 7665  10.156   3.197  11.138  0.6062 -0.8522 -1.1299
   57MOL0     H 7666  10.035   3.316  11.110 -2.5738 -3.4202  1.0108
   57MOL0     H 7667  10.138   3.411  10.919 -0.0667 -1.2130 -0.8374
   57MOL0     H 7668  10.267   3.291  10.914 -0.6835 -1.4418  0.6426
   57MOL0     H 7669  10.368   3.491  11.011  2.8634 -3.0390  0.0296
   57MOL0     H 7670  10.247   3.484  11.155 -1.7327 -2.0618  0.3863
   57MOL0     H 7671  10.449   3.279  11.074  1.6601 -2.0495  2.9374
   57MOL0     H 7672  10.344   3.275  11.218  0.3709 -0.9267 -0.7565
   57MOL0     H 7673  10.520   3.524  11.178 -0.2716  2.0581  1.6292
   57MOL0     H 7674  10.430   3.469  11.310  1.6905 -2.1067  1.8528
   57MOL0     H 7675   9.809   2.825  11.236  1.8831  4.4149 -1.0072
   57MOL0     H 7676   9.617   2.845  11.396  0.1233  0.0053 -0.3550
   57MOL0     H 7677   8.984   2.903  11.282  1.3589  2.7707 -2.5314
   57MOL0     H 7678   8.795   3.029  11.390  0.7674 -2.2288 -0.4022
   57MOL0     H 7679   7.811   3.281  11.128  2.0621 -0.4744 -2.7423
   57MOL0     H 7680   7.696   3.417  11.292  1.7671 -0.9721  1.1047
   57MOL0     H 7681   7.441   3.793  11.295 -1.8286  0.0161  0.6302
   57MOL0     H 7682   7.307   3.882  11.506  0.4683 -0.5585  4.9359
   57MOL0     H 7683   7.258   4.040  11.838  0.2568 -1.3103 -0.3992
   57MOL0     H 7684   7.227   4.023  11.659  1.8854 -3.1743  0.2955
   57MOL0     H 7685   7.235   4.253  11.678 -0.5920  1.0249  2.5975
   57MOL0     H 7686   7.418   4.212  11.664 -0.6249 -0.5860 -1.1202
   57MOL0     H 7687   7.256   4.271  11.913 -0.9186  0.1737 -1.5541
   57MOL0     H 7688   7.342   4.385  11.822  0.6594 -0.4047 -0.9458
   57MOL0     H 7689   7.476   4.296  12.016 -3.4334  1.1953 -0.5165
   57MOL0     H 7690   7.492   4.129  11.942  0.9603  0.5474  0.9367
   57MOL0     H 7691   7.761   4.318  11.706 -0.3011  1.6262  0.4969
   57MOL0     H 7692   7.651   4.051  11.669 -1.5090  1.0841 -0.4693
   57MOL0     H 7693   7.877   3.835  11.503 -1.2999 -0.8972  1.0303
   57MOL0     H 7694   7.872   3.981  11.402  0.0930 -0.7396 -0.4794
   57MOL0     H 7695   7.856   4.001  11.581 -0.2710  0.1251  0.0561
   58MOL0     O 7696  10.409   6.346   9.701 -0.6006 -0.0227 -0.0221
   58MOL0     C 7697  10.431   6.371   9.580  0.2660 -0.3742  0.4316
   58MOL0     O 7698  10.423   6.280   9.477  0.7205  0.1017 -0.3401
   58MOL0     C 7699  10.366   6.156   9.499  0.0823 -0.3084 -0.1321
   58MOL0     C 7700  10.229   6.136   9.537 -0.4141 -1.0117 -0.3624
   58MOL0     C 7701  10.183   6.006   9.562  0.4891 -0.0178 -1.3885
   58MOL0     C 7702  10.265   5.891   9.552  0.8851 -0.5336 -0.1569
   58MOL0     O 7703  10.227   5.758   9.577  0.4496 -0.2763 -0.1828
   58MOL0     C 7704  10.099   5.738   9.650 -0.5766 -0.1388 -0.5754
   58MOL0     C 7705  10.106   5.589   9.691  0.4339  0.5113  0.1714
   58MOL0     C 7706   9.970   5.542   9.764 -0.4286  0.2535  0.4552
   58MOL0     C 7707   9.955   5.601   9.910  0.2373  0.0680  0.2913
   58MOL0     C 7708  10.064   5.581  10.014  0.0102 -0.1848 -1.4496
   58MOL0     C 7709  10.119   5.437  10.035 -0.0556 -1.1604  0.1687
   58MOL0     C 7710  10.205   5.428  10.161  0.3048  0.8623 -0.4585
   58MOL0     C 7711  10.266   5.285  10.173  0.3553 -0.1425 -0.2302
   58MOL0     N 7712  10.356   5.274  10.292  0.5870 -0.1619  0.1191
   58MOL0     C 7713  10.471   5.329  10.311 -0.2915  0.8292 -0.5346
   58MOL0     C 7714  10.504   5.315  10.443 -0.4744  0.4977  0.2359
   58MOL0     C 7715  10.633   5.355  10.496  0.1822 -0.1487 -1.3990
   58MOL0     C 7716  10.751   5.273  10.457 -0.0994  0.3291  0.4765
   58MOL0     C 7717  10.839   5.209  10.563 -0.0750  0.7155  0.6209
   58MOL0     C 7718  10.924   5.306  10.654 -0.0737  0.4179 -0.0852
   58MOL0     O 7719  11.049   5.335  10.593 -0.4248  0.4561  0.2119
   58MOL0     C 7720  11.137   5.413  10.663  0.0853  0.1233  0.2568
   58MOL0     C 7721  11.091   5.506  10.759 -0.6972  0.5147 -0.7153
   58MOL0     C 7722  11.180   5.584  10.836 -0.6760  0.0569 -0.5283
   58MOL0     C 7723  11.320   5.566  10.817  0.2115 -0.0372 -0.7913
   58MOL0     C 7724  11.416   5.630  10.907 -0.8101  0.1370  0.3771
   58MOL0     O 7725  11.549   5.634  10.872  0.0528  0.2334 -0.6023
   58MOL0     C 7726  11.645   5.629  10.974  0.3156  1.3151  2.0109
   58MOL0     C 7727  11.634   5.550  11.085 -0.0796  0.0028  0.3933
   58MOL0     C 7728  11.733   5.553  11.183  0.2558 -0.1576  0.0694
   58MOL0     C 7729  11.840   5.643  11.177 -0.9004 -0.7486 -0.9517
   58MOL0     O 7730  11.918   5.663  11.289  0.2559 -0.0783 -0.0402
   58MOL0     C 7731  12.052   5.714  11.275 -0.0365  0.5678  0.4314
   58MOL0     C 7732  12.142   5.672  11.391 -1.0212  0.3000 -0.6107
   58MOL0     C 7733  12.280   5.744  11.381 -0.1069  0.4793 -0.4346
   58MOL0     C 7734  12.375   5.689  11.491  0.7537  0.1572  0.2514
   58MOL0     C 7735  12.512   5.756  11.483  0.1836 -0.6552 -0.9115
   58MOL0     C 7736  12.607   5.711  11.601 -0.2337  0.1471 -0.4383
   58MOL0     C 7737  12.734   5.796  11.608  0.5985  0.8330  0.1006
   58MOL0     C 7738  12.840   5.752  11.506 -0.1692 -0.4501  0.4073
   58MOL0    Cl 7739  12.936   5.607  11.566 -0.5563 -0.5114 -0.2052
   58MOL0     C 7740  11.846   5.725  11.065 -0.5366  0.1808 -0.3779
   58MOL0     C 7741  11.752   5.710  10.959  0.1959  0.0541 -0.2491
   58MOL0     O 7742  11.369   5.693  11.001 -0.3955 -0.1312 -0.2650
   58MOL0     C 7743  11.368   5.475  10.715  0.7571  0.7079  1.0906
   58MOL0     C 7744  11.271   5.396  10.647 -1.2718  0.1993  0.3390
   58MOL0     N 7745  10.404   5.244  10.503  0.8725  0.6802 -0.3937
   58MOL0     N 7746  10.315   5.227  10.411  0.5496  0.3944 -0.3579
   58MOL0     C 7747  10.401   5.918   9.525 -0.4946  0.3905  0.5506
   58MOL0     C 7748  10.453   6.045   9.498 -0.7722  0.7170  0.4531
   58MOL0     C 7749  10.506   6.499   9.551  0.0940 -0.4866  0.0645
   58MOL0     C 7750  10.583   6.556   9.649  0.2720 -0.6503 -0.4701
   58MOL0     C 7751  10.654   6.674   9.624 -0.5816 -1.8071  0.9238
   58MOL0     C 7752  10.643   6.744   9.505 -0.4119 -0.2790  0.5094
   58MOL0     O 7753  10.740   6.840   9.473  0.8130  0.9963 -0.4873
   58MOL0     C 7754  10.736   6.908   9.350 -0.1421  0.8981 -0.5018
   58MOL0     C 7755  10.802   7.042   9.378  0.4389 -0.5676 -0.6641
   58MOL0     C 7756  10.705   7.139   9.454  0.5327  0.5075  0.2701
   58MOL0     C 7757  10.757   7.284   9.471  0.1358  0.2873  0.7780
   58MOL0     C 7758  10.894   7.272   9.537 -0.2841 -0.3907 -0.0832
   58MOL0     C 7759  11.008   7.274   9.590 -0.0080 -0.6923  0.5899
   58MOL0     C 7760  10.555   6.692   9.410  0.1185 -0.3173 -0.3614
   58MOL0     C 7761  10.486   6.569   9.424 -0.8974  0.2433  0.0032
   58MOL0     C 7762  10.406   6.523   9.308  0.3389  0.0565 -0.3067
   58MOL0     H 7763  10.172   6.224   9.566  0.7139 -0.9835  2.0155
   58MOL0     H 7764  10.082   6.003   9.600  0.3053  4.8774 -0.8277
   58MOL0     H 7765  10.085   5.802   9.738 -1.6623  1.2511 -1.7168
   58MOL0     H 7766  10.013   5.754   9.585 -1.3152 -0.2953  0.3463
   58MOL0     H 7767  10.183   5.575   9.767  0.7396 -3.9422 -0.6957
   58MOL0     H 7768  10.139   5.537   9.601 -0.3542 -0.4510  0.4113
   58MOL0     H 7769   9.985   5.434   9.773 -1.0923  0.2440  1.6965
   58MOL0     H 7770   9.883   5.561   9.701  0.2185 -2.0449 -1.2384
   58MOL0     H 7771   9.948   5.709   9.900  4.4579  0.3771 -1.5473
   58MOL0     H 7772   9.855   5.564   9.933  0.5235  0.5601  2.5938
   58MOL0     H 7773  10.142   5.650   9.982 -0.9184  1.2601 -0.7200
   58MOL0     H 7774  10.020   5.608  10.110  2.6223  2.4843 -0.8541
   58MOL0     H 7775  10.035   5.367  10.041 -1.0232  0.0738  1.3920
   58MOL0     H 7776  10.175   5.417   9.942  3.0440  3.3602  0.7204
   58MOL0     H 7777  10.137   5.455  10.242 -1.1290 -0.4138 -1.2060
   58MOL0     H 7778  10.288   5.500  10.163  0.8312  0.2566  0.1941
   58MOL0     H 7779  10.178   5.220  10.172 -1.5731  2.3146  0.1800
   58MOL0     H 7780  10.336   5.259  10.093  1.3984 -1.6498  1.0956
   58MOL0     H 7781  10.524   5.392  10.239  1.6107  1.8479  1.6173
   58MOL0     H 7782  10.653   5.458  10.463 -0.0172 -0.2743 -1.9101
   58MOL0     H 7783  10.630   5.359  10.606 -4.3726  1.2668 -1.3566
   58MOL0     H 7784  10.713   5.184  10.406 -0.4251  1.2366 -0.9237
   58MOL0     H 7785  10.817   5.330  10.391 -2.4614 -0.7786 -3.1895
   58MOL0     H 7786  10.905   5.129  10.528 -0.0442  0.5472  1.0659
   58MOL0     H 7787  10.774   5.155  10.632  0.4579 -1.1789 -0.2677
   58MOL0     H 7788  10.925   5.275  10.759  0.3473  1.1989  0.1454
   58MOL0     H 7789  10.871   5.401  10.650  0.2326  0.6191  0.4804
   58MOL0     H 7790  10.984   5.516  10.774 -0.3954  1.8099  0.9006
   58MOL0     H 7791  11.140   5.664  10.898  1.6186  1.4008 -0.6661
   58MOL0     H 7792  11.550   5.483  11.098  0.9859 -1.2002  1.4274
   58MOL0     H 7793  11.716   5.497  11.275 -2.7340  1.6019  0.7397
   58MOL0     H 7794  12.090   5.681  11.178 -0.5183  1.8130 -0.1956
   58MOL0     H 7795  12.040   5.822  11.262 -0.1534  0.4912 -0.1307
   58MOL0     H 7796  12.087   5.692  11.484  2.5907  0.9170  1.6032
   58MOL0     H 7797  12.154   5.563  11.396 -1.0512  0.3333  1.9177
   58MOL0     H 7798  12.329   5.725  11.285  1.5754  0.9759  0.2734
   58MOL0     H 7799  12.271   5.853  11.390  0.6296  0.4191  5.8391
   58MOL0     H 7800  12.386   5.581  11.476 -0.5306 -0.1364  1.2373
   58MOL0     H 7801  12.328   5.703  11.588  0.3516 -0.4643  0.1566
   58MOL0     H 7802  12.483   5.861  11.498  0.4808 -0.8902  1.9501
   58MOL0     H 7803  12.556   5.738  11.385  3.1876  2.7143 -0.3835
   58MOL0     H 7804  12.551   5.719  11.694  0.8202  3.0862  0.0663
   58MOL0     H 7805  12.646   5.613  11.572  0.4080  0.7608 -1.7480
   58MOL0     H 7806  12.779   5.794  11.707 -2.0114 -0.5233  1.3648
   58MOL0     H 7807  12.719   5.901  11.580 -3.2022 -0.1692 -2.4960
   58MOL0     H 7808  12.801   5.731  11.406  0.4478  0.8906 -0.1387
   58MOL0     H 7809  12.911   5.833  11.488  0.6765 -1.3937 -0.6349
   58MOL0     H 7810  11.924   5.801  11.058  1.3303 -1.6364 -0.2913
   58MOL0     H 7811  11.760   5.768  10.868 -1.7848  0.5393 -0.1491
   58MOL0     H 7812  11.471   5.456  10.687  0.1857 -2.6062  0.8377
   58MOL0     H 7813  11.307   5.322  10.575 -1.2312  0.5179  0.0270
   58MOL0     H 7814  10.465   5.830   9.520  0.0669  0.7264  1.5877
   58MOL0     H 7815  10.557   6.062   9.475 -0.7368  1.3443  1.0624
   58MOL0     H 7816  10.609   6.508   9.742  0.6929 -0.1011 -0.2988
   58MOL0     H 7817  10.721   6.717   9.697 -0.6064 -0.4504  0.1852
   58MOL0     H 7818  10.642   6.911   9.295 -1.0510 -0.3124  0.9334
   58MOL0     H 7819  10.806   6.856   9.284  1.8257  1.4082  1.0671
   58MOL0     H 7820  10.831   7.077   9.279 -1.9893 -1.3684 -1.7401
   58MOL0     H 7821  10.893   7.039   9.438 -1.3430 -1.0198  2.1925
   58MOL0     H 7822  10.684   7.093   9.551 -2.5605 -0.3461 -0.6745
   58MOL0     H 7823  10.609   7.139   9.402  1.7111  0.1003 -2.0986
   58MOL0     H 7824  10.756   7.338   9.376  1.1139  1.0599  1.1950
   58MOL0     H 7825  10.682   7.337   9.531 -3.2301 -2.0807 -1.0092
   58MOL0     H 7826  11.093   7.273   9.655  0.4589  0.5318  0.0294
   58MOL0     H 7827  10.542   6.734   9.310 -0.0602  0.6301  0.0517
   58MOL0     H 7828  10.422   6.423   9.266  0.1465  0.7120 -2.0526
   58MOL0     H 7829  10.300   6.528   9.335  0.8822  3.7357  1.9065
   58MOL0     H 7830  10.397   6.595   9.225 -3.3757  2.8307  2.1488
   59MOL0     O 7831   8.871   8.760   4.315  0.8724 -0.4241 -1.0102
   59MOL0     C 7832   8.949   8.853   4.345  0.3730 -0.8079  0.0397
   59MOL0     O 7833   9.086   8.836   4.360 -0.6974  0.1612  0.3914
   59MOL0     C 7834   9.149   8.734   4.291 -0.9103 -0.3160  0.2527
   59MOL0     C 7835   9.105   8.610   4.289  0.2452  0.5199  0.1184
   59MOL0     C 7836   9.180   8.509   4.232 -0.1969 -0.4461  0.6598
   59MOL0     C 7837   9.307   8.527   4.179  0.6547  0.0412 -0.0311
   59MOL0     O 7838   9.370   8.416   4.130 -0.7488 -0.8003  0.0425
   59MOL0     C 7839   9.460   8.436   4.021 -0.8169  0.4507 -0.2433
   59MOL0     C 7840   9.491   8.305   3.953  0.1761  0.1640 -0.1656
   59MOL0     C 7841   9.626   8.319   3.875  0.3000 -0.4387 -0.4978
   59MOL0     C 7842   9.712   8.192   3.869  0.2300 -0.7905 -0.3473
   59MOL0     C 7843   9.657   8.076   3.777  0.1951  0.5933 -0.0433
   59MOL0     C 7844   9.763   7.968   3.739  0.1526  0.5111 -0.2810
   59MOL0     C 7845   9.695   7.865   3.648 -0.3170 -1.1991 -1.2048
   59MOL0     C 7846   9.782   7.778   3.557 -0.7175 -0.4180 -0.2343
   59MOL0     N 7847   9.851   7.857   3.449 -0.3034  0.5566  0.1382
   59MOL0     C 7848   9.796   7.920   3.344 -0.3853 -0.6654  0.1568
   59MOL0     C 7849   9.901   7.995   3.288  0.0678 -0.8464 -0.1577
   59MOL0     C 7850   9.920   8.083   3.159  0.6444 -0.1001 -1.0687
   59MOL0     C 7851   9.989   8.225   3.190 -0.7289  0.2577 -0.0333
   59MOL0     C 7852  10.115   8.256   3.116 -0.3452  0.3659 -0.8750
   59MOL0     C 7853  10.100   8.259   2.970  0.6722  0.3607  0.2929
   59MOL0     O 7854  10.216   8.307   2.898  0.1239 -1.0064  0.0529
   59MOL0     C 7855  10.330   8.239   2.920 -0.2876  0.5231  0.0948
   59MOL0     C 7856  10.349   8.106   2.877 -0.3887  0.3137 -0.1469
   59MOL0     C 7857  10.474   8.039   2.899  0.1819 -0.0556  1.0019
   59MOL0     C 7858  10.582   8.104   2.964  0.0328  0.6420  1.1820
   59MOL0     C 7859  10.700   8.038   3.002  0.1126 -0.1321 -0.0295
   59MOL0     O 7860  10.711   7.912   2.968  0.3066  0.6746  0.0642
   59MOL0     C 7861  10.818   7.837   3.011 -0.4652 -0.4535 -0.1247
   59MOL0     C 7862  10.795   7.701   3.007  0.0261  0.2745  0.7493
   59MOL0     C 7863  10.900   7.608   3.000  0.0099 -0.5133 -0.6314
   59MOL0     C 7864  11.030   7.649   2.999  0.5111 -0.0222 -0.0600
   59MOL0     O 7865  11.124   7.548   2.996 -0.2196  0.2796  0.9177
   59MOL0     C 7866  11.258   7.590   3.017 -0.6537 -0.1517  0.4418
   59MOL0     C 7867  11.277   7.595   3.177  0.3490  0.9014 -0.1873
   59MOL0     C 7868  11.402   7.668   3.221 -0.1446 -0.3139  0.4372
   59MOL0     C 7869  11.528   7.589   3.180 -0.2755  0.6495 -0.4725
   59MOL0     C 7870  11.664   7.656   3.195 -0.1858 -0.1497 -0.1356
   59MOL0     C 7871  11.705   7.658   3.348  0.4064 -0.1933 -0.0394
   59MOL0     C 7872  11.843   7.726   3.365 -0.3792 -0.4826  0.1641
   59MOL0     C 7873  11.889   7.729   3.511 -0.7665  0.4797 -0.0271
   59MOL0    Cl 7874  12.042   7.830   3.544 -0.1785  0.0206  0.3000
   59MOL0     C 7875  11.059   7.790   2.993 -0.0198  1.0105 -0.2732
   59MOL0     C 7876  10.955   7.880   3.001  0.1701  0.6324 -0.0973
   59MOL0     O 7877  10.783   8.096   3.068  0.8233  0.4646 -0.1261
   59MOL0     C 7878  10.559   8.234   3.003 -0.1527 -1.1204 -0.0443
   59MOL0     C 7879  10.431   8.302   2.992  0.1845  0.3392 -0.8764
   59MOL0     N 7880  10.016   7.967   3.360 -0.1127 -0.3000  0.6059
   59MOL0     N 7881   9.975   7.896   3.459 -0.4546  0.1598 -0.2816
   59MOL0     C 7882   9.343   8.657   4.160 -0.0066 -0.0400 -0.7360
   59MOL0     C 7883   9.270   8.762   4.224 -0.0324 -0.4764  0.8137
   59MOL0     C 7884   8.888   8.979   4.393 -0.7239  0.0682 -0.0272
   59MOL0     C 7885   8.977   9.082   4.409 -0.0030 -0.2062  0.1080
   59MOL0     C 7886   8.934   9.204   4.460  0.3609 -0.1159 -0.4227
   59MOL0     C 7887   8.796   9.228   4.481 -0.6553 -0.1899  0.6737
   59MOL0     O 7888   8.777   9.356   4.525  0.7285 -0.6749 -0.1841
   59MOL0     C 7889   8.751   9.359   4.672  0.1653 -0.1329  0.7183
   59MOL0     C 7890   8.851   9.442   4.753 -1.0575 -1.0650 -0.4067
   59MOL0     C 7891   8.837   9.587   4.712  0.2790 -0.1463 -0.2776
   59MOL0     C 7892   8.947   9.667   4.789 -0.3946  0.3666 -0.6631
   59MOL0     C 7893   8.954   9.807   4.740 -0.1029  0.3623  0.5256
   59MOL0     C 7894   8.956   9.928   4.730 -1.7837 -0.8060 -0.3874
   59MOL0     C 7895   8.701   9.129   4.454 -0.3138 -0.0071 -0.7911
   59MOL0     C 7896   8.746   9.003   4.417 -0.0373  0.2381  0.1537
   59MOL0     C 7897   8.639   8.890   4.415 -0.4590 -0.1022  0.0624
   59MOL0     H 7898   9.016   8.589   4.348 -1.2922  1.2976 -1.7962
   59MOL0     H 7899   9.149   8.405   4.226  2.7302 -1.3138 -3.6408
   59MOL0     H 7900   9.422   8.499   3.939 -0.7221 -0.2400 -0.8226
   59MOL0     H 7901   9.553   8.485   4.052 -1.2076  0.1511  1.5064
   59MOL0     H 7902   9.415   8.274   3.882  0.0265  1.8956 -0.8195
   59MOL0     H 7903   9.512   8.230   4.030  1.4745 -0.2253 -0.8682
   59MOL0     H 7904   9.689   8.402   3.907  1.0693 -1.3159  0.3437
   59MOL0     H 7905   9.595   8.326   3.770  2.9789 -3.0184 -1.6571
   59MOL0     H 7906   9.810   8.213   3.825  0.4930  2.2597  1.4301
   59MOL0     H 7907   9.716   8.161   3.974 -2.3556 -0.5216 -0.0953
   59MOL0     H 7908   9.569   8.030   3.824  0.6045  2.4533  2.7707
   59MOL0     H 7909   9.618   8.121   3.686  1.3890  0.9437 -0.3973
   59MOL0     H 7910   9.853   8.009   3.693 -1.5606  2.2720 -2.3070
   59MOL0     H 7911   9.790   7.915   3.831 -2.9830 -3.1916 -1.2032
   59MOL0     H 7912   9.616   7.914   3.590 -0.8069 -0.6734 -0.1247
   59MOL0     H 7913   9.640   7.793   3.710 -1.5407  0.2781 -0.4876
   59MOL0     H 7914   9.853   7.714   3.611  0.7732  2.2602  1.1426
   59MOL0     H 7915   9.703   7.710   3.523 -0.3972 -1.3925  0.9168
   59MOL0     H 7916   9.694   7.915   3.309 -1.5970  2.3424  2.7784
   59MOL0     H 7917   9.971   8.018   3.087  0.6383 -1.1406 -0.1555
   59MOL0     H 7918   9.818   8.097   3.122  1.0252  0.9884 -1.7675
   59MOL0     H 7919   9.919   8.308   3.177  1.9398  2.5605 -0.6633
   59MOL0     H 7920  10.023   8.220   3.294  0.7675 -0.7078 -0.5273
   59MOL0     H 7921  10.192   8.181   3.136 -0.5394  0.3945  0.0037
   59MOL0     H 7922  10.161   8.349   3.149  1.2407  0.4097 -3.0120
   59MOL0     H 7923  10.017   8.327   2.943  0.4694 -0.5129 -1.4131
   59MOL0     H 7924  10.064   8.165   2.928 -0.1190  1.6117 -2.0166
   59MOL0     H 7925  10.278   8.060   2.810 -1.5630  0.4436  0.9668
   59MOL0     H 7926  10.482   7.933   2.874 -0.0881 -0.3618  2.1418
   59MOL0     H 7927  10.691   7.669   3.003 -1.0719  3.5008  1.2531
   59MOL0     H 7928  10.856   7.509   2.995 -6.2938  1.8813 -2.7681
   59MOL0     H 7929  11.328   7.513   2.982  1.0671  1.6075 -0.1876
   59MOL0     H 7930  11.280   7.681   2.961  0.0628 -0.1404  0.7270
   59MOL0     H 7931  11.189   7.641   3.223 -1.8512 -2.8411 -0.2480
   59MOL0     H 7932  11.272   7.491   3.211  0.5763  1.4581  1.7012
   59MOL0     H 7933  11.402   7.766   3.173  1.0939 -0.0460  0.9474
   59MOL0     H 7934  11.398   7.680   3.330  1.9176 -0.6682  0.5913
   59MOL0     H 7935  11.520   7.563   3.074 -0.2346 -1.8827  0.0882
   59MOL0     H 7936  11.531   7.492   3.231  3.8916  1.4175  1.1836
   59MOL0     H 7937  11.661   7.759   3.160 -2.9798  0.4880  1.6578
   59MOL0     H 7938  11.743   7.604   3.139  1.4260  0.8143  1.1440
   59MOL0     H 7939  11.628   7.707   3.410 -1.1840 -3.6686  1.0081
   59MOL0     H 7940  11.709   7.552   3.376  0.4136 -0.0223  0.6160
   59MOL0     H 7941  11.831   7.832   3.342  1.2033 -0.2208  0.4338
   59MOL0     H 7942  11.924   7.683   3.305 -3.2409 -1.4052 -3.3245
   59MOL0     H 7943  11.808   7.767   3.575 -0.1803 -0.4340  1.2892
   59MOL0     H 7944  11.922   7.627   3.528  3.2862  1.5635 -0.4505
   59MOL0     H 7945  11.162   7.819   2.972 -0.3368  2.2638 -0.1720
   59MOL0     H 7946  10.990   7.978   2.969  2.9586 -1.0631 -2.8096
   59MOL0     H 7947  10.629   8.298   3.056 -0.9723 -1.3217  1.3085
   59MOL0     H 7948  10.408   8.400   3.033 -2.6522 -0.2564 -0.8856
   59MOL0     H 7949   9.432   8.679   4.102  1.8390 -2.3880  0.9644
   59MOL0     H 7950   9.304   8.865   4.225 -1.5998  0.1399 -1.2150
   59MOL0     H 7951   9.081   9.066   4.381  0.7382  0.9523  2.0006
   59MOL0     H 7952   9.011   9.280   4.468  1.0235 -0.7440 -0.7617
   59MOL0     H 7953   8.759   9.261   4.720  3.0174 -0.1178  0.4088
   59MOL0     H 7954   8.647   9.392   4.680  0.5862  1.2522  0.8116
   59MOL0     H 7955   8.952   9.406   4.731 -1.3574 -0.9644 -2.0394
   59MOL0     H 7956   8.832   9.432   4.861  0.6241 -0.8397 -0.0487
   59MOL0     H 7957   8.734   9.617   4.733  1.1013  2.2910  0.6154
   59MOL0     H 7958   8.861   9.598   4.606  3.3203 -5.2446 -0.4697
   59MOL0     H 7959   8.929   9.669   4.897  2.0624  0.0662 -0.1814
   59MOL0     H 7960   9.043   9.616   4.780 -0.2674  0.7440 -1.5544
   59MOL0     H 7961   8.951  10.034   4.718 -0.7576 -0.8125 -0.9475
   59MOL0     H 7962   8.595   9.148   4.470  0.1794  0.2402  2.8768
   59MOL0     H 7963   8.680   8.795   4.453  0.9818 -0.8803 -3.1153
   59MOL0     H 7964   8.559   8.918   4.484 -1.6424 -1.6730 -0.6197
   59MOL0     H 7965   8.603   8.867   4.315  0.3408  2.3608 -0.8722
   60MOL0     O 7966   0.314   4.542   7.752  0.1555 -0.0979 -0.8109
   60MOL0     C 7967   0.227   4.569   7.828  0.1251  0.2801  0.3312
   60MOL0     O 7968   0.239   4.645   7.943 -0.3421 -0.7563  0.5359
   60MOL0     C 7969   0.362   4.687   7.988 -0.5366 -0.4190  0.6729
   60MOL0     C 7970   0.390   4.810   7.928  0.2688  0.3532  0.0768
   60MOL0     C 7971   0.518   4.860   7.955 -0.1533 -0.3866 -0.1907
   60MOL0     C 7972   0.616   4.791   8.024 -0.2346  0.7536 -0.1472
   60MOL0     O 7973   0.733   4.856   8.040 -0.2781  0.1485  0.1471
   60MOL0     C 7974   0.836   4.779   8.106 -0.3800  0.2162 -0.3277
   60MOL0     C 7975   0.973   4.844   8.085  0.0343  0.4925  0.2190
   60MOL0     C 7976   1.009   4.835   7.937 -0.9618 -0.5866 -0.0161
   60MOL0     C 7977   1.154   4.853   7.896 -0.0001 -1.0592  0.1869
   60MOL0     C 7978   1.173   4.850   7.747  0.3694 -0.4392  0.7063
   60MOL0     C 7979   1.319   4.851   7.697  0.0098 -0.2527 -0.8221
   60MOL0     C 7980   1.395   4.979   7.724  0.6039  0.0832 -0.4608
   60MOL0     C 7981   1.328   5.105   7.657 -0.3151  0.2976  0.0528
   60MOL0     N 7982   1.372   5.120   7.518 -0.5111  1.0714  0.1720
   60MOL0     C 7983   1.491   5.174   7.477  0.6937 -0.5621  0.0842
   60MOL0     C 7984   1.483   5.183   7.340 -0.7912 -0.1522  0.8851
   60MOL0     C 7985   1.582   5.238   7.248  0.1726  0.2837 -0.3660
   60MOL0     C 7986   1.725   5.242   7.299 -0.1294 -0.9378  0.3173
   60MOL0     C 7987   1.816   5.289   7.187  0.5927  0.7777 -0.9258
   60MOL0     C 7988   1.967   5.263   7.217 -0.2150 -0.0839 -0.5331
   60MOL0     O 7989   2.016   5.157   7.128  0.9902 -0.4983  0.1380
   60MOL0     C 7990   2.151   5.119   7.142 -0.3925 -0.3895  0.1646
   60MOL0     C 7991   2.253   5.197   7.200  0.2038  0.9566 -0.0358
   60MOL0     C 7992   2.389   5.146   7.207 -0.5112  0.1020  0.2609
   60MOL0     C 7993   2.419   5.020   7.144  0.3347  0.0029  0.1395
   60MOL0     C 7994   2.555   4.970   7.144  0.0340 -0.4242  1.0631
   60MOL0     O 7995   2.647   5.065   7.159  0.4936  0.1625  0.4460
   60MOL0     C 7996   2.779   5.051   7.134 -0.0931 -0.1176 -0.0619
   60MOL0     C 7997   2.850   5.151   7.202 -0.3227 -0.0180  0.4215
   60MOL0     C 7998   2.990   5.151   7.184 -0.2458 -0.4434  0.2184
   60MOL0     C 7999   3.058   5.054   7.110  0.9510 -1.1838  0.1505
   60MOL0     O 8000   3.195   5.067   7.092  0.1059 -0.7056 -0.4619
   60MOL0     C 8001   3.268   4.975   7.007  0.4034 -0.0748  0.1184
   60MOL0     C 8002   3.420   5.008   7.004 -0.0617  0.1655  1.3136
   60MOL0     C 8003   3.487   5.002   7.144  0.4568  0.2087  0.4828
   60MOL0     C 8004   3.639   4.991   7.155  0.4073 -0.2223 -0.0975
   60MOL0     C 8005   3.681   4.998   7.300  0.2514 -0.0016 -0.5942
   60MOL0     C 8006   3.829   4.985   7.327 -0.9817  0.1332 -0.8399
   60MOL0     C 8007   3.896   4.849   7.297 -0.7489 -0.5368 -0.7513
   60MOL0     C 8008   4.047   4.865   7.315  0.6166 -0.8100 -0.2894
   60MOL0    Cl 8009   4.115   4.697   7.329 -0.3949  0.3027 -0.7294
   60MOL0     C 8010   2.979   4.945   7.054  0.3946  0.6194 -0.0740
   60MOL0     C 8011   2.839   4.952   7.061 -0.6921 -0.1301  0.6837
   60MOL0     O 8012   2.573   4.852   7.118  0.1725  0.6660  0.0388
   60MOL0     C 8013   2.317   4.946   7.078  0.4251  0.8202  0.0404
   60MOL0     C 8014   2.187   4.995   7.078  0.1746  0.2811 -0.3652
   60MOL0     N 8015   1.359   5.141   7.296 -0.2717  0.2097 -0.6975
   60MOL0     N 8016   1.296   5.096   7.405  0.3100  0.2766  0.1274
   60MOL0     C 8017   0.581   4.663   8.068  0.4710  0.0557 -0.7953
   60MOL0     C 8018   0.455   4.608   8.054  0.8566 -0.3889 -0.9632
   60MOL0     C 8019   0.087   4.511   7.799  0.7421 -0.1382  0.0511
   60MOL0     C 8020  -0.016   4.546   7.893  0.2595 -0.1620 -0.6159
   60MOL0     C 8021  -0.150   4.496   7.871 -0.7550 -0.4109 -0.0832
   60MOL0     C 8022  -0.175   4.410   7.772 -0.5902 -0.5186  0.1808
   60MOL0     O 8023  -0.294   4.346   7.743  0.1568  0.5773 -0.0041
   60MOL0     C 8024  -0.413   4.388   7.816  0.4496 -0.3321  0.0049
   60MOL0     C 8025  -0.438   4.309   7.950 -0.2369 -0.0242 -1.2599
   60MOL0     C 8026  -0.461   4.163   7.927  0.5606  0.8537 -0.9390
   60MOL0     C 8027  -0.469   4.081   8.057 -0.8414 -0.4029 -0.8280
   60MOL0     C 8028  -0.593   4.099   8.128  0.2608  0.0093  0.0255
   60MOL0     C 8029  -0.703   4.113   8.173 -0.6272  0.3957 -0.3715
   60MOL0     C 8030  -0.070   4.374   7.689  0.8931 -0.7477  0.5912
   60MOL0     C 8031   0.061   4.415   7.697  0.2446  0.3696 -0.2162
   60MOL0     C 8032   0.163   4.362   7.603  0.3220  1.5025 -0.8566
   60MOL0     H 8033   0.318   4.869   7.872  0.5476  1.8008  1.1565
   60MOL0     H 8034   0.542   4.958   7.913 -3.1251  0.0483 -1.1182
   60MOL0     H 8035   0.817   4.777   8.214 -3.9439 -1.4786 -0.8272
   60MOL0     H 8036   0.845   4.673   8.081  1.6912 -0.0825  1.3963
   60MOL0     H 8037   1.051   4.789   8.138 -1.1301  0.5987  2.1293
   60MOL0     H 8038   0.980   4.945   8.127  2.1098  0.8037 -0.7218
   60MOL0     H 8039   0.951   4.908   7.880  0.1301 -0.2439 -0.7274
   60MOL0     H 8040   0.991   4.735   7.896 -0.1661  0.2288 -2.5029
   60MOL0     H 8041   1.186   4.944   7.948 -2.3102 -0.7927  1.2410
   60MOL0     H 8042   1.213   4.773   7.942 -2.8877 -3.2666  0.3266
   60MOL0     H 8043   1.130   4.754   7.714  1.3683 -0.3067 -1.1076
   60MOL0     H 8044   1.123   4.933   7.697 -0.9567 -2.8173 -2.2522
   60MOL0     H 8045   1.367   4.774   7.759 -2.4070 -1.8012 -0.7453
   60MOL0     H 8046   1.339   4.823   7.593  0.8579  1.7468 -1.2375
   60MOL0     H 8047   1.498   4.963   7.691 -0.0326 -2.2142 -1.5053
   60MOL0     H 8048   1.397   4.997   7.832 -2.3689 -1.0158 -0.1437
   60MOL0     H 8049   1.220   5.109   7.674 -0.4916 -0.0323 -0.9110
   60MOL0     H 8050   1.370   5.192   7.708  0.1901  0.5368 -0.7622
   60MOL0     H 8051   1.571   5.200   7.546 -0.1373  1.1203  0.4706
   60MOL0     H 8052   1.579   5.169   7.163 -2.9387 -0.8970  0.5797
   60MOL0     H 8053   1.556   5.335   7.203  1.6271  0.5508 -0.7108
   60MOL0     H 8054   1.721   5.309   7.386 -2.3782 -1.3273  0.5980
   60MOL0     H 8055   1.760   5.148   7.342  2.1824 -0.0998  0.3937
   60MOL0     H 8056   1.793   5.395   7.180 -2.8457  0.0323 -3.5039
   60MOL0     H 8057   1.785   5.242   7.093 -1.0525  1.7873 -0.9318
   60MOL0     H 8058   1.975   5.242   7.324  0.2785  0.7675 -0.3907
   60MOL0     H 8059   2.008   5.357   7.180 -3.1622  1.4379 -0.2361
   60MOL0     H 8060   2.217   5.279   7.262 -1.1677 -0.1668  0.7264
   60MOL0     H 8061   2.473   5.190   7.259  1.2196 -3.7702  1.0102
   60MOL0     H 8062   2.795   5.216   7.268  0.3938  2.9747 -1.7130
   60MOL0     H 8063   3.061   5.225   7.220  1.7428 -1.5175 -1.2622
   60MOL0     H 8064   3.253   4.870   7.034  0.3457 -0.0751  0.0870
   60MOL0     H 8065   3.234   4.984   6.904  3.7407 -2.7023 -1.3559
   60MOL0     H 8066   3.473   4.954   6.924 -1.4225 -0.4777  0.8238
   60MOL0     H 8067   3.426   5.116   6.990 -2.6724  0.2546  0.4693
   60MOL0     H 8068   3.450   5.092   7.192 -1.1012 -0.1779  0.0604
   60MOL0     H 8069   3.427   4.926   7.194 -0.1405 -0.3688 -1.0424
   60MOL0     H 8070   3.688   5.073   7.102  1.1388 -1.1344 -0.8642
   60MOL0     H 8071   3.685   4.906   7.103  1.0800 -0.9732  1.6663
   60MOL0     H 8072   3.617   4.924   7.349 -0.6118 -0.5320 -2.4220
   60MOL0     H 8073   3.644   5.084   7.356 -1.4721 -0.4380 -0.9874
   60MOL0     H 8074   3.881   5.059   7.266  2.6340 -1.3287  0.2282
   60MOL0     H 8075   3.842   5.009   7.433  2.1926 -2.1930 -0.5643
   60MOL0     H 8076   3.870   4.809   7.198 -2.0250  3.2216 -2.1285
   60MOL0     H 8077   3.861   4.780   7.375  0.7740 -0.1237  0.3333
   60MOL0     H 8078   4.089   4.909   7.224  1.8785  3.2363  2.0011
   60MOL0     H 8079   4.079   4.916   7.406 -0.2062 -2.6430  1.1077
   60MOL0     H 8080   3.024   4.881   6.979  2.1262  0.6771  0.8612
   60MOL0     H 8081   2.784   4.875   7.009 -1.3125 -1.9911  3.8771
   60MOL0     H 8082   2.343   4.851   7.032 -1.1363  0.2355  0.3245
   60MOL0     H 8083   2.116   4.931   7.027  1.5584 -1.8418  0.2302
   60MOL0     H 8084   0.650   4.599   8.123 -0.3855  0.1356  0.4074
   60MOL0     H 8085   0.439   4.509   8.094 -0.0965  0.0230 -0.2886
   60MOL0     H 8086   0.001   4.615   7.975 -4.7654  2.9279 -1.6929
   60MOL0     H 8087  -0.224   4.525   7.946  0.2311 -1.3172  1.2964
   60MOL0     H 8088  -0.504   4.379   7.755  0.1310 -2.9533  0.7225
   60MOL0     H 8089  -0.409   4.493   7.844  2.8900 -0.6283  0.9787
   60MOL0     H 8090  -0.520   4.350   8.011  1.4872 -0.3457  1.4774
   60MOL0     H 8091  -0.353   4.318   8.018 -2.2727 -1.4430  1.7290
   60MOL0     H 8092  -0.376   4.108   7.885 -0.7054 -3.1670  1.1965
   60MOL0     H 8093  -0.550   4.140   7.869  0.4813 -1.1464 -0.0992
   60MOL0     H 8094  -0.472   3.973   8.040 -3.9295 -1.1172  2.8447
   60MOL0     H 8095  -0.387   4.097   8.128  0.9047 -3.4210 -1.9559
   60MOL0     H 8096  -0.800   4.140   8.211  0.7541  3.4227  1.4073
   60MOL0     H 8097  -0.096   4.302   7.613 -0.4309  1.1049 -0.8007
   60MOL0     H 8098   0.247   4.309   7.650  0.6000  0.2940 -2.6207
   60MOL0     H 8099   0.118   4.289   7.535  2.0571 -2.1083  1.5361
   60MOL0     H 8100   0.205   4.444   7.544 -1.6112  0.8811 -3.2721
   61MOL0     O 8101   2.949   9.474   3.714  0.1770 -0.1232  0.2959
   61MOL0     C 8102   2.919   9.445   3.597 -0.5644 -0.0298  0.2887
   61MOL0     O 8103   3.005   9.382   3.517 -0.1731 -0.2481 -0.0336
   61MOL0     C 8104   3.141   9.391   3.530 -0.6534 -0.0745  0.2137
   61MOL0     C 8105   3.213   9.408   3.411 -0.4610 -0.2421 -0.2548
   61MOL0     C 8106   3.357   9.399   3.411  0.1805 -0.4999  0.1775
   61MOL0     C 8107   3.435   9.360   3.531  0.2172  0.7916 -0.6446
   61MOL0     O 8108   3.562   9.334   3.510 -0.7054 -0.1763  0.6272
   61MOL0     C 8109   3.647   9.303   3.626  0.7200 -0.0667  0.7813
   61MOL0     C 8110   3.767   9.212   3.595  0.1414  0.1332  0.1551
   61MOL0     C 8111   3.709   9.075   3.568  0.8618  0.3951  0.5847
   61MOL0     C 8112   3.802   8.955   3.539 -1.0134  0.1669  0.2540
   61MOL0     C 8113   3.750   8.822   3.536 -0.1610 -0.0515  0.4720
   61MOL0     C 8114   3.853   8.707   3.525  0.1164 -0.3773  1.3177
   61MOL0     C 8115   3.798   8.574   3.528  1.3287 -0.1675 -0.1665
   61MOL0     C 8116   3.893   8.462   3.512  0.5241  0.4889  0.7399
   61MOL0     N 8117   3.971   8.462   3.391 -0.2326  0.3094  0.5092
   61MOL0     C 8118   3.939   8.401   3.273 -0.2562 -0.1764 -0.0754
   61MOL0     C 8119   4.058   8.386   3.211 -0.2617 -0.1098 -0.5315
   61MOL0     C 8120   4.072   8.333   3.072 -0.0270 -0.6814 -0.6346
   61MOL0     C 8121   4.180   8.400   2.988 -0.3870 -0.9983  1.4860
   61MOL0     C 8122   4.210   8.312   2.849 -0.6363  0.3552 -0.4623
   61MOL0     C 8123   4.097   8.234   2.777  0.2829  0.1041 -0.3339
   61MOL0     O 8124   4.088   8.307   2.651  0.1298 -0.0371  0.4087
   61MOL0     C 8125   3.991   8.410   2.643  0.3117 -0.6795 -0.5622
   61MOL0     C 8126   3.886   8.454   2.731 -0.8561 -0.1211 -0.0903
   61MOL0     C 8127   3.798   8.555   2.689  0.5204  0.3275  0.4787
   61MOL0     C 8128   3.800   8.608   2.559 -0.4408  0.5916  0.2178
   61MOL0     C 8129   3.699   8.706   2.517  0.1854 -0.2479 -0.7878
   61MOL0     O 8130   3.599   8.737   2.606  0.7124 -0.0018  0.0447
   61MOL0     C 8131   3.482   8.781   2.560 -0.2066 -1.0744 -0.0282
   61MOL0     C 8132   3.419   8.729   2.446 -0.9677 -0.1330  0.6614
   61MOL0     C 8133   3.286   8.769   2.420 -0.5781 -0.6371 -0.3779
   61MOL0     C 8134   3.227   8.876   2.497 -0.1039  0.1915  0.4511
   61MOL0     O 8135   3.102   8.922   2.452 -0.3154 -0.3805 -0.1467
   61MOL0     C 8136   3.068   9.058   2.463 -0.2775  0.4185 -0.4995
   61MOL0     C 8137   2.968   9.075   2.354  0.0837  0.0728 -0.5012
   61MOL0     C 8138   2.848   8.973   2.372 -0.0170 -0.4877 -0.1943
   61MOL0     C 8139   2.725   9.038   2.315 -0.8255 -0.2425  0.0360
   61MOL0     C 8140   2.609   8.945   2.304 -0.4610  0.2490  0.1856
   61MOL0     C 8141   2.476   9.009   2.274 -0.4190  0.3928  0.4552
   61MOL0     C 8142   2.377   8.899   2.241 -0.0032 -0.1019  0.1581
   61MOL0     C 8143   2.339   8.808   2.363  0.0630 -0.1631  0.7326
   61MOL0    Cl 8144   2.173   8.756   2.324 -0.0254 -0.1074  0.2195
   61MOL0     C 8145   3.303   8.943   2.593 -0.9161 -0.2618  0.5695
   61MOL0     C 8146   3.421   8.886   2.642 -1.0975  0.2291  0.9375
   61MOL0     O 8147   3.713   8.757   2.410  0.1692  0.4028  0.6081
   61MOL0     C 8148   3.897   8.554   2.471 -0.2010 -0.1149 -0.4441
   61MOL0     C 8149   3.995   8.472   2.513 -0.1122 -0.0117  0.4761
   61MOL0     N 8150   4.165   8.434   3.288 -0.0236  1.5428  0.1890
   61MOL0     N 8151   4.106   8.473   3.397 -0.1305  0.7102 -0.7835
   61MOL0     C 8152   3.358   9.341   3.648 -0.4601 -0.0973  1.2521
   61MOL0     C 8153   3.210   9.355   3.644 -0.5874  0.0695  0.1168
   61MOL0     C 8154   2.774   9.443   3.559 -0.0656 -0.6180 -0.5456
   61MOL0     C 8155   2.690   9.504   3.654  0.3944 -0.0224  0.3770
   61MOL0     C 8156   2.558   9.505   3.643 -0.6907  0.5389  0.1914
   61MOL0     C 8157   2.490   9.444   3.537 -0.8183 -0.4723  0.8890
   61MOL0     O 8158   2.350   9.454   3.544  0.4900  0.1782 -0.2723
   61MOL0     C 8159   2.287   9.372   3.447 -0.1124  0.1982  0.6140
   61MOL0     C 8160   2.142   9.359   3.490 -0.4618 -0.4581  0.4668
   61MOL0     C 8161   2.065   9.274   3.390  0.0643  0.1113 -0.4151
   61MOL0     C 8162   1.928   9.230   3.446 -0.5209 -0.1588  0.5577
   61MOL0     C 8163   1.844   9.342   3.488  0.3671  0.6119 -0.4046
   61MOL0     C 8164   1.778   9.434   3.519 -0.1163 -0.5802 -0.3174
   61MOL0     C 8165   2.570   9.381   3.438  0.0233 -0.1471  0.0348
   61MOL0     C 8166   2.708   9.378   3.447 -0.3998  0.7768 -0.0841
   61MOL0     C 8167   2.790   9.291   3.358 -0.4374 -0.3468  1.1024
   61MOL0     H 8168   3.164   9.437   3.319 -0.3475  2.8248  0.5354
   61MOL0     H 8169   3.403   9.401   3.313  1.2499  0.4819  0.6659
   61MOL0     H 8170   3.685   9.398   3.664 -0.5588  0.8128 -0.0750
   61MOL0     H 8171   3.596   9.249   3.707  1.9968 -2.5316  0.0701
   61MOL0     H 8172   3.843   9.217   3.674 -1.1757  2.6122  1.3579
   61MOL0     H 8173   3.816   9.249   3.505  2.3232 -0.8677  0.8371
   61MOL0     H 8174   3.656   9.091   3.474  4.2261  2.1983 -1.2081
   61MOL0     H 8175   3.637   9.051   3.647  0.5199 -0.9356 -0.1057
   61MOL0     H 8176   3.863   8.979   3.451  1.9698  0.2687  2.2013
   61MOL0     H 8177   3.876   8.948   3.619 -2.0559 -2.1280  1.0853
   61MOL0     H 8178   3.684   8.801   3.621 -1.4834  1.3080 -0.1876
   61MOL0     H 8179   3.686   8.817   3.448 -2.1785 -1.5062  1.9253
   61MOL0     H 8180   3.900   8.710   3.426  1.0563  2.5598  1.7643
   61MOL0     H 8181   3.938   8.710   3.594  0.5898 -0.7128  0.7653
   61MOL0     H 8182   3.709   8.570   3.465  1.6200 -0.5735 -0.5549
   61MOL0     H 8183   3.754   8.566   3.628 -0.5787 -1.1444 -1.0263
   61MOL0     H 8184   3.963   8.457   3.596  0.5282  2.3999  0.9001
   61MOL0     H 8185   3.826   8.375   3.508 -2.0344  2.3328  1.2615
   61MOL0     H 8186   3.845   8.364   3.233 -1.0959  0.9593  0.7741
   61MOL0     H 8187   4.083   8.226   3.091  1.6305 -0.1396  2.0272
   61MOL0     H 8188   3.982   8.360   3.016  0.3015 -1.3203 -1.4721
   61MOL0     H 8189   4.156   8.502   2.959  2.1042 -0.1248  2.2680
   61MOL0     H 8190   4.267   8.400   3.053  0.1178  0.4031  0.8426
   61MOL0     H 8191   4.296   8.246   2.863 -1.5698 -1.5855 -2.9830
   61MOL0     H 8192   4.248   8.394   2.787  0.4572  0.5394  0.4191
   61MOL0     H 8193   4.002   8.244   2.830  0.4402  1.1075 -0.2111
   61MOL0     H 8194   4.132   8.131   2.772  1.6389  0.5932 -1.4578
   61MOL0     H 8195   3.880   8.411   2.830  0.7332 -0.9835 -0.3503
   61MOL0     H 8196   3.720   8.573   2.762 -0.3332 -2.2653  0.3066
   61MOL0     H 8197   3.475   8.656   2.389 -0.2086 -1.0889  2.5606
   61MOL0     H 8198   3.237   8.718   2.337 -1.5833  3.1322 -2.3453
   61MOL0     H 8199   3.024   9.080   2.560  3.4093  0.8094  1.2389
   61MOL0     H 8200   3.160   9.115   2.445  0.7486 -1.6497 -2.5341
   61MOL0     H 8201   2.919   9.173   2.360 -2.2736 -1.1142  2.5847
   61MOL0     H 8202   3.004   9.081   2.251 -0.2000  1.9228 -0.5392
   61MOL0     H 8203   2.867   8.878   2.322  0.5705  0.7572 -2.4465
   61MOL0     H 8204   2.828   8.959   2.479 -1.5105 -1.2370 -0.5401
   61MOL0     H 8205   2.746   9.071   2.213 -2.7629 -0.1836 -0.3890
   61MOL0     H 8206   2.700   9.126   2.375 -1.2353 -0.1418 -0.2825
   61MOL0     H 8207   2.607   8.890   2.398 -0.0356 -0.3990 -0.1792
   61MOL0     H 8208   2.646   8.885   2.221  3.1921  3.0892 -0.4668
   61MOL0     H 8209   2.444   9.061   2.365 -0.8788  0.8453  0.0373
   61MOL0     H 8210   2.473   9.065   2.181 -0.7128 -3.3128 -1.9968
   61MOL0     H 8211   2.413   8.839   2.158 -2.9841 -1.1210 -0.5068
   61MOL0     H 8212   2.282   8.941   2.206 -0.2271 -2.3710 -2.1887
   61MOL0     H 8213   2.408   8.728   2.390 -1.2169 -0.8096  2.2823
   61MOL0     H 8214   2.319   8.861   2.456 -2.8706 -0.9017  0.6429
   61MOL0     H 8215   3.262   9.028   2.647  2.2004  0.9879  1.1600
   61MOL0     H 8216   3.472   8.941   2.720  0.3513  3.5948 -2.1075
   61MOL0     H 8217   3.883   8.589   2.369 -1.7191  1.3653  0.2165
   61MOL0     H 8218   4.084   8.443   2.457 -2.4406 -1.2972 -2.9302
   61MOL0     H 8219   3.400   9.312   3.744 -1.4008 -0.6188  1.5195
   61MOL0     H 8220   3.171   9.334   3.743 -0.6500  2.2476  0.5934
   61MOL0     H 8221   2.721   9.554   3.745 -1.1912 -1.6614  1.8988
   61MOL0     H 8222   2.494   9.547   3.720 -0.6744 -2.5038  2.0331
   61MOL0     H 8223   2.317   9.267   3.436 -3.6897 -0.6869 -2.9342
   61MOL0     H 8224   2.285   9.417   3.348 -5.0156 -0.3090  0.2195
   61MOL0     H 8225   2.101   9.460   3.484 -1.5928 -0.8021  1.8801
   61MOL0     H 8226   2.136   9.316   3.590 -1.0124  1.2108  1.1797
   61MOL0     H 8227   2.137   9.198   3.359 -0.5463 -1.6532  2.1474
   61MOL0     H 8228   2.040   9.331   3.300 -2.9953 -1.3347 -0.6337
   61MOL0     H 8229   1.871   9.184   3.365 -0.6602 -1.3188  1.2814
   61MOL0     H 8230   1.931   9.146   3.516 -0.9113 -2.1081 -1.6422
   61MOL0     H 8231   1.706   9.507   3.552 -0.6580 -1.2305 -0.0364
   61MOL0     H 8232   2.522   9.342   3.349 -1.8114 -1.5037  1.5470
   61MOL0     H 8233   2.725   9.237   3.288 -1.3244  0.5391  1.2259
   61MOL0     H 8234   2.858   9.360   3.308 -2.3702  1.0918  0.3356
   61MOL0     H 8235   2.854   9.222   3.414 -1.8900 -1.0884  1.8911
   62MOL0     O 8236   5.320   9.214   4.243 -0.3453  0.1249  0.4418
   62MOL0     C 8237   5.381   9.268   4.147  0.1844  0.0193  0.2905
   62MOL0     O 8238   5.336   9.330   4.034  0.2716  0.6941 -0.2959
   62MOL0     C 8239   5.206   9.374   4.015  0.4510 -0.3635 -0.0955
   62MOL0     C 8240   5.194   9.504   3.974 -0.1250  0.0364  0.0234
   62MOL0     C 8241   5.071   9.565   3.963  0.3129 -0.2134 -0.1503
   62MOL0     C 8242   4.952   9.502   4.009  0.3842  0.2780 -0.0265
   62MOL0     O 8243   4.825   9.561   4.015 -0.5113  0.0179 -0.0643
   62MOL0     C 8244   4.794   9.673   3.925 -0.1335 -0.3075 -0.8458
   62MOL0     C 8245   4.658   9.739   3.966  0.3845  0.3958 -0.0439
   62MOL0     C 8246   4.537   9.647   3.984  0.5350  0.5365 -0.4040
   62MOL0     C 8247   4.527   9.547   3.870 -0.7594 -0.6114 -0.1106
   62MOL0     C 8248   4.396   9.470   3.879 -0.2931 -0.1244 -0.1181
   62MOL0     C 8249   4.374   9.369   3.995 -0.0020  0.4986  0.1095
   62MOL0     C 8250   4.479   9.258   3.972 -1.2255 -0.2636 -0.1216
   62MOL0     C 8251   4.605   9.274   4.066 -0.4397 -0.3317  0.7040
   62MOL0     N 8252   4.582   9.238   4.211  0.0761  0.1505 -0.0973
   62MOL0     C 8253   4.533   9.327   4.296 -0.2485  0.7255 -0.4889
   62MOL0     C 8254   4.520   9.255   4.412  0.1827  1.3890  0.3957
   62MOL0     C 8255   4.515   9.319   4.545  0.8203 -0.8006 -0.9326
   62MOL0     C 8256   4.652   9.318   4.626 -0.4713 -1.4318  0.4084
   62MOL0     C 8257   4.775   9.393   4.582  0.5263  0.2333  0.2331
   62MOL0     C 8258   4.852   9.448   4.699  0.0624 -0.1944 -0.1744
   62MOL0     O 8259   4.896   9.350   4.796  0.1986  0.6273 -0.1666
   62MOL0     C 8260   5.023   9.284   4.777 -1.0151  0.1698 -0.0041
   62MOL0     C 8261   5.100   9.291   4.661 -0.8250 -0.3837  0.3792
   62MOL0     C 8262   5.229   9.240   4.662 -0.4233 -0.1304 -0.7411
   62MOL0     C 8263   5.286   9.173   4.777 -0.0306 -0.5381  0.0103
   62MOL0     C 8264   5.427   9.137   4.785 -0.3074  0.6478 -0.5913
   62MOL0     O 8265   5.464   9.045   4.886  0.2690 -0.7620  0.9100
   62MOL0     C 8266   5.592   9.011   4.893 -0.6301  0.4339 -0.6187
   62MOL0     C 8267   5.699   9.099   4.901 -0.8781 -0.2315  0.1566
   62MOL0     C 8268   5.830   9.052   4.912  0.0134 -0.4434 -0.8494
   62MOL0     C 8269   5.862   8.918   4.914  0.2978 -0.6850  0.0104
   62MOL0     O 8270   5.991   8.861   4.907  0.0231 -0.5776  0.2160
   62MOL0     C 8271   6.107   8.943   4.869  1.8494 -0.0147  0.2617
   62MOL0     C 8272   6.228   8.851   4.866 -0.5285  0.3246 -0.6377
   62MOL0     C 8273   6.357   8.933   4.857 -0.3608 -0.0640 -0.3123
   62MOL0     C 8274   6.486   8.833   4.839 -0.0257 -0.2478 -0.8244
   62MOL0     C 8275   6.583   8.884   4.732 -0.4247 -0.8274 -0.3510
   62MOL0     C 8276   6.712   8.803   4.717 -0.2841  0.7914 -0.6989
   62MOL0     C 8277   6.820   8.879   4.640  0.6116 -0.0947 -0.9907
   62MOL0     C 8278   6.920   8.787   4.583 -0.3883  0.1703  0.2865
   62MOL0    Cl 8279   7.014   8.713   4.730  0.3542  0.0316 -0.3036
   62MOL0     C 8280   5.750   8.829   4.920 -1.3850 -0.1968 -0.0077
   62MOL0     C 8281   5.619   8.872   4.920 -0.7232 -0.3008 -0.3321
   62MOL0     O 8282   5.502   9.172   4.688  0.3564  0.3592 -0.1797
   62MOL0     C 8283   5.199   9.160   4.891  0.1783  0.8283  0.3672
   62MOL0     C 8284   5.077   9.223   4.891  0.1726 -0.4813  0.3907
   62MOL0     N 8285   4.560   9.130   4.390  0.6461  0.5438 -0.0605
   62MOL0     N 8286   4.588   9.118   4.264  0.7892  0.4832 -0.3427
   62MOL0     C 8287   4.968   9.369   4.055  0.2687 -0.1249  0.1690
   62MOL0     C 8288   5.090   9.305   4.056  0.6899  0.5649  0.2189
   62MOL0     C 8289   5.525   9.240   4.140 -0.0933 -0.9060 -0.8251
   62MOL0     C 8290   5.588   9.224   4.021 -0.8409 -0.3321  1.3471
   62MOL0     C 8291   5.731   9.202   4.008 -0.0692  1.1318 -0.0660
   62MOL0     C 8292   5.814   9.201   4.120 -0.1801 -0.2810 -0.3373
   62MOL0     O 8293   5.948   9.173   4.098  0.0250 -0.1573  0.0546
   62MOL0     C 8294   6.051   9.192   4.191 -1.0515  0.1174 -0.7509
   62MOL0     C 8295   6.096   9.343   4.191 -0.3720  0.3686 -0.0901
   62MOL0     C 8296   6.236   9.356   4.247  1.5662  0.1345  0.5045
   62MOL0     C 8297   6.343   9.316   4.146  0.0599  0.5378  0.0248
   62MOL0     C 8298   6.473   9.316   4.223 -0.9925 -0.3831 -0.1074
   62MOL0     C 8299   6.573   9.311   4.283 -0.0241 -0.3263 -0.4204
   62MOL0     C 8300   5.755   9.224   4.243  0.7800 -1.1660  0.5948
   62MOL0     C 8301   5.607   9.238   4.259 -1.3783  0.0725  0.1389
   62MOL0     C 8302   5.553   9.243   4.396  0.1595  0.2716 -0.0238
   62MOL0     H 8303   5.283   9.557   3.940  0.2999  0.3916  1.6326
   62MOL0     H 8304   5.078   9.665   3.921 -1.2598  0.1394  0.3434
   62MOL0     H 8305   4.872   9.748   3.946 -0.7257  0.4781 -1.4001
   62MOL0     H 8306   4.796   9.637   3.822 -0.3282  0.1814 -1.0250
   62MOL0     H 8307   4.629   9.821   3.900  1.4660  1.4570  0.7570
   62MOL0     H 8308   4.669   9.780   4.067 -0.1738 -1.2287  0.7081
   62MOL0     H 8309   4.450   9.712   3.973  0.3777  0.0119 -2.9617
   62MOL0     H 8310   4.538   9.598   4.082  1.6855 -0.1248 -0.7215
   62MOL0     H 8311   4.530   9.601   3.775  3.0226 -1.1782 -0.4857
   62MOL0     H 8312   4.615   9.482   3.869  0.2059  0.6188  1.0854
   62MOL0     H 8313   4.317   9.546   3.876 -0.2379 -0.0910 -0.8992
   62MOL0     H 8314   4.382   9.412   3.787  2.0590  0.2484 -0.7786
   62MOL0     H 8315   4.387   9.401   4.099 -0.5242 -1.0400  0.6708
   62MOL0     H 8316   4.270   9.337   3.983  0.5994 -2.0907  1.1300
   62MOL0     H 8317   4.507   9.256   3.866 -2.3607 -0.6704 -0.4287
   62MOL0     H 8318   4.442   9.159   3.999 -1.5773  0.0624  0.6141
   62MOL0     H 8319   4.673   9.201   4.020  1.4274  0.9621  1.3186
   62MOL0     H 8320   4.642   9.376   4.061 -2.2311  0.3256 -2.9190
   62MOL0     H 8321   4.514   9.430   4.266  0.5642  0.9894 -0.1169
   62MOL0     H 8322   4.468   9.416   4.527  0.6436 -1.2400 -3.0675
   62MOL0     H 8323   4.455   9.252   4.607  3.6230 -1.0476  1.7883
   62MOL0     H 8324   4.636   9.344   4.731 -0.3353 -0.2114  0.1354
   62MOL0     H 8325   4.674   9.211   4.629  0.8519 -1.2386 -1.0804
   62MOL0     H 8326   4.743   9.479   4.523 -0.4196  1.0006  1.8163
   62MOL0     H 8327   4.849   9.335   4.525  2.9793  1.2098  2.1899
   62MOL0     H 8328   4.795   9.533   4.738  0.7083  0.7942 -1.3190
   62MOL0     H 8329   4.939   9.504   4.664  0.3091 -0.1089  0.5628
   62MOL0     H 8330   5.069   9.353   4.577  1.7313  1.4199  0.6224
   62MOL0     H 8331   5.303   9.273   4.589  0.5112  0.9516  0.6524
   62MOL0     H 8332   5.681   9.204   4.919  4.4668  0.3750  4.3157
   62MOL0     H 8333   5.901   9.133   4.929  0.2380 -0.7924 -0.1099
   62MOL0     H 8334   6.081   8.982   4.770 -1.8859  0.6438  1.3295
   62MOL0     H 8335   6.115   9.030   4.935 -1.2348  0.9776 -0.4820
   62MOL0     H 8336   6.218   8.796   4.960 -0.5852  3.4057  1.3217
   62MOL0     H 8337   6.218   8.795   4.773 -1.1885 -2.5632  1.0651
   62MOL0     H 8338   6.353   9.005   4.775  0.4599 -0.6386 -0.8753
   62MOL0     H 8339   6.381   8.996   4.943  0.5378 -0.6333 -0.1301
   62MOL0     H 8340   6.448   8.737   4.804  0.0060 -1.1119  1.3649
   62MOL0     H 8341   6.525   8.811   4.939  1.8730 -1.1304 -1.7130
   62MOL0     H 8342   6.606   8.987   4.760  0.1649 -0.6662 -1.3617
   62MOL0     H 8343   6.541   8.889   4.631 -1.7241 -0.5728  0.1777
   62MOL0     H 8344   6.753   8.798   4.818  0.7807  3.1242 -0.9686
   62MOL0     H 8345   6.705   8.704   4.671 -0.1491  0.8989 -0.9544
   62MOL0     H 8346   6.871   8.955   4.700  0.1032 -1.3850  1.1596
   62MOL0     H 8347   6.779   8.938   4.557  1.1409  0.1438 -1.0904
   62MOL0     H 8348   6.871   8.706   4.529  0.5656 -1.6821  2.0370
   62MOL0     H 8349   6.990   8.841   4.518 -0.9053 -0.0139 -0.4299
   62MOL0     H 8350   5.783   8.726   4.917  2.4080  0.7900  1.5580
   62MOL0     H 8351   5.539   8.798   4.914  1.3904 -2.6980 -0.9700
   62MOL0     H 8352   5.232   9.114   4.984 -1.0592 -3.0730 -0.9383
   62MOL0     H 8353   5.016   9.224   4.981  0.4536 -0.2738  0.5771
   62MOL0     H 8354   4.882   9.315   4.093  1.0272 -3.0600 -1.9189
   62MOL0     H 8355   5.098   9.204   4.094  0.7849 -0.4711 -2.3342
   62MOL0     H 8356   5.543   9.229   3.922 -1.8629 -1.2707  1.7517
   62MOL0     H 8357   5.780   9.175   3.915 -0.7360 -1.4432  0.2317
   62MOL0     H 8358   6.130   9.122   4.164 -0.9133 -0.2944  0.6379
   62MOL0     H 8359   6.037   9.161   4.295  0.4415 -1.2100 -0.9127
   62MOL0     H 8360   6.018   9.396   4.247 -0.5023 -0.2225  0.3007
   62MOL0     H 8361   6.100   9.383   4.090  2.5158  1.0143  0.1796
   62MOL0     H 8362   6.251   9.311   4.345 -1.0485 -1.0803  0.4270
   62MOL0     H 8363   6.247   9.463   4.264 -0.3724  0.1852  1.6430
   62MOL0     H 8364   6.307   9.220   4.109 -1.8782  0.5586  1.7095
   62MOL0     H 8365   6.345   9.395   4.071 -1.0415  1.6471  1.1124
   62MOL0     H 8366   6.661   9.291   4.341 -1.1375 -1.8513  0.8320
   62MOL0     H 8367   5.827   9.215   4.324  1.0694  0.0538  0.4815
   62MOL0     H 8368   5.635   9.230   4.467 -0.1885  0.4232  0.4068
   62MOL0     H 8369   5.491   9.333   4.402 -2.6173 -1.2744 -2.4634
   62MOL0     H 8370   5.482   9.160   4.400 -0.8683  0.8610 -2.9240
   63MOL0     O 8371   6.262   5.796  10.008 -0.2821 -0.1355  0.0891
   63MOL0     C 8372   6.181   5.873   9.940 -0.4051 -0.5085 -0.0281
   63MOL0     O 8373   6.055   5.900   9.976 -0.1576  0.4570  0.2502
   63MOL0     C 8374   5.997   5.856  10.094  0.3246 -0.2178  0.5102
   63MOL0     C 8375   6.052   5.824  10.213 -0.9078  0.1996 -0.0090
   63MOL0     C 8376   5.979   5.762  10.321  0.1470 -0.0455 -0.2354
   63MOL0     C 8377   5.838   5.749  10.300  0.5363  0.6436 -0.1767
   63MOL0     O 8378   5.753   5.688  10.389  0.2738  0.0671  0.9148
   63MOL0     C 8379   5.809   5.616  10.500 -0.8294  0.0830  1.0599
   63MOL0     C 8380   5.696   5.563  10.579  0.2026  0.2753  0.1242
   63MOL0     C 8381   5.741   5.457  10.682  0.7572 -0.8705  0.3868
   63MOL0     C 8382   5.637   5.349  10.706  0.1004 -0.8071  1.4678
   63MOL0     C 8383   5.509   5.403  10.762 -0.0569  0.0460  0.3410
   63MOL0     C 8384   5.417   5.278  10.801 -0.5387 -0.5222  0.0149
   63MOL0     C 8385   5.340   5.316  10.931  0.1788 -0.6295 -0.5237
   63MOL0     C 8386   5.242   5.426  10.887  0.8202 -1.3492  0.5536
   63MOL0     N 8387   5.120   5.367  10.814 -0.3347 -0.3498  0.8024
   63MOL0     C 8388   5.116   5.327  10.683  0.3946 -0.7662  0.6808
   63MOL0     C 8389   4.987   5.274  10.666  0.1447  0.5728  0.8742
   63MOL0     C 8390   4.931   5.224  10.540  0.1721  0.3078 -0.2088
   63MOL0     C 8391   4.864   5.342  10.467  0.0864  0.2023  0.3028
   63MOL0     C 8392   4.854   5.315  10.310 -1.5270 -0.5177 -0.3100
   63MOL0     C 8393   4.995   5.329  10.232  0.1923  0.4547 -0.0218
   63MOL0     O 8394   5.011   5.209  10.156 -0.0632  0.2875  0.4004
   63MOL0     C 8395   5.128   5.158  10.105 -0.0387  0.7393  0.6512
   63MOL0     C 8396   5.254   5.212  10.116  0.8574  0.9452 -0.2348
   63MOL0     C 8397   5.360   5.137  10.052  0.0460  0.1109 -0.3933
   63MOL0     C 8398   5.350   5.019   9.981 -0.8135 -0.6094  0.6801
   63MOL0     C 8399   5.462   4.946   9.923 -0.4839 -0.5414  0.9847
   63MOL0     O 8400   5.431   4.824   9.872 -0.6338 -0.7202  0.3168
   63MOL0     C 8401   5.544   4.742   9.858 -0.4876 -0.2710  0.5460
   63MOL0     C 8402   5.594   4.730   9.736 -0.8073  0.2092 -0.4556
   63MOL0     C 8403   5.710   4.656   9.713  0.7601 -0.1517 -0.8387
   63MOL0     C 8404   5.762   4.573   9.811  0.0651  0.8854 -0.6566
   63MOL0     O 8405   5.858   4.479   9.785  0.4370  0.0146  0.2267
   63MOL0     C 8406   5.969   4.463   9.865  0.7754 -0.0633  0.9315
   63MOL0     C 8407   6.044   4.588   9.920 -0.4657 -0.2501  0.1012
   63MOL0     C 8408   6.137   4.528  10.028  0.2362 -0.9220 -0.4194
   63MOL0     C 8409   6.205   4.641  10.104  0.3204  0.4987  0.5822
   63MOL0     C 8410   6.310   4.596  10.207  0.0720  0.0155  0.7097
   63MOL0     C 8411   6.339   4.707  10.297  0.0185  0.0488  0.2528
   63MOL0     C 8412   6.421   4.650  10.415  0.3249 -0.5449 -0.3970
   63MOL0     C 8413   6.468   4.763  10.509 -0.5633  0.0107  0.4071
   63MOL0    Cl 8414   6.579   4.880  10.447  0.2846 -0.6071 -0.0036
   63MOL0     C 8415   5.710   4.586   9.940 -1.3542  0.3380  0.2001
   63MOL0     C 8416   5.601   4.672   9.961 -0.0149  0.0314  0.0383
   63MOL0     O 8417   5.566   5.011   9.914 -0.3851 -0.0433  0.7171
   63MOL0     C 8418   5.217   4.971   9.975  0.1135  0.1549  0.0558
   63MOL0     C 8419   5.108   5.041  10.027  0.0476 -0.0090 -0.3958
   63MOL0     N 8420   4.918   5.292  10.787  0.2432  0.3239 -0.0593
   63MOL0     N 8421   4.998   5.356  10.871  0.2512 -0.2869 -0.5881
   63MOL0     C 8422   5.776   5.791  10.187 -0.0645 -0.1479  0.5318
   63MOL0     C 8423   5.857   5.842  10.078 -1.2098  0.3538  0.6911
   63MOL0     C 8424   6.230   5.928   9.808  1.2658 -0.2138 -0.4819
   63MOL0     C 8425   6.364   5.896   9.775  0.0463  0.3298 -0.1919
   63MOL0     C 8426   6.421   5.941   9.660 -0.3826 -0.5671 -0.1573
   63MOL0     C 8427   6.355   6.032   9.578  0.0524  0.8135  0.8491
   63MOL0     O 8428   6.410   6.080   9.459 -0.7490  0.5622 -0.8788
   63MOL0     C 8429   6.559   6.082   9.451 -0.4691  0.3383 -0.3898
   63MOL0     C 8430   6.603   6.196   9.366 -0.1420  0.2105  0.8896
   63MOL0     C 8431   6.589   6.336   9.435  0.5002 -0.2922  0.4987
   63MOL0     C 8432   6.620   6.454   9.344  0.4225 -0.6160 -0.0957
   63MOL0     C 8433   6.569   6.585   9.398 -0.2312  1.1383 -0.5683
   63MOL0     C 8434   6.537   6.691   9.451 -0.5398  0.0892  0.5358
   63MOL0     C 8435   6.219   6.056   9.605 -0.7669  0.5656 -0.2058
   63MOL0     C 8436   6.148   6.008   9.715  0.4117 -0.0415  0.0039
   63MOL0     C 8437   6.013   6.046   9.729  0.7411  0.1715  0.7100
   63MOL0     H 8438   6.154   5.851  10.236 -2.6844  5.1623  3.6068
   63MOL0     H 8439   6.027   5.723  10.410 -2.5289 -2.7267  0.1960
   63MOL0     H 8440   5.868   5.534  10.457 -1.0692  0.3446  0.2079
   63MOL0     H 8441   5.868   5.670  10.575  1.5064 -2.8919  1.5480
   63MOL0     H 8442   5.625   5.515  10.511 -2.7423  0.0343  3.0865
   63MOL0     H 8443   5.651   5.655  10.619 -2.0432 -0.3087 -0.8683
   63MOL0     H 8444   5.759   5.517  10.771 -0.4150  1.2804 -0.7493
   63MOL0     H 8445   5.831   5.404  10.650  1.1911  0.7319 -1.1803
   63MOL0     H 8446   5.625   5.298  10.610 -0.4100 -2.3177  2.3026
   63MOL0     H 8447   5.684   5.278  10.774  3.6631  1.5510  1.7413
   63MOL0     H 8448   5.534   5.459  10.853  0.4286  0.3856  0.0023
   63MOL0     H 8449   5.453   5.464  10.691  0.4335 -1.3045 -1.2598
   63MOL0     H 8450   5.360   5.255  10.711  0.7274  0.0042 -0.9532
   63MOL0     H 8451   5.472   5.185  10.819  0.8566  0.3987  0.7164
   63MOL0     H 8452   5.404   5.354  11.011 -0.6855 -0.5352  0.1440
   63MOL0     H 8453   5.282   5.229  10.965 -0.3435 -2.0090 -4.4519
   63MOL0     H 8454   5.203   5.480  10.973 -1.1354 -1.1399 -0.4111
   63MOL0     H 8455   5.279   5.504  10.821  0.6023 -2.5672 -1.0886
   63MOL0     H 8456   5.199   5.333  10.612  1.3844  0.0055  1.8635
   63MOL0     H 8457   5.000   5.169  10.475  0.0817 -0.0050 -0.0395
   63MOL0     H 8458   4.842   5.165  10.564 -0.9442  2.7630  2.2339
   63MOL0     H 8459   4.761   5.346  10.505 -0.1810 -0.5993 -0.2883
   63MOL0     H 8460   4.918   5.433  10.494 -0.8428  0.4372  1.4660
   63MOL0     H 8461   4.786   5.392  10.274 -1.3442  0.2044  0.8094
   63MOL0     H 8462   4.823   5.211  10.298  1.9003 -1.7930  0.6818
   63MOL0     H 8463   5.075   5.350  10.303 -1.4086 -0.6853  2.2758
   63MOL0     H 8464   4.994   5.410  10.159 -3.2490 -0.6585 -1.4321
   63MOL0     H 8465   5.264   5.307  10.167 -3.0606  1.4608 -0.1133
   63MOL0     H 8466   5.460   5.179  10.059  0.1639 -0.5095  2.7323
   63MOL0     H 8467   5.551   4.788   9.655  3.3258  2.9126 -1.0126
   63MOL0     H 8468   5.744   4.648   9.610  0.0322  2.9826 -1.4208
   63MOL0     H 8469   5.941   4.400   9.950 -1.3241  0.3642  0.6148
   63MOL0     H 8470   6.045   4.402   9.815  1.1335  0.1082  1.2609
   63MOL0     H 8471   6.099   4.637   9.839 -0.1052 -3.3690 -1.7021
   63MOL0     H 8472   5.973   4.662   9.957 -0.1809  0.1322 -0.1033
   63MOL0     H 8473   6.069   4.473  10.094 -2.1154  0.7056 -1.3642
   63MOL0     H 8474   6.215   4.473   9.975  0.6346  1.2212 -2.2104
   63MOL0     H 8475   6.121   4.687  10.155  1.7006  0.0323  3.4557
   63MOL0     H 8476   6.252   4.715  10.038  0.7691 -1.0764 -0.9564
   63MOL0     H 8477   6.400   4.577  10.148 -1.1627  4.2857 -3.1387
   63MOL0     H 8478   6.270   4.507  10.256  0.5979  0.4246  1.9287
   63MOL0     H 8479   6.392   4.787  10.244 -2.2327  2.7238  1.7410
   63MOL0     H 8480   6.252   4.757  10.341  0.7598  3.1249 -1.4519
   63MOL0     H 8481   6.509   4.597  10.377  1.0760  1.8435 -2.3084
   63MOL0     H 8482   6.357   4.579  10.467  0.9708 -0.6349  0.2927
   63MOL0     H 8483   6.377   4.813  10.545  0.2801  1.0851  1.1023
   63MOL0     H 8484   6.519   4.715  10.593 -0.8085 -0.0559  0.5192
   63MOL0     H 8485   5.745   4.535  10.029 -0.8380 -1.7956 -1.1258
   63MOL0     H 8486   5.565   4.661  10.063 -1.4114  2.2435 -0.1391
   63MOL0     H 8487   5.205   4.868   9.941  2.2223 -0.0349 -0.2560
   63MOL0     H 8488   5.002   5.020  10.016  0.5134 -1.6970 -1.9821
   63MOL0     H 8489   5.667   5.793  10.178 -0.0356  0.7007  0.2481
   63MOL0     H 8490   5.812   5.879   9.987 -0.6509 -2.4318 -0.8442
   63MOL0     H 8491   6.418   5.827   9.840 -0.3256 -0.0443 -0.2748
   63MOL0     H 8492   6.522   5.905   9.642  0.9923  1.6518  2.4905
   63MOL0     H 8493   6.598   5.996   9.395  0.5275 -0.3264  1.2457
   63MOL0     H 8494   6.616   6.084   9.545 -0.1631 -1.7080 -0.4957
   63MOL0     H 8495   6.539   6.198   9.277  1.9924  2.0541 -0.7387
   63MOL0     H 8496   6.699   6.178   9.317 -0.5323  1.3561 -0.3571
   63MOL0     H 8497   6.640   6.348   9.531 -2.0164 -0.4750  1.9645
   63MOL0     H 8498   6.486   6.338   9.472  0.7992  0.8395  1.3505
   63MOL0     H 8499   6.728   6.458   9.325  0.2583 -1.5671 -1.3867
   63MOL0     H 8500   6.584   6.442   9.242  2.0236  0.2434 -0.7930
   63MOL0     H 8501   6.515   6.790   9.485 -1.5779 -0.4711  1.5561
   63MOL0     H 8502   6.182   6.116   9.523 -1.3017 -1.7149 -1.7370
   63MOL0     H 8503   5.977   6.099   9.640 -0.3243  0.1375  1.1058
   63MOL0     H 8504   5.952   5.956   9.737 -0.2206  0.8359  1.0264
   63MOL0     H 8505   6.002   6.105   9.820 -2.2031 -3.8074  3.2429
   64MOL0     O 8506   7.465   3.144  10.382  0.5779  0.3887 -0.6953
   64MOL0     C 8507   7.424   3.261  10.369 -0.0500 -0.2206 -0.7545
   64MOL0     O 8508   7.357   3.302  10.260  0.2243 -0.6991  0.4777
   64MOL0     C 8509   7.355   3.233  10.143  0.0363  0.3202  0.4783
   64MOL0     C 8510   7.473   3.173  10.098 -0.4601 -0.0752  0.5398
   64MOL0     C 8511   7.481   3.099   9.983 -1.0343  0.3326 -0.7629
   64MOL0     C 8512   7.368   3.069   9.912  0.0879  0.8984  0.7083
   64MOL0     O 8513   7.358   3.004   9.791  0.4902  0.1461  0.3999
   64MOL0     C 8514   7.459   2.916   9.740  0.0699  0.4063  0.3353
   64MOL0     C 8515   7.438   2.866   9.594  0.6230 -1.2643 -0.4167
   64MOL0     C 8516   7.558   2.777   9.553  0.6996 -0.5510 -0.9990
   64MOL0     C 8517   7.540   2.724   9.413 -0.7407  0.1675  0.2417
   64MOL0     C 8518   7.665   2.641   9.375  0.9574  0.4325  0.2145
   64MOL0     C 8519   7.803   2.706   9.364 -0.1267 -0.2725  0.1289
   64MOL0     C 8520   7.912   2.600   9.332 -0.0455 -0.0564  0.2494
   64MOL0     C 8521   8.046   2.662   9.299  0.0355  0.7192 -0.0770
   64MOL0     N 8522   8.105   2.722   9.420 -0.6777  0.0688 -0.1174
   64MOL0     C 8523   8.175   2.666   9.518  0.8345 -0.0780 -0.1140
   64MOL0     C 8524   8.203   2.768   9.603 -0.4106 -0.1759 -0.9185
   64MOL0     C 8525   8.265   2.752   9.742  0.3100  0.9368  0.1797
   64MOL0     C 8526   8.406   2.691   9.737 -0.4504 -0.6508  0.9246
   64MOL0     C 8527   8.450   2.665   9.887 -0.8398  0.3428 -0.8115
   64MOL0     C 8528   8.594   2.606   9.890  0.4915 -1.0757 -0.0728
   64MOL0     O 8529   8.635   2.583  10.021 -0.1110 -0.7506 -0.3320
   64MOL0     C 8530   8.763   2.543  10.042 -0.2247 -0.0962 -1.1649
   64MOL0     C 8531   8.863   2.532   9.944  0.2260  0.8648  0.1182
   64MOL0     C 8532   8.991   2.507   9.978  0.1827 -1.1125  0.1431
   64MOL0     C 8533   9.027   2.482  10.110  0.1637 -0.0005 -0.1483
   64MOL0     C 8534   9.169   2.462  10.144 -0.0419 -0.4032 -0.0012
   64MOL0     O 8535   9.259   2.472  10.046  0.0324 -0.1117  0.3764
   64MOL0     C 8536   9.390   2.457  10.071 -0.1668  0.0812 -0.1233
   64MOL0     C 8537   9.455   2.333  10.072  0.8852 -0.9565 -0.1941
   64MOL0     C 8538   9.593   2.340  10.081 -0.5634 -0.3043 -0.3142
   64MOL0     C 8539   9.669   2.453  10.065 -0.1883 -0.2256 -0.3977
   64MOL0     O 8540   9.807   2.455  10.053  1.0772 -0.1536  0.6853
   64MOL0     C 8541   9.880   2.327  10.045  0.6653  0.5490 -1.3416
   64MOL0     C 8542  10.017   2.356   9.992 -0.5461  0.0345 -0.3687
   64MOL0     C 8543  10.111   2.236   9.968 -0.0009  0.3437 -0.4782
   64MOL0     C 8544  10.080   2.156   9.842 -0.2897  0.1266 -0.2880
   64MOL0     C 8545  10.147   2.015   9.837  0.5717  0.2772  0.0615
   64MOL0     C 8546  10.122   1.938   9.703 -0.0154 -0.2392 -0.3436
   64MOL0     C 8547  10.196   1.812   9.687 -0.3344  0.2234 -0.2183
   64MOL0     C 8548  10.350   1.836   9.679  0.4112  0.2641  0.3713
   64MOL0    Cl 8549  10.420   1.685   9.612 -0.2955 -0.1344 -0.5351
   64MOL0     C 8550   9.598   2.577  10.056  0.2402  0.2311 -0.2542
   64MOL0     C 8551   9.465   2.572  10.057  0.5280  0.2644  0.1334
   64MOL0     O 8552   9.200   2.426  10.257  0.2574  0.6596  0.2031
   64MOL0     C 8553   8.935   2.496  10.210 -0.6077  0.2583  0.4970
   64MOL0     C 8554   8.797   2.517  10.177 -0.2655 -0.2617 -0.1562
   64MOL0     N 8555   8.151   2.881   9.551 -0.4630  0.1024 -0.4479
   64MOL0     N 8556   8.100   2.859   9.437  0.3434  0.3461  0.1151
   64MOL0     C 8557   7.251   3.136   9.957  0.3908 -0.1751  0.4623
   64MOL0     C 8558   7.245   3.218  10.067  0.4308  0.5428 -0.2919
   64MOL0     C 8559   7.427   3.345  10.492  0.2003 -0.0098  1.0120
   64MOL0     C 8560   7.406   3.480  10.476 -0.6014 -0.6465  0.3395
   64MOL0     C 8561   7.427   3.568  10.582 -0.3114 -0.1900 -0.7211
   64MOL0     C 8562   7.436   3.525  10.719  0.1201 -0.9860  0.3174
   64MOL0     O 8563   7.422   3.614  10.823  0.2034  0.4369 -0.8086
   64MOL0     C 8564   7.504   3.604  10.936 -0.5039 -0.2810 -0.5418
   64MOL0     C 8565   7.424   3.584  11.063 -0.0787  1.3538 -0.0925
   64MOL0     C 8566   7.352   3.447  11.086  0.5997 -0.5452  0.2663
   64MOL0     C 8567   7.262   3.429  11.203 -0.2153  0.7279  0.5299
   64MOL0     C 8568   7.318   3.477  11.330 -0.0459 -0.9916  0.5232
   64MOL0     C 8569   7.361   3.531  11.430 -0.6703 -0.1720  0.0641
   64MOL0     C 8570   7.445   3.387  10.734 -1.0723  0.6460  0.4083
   64MOL0     C 8571   7.445   3.297  10.625 -0.5643  0.0868 -0.4362
   64MOL0     C 8572   7.461   3.149  10.666 -0.4245  0.2538  0.5925
   64MOL0     H 8573   7.568   3.198  10.144  0.4720 -2.8162  0.3159
   64MOL0     H 8574   7.579   3.064   9.953 -0.0648  0.6146  1.8106
   64MOL0     H 8575   7.557   2.965   9.743  0.2328  0.0541  1.7119
   64MOL0     H 8576   7.472   2.831   9.807  2.1506 -0.3548 -0.9337
   64MOL0     H 8577   7.444   2.953   9.528 -2.1499 -0.4102  0.2936
   64MOL0     H 8578   7.341   2.818   9.582  0.6193 -1.1542 -0.8352
   64MOL0     H 8579   7.563   2.702   9.633 -1.7883 -0.4837 -0.7090
   64MOL0     H 8580   7.642   2.846   9.551  0.5194 -0.2565  0.4460
   64MOL0     H 8581   7.454   2.656   9.403 -0.6709  0.3363 -2.0089
   64MOL0     H 8582   7.523   2.803   9.339 -2.1325  1.3848  1.7973
   64MOL0     H 8583   7.678   2.558   9.446  1.7491 -0.5980 -1.0763
   64MOL0     H 8584   7.636   2.597   9.279 -2.9648  0.5303  1.1941
   64MOL0     H 8585   7.798   2.785   9.288  3.4375  0.3770  0.4169
   64MOL0     H 8586   7.838   2.752   9.457 -1.1115  1.1552 -0.1733
   64MOL0     H 8587   7.880   2.545   9.243  1.0524 -3.7372  1.9305
   64MOL0     H 8588   7.924   2.520   9.406  1.8680  0.1020  0.1514
   64MOL0     H 8589   8.118   2.590   9.258 -0.6036 -0.6775  1.1372
   64MOL0     H 8590   8.025   2.741   9.227 -1.5484 -1.2249 -1.8615
   64MOL0     H 8591   8.179   2.559   9.534 -1.5861  0.0282  1.8833
   64MOL0     H 8592   8.270   2.853   9.782 -1.4637  1.9591 -1.9578
   64MOL0     H 8593   8.199   2.700   9.812 -0.4474  0.7674 -0.6345
   64MOL0     H 8594   8.399   2.600   9.676  0.4501 -0.2024  0.1340
   64MOL0     H 8595   8.471   2.762   9.686  0.1383 -2.4521 -0.9748
   64MOL0     H 8596   8.373   2.599   9.930  0.6570 -1.1771 -0.3386
   64MOL0     H 8597   8.456   2.762   9.937 -0.0196  0.1692 -0.5623
   64MOL0     H 8598   8.672   2.666   9.843 -0.1646 -0.7428 -0.7551
   64MOL0     H 8599   8.585   2.518   9.825  2.4849 -1.3116 -0.0822
   64MOL0     H 8600   8.838   2.542   9.839 -4.2052  2.1153  1.0776
   64MOL0     H 8601   9.058   2.511   9.893  2.1531  1.6649  1.6400
   64MOL0     H 8602   9.397   2.241  10.080  1.7612 -1.5136 -0.1718
   64MOL0     H 8603   9.641   2.243  10.091 -0.8792 -0.6392 -1.8169
   64MOL0     H 8604   9.883   2.272  10.140  2.0644  1.7198 -0.6749
   64MOL0     H 8605   9.832   2.265   9.970 -0.3809 -0.3107 -0.0200
   64MOL0     H 8606  10.001   2.408   9.897  0.8647  1.1389 -0.0368
   64MOL0     H 8607  10.074   2.421  10.060  1.3258 -1.3654 -0.5260
   64MOL0     H 8608  10.219   2.253   9.973 -0.0117  0.0086  1.4303
   64MOL0     H 8609  10.084   2.167  10.047 -0.3329  1.3646  0.3258
   64MOL0     H 8610  10.116   2.220   9.761  4.0924  1.1518  2.1647
   64MOL0     H 8611   9.971   2.148   9.829 -0.3630  0.8386 -0.1495
   64MOL0     H 8612  10.111   1.948   9.915  1.8843 -2.9975 -1.9182
   64MOL0     H 8613  10.255   2.032   9.850  1.1019 -2.6724  0.2104
   64MOL0     H 8614  10.018   1.906   9.701 -0.6938  1.8161 -1.7118
   64MOL0     H 8615  10.148   1.994   9.612  0.3012 -0.1168 -0.1805
   64MOL0     H 8616  10.161   1.782   9.587 -2.3610  0.6412  0.3187
   64MOL0     H 8617  10.177   1.739   9.766  4.6190  1.0919  2.1276
   64MOL0     H 8618  10.379   1.917   9.611  0.0292 -2.0289 -2.7543
   64MOL0     H 8619  10.388   1.856   9.780  0.1442  1.7125  0.2057
   64MOL0     H 8620   9.653   2.671  10.056  1.2925 -0.3283  1.8263
   64MOL0     H 8621   9.415   2.668  10.052  2.2401  1.2209  0.4516
   64MOL0     H 8622   8.962   2.474  10.313 -0.6037 -2.7289 -0.0700
   64MOL0     H 8623   8.728   2.529  10.260 -0.3576 -1.9943  0.0623
   64MOL0     H 8624   7.152   3.120   9.917 -0.4886  1.2395  1.9069
   64MOL0     H 8625   7.149   3.260  10.096 -0.2089  0.0865 -1.6514
   64MOL0     H 8626   7.397   3.533  10.381 -0.5433  0.7798  1.0931
   64MOL0     H 8627   7.413   3.672  10.554  2.0013  0.6715  1.0496
   64MOL0     H 8628   7.581   3.680  10.951 -1.0530  0.5480 -1.7897
   64MOL0     H 8629   7.572   3.520  10.919 -2.7004 -2.3782  0.3661
   64MOL0     H 8630   7.340   3.654  11.068 -2.8386 -1.8029  1.4914
   64MOL0     H 8631   7.489   3.602  11.149  0.9567 -2.3335  0.0711
   64MOL0     H 8632   7.426   3.366  11.077  2.2752  0.8728  0.7211
   64MOL0     H 8633   7.293   3.447  10.994 -0.4885  3.2473  0.7968
   64MOL0     H 8634   7.169   3.483  11.179 -1.4419 -1.0819  1.0215
   64MOL0     H 8635   7.249   3.320  11.202  1.4777  0.4685 -1.6503
   64MOL0     H 8636   7.375   3.592  11.516  0.4560 -0.9485  0.4531
   64MOL0     H 8637   7.451   3.342  10.832 -0.2341  2.5476  1.3035
   64MOL0     H 8638   7.552   3.110  10.619 -1.3097  1.6178 -2.4527
   64MOL0     H 8639   7.467   3.141  10.775 -0.1113 -0.0503  0.5545
   64MOL0     H 8640   7.372   3.095  10.632 -1.4414  1.8051  0.7061
   65MOL0     O 8641   1.145   4.243   4.945 -0.1099 -0.1927  0.1251
   65MOL0     C 8642   1.087   4.332   5.006  1.2288 -0.6364  0.3061
   65MOL0     O 8643   1.134   4.457   5.011  0.0552  0.1445 -0.3053
   65MOL0     C 8644   1.241   4.494   4.929  0.2760 -0.4641  0.1809
   65MOL0     C 8645   1.215   4.544   4.803  0.0010 -0.6567 -0.8545
   65MOL0     C 8646   1.327   4.571   4.721  0.1664  0.5917  1.2798
   65MOL0     C 8647   1.456   4.539   4.755 -0.0905 -0.9793  0.2897
   65MOL0     O 8648   1.549   4.572   4.659 -0.2893 -0.5948 -0.3252
   65MOL0     C 8649   1.678   4.521   4.668 -0.0051  0.1503 -1.4896
   65MOL0     C 8650   1.749   4.539   4.536  0.0057 -0.1329  0.1658
   65MOL0     C 8651   1.895   4.498   4.534 -0.0540 -0.4641 -0.2494
   65MOL0     C 8652   1.963   4.523   4.397 -0.1200 -0.0999  0.2756
   65MOL0     C 8653   2.113   4.537   4.398 -0.3587  0.5876 -0.5494
   65MOL0     C 8654   2.190   4.402   4.424  0.0243  0.6045  0.7549
   65MOL0     C 8655   2.340   4.398   4.398  0.2846 -0.8697 -0.3504
   65MOL0     C 8656   2.364   4.411   4.252  0.4778  0.8710  0.5322
   65MOL0     N 8657   2.459   4.314   4.210 -0.3096  0.2985  0.9946
   65MOL0     C 8658   2.432   4.177   4.185 -0.0398  0.0852 -0.7765
   65MOL0     C 8659   2.538   4.133   4.113  0.3771 -0.1128 -0.2388
   65MOL0     C 8660   2.551   4.002   4.031  0.3799  0.7263  0.1049
   65MOL0     C 8661   2.445   3.897   4.066  0.0398 -0.5894 -0.1935
   65MOL0     C 8662   2.437   3.793   3.953 -0.6634 -0.3371  0.3909
   65MOL0     C 8663   2.320   3.708   3.983  0.4015 -0.1259  0.3828
   65MOL0     O 8664   2.212   3.784   3.928  0.3196  0.1115  0.6890
   65MOL0     C 8665   2.081   3.736   3.928 -0.7536  0.8390 -0.2228
   65MOL0     C 8666   1.990   3.812   3.852  1.0658 -0.0737 -0.0352
   65MOL0     C 8667   1.852   3.773   3.843 -0.2536  0.3139  0.0247
   65MOL0     C 8668   1.816   3.651   3.891 -0.1791  0.5186  0.1372
   65MOL0     C 8669   1.685   3.605   3.859  0.0437  0.9371  0.1650
   65MOL0     O 8670   1.684   3.472   3.838 -0.0148  0.4260  0.2270
   65MOL0     C 8671   1.567   3.404   3.795  0.3423 -0.2858  0.4217
   65MOL0     C 8672   1.580   3.292   3.709 -0.1034 -0.0657  0.8663
   65MOL0     C 8673   1.470   3.225   3.676  0.0342 -0.3057  0.1969
   65MOL0     C 8674   1.340   3.244   3.730 -0.1727  0.0187  0.1989
   65MOL0     O 8675   1.242   3.150   3.697  0.3458 -0.3098 -0.2296
   65MOL0     C 8676   1.102   3.190   3.695  0.0386  1.6561  0.0027
   65MOL0     C 8677   1.010   3.090   3.630  0.8029 -0.8650 -0.6697
   65MOL0     C 8678   0.873   3.141   3.587  0.5282  1.0373 -0.5370
   65MOL0     C 8679   0.801   3.022   3.512 -0.0482 -0.5301  0.8574
   65MOL0     C 8680   0.668   3.063   3.461  0.0844  0.1096  0.2336
   65MOL0     C 8681   0.600   2.954   3.377 -0.4521 -0.1189  0.2007
   65MOL0     C 8682   0.468   2.990   3.307  1.3812 -0.7216  0.3641
   65MOL0     C 8683   0.442   2.883   3.204  0.3727 -0.9532 -0.5567
   65MOL0    Cl 8684   0.447   2.720   3.281  0.1765 -0.1697 -0.0009
   65MOL0     C 8685   1.335   3.353   3.813  0.4376  0.7665 -0.1171
   65MOL0     C 8686   1.439   3.428   3.849 -0.5215  0.1420 -0.0766
   65MOL0     O 8687   1.592   3.680   3.830 -0.3053  1.0588  0.0921
   65MOL0     C 8688   1.906   3.569   3.969 -0.4511  0.3870 -0.4389
   65MOL0     C 8689   2.038   3.613   3.982 -0.7320 -0.2426 -0.4174
   65MOL0     N 8690   2.631   4.231   4.110  0.5213  0.2896  0.3781
   65MOL0     N 8691   2.587   4.332   4.171  0.0879 -0.4509  0.6323
   65MOL0     C 8692   1.478   4.473   4.876  0.3092 -1.2088 -0.2322
   65MOL0     C 8693   1.366   4.462   4.966 -1.1269 -1.0464  0.8322
   65MOL0     C 8694   0.952   4.302   5.073 -0.0036 -0.1919 -0.3292
   65MOL0     C 8695   0.857   4.405   5.077 -0.5120 -0.4351  0.2262
   65MOL0     C 8696   0.729   4.396   5.124  0.0357  0.5999 -0.6391
   65MOL0     C 8697   0.701   4.278   5.194  0.1237  0.5973 -0.7491
   65MOL0     O 8698   0.576   4.271   5.256 -0.4908 -0.2784  0.5833
   65MOL0     C 8699   0.573   4.190   5.374  0.6111 -1.0774  0.3893
   65MOL0     C 8700   0.479   4.255   5.478 -0.3956  0.3106 -0.0731
   65MOL0     C 8701   0.329   4.236   5.424  0.6821 -0.3387  0.2078
   65MOL0     C 8702   0.218   4.284   5.525 -0.7319  0.3250  0.3963
   65MOL0     C 8703   0.246   4.200   5.641  0.3806 -1.4031  0.0381
   65MOL0     C 8704   0.274   4.135   5.742 -0.1365  0.5559  0.8568
   65MOL0     C 8705   0.787   4.168   5.188  0.1601  1.0447 -0.7772
   65MOL0     C 8706   0.913   4.178   5.130  0.1935 -0.5287  0.1801
   65MOL0     C 8707   1.008   4.062   5.126  0.3764  0.0890 -0.3599
   65MOL0     H 8708   1.111   4.560   4.776  0.3461 -0.7338 -2.3175
   65MOL0     H 8709   1.314   4.621   4.626  1.9025  1.3581  1.4137
   65MOL0     H 8710   1.716   4.587   4.746  1.5601 -0.7700 -1.4254
   65MOL0     H 8711   1.675   4.421   4.712  0.2501  0.8061  0.1004
   65MOL0     H 8712   1.739   4.645   4.511 -3.4755 -0.4258 -0.2075
   65MOL0     H 8713   1.692   4.490   4.456 -0.1343  1.2008 -0.5831
   65MOL0     H 8714   1.902   4.391   4.556 -1.1481 -0.4189  0.4109
   65MOL0     H 8715   1.950   4.550   4.613 -0.3938  0.8473 -0.8566
   65MOL0     H 8716   1.926   4.436   4.341  1.1312 -0.0220 -0.7315
   65MOL0     H 8717   1.922   4.612   4.349  0.6395 -0.3001 -0.7876
   65MOL0     H 8718   2.134   4.588   4.304 -2.3063  1.2991 -0.6453
   65MOL0     H 8719   2.145   4.614   4.469  0.4612 -1.5863  1.5695
   65MOL0     H 8720   2.169   4.377   4.528  0.7423 -0.2797  0.6951
   65MOL0     H 8721   2.144   4.329   4.358  3.7769 -0.1330 -1.3355
   65MOL0     H 8722   2.382   4.309   4.445 -0.0579 -1.8418 -1.8224
   65MOL0     H 8723   2.398   4.473   4.454  0.5272 -1.8105  0.6934
   65MOL0     H 8724   2.275   4.373   4.201  1.7629 -1.0575 -0.4168
   65MOL0     H 8725   2.391   4.515   4.230 -2.6367  1.5766 -0.4181
   65MOL0     H 8726   2.338   4.127   4.207  1.2549 -1.3694  2.0173
   65MOL0     H 8727   2.547   4.031   3.926  0.3886 -0.2461 -0.1725
   65MOL0     H 8728   2.648   3.959   4.055 -0.4652 -0.0427  2.4676
   65MOL0     H 8729   2.469   3.844   4.158 -3.3166  0.1134  1.2420
   65MOL0     H 8730   2.348   3.947   4.074 -0.5371 -1.7841  0.4916
   65MOL0     H 8731   2.521   3.722   3.961 -1.3147 -1.4933 -2.1176
   65MOL0     H 8732   2.430   3.832   3.851 -0.4266 -1.9818 -0.2936
   65MOL0     H 8733   2.309   3.689   4.090  2.0749 -0.2871  0.5474
   65MOL0     H 8734   2.347   3.607   3.951  4.0253  0.5853  0.7423
   65MOL0     H 8735   2.008   3.905   3.799 -0.9716  0.5875  0.3407
   65MOL0     H 8736   1.787   3.840   3.787  2.0846  0.6584 -2.5291
   65MOL0     H 8737   1.674   3.266   3.661 -0.2459 -0.9294  1.0359
   65MOL0     H 8738   1.482   3.132   3.622  1.7112 -3.0766  4.7100
   65MOL0     H 8739   1.083   3.199   3.802  1.1500 -1.0308  0.5095
   65MOL0     H 8740   1.081   3.277   3.632 -1.7322 -0.6281 -2.8233
   65MOL0     H 8741   1.055   3.064   3.534 -1.6654 -1.6278 -1.7126
   65MOL0     H 8742   1.003   2.999   3.690  1.7950 -1.0293 -0.7912
   65MOL0     H 8743   0.809   3.167   3.671 -0.7354 -2.1964 -0.3612
   65MOL0     H 8744   0.883   3.233   3.528  0.3099  0.5305 -1.3816
   65MOL0     H 8745   0.792   2.927   3.565 -0.8617 -2.1275 -1.9466
   65MOL0     H 8746   0.860   3.002   3.423  1.9376  1.1920  1.7076
   65MOL0     H 8747   0.687   3.144   3.390  2.4947 -0.2366  0.4047
   65MOL0     H 8748   0.601   3.094   3.542 -3.2937  2.2121 -3.0287
   65MOL0     H 8749   0.668   2.924   3.296 -0.7697  0.5567 -0.3298
   65MOL0     H 8750   0.579   2.880   3.455  2.2204 -0.1109  1.0340
   65MOL0     H 8751   0.487   3.079   3.245 -0.8129  0.4212  1.2287
   65MOL0     H 8752   0.376   3.013   3.362 -0.8848 -2.3375 -2.4911
   65MOL0     H 8753   0.340   2.910   3.174 -0.0752 -0.8634  0.9872
   65MOL0     H 8754   0.516   2.889   3.123  0.8602 -0.1103 -0.0640
   65MOL0     H 8755   1.235   3.381   3.843 -0.0425  2.5439 -3.0461
   65MOL0     H 8756   1.418   3.505   3.923  0.2589 -1.1631  1.5946
   65MOL0     H 8757   1.869   3.475   4.008  1.3735  0.4057  1.5433
   65MOL0     H 8758   2.109   3.549   4.034 -0.7210  1.0359  1.1869
   65MOL0     H 8759   1.566   4.415   4.898 -1.7327 -5.0331 -1.2542
   65MOL0     H 8760   1.382   4.415   5.062  1.6624  0.7982  1.3849
   65MOL0     H 8761   0.884   4.505   5.047 -0.0555  0.3054  2.8938
   65MOL0     H 8762   0.653   4.474   5.132 -0.9414 -0.4354  0.7393
   65MOL0     H 8763   0.675   4.182   5.412  0.3188  0.6822  1.6717
   65MOL0     H 8764   0.538   4.087   5.360 -0.3247 -0.7532  0.3112
   65MOL0     H 8765   0.503   4.362   5.477  1.0422  0.0041 -0.1539
   65MOL0     H 8766   0.484   4.218   5.581 -3.5993  0.3092  0.1846
   65MOL0     H 8767   0.312   4.134   5.389 -1.1443  0.1268 -0.3699
   65MOL0     H 8768   0.315   4.302   5.337 -0.1405 -2.2066 -1.1391
   65MOL0     H 8769   0.220   4.392   5.539  2.2736  0.1017  2.8868
   65MOL0     H 8770   0.119   4.263   5.484 -1.5757  3.1911  0.7337
   65MOL0     H 8771   0.294   4.080   5.831 -0.1520  0.2468  0.6713
   65MOL0     H 8772   0.757   4.070   5.224 -2.2314  1.1875 -2.1657
   65MOL0     H 8773   0.991   3.982   5.197  2.2157 -0.0737 -0.0347
   65MOL0     H 8774   1.010   4.022   5.024  0.3193 -0.8053 -0.0164
   65MOL0     H 8775   1.104   4.094   5.168 -0.8764  0.3770  2.4648
   66MOL0     O 8776   3.446  10.542   2.039  0.8148 -0.2442  0.4449
   66MOL0     C 8777   3.425  10.423   1.992  0.3611 -0.6555 -0.1659
   66MOL0     O 8778   3.524  10.342   1.945 -0.2040 -0.1891 -0.2691
   66MOL0     C 8779   3.653  10.382   1.948 -0.4098 -0.2930  0.7592
   66MOL0     C 8780   3.698  10.501   1.893  0.1007  0.5210  0.2508
   66MOL0     C 8781   3.835  10.525   1.900 -0.0302  0.4146  0.2608
   66MOL0     C 8782   3.925  10.438   1.951 -0.3672  0.3680  0.0665
   66MOL0     O 8783   4.067  10.451   1.955  0.1965 -0.1174 -0.6381
   66MOL0     C 8784   4.123  10.520   1.847  0.7144 -0.6463 -0.1447
   66MOL0     C 8785   4.268  10.513   1.830  0.0100  0.3534 -0.4355
   66MOL0     C 8786   4.310  10.602   1.711 -0.3750  0.7280 -0.5730
   66MOL0     C 8787   4.458  10.643   1.708  0.4376  0.3562 -0.0365
   66MOL0     C 8788   4.509  10.692   1.573 -0.0518 -0.3345  0.4663
   66MOL0     C 8789   4.476  10.831   1.524 -0.5683 -0.6014 -0.0784
   66MOL0     C 8790   4.532  10.873   1.390  0.1239  0.7040  0.4349
   66MOL0     C 8791   4.689  10.872   1.386  0.3476  0.5320  0.1352
   66MOL0     N 8792   4.743  10.958   1.285  0.5997 -0.0818  0.2300
   66MOL0     C 8793   4.849  10.932   1.197  0.2066  0.2780  0.0121
   66MOL0     C 8794   4.894  11.053   1.157 -0.3766  0.0647 -0.1408
   66MOL0     C 8795   5.020  11.071   1.073  0.3830  0.4061  0.2404
   66MOL0     C 8796   5.158  11.097   1.142 -0.5299 -0.4732  0.7803
   66MOL0     C 8797   5.245  10.985   1.191 -0.4147  0.3034  0.2820
   66MOL0     C 8798   5.359  11.041   1.266  0.2146  0.3106  0.4421
   66MOL0     O 8799   5.450  11.112   1.180 -0.3984  0.2551 -0.2802
   66MOL0     C 8800   5.576  11.060   1.160 -0.2208  1.4494 -0.6090
   66MOL0     C 8801   5.650  11.014   1.273  0.1074 -0.4240  0.7263
   66MOL0     C 8802   5.787  10.987   1.255  0.0390  0.2127  0.4422
   66MOL0     C 8803   5.847  10.976   1.132 -0.2648  0.5438 -0.9258
   66MOL0     C 8804   5.986  10.922   1.123  0.6415  0.6534 -0.1135
   66MOL0     O 8805   6.043  10.870   1.233 -0.7300  0.2528  0.4192
   66MOL0     C 8806   6.161  10.799   1.212 -0.0639 -0.0576  0.5772
   66MOL0     C 8807   6.273  10.832   1.292  0.6719 -0.6282  0.2840
   66MOL0     C 8808   6.384  10.747   1.298 -0.2953  0.6360 -0.0346
   66MOL0     C 8809   6.383  10.623   1.232 -0.0431  0.1710  1.0764
   66MOL0     O 8810   6.484  10.535   1.236 -0.0558 -0.3531  0.0151
   66MOL0     C 8811   6.539  10.498   1.364 -0.5069 -0.4911  0.8566
   66MOL0     C 8812   6.454  10.461   1.485  0.2590  0.8372 -0.2934
   66MOL0     C 8813   6.343  10.363   1.459  0.1085  0.4174  0.2508
   66MOL0     C 8814   6.390  10.218   1.417 -0.4339  0.0712  0.2365
   66MOL0     C 8815   6.263  10.134   1.378  0.0457  0.4933  0.0341
   66MOL0     C 8816   6.307   9.987   1.371  0.4091 -0.1964  0.6258
   66MOL0     C 8817   6.195   9.881   1.341  0.7993 -0.9579  0.0512
   66MOL0     C 8818   6.140   9.839   1.471 -0.9936  0.8711  0.0828
   66MOL0    Cl 8819   6.058   9.960   1.577  0.1395 -0.1984 -0.3062
   66MOL0     C 8820   6.268  10.593   1.149 -0.3285 -0.1367 -0.0371
   66MOL0     C 8821   6.161  10.688   1.130 -0.1438  0.6854  0.2035
   66MOL0     O 8822   6.031  10.928   1.012 -0.2843  0.5100 -0.1585
   66MOL0     C 8823   5.772  11.011   1.014  0.5156 -0.2194 -0.1993
   66MOL0     C 8824   5.644  11.061   1.037 -0.3585  0.1462 -0.1606
   66MOL0     N 8825   4.822  11.146   1.219  0.3032 -0.1589 -0.1669
   66MOL0     N 8826   4.730  11.094   1.293  0.3631  1.1827 -0.3402
   66MOL0     C 8827   3.880  10.317   2.007  0.1834 -0.0265 -0.3898
   66MOL0     C 8828   3.743  10.291   2.013  0.0405  0.5819  0.4583
   66MOL0     C 8829   3.284  10.377   1.978  0.4140 -0.4561 -0.2228
   66MOL0     C 8830   3.268  10.286   1.869  1.1655  0.0771  0.1136
   66MOL0     C 8831   3.132  10.239   1.843  0.2734  0.0376 -0.0167
   66MOL0     C 8832   3.019  10.274   1.923  0.0527 -0.3248 -0.6423
   66MOL0     O 8833   2.889  10.232   1.904  0.1180 -0.1609  0.0840
   66MOL0     C 8834   2.856  10.153   1.802  0.1141  0.1788  0.4181
   66MOL0     C 8835   2.703  10.126   1.831 -0.2666  0.8705 -0.4095
   66MOL0     C 8836   2.616  10.077   1.713 -0.1612 -0.1196  0.4735
   66MOL0     C 8837   2.491  10.013   1.773 -0.7554 -0.3096  0.9697
   66MOL0     C 8838   2.401  10.111   1.826  0.4926  0.4707 -0.6633
   66MOL0     C 8839   2.310  10.185   1.863  0.7832  0.3926 -0.1266
   66MOL0     C 8840   3.043  10.378   2.017 -0.2328  0.8820 -0.2899
   66MOL0     C 8841   3.174  10.418   2.058  0.5319 -0.4624 -0.4216
   66MOL0     C 8842   3.181  10.495   2.187  0.0229  0.1367  0.2046
   66MOL0     H 8843   3.624  10.570   1.855 -2.1474 -2.6451 -1.5579
   66MOL0     H 8844   3.867  10.626   1.874 -0.1830  0.7342  1.2694
   66MOL0     H 8845   4.070  10.496   1.754  1.5427 -0.4597 -0.6725
   66MOL0     H 8846   4.102  10.624   1.870 -0.2073 -0.6432 -0.9634
   66MOL0     H 8847   4.294  10.410   1.804  2.4564  1.5566 -3.5053
   66MOL0     H 8848   4.325  10.538   1.920  0.5566 -4.0227  0.6317
   66MOL0     H 8849   4.253  10.695   1.700 -0.3941  0.8858  0.7080
   66MOL0     H 8850   4.299  10.541   1.621  0.0219 -0.5381  0.2146
   66MOL0     H 8851   4.484  10.711   1.790 -1.1957 -2.1044  2.7418
   66MOL0     H 8852   4.504  10.547   1.730 -1.4460 -0.6032 -0.0654
   66MOL0     H 8853   4.617  10.677   1.564 -0.1933 -0.6699 -0.8384
   66MOL0     H 8854   4.464  10.634   1.493  1.0828  1.4851 -1.6082
   66MOL0     H 8855   4.368  10.844   1.515 -0.4895 -0.4571 -0.9395
   66MOL0     H 8856   4.504  10.913   1.591  0.5518 -1.6686  0.8103
   66MOL0     H 8857   4.506  10.974   1.359 -0.6040  0.0674 -1.1721
   66MOL0     H 8858   4.486  10.814   1.310 -1.4671  1.8274  0.4744
   66MOL0     H 8859   4.721  10.896   1.488 -0.6800  0.9654  0.3708
   66MOL0     H 8860   4.721  10.769   1.367 -0.9424 -0.8819  4.3882
   66MOL0     H 8861   4.902  10.840   1.175 -3.3593 -2.9622  3.6264
   66MOL0     H 8862   5.033  10.981   1.011  2.0177 -0.6969  2.0822
   66MOL0     H 8863   5.006  11.159   1.009  2.3579  0.9881  0.5432
   66MOL0     H 8864   5.217  11.137   1.059  0.1308  0.9720  1.8750
   66MOL0     H 8865   5.149  11.176   1.218 -2.9872 -0.5458  0.6391
   66MOL0     H 8866   5.276  10.931   1.101 -0.6957  0.6136 -0.0019
   66MOL0     H 8867   5.192  10.915   1.257  1.7157  2.0140  4.1787
   66MOL0     H 8868   5.420  10.955   1.296  3.0320  1.7648 -0.7200
   66MOL0     H 8869   5.332  11.103   1.351  0.7805  2.6740 -1.0003
   66MOL0     H 8870   5.616  11.019   1.376 -0.2428  3.2969  0.5739
   66MOL0     H 8871   5.846  10.972   1.345  2.4821 -0.8039 -1.2245
   66MOL0     H 8872   6.285  10.924   1.349  0.7021  0.0438 -0.7954
   66MOL0     H 8873   6.463  10.784   1.362 -1.5521  2.0042  0.7841
   66MOL0     H 8874   6.604  10.417   1.328  1.4318  2.0565 -1.7923
   66MOL0     H 8875   6.602  10.582   1.394 -1.7932  1.2033 -1.0053
   66MOL0     H 8876   6.519  10.429   1.567 -0.9404 -0.7866  0.0739
   66MOL0     H 8877   6.407  10.557   1.510 -0.0946  1.1373 -2.0003
   66MOL0     H 8878   6.273  10.354   1.543 -3.2590  1.9185 -2.1572
   66MOL0     H 8879   6.277  10.407   1.383  2.2697 -0.8196 -2.4932
   66MOL0     H 8880   6.443  10.167   1.498  0.5385  0.2335 -0.2740
   66MOL0     H 8881   6.449  10.213   1.325 -0.8116 -3.0281  0.0662
   66MOL0     H 8882   6.225  10.169   1.282  2.1015  1.5371 -0.4491
   66MOL0     H 8883   6.183  10.154   1.451 -0.9370 -2.3719 -0.1048
   66MOL0     H 8884   6.381   9.988   1.290  0.2457 -1.9102  0.4100
   66MOL0     H 8885   6.366   9.956   1.458 -1.7976  3.2025  3.6025
   66MOL0     H 8886   6.251   9.799   1.295  2.0325 -0.9231  1.3739
   66MOL0     H 8887   6.117   9.902   1.268 -1.6606  2.8226  3.3265
   66MOL0     H 8888   6.063   9.763   1.455 -1.1525  0.6387  1.7346
   66MOL0     H 8889   6.219   9.779   1.519 -2.1784  0.1669  1.2136
   66MOL0     H 8890   6.266  10.506   1.084 -3.4412 -0.0694 -0.1370
   66MOL0     H 8891   6.086  10.674   1.053 -0.1040 -1.3208  0.4639
   66MOL0     H 8892   5.813  11.012   0.914 -0.4241  1.6138 -0.5963
   66MOL0     H 8893   5.593  11.098   0.949  0.7447  0.1508 -0.8205
   66MOL0     H 8894   3.936  10.252   2.073 -1.6255 -1.6003 -0.3197
   66MOL0     H 8895   3.726  10.197   2.065  0.2446 -1.5610 -3.0451
   66MOL0     H 8896   3.338  10.238   1.801  0.6953 -2.6797  1.4445
   66MOL0     H 8897   3.119  10.174   1.757 -0.4643  1.3159 -0.9222
   66MOL0     H 8898   2.921  10.066   1.810  1.4170  0.9626 -1.1176
   66MOL0     H 8899   2.865  10.217   1.713  0.3776  2.5772  2.0876
   66MOL0     H 8900   2.666  10.213   1.887  1.2098  0.2512  1.6455
   66MOL0     H 8901   2.695  10.045   1.905  0.9635  2.3871  1.5090
   66MOL0     H 8902   2.664   9.999   1.652  1.0829  1.1724 -0.2423
   66MOL0     H 8903   2.594  10.167   1.656  3.4074  1.1178  0.7812
   66MOL0     H 8904   2.441   9.959   1.692  2.3629 -0.2793 -1.1300
   66MOL0     H 8905   2.518   9.941   1.851  0.2355 -1.0216  0.0004
   66MOL0     H 8906   2.235  10.257   1.887  1.4580  1.3011 -0.7070
   66MOL0     H 8907   2.963  10.425   2.074 -0.3385 -0.4962  0.7655
   66MOL0     H 8908   3.274  10.468   2.239 -0.1630 -1.6222 -0.2961
   66MOL0     H 8909   3.174  10.604   2.179  0.0985  0.0611 -1.0557
   66MOL0     H 8910   3.099  10.467   2.254 -0.2656  3.5058  1.4458
   67MOL0     O 8911  11.169   7.521   4.313 -0.5422 -0.2931 -0.1891
   67MOL0     C 8912  11.077   7.591   4.275 -0.3305 -0.4131 -0.6231
   67MOL0     O 8913  11.074   7.646   4.143  0.2343 -0.1521  0.1346
   67MOL0     C 8914  11.196   7.659   4.083 -0.9525  0.3919 -0.7198
   67MOL0     C 8915  11.287   7.766   4.099 -0.2142 -0.0118  0.4797
   67MOL0     C 8916  11.407   7.773   4.037  0.4620  0.9294 -0.3333
   67MOL0     C 8917  11.450   7.681   3.948  0.1384  0.2399 -0.2056
   67MOL0     O 8918  11.572   7.683   3.875  0.4116  0.2714 -0.8773
   67MOL0     C 8919  11.654   7.568   3.885 -0.4974 -1.5708  0.3118
   67MOL0     C 8920  11.785   7.595   3.828 -0.6737  0.3999  0.1733
   67MOL0     C 8921  11.876   7.470   3.850  0.0267  0.2739 -0.1225
   67MOL0     C 8922  12.013   7.464   3.766  1.4540  0.2214 -0.8542
   67MOL0     C 8923  12.101   7.581   3.806 -0.6069 -0.1942  0.0052
   67MOL0     C 8924  12.220   7.587   3.713  0.5364 -0.7659  0.4571
   67MOL0     C 8925  12.296   7.705   3.769 -0.4144  0.0146  0.5047
   67MOL0     C 8926  12.424   7.724   3.686  0.1576  0.3865 -0.5511
   67MOL0     N 8927  12.472   7.859   3.702  0.5520 -0.4742 -0.3734
   67MOL0     C 8928  12.508   7.935   3.595 -0.9723  0.3282 -0.1246
   67MOL0     C 8929  12.532   8.053   3.649 -0.6154  0.2097  0.9492
   67MOL0     C 8930  12.558   8.178   3.569 -0.4633 -0.6300 -0.7600
   67MOL0     C 8931  12.689   8.241   3.613  0.5699 -0.0721  0.2411
   67MOL0     C 8932  12.822   8.159   3.597 -0.4311  0.0426  0.4517
   67MOL0     C 8933  12.946   8.237   3.628  0.1672  0.1717 -0.3263
   67MOL0     O 8934  12.955   8.344   3.529 -0.7785 -0.0481  0.5197
   67MOL0     C 8935  13.084   8.396   3.528  0.5326  0.1145  0.1191
   67MOL0     C 8936  13.133   8.430   3.401  0.2291 -0.9495 -0.2636
   67MOL0     C 8937  13.267   8.442   3.375  0.5314  0.2984  0.3771
   67MOL0     C 8938  13.371   8.427   3.478  0.2399 -0.0624  0.3466
   67MOL0     C 8939  13.512   8.446   3.449 -0.3919  0.3550 -0.1412
   67MOL0     O 8940  13.598   8.427   3.559  0.4128 -0.0312  0.4713
   67MOL0     C 8941  13.733   8.411   3.529  0.3458 -0.4022  0.0477
   67MOL0     C 8942  13.814   8.521   3.501  0.7719 -0.2707  0.2339
   67MOL0     C 8943  13.955   8.505   3.486  0.6103 -0.1161 -0.2066
   67MOL0     C 8944  14.017   8.377   3.500  0.0281  0.1238 -0.3013
   67MOL0     O 8945  14.151   8.349   3.477  0.4073 -0.4058 -0.7254
   67MOL0     C 8946  14.226   8.452   3.403  0.5645 -0.0780  0.0656
   67MOL0     C 8947  14.371   8.404   3.378 -0.3500 -0.1407  0.0945
   67MOL0     C 8948  14.398   8.275   3.296 -0.7167  0.2004  0.0307
   67MOL0     C 8949  14.549   8.267   3.254  0.6112 -0.7664  0.0923
   67MOL0     C 8950  14.569   8.177   3.139 -0.0149  0.3659 -0.4404
   67MOL0     C 8951  14.714   8.168   3.079  0.2184 -0.6235  0.5875
   67MOL0     C 8952  14.817   8.148   3.192  0.4308 -0.4507  0.1083
   67MOL0     C 8953  14.958   8.105   3.140  0.4415  0.2074  0.0689
   67MOL0    Cl 8954  15.020   8.218   3.021 -0.0894  0.2440  0.1929
   67MOL0     C 8955  13.930   8.268   3.534 -0.1590  0.2730  0.9864
   67MOL0     C 8956  13.785   8.283   3.540 -1.6939  0.4622 -0.0314
   67MOL0     O 8957  13.549   8.449   3.330  0.0941  0.0461 -0.5540
   67MOL0     C 8958  13.324   8.404   3.610 -0.0546  0.0886 -0.7636
   67MOL0     C 8959  13.191   8.380   3.623  0.5740  0.8740 -0.3300
   67MOL0     N 8960  12.520   8.046   3.791  0.4246  0.4846  0.0345
   67MOL0     N 8961  12.480   7.925   3.820 -0.3204 -0.1907 -0.1396
   67MOL0     C 8962  11.368   7.569   3.923 -0.0723  0.1104  0.3835
   67MOL0     C 8963  11.246   7.563   3.987  0.1078 -0.2820 -0.2778
   67MOL0     C 8964  10.966   7.626   4.375  0.2191  0.0297  0.0210
   67MOL0     C 8965  10.870   7.731   4.336  0.1300  0.0994 -0.3190
   67MOL0     C 8966  10.767   7.762   4.423  0.9568  0.0477  0.0888
   67MOL0     C 8967  10.732   7.684   4.532 -0.7850  0.0219  0.2521
   67MOL0     O 8968  10.620   7.709   4.610 -0.1018  0.0041  0.4632
   67MOL0     C 8969  10.595   7.642   4.738  0.3009  0.3809  0.0168
   67MOL0     C 8970  10.517   7.725   4.844  0.7068 -0.1671 -0.0297
   67MOL0     C 8971  10.535   7.653   4.983  0.3481  0.3686 -0.2983
   67MOL0     C 8972  10.450   7.711   5.095  0.1057  0.0592 -0.0835
   67MOL0     C 8973  10.458   7.860   5.102  0.6577  0.2074 -0.3429
   67MOL0     C 8974  10.481   7.975   5.099 -0.5125 -0.4947 -0.0799
   67MOL0     C 8975  10.828   7.589   4.567 -0.4307 -0.2223  0.7024
   67MOL0     C 8976  10.947   7.562   4.497 -0.2701 -0.7066 -0.3071
   67MOL0     C 8977  11.039   7.454   4.544 -0.3532  0.3973  0.0302
   67MOL0     H 8978  11.274   7.847   4.170  2.8795  0.0383  1.1597
   67MOL0     H 8979  11.464   7.859   4.072  0.5710  0.7273 -0.0222
   67MOL0     H 8980  11.670   7.537   3.989  1.8333  1.1714  0.8771
   67MOL0     H 8981  11.610   7.488   3.825  0.8180 -1.7083 -0.5181
   67MOL0     H 8982  11.812   7.679   3.893  1.1857 -0.6641  0.8331
   67MOL0     H 8983  11.781   7.631   3.725 -1.5634 -1.5095 -0.4959
   67MOL0     H 8984  11.819   7.386   3.811 -0.8550 -0.2344  2.0710
   67MOL0     H 8985  11.906   7.458   3.955 -2.4098  1.0760  0.7432
   67MOL0     H 8986  12.063   7.369   3.790  2.7771  1.5329  1.9877
   67MOL0     H 8987  11.982   7.484   3.663  0.8492 -0.4950 -0.8169
   67MOL0     H 8988  12.057   7.681   3.804  0.5748  0.3362 -0.1708
   67MOL0     H 8989  12.137   7.586   3.910 -0.4534  0.8993 -0.0883
   67MOL0     H 8990  12.277   7.494   3.715 -0.8223 -1.7076 -1.4890
   67MOL0     H 8991  12.180   7.606   3.613  0.5843  4.3087  1.1207
   67MOL0     H 8992  12.335   7.692   3.870  1.3579  1.5804  0.0883
   67MOL0     H 8993  12.242   7.800   3.765  1.3207  1.0298  0.2942
   67MOL0     H 8994  12.496   7.651   3.725  0.1231 -0.2862 -1.6987
   67MOL0     H 8995  12.405   7.703   3.580 -1.0507 -1.1828 -0.0736
   67MOL0     H 8996  12.509   7.908   3.490  3.4534 -0.9543  0.0191
   67MOL0     H 8997  12.542   8.150   3.464 -3.6407  0.6228 -0.7242
   67MOL0     H 8998  12.473   8.245   3.588  1.5514  1.5966  0.9886
   67MOL0     H 8999  12.687   8.333   3.552 -0.6145  0.0733  0.4709
   67MOL0     H 9000  12.684   8.276   3.716  0.8185 -1.2246  0.6537
   67MOL0     H 9001  12.837   8.128   3.494  0.8968 -0.4300  0.7741
   67MOL0     H 9002  12.821   8.076   3.668  1.0111 -0.6785 -0.3498
   67MOL0     H 9003  13.027   8.163   3.622  0.9212  0.7291  1.9834
   67MOL0     H 9004  12.931   8.265   3.732 -4.3700  0.5954 -0.9004
   67MOL0     H 9005  13.063   8.430   3.319  1.3679 -1.0693 -1.2755
   67MOL0     H 9006  13.285   8.464   3.271  1.5349 -0.5973  0.3472
   67MOL0     H 9007  13.768   8.619   3.495 -1.2147 -1.0505  1.6121
   67MOL0     H 9008  14.019   8.584   3.446 -3.0044  1.6103 -3.1676
   67MOL0     H 9009  14.178   8.480   3.309 -0.0321 -2.4332 -0.3823
   67MOL0     H 9010  14.232   8.547   3.457  1.1559  0.0518 -0.2226
   67MOL0     H 9011  14.419   8.481   3.317 -0.7809  0.9016  1.0413
   67MOL0     H 9012  14.423   8.388   3.473  1.9132 -1.3519 -1.2701
   67MOL0     H 9013  14.348   8.192   3.344 -1.7739  0.5175 -0.5001
   67MOL0     H 9014  14.338   8.277   3.204  0.6558 -1.3879 -0.9757
   67MOL0     H 9015  14.606   8.235   3.341 -0.7425 -2.6309  0.3500
   67MOL0     H 9016  14.584   8.365   3.220  0.3637 -0.2651  1.2375
   67MOL0     H 9017  14.514   8.212   3.051 -0.8067  2.2481  0.7374
   67MOL0     H 9018  14.528   8.079   3.162 -0.5047  0.6407 -0.1242
   67MOL0     H 9019  14.745   8.080   3.022  1.0432  1.1108 -1.7943
   67MOL0     H 9020  14.738   8.254   3.016  0.5619 -1.3869 -0.3414
   67MOL0     H 9021  14.786   8.075   3.266  0.0002 -1.7706 -1.3254
   67MOL0     H 9022  14.805   8.239   3.253 -1.0057 -0.2343 -0.4557
   67MOL0     H 9023  15.022   8.104   3.229 -1.1413  0.0554  1.2400
   67MOL0     H 9024  14.959   8.001   3.106  1.1756  0.0166  0.6536
   67MOL0     H 9025  13.968   8.169   3.556 -2.6982 -0.6434  1.6242
   67MOL0     H 9026  13.723   8.197   3.559 -0.8257 -0.8912 -2.7124
   67MOL0     H 9027  13.376   8.401   3.705 -1.0977  1.9501 -0.0825
   67MOL0     H 9028  13.154   8.361   3.723  1.1365  0.6209 -0.1697
   67MOL0     H 9029  11.400   7.489   3.856 -1.4265 -1.1713  1.2049
   67MOL0     H 9030  11.180   7.481   3.961  1.1280 -0.9970 -0.6802
   67MOL0     H 9031  10.870   7.787   4.243 -3.7517  0.2051 -0.4262
   67MOL0     H 9032  10.694   7.831   4.382  3.3742 -0.0478 -5.1355
   67MOL0     H 9033  10.696   7.631   4.778 -0.4013 -0.4870  1.6256
   67MOL0     H 9034  10.547   7.545   4.725 -0.7275  0.7211  1.1259
   67MOL0     H 9035  10.415   7.730   4.805  0.5935 -0.3291  0.2466
   67MOL0     H 9036  10.551   7.829   4.858 -3.7601  1.4508  0.5081
   67MOL0     H 9037  10.636   7.663   5.023 -0.2406  1.4053  1.0490
   67MOL0     H 9038  10.505   7.548   4.983 -3.5025  1.2764 -1.4734
   67MOL0     H 9039  10.346   7.676   5.091  0.5823 -1.4604  0.2008
   67MOL0     H 9040  10.493   7.671   5.187  1.2851 -0.0826 -0.6882
   67MOL0     H 9041  10.506   8.079   5.099  3.3260 -1.2776  1.1477
   67MOL0     H 9042  10.794   7.528   4.649 -0.1699 -1.0828  0.1813
   67MOL0     H 9043  11.020   7.404   4.640  2.6648 -0.3394  0.3739
   67MOL0     H 9044  11.029   7.376   4.468 -1.2872  1.3024 -0.7994
   67MOL0     H 9045  11.141   7.494   4.537  0.7769 -2.0057  1.3700
   68MOL0     O 9046   1.481   3.262   2.815 -0.1929  0.5579  1.0532
   68MOL0     C 9047   1.504   3.143   2.840 -0.0955  1.0271  0.6253
   68MOL0     O 9048   1.628   3.088   2.827 -0.5174 -0.2995 -0.6757
   68MOL0     C 9049   1.737   3.166   2.816 -0.2173  0.4123  0.3498
   68MOL0     C 9050   1.764   3.241   2.931 -0.2472 -0.3208 -0.1875
   68MOL0     C 9051   1.882   3.315   2.941  0.3653  0.2981  0.1962
   68MOL0     C 9052   1.972   3.313   2.834 -0.2313  0.3426  0.5148
   68MOL0     O 9053   2.074   3.406   2.845  0.0572  0.1923 -0.7994
   68MOL0     C 9054   2.191   3.381   2.769 -0.3984  0.4122 -0.4280
   68MOL0     C 9055   2.315   3.423   2.858  0.4262  0.5315 -0.0447
   68MOL0     C 9056   2.457   3.372   2.809  0.6863  0.3664 -0.3183
   68MOL0     C 9057   2.562   3.440   2.884  0.2288 -0.2781 -0.2664
   68MOL0     C 9058   2.696   3.377   2.843 -0.4805 -0.2105 -0.7183
   68MOL0     C 9059   2.805   3.474   2.893 -0.7705 -0.0653  0.0987
   68MOL0     C 9060   2.947   3.430   2.864  0.5513  1.1950  0.3903
   68MOL0     C 9061   3.041   3.542   2.917 -0.4061  0.3284 -0.5746
   68MOL0     N 9062   3.181   3.489   2.908  0.5547 -0.5325  0.5376
   68MOL0     C 9063   3.239   3.382   2.970  0.0935 -0.3850 -0.3555
   68MOL0     C 9064   3.351   3.363   2.900  0.2966  0.3151  0.1709
   68MOL0     C 9065   3.463   3.264   2.934  0.5354 -0.2672  0.7704
   68MOL0     C 9066   3.591   3.328   2.996 -0.4242  1.1951  0.2692
   68MOL0     C 9067   3.691   3.204   3.025  0.2066 -1.2832  0.5790
   68MOL0     C 9068   3.824   3.259   3.059 -1.0127  1.3115 -0.0591
   68MOL0     O 9069   3.922   3.150   3.074 -0.4235 -0.3308  0.1880
   68MOL0     C 9070   4.048   3.184   3.070 -0.4553 -0.1997  0.5404
   68MOL0     C 9071   4.144   3.082   3.053  0.7395  0.1242  0.3441
   68MOL0     C 9072   4.287   3.111   3.044 -0.1208  0.2461 -0.0962
   68MOL0     C 9073   4.337   3.244   3.048  0.1870 -0.4578 -0.3326
   68MOL0     C 9074   4.485   3.281   3.036 -0.9574  0.0921  0.6501
   68MOL0     O 9075   4.505   3.420   3.024  0.3011  0.0829 -0.5255
   68MOL0     C 9076   4.632   3.475   3.017 -0.0791 -0.5372  1.1492
   68MOL0     C 9077   4.676   3.563   3.116  0.3697 -0.9643  0.6210
   68MOL0     C 9078   4.804   3.629   3.104  0.1479  0.6929 -1.1259
   68MOL0     C 9079   4.886   3.589   3.002 -0.4317 -0.1858  0.2067
   68MOL0     O 9080   5.022   3.619   2.984 -0.4614  0.5285 -0.7492
   68MOL0     C 9081   5.099   3.650   3.106  0.2810  0.5884  0.3930
   68MOL0     C 9082   5.238   3.671   3.070  0.2547 -0.0551 -1.6596
   68MOL0     C 9083   5.318   3.698   3.205  0.4313  0.7210 -0.2342
   68MOL0     C 9084   5.464   3.728   3.177 -1.0221 -0.8764  0.6242
   68MOL0     C 9085   5.533   3.797   3.291  0.5091  0.1073  0.0752
   68MOL0     C 9086   5.665   3.850   3.251 -0.1544 -0.2835  0.6384
   68MOL0     C 9087   5.735   3.931   3.363 -0.5753 -1.1566  0.4194
   68MOL0     C 9088   5.890   3.942   3.325  0.9667 -0.0825  0.5306
   68MOL0    Cl 9089   5.989   4.033   3.451  0.6607  0.6787  0.0907
   68MOL0     C 9090   4.837   3.499   2.907  0.0143 -0.2314 -0.4260
   68MOL0     C 9091   4.718   3.431   2.913  0.0962 -0.7548 -0.5111
   68MOL0     O 9092   4.576   3.196   3.049  0.3142 -0.6049 -0.9557
   68MOL0     C 9093   4.239   3.350   3.065  0.0925  0.5464 -0.5427
   68MOL0     C 9094   4.098   3.321   3.086 -0.7653 -0.5021 -0.0816
   68MOL0     N 9095   3.373   3.464   2.806  0.6363  1.2393  0.1621
   68MOL0     N 9096   3.273   3.538   2.815  0.3515 -0.8245  0.6637
   68MOL0     C 9097   1.947   3.236   2.720 -0.5603  0.1767  0.2630
   68MOL0     C 9098   1.831   3.165   2.706  0.2916 -0.4179 -0.1994
   68MOL0     C 9099   1.394   3.045   2.862 -0.3782 -1.3183 -0.6903
   68MOL0     C 9100   1.435   2.912   2.901  0.4618 -0.4472  0.1826
   68MOL0     C 9101   1.332   2.812   2.920 -0.4060 -0.5444  0.1260
   68MOL0     C 9102   1.190   2.833   2.894 -0.2857  0.2641  0.0584
   68MOL0     O 9103   1.093   2.734   2.923 -0.3883 -0.4455  0.3547
   68MOL0     C 9104   1.101   2.616   2.855 -0.1038  0.0668  0.0116
   68MOL0     C 9105   1.065   2.504   2.953 -0.2750  0.3356  0.4530
   68MOL0     C 9106   1.086   2.359   2.898  0.4762  0.5774 -0.1080
   68MOL0     C 9107   0.985   2.297   2.797  0.1848  0.3550  1.0280
   68MOL0     C 9108   0.987   2.157   2.775  0.1564  0.6055  0.2145
   68MOL0     C 9109   1.001   2.035   2.753  1.0289 -0.4937 -0.0072
   68MOL0     C 9110   1.161   2.960   2.854  0.4045 -0.3664  0.2377
   68MOL0     C 9111   1.257   3.064   2.840 -1.4105 -0.5968  0.4879
   68MOL0     C 9112   1.212   3.193   2.797 -0.5129  0.1416  0.7957
   68MOL0     H 9113   1.696   3.234   3.015 -0.5018  1.2931 -0.2395
   68MOL0     H 9114   1.902   3.383   3.023 -0.7059 -0.6850  1.3107
   68MOL0     H 9115   2.209   3.275   2.752  1.2953  1.2178 -4.9314
   68MOL0     H 9116   2.186   3.436   2.675  0.8061  0.5399 -0.4348
   68MOL0     H 9117   2.308   3.371   2.954  0.3792  0.9844  0.2028
   68MOL0     H 9118   2.311   3.532   2.869 -0.1451  1.2959 -5.4112
   68MOL0     H 9119   2.484   3.378   2.704 -2.0810 -1.3623 -1.2405
   68MOL0     H 9120   2.461   3.263   2.818  0.8981  0.4728  1.1057
   68MOL0     H 9121   2.554   3.536   2.832  0.2079 -0.9106 -1.4896
   68MOL0     H 9122   2.546   3.461   2.990 -0.9071  2.3537 -0.8839
   68MOL0     H 9123   2.700   3.282   2.897 -0.2979 -1.1617 -2.3515
   68MOL0     H 9124   2.704   3.354   2.736  0.5835 -0.8553 -0.5074
   68MOL0     H 9125   2.785   3.560   2.829  2.1910  2.7001  2.5962
   68MOL0     H 9126   2.793   3.491   3.001  1.7502 -1.4590  0.6782
   68MOL0     H 9127   2.963   3.424   2.756 -0.5242  0.0055  0.2831
   68MOL0     H 9128   2.970   3.330   2.902  2.3352 -0.0381 -3.3970
   68MOL0     H 9129   3.027   3.637   2.864 -0.9331  0.6593  0.1460
   68MOL0     H 9130   3.024   3.573   3.020  0.3481 -1.9081  0.2870
   68MOL0     H 9131   3.193   3.329   3.053 -1.9053  0.2501 -1.0023
   68MOL0     H 9132   3.425   3.183   2.997  1.2824 -1.2407 -0.0085
   68MOL0     H 9133   3.493   3.222   2.838 -0.0861  1.2550 -0.1296
   68MOL0     H 9134   3.643   3.388   2.920  1.8457  0.0472  0.8359
   68MOL0     H 9135   3.588   3.389   3.087  1.6571  1.7492  0.0177
   68MOL0     H 9136   3.682   3.144   2.934 -0.8840 -0.5606  0.1912
   68MOL0     H 9137   3.662   3.143   3.111  1.7079 -1.3537  1.0675
   68MOL0     H 9138   3.822   3.316   3.152 -1.6295 -0.8270  1.3293
   68MOL0     H 9139   3.850   3.332   2.982 -0.1569  1.4323  0.3346
   68MOL0     H 9140   4.097   2.984   3.042  3.6895 -1.0683 -4.2101
   68MOL0     H 9141   4.356   3.030   3.024 -0.6749 -0.2009 -0.2322
   68MOL0     H 9142   4.615   3.571   3.206  0.0611 -1.2369  0.4404
   68MOL0     H 9143   4.844   3.699   3.176 -3.1016  3.1114 -1.4431
   68MOL0     H 9144   5.054   3.744   3.141 -0.1515  0.2367  0.8022
   68MOL0     H 9145   5.075   3.567   3.174 -1.0671 -0.1535 -0.9207
   68MOL0     H 9146   5.287   3.594   3.009  1.9028  1.2575 -2.0836
   68MOL0     H 9147   5.234   3.759   3.005 -1.2316  0.7503 -0.5241
   68MOL0     H 9148   5.275   3.788   3.249 -0.7874  0.8941 -1.7061
   68MOL0     H 9149   5.314   3.614   3.275 -0.9591  1.3720  0.4937
   68MOL0     H 9150   5.473   3.804   3.099 -1.6014 -0.9086  0.5173
   68MOL0     H 9151   5.520   3.638   3.149  0.4588  0.4158 -0.7464
   68MOL0     H 9152   5.544   3.734   3.379 -0.0684  0.3847  0.3545
   68MOL0     H 9153   5.475   3.878   3.336 -1.1637 -1.6026  1.1689
   68MOL0     H 9154   5.720   3.761   3.220 -4.0577 -3.4168  1.7735
   68MOL0     H 9155   5.651   3.928   3.176 -0.1217  0.8026  1.7321
   68MOL0     H 9156   5.747   3.886   3.462 -0.1703  0.8036  1.3188
   68MOL0     H 9157   5.688   4.028   3.378  1.2506 -0.1662  0.1125
   68MOL0     H 9158   5.933   3.845   3.296  2.8136  0.6084  0.8242
   68MOL0     H 9159   5.903   3.999   3.232  1.2788 -1.4277 -0.2823
   68MOL0     H 9160   4.905   3.464   2.829  2.0268  0.2488  1.0407
   68MOL0     H 9161   4.690   3.355   2.841 -0.2596 -0.8314 -0.2934
   68MOL0     H 9162   4.266   3.455   3.055  1.0097  0.3609 -0.1888
   68MOL0     H 9163   4.033   3.406   3.103  0.3620  0.7461 -1.6339
   68MOL0     H 9164   2.021   3.245   2.641  1.8797 -0.1482  2.3370
   68MOL0     H 9165   1.817   3.105   2.617 -1.0228 -1.9999  0.9900
   68MOL0     H 9166   1.531   2.865   2.916  0.5503 -0.4893 -0.4759
   68MOL0     H 9167   1.371   2.716   2.955  2.0382  0.0282 -0.8664
   68MOL0     H 9168   1.199   2.588   2.814  0.5556  1.4626  0.6104
   68MOL0     H 9169   1.027   2.616   2.774 -1.7016 -0.5586  1.4148
   68MOL0     H 9170   0.960   2.504   2.987  0.3320  0.8440  2.4730
   68MOL0     H 9171   1.134   2.504   3.038  0.9366 -2.0458 -0.4459
   68MOL0     H 9172   1.094   2.295   2.985 -1.3139 -0.0307 -0.3505
   68MOL0     H 9173   1.182   2.338   2.850 -0.2946  0.4282 -1.6806
   68MOL0     H 9174   0.880   2.325   2.809  0.2732  2.5338 -2.1241
   68MOL0     H 9175   1.009   2.344   2.701 -1.6772 -2.1639 -0.7967
   68MOL0     H 9176   0.991   1.935   2.718 -1.5560 -0.1406 -0.5082
   68MOL0     H 9177   1.055   2.973   2.836  0.0422 -2.4457  0.5851
   68MOL0     H 9178   1.107   3.194   2.769  0.0891  2.2963 -1.8223
   68MOL0     H 9179   1.216   3.255   2.887 -0.3267 -0.0497  0.9220
   68MOL0     H 9180   1.279   3.225   2.716 -0.2824 -1.4274  0.3338
   69MOL0     O 9181   0.549   0.311   4.802 -0.2258 -0.6778  0.0207
   69MOL0     C 9182   0.499   0.221   4.870 -0.1336  0.3905  0.4943
   69MOL0     O 9183   0.540   0.091   4.869 -0.0652 -0.4140 -0.4601
   69MOL0     C 9184   0.639   0.061   4.785 -0.7398 -0.0458  0.8305
   69MOL0     C 9185   0.765   0.074   4.841  0.2498  0.0776 -0.5717
   69MOL0     C 9186   0.877   0.026   4.781 -0.0363 -0.4728 -0.3551
   69MOL0     C 9187   0.873  -0.026   4.650  0.2718 -0.4122 -0.1840
   69MOL0     O 9188   0.983  -0.072   4.581 -0.7952  0.6106  0.5637
   69MOL0     C 9189   1.101   0.004   4.580  0.3196  0.4936  0.8865
   69MOL0     C 9190   1.215  -0.086   4.525 -0.1334  0.3908  0.0608
   69MOL0     C 9191   1.358  -0.039   4.559  0.3332  0.1918 -0.0805
   69MOL0     C 9192   1.388  -0.033   4.708  0.2698 -0.1422  0.4172
   69MOL0     C 9193   1.527   0.012   4.736  0.3697 -0.3400  0.3101
   69MOL0     C 9194   1.575   0.021   4.883 -0.2652 -0.3620 -1.0801
   69MOL0     C 9195   1.714   0.083   4.886  0.1779  0.1814  0.1131
   69MOL0     C 9196   1.761   0.127   5.030  0.1797  0.0771 -0.4665
   69MOL0     N 9197   1.893   0.198   5.038 -0.0600 -0.0357  0.2413
   69MOL0     C 9198   1.994   0.164   4.955 -0.9775 -0.2549 -0.2512
   69MOL0     C 9199   2.106   0.199   5.026 -0.5226 -0.3698 -0.6253
   69MOL0     C 9200   2.248   0.190   4.995 -0.1394 -0.2081 -0.1142
   69MOL0     C 9201   2.292   0.043   4.964 -0.4173 -0.5992 -0.2281
   69MOL0     C 9202   2.254  -0.061   5.074 -0.0132  0.0865 -0.0248
   69MOL0     C 9203   2.376  -0.148   5.094 -0.1666  0.9133 -0.0839
   69MOL0     O 9204   2.470  -0.083   5.176 -0.2298 -0.3763  0.1992
   69MOL0     C 9205   2.602  -0.120   5.166  1.1802  0.1506  0.4094
   69MOL0     C 9206   2.694  -0.023   5.201  0.2776  0.3057 -0.3289
   69MOL0     C 9207   2.829  -0.055   5.214  0.3472  0.7563 -0.4638
   69MOL0     C 9208   2.875  -0.183   5.182 -0.2626  0.7434 -0.8313
   69MOL0     C 9209   3.017  -0.220   5.202 -0.1266 -0.7543 -0.0386
   69MOL0     O 9210   3.109  -0.115   5.184 -0.1152 -0.0648  0.0054
   69MOL0     C 9211   3.240  -0.137   5.131  0.6910  0.3265  0.3048
   69MOL0     C 9212   3.335  -0.037   5.159 -0.8976  0.0076 -0.4184
   69MOL0     C 9213   3.453  -0.020   5.085 -0.1050  0.3567 -0.1896
   69MOL0     C 9214   3.475  -0.108   4.983 -0.4748 -0.9854 -0.3591
   69MOL0     O 9215   3.594  -0.109   4.914  0.1949 -0.9506  0.5635
   69MOL0     C 9216   3.701  -0.160   4.991 -0.2561  0.1374 -0.8608
   69MOL0     C 9217   3.843  -0.149   4.926  1.0035 -0.6336  0.2371
   69MOL0     C 9218   3.949  -0.234   4.992  0.0994 -0.4293 -0.2726
   69MOL0     C 9219   4.087  -0.223   4.931 -0.1693  0.8333 -0.1478
   69MOL0     C 9220   4.152  -0.088   4.952  0.6839  0.1341  0.6961
   69MOL0     C 9221   4.289  -0.083   4.895 -0.3663 -0.0328  0.6561
   69MOL0     C 9222   4.366   0.035   4.966  0.4381  0.4677  0.7300
   69MOL0     C 9223   4.512   0.060   4.917 -0.8351  0.3497 -0.4644
   69MOL0    Cl 9224   4.511   0.058   4.742 -0.2106 -0.4114 -0.1067
   69MOL0     C 9225   3.381  -0.208   4.952  0.2878 -1.0217  0.0967
   69MOL0     C 9226   3.262  -0.218   5.025  0.4915  0.4188  0.3756
   69MOL0     O 9227   3.045  -0.335   5.213  0.7303  0.1588 -0.4655
   69MOL0     C 9228   2.784  -0.284   5.138 -0.6745 -0.9279 -0.5187
   69MOL0     C 9229   2.644  -0.251   5.129 -0.3631 -0.2000 -0.3554
   69MOL0     N 9230   2.072   0.257   5.152  0.6666 -0.2762  0.1235
   69MOL0     N 9231   1.941   0.249   5.155  0.2026 -0.0609 -0.5060
   69MOL0     C 9232   0.741  -0.038   4.592 -0.3433  0.4894  0.2014
   69MOL0     C 9233   0.629   0.013   4.650 -0.2955 -0.0634  0.0497
   69MOL0     C 9234   0.387   0.259   4.962  0.3872  0.0780  0.3090
   69MOL0     C 9235   0.304   0.366   4.931 -0.0440 -0.1357 -0.5081
   69MOL0     C 9236   0.187   0.396   4.998 -0.0498 -0.2282  0.0025
   69MOL0     C 9237   0.153   0.316   5.104  1.0195  0.5933 -0.7061
   69MOL0     O 9238   0.038   0.342   5.173 -0.2018 -0.4741  0.5437
   69MOL0     C 9239  -0.024   0.263   5.273  0.5779 -0.6435  0.1143
   69MOL0     C 9240  -0.130   0.183   5.194  0.0461  0.8069  0.0705
   69MOL0     C 9241  -0.210   0.079   5.275 -0.2183  0.2484  0.1193
   69MOL0     C 9242  -0.333   0.034   5.195 -0.0480 -0.1529  0.4258
   69MOL0     C 9243  -0.431   0.135   5.149  0.3184 -0.9841  0.4102
   69MOL0     C 9244  -0.499   0.223   5.098 -0.1824  0.1346 -0.3390
   69MOL0     C 9245   0.243   0.224   5.147 -0.0577 -0.4794 -0.8368
   69MOL0     C 9246   0.357   0.193   5.077 -0.7520 -0.4873  0.6051
   69MOL0     C 9247   0.439   0.078   5.133  0.3715 -0.6802 -0.3490
   69MOL0     H 9248   0.752   0.101   4.946 -2.8376 -1.1131 -0.5316
   69MOL0     H 9249   0.977   0.045   4.819  0.2707 -0.0157 -1.3462
   69MOL0     H 9250   1.087   0.088   4.512  0.5620 -0.6326 -0.6095
   69MOL0     H 9251   1.113   0.039   4.683 -0.1260 -0.5764  1.3221
   69MOL0     H 9252   1.198  -0.080   4.418  0.2103  1.3336  0.0570
   69MOL0     H 9253   1.211  -0.192   4.553  0.8805  0.1553 -0.6537
   69MOL0     H 9254   1.378   0.059   4.513  1.8012 -0.6719 -1.4110
   69MOL0     H 9255   1.423  -0.116   4.516 -2.1687 -2.3382  0.3783
   69MOL0     H 9256   1.314   0.039   4.744  0.7180 -0.3178  1.7585
   69MOL0     H 9257   1.358  -0.126   4.757 -0.6278  0.7847  1.7057
   69MOL0     H 9258   1.591  -0.064   4.691 -0.5137 -1.9971  1.7290
   69MOL0     H 9259   1.534   0.107   4.681 -0.7749 -1.1084 -1.2556
   69MOL0     H 9260   1.515   0.087   4.947  2.3635  3.1146 -1.9150
   69MOL0     H 9261   1.571  -0.081   4.920 -1.5942  0.0794  0.0929
   69MOL0     H 9262   1.724   0.167   4.817  1.6276  0.7096  0.9176
   69MOL0     H 9263   1.781   0.009   4.840 -0.9952 -1.4916  0.9866
   69MOL0     H 9264   1.691   0.207   5.056 -0.4873  0.3341 -2.8382
   69MOL0     H 9265   1.771   0.043   5.099 -1.0420  1.4996  1.5404
   69MOL0     H 9266   2.010   0.118   4.858  3.6527  2.3056 -0.9698
   69MOL0     H 9267   2.289   0.255   4.918  1.4310  0.9076  1.5861
   69MOL0     H 9268   2.304   0.227   5.081  0.9710  1.3784 -1.4662
   69MOL0     H 9269   2.233   0.010   4.878  1.8696 -0.2760 -2.0113
   69MOL0     H 9270   2.398   0.038   4.938 -0.2953 -1.6088  0.4369
   69MOL0     H 9271   2.163  -0.113   5.046 -2.0561  3.0023  0.7787
   69MOL0     H 9272   2.219  -0.015   5.167 -0.4671  0.3461 -0.3257
   69MOL0     H 9273   2.417  -0.182   4.998 -0.8906 -1.2607  0.3021
   69MOL0     H 9274   2.356  -0.240   5.151  2.9037  0.4810  0.5063
   69MOL0     H 9275   2.656   0.077   5.221  3.8648  1.7844 -0.1717
   69MOL0     H 9276   2.896   0.020   5.257 -2.0846  3.3762 -0.9853
   69MOL0     H 9277   3.330   0.027   5.247  1.8356 -3.1146  2.3333
   69MOL0     H 9278   3.514   0.069   5.096 -3.0399  2.4488  0.4176
   69MOL0     H 9279   3.706  -0.126   5.095  3.6168  0.5964 -1.0512
   69MOL0     H 9280   3.675  -0.266   4.996  0.7312 -0.0642  0.4512
   69MOL0     H 9281   3.830  -0.172   4.820 -1.5649  3.3568 -0.5165
   69MOL0     H 9282   3.858  -0.041   4.927  1.5947 -0.6942 -1.1434
   69MOL0     H 9283   3.949  -0.204   5.097 -0.4399 -0.1808 -0.3363
   69MOL0     H 9284   3.935  -0.343   4.985  1.5293 -0.6370 -0.2276
   69MOL0     H 9285   4.077  -0.239   4.823 -1.3120 -0.5407  0.1404
   69MOL0     H 9286   4.157  -0.299   4.966  1.2207  2.8653  1.8015
   69MOL0     H 9287   4.160  -0.080   5.061  0.7127 -2.8497  0.9999
   69MOL0     H 9288   4.087  -0.007   4.918 -1.2287 -1.7563 -0.4301
   69MOL0     H 9289   4.337  -0.179   4.915  0.4096  0.0435 -0.7993
   69MOL0     H 9290   4.288  -0.067   4.787  1.6323  0.5033  0.6823
   69MOL0     H 9291   4.373   0.017   5.074 -0.3504 -1.1648  0.5448
   69MOL0     H 9292   4.294   0.116   4.952 -0.7352 -0.6795 -0.1188
   69MOL0     H 9293   4.536   0.163   4.944 -3.6971  0.8129  0.6449
   69MOL0     H 9294   4.579  -0.020   4.947 -0.7669 -0.0468 -1.6122
   69MOL0     H 9295   3.403  -0.272   4.867 -0.3874 -1.8269  0.5085
   69MOL0     H 9296   3.187  -0.289   4.991  1.3026 -1.4242  2.2338
   69MOL0     H 9297   2.818  -0.383   5.110  1.7034 -0.4471  0.4420
   69MOL0     H 9298   2.570  -0.326   5.102 -3.0791  1.4118  2.1763
   69MOL0     H 9299   0.734  -0.094   4.499  2.2008 -3.1941  2.0047
   69MOL0     H 9300   0.530  -0.001   4.607 -0.0593 -1.2589 -0.1453
   69MOL0     H 9301   0.334   0.426   4.845  1.8915 -2.3170 -1.4513
   69MOL0     H 9302   0.121   0.479   4.974 -0.3894 -1.0271 -2.0211
   69MOL0     H 9303  -0.069   0.336   5.341 -0.8404 -0.5542 -0.8754
   69MOL0     H 9304   0.046   0.193   5.320  0.7753  0.2733  1.2330
   69MOL0     H 9305  -0.077   0.127   5.116  4.2063  1.0203  2.4413
   69MOL0     H 9306  -0.197   0.253   5.143 -0.1030 -0.1874 -1.1478
   69MOL0     H 9307  -0.246   0.126   5.368  0.5540  0.3733  0.3630
   69MOL0     H 9308  -0.156  -0.012   5.303  1.3211  1.8143  2.6328
   69MOL0     H 9309  -0.312  -0.033   5.111  1.2809  0.2262  0.4347
   69MOL0     H 9310  -0.397  -0.013   5.271 -1.1020 -0.0279 -0.3694
   69MOL0     H 9311  -0.556   0.301   5.053  2.0057  2.6166  0.9561
   69MOL0     H 9312   0.240   0.174   5.243 -1.8595 -0.9712 -1.1206
   69MOL0     H 9313   0.411  -0.007   5.071 -2.4353  0.7118 -1.1291
   69MOL0     H 9314   0.546   0.091   5.116  0.7099  0.8876  2.3276
   69MOL0     H 9315   0.421   0.055   5.238 -0.0758  0.3781 -0.1785
   70MOL0     O 9316   5.835   0.605   6.415 -1.1858 -0.8337 -0.1205
   70MOL0     C 9317   5.801   0.692   6.330 -0.5505  0.6007 -0.3981
   70MOL0     O 9318   5.873   0.726   6.217 -0.2827 -0.4054  1.5914
   70MOL0     C 9319   5.976   0.645   6.169  0.4511  0.8660 -0.3495
   70MOL0     C 9320   5.951   0.504   6.162  0.6152 -0.5111  0.8318
   70MOL0     C 9321   6.041   0.418   6.107 -0.0209 -0.4615 -0.0585
   70MOL0     C 9322   6.157   0.464   6.052  0.6324 -0.3668  0.2328
   70MOL0     O 9323   6.236   0.367   5.998  0.4756  0.5060 -0.0146
   70MOL0     C 9324   6.369   0.376   6.040 -0.0916  0.2241  0.2015
   70MOL0     C 9325   6.462   0.291   5.947 -0.6234 -0.7022 -0.2577
   70MOL0     C 9326   6.611   0.318   5.976 -0.2627  0.6335  0.5887
   70MOL0     C 9327   6.664   0.349   6.116  0.1189  0.9120  0.3325
   70MOL0     C 9328   6.812   0.390   6.123 -0.1940  0.0928 -0.1232
   70MOL0     C 9329   6.832   0.545   6.103  0.2063  0.8291  0.4341
   70MOL0     C 9330   6.985   0.578   6.084 -0.2952  0.7398 -0.3366
   70MOL0     C 9331   7.057   0.529   6.202 -0.4374  0.1289 -0.5598
   70MOL0     N 9332   7.190   0.589   6.207  0.1042 -0.5986  0.6213
   70MOL0     C 9333   7.256   0.638   6.099 -0.8093 -0.2656  0.3903
   70MOL0     C 9334   7.363   0.690   6.156 -1.0888 -0.5021  0.9444
   70MOL0     C 9335   7.465   0.771   6.077 -0.1850 -0.6383  0.5578
   70MOL0     C 9336   7.601   0.710   6.069 -0.1361  0.3282 -0.3865
   70MOL0     C 9337   7.724   0.810   6.037  0.5480  0.6763  0.0510
   70MOL0     C 9338   7.854   0.741   6.009  0.0302  0.2446  0.7410
   70MOL0     O 9339   7.836   0.661   5.886 -0.3928  0.2027  0.5462
   70MOL0     C 9340   7.945   0.648   5.811 -0.1637 -0.0226  0.6887
   70MOL0     C 9341   7.992   0.760   5.743  0.0436  0.3190 -0.0925
   70MOL0     C 9342   8.106   0.755   5.670 -0.1936  0.4693  0.6267
   70MOL0     C 9343   8.180   0.639   5.664  0.2046  0.5657  0.4242
   70MOL0     C 9344   8.299   0.630   5.587 -0.1822 -0.3232 -0.2133
   70MOL0     O 9345   8.315   0.717   5.486 -0.6424  0.2307  1.2746
   70MOL0     C 9346   8.444   0.716   5.434  0.2701 -0.0334 -0.4627
   70MOL0     C 9347   8.475   0.617   5.337  0.0231 -0.6873 -0.6095
   70MOL0     C 9348   8.605   0.621   5.288  0.0037 -0.1004 -0.0516
   70MOL0     C 9349   8.703   0.707   5.337  0.1104  0.3096  0.7488
   70MOL0     O 9350   8.838   0.693   5.310  0.5435  0.7278 -0.8396
   70MOL0     C 9351   8.908   0.804   5.258  0.1211  0.3551  0.1048
   70MOL0     C 9352   9.028   0.773   5.171 -0.5506 -0.0130 -0.6915
   70MOL0     C 9353   8.978   0.677   5.059 -0.3332  0.0893  0.5926
   70MOL0     C 9354   9.089   0.630   4.961  0.5445 -0.1867  1.2249
   70MOL0     C 9355   9.134   0.744   4.866 -0.4010 -0.3854 -0.2533
   70MOL0     C 9356   9.265   0.705   4.800 -0.1747 -0.6987  0.2185
   70MOL0     C 9357   9.256   0.628   4.667  0.2759 -0.3204 -0.6099
   70MOL0     C 9358   9.388   0.603   4.594 -0.7547  0.2827 -0.0532
   70MOL0    Cl 9359   9.415   0.712   4.451  0.0065  0.1517 -0.0559
   70MOL0     C 9360   8.669   0.794   5.433  0.4343  0.6764 -0.5890
   70MOL0     C 9361   8.542   0.806   5.476 -0.1934  0.0443 -0.3269
   70MOL0     O 9362   8.387   0.558   5.633 -0.3537 -0.0132 -0.3844
   70MOL0     C 9363   8.137   0.520   5.735 -0.0019 -0.1234 -0.7463
   70MOL0     C 9364   8.012   0.523   5.805  0.2073 -0.3500 -0.0033
   70MOL0     N 9365   7.375   0.652   6.286  0.7654  0.0528 -0.1872
   70MOL0     N 9366   7.266   0.596   6.323  0.9581 -0.3189  0.7931
   70MOL0     C 9367   6.186   0.607   6.048  0.4299  0.3311 -0.0144
   70MOL0     C 9368   6.095   0.689   6.123 -0.0817  0.0041  0.0987
   70MOL0     C 9369   5.683   0.779   6.352  0.4983 -0.4955 -0.0356
   70MOL0     C 9370   5.686   0.904   6.287  0.1930  0.5613 -0.2499
   70MOL0     C 9371   5.584   0.994   6.300 -0.6572  0.0314  0.5774
   70MOL0     C 9372   5.471   0.963   6.374  0.3062 -0.6818 -0.2838
   70MOL0     O 9373   5.377   1.060   6.377 -0.1023  0.8250 -0.3798
   70MOL0     C 9374   5.240   1.027   6.364 -0.7240  0.6358  0.7727
   70MOL0     C 9375   5.173   1.045   6.504 -0.2421  0.3935  0.3876
   70MOL0     C 9376   5.198   1.181   6.565 -0.5473 -0.6207  0.1273
   70MOL0     C 9377   5.103   1.216   6.686  0.0917  0.9526  0.6707
   70MOL0     C 9378   5.130   1.121   6.795 -0.0861 -0.1586  0.1901
   70MOL0     C 9379   5.154   1.036   6.876  0.1223  0.4896 -0.7527
   70MOL0     C 9380   5.460   0.836   6.434 -1.3681  0.2251  1.0069
   70MOL0     C 9381   5.569   0.741   6.419 -0.3849  0.1216  0.2878
   70MOL0     C 9382   5.535   0.603   6.477  0.1266 -0.6282 -0.4831
   70MOL0     H 9383   5.859   0.473   6.211 -1.0318  2.4766 -0.1245
   70MOL0     H 9384   6.016   0.313   6.111  0.2493 -0.4979  1.0740
   70MOL0     H 9385   6.399   0.482   6.039 -0.7572  0.4136 -0.9512
   70MOL0     H 9386   6.374   0.331   6.140 -3.5230  0.8144  0.7774
   70MOL0     H 9387   6.443   0.325   5.845  0.5272 -1.3129 -0.6850
   70MOL0     H 9388   6.448   0.182   5.954  0.3652 -1.2289 -4.3488
   70MOL0     H 9389   6.642   0.398   5.908  0.7202  1.7320  2.2556
   70MOL0     H 9390   6.668   0.230   5.943 -2.3552 -0.8727  0.7930
   70MOL0     H 9391   6.603   0.422   6.171 -1.6500  0.0718 -0.4562
   70MOL0     H 9392   6.655   0.261   6.181  3.4336  1.4791  1.7677
   70MOL0     H 9393   6.846   0.377   6.226  1.4764 -1.2565 -0.8072
   70MOL0     H 9394   6.861   0.324   6.051 -1.9244  1.5519 -2.8014
   70MOL0     H 9395   6.780   0.598   6.022  0.2574  2.7739  1.6254
   70MOL0     H 9396   6.800   0.603   6.190 -0.1600 -0.0500  0.8968
   70MOL0     H 9397   7.000   0.686   6.075 -1.8728  1.0737  0.6384
   70MOL0     H 9398   7.016   0.520   5.997 -2.4439 -0.3539 -0.4308
   70MOL0     H 9399   7.013   0.564   6.296  3.4373  0.4706  1.2875
   70MOL0     H 9400   7.071   0.420   6.201 -0.6593  0.0823  0.4244
   70MOL0     H 9401   7.226   0.657   5.997 -0.7254 -3.4378 -0.3326
   70MOL0     H 9402   7.435   0.803   5.977  1.2036 -0.2276  0.2526
   70MOL0     H 9403   7.462   0.863   6.136 -2.4683  0.3552 -0.9301
   70MOL0     H 9404   7.622   0.660   6.164 -0.9605  0.2118 -0.2583
   70MOL0     H 9405   7.597   0.631   5.993 -3.4376  0.0068 -0.0140
   70MOL0     H 9406   7.734   0.880   6.121  0.6355  0.2355  0.4076
   70MOL0     H 9407   7.699   0.860   5.943 -0.2913  2.1055  0.9775
   70MOL0     H 9408   7.886   0.667   6.082  0.1931 -1.8022 -1.2958
   70MOL0     H 9409   7.941   0.808   6.005  1.5538 -1.5565  1.9928
   70MOL0     H 9410   7.928   0.847   5.753  1.7360  1.5575  0.3409
   70MOL0     H 9411   8.129   0.849   5.620 -0.5282 -0.5071 -1.4294
   70MOL0     H 9412   8.399   0.550   5.299  0.1966  1.0233 -4.5087
   70MOL0     H 9413   8.641   0.557   5.209  2.3399  1.8049 -0.6860
   70MOL0     H 9414   8.841   0.883   5.225  1.0225  1.8331  1.6773
   70MOL0     H 9415   8.948   0.840   5.354  0.2855  2.2525 -0.6393
   70MOL0     H 9416   9.070   0.869   5.139 -1.1156  1.0394  1.5372
   70MOL0     H 9417   9.107   0.716   5.221 -0.7850  0.0627 -0.2250
   70MOL0     H 9418   8.941   0.584   5.104  0.1068 -0.5385 -0.3065
   70MOL0     H 9419   8.899   0.728   5.003 -0.8050 -1.2462 -0.0091
   70MOL0     H 9420   9.059   0.543   4.901  0.0757  1.4779 -1.0794
   70MOL0     H 9421   9.171   0.608   5.030 -0.8980 -1.1997  2.6846
   70MOL0     H 9422   9.134   0.835   4.927 -1.6756  0.5374 -1.5575
   70MOL0     H 9423   9.057   0.765   4.791 -2.9589  3.8839  3.0309
   70MOL0     H 9424   9.318   0.798   4.779 -0.9218 -0.2159  0.3997
   70MOL0     H 9425   9.326   0.649   4.871 -3.1862  0.2123  3.8477
   70MOL0     H 9426   9.191   0.679   4.595 -0.4131  0.6614  0.6664
   70MOL0     H 9427   9.222   0.527   4.692  1.3167 -0.7737 -0.9728
   70MOL0     H 9428   9.474   0.609   4.661 -0.0132  0.0286 -0.9669
   70MOL0     H 9429   9.393   0.503   4.550 -0.7198  0.3784 -0.2679
   70MOL0     H 9430   8.746   0.853   5.482  1.0958 -0.7376  0.1380
   70MOL0     H 9431   8.538   0.878   5.558  3.1735  0.4785 -0.3961
   70MOL0     H 9432   8.186   0.424   5.722  0.7104  0.2036 -0.5258
   70MOL0     H 9433   7.992   0.436   5.867 -1.3905 -0.3262 -0.4628
   70MOL0     H 9434   6.263   0.649   5.984 -0.9392  2.4497 -0.3660
   70MOL0     H 9435   6.105   0.797   6.126 -2.3969  0.2666 -0.0256
   70MOL0     H 9436   5.777   0.932   6.235  0.0272 -1.2849 -1.6340
   70MOL0     H 9437   5.603   1.093   6.262 -1.2043 -0.6016 -1.4349
   70MOL0     H 9438   5.223   0.920   6.348  2.4272  0.1547 -0.0047
   70MOL0     H 9439   5.190   1.085   6.286  0.1644  0.4802  0.0635
   70MOL0     H 9440   5.217   0.972   6.572  1.5459  0.3031 -0.7916
   70MOL0     H 9441   5.066   1.027   6.489 -0.2972  0.3177  0.8674
   70MOL0     H 9442   5.197   1.247   6.478  4.4109 -1.2905 -0.7789
   70MOL0     H 9443   5.302   1.184   6.601 -1.2780 -1.1922  2.4462
   70MOL0     H 9444   5.108   1.323   6.707  1.6329  0.8630  0.9050
   70MOL0     H 9445   5.000   1.209   6.649  0.2724  2.7317 -0.2929
   70MOL0     H 9446   5.178   0.971   6.958 -0.5265  0.5306 -0.5286
   70MOL0     H 9447   5.368   0.819   6.489 -2.4926 -1.3065 -1.2007
   70MOL0     H 9448   5.557   0.530   6.398 -2.4417 -1.5357 -0.4696
   70MOL0     H 9449   5.593   0.574   6.566  1.1105  2.3527 -0.0641
   70MOL0     H 9450   5.428   0.598   6.500  0.2780  1.3023  0.8659
   71MOL0     O 9451   5.334   8.604   1.030  0.1828  0.0863  0.3461
   71MOL0     C 9452   5.264   8.526   1.100 -0.3390  0.2321 -0.0571
   71MOL0     O 9453   5.309   8.410   1.171 -0.0715 -0.7722  0.5319
   71MOL0     C 9454   5.433   8.358   1.151  0.5613 -0.3880  0.1096
   71MOL0     C 9455   5.492   8.337   1.024 -0.8325  0.4573 -0.4281
   71MOL0     C 9456   5.617   8.280   1.013 -0.4990 -0.0864  0.1457
   71MOL0     C 9457   5.696   8.248   1.129  0.1481  0.6176  0.5473
   71MOL0     O 9458   5.823   8.193   1.112 -1.3559 -0.4734  0.0755
   71MOL0     C 9459   5.872   8.174   0.980  0.0165 -0.2407  0.0485
   71MOL0     C 9460   6.020   8.140   0.992 -0.1341  0.1675  0.4048
   71MOL0     C 9461   6.063   8.033   1.100  0.0224 -0.1576 -0.2709
   71MOL0     C 9462   6.148   8.100   1.205 -0.1848  0.0736  0.1760
   71MOL0     C 9463   6.128   8.032   1.340  0.8979  0.1628  0.2951
   71MOL0     C 9464   6.220   8.080   1.448  0.6028  0.6592 -0.2711
   71MOL0     C 9465   6.203   7.984   1.577 -0.4220  0.2715  0.5382
   71MOL0     C 9466   6.270   8.042   1.708 -0.3682  0.6725 -0.0758
   71MOL0     N 9467   6.421   8.047   1.703 -0.2253 -0.6521 -0.5541
   71MOL0     C 9468   6.506   7.957   1.645 -0.2300  0.4230  0.1862
   71MOL0     C 9469   6.621   8.015   1.662  0.1504  0.1094 -0.8291
   71MOL0     C 9470   6.753   7.955   1.626 -0.8502  0.2407  0.1648
   71MOL0     C 9471   6.771   7.810   1.677 -0.4512  0.1959 -0.2290
   71MOL0     C 9472   6.918   7.766   1.674  0.2144  0.4231  0.9627
   71MOL0     C 9473   6.984   7.749   1.810  0.0574  0.1614  0.8093
   71MOL0     O 9474   6.977   7.881   1.874  1.1045  0.4064 -0.3254
   71MOL0     C 9475   7.058   7.905   1.973  0.6283 -0.3505  0.1048
   71MOL0     C 9476   7.064   8.044   2.002 -1.4491 -0.0481 -0.5272
   71MOL0     C 9477   7.147   8.092   2.107  0.8300  0.2221 -0.9351
   71MOL0     C 9478   7.236   8.004   2.170 -0.5303  0.0529  0.2171
   71MOL0     C 9479   7.321   8.056   2.282 -0.5281  0.0110  1.1754
   71MOL0     O 9480   7.311   8.193   2.310  0.0261 -0.9438 -0.6195
   71MOL0     C 9481   7.390   8.231   2.419  0.5347 -0.1914  0.6122
   71MOL0     C 9482   7.358   8.173   2.545  0.8288 -1.3103  1.0275
   71MOL0     C 9483   7.447   8.200   2.647  0.4620 -0.0130  0.3250
   71MOL0     C 9484   7.561   8.294   2.627  0.5310 -0.0163 -0.4232
   71MOL0     O 9485   7.651   8.322   2.725  0.2221  0.5754  0.1911
   71MOL0     C 9486   7.644   8.243   2.844 -0.7380  0.1408  0.1312
   71MOL0     C 9487   7.768   8.252   2.939  0.1794  0.0931 -0.0010
   71MOL0     C 9488   7.901   8.296   2.880 -0.6436 -0.1945  0.6984
   71MOL0     C 9489   7.915   8.440   2.838 -0.5819  0.2620 -0.9148
   71MOL0     C 9490   8.070   8.473   2.812  0.0422 -0.3715 -0.8497
   71MOL0     C 9491   8.078   8.608   2.736 -0.8268 -0.2983  0.4437
   71MOL0     C 9492   8.229   8.627   2.702  0.9557 -0.7458  0.4251
   71MOL0     C 9493   8.245   8.753   2.613 -0.1219 -0.0258  1.0451
   71MOL0    Cl 9494   8.245   8.906   2.700  0.1281 -0.1476  0.2776
   71MOL0     C 9495   7.585   8.343   2.506 -0.0528  0.4155  0.2935
   71MOL0     C 9496   7.493   8.327   2.401  0.2459  0.5695  0.0011
   71MOL0     O 9497   7.388   7.973   2.346 -0.3268 -0.3175  0.2013
   71MOL0     C 9498   7.234   7.870   2.143 -0.9633 -0.2302 -0.3279
   71MOL0     C 9499   7.141   7.817   2.051  0.7741  1.1915 -0.2226
   71MOL0     N 9500   6.608   8.131   1.728 -1.0698 -0.1111 -1.0773
   71MOL0     N 9501   6.488   8.154   1.755  0.3828  0.2102 -0.0749
   71MOL0     C 9502   5.638   8.271   1.256  0.1260  0.7697 -1.1228
   71MOL0     C 9503   5.507   8.319   1.270  0.1350 -0.3053  0.2931
   71MOL0     C 9504   5.116   8.555   1.119  0.3699 -0.2517 -0.3964
   71MOL0     C 9505   5.056   8.491   1.227  0.3073 -0.4320  0.0505
   71MOL0     C 9506   4.915   8.504   1.257  0.5454  0.6617  0.6228
   71MOL0     C 9507   4.838   8.589   1.175  0.0125 -0.4663  0.0781
   71MOL0     O 9508   4.702   8.603   1.210  0.3463  0.8300 -0.2448
   71MOL0     C 9509   4.605   8.629   1.109  0.0796  0.4184 -0.6696
   71MOL0     C 9510   4.606   8.519   1.003  0.9835 -0.2076 -0.3222
   71MOL0     C 9511   4.497   8.426   1.048 -0.3250  0.2308 -0.6054
   71MOL0     C 9512   4.474   8.323   0.937 -0.1315 -0.2139 -0.1871
   71MOL0     C 9513   4.567   8.210   0.924  0.7536 -0.3677 -0.6662
   71MOL0     C 9514   4.652   8.127   0.897 -0.1858  0.2249 -0.0574
   71MOL0     C 9515   4.896   8.654   1.065 -0.0831  0.0288 -0.3620
   71MOL0     C 9516   5.031   8.640   1.038  0.2460  0.4011  0.6957
   71MOL0     C 9517   5.077   8.704   0.912 -0.7021  0.2896  0.0744
   71MOL0     H 9518   5.438   8.359   0.933 -1.0609  0.7506 -0.2205
   71MOL0     H 9519   5.648   8.270   0.909  2.1034  3.2401  0.4201
   71MOL0     H 9520   5.812   8.093   0.938  0.8754 -1.6083  1.3381
   71MOL0     H 9521   5.861   8.262   0.916 -0.6754 -0.6381 -0.3934
   71MOL0     H 9522   6.084   8.228   1.001  1.3486 -0.6608 -1.2594
   71MOL0     H 9523   6.049   8.100   0.894 -0.9244  1.9888 -0.6244
   71MOL0     H 9524   6.109   7.948   1.050  1.0966  0.4194 -0.2959
   71MOL0     H 9525   5.972   8.008   1.156  1.2561 -0.4317  1.7158
   71MOL0     H 9526   6.250   8.107   1.166  0.5136  0.4375  1.9790
   71MOL0     H 9527   6.121   8.206   1.212  1.1348  0.5437 -1.3080
   71MOL0     H 9528   6.025   8.062   1.362  0.2178 -1.6182 -0.2718
   71MOL0     H 9529   6.137   7.923   1.332  0.8719  0.1210  0.8001
   71MOL0     H 9530   6.323   8.076   1.412  0.2570 -0.6821 -1.1772
   71MOL0     H 9531   6.187   8.183   1.468 -3.1912 -0.4367 -0.1057
   71MOL0     H 9532   6.229   7.879   1.557  0.9874  0.9602 -1.5543
   71MOL0     H 9533   6.095   7.972   1.590 -0.5616 -2.5562 -2.1547
   71MOL0     H 9534   6.231   8.143   1.723  1.6865  1.1898  2.4417
   71MOL0     H 9535   6.240   7.984   1.796  3.4977  0.9300  1.6320
   71MOL0     H 9536   6.476   7.860   1.607  2.8984 -0.8042  0.5415
   71MOL0     H 9537   6.767   7.952   1.518 -2.2437 -1.7896 -0.0123
   71MOL0     H 9538   6.824   8.006   1.691 -0.6875 -0.8223  0.8497
   71MOL0     H 9539   6.723   7.793   1.774  1.7982 -1.8980  0.6090
   71MOL0     H 9540   6.722   7.732   1.617 -0.9071 -1.6305  2.3179
   71MOL0     H 9541   6.984   7.833   1.619 -1.9291  3.1157  1.4482
   71MOL0     H 9542   6.918   7.674   1.615 -2.9227  0.5343  0.6117
   71MOL0     H 9543   7.091   7.726   1.800  0.2381  1.4756 -0.7069
   71MOL0     H 9544   6.945   7.664   1.866 -1.8179 -1.3715 -2.5285
   71MOL0     H 9545   6.999   8.116   1.953 -1.4859 -0.4024 -1.0035
   71MOL0     H 9546   7.145   8.194   2.146  3.2524 -0.7505  2.1328
   71MOL0     H 9547   7.277   8.102   2.550  1.0316 -1.8314 -1.6071
   71MOL0     H 9548   7.421   8.160   2.745  1.3155  2.5568  1.6929
   71MOL0     H 9549   7.556   8.277   2.900 -1.5491 -0.0020 -1.0098
   71MOL0     H 9550   7.643   8.141   2.804  3.5945 -1.1249  2.6312
   71MOL0     H 9551   7.749   8.339   3.001  0.1880  0.7080 -0.8372
   71MOL0     H 9552   7.777   8.160   2.997  0.8901 -2.3985 -3.7278
   71MOL0     H 9553   7.973   8.282   2.962 -1.0741  2.2940  1.6035
   71MOL0     H 9554   7.917   8.244   2.785 -2.9156  1.4626 -0.7060
   71MOL0     H 9555   7.870   8.506   2.913  2.2767  0.2327  0.9890
   71MOL0     H 9556   7.864   8.452   2.742  0.7773  1.4810 -1.5327
   71MOL0     H 9557   8.104   8.400   2.739 -2.3155 -1.2443 -1.1538
   71MOL0     H 9558   8.128   8.473   2.905  1.2508 -0.3604 -1.5929
   71MOL0     H 9559   8.028   8.598   2.639  0.4455  0.8474 -0.3646
   71MOL0     H 9560   8.032   8.683   2.801  1.0426  0.0383  1.4336
   71MOL0     H 9561   8.256   8.534   2.650  0.3346 -0.6509 -0.0765
   71MOL0     H 9562   8.290   8.624   2.792  0.8262 -3.6451  0.5021
   71MOL0     H 9563   8.327   8.743   2.541 -1.3379  1.0801 -0.5718
   71MOL0     H 9564   8.170   8.755   2.533  0.4229  1.5309  0.5325
   71MOL0     H 9565   7.679   8.397   2.493  1.3660 -1.5473  1.8216
   71MOL0     H 9566   7.515   8.371   2.304 -0.3239 -1.9447 -1.3655
   71MOL0     H 9567   7.302   7.801   2.193 -1.1820  1.1123  1.9813
   71MOL0     H 9568   7.129   7.710   2.035 -0.7055  1.1381  1.1003
   71MOL0     H 9569   5.683   8.236   1.348  0.1387 -0.4104 -1.5503
   71MOL0     H 9570   5.464   8.342   1.366  0.8352  1.1428  0.2898
   71MOL0     H 9571   5.104   8.437   1.308 -0.3324  0.7898  1.2801
   71MOL0     H 9572   4.870   8.440   1.332 -1.2307 -0.5021 -1.3228
   71MOL0     H 9573   4.630   8.723   1.058 -2.0123  0.3596 -1.9221
   71MOL0     H 9574   4.507   8.639   1.156  1.5785 -0.1266  2.8906
   71MOL0     H 9575   4.699   8.463   0.988  0.6572 -0.6753 -0.6245
   71MOL0     H 9576   4.582   8.556   0.903 -1.3470 -2.1685 -0.5883
   71MOL0     H 9577   4.407   8.480   1.080  0.2677  1.0981 -0.3480
   71MOL0     H 9578   4.536   8.376   1.137  0.4172  0.7025 -0.6591
   71MOL0     H 9579   4.383   8.273   0.970  0.3852 -0.8262  0.3482
   71MOL0     H 9580   4.452   8.373   0.843  0.9983 -0.1258 -0.4250
   71MOL0     H 9581   4.731   8.055   0.882  0.3430  1.3782 -3.8148
   71MOL0     H 9582   4.841   8.721   1.000  1.5132  2.8413  1.0006
   71MOL0     H 9583   5.096   8.619   0.846 -1.7781 -0.8003  1.0983
   71MOL0     H 9584   5.003   8.766   0.861  0.2099  0.8860 -0.5417
   71MOL0     H 9585   5.171   8.759   0.919  0.5301 -1.7081 -0.0436
   72MOL0     O 9586   9.387   6.751   4.162 -0.3212 -0.4610 -0.1302
   72MOL0     C 9587   9.403   6.727   4.277  0.1404  0.2549 -0.4548
   72MOL0     O 9588   9.517   6.666   4.330  0.0636  0.0076  0.1146
   72MOL0     C 9589   9.626   6.664   4.250 -0.1269  0.3024 -0.4158
   72MOL0     C 9590   9.678   6.776   4.201  0.1589 -0.1161  0.3867
   72MOL0     C 9591   9.796   6.783   4.121  0.0232 -0.4287 -0.2654
   72MOL0     C 9592   9.843   6.654   4.075 -0.5545  0.2737 -0.0547
   72MOL0     O 9593   9.952   6.654   3.986  0.2140  0.0956 -0.8029
   72MOL0     C 9594  10.076   6.661   4.060  0.1703  0.2183 -0.2733
   72MOL0     C 9595  10.176   6.560   4.007  0.2529 -1.0964 -0.2478
   72MOL0     C 9596  10.321   6.582   4.062  0.4310  0.3717 -0.4680
   72MOL0     C 9597  10.400   6.453   4.069  0.1517  0.4957 -0.7059
   72MOL0     C 9598  10.472   6.408   3.947 -0.1758  0.1840 -0.7972
   72MOL0     C 9599  10.539   6.263   3.943  1.0719  0.7321  0.1298
   72MOL0     C 9600  10.630   6.246   3.824  0.2640  0.0822  0.1779
   72MOL0     C 9601  10.772   6.292   3.845  0.4140  0.8353  0.4639
   72MOL0     N 9602  10.848   6.279   3.722  0.1800  0.4567  0.0535
   72MOL0     C 9603  10.833   6.373   3.621  0.2142 -0.0596  0.3608
   72MOL0     C 9604  10.895   6.311   3.509  0.4609  0.5159 -0.6380
   72MOL0     C 9605  10.921   6.366   3.374 -0.5296 -0.4146 -0.0360
   72MOL0     C 9606  11.021   6.309   3.288 -0.3991 -0.1990  0.0157
   72MOL0     C 9607  11.158   6.297   3.352 -0.0848  0.1436  0.3497
   72MOL0     C 9608  11.221   6.430   3.358 -0.0517  0.2575  0.1006
   72MOL0     O 9609  11.358   6.433   3.396 -0.3523 -0.7924  1.4976
   72MOL0     C 9610  11.461   6.372   3.318 -0.2536 -0.8125  0.0671
   72MOL0     C 9611  11.446   6.338   3.184 -0.2827  0.3293  1.2318
   72MOL0     C 9612  11.551   6.285   3.115 -0.0131 -0.0178  0.5705
   72MOL0     C 9613  11.673   6.256   3.188  0.0561  0.4215 -0.1086
   72MOL0     C 9614  11.789   6.201   3.109  0.1555 -0.2976  0.1902
   72MOL0     O 9615  11.768   6.201   2.968  0.7930 -0.5502 -0.6397
   72MOL0     C 9616  11.868   6.175   2.879 -0.3045 -0.5617  0.0513
   72MOL0     C 9617  11.963   6.273   2.853 -0.8062 -0.7808 -0.7427
   72MOL0     C 9618  12.054   6.253   2.758 -0.6615  0.1862 -0.5959
   72MOL0     C 9619  12.053   6.137   2.676 -1.0284  0.0259  0.9840
   72MOL0     O 9620  12.139   6.114   2.567 -0.2347  0.4878 -0.1558
   72MOL0     C 9621  12.251   6.201   2.535 -0.9789  1.3617 -0.7109
   72MOL0     C 9622  12.360   6.127   2.460  0.2731 -0.1931 -0.6310
   72MOL0     C 9623  12.309   6.121   2.316  0.4363  0.7511  0.0020
   72MOL0     C 9624  12.411   6.038   2.226 -0.6264 -0.9639 -0.2296
   72MOL0     C 9625  12.541   6.125   2.193 -0.5713  1.5246  0.1821
   72MOL0     C 9626  12.672   6.073   2.262  1.1822  0.0370  0.3508
   72MOL0     C 9627  12.793   6.169   2.258  0.9497  0.0828  0.0362
   72MOL0     C 9628  12.877   6.134   2.379 -0.6617 -0.0617  0.5340
   72MOL0    Cl 9629  12.976   5.982   2.330 -0.2480  0.1244 -0.5145
   72MOL0     C 9630  11.966   6.035   2.704  0.1669 -0.6334  0.7092
   72MOL0     C 9631  11.860   6.057   2.800 -0.6009 -0.2159  0.2813
   72MOL0     O 9632  11.893   6.179   3.161 -0.5650  0.1269  0.5505
   72MOL0     C 9633  11.690   6.295   3.313 -0.4815 -0.1784 -0.8359
   72MOL0     C 9634  11.585   6.353   3.378 -0.9394 -0.0340 -0.8236
   72MOL0     N 9635  10.966   6.196   3.560 -0.6357  0.0629  0.8708
   72MOL0     N 9636  10.933   6.174   3.679 -0.7564  0.5861 -0.5479
   72MOL0     C 9637   9.792   6.538   4.122  1.6373  0.4621 -0.8948
   72MOL0     C 9638   9.691   6.546   4.222  0.0060  0.2271  0.2921
   72MOL0     C 9639   9.291   6.772   4.365  0.6756 -1.0299 -0.1895
   72MOL0     C 9640   9.288   6.715   4.497  0.0310  0.1433 -0.3920
   72MOL0     C 9641   9.190   6.747   4.586  0.0189 -0.4978 -0.5913
   72MOL0     C 9642   9.083   6.827   4.545  0.0312 -0.1253  0.5457
   72MOL0     O 9643   8.978   6.853   4.629 -0.4684  0.2341  0.1213
   72MOL0     C 9644   9.027   6.920   4.749  0.3841  0.0411 -0.3144
   72MOL0     C 9645   8.902   6.976   4.809  0.7468 -0.7020 -0.3994
   72MOL0     C 9646   8.794   7.036   4.714 -0.4872 -0.8283  0.1265
   72MOL0     C 9647   8.708   7.134   4.790  0.6281  0.1673  0.3111
   72MOL0     C 9648   8.604   7.067   4.871 -0.8160  0.4939 -1.0176
   72MOL0     C 9649   8.532   7.041   4.965  0.2399  0.1807 -0.0618
   72MOL0     C 9650   9.082   6.885   4.419  0.1969 -0.0611  0.0276
   72MOL0     C 9651   9.188   6.867   4.333  0.5583  0.7320 -0.5908
   72MOL0     C 9652   9.186   6.954   4.210 -0.0500  0.4749  0.2531
   72MOL0     H 9653   9.619   6.866   4.217 -0.3422 -0.1368 -1.1623
   72MOL0     H 9654   9.832   6.880   4.090  0.7817 -1.8474 -4.5707
   72MOL0     H 9655  10.116   6.761   4.044 -3.9628  1.7581 -2.5806
   72MOL0     H 9656  10.062   6.658   4.169  0.8716 -2.1629 -0.1826
   72MOL0     H 9657  10.183   6.569   3.898 -2.7445  0.6898 -0.4101
   72MOL0     H 9658  10.136   6.460   4.026 -0.6740 -0.7426 -0.3071
   72MOL0     H 9659  10.312   6.617   4.165 -1.4563  1.1416 -0.8414
   72MOL0     H 9660  10.378   6.650   3.999  3.8368 -2.2650 -0.5179
   72MOL0     H 9661  10.477   6.483   4.141  0.8623  0.1858 -1.3156
   72MOL0     H 9662  10.334   6.379   4.115  3.7457 -1.3072  2.0020
   72MOL0     H 9663  10.416   6.402   3.852  2.1486 -0.4028 -2.2055
   72MOL0     H 9664  10.542   6.484   3.912  1.1888 -1.2628 -1.3345
   72MOL0     H 9665  10.576   6.232   4.041 -0.1328 -3.3843 -0.5318
   72MOL0     H 9666  10.459   6.190   3.925  2.3328 -0.4301 -0.9661
   72MOL0     H 9667  10.585   6.298   3.739  2.4198  2.2863  0.2729
   72MOL0     H 9668  10.628   6.140   3.798 -6.2995  0.0549 -0.9341
   72MOL0     H 9669  10.769   6.396   3.880 -0.3928  0.2877  2.1639
   72MOL0     H 9670  10.821   6.226   3.917 -1.6636 -0.2744  0.9353
   72MOL0     H 9671  10.785   6.470   3.617 -4.2358 -1.8527  2.8195
   72MOL0     H 9672  10.828   6.349   3.319  0.5762  0.3203 -2.2636
   72MOL0     H 9673  10.936   6.473   3.395 -0.9153 -0.8362  2.7901
   72MOL0     H 9674  10.988   6.208   3.265 -0.9405  0.1380 -0.7399
   72MOL0     H 9675  11.032   6.355   3.189 -0.5558  0.5999  0.3624
   72MOL0     H 9676  11.219   6.226   3.296 -1.4802 -0.5213 -0.3864
   72MOL0     H 9677  11.169   6.256   3.453  1.1452 -0.3907  0.0075
   72MOL0     H 9678  11.180   6.480   3.447  1.9726  0.0108  1.2457
   72MOL0     H 9679  11.185   6.488   3.273 -1.3686 -0.1323  0.3737
   72MOL0     H 9680  11.349   6.348   3.136 -0.1293 -2.5758  0.1339
   72MOL0     H 9681  11.545   6.259   3.010 -0.9766 -1.3318  0.9247
   72MOL0     H 9682  11.963   6.368   2.906  0.5882  0.1913 -2.3802
   72MOL0     H 9683  12.140   6.316   2.737  3.8313 -5.0679 -0.4745
   72MOL0     H 9684  12.219   6.284   2.472 -1.7188  1.7121  0.1007
   72MOL0     H 9685  12.294   6.229   2.632 -1.3600 -0.5682  0.0726
   72MOL0     H 9686  12.448   6.192   2.457 -1.2674  2.1636  1.5716
   72MOL0     H 9687  12.389   6.032   2.505 -3.5876 -0.9122  0.7466
   72MOL0     H 9688  12.214   6.067   2.320  0.8688 -0.0217  0.1094
   72MOL0     H 9689  12.294   6.222   2.277 -2.6139  1.0375  1.6078
   72MOL0     H 9690  12.359   6.020   2.132  0.1827  1.9042 -1.3218
   72MOL0     H 9691  12.440   5.941   2.268  0.8705 -3.1015 -5.4236
   72MOL0     H 9692  12.521   6.231   2.213 -0.0677  1.4840  0.9577
   72MOL0     H 9693  12.547   6.124   2.084  0.0587  0.2538  0.2156
   72MOL0     H 9694  12.652   6.043   2.365 -0.1713 -0.5603 -0.0620
   72MOL0     H 9695  12.709   5.993   2.196  0.2916 -0.0433 -0.0643
   72MOL0     H 9696  12.751   6.268   2.280 -1.2828 -1.5160  4.1495
   72MOL0     H 9697  12.845   6.151   2.164  1.4758 -0.7165  0.4734
   72MOL0     H 9698  12.950   6.212   2.399  1.2172 -1.5642 -0.1677
   72MOL0     H 9699  12.825   6.104   2.471 -0.2757 -0.6398  0.5673
   72MOL0     H 9700  11.970   5.943   2.647  0.2907 -1.7262  2.4100
   72MOL0     H 9701  11.779   5.987   2.814 -0.3211 -0.6492 -0.2169
   72MOL0     H 9702  11.783   6.282   3.367 -1.7267 -3.2793  0.8049
   72MOL0     H 9703  11.594   6.384   3.482  0.8392 -1.0672 -0.6198
   72MOL0     H 9704   9.833   6.442   4.093  1.9287  0.6626 -1.1446
   72MOL0     H 9705   9.644   6.459   4.268  2.2428 -1.2720 -0.0874
   72MOL0     H 9706   9.380   6.671   4.536  0.7499  3.1955  1.8142
   72MOL0     H 9707   9.182   6.694   4.680 -0.0291 -1.8400 -1.3301
   72MOL0     H 9708   9.085   7.010   4.729  0.0492  0.0602 -1.2282
   72MOL0     H 9709   9.080   6.853   4.818  0.6420  0.2752 -0.2837
   72MOL0     H 9710   8.933   7.041   4.891 -0.1837 -0.3064 -0.3448
   72MOL0     H 9711   8.842   6.899   4.860 -1.4317  0.3407 -1.2499
   72MOL0     H 9712   8.742   6.946   4.680  2.0272 -0.8309 -4.5071
   72MOL0     H 9713   8.843   7.082   4.628 -0.2212  0.4146  0.9203
   72MOL0     H 9714   8.767   7.202   4.851  0.8097  0.4960 -0.2262
   72MOL0     H 9715   8.657   7.204   4.723  3.0456 -0.3277 -2.2229
   72MOL0     H 9716   8.472   7.026   5.052  2.1285 -0.0004  1.2849
   72MOL0     H 9717   9.006   6.949   4.374 -0.4900 -2.3739 -2.3954
   72MOL0     H 9718   9.159   7.057   4.234  0.2801  0.4248  0.8765
   72MOL0     H 9719   9.290   6.963   4.178  0.0920 -0.3953  0.4395
   72MOL0     H 9720   9.127   6.906   4.131 -0.6263 -0.1359  1.0418
   73MOL0     O 9721  10.268   8.224   2.068 -0.2473  0.1253  0.3116
   73MOL0     C 9722  10.367   8.297   2.038 -0.2825  0.4187 -0.1933
   73MOL0     O 9723  10.369   8.393   1.932  0.1220 -0.2115  0.0708
   73MOL0     C 9724  10.254   8.431   1.863 -0.3427 -0.3829 -0.2596
   73MOL0     C 9725  10.129   8.474   1.914  0.2771  0.1271 -0.8763
   73MOL0     C 9726  10.035   8.517   1.820  0.9108  0.1520 -0.0612
   73MOL0     C 9727  10.067   8.543   1.685  0.1020  0.2150  0.2582
   73MOL0     O 9728   9.974   8.589   1.594  0.1614  0.1805  0.4412
   73MOL0     C 9729   9.848   8.644   1.649 -0.5225 -0.3904 -0.1635
   73MOL0     C 9730   9.756   8.691   1.541 -0.3293 -0.1629 -0.3248
   73MOL0     C 9731   9.633   8.735   1.616  0.2160 -0.5303  0.2984
   73MOL0     C 9732   9.571   8.859   1.538 -0.4789 -0.2424 -0.1666
   73MOL0     C 9733   9.428   8.880   1.585 -0.2179 -0.5576 -0.5472
   73MOL0     C 9734   9.381   9.009   1.512  0.0568  1.0880 -0.6684
   73MOL0     C 9735   9.238   9.049   1.558  0.5546  0.4930  0.7493
   73MOL0     C 9736   9.185   9.161   1.463 -0.2385  0.7303  0.9348
   73MOL0     N 9737   9.261   9.282   1.500  0.6145  0.0610 -0.0920
   73MOL0     C 9738   9.381   9.317   1.447 -0.2435 -0.5272  0.8612
   73MOL0     C 9739   9.411   9.434   1.513 -0.6763  0.5532 -0.0477
   73MOL0     C 9740   9.533   9.519   1.485 -0.6438 -0.4244 -1.6091
   73MOL0     C 9741   9.650   9.481   1.576 -0.7646  0.5275  0.3859
   73MOL0     C 9742   9.759   9.588   1.592  0.3368 -0.3227 -0.6468
   73MOL0     C 9743   9.866   9.541   1.688  0.4442 -0.0749 -0.1340
   73MOL0     O 9744   9.819   9.565   1.821  0.2855 -0.0025  0.0907
   73MOL0     C 9745   9.904   9.568   1.930 -0.9479  0.2611  0.3470
   73MOL0     C 9746  10.048   9.562   1.913 -0.7141 -0.7321 -0.3105
   73MOL0     C 9747  10.139   9.589   2.021  0.1996  0.2621  0.8098
   73MOL0     C 9748  10.086   9.613   2.149  1.5509  0.6880  0.2909
   73MOL0     C 9749  10.185   9.623   2.263 -0.1706 -0.3578 -0.6220
   73MOL0     O 9750  10.126   9.632   2.390  0.1985 -1.1743 -0.2906
   73MOL0     C 9751  10.196   9.652   2.504 -0.5818  0.7265  0.3232
   73MOL0     C 9752  10.330   9.675   2.521  0.1338  0.6304  0.2964
   73MOL0     C 9753  10.404   9.664   2.641  0.9083 -0.7524  0.3900
   73MOL0     C 9754  10.335   9.633   2.758  0.0338  0.0670  0.7979
   73MOL0     O 9755  10.397   9.611   2.877 -0.0136  0.0132  0.5174
   73MOL0     C 9756  10.539   9.638   2.887  0.1195 -0.4327  1.1164
   73MOL0     C 9757  10.587   9.598   3.023 -0.1580 -0.2095 -0.2621
   73MOL0     C 9758  10.743   9.610   3.039  0.0402  0.8254 -0.3354
   73MOL0     C 9759  10.801   9.488   2.958 -0.4137  0.7214 -0.6798
   73MOL0     C 9760  10.893   9.410   3.046 -1.3461  0.6683  0.8613
   73MOL0     C 9761  10.972   9.305   2.963 -0.5431 -0.4511  0.1447
   73MOL0     C 9762  11.096   9.244   3.030  0.0961  0.5903  0.3027
   73MOL0     C 9763  11.152   9.119   2.959  0.3937  0.6427 -0.3738
   73MOL0    Cl 9764  11.216   9.149   2.791  0.1542  0.4097  0.0754
   73MOL0     C 9765  10.196   9.631   2.743 -0.2948 -1.0186  0.2885
   73MOL0     C 9766  10.128   9.639   2.621 -0.0751 -0.5914 -0.7680
   73MOL0     O 9767  10.303   9.621   2.236 -0.2239 -0.1953 -0.3257
   73MOL0     C 9768   9.947   9.612   2.166  0.6173 -0.9559 -0.1664
   73MOL0     C 9769   9.868   9.587   2.062 -0.5748 -0.0249  0.0406
   73MOL0     N 9770   9.317   9.460   1.609 -1.2373 -1.1912 -0.0192
   73MOL0     N 9771   9.238   9.358   1.611  0.5858  0.5791  0.2597
   73MOL0     C 9772  10.194   8.511   1.646  0.8754  0.6811  0.0167
   73MOL0     C 9773  10.284   8.452   1.732 -0.5970 -0.4435  0.6259
   73MOL0     C 9774  10.504   8.265   2.098  0.0949  0.9969  1.3626
   73MOL0     C 9775  10.615   8.344   2.046 -0.1845  0.0409 -0.0329
   73MOL0     C 9776  10.743   8.323   2.093 -0.4553 -0.3397  0.2512
   73MOL0     C 9777  10.777   8.221   2.187 -0.2485 -0.7024  0.0125
   73MOL0     O 9778  10.910   8.192   2.226  0.6684  0.2630 -0.6537
   73MOL0     C 9779  11.018   8.235   2.145 -0.1235  0.1488 -0.1608
   73MOL0     C 9780  11.146   8.179   2.201  0.3184  0.1836  0.2122
   73MOL0     C 9781  11.217   8.279   2.296 -0.2087  0.0270  0.5331
   73MOL0     C 9782  11.341   8.212   2.358 -0.0090  0.2418 -0.2039
   73MOL0     C 9783  11.410   8.289   2.471 -0.1545 -0.5506  0.1242
   73MOL0     C 9784  11.447   8.337   2.576  0.2478  0.5387  0.2983
   73MOL0     C 9785  10.666   8.151   2.235 -0.6526 -0.0092 -0.0304
   73MOL0     C 9786  10.535   8.165   2.196  0.2057 -0.3080 -0.0737
   73MOL0     C 9787  10.431   8.081   2.273 -0.5422  0.0309 -0.1188
   73MOL0     H 9788  10.111   8.469   2.021 -2.0426 -3.2311 -1.2712
   73MOL0     H 9789   9.938   8.537   1.864  1.6392  2.8358  0.5216
   73MOL0     H 9790   9.802   8.568   1.712 -2.8274 -0.8694 -2.2868
   73MOL0     H 9791   9.862   8.732   1.714 -0.7984 -0.6072  0.1917
   73MOL0     H 9792   9.739   8.610   1.469  3.0366 -2.7642  1.4934
   73MOL0     H 9793   9.797   8.776   1.486 -2.5729  0.4245 -1.2183
   73MOL0     H 9794   9.651   8.765   1.720  0.8607 -0.1052  0.0708
   73MOL0     H 9795   9.556   8.658   1.615 -0.1212 -0.7282  6.2982
   73MOL0     H 9796   9.640   8.941   1.560  1.7618 -1.3217 -2.6756
   73MOL0     H 9797   9.578   8.861   1.429  1.9520 -0.3001 -0.0544
   73MOL0     H 9798   9.374   8.791   1.550 -1.2141  0.4318 -1.6433
   73MOL0     H 9799   9.439   8.890   1.693  0.0260 -0.2547 -0.6011
   73MOL0     H 9800   9.460   9.082   1.534  0.3524  0.4676  0.4009
   73MOL0     H 9801   9.366   8.990   1.406 -0.7303  2.2148 -0.7695
   73MOL0     H 9802   9.253   9.082   1.662  1.1747  0.9670  0.5112
   73MOL0     H 9803   9.170   8.963   1.556 -1.0374  1.6929  1.2967
   73MOL0     H 9804   9.196   9.125   1.360  1.5134 -1.1310  1.7127
   73MOL0     H 9805   9.081   9.188   1.484 -0.4207  1.1569 -0.4075
   73MOL0     H 9806   9.439   9.274   1.366  0.3705  0.2381  0.8777
   73MOL0     H 9807   9.568   9.508   1.382 -0.1921  0.1798 -1.5291
   73MOL0     H 9808   9.501   9.623   1.499  2.2056  0.2474  1.3137
   73MOL0     H 9809   9.611   9.453   1.674  2.4607 -3.5393  0.8014
   73MOL0     H 9810   9.700   9.395   1.530  2.5375  3.2135 -1.4934
   73MOL0     H 9811   9.715   9.687   1.611  0.0530 -0.2338 -1.6887
   73MOL0     H 9812   9.808   9.603   1.495 -1.8981 -2.5054 -2.2377
   73MOL0     H 9813   9.958   9.598   1.671  1.1621 -1.0636  0.3516
   73MOL0     H 9814   9.893   9.435   1.677  0.9461 -0.6213  4.4551
   73MOL0     H 9815  10.099   9.526   1.824 -1.8310 -3.8695  0.1755
   73MOL0     H 9816  10.247   9.583   2.009  0.0977  0.2679 -0.2236
   73MOL0     H 9817  10.398   9.698   2.439  0.4819 -0.6219  0.2109
   73MOL0     H 9818  10.510   9.685   2.642  0.9811 -1.0397 -0.7065
   73MOL0     H 9819  10.594   9.581   2.812 -1.7153  1.1221 -1.5953
   73MOL0     H 9820  10.562   9.743   2.865  0.6223 -1.0360 -1.5052
   73MOL0     H 9821  10.547   9.674   3.091 -2.1259  0.1034 -1.6936
   73MOL0     H 9822  10.547   9.499   3.045 -1.0699 -0.5318 -2.9389
   73MOL0     H 9823  10.774   9.695   2.978 -1.3617 -0.4050 -2.9108
   73MOL0     H 9824  10.773   9.610   3.144 -0.6951 -0.4133 -0.1183
   73MOL0     H 9825  10.858   9.513   2.867 -2.1192  0.2335 -1.9240
   73MOL0     H 9826  10.726   9.414   2.929 -1.9606  1.4197  1.3790
   73MOL0     H 9827  10.856   9.347   3.128  2.0291 -1.3890  1.0331
   73MOL0     H 9828  10.970   9.473   3.090 -1.0200  1.6040 -0.9575
   73MOL0     H 9829  10.903   9.224   2.937  0.2118 -0.7792 -0.9407
   73MOL0     H 9830  11.007   9.349   2.869  0.2157  0.3903  0.8010
   73MOL0     H 9831  11.057   9.211   3.127  2.7522 -1.0442  0.9171
   73MOL0     H 9832  11.178   9.313   3.049  0.8416 -0.5590  1.4741
   73MOL0     H 9833  11.237   9.085   3.019 -1.6720 -0.2881  2.2413
   73MOL0     H 9834  11.084   9.033   2.966  0.1980  0.9339  2.2583
   73MOL0     H 9835  10.133   9.609   2.828  0.1389 -4.3741 -0.1184
   73MOL0     H 9836  10.023   9.620   2.639 -0.1696  0.6138  0.0329
   73MOL0     H 9837   9.900   9.636   2.261 -0.8580 -1.6192 -0.6976
   73MOL0     H 9838   9.761   9.577   2.080 -0.3009 -0.3766  1.6421
   73MOL0     H 9839  10.222   8.528   1.542 -0.5403  2.5606 -0.1071
   73MOL0     H 9840  10.384   8.432   1.695 -0.4142 -1.3232  1.5739
   73MOL0     H 9841  10.597   8.420   1.970 -1.5332 -1.0236 -0.8172
   73MOL0     H 9842  10.810   8.395   2.046 -0.6760 -0.3408 -0.0708
   73MOL0     H 9843  11.024   8.344   2.150 -1.0569  0.2912 -1.5572
   73MOL0     H 9844  10.999   8.217   2.039 -1.0935 -0.3593  0.0822
   73MOL0     H 9845  11.214   8.164   2.118 -1.6831 -0.7337 -1.3448
   73MOL0     H 9846  11.131   8.077   2.237 -0.0826 -0.8003 -2.5331
   73MOL0     H 9847  11.150   8.317   2.374 -2.1999  1.1476 -1.6057
   73MOL0     H 9848  11.249   8.364   2.235  1.2268 -1.0914 -0.3348
   73MOL0     H 9849  11.310   8.124   2.415 -0.6532 -0.1246 -1.1009
   73MOL0     H 9850  11.421   8.183   2.290  3.6894 -0.7522  4.0815
   73MOL0     H 9851  11.482   8.387   2.664 -0.7516  1.2226  0.3221
   73MOL0     H 9852  10.684   8.080   2.315 -1.5926  0.0132  0.2061
   73MOL0     H 9853  10.385   8.011   2.204 -1.7011  0.5705  0.0905
   73MOL0     H 9854  10.475   8.019   2.352 -0.8295 -2.4599 -1.7995
   73MOL0     H 9855  10.355   8.146   2.316  0.6872  0.5839  1.3381
   74MOL0     O 9856   6.249   1.140   3.708  0.3054 -0.3934  0.8469
   74MOL0     C 9857   6.287   1.079   3.605  0.7895  0.6055  0.2873
   74MOL0     O 9858   6.412   1.066   3.568  0.0275  0.3516 -0.2699
   74MOL0     C 9859   6.515   1.101   3.647 -0.1585 -0.3125  0.1651
   74MOL0     C 9860   6.626   1.146   3.577  1.0982 -0.3039 -0.3432
   74MOL0     C 9861   6.746   1.161   3.642 -0.2490 -0.2511  0.7215
   74MOL0     C 9862   6.759   1.143   3.780  0.4671  0.1634 -0.2702
   74MOL0     O 9863   6.877   1.163   3.852 -0.0839  0.5992  0.6297
   74MOL0     C 9864   6.993   1.240   3.801  0.9148  0.4112  0.0973
   74MOL0     C 9865   7.097   1.275   3.907  0.0181  0.5195  0.0480
   74MOL0     C 9866   7.024   1.354   4.012  0.0343 -0.4206 -0.4745
   74MOL0     C 9867   7.102   1.391   4.130 -0.3858  1.1056 -0.3914
   74MOL0     C 9868   7.022   1.479   4.212 -0.7589  0.2563  0.8585
   74MOL0     C 9869   7.084   1.532   4.343 -0.1949  0.2460 -0.3469
   74MOL0     C 9870   6.981   1.630   4.404  0.1297 -0.0098  0.4513
   74MOL0     C 9871   7.042   1.770   4.406  0.1258 -0.2078 -0.1958
   74MOL0     N 9872   7.173   1.777   4.472  0.8355 -0.1477  0.0940
   74MOL0     C 9873   7.289   1.816   4.414 -0.6384  0.1799 -0.0052
   74MOL0     C 9874   7.370   1.842   4.513 -0.0371 -0.3933  0.0207
   74MOL0     C 9875   7.520   1.876   4.495  0.6476  0.0437 -0.4001
   74MOL0     C 9876   7.591   1.921   4.626 -0.3175 -0.2942 -0.3033
   74MOL0     C 9877   7.743   1.939   4.608 -0.8556  0.7336  0.0244
   74MOL0     C 9878   7.792   2.026   4.490  0.9996  0.1345 -0.3641
   74MOL0     O 9879   7.728   2.148   4.511  0.0453  0.8872  0.0286
   74MOL0     C 9880   7.818   2.248   4.541  0.5586 -0.0697  0.6085
   74MOL0     C 9881   7.828   2.280   4.678 -0.2379  1.3503  0.1914
   74MOL0     C 9882   7.918   2.378   4.717  0.1141 -1.0833 -0.1588
   74MOL0     C 9883   8.013   2.429   4.627  0.3915 -0.4034  0.4766
   74MOL0     C 9884   8.120   2.518   4.670 -1.4972 -0.1260  0.3545
   74MOL0     O 9885   8.197   2.575   4.568 -0.2613 -0.3909 -0.5351
   74MOL0     C 9886   8.296   2.662   4.599  0.3803 -0.4328  0.2538
   74MOL0     C 9887   8.275   2.777   4.680 -1.3729  0.0908  0.4600
   74MOL0     C 9888   8.384   2.865   4.686 -0.7471  0.9187 -0.9044
   74MOL0     C 9889   8.500   2.852   4.620  0.9925 -0.2061  0.5237
   74MOL0     O 9890   8.602   2.938   4.642  0.0468  0.6395 -0.2622
   74MOL0     C 9891   8.597   3.062   4.718 -1.3283  0.2749 -0.3689
   74MOL0     C 9892   8.724   3.138   4.695 -1.3513  0.7394  0.7444
   74MOL0     C 9893   8.738   3.267   4.767 -0.3907 -0.7452 -0.0081
   74MOL0     C 9894   8.662   3.372   4.694  1.0201  0.5048  0.7464
   74MOL0     C 9895   8.681   3.512   4.759 -0.2076  0.3271  0.1113
   74MOL0     C 9896   8.815   3.571   4.710  0.7394 -0.7501 -0.1005
   74MOL0     C 9897   8.841   3.718   4.760  0.8231 -0.5342 -0.0390
   74MOL0     C 9898   8.973   3.778   4.732 -0.0945 -0.5781 -0.0415
   74MOL0    Cl 9899   8.990   3.801   4.555 -0.0961  0.3739 -0.2950
   74MOL0     C 9900   8.513   2.744   4.539  0.2805  0.4054  0.0769
   74MOL0     C 9901   8.415   2.652   4.520 -0.3387  0.0287 -0.1879
   74MOL0     O 9902   8.136   2.537   4.792  0.1375  0.3827  0.3326
   74MOL0     C 9903   8.005   2.383   4.500 -0.4516 -0.1265  0.3677
   74MOL0     C 9904   7.904   2.305   4.451  0.1880  0.1648  0.7119
   74MOL0     N 9905   7.308   1.808   4.630 -0.2552 -0.4716 -0.0987
   74MOL0     N 9906   7.188   1.782   4.604 -0.3216 -0.4673  0.0179
   74MOL0     C 9907   6.648   1.101   3.845  0.3351 -0.5569  0.6557
   74MOL0     C 9908   6.524   1.075   3.786  0.2194  1.0955  0.8762
   74MOL0     C 9909   6.175   1.019   3.524 -0.2738 -0.1787  0.2892
   74MOL0     C 9910   6.073   0.950   3.584  0.3391 -0.0918 -0.4603
   74MOL0     C 9911   5.968   0.899   3.506  0.6710 -0.4566 -0.1667
   74MOL0     C 9912   5.972   0.905   3.376 -0.7649 -0.2854  0.9313
   74MOL0     O 9913   5.872   0.841   3.311  0.4435  0.6133 -0.1665
   74MOL0     C 9914   5.870   0.691   3.327 -1.4296 -1.0773 -0.0620
   74MOL0     C 9915   5.729   0.655   3.271  0.7544 -0.0305  0.7311
   74MOL0     C 9916   5.608   0.693   3.360 -0.0464 -0.6916 -0.2811
   74MOL0     C 9917   5.495   0.624   3.304 -0.0166 -0.3261  0.2208
   74MOL0     C 9918   5.374   0.653   3.379 -0.6155 -0.3572  0.1208
   74MOL0     C 9919   5.274   0.679   3.440 -0.7402  0.1573  0.2294
   74MOL0     C 9920   6.080   0.971   3.310 -0.5660 -0.1486  0.2788
   74MOL0     C 9921   6.184   1.037   3.383 -0.4808  0.5817 -1.2386
   74MOL0     C 9922   6.290   1.121   3.293 -0.4737  0.9740  0.3718
   74MOL0     H 9923   6.620   1.152   3.469 -2.2204 -0.2821 -0.2779
   74MOL0     H 9924   6.835   1.193   3.588  0.0667  3.0576  2.9448
   74MOL0     H 9925   7.050   1.192   3.721  0.3586  0.2527 -0.2047
   74MOL0     H 9926   6.945   1.335   3.776 -0.7115 -0.0456  1.3132
   74MOL0     H 9927   7.165   1.344   3.856 -0.0283  0.0994 -0.6015
   74MOL0     H 9928   7.155   1.194   3.953 -0.3487  0.4190  0.3330
   74MOL0     H 9929   6.932   1.302   4.039 -1.3363  2.4390  0.7380
   74MOL0     H 9930   6.994   1.446   3.962 -1.6068  0.3171  1.6941
   74MOL0     H 9931   7.125   1.303   4.191  1.8107  2.3344  0.6913
   74MOL0     H 9932   7.195   1.441   4.103  1.3997 -2.0066 -0.5227
   74MOL0     H 9933   6.984   1.561   4.150 -2.9389 -1.0758  0.3368
   74MOL0     H 9934   6.928   1.430   4.236 -2.0019  0.4770 -2.8922
   74MOL0     H 9935   7.109   1.450   4.411 -1.0078 -1.0062 -1.4872
   74MOL0     H 9936   7.176   1.585   4.318 -0.0966 -0.8821 -2.6859
   74MOL0     H 9937   6.957   1.598   4.506  1.6747 -1.2852  0.4587
   74MOL0     H 9938   6.886   1.632   4.351  0.0042  0.7923  0.6929
   74MOL0     H 9939   7.052   1.812   4.306 -2.5286  1.8821  0.2877
   74MOL0     H 9940   6.979   1.845   4.455  1.2694  2.0403 -2.0137
   74MOL0     H 9941   7.312   1.847   4.312 -1.1051 -1.0907 -0.5109
   74MOL0     H 9942   7.567   1.784   4.457 -0.0358 -1.3549  1.8938
   74MOL0     H 9943   7.527   1.957   4.423 -1.3026  0.8573  0.2672
   74MOL0     H 9944   7.551   2.018   4.655  0.2060 -0.0417 -0.4292
   74MOL0     H 9945   7.578   1.854   4.711  0.7705 -1.3000 -0.9007
   74MOL0     H 9946   7.787   1.840   4.591 -0.5597  0.7413  0.7133
   74MOL0     H 9947   7.781   1.988   4.698 -2.5811  2.3708 -0.1009
   74MOL0     H 9948   7.758   1.985   4.394 -1.1121  1.3739 -0.2007
   74MOL0     H 9949   7.900   2.042   4.483  1.2099 -0.8029  0.5949
   74MOL0     H 9950   7.771   2.241   4.761  0.7449 -0.9706 -0.1619
   74MOL0     H 9951   7.911   2.409   4.820 -0.5123 -0.1495 -0.4676
   74MOL0     H 9952   8.188   2.787   4.745 -1.4522 -2.8268  0.9091
   74MOL0     H 9953   8.379   2.960   4.739 -2.3624  0.9007 -0.9695
   74MOL0     H 9954   8.517   3.128   4.681 -0.8968  1.6253  0.9968
   74MOL0     H 9955   8.590   3.039   4.825  1.9195  0.2434 -0.0806
   74MOL0     H 9956   8.804   3.072   4.728 -2.6797 -2.6771 -2.1218
   74MOL0     H 9957   8.739   3.157   4.588 -0.2855  0.8633  0.9052
   74MOL0     H 9958   8.708   3.260   4.872  1.8364 -2.5821  0.5938
   74MOL0     H 9959   8.844   3.290   4.759 -0.6921  0.8605  0.2612
   74MOL0     H 9960   8.557   3.346   4.707  0.5489  2.2282  0.6849
   74MOL0     H 9961   8.688   3.374   4.588 -0.3221  0.7446  0.4022
   74MOL0     H 9962   8.700   3.507   4.866  3.6129 -0.0408 -0.4245
   74MOL0     H 9963   8.601   3.579   4.726  0.5589  0.2078 -2.2388
   74MOL0     H 9964   8.898   3.502   4.727  1.0091 -1.3979 -3.3479
   74MOL0     H 9965   8.805   3.578   4.601  1.6026 -0.3446 -0.1570
   74MOL0     H 9966   8.822   3.722   4.867  2.2027  1.2181  0.1782
   74MOL0     H 9967   8.760   3.774   4.713  1.7577  0.3487 -0.6292
   74MOL0     H 9968   8.988   3.878   4.773  1.0042 -1.0745  0.8455
   74MOL0     H 9969   9.056   3.721   4.775  1.4359  1.9000  0.5010
   74MOL0     H 9970   8.612   2.749   4.493  0.2878  2.5349  0.1987
   74MOL0     H 9971   8.420   2.574   4.444 -1.1930  0.4137 -0.6523
   74MOL0     H 9972   8.090   2.404   4.436 -0.0415  0.0373  0.9560
   74MOL0     H 9973   7.886   2.280   4.347 -2.0611 -0.1156  1.1031
   74MOL0     H 9974   6.656   1.082   3.951  1.6859  4.0194  1.5704
   74MOL0     H 9975   6.444   1.032   3.845  0.7904 -1.0376  0.1774
   74MOL0     H 9976   6.059   0.931   3.690  1.0731  2.2988  0.1276
   74MOL0     H 9977   5.885   0.851   3.558 -1.4098  3.9137  1.0422
   74MOL0     H 9978   5.876   0.650   3.428 -0.1908 -2.9572 -0.8445
   74MOL0     H 9979   5.955   0.652   3.272 -0.3927  1.8192 -0.7001
   74MOL0     H 9980   5.731   0.546   3.258  0.9255  0.1283 -0.8150
   74MOL0     H 9981   5.719   0.692   3.169 -0.0455 -3.0741 -0.4236
   74MOL0     H 9982   5.595   0.801   3.375  0.1416 -0.9578  2.4236
   74MOL0     H 9983   5.623   0.665   3.465  0.8492  0.5062 -0.0658
   74MOL0     H 9984   5.482   0.658   3.201 -1.1689  0.7239  0.6936
   74MOL0     H 9985   5.506   0.515   3.306 -0.3477 -0.3560  1.0423
   74MOL0     H 9986   5.195   0.708   3.506 -1.7023  3.5167 -2.1722
   74MOL0     H 9987   6.086   0.989   3.203 -1.5136  1.4995  0.4573
   74MOL0     H 9988   6.259   1.177   3.205  1.0977  1.1602 -0.0981
   74MOL0     H 9989   6.342   1.192   3.359 -1.8013  2.1803  0.1613
   74MOL0     H 9990   6.359   1.044   3.259 -1.0719  0.6214 -0.0438
   75MOL0     O 9991   8.066   9.110   9.136  0.4273  0.0229 -0.5070
   75MOL0     C 9992   8.070   9.206   9.062  0.9326 -0.0850  0.4889
   75MOL0     O 9993   8.170   9.289   9.049 -0.3540  0.3136  0.0636
   75MOL0     C 9994   8.297   9.238   9.047  0.1796 -0.5389 -0.1666
   75MOL0     C 9995   8.343   9.138   8.963  0.4007 -0.4113 -0.1389
   75MOL0     C 9996   8.479   9.104   8.961  0.5910  0.1683  0.5691
   75MOL0     C 9997   8.570   9.165   9.050  0.4258 -0.1265  0.3502
   75MOL0     O 9998   8.698   9.128   9.059 -0.3794 -0.0147  0.0239
   75MOL0     C 9999   8.753   9.019   8.985 -0.3678 -0.1407  0.6057
   75MOL0     C10000   8.897   9.031   9.016 -0.5824 -0.0051 -0.6637
   75MOL0     C10001   8.974   8.920   8.955 -0.0337 -0.2813  0.4013
   75MOL0     C10002   9.114   8.915   9.010 -0.0762  0.0616 -0.2856
   75MOL0     C10003   9.225   8.866   8.912  0.1556  0.0148 -0.2054
   75MOL0     C10004   9.366   8.864   8.967  0.4741 -0.1497 -0.3200
   75MOL0     C10005   9.423   9.004   8.949  0.1914  0.0920  0.5939
   75MOL0     C10006   9.540   8.995   8.849 -0.8688 -0.5147  0.5714
   75MOL0     N10007   9.666   8.927   8.895  0.1179  0.1299  0.0179
   75MOL0     C10008   9.792   8.961   8.857  0.3418  0.2137  0.2395
   75MOL0     C10009   9.871   8.881   8.926 -0.2609  0.4312 -0.3433
   75MOL0     C10010  10.015   8.901   8.940 -0.8024  1.2477 -0.0247
   75MOL0     C10011  10.091   8.806   9.038  0.6097  0.2940 -0.7933
   75MOL0     C10012  10.239   8.840   9.037 -0.4103 -0.0515  0.4763
   75MOL0     C10013  10.314   8.721   9.089  0.4773 -0.2668 -0.2750
   75MOL0     O10014  10.460   8.743   9.068  0.5248  0.3193 -1.2234
   75MOL0     C10015  10.558   8.661   9.118  0.9664 -0.4520  0.1406
   75MOL0     C10016  10.684   8.702   9.084 -0.9814 -0.3266 -0.5291
   75MOL0     C10017  10.788   8.619   9.114 -0.9087 -0.5926 -0.0892
   75MOL0     C10018  10.781   8.495   9.172  0.5236  0.9575 -0.1566
   75MOL0     C10019  10.905   8.428   9.212  0.8155 -0.5043  0.6631
   75MOL0     O10020  10.900   8.306   9.255  0.1504 -0.5052 -1.1853
   75MOL0     C10021  11.006   8.254   9.321 -0.3234  0.0264 -0.3211
   75MOL0     C10022  11.074   8.323   9.423 -0.7425 -0.1684 -0.5530
   75MOL0     C10023  11.177   8.254   9.491  0.2489  0.4650  0.0474
   75MOL0     C10024  11.222   8.124   9.453  0.1640  0.0567 -1.1778
   75MOL0     O10025  11.328   8.078   9.520  0.4962  0.2500 -0.2340
   75MOL0     C10026  11.396   7.970   9.459 -0.7436  0.1178 -0.3073
   75MOL0     C10027  11.530   7.962   9.536 -0.8331  0.6498  1.0267
   75MOL0     C10028  11.604   7.830   9.512  0.2585  0.3748  0.2163
   75MOL0     C10029  11.745   7.831   9.582 -0.3660 -0.9201  0.6456
   75MOL0     C10030  11.775   7.696   9.639 -0.4461  0.0633 -0.0796
   75MOL0     C10031  11.728   7.690   9.791 -0.8114 -0.6396 -0.0627
   75MOL0     C10032  11.834   7.748   9.887 -0.1814 -0.6867 -0.2666
   75MOL0     C10033  11.765   7.776  10.023 -0.1621  0.2161  0.3353
   75MOL0    Cl10034  11.656   7.909   9.994 -0.2291 -0.0739  0.2621
   75MOL0     C10035  11.156   8.058   9.346  0.3685 -0.6605 -0.1909
   75MOL0     C10036  11.049   8.123   9.282 -0.4291 -1.0552 -0.3022
   75MOL0     O10037  11.009   8.497   9.219  0.5056  0.9278  0.3296
   75MOL0     C10038  10.646   8.448   9.187  0.3551  0.1151  0.3357
   75MOL0     C10039  10.539   8.531   9.159 -0.1184  0.1865  0.4748
   75MOL0     N10040   9.800   8.812   9.018 -0.1288  0.3951  0.1391
   75MOL0     N10041   9.677   8.837   8.998 -0.4825  0.7533 -0.3793
   75MOL0     C10042   8.524   9.263   9.129 -0.4384  0.2102  0.6641
   75MOL0     C10043   8.391   9.303   9.128 -0.0743  0.7431  0.0946
   75MOL0     C10044   7.939   9.249   9.004 -0.7714 -0.1904 -0.6795
   75MOL0     C10045   7.888   9.374   9.014 -0.1310 -0.4695 -0.3307
   75MOL0     C10046   7.756   9.402   8.981  0.0319 -0.8497  1.1823
   75MOL0     C10047   7.670   9.311   8.911 -0.6339  0.3161 -0.8279
   75MOL0     O10048   7.538   9.339   8.886 -0.2621  0.5256  0.0084
   75MOL0     C10049   7.510   9.401   8.760 -0.5547 -0.2111 -0.0342
   75MOL0     C10050   7.565   9.543   8.756  0.1501  0.6988 -0.4062
   75MOL0     C10051   7.505   9.626   8.868  0.4961 -0.2785 -1.0257
   75MOL0     C10052   7.553   9.770   8.865  0.0062 -0.0233  0.2956
   75MOL0     C10053   7.707   9.783   8.855 -0.2540  0.0594 -0.3385
   75MOL0     C10054   7.828   9.789   8.838  0.2049 -0.7318 -0.0418
   75MOL0     C10055   7.723   9.182   8.897 -0.5904 -1.2778 -0.4803
   75MOL0     C10056   7.853   9.155   8.929 -0.4131  0.0152 -0.4829
   75MOL0     C10057   7.900   9.014   8.885 -0.7084  0.1274  0.0664
   75MOL0     H10058   8.260   9.093   8.909 -2.4027  1.8052  1.9962
   75MOL0     H10059   8.511   9.020   8.900 -1.6729 -1.4925  1.4976
   75MOL0     H10060   8.714   8.923   9.022  0.0888 -0.4307  0.3386
   75MOL0     H10061   8.734   9.028   8.877 -3.1545 -2.7130  0.7599
   75MOL0     H10062   8.908   9.008   9.122  4.4576  1.2239 -0.6531
   75MOL0     H10063   8.945   9.123   8.982  1.9408 -1.6654 -1.9115
   75MOL0     H10064   8.983   8.937   8.847  1.0754  2.2295  0.8304
   75MOL0     H10065   8.932   8.821   8.974  0.2966 -0.0703  2.4114
   75MOL0     H10066   9.142   9.018   9.031  0.1513 -0.4731  2.4173
   75MOL0     H10067   9.119   8.855   9.102  0.3131 -3.5138 -2.4186
   75MOL0     H10068   9.208   8.761   8.887  2.8133 -0.0720 -2.0397
   75MOL0     H10069   9.223   8.921   8.817 -4.6403 -1.1555 -1.0382
   75MOL0     H10070   9.366   8.832   9.072 -3.2560 -1.2284 -0.5137
   75MOL0     H10071   9.422   8.784   8.918 -1.8878 -1.8359 -0.4444
   75MOL0     H10072   9.468   9.046   9.040  5.0881  0.0944 -1.5087
   75MOL0     H10073   9.348   9.071   8.906  0.5502 -0.6989 -1.3184
   75MOL0     H10074   9.518   8.949   8.753  2.7384  1.6854 -1.5181
   75MOL0     H10075   9.561   9.098   8.821 -2.5317 -0.6679 -1.4420
   75MOL0     H10076   9.823   9.034   8.783  2.9915 -2.8422 -1.9705
   75MOL0     H10077  10.047   8.879   8.838  1.0451 -0.3087  0.8150
   75MOL0     H10078  10.027   9.009   8.955  0.1726  0.9767  1.5217
   75MOL0     H10079  10.056   8.823   9.140 -2.1016 -2.8283 -1.0503
   75MOL0     H10080  10.079   8.702   9.007  0.4761  0.3790 -1.0241
   75MOL0     H10081  10.258   8.918   9.111 -1.3948 -1.1868  1.9961
   75MOL0     H10082  10.276   8.859   8.936 -1.5861  0.3217  0.1006
   75MOL0     H10083  10.286   8.629   9.038  1.8227 -0.8750  0.0374
   75MOL0     H10084  10.293   8.701   9.194 -1.6233 -2.4529 -1.0079
   75MOL0     H10085  10.702   8.797   9.036 -1.4253  0.9479  1.6725
   75MOL0     H10086  10.887   8.660   9.094 -1.3579 -0.0043 -1.1969
   75MOL0     H10087  11.040   8.421   9.454  1.5160  0.2711  0.7313
   75MOL0     H10088  11.225   8.304   9.574 -0.9594  0.4915  0.7367
   75MOL0     H10089  11.353   7.871   9.476  1.7766 -1.5498 -2.7050
   75MOL0     H10090  11.415   7.985   9.352 -1.5056 -3.9250 -1.1515
   75MOL0     H10091  11.592   8.041   9.494 -2.0660  0.9907 -0.2213
   75MOL0     H10092  11.524   7.972   9.645  1.2717 -1.3442  1.3982
   75MOL0     H10093  11.550   7.745   9.554  0.9058 -0.6298 -0.9047
   75MOL0     H10094  11.612   7.814   9.404  0.5877 -0.3609  0.3454
   75MOL0     H10095  11.748   7.897   9.669  0.4276  0.8026 -0.6246
   75MOL0     H10096  11.820   7.873   9.515 -0.3047 -3.2089 -0.8328
   75MOL0     H10097  11.880   7.665   9.638 -1.5664 -4.4734  0.3518
   75MOL0     H10098  11.725   7.615   9.585  1.9630 -3.0998  2.0297
   75MOL0     H10099  11.628   7.733   9.801 -2.3144 -3.7693 -0.3474
   75MOL0     H10100  11.715   7.585   9.821  0.2532 -0.3848  1.3870
   75MOL0     H10101  11.867   7.845   9.849  1.1854 -0.7585  0.6723
   75MOL0     H10102  11.925   7.688   9.897  3.2934  4.1999  1.2247
   75MOL0     H10103  11.715   7.685  10.055 -0.7688  1.0201  1.7580
   75MOL0     H10104  11.829   7.809  10.106 -2.0468  1.8424  1.2420
   75MOL0     H10105  11.192   7.967   9.299 -1.2356 -0.7838 -1.2697
   75MOL0     H10106  11.004   8.081   9.193 -0.9606 -1.5145  0.1730
   75MOL0     H10107  10.617   8.346   9.213 -1.7100 -0.0235 -2.1276
   75MOL0     H10108  10.434   8.508   9.170 -0.4964  0.6322 -1.7498
   75MOL0     H10109   8.583   9.299   9.213 -2.0453  1.6930  1.2278
   75MOL0     H10110   8.348   9.359   9.210  0.3701  0.4853  0.5048
   75MOL0     H10111   7.948   9.445   9.071 -1.0505 -1.8575  2.5799
   75MOL0     H10112   7.732   9.505   9.004  0.7169 -0.9919  2.6542
   75MOL0     H10113   7.402   9.389   8.745 -0.4330 -2.2874  0.4494
   75MOL0     H10114   7.565   9.341   8.688  0.6626  1.5954 -0.6922
   75MOL0     H10115   7.534   9.583   8.659  1.2871 -0.7898 -1.4367
   75MOL0     H10116   7.674   9.542   8.762  0.2964  0.2066 -2.3514
   75MOL0     H10117   7.522   9.580   8.966 -1.1772 -0.7102 -0.9050
   75MOL0     H10118   7.396   9.629   8.874  0.5463 -1.0178  1.4577
   75MOL0     H10119   7.499   9.809   8.778 -2.7756  1.2755  2.4610
   75MOL0     H10120   7.535   9.821   8.960  0.4269  2.2192 -0.7337
   75MOL0     H10121   7.934   9.782   8.821  0.0998  0.8505 -1.6685
   75MOL0     H10122   7.650   9.107   8.867 -0.1921 -1.0648 -2.0506
   75MOL0     H10123   8.003   9.006   8.848 -1.3246 -2.1656 -1.3424
   75MOL0     H10124   7.885   8.932   8.956 -0.0963  1.0085  1.2637
   75MOL0     H10125   7.843   8.986   8.796  1.7105 -0.2304 -1.4690
   76MOL0     O10126   6.629   0.986   2.997  0.0106  0.7296  0.2461
   76MOL0     C10127   6.577   1.069   2.927 -0.0256  0.5540  0.6225
   76MOL0     O10128   6.652   1.154   2.852 -0.6170 -0.1853  0.0104
   76MOL0     C10129   6.780   1.192   2.887 -0.1529 -0.6785  0.4121
   76MOL0     C10130   6.820   1.220   3.019  0.0739 -0.3324 -0.5697
   76MOL0     C10131   6.949   1.255   3.047  0.2652 -0.7052  0.6248
   76MOL0     C10132   7.043   1.279   2.951 -0.7125 -0.4312  0.2192
   76MOL0     O10133   7.171   1.333   2.986  0.9005  0.2109 -0.1235
   76MOL0     C10134   7.260   1.389   2.883 -0.3470 -0.9283  0.4753
   76MOL0     C10135   7.386   1.451   2.953  0.0411 -0.6895 -0.1259
   76MOL0     C10136   7.485   1.515   2.854  0.1429  0.1967 -0.2612
   76MOL0     C10137   7.537   1.421   2.738  0.2123  0.6466  0.2293
   76MOL0     C10138   7.664   1.461   2.668 -0.1683 -0.7144  0.0663
   76MOL0     C10139   7.759   1.342   2.627 -0.6577  0.3950 -0.8297
   76MOL0     C10140   7.864   1.381   2.527  1.0447 -1.0932 -0.8399
   76MOL0     C10141   7.950   1.499   2.576  0.2498 -0.1255  0.6048
   76MOL0     N10142   8.025   1.564   2.461 -0.6892 -0.9642 -0.5775
   76MOL0     C10143   8.073   1.518   2.341  0.4191 -0.3188  0.0645
   76MOL0     C10144   8.104   1.628   2.267 -0.5417 -0.0650  0.2764
   76MOL0     C10145   8.190   1.623   2.152  1.2626 -0.6112 -0.2537
   76MOL0     C10146   8.341   1.656   2.181  0.0947 -0.2157  0.0758
   76MOL0     C10147   8.411   1.531   2.223 -0.4667 -0.8666 -0.3716
   76MOL0     C10148   8.568   1.543   2.227  0.1862  0.0104 -0.2124
   76MOL0     O10149   8.634   1.427   2.294  0.5695  0.4025 -0.0382
   76MOL0     C10150   8.767   1.407   2.293  0.7061  0.8125  1.1275
   76MOL0     C10151   8.851   1.506   2.231 -0.2213 -0.1847  0.2479
   76MOL0     C10152   8.991   1.490   2.244 -0.0107  0.0582  0.1490
   76MOL0     C10153   9.044   1.367   2.295  0.1655 -0.0736  0.3209
   76MOL0     C10154   9.184   1.343   2.305  0.7948  0.2075  0.9978
   76MOL0     O10155   9.229   1.213   2.298 -0.1423  0.0992 -0.5017
   76MOL0     C10156   9.346   1.164   2.342  0.4387 -0.3110 -0.4781
   76MOL0     C10157   9.394   1.053   2.276 -0.3147 -0.1816 -0.3812
   76MOL0     C10158   9.515   0.990   2.315  0.0155  0.0162 -0.3221
   76MOL0     C10159   9.597   1.032   2.423  0.4548  0.3738  0.4316
   76MOL0     O10160   9.709   0.971   2.475  0.1568  0.7208  0.1524
   76MOL0     C10161   9.755   0.854   2.410  0.3440 -0.1212  0.2559
   76MOL0     C10162   9.884   0.822   2.490  0.0309 -0.7585  1.1165
   76MOL0     C10163  10.014   0.879   2.428  0.2528  0.0291  0.4820
   76MOL0     C10164  10.126   0.823   2.511 -0.2401 -0.0849  0.0463
   76MOL0     C10165  10.261   0.834   2.438  0.0806 -0.8659 -0.3959
   76MOL0     C10166  10.387   0.792   2.520 -1.4672  0.1732 -0.4589
   76MOL0     C10167  10.504   0.746   2.432 -0.1651  0.6805 -0.1772
   76MOL0     C10168  10.494   0.609   2.380  0.3464  0.9953  0.0436
   76MOL0    Cl10169  10.649   0.571   2.305  0.1963 -0.6388 -0.1420
   76MOL0     C10170   9.545   1.145   2.492 -0.5586  0.0898 -0.5079
   76MOL0     C10171   9.422   1.203   2.452  0.3876 -0.5790  0.6995
   76MOL0     O10172   9.257   1.443   2.317 -0.4864  0.4037  0.6227
   76MOL0     C10173   8.958   1.271   2.349 -0.0874  0.0230 -0.7182
   76MOL0     C10174   8.822   1.297   2.361  0.5567  0.4463  1.2754
   76MOL0     N10175   8.088   1.741   2.344 -1.0413  1.1766 -0.6280
   76MOL0     N10176   8.038   1.702   2.456  0.4197  0.7260 -0.2491
   76MOL0     C10177   7.011   1.262   2.813  0.2491 -0.0086 -0.7676
   76MOL0     C10178   6.879   1.228   2.786  0.0759  0.3364  0.1939
   76MOL0     C10179   6.428   1.058   2.905  0.5581  0.5437  0.4616
   76MOL0     C10180   6.369   1.164   2.841  0.1823 -0.2927  0.7361
   76MOL0     C10181   6.233   1.157   2.798 -0.0130 -0.5928  0.0262
   76MOL0     C10182   6.144   1.054   2.827 -0.3674 -0.3876  0.0244
   76MOL0     O10183   6.017   1.055   2.768  0.4749 -0.0049 -0.8582
   76MOL0     C10184   5.920   0.954   2.804 -0.2029  0.4361 -1.1005
   76MOL0     C10185   5.794   0.994   2.725  0.3074  0.0624  0.2443
   76MOL0     C10186   5.712   1.115   2.787 -0.1848  0.4462  0.6797
   76MOL0     C10187   5.607   1.158   2.693 -0.1081  0.0780  0.3138
   76MOL0     C10188   5.653   1.183   2.556  0.3590  0.0358  0.7376
   76MOL0     C10189   5.692   1.218   2.444  1.0527 -0.9405  0.4580
   76MOL0     C10190   6.194   0.959   2.909 -0.4063  0.8810 -0.0253
   76MOL0     C10191   6.334   0.949   2.940 -0.0082 -0.4649 -0.2688
   76MOL0     C10192   6.381   0.811   3.000  0.0792  0.0507  0.3884
   76MOL0     H10193   6.746   1.205   3.097 -2.5496  0.5873 -2.7111
   76MOL0     H10194   6.978   1.282   3.148  1.9621 -0.0328 -0.0012
   76MOL0     H10195   7.290   1.304   2.821 -1.3136 -1.1329  0.2738
   76MOL0     H10196   7.198   1.460   2.827 -1.4938  1.3743  4.2956
   76MOL0     H10197   7.436   1.377   3.016 -0.6055  0.5261  1.9242
   76MOL0     H10198   7.360   1.527   3.028  0.3856  1.2137 -1.8291
   76MOL0     H10199   7.572   1.547   2.911 -0.9557  3.6084 -0.2447
   76MOL0     H10200   7.442   1.602   2.802  0.7837  0.3307 -0.5706
   76MOL0     H10201   7.540   1.323   2.786 -2.2906  2.3930  4.6103
   76MOL0     H10202   7.456   1.417   2.665  0.7228 -2.0105 -0.2623
   76MOL0     H10203   7.645   1.526   2.582 -0.9595  0.3437  1.0177
   76MOL0     H10204   7.724   1.523   2.735  1.6449  0.1671 -2.2450
   76MOL0     H10205   7.817   1.307   2.712  1.5656 -0.0764 -2.4625
   76MOL0     H10206   7.710   1.254   2.584  0.6647 -0.8305  0.0555
   76MOL0     H10207   7.809   1.401   2.435 -0.3611 -1.2523 -0.0669
   76MOL0     H10208   7.936   1.303   2.503  2.3231 -0.1699 -0.1391
   76MOL0     H10209   7.895   1.578   2.629 -0.7298  0.0747 -0.6531
   76MOL0     H10210   8.027   1.456   2.640  1.7486  0.2413 -0.8679
   76MOL0     H10211   8.071   1.412   2.319 -1.6598 -0.6420  1.4686
   76MOL0     H10212   8.171   1.520   2.119 -4.5570 -0.6089  1.8015
   76MOL0     H10213   8.154   1.691   2.074 -3.8735 -2.2839  0.2539
   76MOL0     H10214   8.388   1.692   2.089  0.0030 -1.0533 -0.3058
   76MOL0     H10215   8.349   1.715   2.273  0.6797 -2.1677  1.3399
   76MOL0     H10216   8.379   1.463   2.144  1.1757  0.8655 -2.6833
   76MOL0     H10217   8.371   1.513   2.323  0.1809 -0.8752 -0.1097
   76MOL0     H10218   8.595   1.623   2.297 -1.2513  1.7068 -1.5085
   76MOL0     H10219   8.604   1.564   2.126 -0.6469 -0.1101 -0.5417
   76MOL0     H10220   8.810   1.599   2.193  2.2537  2.0052  2.5291
   76MOL0     H10221   9.064   1.559   2.202  0.6539 -0.6081  0.1991
   76MOL0     H10222   9.339   1.011   2.192  1.9997 -3.0064 -0.6380
   76MOL0     H10223   9.563   0.918   2.249 -0.8840 -1.2956  0.4018
   76MOL0     H10224   9.694   0.763   2.413  0.3865 -0.1417  0.5600
   76MOL0     H10225   9.787   0.879   2.309  0.1661 -1.1650 -0.0666
   76MOL0     H10226   9.871   0.863   2.590 -1.1576  2.2488 -0.1431
   76MOL0     H10227   9.901   0.715   2.499 -0.1298 -0.9543 -0.5619
   76MOL0     H10228  10.024   0.843   2.326  1.0692 -2.0497  1.2408
   76MOL0     H10229  10.012   0.988   2.419 -1.8583 -0.0121 -0.1827
   76MOL0     H10230  10.110   0.717   2.533  0.5253  0.0027  1.0859
   76MOL0     H10231  10.136   0.879   2.604  1.6247  1.4890 -1.0137
   76MOL0     H10232  10.291   0.935   2.410  1.0656 -0.9338  0.3914
   76MOL0     H10233  10.252   0.774   2.347 -1.0508 -0.6290 -0.4590
   76MOL0     H10234  10.427   0.872   2.583  0.7916 -0.8657 -0.4616
   76MOL0     H10235  10.365   0.708   2.586  1.9441 -0.5365 -0.0501
   76MOL0     H10236  10.594   0.753   2.494  1.0291  1.3175 -1.9146
   76MOL0     H10237  10.509   0.814   2.347  0.7404 -1.6369 -2.0826
   76MOL0     H10238  10.481   0.533   2.458 -0.2400  0.7399 -0.2994
   76MOL0     H10239  10.409   0.600   2.312 -0.2155  0.4899  0.7938
   76MOL0     H10240   9.602   1.193   2.571  0.9855 -0.7015 -1.1042
   76MOL0     H10241   9.373   1.285   2.506 -1.5907 -1.0178 -0.3288
   76MOL0     H10242   8.988   1.176   2.390 -1.0114  0.9439  2.3116
   76MOL0     H10243   8.749   1.227   2.399 -2.7621  2.0770 -1.4782
   76MOL0     H10244   7.077   1.287   2.731 -1.7468 -0.6424 -2.6904
   76MOL0     H10245   6.866   1.200   2.682  2.5388 -1.5563  0.2930
   76MOL0     H10246   6.422   1.251   2.803 -2.1370  0.8609 -0.0543
   76MOL0     H10247   6.197   1.244   2.745  4.2637  1.5354  0.1681
   76MOL0     H10248   5.905   0.953   2.912 -1.9975  1.5310 -1.2891
   76MOL0     H10249   5.946   0.854   2.767  0.0313  0.0119  0.1549
   76MOL0     H10250   5.730   0.906   2.724 -1.1061  1.0525  0.8314
   76MOL0     H10251   5.833   1.014   2.624 -0.9770 -2.8858 -0.9708
   76MOL0     H10252   5.781   1.199   2.793 -0.6971  1.0378 -0.9701
   76MOL0     H10253   5.675   1.100   2.888 -1.4907  0.9467  0.2930
   76MOL0     H10254   5.535   1.075   2.688  2.4974 -2.5246  2.2688
   76MOL0     H10255   5.555   1.244   2.736 -0.7813 -0.2589  0.1956
   76MOL0     H10256   5.731   1.247   2.349  4.4459  1.0066  2.2246
   76MOL0     H10257   6.122   0.880   2.925  0.6768 -0.0989  0.1457
   76MOL0     H10258   6.314   0.729   2.972  1.5577 -1.1264  0.1507
   76MOL0     H10259   6.483   0.789   2.966 -0.0405  0.4609 -0.2550
   76MOL0     H10260   6.384   0.815   3.109  0.4102  0.0745  0.3789
   77MOL0     O10261   9.507  10.890  11.358  0.9817 -1.1511  0.0814
   77MOL0     C10262   9.455  10.898  11.473 -0.7244  0.4753 -0.0302
   77MOL0     O10263   9.498  10.829  11.583  0.0920  0.1078  0.4547
   77MOL0     C10264   9.578  10.728  11.553 -0.3911  1.0245 -0.7423
   77MOL0     C10265   9.532  10.619  11.477 -0.0280  0.5775  0.2491
   77MOL0     C10266   9.616  10.503  11.451 -0.0224  0.1791 -0.0501
   77MOL0     C10267   9.750  10.518  11.489 -0.0036  0.3948  0.4373
   77MOL0     O10268   9.834  10.409  11.453  0.5888 -0.6521  0.1313
   77MOL0     C10269   9.974  10.415  11.486  0.3863  0.3447  1.1666
   77MOL0     C10270  10.046  10.283  11.469 -0.1934 -0.1946 -0.1435
   77MOL0     C10271  10.028  10.182  11.581 -0.6637 -0.4004  0.1101
   77MOL0     C10272  10.115  10.058  11.568  0.1635  0.2451 -0.6372
   77MOL0     C10273  10.121   9.956  11.684 -0.0173 -0.0165  0.7022
   77MOL0     C10274  10.219   9.839  11.659  0.1718 -0.1654 -0.0326
   77MOL0     C10275  10.238   9.770  11.790  0.5444 -0.7736  0.2731
   77MOL0     C10276  10.313   9.643  11.770 -0.1567 -0.4447 -0.2496
   77MOL0     N10277  10.441   9.663  11.721 -0.0913  0.9914 -0.1564
   77MOL0     C10278  10.547   9.705  11.800  1.1209 -0.4827  0.2666
   77MOL0     C10279  10.651   9.737  11.713  0.0500  0.6070 -0.3767
   77MOL0     C10280  10.783   9.792  11.760 -0.2126 -0.0211  0.6247
   77MOL0     C10281  10.897   9.710  11.728 -1.7978  0.5343 -0.1811
   77MOL0     C10282  11.025   9.783  11.758  0.6259  0.1216 -0.0158
   77MOL0     C10283  11.158   9.723  11.705  0.5406  0.4556  0.0434
   77MOL0     O10284  11.265   9.816  11.694 -0.1617 -0.0727  0.6516
   77MOL0     C10285  11.385   9.774  11.641 -0.0203 -0.3244  0.7547
   77MOL0     C10286  11.489   9.868  11.635 -0.1950  0.1316 -0.3150
   77MOL0     C10287  11.604   9.842  11.574 -0.6009  0.3167 -0.2954
   77MOL0     C10288  11.633   9.711  11.533 -0.3048 -0.0740  0.3225
   77MOL0     C10289  11.768   9.669  11.474 -0.3932 -0.1898 -0.2798
   77MOL0     O10290  11.798   9.536  11.443  0.0155 -0.6963  0.4605
   77MOL0     C10291  11.930   9.499  11.425  0.0757 -0.7633 -0.4024
   77MOL0     C10292  12.023   9.529  11.321  0.1518  0.6036  0.1679
   77MOL0     C10293  12.152   9.484  11.335 -0.8070 -0.9274 -0.0320
   77MOL0     C10294  12.195   9.403  11.440  0.4214 -0.3461  0.8136
   77MOL0     O10295  12.321   9.353  11.446 -0.3650 -0.8279  0.0669
   77MOL0     C10296  12.342   9.213  11.424 -0.0269 -0.0643 -0.4747
   77MOL0     C10297  12.472   9.170  11.355  0.4892 -0.6362 -1.0221
   77MOL0     C10298  12.592   9.227  11.429  0.2000 -0.2487  0.3051
   77MOL0     C10299  12.715   9.178  11.361 -0.6567  0.1212 -0.3521
   77MOL0     C10300  12.832   9.209  11.459  0.0455  0.0811 -0.7961
   77MOL0     C10301  12.964   9.179  11.394 -0.4462 -0.7012  0.8464
   77MOL0     C10302  13.084   9.194  11.490  0.9459 -0.5898  0.2916
   77MOL0     C10303  13.212   9.157  11.425  0.6034 -0.1498 -1.3178
   77MOL0    Cl10304  13.332   9.140  11.557  0.0702 -0.0506  0.0190
   77MOL0     C10305  12.104   9.370  11.538 -0.1078 -0.5333 -0.8154
   77MOL0     C10306  11.966   9.418  11.530  0.5761 -0.2022 -0.0950
   77MOL0     O10307  11.843   9.767  11.443 -0.3209  0.3518 -0.3642
   77MOL0     C10308  11.541   9.615  11.555 -0.5665  0.5824  0.3562
   77MOL0     C10309  11.415   9.645  11.604  0.5069 -0.3556  0.5151
   77MOL0     N10310  10.596   9.704  11.585 -0.2045 -0.1216 -0.0684
   77MOL0     N10311  10.479   9.652  11.591  0.4780  0.3790 -0.3591
   77MOL0     C10312   9.792  10.638  11.554 -0.3446  0.1092  0.1984
   77MOL0     C10313   9.708  10.732  11.598 -0.3080  0.3332  0.0744
   77MOL0     C10314   9.364  11.015  11.488 -0.8827 -0.5592 -0.7013
   77MOL0     C10315   9.384  11.129  11.410 -0.3052 -0.5270  0.1309
   77MOL0     C10316   9.313  11.245  11.424  0.2052  0.7647 -0.6200
   77MOL0     C10317   9.210  11.249  11.513  0.3168 -0.0398 -0.1371
   77MOL0     O10318   9.123  11.361  11.512  1.0517  0.4326 -0.1672
   77MOL0     C10319   8.987  11.316  11.521 -0.3198  0.0760  0.0730
   77MOL0     C10320   8.900  11.422  11.443  0.4268 -0.1579  0.7328
   77MOL0     C10321   8.753  11.398  11.455  0.3402  0.6772 -0.5341
   77MOL0     C10322   8.694  11.389  11.602  0.6698  1.0055 -0.6426
   77MOL0     C10323   8.716  11.522  11.669 -0.4137  0.3018  0.9775
   77MOL0     C10324   8.727  11.627  11.715 -0.2854 -0.0109  0.1368
   77MOL0     C10325   9.187  11.134  11.598 -0.9665 -0.2589  0.2802
   77MOL0     C10326   9.268  11.018  11.587 -0.0476  0.4729 -0.4733
   77MOL0     C10327   9.235  10.900  11.673  0.2379  1.3705 -0.2655
   77MOL0     H10328   9.430  10.622  11.442  0.0123  1.2891  0.1805
   77MOL0     H10329   9.584  10.415  11.397  1.1089 -0.1723 -0.1678
   77MOL0     H10330  10.016  10.482  11.410  1.0161 -1.9102 -0.5882
   77MOL0     H10331   9.987  10.453  11.588 -0.6407  0.9432  1.0939
   77MOL0     H10332  10.154  10.289  11.452  0.3248 -1.1091  2.4188
   77MOL0     H10333  10.005  10.238  11.378  2.7617 -2.8134 -0.3446
   77MOL0     H10334   9.924  10.147  11.581 -1.7839  2.5365  2.0026
   77MOL0     H10335  10.035  10.237  11.675 -0.1202 -0.7925  0.3066
   77MOL0     H10336  10.080  10.007  11.478 -3.2858 -0.0267  0.6903
   77MOL0     H10337  10.213  10.106  11.564 -0.3365  1.3258 -0.3878
   77MOL0     H10338  10.154  10.019  11.768 -2.9918  0.3066  1.7564
   77MOL0     H10339  10.020   9.932  11.719 -0.1983  0.7152  0.7015
   77MOL0     H10340  10.190   9.769  11.579 -0.1426  2.9403 -2.8704
   77MOL0     H10341  10.314   9.883  11.628 -0.6494  0.6144 -1.5998
   77MOL0     H10342  10.143   9.757  11.841  0.3664  2.5680  1.0000
   77MOL0     H10343  10.295   9.843  11.848 -0.7233  0.1002  0.4404
   77MOL0     H10344  10.323   9.587  11.864 -1.6787  0.2073  0.3395
   77MOL0     H10345  10.263   9.591  11.689 -4.8751  0.1651  1.9084
   77MOL0     H10346  10.539   9.722  11.907 -0.5597 -2.6613  0.5541
   77MOL0     H10347  10.804   9.888  11.711  2.4358 -0.9820 -0.2841
   77MOL0     H10348  10.778   9.810  11.868 -0.7031  0.9608  0.4540
   77MOL0     H10349  10.896   9.607  11.766 -2.6204  0.4206 -0.4962
   77MOL0     H10350  10.896   9.699  11.619 -2.0765 -1.3459 -0.0276
   77MOL0     H10351  11.032   9.815  11.862  1.1984  1.7051 -0.4974
   77MOL0     H10352  11.015   9.879  11.706 -2.0687  1.4746  2.7054
   77MOL0     H10353  11.138   9.677  11.607  0.3154  0.7256 -0.0367
   77MOL0     H10354  11.187   9.652  11.782 -3.7569 -2.3989 -0.6191
   77MOL0     H10355  11.462   9.968  11.667 -1.9159 -1.1531  2.8026
   77MOL0     H10356  11.676   9.920  11.551  1.6586 -1.4617  0.3652
   77MOL0     H10357  12.001   9.606  11.248  4.1628  1.9073  0.0713
   77MOL0     H10358  12.237   9.518  11.277 -0.3446 -1.0074  0.5846
   77MOL0     H10359  12.332   9.156  11.517  0.3231  2.1603  1.0025
   77MOL0     H10360  12.260   9.174  11.362  0.3249 -0.0393 -0.9640
   77MOL0     H10361  12.474   9.061  11.358 -0.0721 -0.6429  1.7975
   77MOL0     H10362  12.474   9.210  11.253  2.0398  2.0388 -0.0632
   77MOL0     H10363  12.594   9.336  11.440 -0.1189 -0.1985 -0.1155
   77MOL0     H10364  12.585   9.190  11.532  1.5570 -1.0646  0.1320
   77MOL0     H10365  12.732   9.231  11.267 -4.5118  1.0478 -0.6755
   77MOL0     H10366  12.716   9.069  11.348 -1.0340 -0.0599  0.9937
   77MOL0     H10367  12.818   9.150  11.550 -3.0034  0.2529 -1.0617
   77MOL0     H10368  12.834   9.316  11.481  1.8772 -0.3103  1.4100
   77MOL0     H10369  12.959   9.079  11.348 -2.1308  0.8699 -2.8044
   77MOL0     H10370  12.962   9.244  11.306  1.5562 -0.4652  0.9261
   77MOL0     H10371  13.058   9.138  11.581 -2.1822 -0.6286 -0.5345
   77MOL0     H10372  13.097   9.298  11.521 -3.2719  0.2668 -0.2557
   77MOL0     H10373  13.200   9.061  11.373 -1.7721  0.0344 -1.2101
   77MOL0     H10374  13.236   9.221  11.340  2.6809 -3.0600 -3.1032
   77MOL0     H10375  12.133   9.304  11.619 -1.2543 -0.0520  0.0112
   77MOL0     H10376  11.898   9.379  11.606 -0.1815 -1.2699 -1.2715
   77MOL0     H10377  11.565   9.516  11.518 -2.6860  0.6107 -1.2643
   77MOL0     H10378  11.346   9.562  11.614 -0.8375  0.8763  1.9230
   77MOL0     H10379   9.899  10.646  11.566  0.1542  1.5295 -3.7074
   77MOL0     H10380   9.742  10.817  11.657 -0.5718 -2.1992  4.2653
   77MOL0     H10381   9.456  11.131  11.329  0.6323  2.1804  0.9519
   77MOL0     H10382   9.342  11.325  11.357 -1.3073  0.8047 -1.2686
   77MOL0     H10383   8.956  11.304  11.625  1.2134  1.7974  0.7891
   77MOL0     H10384   8.967  11.217  11.478 -3.7309  0.2930  0.8609
   77MOL0     H10385   8.926  11.416  11.337 -2.1708  1.7835 -0.1101
   77MOL0     H10386   8.917  11.523  11.482  0.9775  0.9600 -2.1285
   77MOL0     H10387   8.726  11.311  11.396  0.5905  0.4770 -0.3553
   77MOL0     H10388   8.702  11.485  11.411 -3.2471  0.0627  1.9292
   77MOL0     H10389   8.586  11.378  11.592  0.7917 -0.0409 -0.8686
   77MOL0     H10390   8.722  11.297  11.654  1.3839  0.4630 -1.9303
   77MOL0     H10391   8.735  11.724  11.761  2.3293  0.9196 -2.0362
   77MOL0     H10392   9.111  11.117  11.673  0.6842 -4.0228  1.3341
   77MOL0     H10393   9.310  10.860  11.742 -2.5413 -0.9494  1.7077
   77MOL0     H10394   9.146  10.911  11.736  0.1030 -1.3749  0.1243
   77MOL0     H10395   9.197  10.821  11.608 -1.1977  1.1511  0.7883
   78MOL0     O10396   1.023   5.823   8.452  0.2167 -1.2960 -1.0085
   78MOL0     C10397   0.953   5.787   8.546 -0.2032 -0.1601  0.3254
   78MOL0     O10398   0.992   5.732   8.667  0.5033 -0.7204 -0.0696
   78MOL0     C10399   1.119   5.761   8.702  0.1587  0.2225 -0.2615
   78MOL0     C10400   1.160   5.884   8.761  0.5521  1.1712 -0.9947
   78MOL0     C10401   1.294   5.915   8.771 -0.3941 -0.1062 -0.6597
   78MOL0     C10402   1.397   5.828   8.723  0.5345 -0.4363  0.2357
   78MOL0     O10403   1.532   5.832   8.755 -0.3009  0.6744  0.3498
   78MOL0     C10404   1.588   5.963   8.796  0.5426 -0.2919 -0.2929
   78MOL0     C10405   1.727   5.952   8.753 -0.7951 -0.2475  0.4545
   78MOL0     C10406   1.811   5.861   8.851  0.1236 -0.5161 -0.3540
   78MOL0     C10407   1.959   5.870   8.837 -0.0479 -0.9270 -0.3285
   78MOL0     C10408   2.029   5.785   8.945  0.3031  0.2837  0.1925
   78MOL0     C10409   2.172   5.753   8.907  0.7982 -0.7823  0.7051
   78MOL0     C10410   2.235   5.657   9.006  0.0226  0.2159 -0.3258
   78MOL0     C10411   2.380   5.619   8.968  0.1911  0.4724 -0.3660
   78MOL0     N10412   2.446   5.519   9.050 -0.5382 -0.1731 -0.6407
   78MOL0     C10413   2.459   5.382   9.023 -0.2804 -0.4457  0.3894
   78MOL0     C10414   2.504   5.316   9.138  0.1237 -0.2100  0.0098
   78MOL0     C10415   2.512   5.173   9.171  0.5529 -0.0938  0.1256
   78MOL0     C10416   2.637   5.111   9.129 -0.8074  0.4762  0.2777
   78MOL0     C10417   2.768   5.161   9.203  1.1268  0.0334 -0.7173
   78MOL0     C10418   2.895   5.118   9.140 -0.3141 -1.0138 -0.8588
   78MOL0     O10419   2.998   5.211   9.173  0.7930  0.3314 -0.0659
   78MOL0     C10420   3.127   5.187   9.147  0.1666 -0.7612  0.0482
   78MOL0     C10421   3.224   5.285   9.195 -0.2901 -0.2612 -0.4147
   78MOL0     C10422   3.360   5.271   9.173  0.4079  0.0888  0.3037
   78MOL0     C10423   3.406   5.163   9.090  0.6390 -0.1287 -0.1320
   78MOL0     C10424   3.554   5.142   9.072 -0.3882  0.3546 -1.1189
   78MOL0     O10425   3.642   5.243   9.090  0.2523 -0.4865 -0.0629
   78MOL0     C10426   3.781   5.229   9.078 -0.0232 -0.5914 -0.4344
   78MOL0     C10427   3.852   5.137   9.004 -0.5723 -0.2438  1.0028
   78MOL0     C10428   3.990   5.139   9.016 -0.0291 -0.0201 -0.2619
   78MOL0     C10429   4.063   5.232   9.092 -0.5285  0.0275 -0.4054
   78MOL0     O10430   4.194   5.216   9.117 -0.0621 -0.2840 -0.2902
   78MOL0     C10431   4.263   5.334   9.139 -0.3990  0.7214  0.6307
   78MOL0     C10432   4.408   5.310   9.110  0.7717 -0.4332 -0.6383
   78MOL0     C10433   4.447   5.332   8.966  0.9101  0.0577  0.2512
   78MOL0     C10434   4.585   5.296   8.952  0.6335 -0.3237 -0.4006
   78MOL0     C10435   4.619   5.288   8.806 -0.2353 -0.7040 -0.3781
   78MOL0     C10436   4.667   5.431   8.748 -0.4169 -0.0684  0.0317
   78MOL0     C10437   4.696   5.420   8.591 -0.4941  0.0237  0.0463
   78MOL0     C10438   4.817   5.324   8.576  0.6756  0.0494  0.3111
   78MOL0    Cl10439   4.954   5.415   8.632  0.4772  0.3032  0.2081
   78MOL0     C10440   3.987   5.327   9.162 -0.3794 -0.2046 -1.0280
   78MOL0     C10441   3.852   5.324   9.155 -0.0115  0.1985  0.7219
   78MOL0     O10442   3.586   5.027   9.039  0.7482  0.1242 -0.4400
   78MOL0     C10443   3.312   5.068   9.045 -0.0586 -0.6205  0.1296
   78MOL0     C10444   3.171   5.083   9.075 -0.6911 -0.6644  0.0878
   78MOL0     N10445   2.518   5.419   9.231 -0.4255 -0.3423 -0.5732
   78MOL0     N10446   2.489   5.534   9.175  0.4643 -0.6366  0.1701
   78MOL0     C10447   1.354   5.715   8.663  0.9036  0.9149 -0.3891
   78MOL0     C10448   1.222   5.682   8.649  0.0152 -0.7006 -0.0000
   78MOL0     C10449   0.801   5.793   8.517  0.3107 -0.6566  0.4379
   78MOL0     C10450   0.763   5.778   8.386  0.3799 -0.1879 -0.1488
   78MOL0     C10451   0.628   5.778   8.352  0.0955  0.9202  0.1450
   78MOL0     C10452   0.527   5.800   8.449  0.2341  0.0357  0.0659
   78MOL0     O10453   0.396   5.829   8.419  1.0529  0.1353  0.1771
   78MOL0     C10454   0.367   5.859   8.285  0.3301  1.1271  0.2050
   78MOL0     C10455   0.221   5.867   8.258  0.4214  0.3075 -0.4272
   78MOL0     C10456   0.136   5.765   8.340  0.2877 -0.8308  0.5449
   78MOL0     C10457  -0.007   5.781   8.308  0.0891 -0.2334  0.2512
   78MOL0     C10458  -0.064   5.871   8.406 -0.8901 -1.4391 -0.2052
   78MOL0     C10459  -0.118   5.924   8.494  1.1147 -0.7459 -0.4561
   78MOL0     C10460   0.572   5.823   8.575 -0.1564 -0.0782  0.0491
   78MOL0     C10461   0.707   5.821   8.611 -0.4510  0.1569  0.2838
   78MOL0     C10462   0.728   5.878   8.747  0.0750  0.2610 -0.2083
   78MOL0     H10463   1.070   5.933   8.799 -0.5261  1.2996 -3.5115
   78MOL0     H10464   1.322   6.004   8.826 -1.6991  1.8801 -2.9651
   78MOL0     H10465   1.535   6.042   8.742 -1.4746 -0.6119  1.1140
   78MOL0     H10466   1.577   5.980   8.904 -0.2591  1.1478 -0.5769
   78MOL0     H10467   1.769   6.052   8.739 -0.3536 -0.3846  0.7795
   78MOL0     H10468   1.735   5.916   8.650 -0.3956 -0.4368  0.5485
   78MOL0     H10469   1.774   5.762   8.827 -2.0914  0.4442 -1.1007
   78MOL0     H10470   1.762   5.888   8.945 -3.5757  0.7135 -2.4401
   78MOL0     H10471   1.980   5.838   8.734  3.8795  1.2703 -0.3891
   78MOL0     H10472   1.998   5.971   8.845  0.3943 -0.8885 -2.3840
   78MOL0     H10473   2.030   5.840   9.039  2.9327  3.8075 -1.6549
   78MOL0     H10474   1.974   5.693   8.965  0.3519 -0.0428 -1.0332
   78MOL0     H10475   2.177   5.709   8.807  0.7073  0.1718  0.2710
   78MOL0     H10476   2.233   5.843   8.908 -0.2734 -0.0200  2.7362
   78MOL0     H10477   2.174   5.567   9.014 -0.8598  0.9067  1.0000
   78MOL0     H10478   2.223   5.709   9.102  1.6784  2.3814 -1.2150
   78MOL0     H10479   2.378   5.581   8.866 -2.9763 -1.7997  0.3712
   78MOL0     H10480   2.444   5.707   8.979 -0.0223  0.5753  0.1121
   78MOL0     H10481   2.438   5.329   8.931  0.3982  0.7414 -0.4766
   78MOL0     H10482   2.510   5.159   9.280  2.2707 -0.2572  0.1590
   78MOL0     H10483   2.428   5.121   9.123  0.5055 -1.5715  1.6920
   78MOL0     H10484   2.640   5.003   9.147  1.8164  0.4736  0.3297
   78MOL0     H10485   2.644   5.121   9.020 -4.3235 -0.8792 -0.1946
   78MOL0     H10486   2.758   5.121   9.305 -0.8063  1.0363 -0.4822
   78MOL0     H10487   2.763   5.269   9.215 -3.0317  0.1558 -2.0541
   78MOL0     H10488   2.877   5.120   9.032 -1.2245 -1.4096 -0.7307
   78MOL0     H10489   2.918   5.015   9.168  2.2475 -0.5496 -1.0798
   78MOL0     H10490   3.193   5.378   9.241  0.9953  1.1827 -2.3654
   78MOL0     H10491   3.430   5.337   9.223 -1.4481  1.7547  0.8170
   78MOL0     H10492   3.805   5.067   8.936 -0.3052 -0.3147  0.8886
   78MOL0     H10493   4.052   5.061   8.974 -1.9624 -0.9447 -1.5209
   78MOL0     H10494   4.226   5.416   9.077  0.0659 -1.1774 -2.3662
   78MOL0     H10495   4.250   5.366   9.243 -2.1151  0.5454  0.4931
   78MOL0     H10496   4.465   5.382   9.170 -0.9414  0.9175 -0.5407
   78MOL0     H10497   4.423   5.208   9.146  0.8352 -0.3373 -0.3856
   78MOL0     H10498   4.391   5.275   8.892  0.9026 -2.7421  2.2871
   78MOL0     H10499   4.440   5.438   8.940 -0.3168 -0.2490 -0.7548
   78MOL0     H10500   4.608   5.202   9.002  1.6182  1.2733  2.4368
   78MOL0     H10501   4.643   5.373   9.006 -1.4640 -0.2333  1.8757
   78MOL0     H10502   4.545   5.243   8.740 -0.1740 -0.4958 -0.5878
   78MOL0     H10503   4.694   5.209   8.802 -1.6643 -2.0357 -2.7559
   78MOL0     H10504   4.580   5.497   8.759 -0.6871 -0.6774  1.9036
   78MOL0     H10505   4.747   5.481   8.802  0.2828 -0.5085 -0.5844
   78MOL0     H10506   4.717   5.520   8.552  0.2645  0.0825  0.5707
   78MOL0     H10507   4.618   5.380   8.526  1.4530 -1.3279 -1.6018
   78MOL0     H10508   4.812   5.227   8.625 -2.5711 -0.2661 -0.4803
   78MOL0     H10509   4.834   5.305   8.470  1.0793  0.1303  0.3592
   78MOL0     H10510   4.037   5.389   9.236 -0.0760 -2.4252  0.7496
   78MOL0     H10511   3.795   5.393   9.217 -0.0622  2.1207 -1.3522
   78MOL0     H10512   3.341   4.980   8.988 -0.6020  0.0699 -1.2328
   78MOL0     H10513   3.102   5.012   9.029 -2.0796 -0.0690  1.1878
   78MOL0     H10514   1.423   5.640   8.627  0.5831  1.4283 -2.1541
   78MOL0     H10515   1.194   5.600   8.584 -1.4483 -1.2214  1.2137
   78MOL0     H10516   0.833   5.770   8.303 -0.2325  3.8022 -1.2658
   78MOL0     H10517   0.609   5.780   8.245  2.4355 -0.0550 -0.3330
   78MOL0     H10518   0.392   5.768   8.229 -4.7118 -1.5295  1.6211
   78MOL0     H10519   0.406   5.955   8.249 -1.1038  1.8202  0.4074
   78MOL0     H10520   0.210   5.842   8.152  2.4601 -0.2599 -0.5340
   78MOL0     H10521   0.182   5.969   8.271  0.7729  0.2455  1.3350
   78MOL0     H10522   0.150   5.795   8.444 -2.0257 -0.0307  0.6812
   78MOL0     H10523   0.172   5.665   8.312  1.9066  0.2707 -1.6098
   78MOL0     H10524  -0.036   5.813   8.208 -1.2039 -3.5145 -0.5582
   78MOL0     H10525  -0.064   5.694   8.342  1.2005 -0.7119  0.9691
   78MOL0     H10526  -0.159   5.980   8.576  1.4356 -2.8167  1.2073
   78MOL0     H10527   0.496   5.839   8.652  0.3749 -1.8853  0.9973
   78MOL0     H10528   0.646   5.851   8.813  2.5516  1.8390  3.8554
   78MOL0     H10529   0.822   5.837   8.785 -1.5427 -1.7179  1.9290
   78MOL0     H10530   0.729   5.988   8.741  2.0346  0.2330 -1.5468
   79MOL0     O10531   2.776   6.633   7.399 -0.8358  0.1673 -0.5689
   79MOL0     C10532   2.791   6.754   7.376  1.4798 -0.3259  0.2557
   79MOL0     O10533   2.906   6.837   7.385  0.2798 -0.4911  0.5604
   79MOL0     C10534   3.018   6.794   7.441  0.1936  0.6284 -1.1132
   79MOL0     C10535   3.028   6.680   7.525  0.0798  0.7638 -0.3368
   79MOL0     C10536   3.147   6.658   7.596 -0.2253 -0.2871  0.3930
   79MOL0     C10537   3.256   6.745   7.579 -1.0128  0.7321 -0.7207
   79MOL0     O10538   3.369   6.723   7.659  0.8882 -1.4348 -0.0619
   79MOL0     C10539   3.492   6.793   7.632 -0.3263 -0.4538 -0.0639
   79MOL0     C10540   3.615   6.732   7.689  0.2862 -0.4849 -0.7213
   79MOL0     C10541   3.739   6.797   7.635 -1.0846 -0.1318  0.4529
   79MOL0     C10542   3.864   6.764   7.727 -0.6753  0.0870  0.4404
   79MOL0     C10543   3.886   6.844   7.856 -0.0234  0.7850 -0.5215
   79MOL0     C10544   4.008   6.800   7.932 -0.9677  0.5115  0.9485
   79MOL0     C10545   3.965   6.688   8.029 -0.5042  0.2033  1.0261
   79MOL0     C10546   4.080   6.615   8.104  0.7744  0.5774  0.7871
   79MOL0     N10547   4.144   6.702   8.203  0.1640  0.0645 -0.7816
   79MOL0     C10548   4.093   6.753   8.322 -0.1001 -1.1947  0.3087
   79MOL0     C10549   4.177   6.857   8.348 -0.0462 -0.2769 -0.0365
   79MOL0     C10550   4.151   6.945   8.473  0.2239  0.5571 -0.2471
   79MOL0     C10551   4.218   7.079   8.487  0.8445 -0.0712 -0.7782
   79MOL0     C10552   4.367   7.064   8.516 -0.1016  0.4000 -0.3825
   79MOL0     C10553   4.448   7.187   8.484  0.7460  0.0757 -0.3674
   79MOL0     O10554   4.586   7.165   8.519  0.6543 -0.3162 -0.1845
   79MOL0     C10555   4.676   7.247   8.469  0.0416 -0.6363  0.0016
   79MOL0     C10556   4.810   7.213   8.483  0.1999 -0.0094  0.3560
   79MOL0     C10557   4.906   7.294   8.419  0.1796 -0.0603 -0.0275
   79MOL0     C10558   4.868   7.408   8.347 -0.2309 -0.2826 -0.1961
   79MOL0     C10559   4.972   7.494   8.288 -0.2891 -0.2864 -0.6363
   79MOL0     O10560   5.100   7.459   8.332  0.2355 -0.1566 -0.1120
   79MOL0     C10561   5.206   7.550   8.306  0.3830 -0.1643 -0.4412
   79MOL0     C10562   5.325   7.484   8.301 -0.3426  0.0966 -0.2932
   79MOL0     C10563   5.438   7.562   8.269  0.0396 -0.1855  0.8779
   79MOL0     C10564   5.425   7.694   8.225 -0.4989  0.1970 -0.4189
   79MOL0     O10565   5.539   7.746   8.163  0.3754 -0.0770  0.2719
   79MOL0     C10566   5.544   7.889   8.158 -0.5321  0.8205  0.4881
   79MOL0     C10567   5.670   7.937   8.096 -0.3411  0.5687  0.7133
   79MOL0     C10568   5.688   8.078   8.082  0.6355 -0.5594  1.3604
   79MOL0     C10569   5.832   8.119   8.088 -0.6221  0.0576 -0.1936
   79MOL0     C10570   5.855   8.265   8.038 -0.1319 -0.0728 -0.5991
   79MOL0     C10571   5.999   8.295   8.043 -0.1719  0.6423  0.8280
   79MOL0     C10572   6.033   8.416   7.950 -0.1879 -0.6209  0.9128
   79MOL0     C10573   6.152   8.506   7.971  0.0206 -0.9733  0.0072
   79MOL0    Cl10574   6.149   8.638   7.862 -0.0314 -0.0604 -0.1524
   79MOL0     C10575   5.306   7.755   8.240 -0.4115  0.1930  0.3188
   79MOL0     C10576   5.201   7.686   8.288  0.6950  0.4116 -0.4099
   79MOL0     O10577   4.944   7.584   8.206 -0.7915  0.2614  0.2320
   79MOL0     C10578   4.740   7.450   8.342  0.4590 -0.1068  0.2587
   79MOL0     C10579   4.637   7.366   8.397 -0.6428 -0.4725  0.3337
   79MOL0     N10580   4.285   6.851   8.259  0.1663  0.0600  0.5588
   79MOL0     N10581   4.266   6.754   8.174  0.2897 -0.3415  0.3625
   79MOL0     C10582   3.249   6.856   7.497  0.6665  0.3368 -0.2990
   79MOL0     C10583   3.126   6.874   7.427 -1.0997  0.3505 -0.2401
   79MOL0     C10584   2.666   6.826   7.318 -0.0551  0.4319  0.4447
   79MOL0     C10585   2.659   6.966   7.319 -0.2077 -0.6848  0.7631
   79MOL0     C10586   2.551   7.036   7.272  0.5409  0.3632  1.0581
   79MOL0     C10587   2.446   6.968   7.203  0.8842  1.3203  0.3544
   79MOL0     O10588   2.339   7.033   7.138  0.2674 -0.1979 -0.2785
   79MOL0     C10589   2.351   7.176   7.114 -0.0154  0.5478  0.3103
   79MOL0     C10590   2.248   7.229   7.020  0.5827 -0.1113  0.2638
   79MOL0     C10591   2.105   7.193   7.070  0.3861  0.7955 -0.5830
   79MOL0     C10592   2.060   7.061   6.996 -0.3005 -0.9988 -1.0309
   79MOL0     C10593   1.922   7.027   7.002  0.7056  0.5673 -1.0467
   79MOL0     C10594   1.804   7.010   7.011  0.3166  0.0467 -0.0977
   79MOL0     C10595   2.452   6.829   7.202  0.2521  0.7411 -0.4574
   79MOL0     C10596   2.558   6.757   7.254 -0.9609 -0.2991 -0.5827
   79MOL0     C10597   2.568   6.616   7.207 -0.0931  0.5427  0.2194
   79MOL0     H10598   2.947   6.611   7.544  1.9642 -1.6664 -0.5839
   79MOL0     H10599   3.152   6.575   7.665  0.0102 -1.1545 -0.6280
   79MOL0     H10600   3.508   6.787   7.524 -2.9991  0.6270 -0.6057
   79MOL0     H10601   3.477   6.896   7.665  1.3016 -0.2558  0.1085
   79MOL0     H10602   3.622   6.626   7.664  1.8370 -0.4336 -0.5912
   79MOL0     H10603   3.604   6.755   7.795 -0.2963 -3.0302 -0.1890
   79MOL0     H10604   3.730   6.904   7.614  1.3855 -0.1729 -1.2153
   79MOL0     H10605   3.764   6.748   7.541  1.9984  1.2988  0.3962
   79MOL0     H10606   3.853   6.657   7.751 -1.1940 -0.0362 -0.3144
   79MOL0     H10607   3.957   6.777   7.670 -1.2813 -0.1442 -0.6339
   79MOL0     H10608   3.905   6.951   7.846  2.9136  0.5666  1.3981
   79MOL0     H10609   3.791   6.839   7.909 -1.2899  2.9097 -2.4323
   79MOL0     H10610   4.087   6.787   7.857 -1.7990  3.6436 -0.6314
   79MOL0     H10611   4.042   6.889   7.986  0.4716  0.3024  0.4224
   79MOL0     H10612   3.925   6.605   7.971 -3.1852  1.7287  0.5599
   79MOL0     H10613   3.886   6.726   8.095 -2.4142  1.6295 -1.8451
   79MOL0     H10614   4.041   6.529   8.160  0.9989  0.9531  1.5297
   79MOL0     H10615   4.158   6.572   8.040  0.3552 -0.5094  0.9812
   79MOL0     H10616   3.996   6.738   8.368 -0.3016 -1.9941 -0.3484
   79MOL0     H10617   4.044   6.968   8.469  0.6215  3.3123  1.9364
   79MOL0     H10618   4.175   6.883   8.559  1.8528 -0.3562 -1.3064
   79MOL0     H10619   4.195   7.134   8.395 -0.5167  0.4127 -0.1791
   79MOL0     H10620   4.170   7.121   8.576 -1.9587 -2.9653 -0.7654
   79MOL0     H10621   4.410   6.982   8.458 -2.9952  0.0358 -2.2168
   79MOL0     H10622   4.377   7.033   8.620 -1.0885 -1.3293 -0.7640
   79MOL0     H10623   4.409   7.267   8.547  0.0646 -1.7219  1.6134
   79MOL0     H10624   4.426   7.206   8.378 -1.1571 -2.2949 -0.5062
   79MOL0     H10625   4.827   7.128   8.548 -1.0942  2.0185  3.6201
   79MOL0     H10626   5.006   7.254   8.433 -0.9313 -1.8530  4.4159
   79MOL0     H10627   5.342   7.377   8.315  2.5904  0.1857 -2.2744
   79MOL0     H10628   5.538   7.522   8.254  0.4885  1.4580 -0.9419
   79MOL0     H10629   5.456   7.939   8.116 -2.0834 -0.9499  1.5193
   79MOL0     H10630   5.552   7.928   8.260  0.5687  1.1101  0.3028
   79MOL0     H10631   5.750   7.892   8.156 -0.4961  1.2466  1.4436
   79MOL0     H10632   5.682   7.890   7.998  1.6216  0.1581  1.0981
   79MOL0     H10633   5.668   8.102   7.977  3.2711  0.2597  0.9641
   79MOL0     H10634   5.616   8.136   8.141 -1.8543  0.1904 -2.1004
   79MOL0     H10635   5.887   8.049   8.023  0.0748  0.5348 -0.1217
   79MOL0     H10636   5.876   8.106   8.187 -2.8221  1.1000  0.9873
   79MOL0     H10637   5.790   8.333   8.093 -2.3433 -1.0243 -1.9064
   79MOL0     H10638   5.824   8.249   7.934  0.6168  0.4343 -0.9135
   79MOL0     H10639   6.038   8.324   8.141 -1.4467 -0.2494  1.6493
   79MOL0     H10640   6.043   8.206   7.997  2.3819  1.1796  2.0782
   79MOL0     H10641   5.952   8.488   7.965 -1.3674 -1.6846 -0.1487
   79MOL0     H10642   6.041   8.390   7.844 -0.2723  1.4563  0.3436
   79MOL0     H10643   6.146   8.552   8.071  0.0091 -0.3405 -0.2815
   79MOL0     H10644   6.240   8.444   7.955  0.7933  0.3311 -0.9141
   79MOL0     H10645   5.308   7.861   8.218  0.7102 -0.1769 -1.5639
   79MOL0     H10646   5.111   7.744   8.303  0.7939  0.2435  0.9010
   79MOL0     H10647   4.700   7.539   8.295  0.9436  1.4862  2.6732
   79MOL0     H10648   4.536   7.402   8.384  0.2969  1.6621 -1.7749
   79MOL0     H10649   3.339   6.913   7.476  1.7083 -1.6040 -1.4509
   79MOL0     H10650   3.117   6.960   7.361  2.1829  0.5384 -0.6004
   79MOL0     H10651   2.733   7.028   7.370 -1.8072  1.4017  0.6723
   79MOL0     H10652   2.562   7.144   7.276 -1.7564  0.6345  1.1544
   79MOL0     H10653   2.443   7.211   7.067 -0.2001  1.2922  0.4843
   79MOL0     H10654   2.338   7.223   7.212 -1.3856  0.8088  0.0215
   79MOL0     H10655   2.271   7.188   6.921 -0.7059  0.4212 -0.2740
   79MOL0     H10656   2.260   7.337   7.016  2.7024 -0.3275 -0.4903
   79MOL0     H10657   2.035   7.276   7.053 -0.2195  0.3604 -0.2626
   79MOL0     H10658   2.114   7.170   7.177  3.1003 -0.0336 -0.9125
   79MOL0     H10659   2.087   7.074   6.891 -1.2503 -1.3065 -1.3273
   79MOL0     H10660   2.119   6.978   7.036 -0.0535 -1.8060 -2.9220
   79MOL0     H10661   1.697   7.015   7.022  0.4350  0.8745  0.8181
   79MOL0     H10662   2.373   6.777   7.148 -0.1431  0.0096  0.7640
   79MOL0     H10663   2.502   6.591   7.123  0.0300 -1.5392  0.6753
   79MOL0     H10664   2.672   6.599   7.175  0.6731  1.8955  1.8519
   79MOL0     H10665   2.545   6.549   7.290  2.2497  0.6258  1.0037
   80MOL0     O10666   6.128   1.371   6.860 -0.2682 -0.2229  0.2845
   80MOL0     C10667   6.069   1.427   6.772 -0.2056  0.9703 -1.5243
   80MOL0     O10668   5.998   1.368   6.672 -0.2762 -0.0169 -0.7731
   80MOL0     C10669   5.998   1.229   6.667 -1.4378 -0.4479 -0.0700
   80MOL0     C10670   5.877   1.162   6.644  0.2455  0.0364 -0.4962
   80MOL0     C10671   5.876   1.023   6.620  0.1552 -0.7120  0.4275
   80MOL0     C10672   5.995   0.947   6.617 -0.3790 -0.3440 -0.0917
   80MOL0     O10673   5.992   0.817   6.587 -0.2870  0.1550 -0.2018
   80MOL0     C10674   5.936   0.749   6.701  0.4098 -0.1971 -0.4119
   80MOL0     C10675   6.001   0.768   6.843  0.2618 -0.3283  0.9297
   80MOL0     C10676   6.154   0.725   6.836 -0.3885 -0.2422 -0.8051
   80MOL0     C10677   6.204   0.771   6.976 -0.1506  0.5679  0.2067
   80MOL0     C10678   6.346   0.817   6.972 -0.6727 -0.5725 -0.0040
   80MOL0     C10679   6.431   0.691   6.949  0.1983  0.0222  0.2034
   80MOL0     C10680   6.574   0.727   6.939 -0.1551 -0.7107 -0.3604
   80MOL0     C10681   6.659   0.590   6.931 -0.0165  0.1241  0.0367
   80MOL0     N10682   6.781   0.616   6.860  0.1612 -0.3412  0.2488
   80MOL0     C10683   6.794   0.672   6.735 -0.3754  0.7120 -0.9726
   80MOL0     C10684   6.924   0.689   6.713 -0.6799 -0.0975 -0.1522
   80MOL0     C10685   6.995   0.738   6.590 -0.3104  0.3555  0.4474
   80MOL0     C10686   6.958   0.888   6.558  0.0983 -0.2038  1.1758
   80MOL0     C10687   7.006   0.941   6.419 -0.0613  0.2003  0.1167
   80MOL0     C10688   7.148   0.955   6.415 -1.0310  0.4365  1.6046
   80MOL0     O10689   7.184   1.069   6.488  0.8583 -1.0211 -0.6063
   80MOL0     C10690   7.321   1.089   6.496  0.0463  0.2480 -0.9836
   80MOL0     C10691   7.411   1.004   6.562  0.5352  0.2215 -0.1200
   80MOL0     C10692   7.544   1.031   6.567 -0.8308  0.4061 -0.0313
   80MOL0     C10693   7.600   1.151   6.520  0.6170 -0.3236  0.2821
   80MOL0     C10694   7.744   1.185   6.518  0.6003 -0.5903  0.2423
   80MOL0     O10695   7.792   1.304   6.481  0.7684  0.0963  0.7140
   80MOL0     C10696   7.921   1.347   6.493  0.3810 -0.6669 -0.4657
   80MOL0     C10697   7.927   1.477   6.541 -0.0341 -0.3615 -0.4125
   80MOL0     C10698   8.047   1.544   6.553  0.2229 -0.1832 -0.4783
   80MOL0     C10699   8.167   1.481   6.510 -0.1781  0.6616 -0.0020
   80MOL0     O10700   8.279   1.554   6.491  0.4366  0.6473  0.2560
   80MOL0     C10701   8.371   1.530   6.383  0.2549  1.2159  0.0033
   80MOL0     C10702   8.432   1.675   6.374 -0.8774  0.4064 -0.1064
   80MOL0     C10703   8.576   1.676   6.300 -0.3201  0.5319  0.0281
   80MOL0     C10704   8.630   1.825   6.302  0.1634 -0.5648 -0.5626
   80MOL0     C10705   8.757   1.844   6.208  0.5515  0.3541 -0.0663
   80MOL0     C10706   8.886   1.879   6.282  0.1710 -0.7472 -0.4147
   80MOL0     C10707   9.012   1.876   6.189 -0.0634 -0.9068 -0.2060
   80MOL0     C10708   9.138   1.903   6.273 -0.1894 -0.4163 -0.5652
   80MOL0    Cl10709   9.276   1.871   6.168 -0.1213  0.6676  0.0153
   80MOL0     C10710   8.153   1.350   6.474  0.1874 -0.3786  0.6748
   80MOL0     C10711   8.038   1.277   6.467 -0.8476 -0.7106  0.1194
   80MOL0     O10712   7.815   1.093   6.556  0.3166 -0.4980 -0.4661
   80MOL0     C10713   7.511   1.232   6.451 -0.1468 -0.0332  0.4291
   80MOL0     C10714   7.376   1.196   6.432  0.4211  0.4978  0.2116
   80MOL0     N10715   6.992   0.646   6.825 -0.5137 -0.1209  0.0905
   80MOL0     N10716   6.904   0.601   6.912 -0.3267  0.3422 -0.2140
   80MOL0     C10717   6.112   1.015   6.627  0.1389  0.5796 -0.6136
   80MOL0     C10718   6.120   1.154   6.657 -0.1494  0.0402  0.1729
   80MOL0     C10719   6.057   1.576   6.779 -0.0300  0.2185 -0.7758
   80MOL0     C10720   5.930   1.628   6.745  0.4152 -1.2460 -0.4705
   80MOL0     C10721   5.910   1.769   6.740  0.8351  0.2503 -0.5827
   80MOL0     C10722   6.015   1.858   6.771  0.5562 -0.0332  0.2837
   80MOL0     O10723   6.004   1.994   6.766 -0.3682 -0.0766 -0.4575
   80MOL0     C10724   6.035   2.059   6.889 -0.0999  0.2548  0.8430
   80MOL0     C10725   5.944   2.180   6.901  0.4359 -0.4925 -0.0998
   80MOL0     C10726   5.931   2.231   7.043 -0.7755  0.2393 -0.2913
   80MOL0     C10727   5.822   2.341   7.049  0.1441  0.7150  0.0291
   80MOL0     C10728   5.803   2.385   7.187 -0.0170  0.3455  0.6524
   80MOL0     C10729   5.778   2.415   7.304  0.0118 -0.3131  0.2925
   80MOL0     C10730   6.145   1.800   6.805 -0.8909 -0.3880  0.3321
   80MOL0     C10731   6.168   1.666   6.825  0.5466 -0.7592 -0.2325
   80MOL0     C10732   6.309   1.625   6.865  0.2426 -0.0814  0.4901
   80MOL0     H10733   5.785   1.219   6.647  0.1561 -0.1296  0.0489
   80MOL0     H10734   5.782   0.973   6.596 -0.1208 -0.9770  1.9929
   80MOL0     H10735   5.828   0.766   6.703  0.3524 -0.5956  0.7041
   80MOL0     H10736   5.953   0.641   6.693  0.0567 -0.2959  0.0804
   80MOL0     H10737   5.947   0.711   6.919 -1.3468  0.5553  0.5017
   80MOL0     H10738   6.011   0.876   6.860  4.0304 -0.2074 -1.0750
   80MOL0     H10739   6.208   0.782   6.760  1.2178 -1.3272 -0.5254
   80MOL0     H10740   6.170   0.620   6.811  0.7456 -0.4439  0.6582
   80MOL0     H10741   6.141   0.839   7.034 -1.2004 -0.0545 -0.1818
   80MOL0     H10742   6.207   0.677   7.032 -0.2697  0.1538 -0.4686
   80MOL0     H10743   6.366   0.891   6.894 -0.2867  0.7283  1.2925
   80MOL0     H10744   6.372   0.858   7.070 -2.3508 -2.2215  1.2163
   80MOL0     H10745   6.412   0.625   7.034 -2.9760 -0.2672 -0.6024
   80MOL0     H10746   6.395   0.642   6.858 -0.1667 -0.3509  0.5455
   80MOL0     H10747   6.602   0.800   7.014  0.9609 -2.0325  0.5647
   80MOL0     H10748   6.596   0.778   6.845 -0.3470  0.5994  0.2889
   80MOL0     H10749   6.689   0.551   7.028 -0.6421  0.3692  0.3318
   80MOL0     H10750   6.596   0.511   6.888  0.8781 -1.5772  1.6873
   80MOL0     H10751   6.721   0.682   6.655 -0.8484 -1.9523 -0.9610
   80MOL0     H10752   7.104   0.737   6.601 -0.3463 -1.9900  1.1065
   80MOL0     H10753   6.975   0.677   6.501 -0.2350  1.3680 -0.2779
   80MOL0     H10754   6.849   0.885   6.557  0.1102 -2.6473 -0.8143
   80MOL0     H10755   6.997   0.953   6.638 -1.6561  0.0647  1.8580
   80MOL0     H10756   6.962   1.037   6.392  0.1960  0.1831 -0.3804
   80MOL0     H10757   6.975   0.868   6.343 -2.4807 -0.0177  1.2071
   80MOL0     H10758   7.181   0.977   6.313 -0.2215 -0.0837  1.7438
   80MOL0     H10759   7.207   0.869   6.448 -0.9767 -0.3689 -0.4636
   80MOL0     H10760   7.367   0.918   6.611  2.1988 -0.4247  0.3354
   80MOL0     H10761   7.614   0.964   6.616  2.2111  1.7678 -2.2005
   80MOL0     H10762   7.834   1.533   6.550  0.2582  0.2259 -0.9522
   80MOL0     H10763   8.050   1.650   6.579  0.3341 -0.2522 -0.2055
   80MOL0     H10764   8.448   1.459   6.414  0.7302  2.3944  1.6712
   80MOL0     H10765   8.327   1.508   6.286  1.4029  3.1670 -1.0374
   80MOL0     H10766   8.363   1.754   6.343 -0.7674  0.1701 -1.0075
   80MOL0     H10767   8.452   1.707   6.476 -3.4136 -0.0310  0.5877
   80MOL0     H10768   8.654   1.615   6.348  4.1682  3.4432 -2.7866
   80MOL0     H10769   8.569   1.635   6.199 -1.2477 -0.5365  0.5051
   80MOL0     H10770   8.661   1.864   6.399  0.2524  1.6390 -1.4171
   80MOL0     H10771   8.556   1.895   6.261  0.9461  0.7828  0.2403
   80MOL0     H10772   8.733   1.926   6.139  2.4784  0.6471 -0.4253
   80MOL0     H10773   8.773   1.750   6.156  1.9971 -0.0864  1.0904
   80MOL0     H10774   8.882   1.982   6.317 -1.4075  0.0326 -2.6593
   80MOL0     H10775   8.908   1.813   6.366  0.2529 -0.9980 -0.6312
   80MOL0     H10776   9.005   1.951   6.109 -0.0853  1.4815  1.8918
   80MOL0     H10777   9.030   1.778   6.146  1.5521 -1.1269  0.8688
   80MOL0     H10778   9.146   2.005   6.311 -0.9116 -0.6171  0.1567
   80MOL0     H10779   9.146   1.846   6.366  4.1078  1.1516  0.2385
   80MOL0     H10780   8.250   1.306   6.450 -0.0638 -0.6716  0.1825
   80MOL0     H10781   8.043   1.174   6.433  1.2554 -1.0846  1.4186
   80MOL0     H10782   7.548   1.320   6.399 -1.0162  1.5363  2.3352
   80MOL0     H10783   7.313   1.254   6.365  1.2859 -0.3922 -1.4505
   80MOL0     H10784   6.209   0.967   6.616  0.4875  1.5868 -2.3574
   80MOL0     H10785   6.216   1.202   6.670 -0.7991  1.4281 -0.0013
   80MOL0     H10786   5.842   1.575   6.712  0.0306 -2.2094  1.8755
   80MOL0     H10787   5.817   1.814   6.704  0.0128 -0.7813  0.1753
   80MOL0     H10788   6.136   2.099   6.892 -0.1597  1.1413 -3.2593
   80MOL0     H10789   6.026   1.991   6.974 -1.1286 -2.5913 -1.3786
   80MOL0     H10790   5.843   2.148   6.874  0.3986  1.0741 -2.0262
   80MOL0     H10791   5.973   2.252   6.824  0.6737 -0.4571  0.0204
   80MOL0     H10792   6.028   2.274   7.069 -0.4223  1.1802 -2.8648
   80MOL0     H10793   5.912   2.155   7.119 -2.0734  0.7392 -0.1007
   80MOL0     H10794   5.850   2.422   6.981 -2.2407  3.2443  1.8533
   80MOL0     H10795   5.728   2.297   7.015 -0.9156  0.2249  3.2238
   80MOL0     H10796   5.739   2.444   7.400  0.9866  1.1598  0.2823
   80MOL0     H10797   6.234   1.862   6.807  1.8237 -3.7957 -2.2694
   80MOL0     H10798   6.302   1.537   6.930  1.6111 -2.2416 -2.0654
   80MOL0     H10799   6.357   1.580   6.777  1.0306 -1.8187  1.7529
   80MOL0     H10800   6.367   1.703   6.915  1.1008 -1.6382  2.0292
   81MOL0     O10801   9.836  11.228  11.252  0.6578 -0.2890 -0.0178
   81MOL0     C10802   9.754  11.206  11.340 -0.7632 -0.6281  0.1058
   81MOL0     O10803   9.761  11.106  11.426  0.0495  0.8797  0.7240
   81MOL0     C10804   9.863  11.013  11.404  0.7164  0.0579  0.7220
   81MOL0     C10805   9.839  10.902  11.346  0.4240 -0.8751  0.2394
   81MOL0     C10806   9.948  10.814  11.319  0.8207 -0.1493 -0.6863
   81MOL0     C10807  10.078  10.842  11.344 -0.3785  0.0160 -0.7473
   81MOL0     O10808  10.173  10.739  11.315  0.3460 -0.3331 -0.2937
   81MOL0     C10809  10.241  10.689  11.428  0.1061 -0.4987  1.0146
   81MOL0     C10810  10.388  10.677  11.398 -0.8003  0.2681 -0.8133
   81MOL0     C10811  10.425  10.593  11.272  0.9961 -0.1017  1.1550
   81MOL0     C10812  10.363  10.451  11.264 -0.3872 -0.1160 -0.5811
   81MOL0     C10813  10.396  10.356  11.388 -0.4537 -0.5508  0.1262
   81MOL0     C10814  10.545  10.345  11.425 -0.9783 -0.1260 -0.9302
   81MOL0     C10815  10.641  10.285  11.321  0.3425 -0.2460 -0.6947
   81MOL0     C10816  10.789  10.332  11.351  0.2103 -0.0088 -0.1630
   81MOL0     N10817  10.814  10.477  11.314  0.7005  0.1889 -0.1555
   81MOL0     C10818  10.830  10.536  11.191 -0.1798  0.3047  0.2407
   81MOL0     C10819  10.854  10.670  11.218  0.0424 -0.1871 -0.2708
   81MOL0     C10820  10.888  10.777  11.120 -0.5725 -0.3218 -0.3507
   81MOL0     C10821  11.028  10.793  11.069 -0.3546  0.0334  0.6779
   81MOL0     C10822  11.036  10.703  10.937 -0.4010 -0.2384 -0.0794
   81MOL0     C10823  11.165  10.722  10.851 -0.1033 -0.9792 -0.5654
   81MOL0     O10824  11.277  10.708  10.943 -0.9625  0.1078 -0.3327
   81MOL0     C10825  11.406  10.742  10.903  0.4030 -0.1087  0.4328
   81MOL0     C10826  11.436  10.801  10.773  0.2453 -1.0726 -0.7514
   81MOL0     C10827  11.577  10.820  10.739  0.8212  0.6976 -0.2435
   81MOL0     C10828  11.673  10.797  10.835  0.1394  0.1765 -1.2069
   81MOL0     C10829  11.812  10.786  10.792 -1.3235 -0.4170  0.0945
   81MOL0     O10830  11.901  10.761  10.893 -0.9574 -0.1862  0.4959
   81MOL0     C10831  12.038  10.752  10.878  0.5831  0.2459 -0.7459
   81MOL0     C10832  12.092  10.664  10.980 -0.3602  0.7827  1.1427
   81MOL0     C10833  12.228  10.644  10.989  0.4695  0.3951  0.4119
   81MOL0     C10834  12.314  10.707  10.902 -0.2135  0.2473 -0.1040
   81MOL0     O10835  12.447  10.687  10.917 -0.3521 -0.4066 -0.0406
   81MOL0     C10836  12.519  10.800  10.961  0.4958  0.3533 -0.2251
   81MOL0     C10837  12.674  10.791  10.943  0.8953  1.6838 -1.1112
   81MOL0     C10838  12.738  10.713  11.061 -0.6188  0.6224 -0.1329
   81MOL0     C10839  12.889  10.725  11.059  0.0982 -0.9410 -0.0100
   81MOL0     C10840  12.959  10.620  11.146 -0.9051 -0.1380  0.2179
   81MOL0     C10841  13.110  10.640  11.131  0.2318  0.5385 -0.4607
   81MOL0     C10842  13.188  10.536  11.217 -0.0257  0.0502  0.4278
   81MOL0     C10843  13.333  10.544  11.168  0.3390 -0.2169 -0.5330
   81MOL0    Cl10844  13.399  10.393  11.226 -0.2368 -0.1610  0.1978
   81MOL0     C10845  12.255  10.775  10.785 -0.6207  0.4610 -1.1801
   81MOL0     C10846  12.121  10.806  10.782 -0.6814  0.1939  0.2376
   81MOL0     O10847  11.841  10.801  10.676 -0.0839  0.6302  0.8896
   81MOL0     C10848  11.644  10.767  10.966  0.4269 -0.3159 -0.0779
   81MOL0     C10849  11.506  10.732  10.997 -0.7309 -0.4363 -0.9117
   81MOL0     N10850  10.872  10.686  11.350 -0.6267 -0.0840  0.3825
   81MOL0     N10851  10.827  10.572  11.409 -0.2308 -0.9526 -0.0892
   81MOL0     C10852  10.107  10.965  11.395 -0.1562 -0.3552  0.2791
   81MOL0     C10853   9.997  11.050  11.421 -0.3684 -0.0565  0.4874
   81MOL0     C10854   9.669  11.320  11.379  0.1304 -0.9165 -0.5993
   81MOL0     C10855   9.657  11.354  11.514  0.4271  0.2308  0.3104
   81MOL0     C10856   9.581  11.466  11.555 -0.4215 -0.0685 -0.5022
   81MOL0     C10857   9.509  11.527  11.453 -0.1530 -0.0789 -0.6376
   81MOL0     O10858   9.426  11.632  11.475 -0.0628  0.3091 -0.0217
   81MOL0     C10859   9.346  11.612  11.588 -0.9636  0.8254 -0.1101
   81MOL0     C10860   9.235  11.717  11.600 -0.0334 -0.2526 -0.0006
   81MOL0     C10861   9.256  11.848  11.516 -0.7065 -0.0222  1.1194
   81MOL0     C10862   9.134  11.937  11.511  0.3421 -0.0427  0.3712
   81MOL0     C10863   9.081  11.963  11.644  0.4364 -0.9572  0.0382
   81MOL0     C10864   9.052  11.983  11.757  0.5348  1.1929 -0.5968
   81MOL0     C10865   9.533  11.512  11.319 -0.1567  0.4565 -0.0814
   81MOL0     C10866   9.617  11.404  11.283 -0.7904  0.1880  0.6325
   81MOL0     C10867   9.639  11.384  11.134 -0.5685 -0.2802 -0.3159
   81MOL0     H10868   9.737  10.873  11.322 -0.0061  0.3354  0.4950
   81MOL0     H10869   9.923  10.714  11.285 -0.1753 -0.5253  1.0272
   81MOL0     H10870  10.226  10.753  11.515 -1.7062  0.4890  0.0249
   81MOL0     H10871  10.195  10.594  11.456 -3.7222  1.5680  2.4086
   81MOL0     H10872  10.433  10.640  11.490 -2.1394 -1.3872 -0.7840
   81MOL0     H10873  10.421  10.780  11.378 -0.1639  0.3735  0.6094
   81MOL0     H10874  10.530  10.607  11.248  0.3511 -0.4781 -2.3884
   81MOL0     H10875  10.374  10.641  11.188  1.6848 -0.2495  0.6431
   81MOL0     H10876  10.257  10.447  11.238 -1.2256 -1.3263  2.6368
   81MOL0     H10877  10.410  10.398  11.180 -1.5897 -0.3901 -1.1031
   81MOL0     H10878  10.345  10.393  11.477 -0.4865  0.3633 -0.2650
   81MOL0     H10879  10.350  10.260  11.363 -1.5540 -0.1451  0.5548
   81MOL0     H10880  10.576  10.443  11.460 -1.5190 -0.8925  1.9741
   81MOL0     H10881  10.545  10.291  11.520 -1.2163  0.3721 -0.6408
   81MOL0     H10882  10.607  10.313  11.220  1.5708  2.4520 -0.4454
   81MOL0     H10883  10.643  10.176  11.320  0.7103 -0.2474 -0.0002
   81MOL0     H10884  10.802  10.316  11.458 -0.3794 -1.0952 -0.2353
   81MOL0     H10885  10.855  10.275  11.285 -2.2462 -2.3015 -0.7952
   81MOL0     H10886  10.831  10.491  11.092  0.1572  2.2670 -0.7079
   81MOL0     H10887  10.816  10.777  11.037  0.2520 -2.3707 -1.1284
   81MOL0     H10888  10.900  10.877  11.163  2.3985 -1.9422  3.1265
   81MOL0     H10889  11.049  10.895  11.033 -2.9000  0.5459  0.5051
   81MOL0     H10890  11.109  10.765  11.137  2.2176 -0.4066 -2.2943
   81MOL0     H10891  10.947  10.725  10.878  0.4229 -0.3918 -1.4113
   81MOL0     H10892  11.037  10.599  10.968  3.4254 -1.0736 -2.3333
   81MOL0     H10893  11.152  10.820  10.803 -2.0480 -1.2457 -0.6747
   81MOL0     H10894  11.185  10.643  10.778  4.4747 -1.2344  0.6264
   81MOL0     H10895  11.362  10.808  10.694  0.3566 -3.1549 -1.1107
   81MOL0     H10896  11.599  10.839  10.635  1.1301 -0.2758 -0.3701
   81MOL0     H10897  12.026  10.636  11.062 -1.3761  3.9738  1.5609
   81MOL0     H10898  12.286  10.582  11.057  0.2791  0.6922  0.8414
   81MOL0     H10899  12.485  10.887  10.904 -0.7819  0.1776  0.2240
   81MOL0     H10900  12.496  10.817  11.066 -0.3509  3.7576 -0.8629
   81MOL0     H10901  12.694  10.745  10.846  0.6301 -0.1314 -0.3572
   81MOL0     H10902  12.701  10.896  10.953 -1.8225  2.3400  0.1438
   81MOL0     H10903  12.694  10.746  11.156  0.6740  3.0709 -0.2837
   81MOL0     H10904  12.714  10.607  11.052  0.4415  0.4532 -1.1861
   81MOL0     H10905  12.914  10.827  11.089 -1.0594 -0.7948  0.5416
   81MOL0     H10906  12.921  10.708  10.956 -0.5727  0.7737 -0.5382
   81MOL0     H10907  12.931  10.518  11.118 -0.4104  0.0624 -1.0880
   81MOL0     H10908  12.928  10.643  11.248  1.0622  3.7026  0.1130
   81MOL0     H10909  13.140  10.638  11.026 -0.4641  0.6433 -0.6612
   81MOL0     H10910  13.136  10.740  11.168 -2.7869  0.5715  1.9512
   81MOL0     H10911  13.147  10.435  11.207  0.5587 -0.1770  0.3356
   81MOL0     H10912  13.171  10.582  11.316  1.0159 -0.6597  0.9531
   81MOL0     H10913  13.330  10.561  11.060  0.3556  2.3027 -0.2000
   81MOL0     H10914  13.386  10.625  11.219 -1.7922  0.2174  1.1698
   81MOL0     H10915  12.332  10.821  10.724  1.2774  2.4080  2.3587
   81MOL0     H10916  12.090  10.865  10.696 -2.4480  1.5487  1.7358
   81MOL0     H10917  11.720  10.747  11.041 -2.8717 -1.6319  3.2777
   81MOL0     H10918  11.485  10.700  11.098  2.0786 -0.8540 -0.3903
   81MOL0     H10919  10.212  10.990  11.410  0.3564 -2.3247  0.3123
   81MOL0     H10920  10.021  11.154  11.438  1.5688 -0.3197 -0.3324
   81MOL0     H10921   9.705  11.294  11.591  0.8937 -2.2223 -1.7756
   81MOL0     H10922   9.571  11.493  11.659 -0.8851 -3.5858  0.5001
   81MOL0     H10923   9.409  11.619  11.678 -0.6728 -0.2410 -0.2190
   81MOL0     H10924   9.298  11.514  11.582 -0.2214  0.1224  3.2223
   81MOL0     H10925   9.231  11.749  11.705  1.3304  0.0697 -0.0344
   81MOL0     H10926   9.138  11.673  11.574  0.5662 -0.1015 -2.7959
   81MOL0     H10927   9.276  11.823  11.412  2.9289  3.5264  0.7179
   81MOL0     H10928   9.342  11.911  11.540  0.2638 -1.0811  0.5510
   81MOL0     H10929   9.149  12.036  11.467 -3.3378  0.0459 -1.0065
   81MOL0     H10930   9.049  11.892  11.459 -1.0307  0.0841  2.3882
   81MOL0     H10931   9.012  12.001  11.855  0.3236  1.0272 -0.6517
   81MOL0     H10932   9.475  11.561  11.241  0.7895  0.3242 -0.8831
   81MOL0     H10933   9.568  11.440  11.073  0.6601 -0.4806 -1.9943
   81MOL0     H10934   9.738  11.421  11.106 -0.9476  1.6291  0.6555
   81MOL0     H10935   9.616  11.282  11.103 -2.5923  0.8714 -3.0409
   82MOL0     O10936   7.163   2.979  10.720  0.3201 -0.0161 -0.3252
   82MOL0     C10937   7.094   3.071  10.749 -0.0802 -0.5638 -1.1039
   82MOL0     O10938   7.101   3.136  10.875  0.2906 -0.0094  0.2300
   82MOL0     C10939   7.046   3.258  10.897 -0.5744 -1.1583  0.1348
   82MOL0     C10940   7.058   3.363  10.801 -0.7282 -1.1192 -0.3834
   82MOL0     C10941   7.028   3.495  10.829 -0.7407 -0.5233  0.6995
   82MOL0     C10942   6.976   3.525  10.955  0.1057 -0.4368 -0.1912
   82MOL0     O10943   6.948   3.653  10.977  0.2917 -0.0221 -0.2283
   82MOL0     C10944   6.925   3.703  11.110 -0.1009  0.4081 -0.7045
   82MOL0     C10945   7.044   3.767  11.167 -0.9575  0.0265 -0.3089
   82MOL0     C10946   7.066   3.891  11.082 -0.2603  0.6178  0.6102
   82MOL0     C10947   7.079   4.021  11.167 -0.3488  0.5532 -0.6115
   82MOL0     C10948   7.089   4.149  11.081  0.4637  0.2416 -0.0003
   82MOL0     C10949   6.956   4.197  11.019  0.6352  0.1097  0.2384
   82MOL0     C10950   6.984   4.335  10.958 -0.3777 -0.0500  0.5501
   82MOL0     C10951   7.048   4.322  10.819  0.7579 -0.6790  0.2896
   82MOL0     N10952   7.075   4.453  10.756  0.2862 -0.2978  0.0240
   82MOL0     C10953   6.979   4.536  10.703 -0.5727 -0.0228  0.1214
   82MOL0     C10954   7.030   4.659  10.704 -0.4444 -0.5789 -0.3599
   82MOL0     C10955   6.957   4.785  10.672  0.4920 -0.0663  0.2836
   82MOL0     C10956   7.027   4.851  10.556  0.0662 -0.2927  0.1543
   82MOL0     C10957   7.104   4.976  10.588  0.1813 -0.2184 -0.7025
   82MOL0     C10958   7.219   4.945  10.671 -0.6183  0.0239 -0.6293
   82MOL0     O10959   7.289   5.065  10.720  0.5301  0.0388  0.0956
   82MOL0     C10960   7.416   5.058  10.773 -0.4277  0.3398 -0.6005
   82MOL0     C10961   7.482   5.178  10.794  0.4990  0.1158  0.0735
   82MOL0     C10962   7.625   5.172  10.817 -0.3553  0.6019  0.2537
   82MOL0     C10963   7.687   5.048  10.847 -0.1495  0.6354 -0.5472
   82MOL0     C10964   7.831   5.035  10.888 -0.2076 -0.2391 -1.0801
   82MOL0     O10965   7.899   5.149  10.864 -0.0967 -0.2168  0.8549
   82MOL0     C10966   8.026   5.164  10.916  0.0759 -0.0242 -0.1701
   82MOL0     C10967   8.033   5.251  11.027  0.0950  0.3063  1.1947
   82MOL0     C10968   8.164   5.295  11.071 -0.0329  0.0888 -0.2535
   82MOL0     C10969   8.284   5.248  11.011  0.7707  1.4323  0.5840
   82MOL0     O10970   8.416   5.253  11.060 -0.1231 -0.3413  0.3128
   82MOL0     C10971   8.447   5.376  11.139 -0.3376 -0.3731  0.9306
   82MOL0     C10972   8.472   5.347  11.288 -0.3045  0.2546 -1.1311
   82MOL0     C10973   8.582   5.238  11.305  0.4917 -0.1239 -0.2437
   82MOL0     C10974   8.612   5.209  11.454 -0.3782  0.1729 -0.3013
   82MOL0     C10975   8.769   5.215  11.482 -0.0696  0.4825  0.9904
   82MOL0     C10976   8.803   5.206  11.632  1.1375  0.4187 -0.2567
   82MOL0     C10977   8.950   5.230  11.662 -0.2350 -0.0106 -1.7230
   82MOL0     C10978   9.033   5.113  11.706 -1.1337 -1.1320 -0.2242
   82MOL0    Cl10979   9.205   5.161  11.754 -0.1053 -0.0678  0.6119
   82MOL0     C10980   8.267   5.156  10.904 -0.2107 -0.6841  0.0750
   82MOL0     C10981   8.142   5.117  10.872 -0.3890 -0.7223  0.3313
   82MOL0     O10982   7.882   4.934  10.922  0.0330  1.2078 -0.6058
   82MOL0     C10983   7.608   4.933  10.853 -0.1463 -0.5334  0.6213
   82MOL0     C10984   7.477   4.935  10.808  0.7205 -0.4050 -0.8485
   82MOL0     N10985   7.152   4.650  10.764 -0.4318  1.0265 -0.9698
   82MOL0     N10986   7.184   4.526  10.778 -0.4045  0.1049  0.1580
   82MOL0     C10987   6.942   3.416  11.036  0.0090  0.5317  0.2334
   82MOL0     C10988   6.982   3.287  11.011  0.6493  0.5314  0.4274
   82MOL0     C10989   6.980   3.084  10.664  0.4031 -0.2612  0.4484
   82MOL0     C10990   6.844   3.094  10.712 -1.3202  0.4830 -0.4273
   82MOL0     C10991   6.744   3.123  10.618  0.1498 -0.6207 -0.0669
   82MOL0     C10992   6.769   3.136  10.482 -0.2662  1.0347  0.6880
   82MOL0     O10993   6.678   3.163  10.382 -0.3051  0.0949 -0.1481
   82MOL0     C10994   6.544   3.213  10.413  0.2952 -0.0835 -0.4081
   82MOL0     C10995   6.557   3.345  10.480  0.3756 -0.4873 -0.2949
   82MOL0     C10996   6.601   3.459  10.381 -0.1069 -0.3692 -0.2346
   82MOL0     C10997   6.684   3.573  10.441  0.9406  0.6339  0.1892
   82MOL0     C10998   6.823   3.534  10.462 -0.8109  0.1056  0.3171
   82MOL0     C10999   6.924   3.472  10.461 -0.1297 -0.2876  0.6947
   82MOL0     C11000   6.904   3.120  10.444 -0.5458 -0.1251 -0.3870
   82MOL0     C11001   7.007   3.093  10.526  0.0809  0.8791 -0.6611
   82MOL0     C11002   7.153   3.106  10.460  0.8443 -0.1853  0.1432
   82MOL0     H11003   7.119   3.343  10.714 -2.6611 -0.0458 -2.0688
   82MOL0     H11004   7.049   3.577  10.761  0.0384  0.9358  2.5997
   82MOL0     H11005   6.845   3.775  11.127 -1.4558 -1.4357  1.2278
   82MOL0     H11006   6.899   3.626  11.183  0.8148  0.8577  0.1258
   82MOL0     H11007   7.129   3.700  11.148 -1.8704 -0.8969 -1.2264
   82MOL0     H11008   7.053   3.798  11.272 -0.3189  4.0420 -1.3670
   82MOL0     H11009   6.989   3.910  11.007  0.0154  0.8724  0.3881
   82MOL0     H11010   7.157   3.873  11.024 -1.1914  1.5986 -1.2272
   82MOL0     H11011   6.991   4.024  11.232 -0.3635 -0.9663 -0.5266
   82MOL0     H11012   7.170   4.009  11.227  0.6153 -0.0864 -2.1490
   82MOL0     H11013   7.128   4.232  11.142 -1.5942  1.6209 -0.4673
   82MOL0     H11014   7.158   4.132  10.997 -0.1704 -0.9215 -0.3054
   82MOL0     H11015   6.919   4.140  10.933  1.4245  3.0498 -2.2110
   82MOL0     H11016   6.888   4.213  11.103 -0.6614  1.5752 -1.0225
   82MOL0     H11017   7.034   4.406  11.024  1.1492  0.4307 -1.0392
   82MOL0     H11018   6.887   4.384  10.947 -0.8662 -0.3704  2.9798
   82MOL0     H11019   7.139   4.262  10.831  0.3465 -1.1718  0.9811
   82MOL0     H11020   6.978   4.278  10.747 -0.0809  0.5969  0.3129
   82MOL0     H11021   6.887   4.503  10.655 -0.7118  0.0994  0.2975
   82MOL0     H11022   6.859   4.757  10.630  0.5849 -0.6211  0.4271
   82MOL0     H11023   6.943   4.838  10.766 -1.6476 -2.7004  1.5862
   82MOL0     H11024   7.088   4.778  10.502 -1.1174  0.1972 -1.9497
   82MOL0     H11025   6.940   4.870  10.493  0.3323 -0.5766 -0.3086
   82MOL0     H11026   7.046   5.057  10.633 -0.2842 -0.3805 -1.0031
   82MOL0     H11027   7.138   5.018  10.492 -1.6972 -0.1803 -1.3971
   82MOL0     H11028   7.288   4.876  10.623  0.9048 -0.7688  2.4228
   82MOL0     H11029   7.180   4.901  10.763  0.4499  0.5328  0.0962
   82MOL0     H11030   7.418   5.264  10.775  1.2526  0.9780  1.2773
   82MOL0     H11031   7.687   5.260  10.830  0.2345 -0.0257  2.0973
   82MOL0     H11032   7.943   5.299  11.063  0.2821  0.8328  0.9798
   82MOL0     H11033   8.166   5.373  11.146 -1.3661 -0.1816  0.0809
   82MOL0     H11034   8.545   5.405  11.100 -0.1862  1.1131  2.2765
   82MOL0     H11035   8.376   5.454  11.108  1.5412  0.3272 -1.9704
   82MOL0     H11036   8.497   5.437  11.344 -0.2003 -0.2254 -0.3859
   82MOL0     H11037   8.381   5.307  11.333 -0.0694 -0.9030 -1.6318
   82MOL0     H11038   8.549   5.149  11.251 -1.9555 -0.4797  1.6595
   82MOL0     H11039   8.670   5.288  11.264  0.2995  0.4766  0.0574
   82MOL0     H11040   8.579   5.108  11.482 -0.7645  1.4275  4.7052
   82MOL0     H11041   8.561   5.267  11.531  1.0243 -0.4847  1.1941
   82MOL0     H11042   8.821   5.293  11.425 -0.3698 -0.5143 -0.7178
   82MOL0     H11043   8.801   5.124  11.431 -0.2595  2.0174 -2.1045
   82MOL0     H11044   8.741   5.284  11.677 -0.6041 -0.6392 -0.7020
   82MOL0     H11045   8.766   5.107  11.663 -2.0404  0.4081 -3.4420
   82MOL0     H11046   8.960   5.306  11.741 -2.3597  0.4874 -1.8643
   82MOL0     H11047   9.000   5.289  11.585  1.2301  3.8159  1.7857
   82MOL0     H11048   8.984   5.061  11.789  0.2349  0.5249  1.7238
   82MOL0     H11049   9.037   5.044  11.621  2.2054  0.7651 -1.8025
   82MOL0     H11050   8.351   5.114  10.851 -0.1469  2.3840 -2.5137
   82MOL0     H11051   8.130   5.056  10.783 -1.0921  2.1099 -1.6283
   82MOL0     H11052   7.651   4.834  10.858 -1.0647 -1.0814 -1.3894
   82MOL0     H11053   7.425   4.841  10.793 -0.1679 -0.5381  2.4312
   82MOL0     H11054   6.879   3.441  11.121 -0.2909  3.0640 -0.6542
   82MOL0     H11055   6.956   3.204  11.076 -0.4942  0.5517  0.0151
   82MOL0     H11056   6.831   3.091  10.820 -0.6186 -0.0056 -0.3493
   82MOL0     H11057   6.641   3.144  10.647 -0.1285  0.8692 -1.9101
   82MOL0     H11058   6.481   3.143  10.468  0.0878  0.0162 -0.5180
   82MOL0     H11059   6.480   3.232  10.327 -1.9345  3.7349  1.8280
   82MOL0     H11060   6.620   3.344  10.570  0.9800  0.6077 -0.6813
   82MOL0     H11061   6.462   3.371  10.529 -0.6139 -2.1412 -1.2587
   82MOL0     H11062   6.512   3.505  10.337 -1.3052 -2.8038 -0.5335
   82MOL0     H11063   6.668   3.414  10.308 -1.5894 -1.5557 -0.9128
   82MOL0     H11064   6.672   3.666  10.384 -0.5443  0.3474  0.0037
   82MOL0     H11065   6.631   3.601  10.533 -1.5962 -0.7202 -0.7728
   82MOL0     H11066   7.011   3.409  10.472 -0.0023 -0.1995  0.1835
   82MOL0     H11067   6.936   3.125  10.341  1.3230  2.6001  0.2091
   82MOL0     H11068   7.217   3.020  10.480 -0.3198 -1.1452 -0.1219
   82MOL0     H11069   7.160   3.114  10.351  0.2743 -1.5399 -0.0102
   82MOL0     H11070   7.210   3.191  10.499 -0.7016 -0.4000  3.1048
   83MOL0     O11071   8.798   7.705   5.500  0.8367  0.2851  0.1369
   83MOL0     C11072   8.694   7.773   5.476 -0.6436  0.3290  0.0535
   83MOL0     O11073   8.692   7.911   5.494 -0.1918 -0.1718 -0.3181
   83MOL0     C11074   8.805   7.987   5.489  0.2724  0.1041 -0.1782
   83MOL0     C11075   8.917   7.964   5.404 -0.1379  0.4096 -0.1627
   83MOL0     C11076   9.013   8.060   5.385 -0.1830  0.6926  0.0744
   83MOL0     C11077   9.023   8.168   5.476 -0.4738  0.2355  0.0525
   83MOL0     O11078   9.135   8.250   5.490  0.0108  0.2546  0.2143
   83MOL0     C11079   9.239   8.247   5.394 -1.1005 -0.9072 -1.0110
   83MOL0     C11080   9.350   8.331   5.454 -0.6354 -0.8231  0.1338
   83MOL0     C11081   9.479   8.314   5.374 -0.3552 -0.3680 -0.6349
   83MOL0     C11082   9.605   8.403   5.418  0.7351  0.1869 -0.2776
   83MOL0     C11083   9.728   8.392   5.332  1.1111 -0.8520  0.5081
   83MOL0     C11084   9.827   8.496   5.380  0.1145 -0.1029 -0.3925
   83MOL0     C11085   9.964   8.484   5.310  0.0495  0.5724  0.4600
   83MOL0     C11086  10.043   8.605   5.354  0.3594  0.6927 -0.3833
   83MOL0     N11087  10.177   8.580   5.333  0.4730 -0.1917  0.0643
   83MOL0     C11088  10.250   8.486   5.406  0.1503 -0.2072 -0.7413
   83MOL0     C11089  10.366   8.488   5.344  0.3106 -0.3058 -0.1800
   83MOL0     C11090  10.484   8.412   5.400 -0.2121 -0.8217  0.3680
   83MOL0     C11091  10.587   8.412   5.287 -0.3038  0.4059 -1.2244
   83MOL0     C11092  10.716   8.344   5.330 -0.0878 -0.1553  0.0783
   83MOL0     C11093  10.820   8.345   5.221  0.2784  0.5163  0.0378
   83MOL0     O11094  10.765   8.297   5.094 -0.6036 -0.6554  0.2423
   83MOL0     C11095  10.828   8.329   4.970 -0.0229  0.0909 -0.1812
   83MOL0     C11096  10.762   8.309   4.852  0.1807 -0.1612 -0.5683
   83MOL0     C11097  10.814   8.341   4.729  0.1242 -0.3005 -0.4240
   83MOL0     C11098  10.943   8.398   4.720 -0.3763  0.2765  0.1276
   83MOL0     C11099  10.990   8.444   4.590 -1.1384  0.0314  0.2623
   83MOL0     O11100  11.127   8.449   4.576  0.7209  0.7008  0.2351
   83MOL0     C11101  11.189   8.524   4.486  0.6872 -0.5540 -0.7743
   83MOL0     C11102  11.160   8.544   4.351  0.4029  0.0064 -0.2435
   83MOL0     C11103  11.243   8.629   4.287  0.4339 -0.7763  0.3726
   83MOL0     C11104  11.356   8.694   4.337 -0.2573 -0.4372  0.4083
   83MOL0     O11105  11.419   8.794   4.262  0.3806 -0.3063 -0.1639
   83MOL0     C11106  11.489   8.898   4.333 -0.3724 -0.6354  0.3944
   83MOL0     C11107  11.474   9.040   4.259  0.4050 -0.1785  0.7801
   83MOL0     C11108  11.326   9.079   4.212  1.1615 -0.2434 -0.2435
   83MOL0     C11109  11.239   9.127   4.334 -0.4868  0.4151 -0.6355
   83MOL0     C11110  11.112   9.208   4.296 -0.2518 -1.0741  0.1446
   83MOL0     C11111  11.030   9.237   4.421  0.4471  0.1356 -1.0183
   83MOL0     C11112  10.901   9.302   4.396  1.1659 -0.4748  0.2302
   83MOL0     C11113  10.828   9.317   4.525 -0.0281 -0.4134 -0.3821
   83MOL0    Cl11114  10.907   9.407   4.654  0.0473  0.0529  0.1253
   83MOL0     C11115  11.391   8.655   4.469 -0.7455 -1.0379 -0.2741
   83MOL0     C11116  11.305   8.579   4.542  0.8839  0.1217 -0.4817
   83MOL0     O11117  10.912   8.464   4.496 -0.4587  0.2546 -0.3599
   83MOL0     C11118  11.016   8.411   4.838 -0.9422 -0.1606 -0.3456
   83MOL0     C11119  10.961   8.378   4.958  0.6450 -0.5160 -0.1081
   83MOL0     N11120  10.354   8.556   5.226 -0.2440 -0.0296  0.5027
   83MOL0     N11121  10.236   8.605   5.215  0.0491  1.1170  0.7438
   83MOL0     C11122   8.918   8.191   5.564 -0.2642 -0.3840  1.0257
   83MOL0     C11123   8.804   8.109   5.557  0.9548  0.6784 -0.2185
   83MOL0     C11124   8.569   7.720   5.405 -0.8282 -0.2662  0.0405
   83MOL0     C11125   8.483   7.809   5.356  0.2067 -0.6391  0.0137
   83MOL0     C11126   8.368   7.761   5.300  0.2947  0.9018  0.2978
   83MOL0     C11127   8.332   7.629   5.309  0.3808  0.8959 -0.9203
   83MOL0     O11128   8.219   7.568   5.254  0.1878  0.0048 -0.3318
   83MOL0     C11129   8.145   7.636   5.144  0.0972  0.7259 -0.3190
   83MOL0     C11130   8.031   7.540   5.100  0.1742 -0.8674 -0.1643
   83MOL0     C11131   7.966   7.587   4.971 -1.2998 -0.2791 -0.3355
   83MOL0     C11132   7.878   7.494   4.887  0.1338 -0.0331 -0.2854
   83MOL0     C11133   7.783   7.416   4.970  0.0364  0.2566 -0.6204
   83MOL0     C11134   7.710   7.344   5.038  0.0252 -0.0687  1.4255
   83MOL0     C11135   8.426   7.536   5.366 -0.0127  0.0888  0.5039
   83MOL0     C11136   8.548   7.576   5.407  0.5064  0.6415  0.0074
   83MOL0     C11137   8.635   7.476   5.481 -0.5149  0.4469  0.1882
   83MOL0     H11138   8.926   7.872   5.346  2.3448  0.4452  0.0380
   83MOL0     H11139   9.083   8.042   5.303 -0.7428  3.6709 -1.1857
   83MOL0     H11140   9.284   8.148   5.381 -1.3773 -1.0935 -0.5706
   83MOL0     H11141   9.209   8.298   5.302  0.4877  1.7006 -0.2093
   83MOL0     H11142   9.369   8.293   5.555 -1.4429  3.9587  2.3811
   83MOL0     H11143   9.321   8.432   5.482  1.6126  0.7600 -2.6915
   83MOL0     H11144   9.460   8.327   5.268 -2.1274  3.1191 -0.0236
   83MOL0     H11145   9.521   8.213   5.383  0.9106  0.1963  0.1404
   83MOL0     H11146   9.560   8.503   5.425 -0.3370 -0.3511  0.9311
   83MOL0     H11147   9.629   8.380   5.522 -0.6355  1.5728  0.3914
   83MOL0     H11148   9.772   8.293   5.345  0.2083 -1.0081  2.5999
   83MOL0     H11149   9.703   8.412   5.227 -0.0772  0.3448  0.9883
   83MOL0     H11150   9.784   8.595   5.364  0.4576  0.0899 -0.1169
   83MOL0     H11151   9.832   8.486   5.488 -2.1448  2.0944 -0.0007
   83MOL0     H11152   9.961   8.477   5.201  0.3918 -1.9667  0.5629
   83MOL0     H11153  10.002   8.386   5.337 -1.1715  0.3104  1.3130
   83MOL0     H11154  10.009   8.698   5.307  0.9484 -0.0096 -2.2868
   83MOL0     H11155  10.035   8.623   5.462  0.3637 -0.4070 -0.1939
   83MOL0     H11156  10.220   8.428   5.493 -2.2474 -1.1008 -2.0842
   83MOL0     H11157  10.511   8.474   5.485 -1.0763  0.5265 -0.3094
   83MOL0     H11158  10.464   8.312   5.440 -3.9801 -1.3081 -2.1558
   83MOL0     H11159  10.562   8.345   5.204 -0.7682  0.9381 -1.5171
   83MOL0     H11160  10.612   8.508   5.241  1.9330  0.4271 -0.1216
   83MOL0     H11161  10.694   8.239   5.349  0.5599 -0.1897  0.6392
   83MOL0     H11162  10.758   8.388   5.421  2.7070  1.5825 -1.8827
   83MOL0     H11163  10.908   8.288   5.253 -0.1367  0.2184  0.6777
   83MOL0     H11164  10.855   8.447   5.202  1.3635 -0.2410 -2.3594
   83MOL0     H11165  10.661   8.269   4.851  0.0724  0.1045 -1.3279
   83MOL0     H11166  10.750   8.328   4.643  0.5840 -0.1747 -0.7883
   83MOL0     H11167  11.074   8.493   4.307  1.3574 -2.9747  1.0799
   83MOL0     H11168  11.191   8.640   4.193 -0.4273 -2.8361  0.5491
   83MOL0     H11169  11.443   8.900   4.433 -2.7822  0.4468 -0.6619
   83MOL0     H11170  11.593   8.869   4.322 -0.4414 -0.1103 -2.0411
   83MOL0     H11171  11.515   9.118   4.324  1.1123 -0.0699  0.2034
   83MOL0     H11172  11.536   9.035   4.169 -0.5969  0.9480 -0.0117
   83MOL0     H11173  11.337   9.167   4.148  0.1044  0.2270  0.2040
   83MOL0     H11174  11.279   9.004   4.147  1.3740  0.7385 -1.5648
   83MOL0     H11175  11.301   9.198   4.388 -2.2546  0.8212  0.9732
   83MOL0     H11176  11.209   9.049   4.404 -2.7821  1.0040 -0.8817
   83MOL0     H11177  11.050   9.149   4.228 -1.2629  0.5971 -0.4473
   83MOL0     H11178  11.133   9.299   4.238 -0.0235  0.6803  2.8026
   83MOL0     H11179  11.006   9.144   4.474  1.5015  0.5073  0.1767
   83MOL0     H11180  11.090   9.301   4.487  3.9030 -2.4885 -1.3051
   83MOL0     H11181  10.841   9.245   4.324 -0.5431  1.4706  0.0299
   83MOL0     H11182  10.927   9.399   4.353  2.3509 -1.9467 -2.6614
   83MOL0     H11183  10.735   9.374   4.517 -0.1647  0.2605  3.6432
   83MOL0     H11184  10.808   9.215   4.559 -0.3401  0.1969  1.3983
   83MOL0     H11185  11.482   8.691   4.517  0.4647 -0.8304 -2.5920
   83MOL0     H11186  11.321   8.542   4.643  0.5042  1.7845  0.2288
   83MOL0     H11187  11.104   8.473   4.823 -0.8944  0.3444  1.7485
   83MOL0     H11188  11.023   8.395   5.046 -0.3868  2.9726  0.0916
   83MOL0     H11189   8.916   8.279   5.628 -4.4734 -0.4743  1.2913
   83MOL0     H11190   8.715   8.140   5.611 -0.3392 -1.5151 -0.9620
   83MOL0     H11191   8.498   7.917   5.358 -0.0435 -0.6067  0.2419
   83MOL0     H11192   8.300   7.830   5.250 -2.5401 -0.4507  2.0373
   83MOL0     H11193   8.208   7.650   5.056 -0.5274 -0.4717 -1.0020
   83MOL0     H11194   8.099   7.731   5.174  1.2425  1.5433 -1.0857
   83MOL0     H11195   7.957   7.529   5.179  0.3914  1.3895  0.3985
   83MOL0     H11196   8.077   7.441   5.088  0.0465 -1.0645  0.9318
   83MOL0     H11197   8.047   7.626   4.908 -0.8253 -2.0223 -0.8615
   83MOL0     H11198   7.905   7.673   5.000  0.1582  1.4982 -2.2094
   83MOL0     H11199   7.825   7.554   4.813 -1.5394  0.0263  0.9172
   83MOL0     H11200   7.941   7.427   4.828  1.8534  0.8383  0.4822
   83MOL0     H11201   7.645   7.290   5.104 -3.5090  2.3718  0.2372
   83MOL0     H11202   8.395   7.432   5.369 -3.1315  0.7204 -2.9935
   83MOL0     H11203   8.586   7.386   5.520 -1.8723  0.6832 -0.8831
   83MOL0     H11204   8.714   7.443   5.413 -0.8334 -0.7545  0.3725
   83MOL0     H11205   8.694   7.511   5.567  0.7701 -0.8562 -0.1177
   84MOL0     O11206  10.521   8.914   1.229  0.0730 -0.8178 -0.1550
   84MOL0     C11207  10.436   8.945   1.313  0.0856 -0.2409  0.7825
   84MOL0     O11208  10.457   8.988   1.436 -0.1086  0.4847  0.0732
   84MOL0     C11209  10.575   8.977   1.506  0.3778 -0.3637  1.9907
   84MOL0     C11210  10.676   8.896   1.485 -0.6043  0.0267  1.3155
   84MOL0     C11211  10.794   8.888   1.567  0.1294  0.0169  0.0048
   84MOL0     C11212  10.800   8.957   1.687 -0.0537  0.0059 -0.2390
   84MOL0     O11213  10.913   8.945   1.764 -0.0188  0.0860 -0.1873
   84MOL0     C11214  10.924   9.034   1.880 -0.0442 -0.8266  0.3013
   84MOL0     C11215  11.047   9.008   1.965 -0.6529 -0.2791 -0.2256
   84MOL0     C11216  11.182   9.000   1.883  0.4082 -0.3913 -0.3114
   84MOL0     C11217  11.287   8.925   1.962  0.4396  0.0187 -0.8404
   84MOL0     C11218  11.420   8.984   1.934 -0.5476  0.6518  0.1436
   84MOL0     C11219  11.470   8.972   1.783  1.1279 -0.4746 -0.0554
   84MOL0     C11220  11.606   9.057   1.771  0.3828 -0.1920  0.5970
   84MOL0     C11221  11.667   9.068   1.631 -0.2395  0.9160 -0.2619
   84MOL0     N11222  11.807   9.115   1.621  0.1899 -0.4076  0.0152
   84MOL0     C11223  11.846   9.248   1.637 -0.1148 -0.9300  0.0731
   84MOL0     C11224  11.978   9.249   1.661  0.2574 -0.0351 -0.2692
   84MOL0     C11225  12.062   9.367   1.701 -0.3629 -0.6490  0.6707
   84MOL0     C11226  12.215   9.358   1.727  0.0983  0.1637  0.2547
   84MOL0     C11227  12.299   9.299   1.604  0.1444  0.1258  0.4447
   84MOL0     C11228  12.438   9.304   1.624  0.0154 -0.2671  0.4036
   84MOL0     O11229  12.505   9.219   1.531 -0.3525 -0.6533  0.0995
   84MOL0     C11230  12.628   9.265   1.482 -0.3043  0.3927 -0.1533
   84MOL0     C11231  12.738   9.178   1.480 -0.2015 -0.1921 -0.5477
   84MOL0     C11232  12.864   9.214   1.439  0.1183  0.5969  0.3369
   84MOL0     C11233  12.890   9.350   1.399  0.1950 -0.2503 -0.0365
   84MOL0     C11234  13.030   9.413   1.380 -0.3371  0.3633  0.8214
   84MOL0     O11235  13.050   9.546   1.394  0.5861  0.3456  0.2206
   84MOL0     C11236  13.174   9.595   1.382 -0.2045 -0.3136 -0.2232
   84MOL0     C11237  13.210   9.666   1.270 -0.7522 -1.1359 -0.1756
   84MOL0     C11238  13.340   9.728   1.271  0.0465 -0.1133  0.6374
   84MOL0     C11239  13.437   9.701   1.374  0.6468 -0.1779 -0.1558
   84MOL0     O11240  13.563   9.747   1.365 -0.0961 -0.1276 -0.2511
   84MOL0     C11241  13.658   9.642   1.354 -0.7315  0.5658 -0.0232
   84MOL0     C11242  13.787   9.680   1.426 -0.7104 -0.5490 -0.0856
   84MOL0     C11243  13.889   9.769   1.352 -0.2112  0.0858  0.0878
   84MOL0     C11244  14.022   9.758   1.425  1.0030 -0.4997  0.0956
   84MOL0     C11245  14.119   9.859   1.364 -0.3916  0.5647  0.2792
   84MOL0     C11246  14.254   9.833   1.429 -0.7525 -0.1111  0.0357
   84MOL0     C11247  14.364   9.931   1.375  0.3301 -0.0765 -0.6279
   84MOL0     C11248  14.505   9.910   1.421  0.2963  0.6466 -0.3791
   84MOL0    Cl11249  14.519   9.939   1.594 -0.1262 -0.1914  0.4069
   84MOL0     C11250  13.386   9.621   1.482  0.2261  0.1905 -0.6638
   84MOL0     C11251  13.261   9.581   1.491  0.5215 -0.2704 -0.3902
   84MOL0     O11252  13.125   9.332   1.376  0.6564  0.3485 -0.3001
   84MOL0     C11253  12.775   9.435   1.384 -0.0659 -0.0892 -0.4337
   84MOL0     C11254  12.650   9.393   1.428  0.2674 -0.1356  0.3518
   84MOL0     N11255  12.017   9.119   1.659 -0.0258 -0.0665  0.1161
   84MOL0     N11256  11.921   9.043   1.634 -0.0498  0.7507  0.6980
   84MOL0     C11257  10.690   9.040   1.705  0.0409 -0.5226  0.6521
   84MOL0     C11258  10.577   9.048   1.625 -0.0423  0.3206  0.2842
   84MOL0     C11259  10.292   8.948   1.260  0.0734  0.6999  0.1315
   84MOL0     C11260  10.275   8.958   1.117 -0.1748 -0.2359  0.4993
   84MOL0     C11261  10.145   8.942   1.058  0.2107 -0.3436  0.8481
   84MOL0     C11262  10.031   8.918   1.131 -0.6070  0.3805 -0.2778
   84MOL0     O11263   9.910   8.920   1.059  0.4616  0.0757  0.5054
   84MOL0     C11264   9.801   8.857   1.108 -0.1735 -0.0033 -0.1228
   84MOL0     C11265   9.692   8.867   1.006  1.2924 -0.2142  0.4522
   84MOL0     C11266   9.740   8.793   0.875 -0.6301 -0.4135  0.6345
   84MOL0     C11267   9.669   8.852   0.758  0.8379  0.2290 -0.4648
   84MOL0     C11268   9.670   8.785   0.633  0.3575 -0.7154 -0.1403
   84MOL0     C11269   9.680   8.739   0.521 -0.1986 -0.8914  0.3244
   84MOL0     C11270  10.048   8.917   1.268  0.0480 -0.3745  0.2465
   84MOL0     C11271  10.167   8.921   1.333  0.5379 -0.9878  0.2103
   84MOL0     C11272  10.160   8.899   1.479  0.3828 -0.0816 -0.7634
   84MOL0     H11273  10.682   8.836   1.395  1.5541 -1.9045  2.6195
   84MOL0     H11274  10.884   8.831   1.544 -1.8673 -2.5790 -1.8357
   84MOL0     H11275  10.927   9.136   1.840 -0.5128 -0.2229  1.7506
   84MOL0     H11276  10.842   9.016   1.950  1.3661 -2.0757  1.7153
   84MOL0     H11277  11.028   8.916   2.021 -2.3381  0.0750 -0.1366
   84MOL0     H11278  11.051   9.081   2.046 -0.1413 -0.5791  0.0197
   84MOL0     H11279  11.226   9.098   1.866 -0.2967 -0.0870 -0.4272
   84MOL0     H11280  11.155   8.963   1.784 -2.5284  0.6523 -0.0018
   84MOL0     H11281  11.257   8.927   2.067 -0.4003  3.8945 -1.0037
   84MOL0     H11282  11.290   8.819   1.934 -0.2759 -0.9178  2.1947
   84MOL0     H11283  11.430   9.087   1.970  1.7958  0.3068  0.6594
   84MOL0     H11284  11.495   8.941   2.001  0.4276  1.2122 -0.5563
   84MOL0     H11285  11.497   8.866   1.780 -0.4170 -0.8825 -0.4743
   84MOL0     H11286  11.396   9.005   1.710  1.7731  0.1925 -0.4277
   84MOL0     H11287  11.682   9.021   1.841  0.7000  1.5293  1.2036
   84MOL0     H11288  11.586   9.155   1.815  1.6755  0.2103  0.3232
   84MOL0     H11289  11.675   8.964   1.597 -1.0316  0.2851  1.3319
   84MOL0     H11290  11.595   9.119   1.566 -3.7076 -1.8527  1.0190
   84MOL0     H11291  11.777   9.331   1.630  2.2733  1.4077  2.2279
   84MOL0     H11292  12.049   9.443   1.623  0.2408 -0.2996  0.9053
   84MOL0     H11293  12.022   9.396   1.799 -2.8820 -0.4597 -0.3321
   84MOL0     H11294  12.253   9.460   1.739 -0.1850  0.0132  3.0596
   84MOL0     H11295  12.232   9.294   1.814  1.0920 -0.5332 -0.4382
   84MOL0     H11296  12.264   9.352   1.515  0.2145  2.2550  1.6345
   84MOL0     H11297  12.278   9.192   1.595  0.6597  0.1203 -1.0250
   84MOL0     H11298  12.462   9.270   1.726 -3.5348  0.4662  1.6193
   84MOL0     H11299  12.476   9.406   1.621 -1.6792  0.4054  0.9995
   84MOL0     H11300  12.734   9.083   1.533  1.4098 -2.2209 -3.7819
   84MOL0     H11301  12.948   9.150   1.462  0.3107  0.3885 -0.8891
   84MOL0     H11302  13.140   9.677   1.188  1.4651 -0.5096 -2.1022
   84MOL0     H11303  13.372   9.803   1.199  0.8537  1.8297  2.9147
   84MOL0     H11304  13.615   9.548   1.390  0.5704 -0.0483 -0.0011
   84MOL0     H11305  13.673   9.629   1.247 -0.0987  0.7408  0.0403
   84MOL0     H11306  13.758   9.735   1.517  0.4060 -0.0081 -0.0449
   84MOL0     H11307  13.839   9.589   1.457  1.4140  0.3078 -0.9319
   84MOL0     H11308  13.903   9.740   1.247 -1.2397  2.4483 -0.7601
   84MOL0     H11309  13.852   9.871   1.361 -1.5477 -0.4710  1.3878
   84MOL0     H11310  14.063   9.657   1.425 -0.6497 -1.2065  0.6635
   84MOL0     H11311  13.998   9.799   1.524  2.3291  0.5319  0.0221
   84MOL0     H11312  14.089   9.964   1.366  1.1429  1.0273  1.0262
   84MOL0     H11313  14.135   9.846   1.257 -0.5455  0.7388  0.2357
   84MOL0     H11314  14.245   9.862   1.534  1.5409  4.5643 -0.7996
   84MOL0     H11315  14.291   9.730   1.426  1.5078  0.6615 -0.9015
   84MOL0     H11316  14.346  10.038   1.393  1.9118  0.2289 -0.6802
   84MOL0     H11317  14.361   9.913   1.267 -1.1816 -1.4449 -0.3962
   84MOL0     H11318  14.516   9.803   1.402 -2.8227 -0.1939  1.7520
   84MOL0     H11319  14.574   9.971   1.363 -0.7896 -0.6427 -3.2583
   84MOL0     H11320  13.452   9.615   1.569  0.1877 -0.4327 -0.6774
   84MOL0     H11321  13.235   9.518   1.576 -1.0921 -0.4781 -1.0045
   84MOL0     H11322  12.791   9.538   1.355  0.9807 -0.2542 -0.4773
   84MOL0     H11323  12.565   9.459   1.416 -0.7143 -1.7982 -3.5271
   84MOL0     H11324  10.689   9.118   1.781 -1.5575 -1.5280  1.7261
   84MOL0     H11325  10.493   9.114   1.648 -2.5810 -1.3220 -3.3073
   84MOL0     H11326  10.361   8.971   1.052 -0.5247  1.3825  0.3315
   84MOL0     H11327  10.128   8.949   0.951 -0.7967 -0.8662  0.9603
   84MOL0     H11328   9.759   8.902   1.199 -2.4178  0.1538 -1.1825
   84MOL0     H11329   9.820   8.755   1.144 -0.8311  0.6048  2.0973
   84MOL0     H11330   9.670   8.971   0.984 -1.3320  0.0528  3.5873
   84MOL0     H11331   9.596   8.823   1.037  0.9032  0.5328  0.3288
   84MOL0     H11332   9.719   8.685   0.875  2.5061 -1.1677 -1.9312
   84MOL0     H11333   9.848   8.789   0.860 -0.5708 -2.5470  1.2641
   84MOL0     H11334   9.570   8.871   0.799  1.9884  2.4181  1.5901
   84MOL0     H11335   9.715   8.949   0.739 -1.0395  0.6755 -3.2208
   84MOL0     H11336   9.689   8.696   0.423  0.7817  0.3797 -0.1839
   84MOL0     H11337   9.960   8.923   1.332  0.8821  2.8740  1.2865
   84MOL0     H11338  10.072   8.839   1.504  0.2923  1.1325  2.2684
   84MOL0     H11339  10.257   8.859   1.507  0.4040 -0.5549 -1.4915
   84MOL0     H11340  10.146   8.983   1.548 -2.0646 -0.7868 -0.2996
   85MOL0     O11341   2.517   0.259   7.949  0.2869  0.4535  0.3655
   85MOL0     C11342   2.430   0.345   7.950  0.1365 -0.3508  0.4681
   85MOL0     O11343   2.448   0.478   7.939  0.1846 -0.0217 -0.3311
   85MOL0     C11344   2.559   0.543   7.879  0.3823  0.0123 -0.7313
   85MOL0     C11345   2.545   0.679   7.896  0.3642  0.9091  0.6786
   85MOL0     C11346   2.635   0.765   7.826 -0.1905 -0.1674 -0.0267
   85MOL0     C11347   2.746   0.714   7.761  0.4694 -0.0626  0.3345
   85MOL0     O11348   2.828   0.797   7.688 -0.0180  0.7307 -0.6895
   85MOL0     C11349   2.962   0.758   7.684 -0.6094  0.0672  0.4018
   85MOL0     C11350   3.049   0.866   7.613 -0.6919  0.5158 -0.2166
   85MOL0     C11351   3.177   0.793   7.567 -0.0468  0.0475  0.6935
   85MOL0     C11352   3.290   0.894   7.544 -0.2391 -0.0757 -0.7166
   85MOL0     C11353   3.416   0.836   7.474  0.4704 -0.5212 -0.3206
   85MOL0     C11354   3.531   0.940   7.473 -0.1306 -0.6148  0.7950
   85MOL0     C11355   3.664   0.865   7.442 -0.2373 -0.2615 -0.8788
   85MOL0     C11356   3.776   0.962   7.408  0.1971  0.4481  0.2299
   85MOL0     N11357   3.901   0.902   7.358 -0.5511  0.2069 -0.0028
   85MOL0     C11358   3.993   0.964   7.268  0.3930  0.4780  0.0037
   85MOL0     C11359   4.056   0.862   7.213 -0.0719  0.0450 -0.1052
   85MOL0     C11360   4.150   0.861   7.092 -0.4036 -0.3618 -0.1069
   85MOL0     C11361   4.280   0.778   7.119  1.2399 -0.6275 -0.0829
   85MOL0     C11362   4.362   0.824   7.240  0.1091 -0.1128 -0.2344
   85MOL0     C11363   4.491   0.758   7.269 -0.0030  0.1787 -0.6846
   85MOL0     O11364   4.584   0.746   7.166  1.2991  0.6455  0.3550
   85MOL0     C11365   4.714   0.701   7.191 -0.4422 -0.7407  0.4532
   85MOL0     C11366   4.818   0.762   7.125  0.2176 -0.1376  0.3381
   85MOL0     C11367   4.952   0.740   7.156 -0.0973  0.5341 -0.1789
   85MOL0     C11368   4.980   0.643   7.257 -1.1407 -0.6442  0.6020
   85MOL0     C11369   5.114   0.624   7.312  0.1459 -0.1579 -0.9373
   85MOL0     O11370   5.203   0.716   7.272 -0.1521 -0.1952 -0.0820
   85MOL0     C11371   5.339   0.699   7.300  0.4389  0.4902  1.4096
   85MOL0     C11372   5.409   0.634   7.190 -0.5194 -0.4118 -0.0142
   85MOL0     C11373   5.549   0.617   7.188 -0.5822  0.0692 -0.1429
   85MOL0     C11374   5.627   0.678   7.286 -0.4278  0.3175 -0.6447
   85MOL0     O11375   5.764   0.667   7.299  0.2158 -0.8851 -0.3483
   85MOL0     C11376   5.833   0.585   7.201 -0.0577  0.1064 -0.1252
   85MOL0     C11377   5.982   0.573   7.252 -0.8429 -0.1905  0.0311
   85MOL0     C11378   5.991   0.510   7.396  0.1472 -0.3694  0.2134
   85MOL0     C11379   6.123   0.536   7.478  0.1173 -0.4281 -0.3568
   85MOL0     C11380   6.134   0.450   7.611 -0.2927 -0.5795  0.1787
   85MOL0     C11381   6.258   0.491   7.699  0.2343  0.2519 -0.4674
   85MOL0     C11382   6.394   0.487   7.634 -0.2046  0.2481 -0.4154
   85MOL0     C11383   6.412   0.342   7.595  1.1344 -0.3705  0.4665
   85MOL0    Cl11384   6.584   0.290   7.605  0.4194 -0.3675 -0.2761
   85MOL0     C11385   5.567   0.755   7.389  0.2786  0.0227  0.8706
   85MOL0     C11386   5.418   0.764   7.393  0.2485 -0.1195 -0.3456
   85MOL0     O11387   5.135   0.538   7.390 -0.0443  0.4401 -0.4089
   85MOL0     C11388   4.872   0.576   7.317  0.2173 -0.0141  0.2275
   85MOL0     C11389   4.739   0.602   7.281 -0.2954  0.1401  0.1117
   85MOL0     N11390   4.013   0.740   7.271 -0.6096 -0.4226 -0.6295
   85MOL0     N11391   3.917   0.774   7.348 -0.0173 -0.3861  0.4139
   85MOL0     C11392   2.766   0.575   7.765 -0.0700 -0.7870 -0.1309
   85MOL0     C11393   2.678   0.487   7.824 -0.8271 -0.1126  0.3295
   85MOL0     C11394   2.286   0.308   7.971 -0.3507  0.0731  0.8003
   85MOL0     C11395   2.217   0.389   8.054  0.1631 -0.8116 -0.3820
   85MOL0     C11396   2.080   0.386   8.066 -0.3620  0.0181 -0.0284
   85MOL0     C11397   2.002   0.311   7.984 -0.3556 -0.5325  0.1901
   85MOL0     O11398   1.864   0.309   7.984 -0.5791  0.8138 -0.8453
   85MOL0     C11399   1.796   0.395   7.889 -0.7959  1.0095 -0.9998
   85MOL0     C11400   1.647   0.415   7.935  0.5571  0.6054  0.2313
   85MOL0     C11401   1.643   0.500   8.062  0.1593  0.5630  0.3336
   85MOL0     C11402   1.508   0.539   8.104 -0.5022 -0.3459 -0.2858
   85MOL0     C11403   1.446   0.654   8.037  0.0759 -0.0637 -0.4554
   85MOL0     C11404   1.392   0.744   7.982  0.1656 -0.0217 -0.1076
   85MOL0     C11405   2.072   0.219   7.907 -0.4813 -0.0225  0.6174
   85MOL0     C11406   2.215   0.218   7.890 -0.2202  0.2053 -1.1313
   85MOL0     C11407   2.279   0.111   7.804  0.0103 -0.1439  0.1070
   85MOL0     H11408   2.453   0.718   7.939 -0.2542  0.8520 -0.5183
   85MOL0     H11409   2.614   0.871   7.815 -2.2551 -0.0102  3.8479
   85MOL0     H11410   2.997   0.729   7.784  0.7994  2.1788  0.5873
   85MOL0     H11411   2.975   0.666   7.627 -2.2558 -0.9137  1.5123
   85MOL0     H11412   3.066   0.959   7.668  0.1823  0.8417 -0.9985
   85MOL0     H11413   2.994   0.904   7.526  0.9957  1.2878 -1.0087
   85MOL0     H11414   3.159   0.731   7.479  1.1318 -0.8463  1.0477
   85MOL0     H11415   3.209   0.712   7.633 -0.1805 -1.1739 -0.7050
   85MOL0     H11416   3.262   0.971   7.471  2.2594  0.3455 -1.3504
   85MOL0     H11417   3.318   0.949   7.634 -0.9746  0.4572 -0.8061
   85MOL0     H11418   3.451   0.745   7.523 -0.4637 -0.9544 -0.4442
   85MOL0     H11419   3.383   0.813   7.372  3.5807 -3.3858 -0.8284
   85MOL0     H11420   3.500   1.017   7.401 -2.9393  1.1998  3.6816
   85MOL0     H11421   3.525   0.990   7.571 -0.8775 -1.1278  1.0162
   85MOL0     H11422   3.659   0.804   7.352  3.1257  2.6551 -3.2818
   85MOL0     H11423   3.695   0.817   7.536  2.3190  1.3791 -0.8057
   85MOL0     H11424   3.746   1.031   7.328  2.6043 -0.6358 -1.7391
   85MOL0     H11425   3.803   1.017   7.499  2.2106 -1.5236  0.8984
   85MOL0     H11426   3.992   1.069   7.240 -2.9582  0.3795 -0.6817
   85MOL0     H11427   4.083   0.810   7.023 -2.0257  1.8462 -0.2768
   85MOL0     H11428   4.169   0.966   7.067  0.1520  0.2939  2.7357
   85MOL0     H11429   4.235   0.679   7.132 -1.3808  0.1682 -2.0913
   85MOL0     H11430   4.341   0.769   7.029  1.1390  0.8987 -0.3355
   85MOL0     H11431   4.313   0.812   7.337  0.5598  1.1458  0.1740
   85MOL0     H11432   4.388   0.930   7.227  2.4448 -0.0615  3.4321
   85MOL0     H11433   4.473   0.661   7.317 -0.8758  1.2448  1.2563
   85MOL0     H11434   4.543   0.817   7.346  0.3158  1.2902 -1.7236
   85MOL0     H11435   4.785   0.833   7.050 -1.4656 -0.4448  0.7366
   85MOL0     H11436   5.030   0.799   7.110 -0.1224 -2.0060 -3.9512
   85MOL0     H11437   5.351   0.581   7.116  0.6900 -1.6261 -0.1330
   85MOL0     H11438   5.602   0.564   7.108 -1.2007  0.6470 -0.9474
   85MOL0     H11439   5.792   0.484   7.192  0.3669  0.1225 -5.1018
   85MOL0     H11440   5.841   0.622   7.099 -1.7805 -2.6357 -1.3904
   85MOL0     H11441   6.025   0.509   7.174 -2.3474 -1.0594 -0.1158
   85MOL0     H11442   6.024   0.674   7.246 -1.8739  0.1598 -3.0496
   85MOL0     H11443   5.903   0.549   7.449  0.7391  0.5338  0.5645
   85MOL0     H11444   5.978   0.402   7.389  0.2612 -0.4850  1.4897
   85MOL0     H11445   6.140   0.643   7.493  0.5705 -0.5512  0.0169
   85MOL0     H11446   6.200   0.494   7.412  0.9931  1.4783 -0.6268
   85MOL0     H11447   6.147   0.344   7.587 -0.3012 -0.7043  0.7073
   85MOL0     H11448   6.043   0.461   7.670 -2.5359 -0.9185 -2.9582
   85MOL0     H11449   6.237   0.593   7.733  1.8460  0.7205 -0.8019
   85MOL0     H11450   6.257   0.423   7.785 -0.3352 -0.0947 -0.7382
   85MOL0     H11451   6.472   0.512   7.707 -0.4231 -0.6880  0.1577
   85MOL0     H11452   6.409   0.550   7.546 -2.3483  2.6711  0.7909
   85MOL0     H11453   6.352   0.278   7.660 -0.6600  0.8305  0.0432
   85MOL0     H11454   6.372   0.330   7.494  1.2516  0.5508  0.3002
   85MOL0     H11455   5.632   0.810   7.457  1.1672  0.6627 -0.4342
   85MOL0     H11456   5.370   0.834   7.460  0.3002  0.4039 -0.8463
   85MOL0     H11457   4.892   0.511   7.402  1.1579  0.2229  0.1964
   85MOL0     H11458   4.664   0.533   7.317  0.0325 -0.6647 -0.7126
   85MOL0     H11459   2.850   0.522   7.721  0.7974 -0.5062  1.1381
   85MOL0     H11460   2.711   0.384   7.810  2.3769  0.8055  0.3613
   85MOL0     H11461   2.265   0.463   8.118 -1.4266  3.1345 -3.3477
   85MOL0     H11462   2.034   0.449   8.142 -0.6423  0.6173 -0.6890
   85MOL0     H11463   1.802   0.343   7.794  0.5558 -2.6911  0.9175
   85MOL0     H11464   1.845   0.493   7.881 -0.6549  0.7552 -4.5505
   85MOL0     H11465   1.603   0.320   7.967  0.4167  0.3135 -0.7850
   85MOL0     H11466   1.599   0.459   7.847  1.5868 -1.9750 -1.7853
   85MOL0     H11467   1.720   0.577   8.059  2.2721 -1.4394 -0.0753
   85MOL0     H11468   1.674   0.437   8.146  1.8132  0.8235 -0.0356
   85MOL0     H11469   1.447   0.450   8.090  0.1636 -0.5600 -2.0708
   85MOL0     H11470   1.510   0.572   8.208 -0.0718  1.1917 -0.7507
   85MOL0     H11471   1.344   0.823   7.929 -2.1654 -1.8419 -0.8962
   85MOL0     H11472   2.001   0.155   7.857  0.0256 -0.0299 -0.1002
   85MOL0     H11473   2.385   0.136   7.802  0.1305 -0.6897 -0.4534
   85MOL0     H11474   2.248   0.014   7.843 -1.2604  0.5600  0.9273
   85MOL0     H11475   2.236   0.128   7.705 -0.5841 -0.4438  0.3043
   86MOL0     O11476   0.085   3.295   9.939  0.6666 -0.0931 -0.0422
   86MOL0     C11477   0.062   3.188  10.001 -0.5167 -0.1673  0.0587
   86MOL0     O11478   0.145   3.123  10.095 -0.6334 -0.5267 -0.0879
   86MOL0     C11479   0.263   3.189  10.125 -0.5181  0.1825 -0.1824
   86MOL0     C11480   0.355   3.240  10.028 -0.4026  0.6616  0.3162
   86MOL0     C11481   0.481   3.290  10.061 -0.9471 -0.5521  0.4502
   86MOL0     C11482   0.526   3.288  10.193  0.4929  0.1414 -0.3035
   86MOL0     O11483   0.648   3.349  10.221 -0.0755 -0.0324 -0.2043
   86MOL0     C11484   0.671   3.398  10.354  0.4093  0.7584  0.0751
   86MOL0     C11485   0.788   3.501  10.381  0.6286  0.9603  0.4036
   86MOL0     C11486   0.932   3.467  10.332 -0.7776  0.4403 -0.8854
   86MOL0     C11487   1.030   3.578  10.373 -0.3509 -0.1765  0.5845
   86MOL0     C11488   1.161   3.562  10.299  0.6323  0.4361 -0.3782
   86MOL0     C11489   1.261   3.654  10.366  0.1660 -0.2294 -0.3278
   86MOL0     C11490   1.402   3.673  10.299  0.0999 -0.4785  1.1445
   86MOL0     C11491   1.386   3.712  10.150  0.8286  0.4050 -0.1311
   86MOL0     N11492   1.508   3.741  10.072  0.1192  0.1217 -0.5642
   86MOL0     C11493   1.521   3.689   9.941 -0.3995  0.0474 -0.2030
   86MOL0     C11494   1.625   3.761   9.902 -0.1126  0.0093  1.0947
   86MOL0     C11495   1.667   3.773   9.748  0.6935  0.9629 -0.5348
   86MOL0     C11496   1.819   3.763   9.727  0.6064 -0.9157 -0.4170
   86MOL0     C11497   1.869   3.643   9.801  0.4993 -0.2889 -0.1051
   86MOL0     C11498   2.019   3.640   9.772 -0.5314  0.1085  0.1602
   86MOL0     O11499   2.097   3.741   9.836 -0.4632  1.0299  0.0419
   86MOL0     C11500   2.231   3.740   9.804  0.3078  0.4360 -0.0542
   86MOL0     C11501   2.302   3.643   9.733  0.3989  0.2194  1.1571
   86MOL0     C11502   2.437   3.662   9.714 -0.4382  0.0101  0.6153
   86MOL0     C11503   2.512   3.771   9.765  1.1991 -0.2459 -0.5582
   86MOL0     C11504   2.657   3.784   9.720  0.4944  0.7695 -0.2920
   86MOL0     O11505   2.726   3.894   9.738  0.5594 -0.3040 -0.1941
   86MOL0     C11506   2.858   3.913   9.706 -0.1737 -0.3681 -0.0323
   86MOL0     C11507   2.956   3.827   9.748 -0.4828  0.0381 -0.0210
   86MOL0     C11508   3.097   3.864   9.742  0.8732  0.7518  0.2546
   86MOL0     C11509   3.132   3.987   9.687 -0.0421  1.0025 -1.5553
   86MOL0     O11510   3.267   4.015   9.682 -0.2955  0.1237 -0.3170
   86MOL0     C11511   3.304   4.151   9.639  0.6134  1.7242  0.2187
   86MOL0     C11512   3.460   4.158   9.637  0.7974 -0.1840 -0.0531
   86MOL0     C11513   3.505   4.161   9.786 -0.1820  0.7223 -0.3356
   86MOL0     C11514   3.652   4.102   9.785 -0.1336  0.0495 -0.0034
   86MOL0     C11515   3.751   4.168   9.890  0.1479 -0.7639  0.8235
   86MOL0     C11516   3.880   4.086   9.922 -0.3862  0.7514 -0.1283
   86MOL0     C11517   3.955   4.042   9.801 -0.1531 -0.0612  0.0906
   86MOL0     C11518   4.012   4.162   9.719  0.1193 -0.2551  0.5750
   86MOL0    Cl11519   4.107   4.277   9.828  0.2807  0.1898 -0.2911
   86MOL0     C11520   3.033   4.072   9.657 -0.1631  0.0134 -0.1714
   86MOL0     C11521   2.901   4.041   9.664 -0.2172 -1.3448 -0.3237
   86MOL0     O11522   2.700   3.688   9.655 -0.7610  0.2640  0.5228
   86MOL0     C11523   2.439   3.868   9.840 -0.0946  0.8949 -0.3273
   86MOL0     C11524   2.299   3.854   9.853  0.5936 -0.4795 -0.3893
   86MOL0     N11525   1.680   3.850  10.002  0.0226  1.0596 -0.2736
   86MOL0     N11526   1.607   3.828  10.107 -0.4931  0.2873  0.0059
   86MOL0     C11527   0.447   3.224  10.294 -0.0298 -0.5788  0.0769
   86MOL0     C11528   0.317   3.175  10.255 -0.3874  0.2657 -0.2815
   86MOL0     C11529  -0.071   3.116   9.974 -0.1177  0.1818 -0.6673
   86MOL0     C11530  -0.078   2.980   9.976  0.1113 -0.4050 -0.0142
   86MOL0     C11531  -0.198   2.920   9.965  0.7745  0.3047  0.3871
   86MOL0     C11532  -0.317   2.986   9.924 -0.6086  0.2011  0.5842
   86MOL0     O11533  -0.425   2.907   9.885 -1.3101  0.1143 -0.2009
   86MOL0     C11534  -0.514   2.970   9.796 -0.5059  0.4928  0.1823
   86MOL0     C11535  -0.633   2.873   9.760  0.5255  0.2308  0.0997
   86MOL0     C11536  -0.580   2.747   9.684 -0.2649 -0.5991  0.2422
   86MOL0     C11537  -0.678   2.632   9.679 -0.2228  0.0912 -0.2727
   86MOL0     C11538  -0.657   2.524   9.586 -0.6929  0.2712  0.7144
   86MOL0     C11539  -0.646   2.435   9.506  0.1542  0.8775  1.0013
   86MOL0     C11540  -0.310   3.124   9.916 -0.1358 -0.3089  0.5094
   86MOL0     C11541  -0.190   3.192   9.941 -0.0551 -0.0859 -0.6409
   86MOL0     C11542  -0.189   3.337   9.930  0.1623 -0.2838  0.0909
   86MOL0     H11543   0.310   3.252   9.930  2.6104  0.1766 -1.2206
   86MOL0     H11544   0.548   3.331   9.986  2.1625 -0.6041  3.0186
   86MOL0     H11545   0.584   3.447  10.398  3.9890  5.5601  2.7509
   86MOL0     H11546   0.692   3.316  10.423 -0.5364 -0.6782 -1.2640
   86MOL0     H11547   0.787   3.522  10.489  0.2732 -1.9944  1.0554
   86MOL0     H11548   0.758   3.599  10.342 -1.0692  0.5710  0.6853
   86MOL0     H11549   0.940   3.462  10.223  0.9760 -0.6887 -0.7464
   86MOL0     H11550   0.968   3.369  10.363  1.0968  0.3237 -3.1419
   86MOL0     H11551   0.988   3.675  10.345  0.2270 -0.1320 -0.1742
   86MOL0     H11552   1.035   3.587  10.482  1.5404  2.0488  0.4030
   86MOL0     H11553   1.200   3.460  10.311 -0.7419  0.0473  1.2138
   86MOL0     H11554   1.143   3.603  10.199 -0.2558  2.8474  0.6889
   86MOL0     H11555   1.215   3.753  10.370 -1.9499 -1.0445 -1.9929
   86MOL0     H11556   1.282   3.623  10.468  1.6677 -2.6611 -1.2892
   86MOL0     H11557   1.461   3.581  10.294  0.8670  0.0702 -2.5910
   86MOL0     H11558   1.464   3.744  10.354 -0.8518 -0.3674  2.1243
   86MOL0     H11559   1.323   3.639  10.099  1.7576  0.3408 -1.2232
   86MOL0     H11560   1.329   3.806  10.156  0.6415  0.3671 -1.1494
   86MOL0     H11561   1.452   3.626   9.886  0.1255 -1.5827  0.9340
   86MOL0     H11562   1.630   3.683   9.699 -3.6815  1.5750  1.2059
   86MOL0     H11563   1.615   3.856   9.701 -0.3796  1.3263  1.1732
   86MOL0     H11564   1.853   3.755   9.624  0.5716 -0.1638 -0.4938
   86MOL0     H11565   1.872   3.847   9.774 -1.0186 -1.0007  1.7531
   86MOL0     H11566   1.826   3.552   9.759 -2.2957 -0.1817  2.2087
   86MOL0     H11567   1.851   3.645   9.909  2.8649  1.0447  0.3315
   86MOL0     H11568   2.037   3.639   9.664 -1.1068 -0.3346  0.0648
   86MOL0     H11569   2.057   3.546   9.812  0.7546  0.2406 -0.6791
   86MOL0     H11570   2.264   3.546   9.704 -0.2406 -0.6566  4.4435
   86MOL0     H11571   2.488   3.589   9.652  0.3778  1.1136 -0.0353
   86MOL0     H11572   2.938   3.733   9.798  2.0690 -0.0056  0.9510
   86MOL0     H11573   3.170   3.795   9.781  1.1829  0.5061 -0.7307
   86MOL0     H11574   3.257   4.164   9.541 -1.2242 -1.9564  0.4314
   86MOL0     H11575   3.274   4.222   9.717  0.6842  1.3280  0.6111
   86MOL0     H11576   3.499   4.067   9.591 -0.4500  0.2655 -2.1394
   86MOL0     H11577   3.500   4.247   9.587  1.0861  1.0146  2.1759
   86MOL0     H11578   3.502   4.262   9.827 -1.5145  0.1264  1.1590
   86MOL0     H11579   3.439   4.099   9.848  0.3575  0.7080  0.2379
   86MOL0     H11580   3.690   4.123   9.685 -0.7584  0.3227 -0.1887
   86MOL0     H11581   3.642   3.993   9.785  0.6046 -0.0682 -2.3420
   86MOL0     H11582   3.700   4.193   9.983 -3.0722  3.1360 -1.6224
   86MOL0     H11583   3.788   4.262   9.848  3.4492 -0.9318  3.0374
   86MOL0     H11584   3.939   4.151   9.987  0.1811 -0.3916  0.5462
   86MOL0     H11585   3.852   3.994   9.975 -1.2297  0.9657 -0.1909
   86MOL0     H11586   3.888   3.977   9.744 -0.8135  0.4152  0.3227
   86MOL0     H11587   4.042   3.982   9.829 -0.8753 -1.5708 -0.7511
   86MOL0     H11588   4.076   4.118   9.642 -2.3289 -2.4616 -0.3716
   86MOL0     H11589   3.929   4.204   9.661 -0.4807 -0.2039  1.4502
   86MOL0     H11590   3.055   4.173   9.625  2.6700 -0.1628  0.9363
   86MOL0     H11591   2.830   4.112   9.623 -2.4926 -1.6998  2.6896
   86MOL0     H11592   2.492   3.959   9.866  1.9953  0.3838 -2.4269
   86MOL0     H11593   2.232   3.929   9.892  0.4838 -0.0428 -1.3936
   86MOL0     H11594   0.493   3.208  10.391  0.2799 -2.0365 -0.2814
   86MOL0     H11595   0.248   3.119  10.316 -0.2729 -1.6052 -1.7971
   86MOL0     H11596   0.008   2.918   9.998 -1.7471 -4.4186 -2.8971
   86MOL0     H11597  -0.202   2.812   9.975  0.2780  0.2528 -0.2907
   86MOL0     H11598  -0.470   3.003   9.702 -0.9513  0.6598  0.0300
   86MOL0     H11599  -0.549   3.067   9.834  1.5577  1.2806  0.1889
   86MOL0     H11600  -0.701   2.928   9.695  2.1927  0.8316 -1.2374
   86MOL0     H11601  -0.686   2.845   9.851  1.5455  1.0644  0.9956
   86MOL0     H11602  -0.503   2.701   9.746 -1.5121 -4.1780 -0.6267
   86MOL0     H11603  -0.532   2.767   9.588  0.7106  0.2958  0.9015
   86MOL0     H11604  -0.676   2.583   9.777 -1.1259  1.6471  0.5563
   86MOL0     H11605  -0.780   2.668   9.664 -0.3767 -0.5202 -0.7746
   86MOL0     H11606  -0.621   2.354   9.441 -1.5090 -1.6272  3.2365
   86MOL0     H11607  -0.394   3.192   9.906  0.5369  0.4387 -0.2267
   86MOL0     H11608  -0.294   3.369   9.922  0.0764 -0.9172 -1.9090
   86MOL0     H11609  -0.144   3.376  10.022 -2.9559  3.9445  0.1659
   86MOL0     H11610  -0.145   3.361   9.833 -2.9469 -0.9769 -1.6272
   87MOL0     O11611   5.557   9.393   9.003  0.1832  0.1749 -0.4491
   87MOL0     C11612   5.565   9.492   8.930  0.1311  0.7317 -0.1654
   87MOL0     O11613   5.457   9.553   8.867  0.0815  0.2749 -0.6422
   87MOL0     C11614   5.333   9.503   8.891  0.0821  0.1425 -0.2600
   87MOL0     C11615   5.221   9.568   8.959 -0.1139 -0.2650  0.1253
   87MOL0     C11616   5.100   9.498   8.972  0.0141 -0.3594  0.5356
   87MOL0     C11617   5.084   9.373   8.927  0.3998  0.2524 -0.1329
   87MOL0     O11618   4.958   9.317   8.935 -0.4156 -0.0061  0.3208
   87MOL0     C11619   4.891   9.313   8.802  0.0423  0.3362 -0.1909
   87MOL0     C11620   4.909   9.187   8.721 -0.6575  0.0433 -0.7413
   87MOL0     C11621   4.916   9.061   8.806 -0.1300  1.5484 -0.2267
   87MOL0     C11622   4.787   9.023   8.880  0.6896  0.1839 -0.2113
   87MOL0     C11623   4.793   8.882   8.928  0.0105  0.1289  0.3209
   87MOL0     C11624   4.695   8.840   9.042 -0.5531  0.2822 -0.7019
   87MOL0     C11625   4.554   8.805   8.995 -0.0576 -0.7409 -0.0628
   87MOL0     C11626   4.462   8.753   9.103  0.0467 -0.1157 -0.8466
   87MOL0     N11627   4.322   8.746   9.074  0.3989  0.0166  0.4210
   87MOL0     C11628   4.219   8.740   9.164  0.6803  0.0146 -0.4824
   87MOL0     C11629   4.129   8.645   9.124 -0.9300  0.0049  0.0382
   87MOL0     C11630   4.023   8.593   9.222  0.4197  1.2230  0.1241
   87MOL0     C11631   3.903   8.696   9.244 -0.7373 -0.5366 -0.0504
   87MOL0     C11632   3.793   8.652   9.344  0.1298  0.1015  0.2834
   87MOL0     C11633   3.844   8.633   9.478 -0.1562 -0.3610 -0.2732
   87MOL0     O11634   3.737   8.609   9.572  0.2395  0.0988  0.6615
   87MOL0     C11635   3.674   8.491   9.589 -0.1874  1.0150 -0.1368
   87MOL0     C11636   3.538   8.495   9.616  0.0581  0.4271  0.3720
   87MOL0     C11637   3.453   8.379   9.619 -0.0240  0.1507  0.9150
   87MOL0     C11638   3.512   8.256   9.577  1.0024  0.1978  0.0231
   87MOL0     C11639   3.429   8.135   9.557 -0.0723  0.1921  0.2869
   87MOL0     O11640   3.305   8.143   9.620 -0.2653  0.6928 -0.8015
   87MOL0     C11641   3.222   8.036   9.622  0.0524  0.9138  0.7058
   87MOL0     C11642   3.241   7.930   9.712 -0.0392  0.8563 -0.1625
   87MOL0     C11643   3.150   7.826   9.730  0.4870 -0.5887 -0.9811
   87MOL0     C11644   3.036   7.821   9.651 -0.4254  0.0243  0.6475
   87MOL0     O11645   2.958   7.701   9.649  0.1786 -0.4095  0.3664
   87MOL0     C11646   2.821   7.697   9.688 -0.4854  0.1584  0.4371
   87MOL0     C11647   2.823   7.666   9.835  0.3651  0.5089 -0.2937
   87MOL0     C11648   2.692   7.661   9.913 -0.1314  0.0820 -0.0682
   87MOL0     C11649   2.589   7.564   9.859  0.3898  0.0970  0.8254
   87MOL0     C11650   2.504   7.483   9.957 -1.1785  0.0658 -1.1013
   87MOL0     C11651   2.412   7.567  10.042  0.2071  0.2155 -0.2431
   87MOL0     C11652   2.365   7.494  10.164  0.9002  0.1706 -0.2880
   87MOL0     C11653   2.313   7.354  10.127  0.1257 -0.4888  0.6911
   87MOL0    Cl11654   2.187   7.380  10.001 -0.1886 -0.7514  0.9162
   87MOL0     C11655   3.022   7.922   9.548  0.6219  0.4401 -0.7350
   87MOL0     C11656   3.117   8.022   9.532 -0.2847 -0.0257 -0.4331
   87MOL0     O11657   3.480   8.035   9.490  0.1496  0.2771  0.4117
   87MOL0     C11658   3.645   8.249   9.568 -0.4033  0.0940  0.4138
   87MOL0     C11659   3.728   8.364   9.573 -0.9916  0.0527 -0.3955
   87MOL0     N11660   4.173   8.609   9.001  0.3074  0.1690  0.6780
   87MOL0     N11661   4.287   8.664   8.974 -0.5943  0.7921  0.4134
   87MOL0     C11662   5.190   9.310   8.865  0.2699  0.7952  0.6642
   87MOL0     C11663   5.308   9.372   8.840 -0.0253  0.1760 -0.3147
   87MOL0     C11664   5.692   9.546   8.894 -0.6822  0.3362 -0.0616
   87MOL0     C11665   5.689   9.685   8.844  0.0704 -0.3721 -0.5432
   87MOL0     C11666   5.802   9.744   8.790  0.4471  0.1248  0.3235
   87MOL0     C11667   5.918   9.673   8.798  0.0639 -1.2029 -0.4417
   87MOL0     O11668   6.030   9.737   8.741  0.5065 -0.4578  0.1737
   87MOL0     C11669   6.069   9.684   8.616 -0.9123  0.4037 -0.0033
   87MOL0     C11670   6.203   9.753   8.576  0.2037  0.5679 -0.2711
   87MOL0     C11671   6.204   9.893   8.520  0.3322 -0.4453 -0.3162
   87MOL0     C11672   6.334   9.966   8.534 -0.3625 -0.5403 -0.3344
   87MOL0     C11673   6.300  10.110   8.532 -0.1021 -0.5873 -0.1068
   87MOL0     C11674   6.257  10.227   8.545  0.0788  0.4286 -0.2305
   87MOL0     C11675   5.930   9.555   8.865 -0.4560  0.0831  0.8479
   87MOL0     C11676   5.821   9.484   8.914  0.7250  1.5836  0.1503
   87MOL0     C11677   5.836   9.348   8.976 -0.4598  0.3833 -0.2100
   87MOL0     H11678   5.233   9.661   9.014 -0.1231  0.2780 -0.7614
   87MOL0     H11679   5.007   9.540   9.010 -0.3658 -1.2872  0.6573
   87MOL0     H11680   4.786   9.325   8.832 -0.0628  1.0784 -0.8248
   87MOL0     H11681   4.921   9.401   8.745  2.8284 -0.2020  0.3096
   87MOL0     H11682   5.000   9.199   8.662 -0.4775 -1.1752 -0.7331
   87MOL0     H11683   4.828   9.165   8.651  0.2793  1.7979 -2.4875
   87MOL0     H11684   5.004   9.051   8.871  0.0506 -0.5080 -0.7113
   87MOL0     H11685   4.927   8.986   8.727 -0.3490  0.6644  0.5628
   87MOL0     H11686   4.789   9.091   8.966  4.1754  0.0255 -0.0271
   87MOL0     H11687   4.702   9.028   8.811 -0.8320 -0.4138  1.5687
   87MOL0     H11688   4.785   8.816   8.841  0.2577 -0.9560  1.0955
   87MOL0     H11689   4.895   8.868   8.964  0.5143 -2.4243 -1.8114
   87MOL0     H11690   4.748   8.761   9.097  0.0930  1.9554  1.1950
   87MOL0     H11691   4.684   8.926   9.109 -0.0804  0.5890 -1.0060
   87MOL0     H11692   4.564   8.723   8.923  0.6263  0.4942 -1.4176
   87MOL0     H11693   4.517   8.898   8.951  2.7170  0.0573 -0.9188
   87MOL0     H11694   4.497   8.654   9.136  1.5777  0.3094 -1.1426
   87MOL0     H11695   4.466   8.815   9.193 -0.2447  0.1995 -1.0529
   87MOL0     H11696   4.217   8.785   9.263  2.1546  0.2202 -0.5286
   87MOL0     H11697   3.976   8.506   9.176 -1.0423  1.3684  1.2866
   87MOL0     H11698   4.068   8.553   9.313  1.4883  0.5477 -0.6773
   87MOL0     H11699   3.941   8.793   9.278 -0.1549 -0.6087 -0.4706
   87MOL0     H11700   3.863   8.714   9.144  0.9055 -2.1456 -1.0742
   87MOL0     H11701   3.752   8.559   9.305  1.7171 -0.2831 -0.5592
   87MOL0     H11702   3.722   8.735   9.351 -4.6098 -3.6155  3.3021
   87MOL0     H11703   3.884   8.729   9.511  0.0135 -0.8497  1.0055
   87MOL0     H11704   3.919   8.554   9.482 -0.4196 -0.8352 -2.8305
   87MOL0     H11705   3.499   8.596   9.621  1.2684  1.0035 -1.0911
   87MOL0     H11706   3.346   8.387   9.635 -0.4704 -3.3180  0.5574
   87MOL0     H11707   3.327   7.944   9.776  0.7103  1.2537 -1.2188
   87MOL0     H11708   3.173   7.752   9.806 -2.1739 -0.2476  0.2562
   87MOL0     H11709   2.780   7.795   9.664  0.2340  0.0030 -1.5576
   87MOL0     H11710   2.753   7.626   9.639 -1.1069  2.1150 -1.7073
   87MOL0     H11711   2.871   7.570   9.853  0.4225  0.4821 -0.5939
   87MOL0     H11712   2.880   7.746   9.883 -0.5049  0.5916  0.6409
   87MOL0     H11713   2.704   7.652  10.022  0.8872 -2.4121 -0.3182
   87MOL0     H11714   2.647   7.758   9.891 -0.0331  0.4209  1.1480
   87MOL0     H11715   2.640   7.499   9.787 -2.2752  1.2669 -2.3408
   87MOL0     H11716   2.521   7.620   9.795  0.2589 -0.7327  0.2173
   87MOL0     H11717   2.572   7.428  10.022 -1.2535  1.3437  0.0977
   87MOL0     H11718   2.442   7.416   9.896 -2.0102 -0.2745  0.0937
   87MOL0     H11719   2.468   7.650  10.084  0.9865 -0.1039 -0.6355
   87MOL0     H11720   2.334   7.615   9.982 -1.4196  1.8615  2.9455
   87MOL0     H11721   2.277   7.547  10.200  0.0280 -1.7121  0.4812
   87MOL0     H11722   2.442   7.494  10.242  1.4856  2.6121 -0.7878
   87MOL0     H11723   2.392   7.288  10.089 -1.0303 -0.6857 -1.5778
   87MOL0     H11724   2.269   7.308  10.216  1.0592  0.2048  1.5305
   87MOL0     H11725   2.938   7.913   9.480  1.6079 -2.2780 -1.7382
   87MOL0     H11726   3.104   8.088   9.446  2.7265  0.3890 -0.7079
   87MOL0     H11727   3.690   8.151   9.561  0.8221  0.6853 -0.5341
   87MOL0     H11728   3.836   8.356   9.565 -1.0802 -2.0929  0.0489
   87MOL0     H11729   5.176   9.206   8.835  0.8881  1.2222 -1.2179
   87MOL0     H11730   5.382   9.310   8.790  0.9791  2.2461 -1.5465
   87MOL0     H11731   5.598   9.743   8.828  0.6697  1.8500  3.0193
   87MOL0     H11732   5.799   9.844   8.748  1.6721 -0.8329 -2.3265
   87MOL0     H11733   5.990   9.698   8.541 -1.9704 -2.0316  0.5502
   87MOL0     H11734   6.096   9.578   8.627  2.6801  1.2413  0.4266
   87MOL0     H11735   6.258   9.689   8.507  0.2841 -1.4436  1.5648
   87MOL0     H11736   6.260   9.761   8.670  0.4788  1.2714 -0.4866
   87MOL0     H11737   6.123   9.944   8.575  1.5925  0.3917  0.8284
   87MOL0     H11738   6.174   9.892   8.415  2.9723 -0.4665 -1.1232
   87MOL0     H11739   6.368   9.935   8.633  0.5765  1.0483 -0.1339
   87MOL0     H11740   6.407   9.942   8.456  1.1904 -4.3834  1.9871
   87MOL0     H11741   6.221  10.328   8.540 -0.9484  0.0108 -1.9315
   87MOL0     H11742   6.029   9.510   8.856  0.1786  1.3345  1.2771
   87MOL0     H11743   5.938   9.321   9.005 -0.7446 -0.6421 -0.1049
   87MOL0     H11744   5.783   9.346   9.071  3.1350 -1.3612  1.9704
   87MOL0     H11745   5.791   9.265   8.921 -2.7431  0.6058  1.2245
   88MOL0     O11746   4.193  11.003   7.938  0.3474  0.1427 -0.3111
   88MOL0     C11747   4.184  11.120   7.977 -0.4656 -0.6868  0.3882
   88MOL0     O11748   4.264  11.232   7.935 -0.8177 -0.1684 -0.1300
   88MOL0     C11749   4.353  11.199   7.841  1.1890  0.3280  0.0682
   88MOL0     C11750   4.491  11.192   7.861  0.2695 -0.0618  0.2751
   88MOL0     C11751   4.578  11.162   7.753 -0.1643  0.2485 -0.0277
   88MOL0     C11752   4.528  11.124   7.627 -1.0999 -0.0642 -0.5718
   88MOL0     O11753   4.632  11.078   7.539  0.0907 -0.5361  0.5470
   88MOL0     C11754   4.603  11.110   7.396  0.7664  0.7738 -0.1100
   88MOL0     C11755   4.733  11.098   7.313 -0.5052 -0.3137  0.4107
   88MOL0     C11756   4.829  11.217   7.339  0.4928 -0.0814  0.0003
   88MOL0     C11757   4.961  11.208   7.261  1.3339 -0.2743 -0.4322
   88MOL0     C11758   5.060  11.087   7.302 -0.8513 -0.6140  0.2290
   88MOL0     C11759   5.160  11.061   7.188  0.0155  0.0790  0.3179
   88MOL0     C11760   5.249  11.187   7.175 -0.5944 -0.3079  0.9590
   88MOL0     C11761   5.361  11.147   7.079 -0.3547 -0.1349 -0.2670
   88MOL0     N11762   5.450  11.258   7.063  0.1768 -0.0102  0.5517
   88MOL0     C11763   5.522  11.310   7.172  0.0927 -0.5152 -0.1842
   88MOL0     C11764   5.599  11.404   7.120 -1.0995 -0.0729  0.7343
   88MOL0     C11765   5.724  11.488   7.170  0.5531  0.1969  0.1692
   88MOL0     C11766   5.847  11.404   7.216  0.1703 -0.8702  0.6027
   88MOL0     C11767   5.902  11.316   7.107  0.8576  0.0903 -0.1173
   88MOL0     C11768   5.952  11.391   6.982 -0.3674 -0.6646 -0.1170
   88MOL0     O11769   6.052  11.488   7.022  0.2690  0.4471 -0.1273
   88MOL0     C11770   6.191  11.473   7.007 -0.4120 -0.5494 -0.1721
   88MOL0     C11771   6.256  11.355   7.015 -0.3845  0.6941 -0.6910
   88MOL0     C11772   6.397  11.351   7.013  0.4716 -0.9275  0.2415
   88MOL0     C11773   6.475  11.474   7.006  0.0082  0.4792 -0.0619
   88MOL0     C11774   6.627  11.471   7.001 -0.6663 -0.1939 -0.5213
   88MOL0     O11775   6.678  11.341   6.998 -0.8207  0.3387  0.1072
   88MOL0     C11776   6.817  11.324   6.971  0.0264  0.3573 -0.8749
   88MOL0     C11777   6.908  11.334   7.079  0.3696 -0.0745  0.4671
   88MOL0     C11778   7.043  11.354   7.046  0.2959  0.3163  0.0832
   88MOL0     C11779   7.089  11.346   6.910  0.7327  0.1638 -0.3119
   88MOL0     O11780   7.217  11.368   6.867  0.8706 -0.0588  0.4345
   88MOL0     C11781   7.298  11.460   6.937  1.0937 -0.3407 -0.4098
   88MOL0     C11782   7.440  11.431   6.914 -0.6370 -0.0429  0.6089
   88MOL0     C11783   7.525  11.489   7.016  0.2745 -0.0306 -0.7076
   88MOL0     C11784   7.670  11.502   6.978  0.2491 -0.1121  0.6897
   88MOL0     C11785   7.768  11.550   7.086  0.2013 -0.3740  0.5500
   88MOL0     C11786   7.915  11.556   7.039  0.3013  0.3257  0.2587
   88MOL0     C11787   7.952  11.655   6.920 -0.9258 -0.9990  0.3190
   88MOL0     C11788   8.029  11.777   6.983 -0.7891  0.0169 -0.2537
   88MOL0    Cl11789   8.101  11.867   6.859 -0.1921  0.3972 -0.1473
   88MOL0     C11790   6.994  11.312   6.811 -0.5128 -0.1136  0.0159
   88MOL0     C11791   6.866  11.309   6.845 -0.4853  0.2430  0.0259
   88MOL0     O11792   6.695  11.579   7.008  0.0381  0.7729 -0.0248
   88MOL0     C11793   6.399  11.592   7.016  0.8303  0.4990 -0.1001
   88MOL0     C11794   6.255  11.594   7.007 -0.0459  0.3835 -0.1340
   88MOL0     N11795   5.575  11.406   6.984  0.2730 -0.2542 -0.6024
   88MOL0     N11796   5.479  11.332   6.959 -0.6786 -0.4230  0.0351
   88MOL0     C11797   4.389  11.130   7.601 -0.1308  0.6365 -0.7467
   88MOL0     C11798   4.304  11.159   7.712 -0.5837  0.5893 -0.7218
   88MOL0     C11799   4.064  11.164   8.053 -0.6554  0.9374 -0.6019
   88MOL0     C11800   4.015  11.295   8.031  0.5383 -0.0636  1.6589
   88MOL0     C11801   3.900  11.342   8.093  0.5029 -1.2934  0.0488
   88MOL0     C11802   3.832  11.254   8.182 -0.0005 -0.6861 -0.4050
   88MOL0     O11803   3.719  11.306   8.229  0.3084  0.0104  0.1557
   88MOL0     C11804   3.632  11.234   8.321 -0.6407 -0.3205  0.5006
   88MOL0     C11805   3.557  11.113   8.264 -0.6195  0.5483  1.0035
   88MOL0     C11806   3.409  11.100   8.319  0.6680 -0.2153 -0.2812
   88MOL0     C11807   3.411  11.054   8.477 -0.2120 -0.7799  0.6090
   88MOL0     C11808   3.459  10.916   8.490 -0.2968 -0.2725 -0.5138
   88MOL0     C11809   3.490  10.797   8.502 -0.5172  0.1296  0.5210
   88MOL0     C11810   3.886  11.129   8.219 -0.6388 -0.0955 -0.6551
   88MOL0     C11811   3.999  11.082   8.150  0.4764 -0.3403 -0.7666
   88MOL0     C11812   4.051  10.946   8.179  0.0704  0.0765  0.3847
   88MOL0     H11813   4.523  11.228   7.958  0.7513  0.2322  0.0121
   88MOL0     H11814   4.681  11.183   7.779 -0.9475  1.3344  2.4948
   88MOL0     H11815   4.533  11.032   7.364  1.6643  1.1961 -3.4681
   88MOL0     H11816   4.553  11.207   7.385 -1.6362 -0.1187  1.8385
   88MOL0     H11817   4.712  11.096   7.206  1.2909  0.4631  0.0047
   88MOL0     H11818   4.783  11.006   7.345 -1.0821 -0.7187  0.1428
   88MOL0     H11819   4.853  11.215   7.446  0.5262 -1.4005 -0.0129
   88MOL0     H11820   4.779  11.313   7.325 -0.9677 -0.9298 -0.8147
   88MOL0     H11821   4.940  11.209   7.154 -0.8341  1.8550 -0.0882
   88MOL0     H11822   5.014  11.301   7.283 -1.8040  1.6712 -0.3878
   88MOL0     H11823   5.108  11.099   7.400 -0.9526 -0.3909  0.2513
   88MOL0     H11824   4.996  10.999   7.316  2.1836 -2.9725  0.4461
   88MOL0     H11825   5.217  10.970   7.207 -2.8147 -2.0840 -0.8504
   88MOL0     H11826   5.095  11.041   7.103 -0.1773 -2.4833  1.0008
   88MOL0     H11827   5.278  11.221   7.274  1.0189  1.9146 -0.1826
   88MOL0     H11828   5.193  11.269   7.129 -1.5520 -0.4340  1.8590
   88MOL0     H11829   5.417  11.059   7.113  0.1947  0.0447 -0.6892
   88MOL0     H11830   5.327  11.116   6.979 -1.6730  0.7609 -0.1222
   88MOL0     H11831   5.528  11.281   7.277 -1.2120 -1.4367 -0.3411
   88MOL0     H11832   5.749  11.568   7.099 -1.2451  0.7821  0.1384
   88MOL0     H11833   5.681  11.548   7.251 -1.6552 -0.0629 -0.7179
   88MOL0     H11834   5.924  11.469   7.258 -0.0440  0.7051 -1.3065
   88MOL0     H11835   5.816  11.347   7.304 -0.0590 -1.5062  0.1179
   88MOL0     H11836   5.820  11.248   7.082  1.2324  0.2602 -1.9618
   88MOL0     H11837   5.985  11.255   7.145 -0.2715 -0.8252  0.9649
   88MOL0     H11838   5.878  11.439   6.917 -0.9829  0.5059  1.3963
   88MOL0     H11839   5.990  11.309   6.920 -1.9994 -2.5440  1.2545
   88MOL0     H11840   6.194  11.267   7.013  1.6533 -0.8395 -2.6760
   88MOL0     H11841   6.441  11.252   7.003  1.1479 -0.4828 -1.6866
   88MOL0     H11842   6.863  11.350   7.176 -1.4729  0.7619 -0.4797
   88MOL0     H11843   7.107  11.411   7.113 -0.4326  3.3752 -1.6346
   88MOL0     H11844   7.268  11.560   6.904  2.1761 -0.1571 -0.8883
   88MOL0     H11845   7.278  11.449   7.044 -0.2377  0.5386 -0.5452
   88MOL0     H11846   7.459  11.324   6.906 -2.5305 -0.2919 -3.0022
   88MOL0     H11847   7.479  11.470   6.819  2.4767 -2.3581  0.8071
   88MOL0     H11848   7.485  11.590   7.030 -0.5272 -0.2746 -1.1725
   88MOL0     H11849   7.507  11.430   7.106  0.0807  0.5885 -0.3264
   88MOL0     H11850   7.676  11.563   6.888  0.0589 -0.9109  0.1247
   88MOL0     H11851   7.709  11.403   6.954 -0.1017  0.1130 -0.9072
   88MOL0     H11852   7.763  11.489   7.177 -3.4540 -3.2832 -1.3468
   88MOL0     H11853   7.740  11.655   7.104  0.5367  0.3916 -2.7235
   88MOL0     H11854   7.973  11.588   7.126  0.9648 -3.2131  1.3182
   88MOL0     H11855   7.953  11.455   7.020 -2.9345 -1.3431  1.7747
   88MOL0     H11856   7.866  11.686   6.861 -1.5312 -2.7140  0.2302
   88MOL0     H11857   8.025  11.608   6.852 -1.0560  0.4663 -0.8751
   88MOL0     H11858   7.948  11.831   7.032 -3.1452 -3.3970 -0.0799
   88MOL0     H11859   8.106  11.739   7.051 -1.7553  2.0716  2.1312
   88MOL0     H11860   7.024  11.310   6.707 -1.7179  1.1496 -0.4025
   88MOL0     H11861   6.799  11.270   6.769  1.1252 -3.7909  0.4291
   88MOL0     H11862   6.446  11.689   7.029 -2.0524  2.5745 -3.2769
   88MOL0     H11863   6.189  11.680   7.007 -0.7559 -0.1555  0.1430
   88MOL0     H11864   4.346  11.094   7.508 -1.1045  0.6389 -0.3071
   88MOL0     H11865   4.196  11.155   7.700 -0.7632  1.2437  0.5943
   88MOL0     H11866   4.066  11.353   7.955  0.4386  1.6339  2.8462
   88MOL0     H11867   3.858  11.439   8.068  1.4711 -0.2619  2.1678
   88MOL0     H11868   3.562  11.312   8.354  1.8234  1.9950  0.5272
   88MOL0     H11869   3.686  11.205   8.412  1.3205  0.9024 -0.2206
   88MOL0     H11870   3.609  11.018   8.276 -1.8238 -0.6936 -2.3426
   88MOL0     H11871   3.552  11.114   8.155  0.8540 -0.7682  0.8810
   88MOL0     H11872   3.361  11.029   8.251 -1.3474 -1.0138  1.8677
   88MOL0     H11873   3.355  11.194   8.327 -0.7333 -1.1652  3.1619
   88MOL0     H11874   3.481  11.118   8.532  0.9971  1.0936 -2.8403
   88MOL0     H11875   3.318  11.061   8.534  0.1329 -1.3785  1.2680
   88MOL0     H11876   3.540  10.703   8.502 -1.1263 -0.2387 -1.3733
   88MOL0     H11877   3.836  11.069   8.295  0.4082  0.6847  0.6922
   88MOL0     H11878   4.019  10.876   8.101 -1.2338 -0.6863  1.5686
   88MOL0     H11879   4.160  10.940   8.181  0.2268  2.0946  1.7220
   88MOL0     H11880   4.022  10.903   8.275  0.2422 -0.0742  0.3691
   89MOL0     O11881   4.914   5.526   1.069  0.5419 -0.4818 -0.7007
   89MOL0     C11882   4.888   5.427   1.001 -1.1972  0.3054  0.7858
   89MOL0     O11883   4.956   5.312   1.006 -0.5068  0.2728  0.1074
   89MOL0     C11884   5.056   5.299   1.093  0.3599  0.0592 -0.2742
   89MOL0     C11885   5.194   5.308   1.051  0.6399 -0.5404 -0.0076
   89MOL0     C11886   5.300   5.296   1.138  0.4204  0.5244  0.1400
   89MOL0     C11887   5.272   5.288   1.273  0.5762  0.1178 -0.0686
   89MOL0     O11888   5.378   5.286   1.355 -0.6787 -0.0661  0.5245
   89MOL0     C11889   5.464   5.173   1.352  0.7372  0.3132  0.7528
   89MOL0     C11890   5.546   5.160   1.482  0.2674  0.8772  0.2047
   89MOL0     C11891   5.679   5.223   1.479 -0.5131 -0.0553  0.3237
   89MOL0     C11892   5.781   5.136   1.393 -0.6212 -0.3841 -0.3746
   89MOL0     C11893   5.924   5.193   1.374 -0.0788 -0.2966 -0.3253
   89MOL0     C11894   6.021   5.193   1.500 -1.0739  0.5533  0.0282
   89MOL0     C11895   6.076   5.055   1.537  0.5732  0.1252  0.5483
   89MOL0     C11896   6.187   5.077   1.647 -0.1630  0.0331  0.0755
   89MOL0     N11897   6.323   5.090   1.591  0.5568 -0.2293  0.0311
   89MOL0     C11898   6.362   5.129   1.466 -0.3984  0.4614 -0.5985
   89MOL0     C11899   6.497   5.134   1.476  0.0772  0.0404 -1.1572
   89MOL0     C11900   6.589   5.154   1.363 -0.2978 -0.5553  1.0380
   89MOL0     C11901   6.736   5.187   1.384  0.2064 -0.0604 -0.0479
   89MOL0     C11902   6.795   5.236   1.246  0.7387 -0.0668 -0.4441
   89MOL0     C11903   6.945   5.256   1.246 -0.2294 -0.6138  0.0490
   89MOL0     O11904   6.982   5.337   1.136  0.0407 -0.3858  0.4726
   89MOL0     C11905   7.116   5.360   1.111  0.1745 -0.2603  0.4623
   89MOL0     C11906   7.147   5.443   0.996 -0.9430  0.3987  0.0756
   89MOL0     C11907   7.275   5.471   0.958  0.1528 -0.6287 -0.4793
   89MOL0     C11908   7.386   5.420   1.045  0.3915 -0.5907  0.7382
   89MOL0     C11909   7.527   5.445   1.009 -0.0370  0.6558  0.5141
   89MOL0     O11910   7.619   5.409   1.099 -0.5666  0.4779 -0.7200
   89MOL0     C11911   7.755   5.440   1.096 -1.0264  0.9997  0.0613
   89MOL0     C11912   7.797   5.571   1.065  0.8353  0.3247 -0.4489
   89MOL0     C11913   7.930   5.597   1.050 -0.0970  0.0147  0.1946
   89MOL0     C11914   8.025   5.493   1.080  0.2154  0.1681  0.1736
   89MOL0     O11915   8.151   5.541   1.064 -0.4183  0.1902 -0.5537
   89MOL0     C11916   8.262   5.450   1.091 -0.6454 -0.2094  0.2204
   89MOL0     C11917   8.393   5.514   1.116 -0.3412 -0.9116  0.6918
   89MOL0     C11918   8.482   5.404   1.174 -0.3673  0.4009 -0.7802
   89MOL0     C11919   8.637   5.428   1.148 -1.2683 -0.1313  0.5493
   89MOL0     C11920   8.721   5.304   1.215  0.8257 -0.7299  0.7089
   89MOL0     C11921   8.729   5.194   1.103  0.3326  0.0555 -0.8268
   89MOL0     C11922   8.724   5.051   1.161 -0.0204 -0.5565 -0.2311
   89MOL0     C11923   8.746   4.959   1.035  0.5260 -0.6492  0.2927
   89MOL0    Cl11924   8.920   4.982   0.976 -0.0709 -0.0109 -0.2768
   89MOL0     C11925   7.984   5.363   1.098  0.9213 -0.2410 -0.2207
   89MOL0     C11926   7.848   5.336   1.107 -0.4453 -0.1002 -1.2051
   89MOL0     O11927   7.548   5.499   0.901 -0.5477 -0.3179 -0.8172
   89MOL0     C11928   7.352   5.345   1.161  0.3810 -0.1358 -0.3313
   89MOL0     C11929   7.217   5.328   1.196 -0.3311 -0.7164  0.7269
   89MOL0     N11930   6.531   5.096   1.602 -0.2332 -0.3321  0.1436
   89MOL0     N11931   6.427   5.080   1.675 -0.8045 -0.1126  0.3421
   89MOL0     C11932   5.136   5.289   1.318 -0.0222  0.1297 -0.4648
   89MOL0     C11933   5.030   5.290   1.225 -0.6663  0.0393  0.0721
   89MOL0     C11934   4.762   5.430   0.919  0.0489  0.6207 -0.5103
   89MOL0     C11935   4.687   5.313   0.898  0.0385  0.7491 -0.5370
   89MOL0     C11936   4.568   5.316   0.814 -0.6911  0.0254  0.7730
   89MOL0     C11937   4.517   5.438   0.764  0.7436  0.4861  0.6423
   89MOL0     O11938   4.409   5.455   0.678 -0.1373 -0.0629 -0.2631
   89MOL0     C11939   4.327   5.336   0.654  0.0474  1.0443  0.2993
   89MOL0     C11940   4.182   5.362   0.596  0.8539  0.7921  0.6683
   89MOL0     C11941   4.073   5.256   0.565  0.1702  0.1653 -0.2182
   89MOL0     C11942   4.000   5.212   0.685  0.2057  0.5180  0.3312
   89MOL0     C11943   3.909   5.103   0.649 -0.4790 -0.3646 -0.4643
   89MOL0     C11944   3.842   5.007   0.623 -0.7892  0.1544  0.0956
   89MOL0     C11945   4.584   5.548   0.802 -0.1016 -0.4246  0.9235
   89MOL0     C11946   4.706   5.552   0.871  0.3281  0.1922  0.0281
   89MOL0     C11947   4.787   5.687   0.878  0.0278 -1.2018  0.2557
   89MOL0     H11948   5.209   5.319   0.944 -1.5725 -3.0384 -0.6790
   89MOL0     H11949   5.402   5.291   1.101  0.3770  1.1259 -0.0627
   89MOL0     H11950   5.410   5.080   1.329  0.3372  0.4715  1.0441
   89MOL0     H11951   5.532   5.172   1.267  1.4241  1.8458  1.2510
   89MOL0     H11952   5.561   5.056   1.514  1.0770  1.2080  0.9572
   89MOL0     H11953   5.488   5.207   1.563 -1.6767  0.2939 -0.7738
   89MOL0     H11954   5.711   5.243   1.582  0.4311  0.3260 -0.0280
   89MOL0     H11955   5.689   5.318   1.425 -0.0749 -0.5519 -0.4818
   89MOL0     H11956   5.786   5.034   1.433  3.0924 -0.3666 -0.4036
   89MOL0     H11957   5.735   5.132   1.294 -1.1040  1.2444 -0.2373
   89MOL0     H11958   5.968   5.137   1.291 -0.0783 -1.2161  0.2880
   89MOL0     H11959   5.910   5.297   1.343 -2.5127 -0.8540 -1.3823
   89MOL0     H11960   6.100   5.264   1.477  0.1704 -1.1930 -1.4020
   89MOL0     H11961   5.974   5.230   1.591  0.7362  1.1990  0.7409
   89MOL0     H11962   6.101   4.991   1.452 -0.8694 -2.6852  2.1107
   89MOL0     H11963   5.999   5.000   1.592  1.3258 -0.2903  1.2229
   89MOL0     H11964   6.165   5.166   1.706 -4.6085 -2.2405  2.4340
   89MOL0     H11965   6.188   4.998   1.722  0.2292 -1.1354 -1.1190
   89MOL0     H11966   6.303   5.145   1.376  2.0888  0.8796 -2.2769
   89MOL0     H11967   6.572   5.076   1.288  0.6770  0.0145  0.2010
   89MOL0     H11968   6.550   5.242   1.312 -1.5036 -1.0597  1.0334
   89MOL0     H11969   6.735   5.266   1.459 -1.1336  0.6414 -0.7644
   89MOL0     H11970   6.781   5.095   1.422 -0.8345 -0.2717  0.7158
   89MOL0     H11971   6.754   5.334   1.223  2.6396  0.6084 -1.1317
   89MOL0     H11972   6.779   5.157   1.172  1.0495 -2.3120  1.7044
   89MOL0     H11973   6.996   5.160   1.231  0.0313 -0.0968 -2.9662
   89MOL0     H11974   6.959   5.304   1.343 -3.7517  1.0336 -0.1082
   89MOL0     H11975   7.062   5.481   0.939 -1.6138 -1.5758 -0.2954
   89MOL0     H11976   7.297   5.530   0.869 -0.7725  1.3563  0.5460
   89MOL0     H11977   7.715   5.641   1.053 -0.9887 -1.8987 -1.9116
   89MOL0     H11978   7.971   5.693   1.020  0.1204  0.3278  1.4362
   89MOL0     H11979   8.246   5.395   1.185  1.7549  0.2186  0.9333
   89MOL0     H11980   8.283   5.387   1.004 -0.2428 -0.7055  0.6667
   89MOL0     H11981   8.425   5.556   1.021  2.4917  1.1547  2.4042
   89MOL0     H11982   8.397   5.598   1.186  0.0739 -0.9075  0.6618
   89MOL0     H11983   8.473   5.405   1.283  0.0682 -0.0698 -0.7373
   89MOL0     H11984   8.455   5.303   1.142  1.9972 -0.3705 -0.5097
   89MOL0     H11985   8.672   5.518   1.200  0.3085  0.8369 -2.0157
   89MOL0     H11986   8.666   5.443   1.044  0.1026  1.6778  1.1397
   89MOL0     H11987   8.666   5.272   1.304  1.0151 -3.8425 -0.1541
   89MOL0     H11988   8.819   5.332   1.257 -0.7613  0.6428  3.7945
   89MOL0     H11989   8.639   5.195   1.041 -0.5172 -1.7899  0.2825
   89MOL0     H11990   8.824   5.214   1.053 -0.0077  0.3691 -1.3539
   89MOL0     H11991   8.631   5.042   1.217  0.1225  4.5606  1.3331
   89MOL0     H11992   8.808   5.035   1.230 -0.1555 -0.5570 -0.0657
   89MOL0     H11993   8.730   4.851   1.046 -2.2253 -0.7015 -2.6620
   89MOL0     H11994   8.666   4.972   0.962  0.5021 -0.5706  0.3322
   89MOL0     H11995   8.053   5.279   1.089  0.3373 -0.5323 -2.8855
   89MOL0     H11996   7.808   5.236   1.112 -0.8710  0.1349  1.0370
   89MOL0     H11997   7.431   5.305   1.224  1.4999  3.0320  0.5151
   89MOL0     H11998   7.202   5.273   1.289  0.4771 -1.8664  0.2045
   89MOL0     H11999   5.128   5.300   1.426 -3.3399  0.9182 -0.6645
   89MOL0     H12000   4.925   5.292   1.251 -0.1777  1.2856  2.1952
   89MOL0     H12001   4.709   5.210   0.924 -1.9615  0.8483  1.9307
   89MOL0     H12002   4.502   5.233   0.792 -1.1437  0.7344 -0.6391
   89MOL0     H12003   4.315   5.277   0.746  1.8270  1.0435  0.5766
   89MOL0     H12004   4.389   5.274   0.588  0.9688  1.8146  0.4268
   89MOL0     H12005   4.197   5.424   0.507  1.8168  1.6417  1.3952
   89MOL0     H12006   4.132   5.429   0.667 -2.9032  0.3275 -1.2447
   89MOL0     H12007   4.117   5.172   0.510 -0.4419 -0.0167 -0.4494
   89MOL0     H12008   4.002   5.294   0.491 -0.9702  2.1539  1.7874
   89MOL0     H12009   4.070   5.166   0.755  1.7535  0.8209 -0.9631
   89MOL0     H12010   3.944   5.300   0.720  0.0931  0.7616 -0.4485
   89MOL0     H12011   3.772   4.930   0.598 -1.5964  0.8754  0.0835
   89MOL0     H12012   4.534   5.633   0.758 -1.7738 -1.2888  1.0558
   89MOL0     H12013   4.895   5.672   0.864  0.5110  2.1126 -0.3668
   89MOL0     H12014   4.749   5.755   0.802 -0.7100  0.6231  2.1564
   89MOL0     H12015   4.768   5.723   0.980 -1.2042 -2.5545  0.5374
   90MOL0     O12016   3.483   7.480   6.726  0.5050 -0.3702  0.2377
   90MOL0     C12017   3.460   7.600   6.697  0.1293  0.1292 -0.0138
   90MOL0     O12018   3.540   7.686   6.636  0.5169 -0.6199 -0.5768
   90MOL0     C12019   3.660   7.640   6.582  0.1294 -0.4267 -0.3884
   90MOL0     C12020   3.754   7.565   6.651 -0.0278  0.3615 -0.5225
   90MOL0     C12021   3.878   7.533   6.589 -0.2382 -0.2084  0.4843
   90MOL0     C12022   3.907   7.587   6.465  0.8534 -0.1616 -0.5135
   90MOL0     O12023   4.020   7.559   6.394 -0.3733 -0.2820 -0.5398
   90MOL0     C12024   3.997   7.482   6.275  0.0840  0.1668 -0.9528
   90MOL0     C12025   3.938   7.338   6.308 -1.0290  0.0976 -0.1210
   90MOL0     C12026   4.042   7.252   6.385 -0.2005  0.3230 -0.0566
   90MOL0     C12027   3.988   7.116   6.437  0.8825  0.1929  1.1692
   90MOL0     C12028   4.071   7.023   6.522 -0.7829  0.3252 -0.0844
   90MOL0     C12029   4.198   6.989   6.442  0.7245 -0.2850  0.4148
   90MOL0     C12030   4.266   6.867   6.499 -0.4184  0.9077 -0.9933
   90MOL0     C12031   4.340   6.892   6.631  1.0690  0.2588  0.6086
   90MOL0     N12032   4.403   6.762   6.663 -0.3906 -0.4589 -0.2771
   90MOL0     C12033   4.519   6.708   6.608 -0.1758 -0.2384  0.5495
   90MOL0     C12034   4.551   6.608   6.688  0.2309 -0.0414 -0.8045
   90MOL0     C12035   4.674   6.531   6.668  0.5651  0.3058 -0.2566
   90MOL0     C12036   4.777   6.603   6.752 -0.3854 -0.2057 -0.1292
   90MOL0     C12037   4.916   6.540   6.728 -0.6743 -0.1347 -0.6065
   90MOL0     C12038   5.030   6.598   6.816 -0.1825 -0.9359  1.3676
   90MOL0     O12039   5.138   6.507   6.790 -0.2387  0.5750  0.1515
   90MOL0     C12040   5.262   6.552   6.834  0.1664 -0.2656 -0.0985
   90MOL0     C12041   5.377   6.471   6.808 -0.5492 -0.0091 -0.1932
   90MOL0     C12042   5.503   6.504   6.860 -0.9059 -0.9284  0.2168
   90MOL0     C12043   5.520   6.629   6.922 -0.2720  0.1750  0.5178
   90MOL0     C12044   5.654   6.668   6.978  0.0006 -0.0992  0.4478
   90MOL0     O12045   5.750   6.568   7.003  0.2979 -0.4193  0.1905
   90MOL0     C12046   5.853   6.583   7.099  0.6487  0.2388  0.4939
   90MOL0     C12047   5.919   6.466   7.117 -0.6407  0.2015 -0.4699
   90MOL0     C12048   6.034   6.460   7.189 -0.9493  0.8949 -0.4441
   90MOL0     C12049   6.062   6.565   7.282  0.0596  0.3855  0.3249
   90MOL0     O12050   6.171   6.583   7.363  0.1035  0.0007  0.0974
   90MOL0     C12051   6.234   6.457   7.403 -0.7348  0.1079 -0.4858
   90MOL0     C12052   6.346   6.498   7.503 -0.0060 -1.2908  0.1047
   90MOL0     C12053   6.386   6.379   7.583  0.4032 -0.5066 -0.6676
   90MOL0     C12054   6.519   6.407   7.659  0.7014  0.3736 -0.7687
   90MOL0     C12055   6.507   6.522   7.770 -0.7999  0.0186 -0.1658
   90MOL0     C12056   6.642   6.559   7.845 -0.3959  0.0938 -0.2903
   90MOL0     C12057   6.620   6.695   7.924 -0.1285 -0.4831 -0.6679
   90MOL0     C12058   6.758   6.762   7.942  0.2008  0.5345  0.0618
   90MOL0    Cl12059   6.828   6.818   7.789 -0.0645 -0.1443 -0.0574
   90MOL0     C12060   5.982   6.676   7.290 -0.4975 -0.2010 -0.7376
   90MOL0     C12061   5.886   6.683   7.191  0.4423  0.0024 -0.5505
   90MOL0     O12062   5.668   6.785   7.016  0.4043 -1.0927  0.1912
   90MOL0     C12063   5.408   6.700   6.951 -0.6098  0.2196 -0.4688
   90MOL0     C12064   5.280   6.671   6.914 -0.8289  0.0672  0.0613
   90MOL0     N12065   4.473   6.614   6.804 -0.1734 -0.2826  0.4763
   90MOL0     N12066   4.386   6.704   6.786 -0.0884  0.9843  0.4265
   90MOL0     C12067   3.825   7.687   6.412 -0.0071  0.4569 -0.0047
   90MOL0     C12068   3.704   7.707   6.470  0.6263  0.4717  0.3827
   90MOL0     C12069   3.328   7.661   6.733  0.2853  0.6178 -0.5943
   90MOL0     C12070   3.279   7.629   6.861  0.2849 -0.3768  0.4694
   90MOL0     C12071   3.159   7.688   6.902 -0.1634  0.1778 -0.3735
   90MOL0     C12072   3.089   7.785   6.828 -0.4707  0.0031  0.2154
   90MOL0     O12073   2.971   7.843   6.878 -0.1053  0.2566  0.4771
   90MOL0     C12074   2.908   7.797   6.995  0.8037  1.1198 -0.1462
   90MOL0     C12075   2.771   7.859   7.013  0.2533 -0.3318 -0.1867
   90MOL0     C12076   2.800   8.012   7.018  0.0273 -0.2352 -0.2606
   90MOL0     C12077   2.684   8.090   7.087  0.3306 -0.5139 -0.0092
   90MOL0     C12078   2.686   8.070   7.229 -0.1271  0.0666 -0.1020
   90MOL0     C12079   2.710   8.043   7.342  0.5819  0.3173  0.0186
   90MOL0     C12080   3.139   7.806   6.701  0.3693  1.2430  0.1365
   90MOL0     C12081   3.261   7.750   6.649  0.2223 -0.6877  0.1675
   90MOL0     C12082   3.301   7.786   6.503 -0.5893 -0.0830 -0.2253
   90MOL0     H12083   3.733   7.522   6.749 -0.2666 -0.0861 -0.7680
   90MOL0     H12084   3.955   7.470   6.631  1.0257  0.8195 -0.1950
   90MOL0     H12085   3.930   7.532   6.204 -0.4197 -0.5321 -0.9781
   90MOL0     H12086   4.095   7.471   6.227  2.0726  3.3088  1.9822
   90MOL0     H12087   3.921   7.291   6.211  5.2298  0.8403 -2.0502
   90MOL0     H12088   3.848   7.331   6.369 -1.7390 -1.5564 -1.2799
   90MOL0     H12089   4.086   7.309   6.468 -1.1106  2.5386 -1.0260
   90MOL0     H12090   4.120   7.236   6.310 -0.7238  1.3912 -0.8564
   90MOL0     H12091   3.895   7.145   6.487 -1.3135 -1.3731 -1.7060
   90MOL0     H12092   3.961   7.071   6.341  0.8828  3.7279 -0.6676
   90MOL0     H12093   4.087   7.066   6.621 -0.7809 -0.5528  0.3029
   90MOL0     H12094   4.013   6.930   6.532 -0.1402 -0.1867 -0.9952
   90MOL0     H12095   4.162   6.978   6.339  0.1432  0.0825  0.5717
   90MOL0     H12096   4.267   7.075   6.442  0.5456 -0.1357  1.5139
   90MOL0     H12097   4.342   6.828   6.431 -0.2810  1.2579 -1.0444
   90MOL0     H12098   4.196   6.783   6.508 -0.2879  0.8856 -0.1301
   90MOL0     H12099   4.415   6.972   6.627  1.0455  0.2775  0.5453
   90MOL0     H12100   4.259   6.919   6.699  0.2964 -0.0078 -0.1821
   90MOL0     H12101   4.576   6.734   6.520  0.9367  1.0151  1.5845
   90MOL0     H12102   4.664   6.425   6.691 -1.4642  0.8323  1.5647
   90MOL0     H12103   4.702   6.547   6.563 -0.7206  1.1037 -0.4949
   90MOL0     H12104   4.774   6.710   6.731 -1.8377 -0.4485 -1.3347
   90MOL0     H12105   4.744   6.583   6.855 -0.2203 -0.6393 -0.1593
   90MOL0     H12106   4.937   6.567   6.624  0.8939 -2.9900 -1.1130
   90MOL0     H12107   4.912   6.432   6.738 -0.7269 -0.0408  0.4914
   90MOL0     H12108   5.011   6.594   6.923 -3.7553  0.5233  0.9096
   90MOL0     H12109   5.063   6.697   6.786  1.6172 -1.6993  0.6705
   90MOL0     H12110   5.362   6.383   6.747  1.7318 -1.3361  1.0418
   90MOL0     H12111   5.587   6.435   6.858  0.2035  0.2825  2.1569
   90MOL0     H12112   5.897   6.379   7.057 -1.6803  0.9918 -1.2601
   90MOL0     H12113   6.104   6.377   7.182 -1.2004  0.4037  1.9359
   90MOL0     H12114   6.154   6.408   7.459 -0.0434 -0.8942 -0.3339
   90MOL0     H12115   6.273   6.395   7.322  0.1940  1.5467 -1.1740
   90MOL0     H12116   6.432   6.538   7.449 -1.2411 -0.3691 -1.2539
   90MOL0     H12117   6.298   6.578   7.559  1.9914 -1.8473  2.8054
   90MOL0     H12118   6.311   6.350   7.657  0.8668  0.9672  0.4326
   90MOL0     H12119   6.409   6.296   7.516  2.7479  0.0396 -0.6395
   90MOL0     H12120   6.592   6.429   7.581  1.5580 -0.8121 -0.3204
   90MOL0     H12121   6.553   6.318   7.713 -3.4802 -1.5190 -0.8294
   90MOL0     H12122   6.429   6.493   7.842 -2.1503  1.0337 -1.1823
   90MOL0     H12123   6.481   6.612   7.714 -0.0065  0.2647 -0.1404
   90MOL0     H12124   6.684   6.474   7.899  2.2252  1.5007  0.0652
   90MOL0     H12125   6.715   6.568   7.764  0.2877 -0.1237  0.2866
   90MOL0     H12126   6.594   6.679   8.029 -1.2716  4.1240 -0.0335
   90MOL0     H12127   6.546   6.758   7.874 -1.2733  0.4811  2.0636
   90MOL0     H12128   6.740   6.842   8.016 -0.1180 -2.0083  2.9229
   90MOL0     H12129   6.841   6.713   7.993  0.9177  1.6368 -0.0033
   90MOL0     H12130   6.007   6.750   7.365  1.1352 -2.4324  1.0846
   90MOL0     H12131   5.845   6.783   7.201  3.7498  1.4025  0.1942
   90MOL0     H12132   5.416   6.791   7.010  2.5504  0.7429 -1.5589
   90MOL0     H12133   5.200   6.733   6.955 -1.0392 -0.0803 -0.1206
   90MOL0     H12134   3.850   7.716   6.310  2.8135 -1.1012  0.1334
   90MOL0     H12135   3.636   7.782   6.432  0.0024  0.2346  1.0109
   90MOL0     H12136   3.331   7.551   6.915  1.7226  0.2543  0.0423
   90MOL0     H12137   3.127   7.649   6.998  0.0570  2.2161  0.5896
   90MOL0     H12138   2.976   7.827   7.076 -1.1099 -0.2239  2.0918
   90MOL0     H12139   2.897   7.689   6.987 -2.0111  1.2997  0.2625
   90MOL0     H12140   2.720   7.835   7.106  2.7723  0.8468  1.6079
   90MOL0     H12141   2.712   7.845   6.922 -0.3690  2.1130 -0.2463
   90MOL0     H12142   2.833   8.066   6.928  0.8167  0.7186  0.5807
   90MOL0     H12143   2.894   8.025   7.072  1.4069  0.0648 -2.5754
   90MOL0     H12144   2.701   8.197   7.076  0.9654 -0.2990  2.4912
   90MOL0     H12145   2.586   8.062   7.046 -0.0382  2.1288 -1.1241
   90MOL0     H12146   2.726   8.007   7.441 -0.5158 -3.5122 -0.9906
   90MOL0     H12147   3.079   7.872   6.640 -0.6374  2.8911  2.7475
   90MOL0     H12148   3.325   7.703   6.437 -1.1424  1.2798 -2.2279
   90MOL0     H12149   3.215   7.837   6.458  0.1734  0.1837 -1.4103
   90MOL0     H12150   3.387   7.853   6.512 -1.3967  0.8286  1.1280
   91MOL0     O12151  10.205  10.614   0.519 -0.4906  0.1108 -0.1638
   91MOL0     C12152  10.181  10.504   0.574 -0.3258 -0.3988 -0.4864
   91MOL0     O12153  10.284  10.427   0.635 -0.3917 -0.6271  0.0952
   91MOL0     C12154  10.411  10.465   0.595 -0.2498 -0.4147 -0.6872
   91MOL0     C12155  10.482  10.557   0.678 -0.3124 -0.9204 -0.8562
   91MOL0     C12156  10.613  10.601   0.646  0.0531  0.0610 -0.1489
   91MOL0     C12157  10.671  10.570   0.526  1.4611  0.2777  0.7773
   91MOL0     O12158  10.781  10.644   0.478  0.0380 -0.3222 -0.9721
   91MOL0     C12159  10.818  10.633   0.341  0.1822  0.2484  0.8752
   91MOL0     C12160  10.935  10.726   0.311 -1.2451  0.3312 -0.4390
   91MOL0     C12161  11.065  10.662   0.353  0.7512 -0.1441 -0.5837
   91MOL0     C12162  11.165  10.770   0.372  0.4238  0.6588 -0.1849
   91MOL0     C12163  11.306  10.713   0.391 -0.2018 -0.2894 -0.4968
   91MOL0     C12164  11.405  10.823   0.435  0.5633 -0.1722  0.5746
   91MOL0     C12165  11.538  10.773   0.504  0.2523 -0.0336 -0.7948
   91MOL0     C12166  11.613  10.689   0.407 -0.4046 -1.2091 -0.1342
   91MOL0     N12167  11.730  10.637   0.482 -0.0980  0.4602  0.2503
   91MOL0     C12168  11.866  10.669   0.483  0.2011 -1.1164  0.2017
   91MOL0     C12169  11.928  10.566   0.545 -0.1773 -0.1234 -0.1083
   91MOL0     C12170  12.073  10.563   0.572  0.9021  0.0441 -0.8483
   91MOL0     C12171  12.161  10.589   0.448 -0.4360 -0.2429  0.5465
   91MOL0     C12172  12.151  10.490   0.334  0.1581  0.1831 -0.2727
   91MOL0     C12173  12.258  10.501   0.231 -0.2796 -0.2328 -0.1646
   91MOL0     O12174  12.386  10.462   0.280  0.8777 -0.2478 -0.1457
   91MOL0     C12175  12.485  10.443   0.196 -0.5277  0.0487 -0.1259
   91MOL0     C12176  12.479  10.468   0.057 -0.2911  0.5810 -0.2902
   91MOL0     C12177  12.592  10.429  -0.034  0.4303  0.3877 -0.8083
   91MOL0     C12178  12.702  10.364   0.016  0.9373 -0.0599 -0.0715
   91MOL0     C12179  12.806  10.309  -0.070 -0.2284  0.2644 -0.6220
   91MOL0     O12180  12.912  10.240  -0.010 -0.1406  0.5645  0.9035
   91MOL0     C12181  13.002  10.163  -0.087 -0.5064  0.8803 -0.4182
   91MOL0     C12182  13.125  10.143  -0.023 -0.0085 -0.2227 -0.2715
   91MOL0     C12183  13.222  10.062  -0.080 -1.0077 -0.4851  0.3406
   91MOL0     C12184  13.208  10.006  -0.201  0.4305 -0.2764  0.2797
   91MOL0     O12185  13.324   9.941  -0.247  0.3933  0.3484  1.0024
   91MOL0     C12186  13.310   9.839  -0.347  0.3667  0.2487 -0.0613
   91MOL0     C12187  13.444   9.784  -0.393 -0.4008  0.2108  0.4560
   91MOL0     C12188  13.535   9.721  -0.285 -0.6476  0.4912 -0.5071
   91MOL0     C12189  13.478   9.611  -0.198 -0.0188 -0.1930 -0.0934
   91MOL0     C12190  13.578   9.526  -0.120  0.0469 -0.8407 -1.2642
   91MOL0     C12191  13.648   9.612  -0.011 -0.8499  0.0355 -0.0227
   91MOL0     C12192  13.757   9.541   0.065  0.3658  0.9670 -0.3476
   91MOL0     C12193  13.840   9.631   0.151  0.3935 -0.2641 -0.3882
   91MOL0    Cl12194  13.938   9.518   0.245 -0.3372  0.2253  0.1306
   91MOL0     C12195  13.090  10.036  -0.277 -0.4444  0.1835 -0.2095
   91MOL0     C12196  12.985  10.103  -0.216  0.1714  0.4655  0.0910
   91MOL0     O12197  12.787  10.308  -0.194 -0.5840 -0.5995 -0.5986
   91MOL0     C12198  12.705  10.353   0.162 -0.0633 -0.3049  0.2102
   91MOL0     C12199  12.603  10.391   0.254 -0.0253 -0.9010 -0.8725
   91MOL0     N12200  11.829  10.483   0.585 -0.4492  0.5061 -1.0380
   91MOL0     N12201  11.709  10.523   0.550  0.5825 -0.3977  0.0030
   91MOL0     C12202  10.612  10.467   0.452 -0.6062  0.4235  0.3411
   91MOL0     C12203  10.480  10.414   0.488 -0.5897 -0.6328 -0.2381
   91MOL0     C12204  10.045  10.449   0.557 -0.7150 -0.7365  0.0796
   91MOL0     C12205  10.028  10.310   0.572 -0.1415 -0.5421  0.0848
   91MOL0     C12206   9.907  10.246   0.575 -0.0390  0.0747  0.4167
   91MOL0     C12207   9.790  10.332   0.551 -0.5379  0.2756 -0.1971
   91MOL0     O12208   9.660  10.285   0.542 -0.4427  0.4122 -0.1951
   91MOL0     C12209   9.632  10.145   0.554 -0.8912 -0.1987  0.0970
   91MOL0     C12210   9.480  10.132   0.562  0.1443 -0.3637 -1.3742
   91MOL0     C12211   9.427  10.201   0.690 -0.3586 -0.2412  0.5937
   91MOL0     C12212   9.281  10.186   0.694 -0.0993 -0.3821 -0.4076
   91MOL0     C12213   9.233  10.222   0.830 -0.9053  0.4537 -0.6584
   91MOL0     C12214   9.196  10.273   0.938 -0.7657  0.9347 -0.3418
   91MOL0     C12215   9.804  10.471   0.541 -0.4744 -0.2648  0.0688
   91MOL0     C12216   9.929  10.529   0.532  0.1020  0.5387  0.0349
   91MOL0     C12217   9.929  10.673   0.505  0.2154  0.0143 -0.0101
   91MOL0     H12218  10.439  10.582   0.774  0.8098  0.7841 -0.7507
   91MOL0     H12219  10.666  10.672   0.708 -0.1949 -0.2949  0.4782
   91MOL0     H12220  10.844  10.530   0.315 -0.1291  0.6816 -1.3214
   91MOL0     H12221  10.728  10.656   0.283  1.1090 -0.9147 -1.1431
   91MOL0     H12222  10.923  10.820   0.364  2.2001  0.0420  1.0988
   91MOL0     H12223  10.941  10.759   0.207 -1.6925  0.0900 -0.5440
   91MOL0     H12224  11.083  10.584   0.278 -2.9649  1.0317 -2.9790
   91MOL0     H12225  11.055  10.618   0.452  0.6058  1.4177  0.1288
   91MOL0     H12226  11.174  10.837   0.287  3.0213 -0.7670 -1.1611
   91MOL0     H12227  11.137  10.822   0.464 -0.6234 -1.6088  0.8643
   91MOL0     H12228  11.292  10.634   0.466 -1.1027 -2.3946 -2.7608
   91MOL0     H12229  11.331  10.663   0.297 -1.8574 -1.3547 -0.4055
   91MOL0     H12230  11.437  10.882   0.349  0.4729 -1.6521 -0.5226
   91MOL0     H12231  11.347  10.888   0.501  1.1386  2.8919 -1.7005
   91MOL0     H12232  11.499  10.718   0.590  0.9142  1.6533  0.6495
   91MOL0     H12233  11.591  10.857   0.551  0.2923 -0.4855 -0.0109
   91MOL0     H12234  11.552  10.610   0.363 -0.4249  0.9364 -4.5372
   91MOL0     H12235  11.641  10.749   0.320 -1.1132  0.1293  0.5194
   91MOL0     H12236  11.908  10.760   0.441 -0.9933 -1.0881 -0.9985
   91MOL0     H12237  12.084  10.631   0.657 -0.5994 -2.1356  1.2386
   91MOL0     H12238  12.097  10.460   0.602 -3.5450 -1.0672 -0.4445
   91MOL0     H12239  12.134  10.685   0.402 -3.7178 -2.5897 -3.0718
   91MOL0     H12240  12.267  10.596   0.476  1.1643  1.8094 -4.8316
   91MOL0     H12241  12.061  10.503   0.273 -0.8904 -2.2017  0.6626
   91MOL0     H12242  12.162  10.391   0.380 -0.6066  0.8046  1.3107
   91MOL0     H12243  12.269  10.605   0.201 -1.3201 -0.3099 -0.8548
   91MOL0     H12244  12.230  10.432   0.150 -5.0565  0.0191  0.9878
   91MOL0     H12245  12.394  10.516   0.009  0.1122  1.7438  0.1212
   91MOL0     H12246  12.585  10.439  -0.142 -0.5683 -0.2906 -0.8203
   91MOL0     H12247  13.149  10.193   0.070  0.7681 -0.5734 -0.2769
   91MOL0     H12248  13.317  10.045  -0.030 -1.0494 -0.9557  0.2622
   91MOL0     H12249  13.250   9.753  -0.318  0.9181  0.2210  1.0408
   91MOL0     H12250  13.261   9.886  -0.433  1.6726 -1.3394 -1.7553
   91MOL0     H12251  13.430   9.703  -0.465 -1.4036  1.1498 -0.4379
   91MOL0     H12252  13.515   9.856  -0.436  1.8772  0.4607  4.2130
   91MOL0     H12253  13.624   9.677  -0.331 -0.0891  0.1405  0.8636
   91MOL0     H12254  13.567   9.792  -0.209 -4.0572 -1.0960  2.7410
   91MOL0     H12255  13.423   9.538  -0.258  2.3060 -0.4141 -2.0847
   91MOL0     H12256  13.412   9.657  -0.124 -1.0886  0.8889 -1.6603
   91MOL0     H12257  13.648   9.474  -0.187  0.4287  0.1456 -1.6533
   91MOL0     H12258  13.529   9.440  -0.073  1.5569 -0.7078  0.6642
   91MOL0     H12259  13.700   9.697  -0.055  2.9838 -2.1526 -0.2135
   91MOL0     H12260  13.563   9.643   0.050  0.0644 -0.2381  1.4505
   91MOL0     H12261  13.821   9.488  -0.006 -1.6027 -0.7998 -0.8896
   91MOL0     H12262  13.715   9.465   0.130  1.3286 -0.7518 -1.6448
   91MOL0     H12263  13.897   9.702   0.089 -0.7735  1.0621 -0.0005
   91MOL0     H12264  13.775   9.692   0.215  0.0647 -0.0796 -0.8929
   91MOL0     H12265  13.083  10.005  -0.381 -0.3821  1.5147 -0.6280
   91MOL0     H12266  12.903  10.122  -0.284  1.3778  1.2521 -1.1762
   91MOL0     H12267  12.791  10.298   0.199  0.8539  1.3408  0.6418
   91MOL0     H12268  12.614  10.362   0.358  1.7520 -2.1796 -1.3643
   91MOL0     H12269  10.658  10.428   0.361 -2.2496  0.6991 -0.6506
   91MOL0     H12270  10.435  10.343   0.419 -0.8473 -0.0844 -0.6413
   91MOL0     H12271  10.121  10.263   0.603  0.1428 -0.9152 -1.2484
   91MOL0     H12272   9.903  10.138   0.588 -2.2010  0.1730  0.8875
   91MOL0     H12273   9.682  10.109   0.645  2.9854  1.2315 -1.2692
   91MOL0     H12274   9.661  10.097   0.461 -0.0523  1.7018 -0.6751
   91MOL0     H12275   9.431  10.034   0.567 -4.6987  1.7723  1.2211
   91MOL0     H12276   9.427  10.177   0.477 -1.8676  0.4003  0.1752
   91MOL0     H12277   9.452  10.307   0.685 -2.7411  0.4303  1.3251
   91MOL0     H12278   9.460  10.154   0.783 -1.2520 -1.5505  0.2877
   91MOL0     H12279   9.239  10.252   0.618  1.5330  1.5900  0.2818
   91MOL0     H12280   9.246  10.083   0.681 -2.1492  0.4265 -1.5554
   91MOL0     H12281   9.172  10.298   1.039 -1.7796 -0.0785 -0.3082
   91MOL0     H12282   9.714  10.530   0.531 -1.7171 -2.0877  0.1038
   91MOL0     H12283   9.970  10.717   0.596  0.7267 -2.1380  0.8791
   91MOL0     H12284   9.984  10.708   0.416 -1.8031  2.4777 -0.3814
   91MOL0     H12285   9.826  10.704   0.488  0.3552  0.4842 -0.0177
   92MOL0     O12286   8.066   2.904   4.920  0.5231 -0.3706 -0.1795
   92MOL0     C12287   8.029   2.801   4.972 -0.0495  0.0820 -0.6160
   92MOL0     O12288   8.093   2.725   5.067 -0.4682 -0.1143 -0.2498
   92MOL0     C12289   8.224   2.760   5.078 -0.4230  0.2153 -0.3123
   92MOL0     C12290   8.326   2.666   5.043  0.0377  0.2010 -0.1015
   92MOL0     C12291   8.461   2.711   5.054 -0.6063  1.2961  0.4012
   92MOL0     C12292   8.485   2.839   5.117  0.1581 -1.8035 -0.1125
   92MOL0     O12293   8.609   2.880   5.163 -0.4209  0.4061  0.1640
   92MOL0     C12294   8.715   2.790   5.149  0.2315 -0.0031 -0.0298
   92MOL0     C12295   8.842   2.859   5.193 -0.3172 -0.5302  0.4862
   92MOL0     C12296   8.879   2.996   5.104 -0.0385  0.5155  0.0308
   92MOL0     C12297   9.030   3.023   5.136 -0.1745  1.2211 -0.8962
   92MOL0     C12298   9.080   3.156   5.074 -0.3609 -0.1442  0.0026
   92MOL0     C12299   9.086   3.137   4.917 -0.0971  0.5800 -0.5084
   92MOL0     C12300   9.156   3.256   4.853  0.3753  0.2813  0.4134
   92MOL0     C12301   9.164   3.245   4.698  0.2546  0.8290  0.1487
   92MOL0     N12302   9.253   3.352   4.656 -0.7552 -0.9601  0.2387
   92MOL0     C12303   9.223   3.490   4.649  0.5778  1.0737 -0.2764
   92MOL0     C12304   9.341   3.556   4.652 -0.5445  0.5614  0.3129
   92MOL0     C12305   9.357   3.701   4.659 -0.7815  0.1024  0.0992
   92MOL0     C12306   9.406   3.756   4.531 -0.1250  0.1676  0.3609
   92MOL0     C12307   9.501   3.879   4.543 -0.4038  0.5053  0.2197
   92MOL0     C12308   9.647   3.837   4.583 -0.2333  0.1713  0.1398
   92MOL0     O12309   9.717   3.768   4.481  0.1610 -0.4717  0.6975
   92MOL0     C12310   9.850   3.756   4.521  0.0408  0.0933  0.4417
   92MOL0     C12311   9.912   3.636   4.550  0.0836 -0.2424  0.7855
   92MOL0     C12312  10.055   3.628   4.584  0.4725  0.2626 -0.0180
   92MOL0     C12313  10.126   3.750   4.586  0.3092 -0.2282 -0.4366
   92MOL0     C12314  10.272   3.745   4.617 -0.6000 -0.9683 -1.4106
   92MOL0     O12315  10.337   3.633   4.581  0.4370  0.1613 -0.2251
   92MOL0     C12316  10.470   3.644   4.572 -0.7622 -0.7206  0.6198
   92MOL0     C12317  10.534   3.747   4.512  0.1267 -1.0997  0.5467
   92MOL0     C12318  10.671   3.740   4.476 -0.3189 -0.5252  0.0645
   92MOL0     C12319  10.753   3.631   4.516  0.3686 -0.1410  0.2501
   92MOL0     O12320  10.881   3.625   4.472  0.8719  0.0224  0.2533
   92MOL0     C12321  10.979   3.617   4.581  0.5950  0.8397 -0.5747
   92MOL0     C12322  11.121   3.655   4.537  0.0810  1.0204 -0.4597
   92MOL0     C12323  11.131   3.792   4.482  0.7368  0.6887  0.4935
   92MOL0     C12324  11.259   3.810   4.392  0.1225  0.6127 -1.4823
   92MOL0     C12325  11.290   3.961   4.370  0.6041 -0.6934 -0.2864
   92MOL0     C12326  11.187   4.022   4.276 -0.1518 -0.6193 -0.2081
   92MOL0     C12327  11.220   4.168   4.254 -0.5815 -0.0484  0.5388
   92MOL0     C12328  11.175   4.229   4.125 -0.2681  0.2587  0.3235
   92MOL0    Cl12329  11.000   4.209   4.098  0.2300 -0.1950  0.0030
   92MOL0     C12330  10.693   3.541   4.606  0.2289  0.5806  0.4808
   92MOL0     C12331  10.556   3.548   4.630  0.6090  0.2986  0.4372
   92MOL0     O12332  10.326   3.844   4.667 -0.0554  0.1464 -0.3655
   92MOL0     C12333  10.060   3.868   4.552  0.9841 -0.1148 -0.3111
   92MOL0     C12334   9.927   3.872   4.511  0.7450 -0.2305 -0.3433
   92MOL0     N12335   9.438   3.456   4.651 -0.1350  0.3142  0.4953
   92MOL0     N12336   9.386   3.336   4.661 -1.0366 -0.5896 -0.0343
   92MOL0     C12337   8.384   2.923   5.163  0.9295  0.3893  0.7562
   92MOL0     C12338   8.253   2.877   5.143  0.9852 -0.6715 -0.2968
   92MOL0     C12339   7.899   2.741   4.932  0.3860 -0.1964  0.9341
   92MOL0     C12340   7.862   2.610   4.983 -1.0209 -0.6623 -1.0620
   92MOL0     C12341   7.734   2.554   4.955 -0.4860 -0.1150 -0.7668
   92MOL0     C12342   7.639   2.612   4.876  0.3604 -0.3719 -0.6253
   92MOL0     O12343   7.512   2.549   4.870  0.3955 -0.1459 -0.0823
   92MOL0     C12344   7.416   2.581   4.761  0.2779  0.7106  0.5129
   92MOL0     C12345   7.343   2.717   4.777  0.9362  0.2358  0.3070
   92MOL0     C12346   7.270   2.699   4.916 -0.8348  0.3781  0.8856
   92MOL0     C12347   7.248   2.832   4.989  0.0527 -1.1026 -0.4804
   92MOL0     C12348   7.167   2.804   5.108 -0.7900 -0.0703 -0.5111
   92MOL0     C12349   7.113   2.746   5.203 -1.0520  0.5496  0.6362
   92MOL0     C12350   7.681   2.730   4.809  0.0358 -0.0067  0.2196
   92MOL0     C12351   7.810   2.793   4.831  0.8255  0.5468 -0.0131
   92MOL0     C12352   7.827   2.917   4.759  0.1801  0.8688  0.5919
   92MOL0     H12353   8.308   2.564   5.010 -0.1463  0.2550 -0.1701
   92MOL0     H12354   8.536   2.644   5.014 -2.9567 -0.3120 -1.6871
   92MOL0     H12355   8.685   2.703   5.208 -0.5336 -0.8570 -1.6253
   92MOL0     H12356   8.731   2.760   5.046 -1.3180 -0.6983 -0.1061
   92MOL0     H12357   8.923   2.786   5.179  0.0717  0.2159 -1.3611
   92MOL0     H12358   8.829   2.872   5.301  0.8248 -2.4406  0.9191
   92MOL0     H12359   8.813   3.079   5.131  2.6315  2.2482  1.7976
   92MOL0     H12360   8.877   2.976   4.997  2.2583  1.2225 -0.2097
   92MOL0     H12361   9.033   3.030   5.245  2.2382 -0.0452 -0.8202
   92MOL0     H12362   9.100   2.947   5.100 -0.4588 -0.4390  1.7502
   92MOL0     H12363   9.012   3.237   5.101 -1.7252 -1.2913  0.1786
   92MOL0     H12364   9.178   3.173   5.119 -1.5964  0.4739  2.6884
   92MOL0     H12365   9.138   3.044   4.893  0.5572  0.7680  0.1106
   92MOL0     H12366   8.984   3.138   4.877 -0.8421 -1.9566  1.0685
   92MOL0     H12367   9.252   3.271   4.902  0.0544  0.4445  1.0047
   92MOL0     H12368   9.095   3.346   4.871  0.5188  1.0645 -2.5438
   92MOL0     H12369   9.213   3.150   4.676 -1.9285  0.1450 -2.2166
   92MOL0     H12370   9.072   3.234   4.640 -0.0769 -0.8097  0.9226
   92MOL0     H12371   9.120   3.524   4.645  0.6370  1.2994  0.0964
   92MOL0     H12372   9.267   3.743   4.703 -0.0450  0.3216  1.4694
   92MOL0     H12373   9.437   3.722   4.731  2.1440 -0.1521 -2.8221
   92MOL0     H12374   9.462   3.687   4.467 -1.1361  0.6810 -1.1517
   92MOL0     H12375   9.316   3.774   4.471 -2.4522 -0.0171  3.5567
   92MOL0     H12376   9.459   3.950   4.615 -2.1016 -0.0170 -0.2083
   92MOL0     H12377   9.506   3.933   4.448  1.0965  1.0796  0.5944
   92MOL0     H12378   9.645   3.777   4.675 -2.2495  4.4096  3.2350
   92MOL0     H12379   9.698   3.929   4.613 -1.4814  1.1146 -0.4961
   92MOL0     H12380   9.859   3.542   4.556 -0.5653  0.2219  2.7934
   92MOL0     H12381  10.099   3.533   4.611 -0.0374  0.4004  1.3989
   92MOL0     H12382  10.469   3.824   4.472 -0.1354 -1.2639  0.6540
   92MOL0     H12383  10.703   3.827   4.419 -1.3378 -0.1408  0.0554
   92MOL0     H12384  10.950   3.685   4.662  1.6423  1.9860 -1.1263
   92MOL0     H12385  10.970   3.513   4.612 -1.8411  0.4719 -2.1883
   92MOL0     H12386  11.187   3.657   4.624 -1.3520 -0.0896  0.7191
   92MOL0     H12387  11.160   3.576   4.472  1.7461 -0.5060  2.2265
   92MOL0     H12388  11.045   3.794   4.415  0.6258  1.0090  0.6428
   92MOL0     H12389  11.122   3.855   4.572 -1.1425 -0.0308  0.8687
   92MOL0     H12390  11.247   3.761   4.295 -1.5220  0.5534 -1.2652
   92MOL0     H12391  11.347   3.771   4.444 -0.7686 -1.0811 -1.2075
   92MOL0     H12392  11.386   3.973   4.318  1.3449  2.1177  1.4715
   92MOL0     H12393  11.290   4.015   4.465  0.6716 -0.1273 -0.5994
   92MOL0     H12394  11.199   3.969   4.181 -4.2098  3.3648 -3.4779
   92MOL0     H12395  11.081   4.014   4.301  0.4126 -2.3186  1.8218
   92MOL0     H12396  11.327   4.187   4.267 -0.3231 -1.0746  0.0388
   92MOL0     H12397  11.183   4.230   4.336  0.9044  1.3348  0.2090
   92MOL0     H12398  11.198   4.336   4.128  0.9758 -0.0103  2.6881
   92MOL0     H12399  11.231   4.178   4.046  1.8430 -0.3026  2.0827
   92MOL0     H12400  10.747   3.455   4.643 -1.8320 -1.5234 -1.1306
   92MOL0     H12401  10.506   3.472   4.690 -2.3116  1.3708 -0.4850
   92MOL0     H12402  10.130   3.951   4.553  2.0550 -0.9944  0.9560
   92MOL0     H12403   9.879   3.964   4.480 -1.6041 -1.8861 -2.0194
   92MOL0     H12404   8.394   3.013   5.222 -0.2499  1.4577 -0.5879
   92MOL0     H12405   8.166   2.934   5.175 -0.0961 -1.0341 -2.4360
   92MOL0     H12406   7.932   2.559   5.049 -0.3316 -0.0545 -1.3078
   92MOL0     H12407   7.714   2.459   5.004  0.8867  1.3892  3.1107
   92MOL0     H12408   7.339   2.503   4.758 -2.0648  2.8905  0.4926
   92MOL0     H12409   7.466   2.582   4.664 -1.8015  2.7345 -0.6599
   92MOL0     H12410   7.279   2.722   4.689  1.5807 -0.9082 -0.2533
   92MOL0     H12411   7.404   2.807   4.768  0.8520  0.2812  0.1925
   92MOL0     H12412   7.322   2.633   4.985 -0.6787 -0.0781  0.3339
   92MOL0     H12413   7.177   2.645   4.899  0.2253 -1.7707  1.6241
   92MOL0     H12414   7.342   2.875   5.025 -0.4456 -1.2526  1.0730
   92MOL0     H12415   7.195   2.909   4.932  1.2974  1.0221  1.0863
   92MOL0     H12416   7.058   2.689   5.276  0.1704 -1.5024  0.0321
   92MOL0     H12417   7.606   2.786   4.753  0.6663  1.6069  0.9441
   92MOL0     H12418   7.838   2.998   4.831  0.3814  0.2123  1.3058
   92MOL0     H12419   7.913   2.908   4.691 -2.1155  0.1895 -2.4522
   92MOL0     H12420   7.746   2.938   4.689  1.6138 -1.3220 -1.9403
   93MOL0     O12421   2.955   6.788   4.405  0.5298 -0.0389 -0.8033
   93MOL0     C12422   2.848   6.794   4.462 -0.7083 -0.0351 -0.1363
   93MOL0     O12423   2.813   6.712   4.566 -0.3485  0.3229 -0.2834
   93MOL0     C12424   2.894   6.614   4.615 -0.6171  0.1125 -0.3302
   93MOL0     C12425   2.996   6.547   4.543  0.0612 -0.7331 -0.5850
   93MOL0     C12426   3.072   6.446   4.612 -0.1146 -0.5826  0.6231
   93MOL0     C12427   3.044   6.411   4.743  0.1262  0.2860 -0.7788
   93MOL0     O12428   3.131   6.310   4.801  0.3813 -0.3216 -0.3628
   93MOL0     C12429   3.141   6.319   4.947  0.2426 -1.4019 -0.9315
   93MOL0     C12430   3.277   6.260   4.987  0.6358  0.2354 -0.3354
   93MOL0     C12431   3.297   6.284   5.133  0.0046 -0.2093 -0.0834
   93MOL0     C12432   3.437   6.218   5.175  0.4436 -0.8600  0.1072
   93MOL0     C12433   3.453   6.219   5.331 -0.2838  1.4627  0.4839
   93MOL0     C12434   3.597   6.168   5.380  0.8294 -0.2458  0.1006
   93MOL0     C12435   3.706   6.268   5.366 -0.1094 -0.4421  0.3335
   93MOL0     C12436   3.829   6.242   5.448  0.0086 -0.5276  0.0875
   93MOL0     N12437   3.916   6.357   5.459 -0.8523 -1.1491  0.9064
   93MOL0     C12438   4.047   6.353   5.405  1.1949  0.0890  0.3855
   93MOL0     C12439   4.101   6.467   5.439  0.3019  0.0078 -0.1280
   93MOL0     C12440   4.230   6.535   5.393 -0.2993 -1.1076 -0.5802
   93MOL0     C12441   4.339   6.462   5.470  0.2316 -0.8837 -0.1041
   93MOL0     C12442   4.377   6.324   5.417  0.2511  1.4452  0.4124
   93MOL0     C12443   4.506   6.271   5.488  0.1007 -0.6148 -0.2468
   93MOL0     O12444   4.615   6.364   5.461 -0.5558  0.1838  0.9391
   93MOL0     C12445   4.734   6.314   5.510 -0.4770 -0.0024 -0.3716
   93MOL0     C12446   4.757   6.324   5.651 -0.4251 -0.5214  0.2311
   93MOL0     C12447   4.876   6.267   5.713  0.0047 -0.7875 -0.7021
   93MOL0     C12448   4.973   6.201   5.633  0.3084  0.8024 -0.2147
   93MOL0     C12449   5.088   6.136   5.699  0.4732 -0.5556  0.2382
   93MOL0     O12450   5.102   6.134   5.842  0.3099  0.2118 -0.8434
   93MOL0     C12451   5.209   6.082   5.899 -0.2190  0.2214 -0.1699
   93MOL0     C12452   5.205   6.047   6.035 -0.1866  0.5357  0.5101
   93MOL0     C12453   5.324   6.001   6.100 -0.0731 -0.1995 -0.7532
   93MOL0     C12454   5.446   5.990   6.031  0.7270  0.4375  1.1995
   93MOL0     O12455   5.559   5.954   6.101 -0.3195 -0.3002  0.9858
   93MOL0     C12456   5.558   5.842   6.187  0.2146 -0.5996 -0.1279
   93MOL0     C12457   5.661   5.733   6.159  0.1204  0.4105  0.2996
   93MOL0     C12458   5.799   5.780   6.142 -0.6973 -0.4165 -0.1648
   93MOL0     C12459   5.905   5.670   6.178  0.4511  0.7836  0.3556
   93MOL0     C12460   6.042   5.720   6.123 -0.0957  0.7723  0.6728
   93MOL0     C12461   6.159   5.621   6.156  0.5555  0.2982  0.1037
   93MOL0     C12462   6.204   5.617   6.306  0.7267 -0.4759  0.3610
   93MOL0     C12463   6.338   5.538   6.329  0.2823 -0.9630  0.4652
   93MOL0    Cl12464   6.398   5.544   6.491  0.1899 -0.4879 -0.4762
   93MOL0     C12465   5.449   6.042   5.905 -0.7163 -0.2978 -0.3078
   93MOL0     C12466   5.343   6.087   5.838  0.1114 -0.6798  0.2095
   93MOL0     O12467   5.167   6.084   5.620  0.1650 -0.6751 -0.1293
   93MOL0     C12468   4.948   6.196   5.490  0.5240  0.2796  0.2332
   93MOL0     C12469   4.839   6.257   5.432 -0.3278  0.6521 -0.0784
   93MOL0     N12470   4.011   6.538   5.507  0.0639 -0.4736 -0.0959
   93MOL0     N12471   3.907   6.473   5.529  0.3863 -0.1620 -0.9494
   93MOL0     C12472   2.933   6.475   4.803  0.7969 -0.2210 -0.8965
   93MOL0     C12473   2.861   6.573   4.745 -0.0845 -0.2949 -0.0093
   93MOL0     C12474   2.755   6.894   4.394 -0.4749  0.4880  1.0223
   93MOL0     C12475   2.625   6.885   4.443  0.8521  0.7137  0.7678
   93MOL0     C12476   2.519   6.963   4.383 -1.0503 -0.8836  1.4324
   93MOL0     C12477   2.550   7.041   4.265 -0.0437 -0.5730  0.1326
   93MOL0     O12478   2.454   7.126   4.201 -0.5595  0.1157  0.2873
   93MOL0     C12479   2.325   7.141   4.255  0.0560 -0.9478  0.1005
   93MOL0     C12480   2.233   7.225   4.172  0.2698 -0.4329 -0.3067
   93MOL0     C12481   2.279   7.368   4.147 -0.5267 -0.0009  0.3028
   93MOL0     C12482   2.181   7.451   4.064  0.1148 -1.0266 -0.2213
   93MOL0     C12483   2.074   7.495   4.146 -0.2759 -0.4786  0.3180
   93MOL0     C12484   1.989   7.537   4.218 -0.4652  0.0562 -0.0469
   93MOL0     C12485   2.685   7.054   4.228  0.2046  0.5214 -0.4305
   93MOL0     C12486   2.788   6.983   4.287 -0.3549 -0.1095  1.2118
   93MOL0     C12487   2.931   7.021   4.247  0.9206  0.6711  0.3670
   93MOL0     H12488   3.023   6.560   4.439  0.3014  0.9855 -0.3274
   93MOL0     H12489   3.155   6.404   4.556  0.2734  0.2399  0.5717
   93MOL0     H12490   3.141   6.422   4.984 -0.4670 -2.0852  1.1170
   93MOL0     H12491   3.057   6.266   4.994 -3.5514  4.7824  0.3489
   93MOL0     H12492   3.348   6.308   4.919 -1.2263  1.0640 -1.7948
   93MOL0     H12493   3.280   6.151   4.972  1.2767  0.3909 -1.4625
   93MOL0     H12494   3.225   6.233   5.198  1.5329 -1.7578  0.4546
   93MOL0     H12495   3.294   6.392   5.153  1.0661  0.5252 -3.2788
   93MOL0     H12496   3.444   6.114   5.144 -0.3991 -1.2692  1.2491
   93MOL0     H12497   3.516   6.272   5.123  1.0830 -3.7549 -2.1584
   93MOL0     H12498   3.438   6.318   5.375  1.1309  2.1355 -0.4694
   93MOL0     H12499   3.374   6.153   5.369 -0.2500  0.9822 -0.2520
   93MOL0     H12500   3.576   6.150   5.486 -1.1704  2.3286  0.2312
   93MOL0     H12501   3.621   6.075   5.327 -1.9761  0.2204 -2.2427
   93MOL0     H12502   3.671   6.361   5.411  1.7634 -0.6754  2.4389
   93MOL0     H12503   3.728   6.290   5.261  1.5734  2.1854  1.1338
   93MOL0     H12504   3.804   6.208   5.549  1.4951 -0.8594  0.3620
   93MOL0     H12505   3.877   6.158   5.396 -1.1641 -1.8125  1.0184
   93MOL0     H12506   4.079   6.281   5.330 -0.9194 -0.1530 -0.3579
   93MOL0     H12507   4.229   6.516   5.285  2.0872 -1.6686 -0.5586
   93MOL0     H12508   4.230   6.641   5.418  0.5572 -0.8476 -1.5885
   93MOL0     H12509   4.429   6.525   5.470  1.0898 -2.0106 -1.5866
   93MOL0     H12510   4.303   6.451   5.573 -1.2574  1.2023 -0.3465
   93MOL0     H12511   4.401   6.338   5.311  0.9571  2.0450  0.6453
   93MOL0     H12512   4.304   6.243   5.428  1.7880 -0.0478  0.1334
   93MOL0     H12513   4.527   6.168   5.457 -3.2525 -1.8524  1.1296
   93MOL0     H12514   4.485   6.286   5.594 -1.9941  0.4180 -0.7483
   93MOL0     H12515   4.689   6.377   5.717 -1.6594 -0.7529 -0.8287
   93MOL0     H12516   4.902   6.278   5.818  2.1600 -1.1694 -1.1376
   93MOL0     H12517   5.109   6.046   6.086 -0.2810 -1.3070  0.3687
   93MOL0     H12518   5.309   5.975   6.204  0.1161  1.4217 -0.2896
   93MOL0     H12519   5.575   5.886   6.286  2.5265 -1.3455 -0.1377
   93MOL0     H12520   5.458   5.798   6.197  0.5410 -1.1411  0.9375
   93MOL0     H12521   5.662   5.655   6.235  3.2264  0.5794  0.5550
   93MOL0     H12522   5.630   5.682   6.068 -0.7558  0.5326  0.5232
   93MOL0     H12523   5.800   5.805   6.036 -2.0013  4.1320  0.6381
   93MOL0     H12524   5.819   5.868   6.204 -1.2576  0.0343 -0.6042
   93MOL0     H12525   5.871   5.585   6.119  0.6657  0.5017  0.6409
   93MOL0     H12526   5.909   5.641   6.283 -2.0487 -0.2007  0.2576
   93MOL0     H12527   6.080   5.813   6.166 -2.3987  1.9237  0.3469
   93MOL0     H12528   6.027   5.733   6.016 -1.3888  2.3672  1.0129
   93MOL0     H12529   6.129   5.517   6.140  4.0852 -0.9883  0.8891
   93MOL0     H12530   6.245   5.636   6.091 -1.4951 -1.1177 -3.1765
   93MOL0     H12531   6.126   5.579   6.372 -0.8794  1.9973  0.0314
   93MOL0     H12532   6.223   5.722   6.330 -1.8674  0.2372 -0.3659
   93MOL0     H12533   6.315   5.437   6.295  0.2546  0.0110 -2.7401
   93MOL0     H12534   6.408   5.587   6.261  0.2972 -0.4254  0.8596
   93MOL0     H12535   5.549   6.045   5.863  0.8237  0.8060  3.0283
   93MOL0     H12536   5.360   6.131   5.740  2.1409  1.0248  1.2265
   93MOL0     H12537   5.024   6.151   5.426 -0.4714 -0.2416 -0.5999
   93MOL0     H12538   4.833   6.256   5.324  0.6610 -3.5790 -0.2574
   93MOL0     H12539   2.903   6.448   4.904  1.0875  0.9026 -0.4855
   93MOL0     H12540   2.783   6.622   4.803 -0.4733  1.6066 -2.0012
   93MOL0     H12541   2.589   6.820   4.522  1.8882 -2.3625 -1.1229
   93MOL0     H12542   2.418   6.960   4.424 -0.7110 -1.1940  2.2634
   93MOL0     H12543   2.326   7.189   4.353 -0.4240  0.0699 -0.3676
   93MOL0     H12544   2.270   7.049   4.275 -0.4721 -0.5785  0.3690
   93MOL0     H12545   2.134   7.237   4.217  1.1315  1.7634  1.1506
   93MOL0     H12546   2.210   7.177   4.077  0.8789 -1.3091 -0.0172
   93MOL0     H12547   2.372   7.364   4.090 -1.7440  2.5131 -2.1025
   93MOL0     H12548   2.299   7.410   4.246 -1.2381  1.9022 -0.3158
   93MOL0     H12549   2.236   7.537   4.025  1.1046 -1.7474 -0.4553
   93MOL0     H12550   2.138   7.388   3.986 -0.6520 -0.8794  0.0701
   93MOL0     H12551   1.920   7.571   4.293 -0.8136  2.2865 -1.3101
   93MOL0     H12552   2.703   7.131   4.153 -0.5943  0.8979 -0.2445
   93MOL0     H12553   2.986   7.038   4.340  0.9679 -0.1296  0.4953
   93MOL0     H12554   2.968   6.947   4.176 -2.2827  0.9169 -1.7444
   93MOL0     H12555   2.958   7.115   4.198  3.2922  0.7046  1.5637
   94MOL0     O12556   9.492   5.426   5.777  0.9037  0.1139 -0.4524
   94MOL0     C12557   9.425   5.379   5.682 -0.2651  0.4686 -0.3905
   94MOL0     O12558   9.419   5.251   5.641  0.3885  0.6169  0.5006
   94MOL0     C12559   9.511   5.161   5.683  0.0758 -0.1236 -0.6583
   94MOL0     C12560   9.598   5.102   5.587 -0.5907  0.7360  0.7145
   94MOL0     C12561   9.699   5.017   5.630  0.0738 -0.4219  0.1751
   94MOL0     C12562   9.722   4.982   5.759  0.5032  0.6668 -0.7621
   94MOL0     O12563   9.830   4.899   5.785  0.0783  0.5085  0.3234
   94MOL0     C12564   9.829   4.767   5.728 -0.5703  0.2938  0.7382
   94MOL0     C12565   9.969   4.705   5.734  0.3348  0.9157  0.0462
   94MOL0     C12566  10.066   4.756   5.633 -0.2313 -0.2597 -0.0248
   94MOL0     C12567  10.193   4.674   5.625 -0.0598  0.1059  0.2184
   94MOL0     C12568  10.308   4.727   5.532 -0.2840  0.4624 -0.7967
   94MOL0     C12569  10.414   4.610   5.495  0.4574  0.6527 -0.9529
   94MOL0     C12570  10.531   4.662   5.412 -0.1372 -0.7797  0.0342
   94MOL0     C12571  10.622   4.746   5.508  0.2405 -0.7931 -0.3232
   94MOL0     N12572  10.763   4.740   5.461  0.3078 -0.0820 -0.2076
   94MOL0     C12573  10.805   4.755   5.330  0.8647 -0.8861  0.1814
   94MOL0     C12574  10.895   4.656   5.309  0.0186  0.5803  0.2587
   94MOL0     C12575  10.954   4.634   5.170  0.0066 -1.0377 -0.2532
   94MOL0     C12576  11.095   4.706   5.147 -0.5229  0.1073 -0.0157
   94MOL0     C12577  11.099   4.857   5.127 -0.4358  0.0268 -0.3721
   94MOL0     C12578  11.235   4.935   5.158  0.6219  0.2235  0.3156
   94MOL0     O12579  11.344   4.858   5.095  0.1824  0.0096 -0.1463
   94MOL0     C12580  11.475   4.902   5.107 -1.0591 -0.5110 -0.3501
   94MOL0     C12581  11.570   4.798   5.100  0.5559 -0.2790  0.1645
   94MOL0     C12582  11.712   4.826   5.094  0.3603  0.1790 -0.5192
   94MOL0     C12583  11.763   4.956   5.101  0.7487 -0.1101  0.2362
   94MOL0     C12584  11.905   4.989   5.076  0.1100  0.3790  0.4320
   94MOL0     O12585  11.986   4.888   5.029 -0.4326  0.2619 -0.6133
   94MOL0     C12586  12.110   4.916   5.008 -0.0418 -0.3637 -0.0605
   94MOL0     C12587  12.201   4.814   5.051  0.2091  0.6855 -0.0805
   94MOL0     C12588  12.337   4.835   5.037  0.3239 -0.2566  0.2636
   94MOL0     C12589  12.388   4.949   4.974 -0.3254  0.5484  0.2126
   94MOL0     O12590  12.525   4.968   4.968  0.0506  0.8544 -0.1234
   94MOL0     C12591  12.609   4.859   4.977  0.2352  0.4673  0.0415
   94MOL0     C12592  12.752   4.902   4.966 -0.2602  1.3935  0.1474
   94MOL0     C12593  12.805   4.938   4.825 -0.2041  0.1667  0.2985
   94MOL0     C12594  12.955   4.913   4.815 -0.1202 -0.3235  0.2889
   94MOL0     C12595  13.023   4.973   4.684  0.9340  0.5874 -0.4322
   94MOL0     C12596  13.165   4.927   4.674 -0.1877 -0.1461  0.0447
   94MOL0     C12597  13.216   4.975   4.544 -0.0681  0.1780  0.6227
   94MOL0     C12598  13.333   4.891   4.493 -0.5771  0.0188 -0.0508
   94MOL0    Cl12599  13.477   4.914   4.612  0.2741  0.2737  0.2944
   94MOL0     C12600  12.302   5.050   4.929 -0.7108 -0.2532  0.5336
   94MOL0     C12601  12.160   5.043   4.956  0.5645 -0.5138  0.2623
   94MOL0     O12602  11.945   5.098   5.127 -0.1755 -0.2146 -0.0360
   94MOL0     C12603  11.668   5.053   5.137  0.1810  0.4878  0.8915
   94MOL0     C12604  11.531   5.023   5.113 -0.3900 -1.4188 -0.8083
   94MOL0     N12605  10.913   4.582   5.427 -0.1044 -0.9675 -0.1906
   94MOL0     N12606  10.833   4.630   5.518  0.2024  0.5627  0.1265
   94MOL0     C12607   9.637   5.038   5.856  0.1644 -0.4788 -0.3077
   94MOL0     C12608   9.535   5.121   5.816  0.6455 -0.0163  0.6220
   94MOL0     C12609   9.348   5.489   5.606  0.2324  0.6218  0.0957
   94MOL0     C12610   9.405   5.617   5.593 -0.2795  0.0951 -0.6962
   94MOL0     C12611   9.349   5.706   5.499 -0.0710  0.0035  0.3329
   94MOL0     C12612   9.227   5.685   5.430  0.0516  0.1460  0.2794
   94MOL0     O12613   9.173   5.781   5.350  0.2022  0.1346  0.2238
   94MOL0     C12614   9.059   5.750   5.266 -0.3474  0.3097  0.2930
   94MOL0     C12615   9.009   5.878   5.197  0.3027  0.4830  0.0950
   94MOL0     C12616   8.928   5.832   5.072  0.1687 -0.0325 -0.5625
   94MOL0     C12617   8.895   5.959   4.993  1.1635  0.0214  0.0493
   94MOL0     C12618   8.826   5.927   4.861  1.1822 -0.8694  0.0588
   94MOL0     C12619   8.764   5.910   4.761  0.7483 -0.0518  0.2625
   94MOL0     C12620   9.174   5.557   5.444 -0.4112  0.1023 -0.0849
   94MOL0     C12621   9.223   5.460   5.543 -0.0390  0.7507 -0.6395
   94MOL0     C12622   9.162   5.323   5.548 -0.2045 -0.1479 -0.1333
   94MOL0     H12623   9.588   5.137   5.485  1.0366  1.2612  0.7085
   94MOL0     H12624   9.759   4.966   5.555  1.6547 -1.8130  2.2594
   94MOL0     H12625   9.754   4.703   5.776 -0.7095 -0.6820 -0.7153
   94MOL0     H12626   9.796   4.766   5.624  0.1046 -2.3318  0.4866
   94MOL0     H12627   9.962   4.596   5.725 -0.3247  1.0162 -0.8543
   94MOL0     H12628  10.004   4.733   5.833  2.5690 -0.0673 -0.4097
   94MOL0     H12629  10.099   4.860   5.643 -2.2766  0.4918 -0.7300
   94MOL0     H12630  10.012   4.757   5.538 -1.6193 -0.6283  0.7396
   94MOL0     H12631  10.235   4.668   5.725  1.4219  1.1001 -0.3131
   94MOL0     H12632  10.165   4.575   5.587 -0.2509 -0.3726  1.5626
   94MOL0     H12633  10.275   4.768   5.436 -1.4008 -0.8777 -1.0186
   94MOL0     H12634  10.367   4.803   5.585 -0.1960 -1.0496  1.3831
   94MOL0     H12635  10.448   4.551   5.581  0.7416  1.4803 -0.4760
   94MOL0     H12636  10.363   4.539   5.430 -0.6747  0.1546  0.4258
   94MOL0     H12637  10.496   4.735   5.338  0.3376  0.4041  0.9432
   94MOL0     H12638  10.581   4.573   5.372  2.1994  1.0317 -1.3154
   94MOL0     H12639  10.592   4.851   5.497  0.8023 -0.4478  1.1770
   94MOL0     H12640  10.610   4.718   5.613  1.4787  1.4037  0.4730
   94MOL0     H12641  10.777   4.829   5.255  3.9631  0.8031  0.5200
   94MOL0     H12642  10.977   4.527   5.170  1.4494 -0.7361 -0.2174
   94MOL0     H12643  10.876   4.671   5.102 -0.4384 -0.5830  0.4953
   94MOL0     H12644  11.144   4.678   5.241  0.8487 -0.9601 -1.0053
   94MOL0     H12645  11.156   4.662   5.067  1.1310 -1.1877  1.8422
   94MOL0     H12646  11.024   4.902   5.192 -0.0641 -1.1951  0.9505
   94MOL0     H12647  11.083   4.875   5.020  2.0619  1.3846 -0.6006
   94MOL0     H12648  11.257   4.940   5.265 -0.9883 -2.8860  0.9310
   94MOL0     H12649  11.224   5.037   5.122 -3.8945 -1.0097 -2.5086
   94MOL0     H12650  11.530   4.697   5.097  1.1487 -0.5681  1.3791
   94MOL0     H12651  11.770   4.736   5.079 -0.0669 -1.1948  4.3015
   94MOL0     H12652  12.170   4.720   5.094  1.0844  0.4476  0.0307
   94MOL0     H12653  12.407   4.761   5.074  0.2598 -0.1871  0.5189
   94MOL0     H12654  12.597   4.810   5.075  0.8155  1.1284  0.4485
   94MOL0     H12655  12.574   4.791   4.899 -2.1962  0.0581  1.3743
   94MOL0     H12656  12.788   4.983   5.031  3.1013 -0.5889  0.9877
   94MOL0     H12657  12.799   4.809   4.998 -3.7407 -0.1021  1.4647
   94MOL0     H12658  12.747   4.888   4.746 -2.0170  0.5524  1.3273
   94MOL0     H12659  12.789   5.044   4.803  0.2039 -0.3649 -2.9997
   94MOL0     H12660  12.967   4.805   4.812 -0.2104 -0.3120 -0.5709
   94MOL0     H12661  13.002   4.947   4.908  3.1700 -0.6253 -1.1308
   94MOL0     H12662  13.011   5.082   4.690  0.6440  0.5433 -0.2197
   94MOL0     H12663  12.967   4.934   4.598 -0.0764  2.6745 -0.7819
   94MOL0     H12664  13.220   4.965   4.760 -2.6526 -1.1330  2.1946
   94MOL0     H12665  13.161   4.818   4.680 -1.4795 -0.0554  1.8683
   94MOL0     H12666  13.240   5.081   4.560  0.7957 -0.0766  1.1362
   94MOL0     H12667  13.144   4.987   4.463  0.2317  2.2390  0.5959
   94MOL0     H12668  13.313   4.785   4.478  1.9354 -0.4178 -0.7503
   94MOL0     H12669  13.368   4.933   4.398  1.5343  2.0671  1.5150
   94MOL0     H12670  12.343   5.144   4.895  0.4537 -0.9466 -0.0374
   94MOL0     H12671  12.102   5.129   4.926  0.7206 -1.2995 -2.6070
   94MOL0     H12672  11.698   5.155   5.158  4.2677 -0.5756  1.2562
   94MOL0     H12673  11.468   5.111   5.114  1.5567  0.0367 -0.6338
   94MOL0     H12674   9.648   5.003   5.958 -1.2716 -0.8379 -0.2547
   94MOL0     H12675   9.461   5.158   5.887 -0.6046  2.5608 -1.8547
   94MOL0     H12676   9.492   5.636   5.654 -1.1129 -0.1033  0.5912
   94MOL0     H12677   9.402   5.799   5.480  0.0935  0.3156  2.1050
   94MOL0     H12678   8.981   5.702   5.327 -0.2749 -1.6746 -1.0942
   94MOL0     H12679   9.098   5.689   5.185 -0.6726  1.9851 -1.1777
   94MOL0     H12680   9.093   5.946   5.175 -0.3805  1.6100  0.8644
   94MOL0     H12681   8.935   5.930   5.259  0.5456  1.2022 -0.1975
   94MOL0     H12682   8.838   5.781   5.106  1.6283 -2.6039 -0.3103
   94MOL0     H12683   8.978   5.773   4.994 -0.2882  0.1957 -1.0390
   94MOL0     H12684   8.832   6.009   5.067  1.2044 -0.7678  0.6320
   94MOL0     H12685   8.976   6.027   4.965  0.3070  0.4153 -1.5456
   94MOL0     H12686   8.718   5.906   4.664  1.1595  0.0641  0.0619
   94MOL0     H12687   9.094   5.525   5.378  0.4474 -0.5790 -0.8203
   94MOL0     H12688   9.148   5.284   5.650  2.3566 -1.8962 -0.3599
   94MOL0     H12689   9.062   5.320   5.503 -0.8827  2.7154  0.9705
   94MOL0     H12690   9.225   5.244   5.507 -0.3297 -0.2369 -0.1582
   95MOL0     O12691   3.570   8.949   0.866  0.6566  0.9891  0.4015
   95MOL0     C12692   3.501   8.962   0.967  1.2803 -0.1195 -0.7204
   95MOL0     O12693   3.519   9.056   1.065  0.2444 -0.1556 -0.3517
   95MOL0     C12694   3.617   9.150   1.046  0.2440 -0.1552  1.4339
   95MOL0     C12695   3.753   9.113   1.063  0.8900  0.1643 -0.6853
   95MOL0     C12696   3.856   9.203   1.030  0.1422 -0.1725 -0.2683
   95MOL0     C12697   3.830   9.334   0.997 -0.3174 -0.3713  0.6322
   95MOL0     O12698   3.930   9.433   0.985 -0.0004 -0.0927  0.7232
   95MOL0     C12699   4.066   9.396   0.961 -0.0342 -0.9253 -0.6341
   95MOL0     C12700   4.143   9.523   0.918  0.3996  0.6823 -0.7978
   95MOL0     C12701   4.083   9.587   0.799  0.8769  0.4848 -0.1006
   95MOL0     C12702   4.117   9.520   0.673 -0.7968  0.7918 -0.4188
   95MOL0     C12703   4.068   9.591   0.543 -1.0417 -0.6328  0.4679
   95MOL0     C12704   4.117   9.530   0.419 -0.6449 -0.2002 -0.0263
   95MOL0     C12705   4.046   9.586   0.292 -0.4846 -0.5537  0.3743
   95MOL0     C12706   4.065   9.496   0.162  0.7704 -0.3590 -0.3062
   95MOL0     N12707   4.197   9.475   0.107 -0.1269  0.5969 -0.8318
   95MOL0     C12708   4.313   9.550   0.114 -0.1845  0.2163 -0.2741
   95MOL0     C12709   4.398   9.487   0.022  0.5159  0.6963 -0.1384
   95MOL0     C12710   4.545   9.528  -0.003  0.4830 -0.2134  0.2376
   95MOL0     C12711   4.645   9.410  -0.002 -0.1884 -0.3651 -0.7001
   95MOL0     C12712   4.788   9.470   0.018 -0.6710  0.3040 -0.2132
   95MOL0     C12713   4.896   9.358   0.035 -0.3807 -0.3398  1.1533
   95MOL0     O12714   5.028   9.424   0.043 -0.4379 -0.5509 -0.2931
   95MOL0     C12715   5.080   9.501   0.142  0.0024  0.0133  0.3164
   95MOL0     C12716   5.212   9.554   0.135  0.3591 -0.0056 -0.5677
   95MOL0     C12717   5.266   9.631   0.233  0.2285 -0.0524 -0.1683
   95MOL0     C12718   5.194   9.649   0.353 -0.0404 -1.0929 -0.9580
   95MOL0     C12719   5.250   9.728   0.469 -1.4657  0.4019 -0.6306
   95MOL0     O12720   5.374   9.767   0.445  0.2361  0.4844  0.4625
   95MOL0     C12721   5.425   9.882   0.502  0.4098 -0.1082  0.9307
   95MOL0     C12722   5.460   9.986   0.416  0.4016 -0.1952  0.1864
   95MOL0     C12723   5.498  10.109   0.473 -0.3028  0.5153  0.2410
   95MOL0     C12724   5.491  10.132   0.612  0.0751 -0.1190 -0.2090
   95MOL0     O12725   5.526  10.252   0.673 -0.0815  0.5311  0.6991
   95MOL0     C12726   5.434  10.361   0.641  0.3865 -0.9006 -0.0737
   95MOL0     C12727   5.292  10.370   0.708  0.3365  0.5825 -0.2583
   95MOL0     C12728   5.288  10.396   0.860  0.8983  0.1265  0.3163
   95MOL0     C12729   5.353  10.294   0.946  1.4815 -0.8325  0.1703
   95MOL0     C12730   5.367  10.333   1.095  0.2324  0.0959  0.0574
   95MOL0     C12731   5.421  10.205   1.163  0.0016  0.3999  0.1744
   95MOL0     C12732   5.366  10.178   1.301 -0.1946  1.1859 -0.9237
   95MOL0     C12733   5.246  10.081   1.309  0.2597  0.1645 -0.7510
   95MOL0    Cl12734   5.106  10.159   1.228 -0.1522 -0.0131 -0.6209
   95MOL0     C12735   5.466  10.017   0.698 -0.3638 -0.2683  0.4256
   95MOL0     C12736   5.445   9.896   0.637  0.4575  0.3669 -0.2030
   95MOL0     O12737   5.185   9.753   0.569  0.6020  0.2690  0.4025
   95MOL0     C12738   5.064   9.602   0.367  0.2445  0.5846  0.3175
   95MOL0     C12739   5.012   9.526   0.257 -0.1522 -0.2886 -0.5428
   95MOL0     N12740   4.332   9.376  -0.031 -0.0823 -0.2254  0.4920
   95MOL0     N12741   4.224   9.365   0.027  0.5284  0.0682 -0.0589
   95MOL0     C12742   3.693   9.371   0.985  0.3153  0.3503 -0.1794
   95MOL0     C12743   3.583   9.286   1.006  0.3452  0.8444 -0.2433
   95MOL0     C12744   3.372   8.882   0.984 -0.1918 -0.8798  0.6520
   95MOL0     C12745   3.279   8.914   1.092 -0.6848  0.5326  0.1687
   95MOL0     C12746   3.160   8.847   1.115 -0.4824  0.3285  0.4488
   95MOL0     C12747   3.118   8.754   1.021 -0.5170  0.6124  0.6296
   95MOL0     O12748   3.003   8.683   1.052  1.0669 -0.5602  0.3013
   95MOL0     C12749   2.919   8.610   0.963 -0.0374 -0.5837 -0.6443
   95MOL0     C12750   2.815   8.701   0.896 -0.6800 -0.6056 -0.4069
   95MOL0     C12751   2.692   8.736   0.986  0.6222  0.2870 -0.1654
   95MOL0     C12752   2.610   8.854   0.944  0.3093 -0.7203 -0.0878
   95MOL0     C12753   2.501   8.874   1.036  0.0107 -0.4750  0.2728
   95MOL0     C12754   2.403   8.888   1.100  0.5433 -0.0062  0.7240
   95MOL0     C12755   3.201   8.728   0.907 -0.1316 -0.0914  0.0969
   95MOL0     C12756   3.327   8.785   0.893 -0.7215  0.3816 -0.0493
   95MOL0     C12757   3.412   8.735   0.780  0.2674  0.6755 -0.9379
   95MOL0     H12758   3.766   9.011   1.098 -2.4056 -0.6515 -1.4595
   95MOL0     H12759   3.955   9.161   1.048 -0.0723 -0.6775 -0.2660
   95MOL0     H12760   4.113   9.355   1.050  0.2095  1.0946  0.2216
   95MOL0     H12761   4.069   9.327   0.876 -1.3757  0.2307 -1.6964
   95MOL0     H12762   4.247   9.494   0.900  0.6173  0.7854  0.2589
   95MOL0     H12763   4.135   9.604   0.991  0.0776  0.1178 -0.1982
   95MOL0     H12764   4.137   9.682   0.802 -1.0155  1.5879  0.7659
   95MOL0     H12765   3.977   9.614   0.805  0.4047 -0.5998 -2.3723
   95MOL0     H12766   4.226   9.511   0.672 -0.4334  3.5854  1.3544
   95MOL0     H12767   4.074   9.419   0.673  4.0657 -1.6923  2.9903
   95MOL0     H12768   3.960   9.576   0.543 -0.8867 -1.9021  1.0059
   95MOL0     H12769   4.086   9.699   0.537 -0.7355 -0.6347  1.2096
   95MOL0     H12770   4.221   9.561   0.405 -1.4468  2.8767  0.1141
   95MOL0     H12771   4.108   9.421   0.412  2.5421 -0.5111 -1.1821
   95MOL0     H12772   4.095   9.681   0.267 -1.5060 -0.3033 -0.7587
   95MOL0     H12773   3.940   9.605   0.309 -0.5379  1.3432 -1.6637
   95MOL0     H12774   4.017   9.402   0.192  2.9378 -0.5484  3.1419
   95MOL0     H12775   4.009   9.541   0.080 -3.2412  0.2340  2.4766
   95MOL0     H12776   4.317   9.645   0.167 -2.1024 -1.1161  2.4818
   95MOL0     H12777   4.542   9.577  -0.100 -0.1165  0.6022  0.6574
   95MOL0     H12778   4.574   9.598   0.076 -0.0279  0.4534 -0.1578
   95MOL0     H12779   4.622   9.343   0.082  1.9319  2.0299  2.0086
   95MOL0     H12780   4.635   9.360  -0.099 -0.7525  1.7690 -1.7971
   95MOL0     H12781   4.785   9.544   0.099 -0.4233  2.0637 -1.7360
   95MOL0     H12782   4.813   9.534  -0.068  0.5837  1.6935  1.1271
   95MOL0     H12783   4.904   9.285  -0.046 -0.2388 -1.8886  2.5025
   95MOL0     H12784   4.885   9.297   0.125  0.1600  0.2311  1.6146
   95MOL0     H12785   5.273   9.524   0.050 -2.7276 -0.1104 -2.9486
   95MOL0     H12786   5.364   9.671   0.207 -0.4998  2.4114  0.5598
   95MOL0     H12787   5.447   9.960   0.311 -1.1573 -2.3410  0.8304
   95MOL0     H12788   5.543  10.187   0.412  3.2672 -1.0719  0.5893
   95MOL0     H12789   5.484  10.456   0.662 -4.1865  1.7638  0.0022
   95MOL0     H12790   5.415  10.358   0.533  1.8355  1.2045 -0.4512
   95MOL0     H12791   5.241  10.451   0.656 -0.1012  1.7391  1.8770
   95MOL0     H12792   5.238  10.278   0.682 -0.8188  1.7093 -2.0176
   95MOL0     H12793   5.334  10.492   0.881  1.7402 -0.3818  0.8354
   95MOL0     H12794   5.182  10.415   0.880  0.4103  2.0665 -3.2430
   95MOL0     H12795   5.445  10.255   0.903  0.3191 -2.5327 -0.9207
   95MOL0     H12796   5.278  10.214   0.944 -0.8033  1.0165  3.1220
   95MOL0     H12797   5.274  10.381   1.129 -0.9631 -0.0018 -2.8139
   95MOL0     H12798   5.447  10.407   1.108  0.7721 -0.2877 -0.9981
   95MOL0     H12799   5.420  10.119   1.096 -0.4718  0.7486 -0.2763
   95MOL0     H12800   5.526  10.234   1.173  0.8203 -1.7501 -1.4196
   95MOL0     H12801   5.342  10.267   1.358  1.3246 -1.0952  3.7633
   95MOL0     H12802   5.445  10.129   1.358  0.6853  2.7708 -0.7298
   95MOL0     H12803   5.268   9.995   1.246 -3.0957  0.2266 -2.2145
   95MOL0     H12804   5.217  10.053   1.411 -2.6873 -0.7291 -1.7289
   95MOL0     H12805   5.465  10.016   0.806  0.4142 -0.6645  0.4336
   95MOL0     H12806   5.437   9.810   0.704  3.3121 -0.4656 -0.7888
   95MOL0     H12807   5.001   9.628   0.451  0.9653  2.0849  0.4214
   95MOL0     H12808   4.910   9.491   0.265  0.0219 -0.7567 -0.3177
   95MOL0     H12809   3.672   9.472   0.952 -3.8192 -0.5633 -0.8431
   95MOL0     H12810   3.478   9.306   0.988  0.6691  1.3482 -1.7231
   95MOL0     H12811   3.306   8.979   1.174 -1.1469  0.6046  0.2677
   95MOL0     H12812   3.121   8.860   1.216  3.5900 -2.7828  2.7408
   95MOL0     H12813   2.864   8.537   1.023 -0.5220  2.2084  2.5494
   95MOL0     H12814   2.981   8.567   0.884 -1.1917  2.6047 -3.5215
   95MOL0     H12815   2.781   8.644   0.809  1.9566 -2.7151 -0.1830
   95MOL0     H12816   2.867   8.796   0.876  2.1302 -2.0414 -0.4324
   95MOL0     H12817   2.726   8.756   1.089  1.1770  1.5315 -0.5761
   95MOL0     H12818   2.628   8.648   0.987  2.4385 -1.1443 -2.1701
   95MOL0     H12819   2.662   8.951   0.940 -2.7294  1.0481 -0.1022
   95MOL0     H12820   2.568   8.831   0.845 -2.8970  0.5711  0.8515
   95MOL0     H12821   2.316   8.910   1.160  0.1529  0.5197 -0.0284
   95MOL0     H12822   3.172   8.652   0.835 -0.1448 -0.1469  0.1606
   95MOL0     H12823   3.487   8.675   0.832 -0.3421  0.2449 -0.5363
   95MOL0     H12824   3.353   8.671   0.713 -0.1620 -0.3065  0.3407
   95MOL0     H12825   3.457   8.810   0.714 -1.4630  1.6409 -1.0985
   96MOL0     O12826   3.349   4.348   0.933  0.3732  0.3969  0.3913
   96MOL0     C12827   3.266   4.300   1.009  1.2458 -0.8274 -0.2391
   96MOL0     O12828   3.250   4.159   1.026  0.2939  0.0831  0.2295
   96MOL0     C12829   3.332   4.073   0.947 -0.1364  0.4896  0.4568
   96MOL0     C12830   3.441   4.022   1.013  0.3071 -0.8673 -0.4101
   96MOL0     C12831   3.533   3.955   0.940 -0.3447  0.3843 -0.4479
   96MOL0     C12832   3.525   3.941   0.799 -0.0964 -0.2351  0.0743
   96MOL0     O12833   3.634   3.865   0.741  0.4036  0.0777  0.8331
   96MOL0     C12834   3.661   3.887   0.603  0.4067 -0.2116  0.4497
   96MOL0     C12835   3.736   4.013   0.583 -0.7112 -0.0881 -0.6678
   96MOL0     C12836   3.875   4.014   0.650  0.0637  0.1164 -0.2473
   96MOL0     C12837   3.982   4.081   0.574  0.3472  0.3230  0.8148
   96MOL0     C12838   4.095   4.121   0.667 -0.2569 -0.3259 -0.0926
   96MOL0     C12839   4.189   4.007   0.705 -0.6984 -2.0043 -0.1302
   96MOL0     C12840   4.305   4.061   0.796 -0.3669 -0.8309  0.5020
   96MOL0     C12841   4.423   3.965   0.815  0.8735 -0.1793  1.0417
   96MOL0     N12842   4.547   4.023   0.877 -0.0101 -0.0945 -0.4790
   96MOL0     C12843   4.551   4.107   0.986  0.0498 -1.8092  0.0538
   96MOL0     C12844   4.679   4.108   1.026  0.5301 -0.3587  0.4434
   96MOL0     C12845   4.729   4.199   1.133  0.6211 -0.0977 -0.3722
   96MOL0     C12846   4.821   4.127   1.232  0.1004 -1.0188  0.3302
   96MOL0     C12847   4.778   4.151   1.383 -1.0126  0.2836 -0.1532
   96MOL0     C12848   4.890   4.115   1.482  0.7751 -0.0493 -0.8667
   96MOL0     O12849   5.008   4.195   1.504 -0.7105 -0.4927  0.5231
   96MOL0     C12850   5.121   4.151   1.569 -0.2054  0.9581  0.8299
   96MOL0     C12851   5.207   4.060   1.505 -0.3948 -0.3853  0.4381
   96MOL0     C12852   5.312   4.009   1.574 -0.6536  0.4289  0.5205
   96MOL0     C12853   5.339   4.059   1.704 -0.0355  0.9699  0.5498
   96MOL0     C12854   5.451   4.006   1.775  0.3282  0.3277  0.2137
   96MOL0     O12855   5.446   4.028   1.912  0.0404  0.2320  0.4780
   96MOL0     C12856   5.528   3.956   2.003 -0.4068  1.1461 -0.2953
   96MOL0     C12857   5.541   4.010   2.131 -0.8424 -0.8148  0.2108
   96MOL0     C12858   5.622   3.951   2.221 -0.7611  0.4672 -1.6264
   96MOL0     C12859   5.697   3.837   2.186 -0.0896  0.0222  0.1718
   96MOL0     O12860   5.789   3.774   2.263 -0.1911  0.7518  0.8088
   96MOL0     C12861   5.781   3.797   2.403  0.5311  0.0241 -1.0173
   96MOL0     C12862   5.869   3.693   2.479 -0.3536 -0.0241 -0.2504
   96MOL0     C12863   6.021   3.694   2.443 -0.5634  0.0544  0.7282
   96MOL0     C12864   6.105   3.575   2.498  0.0391 -0.4737  0.3644
   96MOL0     C12865   6.258   3.583   2.447  0.5301 -0.2153  0.0045
   96MOL0     C12866   6.347   3.504   2.535 -0.3158 -0.2631 -0.5059
   96MOL0     C12867   6.332   3.351   2.518 -0.8810  0.3621 -0.4685
   96MOL0     C12868   6.425   3.282   2.613  0.7927  0.1594 -0.4649
   96MOL0    Cl12869   6.423   3.103   2.610  0.2830  0.5865 -0.4126
   96MOL0     C12870   5.679   3.777   2.067  0.0637 -0.6252  0.2598
   96MOL0     C12871   5.597   3.834   1.971  0.1649 -0.1097 -0.4233
   96MOL0     O12872   5.551   3.973   1.719  0.5477  0.2884  0.2954
   96MOL0     C12873   5.252   4.144   1.772  0.3333  0.0142 -0.3435
   96MOL0     C12874   5.140   4.180   1.706 -0.5327 -0.5896  0.0954
   96MOL0     N12875   4.750   4.006   0.955 -0.7585 -0.8347  0.3886
   96MOL0     N12876   4.664   3.955   0.866 -0.6813 -0.3438  0.0930
   96MOL0     C12877   3.410   3.995   0.729 -0.1069  0.5615  0.4230
   96MOL0     C12878   3.313   4.059   0.812 -0.7063 -0.5615  0.3003
   96MOL0     C12879   3.179   4.386   1.093 -0.1515  0.2494 -0.2830
   96MOL0     C12880   3.065   4.323   1.151  0.3681 -0.3020 -0.8851
   96MOL0     C12881   2.971   4.394   1.228  0.1764  0.4306  0.3219
   96MOL0     C12882   2.993   4.530   1.270 -0.1242 -0.0604  0.3380
   96MOL0     O12883   2.919   4.606   1.353  0.1473  0.1512  0.1254
   96MOL0     C12884   2.786   4.631   1.300  0.0143  0.6359 -0.0753
   96MOL0     C12885   2.773   4.774   1.258 -0.3037  0.1930  0.6638
   96MOL0     C12886   2.643   4.797   1.172 -0.9415 -0.0573 -0.3295
   96MOL0     C12887   2.586   4.933   1.191  0.7034 -0.0441 -0.4645
   96MOL0     C12888   2.502   4.961   1.073 -0.1867 -1.0446 -0.6631
   96MOL0     C12889   2.441   4.991   0.970 -0.4380  0.1370 -0.0088
   96MOL0     C12890   3.109   4.587   1.221 -0.3450 -0.3331 -0.6638
   96MOL0     C12891   3.203   4.520   1.136 -0.3703 -0.4425 -0.2490
   96MOL0     C12892   3.313   4.602   1.084  0.2350 -0.4518 -0.0847
   96MOL0     H12893   3.453   4.043   1.118  2.2841  5.6195 -1.5242
   96MOL0     H12894   3.615   3.906   0.991 -0.1230  1.1566 -0.0473
   96MOL0     H12895   3.711   3.802   0.556  0.7146 -0.0673  0.5098
   96MOL0     H12896   3.566   3.888   0.550 -0.6582  1.6843  2.2367
   96MOL0     H12897   3.675   4.101   0.606  0.0283  0.3871 -0.4805
   96MOL0     H12898   3.764   4.019   0.478 -1.6399  2.3233 -0.8406
   96MOL0     H12899   3.908   3.912   0.673 -2.2421 -0.8099 -0.7878
   96MOL0     H12900   3.861   4.068   0.743 -0.4942 -0.4625  0.0136
   96MOL0     H12901   4.016   4.017   0.492 -0.8846 -0.6976  1.0658
   96MOL0     H12902   3.945   4.171   0.524  3.5557  1.4897  0.2835
   96MOL0     H12903   4.153   4.204   0.624 -0.1021 -1.2918 -1.8547
   96MOL0     H12904   4.055   4.158   0.761  2.4128 -0.3465  1.1576
   96MOL0     H12905   4.140   3.925   0.759 -0.6093 -1.0548  1.4585
   96MOL0     H12906   4.243   3.964   0.620  0.4114 -0.6060 -0.1806
   96MOL0     H12907   4.267   4.094   0.893  1.7687  1.8899  0.5291
   96MOL0     H12908   4.343   4.147   0.741  0.3251 -1.3791  0.0992
   96MOL0     H12909   4.382   3.879   0.868 -2.0735  1.2462  1.2503
   96MOL0     H12910   4.460   3.937   0.716  0.8351  1.7728  0.4239
   96MOL0     H12911   4.466   4.158   1.030  0.3299 -0.7600 -0.5959
   96MOL0     H12912   4.777   4.291   1.099  1.8454  0.3558  2.3109
   96MOL0     H12913   4.642   4.238   1.188  0.9108 -0.8088  0.6274
   96MOL0     H12914   4.827   4.019   1.211  0.4672 -0.7641 -0.9569
   96MOL0     H12915   4.920   4.171   1.217 -0.1783 -0.5460 -0.1429
   96MOL0     H12916   4.691   4.089   1.410 -0.6430  1.1312  3.5700
   96MOL0     H12917   4.750   4.255   1.399  1.9579  0.9455  1.4625
   96MOL0     H12918   4.913   4.009   1.469 -2.9631 -0.9974 -1.0643
   96MOL0     H12919   4.844   4.113   1.582  0.8626 -0.9329 -0.8332
   96MOL0     H12920   5.175   4.043   1.402 -2.5683  0.8123  0.8576
   96MOL0     H12921   5.379   3.936   1.530 -0.4819  1.2907 -0.6892
   96MOL0     H12922   5.485   4.100   2.154 -0.0401 -0.2116 -0.1826
   96MOL0     H12923   5.635   3.993   2.320 -2.0772 -1.2585 -0.6742
   96MOL0     H12924   5.811   3.896   2.439 -1.6230  0.9145 -1.5593
   96MOL0     H12925   5.677   3.784   2.431  0.3797 -0.5002 -1.7740
   96MOL0     H12926   5.853   3.712   2.585 -2.2772 -1.5002 -0.2044
   96MOL0     H12927   5.826   3.596   2.451 -1.0090  0.5441 -1.3100
   96MOL0     H12928   6.034   3.690   2.335  1.8916  0.0891  0.9596
   96MOL0     H12929   6.070   3.786   2.477 -0.1553  0.2331 -0.3304
   96MOL0     H12930   6.059   3.480   2.470 -0.0120 -0.3792  0.1332
   96MOL0     H12931   6.109   3.579   2.608 -3.2807 -0.5076  0.5924
   96MOL0     H12932   6.290   3.688   2.445  2.3238 -0.7197 -1.7294
   96MOL0     H12933   6.271   3.537   2.348 -1.8073 -2.5729  0.7038
   96MOL0     H12934   6.446   3.542   2.505 -0.5151 -0.1068 -0.9790
   96MOL0     H12935   6.334   3.535   2.639 -0.8526 -2.0527 -0.0103
   96MOL0     H12936   6.351   3.318   2.415  0.4119  0.5761 -0.3163
   96MOL0     H12937   6.229   3.327   2.545 -0.5619 -1.0534 -0.4306
   96MOL0     H12938   6.528   3.317   2.601  0.9628 -0.3062 -0.3773
   96MOL0     H12939   6.405   3.310   2.716 -3.0831 -4.1130  0.2506
   96MOL0     H12940   5.734   3.684   2.056  0.7372 -0.4597  2.0242
   96MOL0     H12941   5.587   3.792   1.872  0.3643 -0.7340 -0.1819
   96MOL0     H12942   5.286   4.176   1.871  0.3855 -0.7764 -0.1038
   96MOL0     H12943   5.062   4.237   1.757 -0.1423 -0.8718  1.0231
   96MOL0     H12944   3.391   3.997   0.623  0.2665 -0.5160  0.3275
   96MOL0     H12945   3.229   4.105   0.759  0.3479 -1.7330 -2.6283
   96MOL0     H12946   3.041   4.223   1.117  0.0765 -0.2623 -0.7964
   96MOL0     H12947   2.876   4.354   1.261 -1.0900  2.1350 -1.0957
   96MOL0     H12948   2.711   4.613   1.377  0.5340  1.5264  0.6599
   96MOL0     H12949   2.761   4.561   1.220  0.1986 -2.3696  2.3217
   96MOL0     H12950   2.858   4.784   1.191  0.8178 -3.4880  1.2998
   96MOL0     H12951   2.769   4.841   1.344 -1.1057  4.7624 -2.5671
   96MOL0     H12952   2.579   4.715   1.206  1.2569 -2.4389 -1.5530
   96MOL0     H12953   2.667   4.776   1.067  0.0505 -0.0651 -0.1105
   96MOL0     H12954   2.529   4.948   1.283  0.1450 -2.8424 -0.2509
   96MOL0     H12955   2.672   5.000   1.196 -0.6952  1.7657  0.4180
   96MOL0     H12956   2.392   5.007   0.876  0.0579  0.0676 -0.2806
   96MOL0     H12957   3.134   4.689   1.250  2.8124 -1.0063 -0.6982
   96MOL0     H12958   3.309   4.588   0.975 -3.2260 -1.1122  0.0129
   96MOL0     H12959   3.322   4.709   1.103  5.3645 -0.3929 -1.3924
   96MOL0     H12960   3.401   4.553   1.126 -1.3713 -3.3109  0.2408
   97MOL0     O12961   2.041   5.773   8.495 -0.1584 -0.7635 -0.1153
   97MOL0     C12962   2.053   5.882   8.435 -0.3350  0.1209 -0.1735
   97MOL0     O12963   2.175   5.952   8.402  1.0484 -0.0166  0.3434
   97MOL0     C12964   2.292   5.868   8.408  0.4068 -0.2289  0.4526
   97MOL0     C12965   2.330   5.794   8.296  0.2277 -0.1406  0.0440
   97MOL0     C12966   2.447   5.711   8.304  0.8223  0.2145  0.4695
   97MOL0     C12967   2.521   5.707   8.418 -0.5941  1.1124 -0.0065
   97MOL0     O12968   2.641   5.628   8.429 -0.3992 -0.0355  0.3101
   97MOL0     C12969   2.687   5.546   8.323  0.5736  0.3146 -0.2374
   97MOL0     C12970   2.789   5.454   8.384  0.2991 -0.9961  0.8800
   97MOL0     C12971   2.921   5.531   8.388  0.0499  0.2945 -0.1804
   97MOL0     C12972   3.013   5.523   8.275 -0.8308 -0.2656  0.9138
   97MOL0     C12973   3.157   5.565   8.322  0.4201 -0.3264 -1.0722
   97MOL0     C12974   3.151   5.709   8.383 -0.5947 -0.6057  0.8175
   97MOL0     C12975   3.292   5.771   8.379 -0.6146  0.2760  0.2828
   97MOL0     C12976   3.312   5.849   8.247 -0.4244 -0.0312  0.2807
   97MOL0     N12977   3.256   5.989   8.250 -0.4824 -0.1070  0.3189
   97MOL0     C12978   3.304   6.086   8.334  0.5680  1.6954 -0.6568
   97MOL0     C12979   3.211   6.184   8.333  0.5308  0.6289  0.6421
   97MOL0     C12980   3.216   6.306   8.418 -0.2053 -0.2210 -0.3001
   97MOL0     C12981   3.308   6.405   8.340  0.2413  0.2748 -0.1447
   97MOL0     C12982   3.322   6.533   8.414  0.1574 -1.0626  0.4113
   97MOL0     C12983   3.371   6.653   8.324 -0.2048 -0.0917 -0.3829
   97MOL0     O12984   3.321   6.656   8.192  0.2265  0.6064 -0.1844
   97MOL0     C12985   3.195   6.691   8.155 -0.2979 -0.0127  0.7491
   97MOL0     C12986   3.176   6.689   8.015  0.8606 -0.6522 -0.0170
   97MOL0     C12987   3.044   6.743   7.969 -0.9585 -0.3958 -0.5317
   97MOL0     C12988   2.949   6.789   8.050  0.0752  0.7453 -0.1045
   97MOL0     C12989   2.824   6.844   7.994 -0.2817 -0.0177 -0.9820
   97MOL0     O12990   2.801   6.829   7.863 -0.0381  0.0167  0.3228
   97MOL0     C12991   2.677   6.878   7.821 -0.7476  0.2124  0.0639
   97MOL0     C12992   2.634   7.009   7.852 -0.1325 -0.1704  0.4976
   97MOL0     C12993   2.506   7.048   7.828 -0.1857  0.3347 -0.3194
   97MOL0     C12994   2.416   6.972   7.757  0.8177  0.9198  0.9953
   97MOL0     O12995   2.283   7.006   7.730  0.3599 -0.1894  0.4427
   97MOL0     C12996   2.213   7.119   7.779  0.3486 -0.2269  0.1758
   97MOL0     C12997   2.069   7.109   7.728  0.4312  0.1739 -0.1080
   97MOL0     C12998   1.979   7.219   7.787  0.0768 -0.6551 -0.5904
   97MOL0     C12999   1.837   7.213   7.730 -0.4451  0.5911 -0.5334
   97MOL0     C13000   1.746   7.302   7.816  0.1143  0.3096  0.1172
   97MOL0     C13001   1.597   7.284   7.795 -0.5026 -0.0086  0.8621
   97MOL0     C13002   1.550   7.320   7.647 -0.7790  0.1310 -0.3828
   97MOL0     C13003   1.546   7.466   7.618 -0.2708  0.1539  0.5467
   97MOL0    Cl13004   1.436   7.483   7.464 -0.4154  0.7120 -0.2323
   97MOL0     C13005   2.468   6.848   7.712 -0.2088 -0.3198  0.8388
   97MOL0     C13006   2.590   6.801   7.752 -0.1937 -0.3932 -0.3129
   97MOL0     O13007   2.744   6.894   8.067 -0.8188  0.2489 -0.4562
   97MOL0     C13008   2.969   6.786   8.193  0.3920  0.1360  0.0440
   97MOL0     C13009   3.093   6.742   8.235 -0.5352 -0.1408 -0.3742
   97MOL0     N13010   3.109   6.158   8.243 -0.5551  0.3225 -0.4465
   97MOL0     N13011   3.145   6.039   8.196 -0.4452  0.8200  0.6411
   97MOL0     C13012   2.483   5.779   8.534  0.6606 -0.2471  0.4725
   97MOL0     C13013   2.366   5.857   8.530  0.3584 -0.4247  0.9692
   97MOL0     C13014   1.926   5.960   8.417  0.4117  0.0164  0.1883
   97MOL0     C13015   1.798   5.908   8.379 -0.0042 -0.0560 -0.6009
   97MOL0     C13016   1.680   5.983   8.388 -0.5963  1.1426 -0.7814
   97MOL0     C13017   1.689   6.121   8.417  0.7000  0.2674  0.5151
   97MOL0     O13018   1.571   6.190   8.420 -0.3796 -0.0150 -0.4298
   97MOL0     C13019   1.575   6.327   8.475 -0.0677  0.3815 -0.0448
   97MOL0     C13020   1.445   6.381   8.451  0.4932 -0.1200  0.7507
   97MOL0     C13021   1.429   6.533   8.482 -0.0213 -1.1109  0.2542
   97MOL0     C13022   1.294   6.562   8.535 -0.6603 -0.1869  0.3706
   97MOL0     C13023   1.189   6.559   8.442 -0.5854  0.6568 -0.3591
   97MOL0     C13024   1.085   6.538   8.384  0.5782 -0.2764  1.0866
   97MOL0     C13025   1.813   6.175   8.453 -0.2920  1.0122 -0.1804
   97MOL0     C13026   1.930   6.104   8.455 -0.2129  0.0870  0.2241
   97MOL0     C13027   2.051   6.176   8.492 -0.0168 -0.0425  0.1198
   97MOL0     H13028   2.278   5.821   8.204  1.9406 -0.2795 -0.9991
   97MOL0     H13029   2.476   5.653   8.218  0.7743  0.2073  0.4592
   97MOL0     H13030   2.603   5.484   8.288  0.5692  0.6413 -0.8297
   97MOL0     H13031   2.729   5.591   8.232  3.0864  1.3109  1.3298
   97MOL0     H13032   2.787   5.370   8.314 -0.2885  1.8406 -2.8012
   97MOL0     H13033   2.753   5.413   8.479 -0.1235  1.2335  1.7241
   97MOL0     H13034   2.977   5.506   8.478  3.2897 -0.3747 -2.2421
   97MOL0     H13035   2.897   5.638   8.383 -1.0757  0.1167  0.8460
   97MOL0     H13036   3.022   5.420   8.238 -3.1252 -0.6137  1.1627
   97MOL0     H13037   2.984   5.576   8.184  1.1966  2.2908  1.6543
   97MOL0     H13038   3.200   5.499   8.398  1.7166  0.4718 -1.0803
   97MOL0     H13039   3.233   5.554   8.244  4.4302 -4.2562  2.8188
   97MOL0     H13040   3.091   5.767   8.313  2.8812 -0.7188 -2.5624
   97MOL0     H13041   3.106   5.709   8.483  0.4630 -0.2955  1.3104
   97MOL0     H13042   3.371   5.695   8.376 -1.0561 -0.1692 -0.2749
   97MOL0     H13043   3.311   5.819   8.476 -0.8585  2.0605 -0.5147
   97MOL0     H13044   3.421   5.849   8.241 -0.3858 -1.7515  0.3729
   97MOL0     H13045   3.273   5.799   8.158 -2.2538  1.2530  0.3016
   97MOL0     H13046   3.391   6.076   8.398 -0.8662 -3.2369  0.9695
   97MOL0     H13047   3.114   6.344   8.416  0.2606  1.4940  2.3745
   97MOL0     H13048   3.242   6.276   8.520  1.1236  2.3214  0.1909
   97MOL0     H13049   3.409   6.367   8.326  1.0585  2.1635  0.3586
   97MOL0     H13050   3.264   6.424   8.242  2.0873  1.4229 -0.7798
   97MOL0     H13051   3.394   6.523   8.496  2.7808  0.9124 -1.4680
   97MOL0     H13052   3.224   6.564   8.452  0.8800 -0.3357  1.7663
   97MOL0     H13053   3.480   6.658   8.316  0.1077  1.7582  2.9541
   97MOL0     H13054   3.344   6.742   8.381 -0.0161 -0.2051 -0.1124
   97MOL0     H13055   3.257   6.670   7.946  0.5810 -1.6553 -0.0758
   97MOL0     H13056   3.030   6.755   7.862 -2.2487  0.5836 -0.2851
   97MOL0     H13057   2.699   7.084   7.895 -0.0504  0.2898 -0.4152
   97MOL0     H13058   2.477   7.148   7.859  1.6595  0.6930  0.3614
   97MOL0     H13059   2.217   7.110   7.888 -1.0095 -1.8467  0.1466
   97MOL0     H13060   2.265   7.210   7.748  1.7834 -2.0446 -3.2728
   97MOL0     H13061   2.066   7.104   7.619 -0.9620 -1.8901 -0.0322
   97MOL0     H13062   2.019   7.019   7.764  0.2127  1.5494  3.4869
   97MOL0     H13063   1.971   7.203   7.895 -2.7689  1.0021 -0.4479
   97MOL0     H13064   2.017   7.319   7.767 -1.2689 -0.6550 -3.6877
   97MOL0     H13065   1.806   7.108   7.732  2.1607 -0.2269  0.7032
   97MOL0     H13066   1.836   7.252   7.627 -0.6363  3.0495  0.3190
   97MOL0     H13067   1.775   7.404   7.789  0.9888 -0.3966 -1.8253
   97MOL0     H13068   1.767   7.294   7.923 -0.4965  1.6312  0.3595
   97MOL0     H13069   1.552   7.185   7.803  0.4455 -0.7032 -1.5199
   97MOL0     H13070   1.549   7.352   7.866 -0.1950  0.1570  0.9135
   97MOL0     H13071   1.452   7.273   7.644 -0.2840 -0.9722  0.0575
   97MOL0     H13072   1.605   7.262   7.572  1.8551  1.4897  0.3489
   97MOL0     H13073   1.508   7.520   7.705 -0.2998  2.4166 -0.7926
   97MOL0     H13074   1.647   7.494   7.588 -0.0891  1.1401  1.9890
   97MOL0     H13075   2.394   6.795   7.652  0.0530  0.1272  0.1060
   97MOL0     H13076   2.625   6.704   7.719  3.3056 -0.0080  1.8038
   97MOL0     H13077   2.911   6.828   8.275  1.9345 -0.4426  1.4645
   97MOL0     H13078   3.102   6.756   8.342 -2.3566  0.5430 -0.2743
   97MOL0     H13079   2.527   5.761   8.631  1.5169  1.7930  0.5136
   97MOL0     H13080   2.321   5.905   8.617  0.1452 -2.5549  2.0978
   97MOL0     H13081   1.795   5.800   8.372  0.4591 -0.1141  0.0369
   97MOL0     H13082   1.587   5.934   8.363 -0.3011  0.4663 -0.5682
   97MOL0     H13083   1.646   6.380   8.411 -1.3991 -1.7535 -3.5651
   97MOL0     H13084   1.595   6.329   8.583 -1.6238 -1.1156  0.3101
   97MOL0     H13085   1.369   6.329   8.511 -1.3000  0.1855 -1.1391
   97MOL0     H13086   1.426   6.366   8.344 -0.8471 -3.0227  1.2856
   97MOL0     H13087   1.442   6.594   8.392  0.7849  0.3656  1.3392
   97MOL0     H13088   1.502   6.570   8.555 -0.6645  1.0795 -0.1467
   97MOL0     H13089   1.267   6.510   8.627 -0.2546 -1.1241 -0.0244
   97MOL0     H13090   1.310   6.665   8.571  0.5192  0.7075 -2.4039
   97MOL0     H13091   0.983   6.530   8.354  1.4318 -1.7635 -1.8779
   97MOL0     H13092   1.826   6.281   8.475  0.5451  0.3502  2.9865
   97MOL0     H13093   2.110   6.192   8.402 -2.0305  1.1656 -1.0596
   97MOL0     H13094   2.025   6.281   8.510  1.1980  0.7036 -2.1181
   97MOL0     H13095   2.102   6.131   8.578 -1.1608 -1.5514  0.0389
   98MOL0     O13096   1.818   5.790   0.934 -0.4905  0.2489  0.3734
   98MOL0     C13097   1.715   5.776   0.861 -0.3816  0.2892  0.5080
   98MOL0     O13098   1.585   5.770   0.897 -0.3381  0.0667 -0.2148
   98MOL0     C13099   1.573   5.733   1.038 -0.5653  0.1018 -0.0044
   98MOL0     C13100   1.561   5.600   1.079  0.2317 -0.4235 -0.4898
   98MOL0     C13101   1.549   5.566   1.205 -0.4223 -0.2705  0.1851
   98MOL0     C13102   1.543   5.663   1.300 -0.1234  1.4365 -0.3006
   98MOL0     O13103   1.535   5.641   1.438  0.0228  0.0189 -0.0964
   98MOL0     C13104   1.506   5.513   1.495 -0.2257  0.1890 -0.1993
   98MOL0     C13105   1.510   5.496   1.645  0.2174 -0.0383  0.0938
   98MOL0     C13106   1.466   5.352   1.681 -0.8415  0.8240 -0.0082
   98MOL0     C13107   1.315   5.332   1.695 -0.0921 -0.3915 -0.2733
   98MOL0     C13108   1.282   5.182   1.695 -1.7071  0.1726  0.5606
   98MOL0     C13109   1.134   5.127   1.696 -0.1223  0.0777  0.2815
   98MOL0     C13110   1.055   5.188   1.806  1.0528 -0.7496  1.1457
   98MOL0     C13111   1.082   5.139   1.950  0.0538 -0.9481  0.5509
   98MOL0     N13112   1.068   4.992   1.968 -0.8222  0.2506  0.1359
   98MOL0     C13113   0.960   4.921   2.029 -0.2926 -0.0912 -0.0640
   98MOL0     C13114   0.997   4.796   2.030 -0.0944 -0.0940 -0.1668
   98MOL0     C13115   0.921   4.677   2.087  0.1119 -0.0381 -0.3029
   98MOL0     C13116   0.811   4.619   1.991 -0.5775 -0.4205  0.7236
   98MOL0     C13117   0.873   4.573   1.852 -0.7605  0.0573 -0.2957
   98MOL0     C13118   0.982   4.460   1.856  0.4507  0.6590  0.6538
   98MOL0     O13119   0.947   4.338   1.916  0.1199  0.8214  0.7235
   98MOL0     C13120   1.037   4.234   1.928 -0.1318  0.3293 -0.3003
   98MOL0     C13121   0.987   4.107   1.945  0.7201  0.1421 -0.5441
   98MOL0     C13122   1.073   3.994   1.932 -0.3500  0.2359 -0.0711
   98MOL0     C13123   1.212   4.012   1.920  0.6730 -0.2864 -0.0674
   98MOL0     C13124   1.303   3.900   1.901  0.4066  0.4166  0.1208
   98MOL0     O13125   1.435   3.920   1.899 -0.8731 -0.0701 -0.3626
   98MOL0     C13126   1.516   3.804   1.900  0.1165 -0.3945 -0.3667
   98MOL0     C13127   1.555   3.737   2.015 -1.0057  0.1068  0.3229
   98MOL0     C13128   1.636   3.628   1.996 -0.2786 -0.0168  0.3624
   98MOL0     C13129   1.664   3.584   1.867 -0.4270  0.0056  0.3366
   98MOL0     O13130   1.732   3.468   1.850  0.3034 -0.6567 -0.5449
   98MOL0     C13131   1.637   3.355   1.851  0.0014  0.6910 -0.5955
   98MOL0     C13132   1.644   3.282   1.721  0.4927 -0.8591 -0.2648
   98MOL0     C13133   1.776   3.298   1.645  0.0822  0.0043  1.0229
   98MOL0     C13134   1.900   3.241   1.730  0.5836  0.1144  0.7273
   98MOL0     C13135   2.020   3.258   1.642 -0.1820  0.3614 -1.1964
   98MOL0     C13136   2.147   3.233   1.735  0.2842 -0.3727 -0.6947
   98MOL0     C13137   2.183   3.341   1.838  0.5291 -0.4482  0.3682
   98MOL0     C13138   2.320   3.313   1.878 -0.4164 -0.6044  0.1602
   98MOL0    Cl13139   2.328   3.186   2.008 -0.1395 -0.1526 -0.3932
   98MOL0     C13140   1.622   3.649   1.750  0.2184  0.0323  0.0189
   98MOL0     C13141   1.552   3.765   1.772 -0.0603 -0.2853  0.2882
   98MOL0     O13142   1.250   3.793   1.869  0.8544  0.3507 -0.2173
   98MOL0     C13143   1.267   4.145   1.914 -0.4040 -0.2104 -0.3323
   98MOL0     C13144   1.174   4.256   1.917  0.0160  0.1605 -0.0283
   98MOL0     N13145   1.117   4.783   1.973 -0.3676  0.1203 -0.1300
   98MOL0     N13146   1.160   4.900   1.937 -0.8213 -1.2495  0.0956
   98MOL0     C13147   1.541   5.795   1.266  1.1279  0.6065  0.0299
   98MOL0     C13148   1.568   5.829   1.135 -0.0009 -0.6247 -0.0588
   98MOL0     C13149   1.743   5.789   0.704  1.3763 -0.0862 -0.4738
   98MOL0     C13150   1.642   5.840   0.616 -0.0833  0.1213  0.3883
   98MOL0     C13151   1.668   5.866   0.481 -0.6001  0.5692 -0.3566
   98MOL0     C13152   1.791   5.832   0.423  0.1667 -0.5491 -0.4813
   98MOL0     O13153   1.808   5.886   0.295  0.3489  0.4556 -0.6924
   98MOL0     C13154   1.933   5.857   0.230  0.2420 -0.2653  0.7433
   98MOL0     C13155   1.939   5.932   0.096  0.6042 -0.5506 -0.2435
   98MOL0     C13156   1.813   5.906   0.009  0.2405  0.2256  0.2744
   98MOL0     C13157   1.796   5.955  -0.140  0.0444 -0.5944 -0.2499
   98MOL0     C13158   1.918   5.946  -0.227  0.0785  0.2781  0.7065
   98MOL0     C13159   2.014   5.968  -0.295  0.0428  0.5445  0.1906
   98MOL0     C13160   1.891   5.764   0.502 -0.0832  0.5940  0.3524
   98MOL0     C13161   1.861   5.745   0.639  0.1364  0.6387  0.0626
   98MOL0     C13162   1.957   5.661   0.724  0.5132  0.4705  0.2388
   98MOL0     H13163   1.561   5.520   1.006 -1.2371 -2.6752  1.7983
   98MOL0     H13164   1.556   5.461   1.230  1.1803  0.1045  1.5469
   98MOL0     H13165   1.411   5.481   1.450  0.5960 -3.1702  0.1407
   98MOL0     H13166   1.595   5.468   1.451 -0.6460 -0.0282 -0.8487
   98MOL0     H13167   1.446   5.572   1.691 -1.6216 -0.6557 -1.2869
   98MOL0     H13168   1.610   5.515   1.682 -0.0738  1.1557  0.3077
   98MOL0     H13169   1.512   5.317   1.774 -1.2827 -0.6170 -0.3025
   98MOL0     H13170   1.508   5.297   1.597 -1.0189  0.2392  0.2771
   98MOL0     H13171   1.273   5.381   1.783 -0.7539  0.1079 -0.8440
   98MOL0     H13172   1.275   5.385   1.607  1.4399  1.0893 -0.1316
   98MOL0     H13173   1.336   5.131   1.615  0.2964  2.7503  0.1095
   98MOL0     H13174   1.319   5.144   1.790 -3.0125 -2.9158 -0.0534
   98MOL0     H13175   1.086   5.140   1.599 -0.5709 -4.2018 -0.2699
   98MOL0     H13176   1.149   5.021   1.717  1.7611  0.4825  1.2983
   98MOL0     H13177   0.949   5.171   1.784  1.3497 -0.7944 -0.3568
   98MOL0     H13178   1.072   5.295   1.817 -2.8713  0.0013  1.4826
   98MOL0     H13179   1.187   5.157   1.973 -0.6271  0.9409  2.5175
   98MOL0     H13180   1.017   5.196   2.017 -1.0085  1.3114 -2.2296
   98MOL0     H13181   0.873   4.957   2.082 -0.0101 -0.4053  0.6295
   98MOL0     H13182   0.998   4.600   2.096  0.5473  0.2095 -1.6913
   98MOL0     H13183   0.871   4.694   2.183  2.2995  2.7065  0.4804
   98MOL0     H13184   0.751   4.538   2.034 -2.9579 -0.3699 -2.1812
   98MOL0     H13185   0.753   4.707   1.964  0.5021  0.0571 -0.0975
   98MOL0     H13186   0.914   4.661   1.801  1.6089  0.5115  2.1417
   98MOL0     H13187   0.797   4.536   1.782  3.0839 -2.9985 -3.3699
   98MOL0     H13188   1.071   4.503   1.903 -0.4282 -0.0235  3.1293
   98MOL0     H13189   0.996   4.432   1.751  0.2000 -1.3194  1.1010
   98MOL0     H13190   0.879   4.096   1.955  0.6340 -0.0998 -1.5960
   98MOL0     H13191   1.047   3.890   1.944  4.9360 -1.2787  0.5897
   98MOL0     H13192   1.520   3.786   2.105 -0.4755  1.0892  0.0045
   98MOL0     H13193   1.667   3.565   2.079  2.0060 -2.6039 -2.2447
   98MOL0     H13194   1.689   3.293   1.925  0.1480  1.1045 -0.3456
   98MOL0     H13195   1.538   3.375   1.892  0.9288  0.8357  1.7076
   98MOL0     H13196   1.627   3.178   1.749  0.6358  0.0212  3.7108
   98MOL0     H13197   1.562   3.305   1.652  0.9544  1.3980 -0.1389
   98MOL0     H13198   1.767   3.235   1.556  0.5495 -1.1648  1.7842
   98MOL0     H13199   1.781   3.400   1.606 -0.6020 -0.6836 -0.9668
   98MOL0     H13200   1.885   3.139   1.764  1.6944 -0.3106  0.0184
   98MOL0     H13201   1.908   3.301   1.821 -1.1683 -0.4660  1.2888
   98MOL0     H13202   2.020   3.362   1.608 -1.0128  0.5259 -0.7428
   98MOL0     H13203   2.016   3.196   1.552  0.3124  1.2798 -1.8639
   98MOL0     H13204   2.124   3.141   1.788 -1.7114  1.4386  1.8430
   98MOL0     H13205   2.230   3.221   1.665 -0.0346  0.2863 -1.2051
   98MOL0     H13206   2.125   3.345   1.931  1.6517  1.6927  1.0461
   98MOL0     H13207   2.181   3.443   1.798  1.0247 -0.5805 -0.0024
   98MOL0     H13208   2.387   3.283   1.797 -0.3215  0.1137 -0.0297
   98MOL0     H13209   2.353   3.406   1.926 -0.7883  1.7625 -3.7247
   98MOL0     H13210   1.651   3.621   1.649  1.0652  2.1264 -0.3828
   98MOL0     H13211   1.518   3.817   1.683  2.7609 -0.7952 -1.2025
   98MOL0     H13212   1.366   4.171   1.877 -0.0102 -0.7023  0.3447
   98MOL0     H13213   1.215   4.354   1.897 -1.0137  0.7446  0.6817
   98MOL0     H13214   1.519   5.881   1.330  0.3950  1.2459 -1.0502
   98MOL0     H13215   1.551   5.931   1.102  1.2287 -0.5612 -0.5181
   98MOL0     H13216   1.547   5.878   0.654  0.5132  0.0206  2.0536
   98MOL0     H13217   1.590   5.910   0.420 -0.1103 -0.8501 -2.0779
   98MOL0     H13218   1.941   5.749   0.215  1.4234 -0.1037  0.1004
   98MOL0     H13219   2.018   5.897   0.286  0.2777  0.1545  0.4009
   98MOL0     H13220   2.027   5.881   0.055  0.9793  0.3014 -0.5128
   98MOL0     H13221   1.964   6.038   0.108 -2.6876  0.2763  0.2829
   98MOL0     H13222   1.724   5.944   0.062 -0.8496  0.9029 -1.9203
   98MOL0     H13223   1.795   5.800  -0.007  1.6549  0.0924 -0.5954
   98MOL0     H13224   1.710   5.914  -0.194  1.1041 -2.9134 -0.2841
   98MOL0     H13225   1.760   6.058  -0.128 -0.0848 -0.6471 -0.1812
   98MOL0     H13226   2.092   5.980  -0.366 -0.6920  4.3903 -0.1883
   98MOL0     H13227   1.991   5.748   0.465 -0.5418 -0.4737 -0.5004
   98MOL0     H13228   2.005   5.585   0.661  1.6872  1.5136 -0.1681
   98MOL0     H13229   2.041   5.721   0.761  0.4322  2.2218 -2.1969
   98MOL0     H13230   1.911   5.605   0.806  0.0321 -1.8931 -1.5491
   99MOL0     O13231   8.152   1.812   8.405 -0.0426  0.4672 -0.8541
   99MOL0     C13232   8.094   1.917   8.391  0.3446 -0.0578  0.7817
   99MOL0     O13233   8.137   2.038   8.415  0.6124 -0.0580 -0.2564
   99MOL0     C13234   8.266   2.066   8.462  0.0644  0.1240  0.0686
   99MOL0     C13235   8.372   2.097   8.392 -0.0235 -0.7500  0.6030
   99MOL0     C13236   8.493   2.099   8.450 -0.5180 -0.2004 -0.2071
   99MOL0     C13237   8.522   2.085   8.587  0.7890  0.4196  0.0206
   99MOL0     O13238   8.651   2.096   8.631  0.1016  0.1150  0.4337
   99MOL0     C13239   8.655   2.100   8.767  0.1638 -0.5390 -0.5196
   99MOL0     C13240   8.796   2.124   8.818 -0.4901  0.2684  0.4837
   99MOL0     C13241   8.890   2.015   8.763  0.2537 -0.0143  0.2606
   99MOL0     C13242   9.033   2.029   8.798  0.3149 -0.2972  0.0446
   99MOL0     C13243   9.111   2.104   8.691 -0.5393 -1.0911  0.1400
   99MOL0     C13244   9.257   2.118   8.752 -0.5609 -0.1111  0.5901
   99MOL0     C13245   9.332   2.207   8.654  0.6121 -0.1996  1.0888
   99MOL0     C13246   9.465   2.272   8.691  0.2322  1.0109  0.5009
   99MOL0     N13247   9.566   2.170   8.684 -0.5011  0.3462  0.2064
   99MOL0     C13248   9.613   2.096   8.789 -0.6470  0.1926  0.4452
   99MOL0     C13249   9.702   2.012   8.735 -0.5451 -0.2068  0.5089
   99MOL0     C13250   9.790   1.933   8.818 -0.2776  0.2131 -0.3217
   99MOL0     C13251   9.939   1.953   8.775 -0.6688  0.1839  0.2477
   99MOL0     C13252  10.029   1.849   8.847  0.3866  0.5818  0.0859
   99MOL0     C13253  10.173   1.867   8.827  0.6015 -1.0288 -0.2511
   99MOL0     O13254  10.211   1.996   8.877  0.2311 -1.0239  0.2337
   99MOL0     C13255  10.337   2.016   8.924 -0.5724 -0.0030  1.3084
   99MOL0     C13256  10.367   2.104   9.030  0.4318  0.2238  0.8147
   99MOL0     C13257  10.487   2.128   9.067  0.4377  0.1539 -0.8293
   99MOL0     C13258  10.598   2.063   9.012 -0.7707 -0.4810  0.2613
   99MOL0     C13259  10.731   2.089   9.070  0.7170 -0.3713 -0.1434
   99MOL0     O13260  10.833   2.038   8.997 -0.4561 -0.1134 -0.2600
   99MOL0     C13261  10.954   2.050   9.058 -0.2035  0.8253  0.2624
   99MOL0     C13262  11.045   2.150   9.020  0.3101 -0.0190  0.2543
   99MOL0     C13263  11.174   2.157   9.090  0.3283  0.3529  0.9144
   99MOL0     C13264  11.204   2.073   9.189  0.3936 -0.8124  1.6152
   99MOL0     O13265  11.327   2.095   9.255 -0.3653  0.0959  0.4174
   99MOL0     C13266  11.359   2.016   9.370 -0.6415 -0.1669  0.5951
   99MOL0     C13267  11.496   2.062   9.428  0.2599  0.3074  0.3742
   99MOL0     C13268  11.479   2.203   9.488  0.0418  0.6143 -0.6946
   99MOL0     C13269  11.591   2.247   9.595 -0.4054 -0.0443 -0.1255
   99MOL0     C13270  11.719   2.283   9.522 -1.1051 -0.3424  0.6246
   99MOL0     C13271  11.814   2.356   9.618  0.2502  0.3592 -0.5533
   99MOL0     C13272  11.948   2.385   9.555  0.4828 -0.6421  0.0205
   99MOL0     C13273  12.047   2.427   9.667 -0.3080  0.4773 -0.5062
   99MOL0    Cl13274  12.215   2.462   9.599  0.0425 -0.2309  0.4028
   99MOL0     C13275  11.111   1.974   9.228  0.6810 -0.5316  0.5207
   99MOL0     C13276  10.994   1.958   9.162 -0.0659  0.3305 -0.0975
   99MOL0     O13277  10.742   2.138   9.183  0.3640  0.1609 -0.1795
   99MOL0     C13278  10.576   1.973   8.908 -0.8259  0.2769  0.0235
   99MOL0     C13279  10.449   1.953   8.859  0.1680  0.0871  0.7360
   99MOL0     N13280   9.704   2.032   8.596 -0.5823  0.1894  0.2216
   99MOL0     N13281   9.635   2.137   8.569 -0.0108 -0.5500  0.0558
   99MOL0     C13282   8.410   2.050   8.662 -0.4312  0.0305 -0.3325
   99MOL0     C13283   8.286   2.040   8.601  0.8111 -0.4605  0.6893
   99MOL0     C13284   7.955   1.918   8.336 -0.0554  0.3150  0.1154
   99MOL0     C13285   7.909   2.034   8.280 -0.2120 -0.5491 -1.1448
   99MOL0     C13286   7.779   2.046   8.230 -0.0942 -0.1545 -0.0368
   99MOL0     C13287   7.689   1.933   8.224 -0.9701  0.5615  0.5224
   99MOL0     O13288   7.559   1.930   8.179  0.8110  0.1255 -0.7471
   99MOL0     C13289   7.514   2.044   8.105 -0.0511  0.7732 -0.3568
   99MOL0     C13290   7.373   2.020   8.060  0.3062 -0.1584  0.3687
   99MOL0     C13291   7.311   2.148   8.007  0.0382  0.2963 -0.5964
   99MOL0     C13292   7.319   2.170   7.854  0.4014  0.2778  0.2857
   99MOL0     C13293   7.449   2.213   7.811 -0.0791  0.2650 -0.8296
   99MOL0     C13294   7.558   2.237   7.761 -0.2038  0.2290  0.3304
   99MOL0     C13295   7.739   1.818   8.282 -1.0422  0.5670  0.3301
   99MOL0     C13296   7.872   1.801   8.333 -0.8062  0.1734  0.4083
   99MOL0     C13297   7.906   1.657   8.388  0.8350  0.0278  0.1192
   99MOL0     H13298   8.368   2.083   8.284  1.8445 -0.6849  0.4965
   99MOL0     H13299   8.579   2.122   8.387  0.9144 -0.7194  1.4791
   99MOL0     H13300   8.599   2.187   8.800  3.0253  0.8481  1.0624
   99MOL0     H13301   8.617   2.004   8.804  0.6898 -0.1010  1.2494
   99MOL0     H13302   8.794   2.116   8.927  0.9305  1.7187  0.6738
   99MOL0     H13303   8.827   2.227   8.800 -3.4249  1.5565  2.1371
   99MOL0     H13304   8.883   2.001   8.655  1.4501 -0.7505  0.2573
   99MOL0     H13305   8.862   1.924   8.816  1.1676 -0.8632 -0.6568
   99MOL0     H13306   9.045   2.078   8.895  1.5570 -0.3490 -0.0587
   99MOL0     H13307   9.070   1.926   8.803  0.3639 -0.2861 -0.0828
   99MOL0     H13308   9.111   2.063   8.589  2.4904 -0.5252 -0.2004
   99MOL0     H13309   9.061   2.200   8.677  0.2622 -0.8375 -1.2151
   99MOL0     H13310   9.251   2.178   8.843 -0.1728 -0.0942  0.6062
   99MOL0     H13311   9.311   2.025   8.771 -1.1524 -0.1892  1.9516
   99MOL0     H13312   9.262   2.288   8.634  0.3114 -1.1791 -2.5429
   99MOL0     H13313   9.344   2.150   8.561 -1.3309  0.8281  0.1544
   99MOL0     H13314   9.494   2.354   8.625 -1.5977  2.2052  1.1160
   99MOL0     H13315   9.462   2.310   8.794 -1.0805  2.0113  0.1155
   99MOL0     H13316   9.590   2.118   8.893  0.2333 -2.1178  1.2069
   99MOL0     H13317   9.789   1.967   8.922  1.9952 -0.9019  0.1353
   99MOL0     H13318   9.757   1.828   8.821 -1.8820  0.6982  1.7377
   99MOL0     H13319   9.947   1.933   8.667  2.6937 -0.8473  0.5821
   99MOL0     H13320   9.962   2.057   8.797 -1.5235  0.8890 -1.8910
   99MOL0     H13321  10.003   1.746   8.818  0.6933  0.2411  0.9978
   99MOL0     H13322  10.000   1.852   8.952  0.0794 -0.6454  0.0550
   99MOL0     H13323  10.201   1.862   8.722 -0.3025 -0.8007 -0.5126
   99MOL0     H13324  10.222   1.785   8.881 -0.7916 -1.9912 -0.3921
   99MOL0     H13325  10.285   2.147   9.086 -1.5265 -1.3419 -0.7306
   99MOL0     H13326  10.502   2.183   9.159 -0.3051 -0.7438 -0.1506
   99MOL0     H13327  11.028   2.232   8.952 -0.0289  0.6171  1.0966
   99MOL0     H13328  11.250   2.225   9.054  1.5043 -1.3170  0.0915
   99MOL0     H13329  11.278   2.021   9.443 -0.0470 -2.7543  1.5460
   99MOL0     H13330  11.359   1.907   9.356 -0.3100 -0.1142  0.1562
   99MOL0     H13331  11.533   1.988   9.500  0.3004 -0.1013 -0.0638
   99MOL0     H13332  11.566   2.081   9.346 -0.5101  3.1345  0.2846
   99MOL0     H13333  11.472   2.277   9.407 -2.3876  2.0226  0.6918
   99MOL0     H13334  11.384   2.209   9.541  0.6964  0.0222  0.5739
   99MOL0     H13335  11.614   2.167   9.666 -1.7204  1.6484  2.3255
   99MOL0     H13336  11.559   2.327   9.662  1.2956 -0.4145  1.2138
   99MOL0     H13337  11.699   2.351   9.439 -0.4798  0.4653  1.1198
   99MOL0     H13338  11.776   2.196   9.490 -0.4926 -0.3145  1.5908
   99MOL0     H13339  11.771   2.452   9.646 -1.3577 -0.7680  1.0853
   99MOL0     H13340  11.825   2.286   9.702  2.0771 -2.3742 -2.8883
   99MOL0     H13341  11.945   2.455   9.471  1.8002  1.4410  1.6208
   99MOL0     H13342  11.982   2.291   9.512 -0.0327 -1.7295  1.8864
   99MOL0     H13343  12.008   2.522   9.705 -2.0993  0.2976 -1.7722
   99MOL0     H13344  12.054   2.362   9.755 -0.6858  0.9806 -0.0995
   99MOL0     H13345  11.132   1.918   9.319 -1.0562  0.2490  1.4580
   99MOL0     H13346  10.926   1.878   9.191  2.6897 -1.8033  0.9178
   99MOL0     H13347  10.658   1.919   8.862  0.3986  3.6075 -2.1198
   99MOL0     H13348  10.441   1.899   8.765  0.6560  0.2611  0.5906
   99MOL0     H13349   8.419   2.030   8.769  1.1486 -0.0738 -0.4568
   99MOL0     H13350   8.199   2.021   8.663 -0.0689  2.0658  0.3369
   99MOL0     H13351   7.975   2.120   8.276  0.2920 -0.9109 -0.7539
   99MOL0     H13352   7.745   2.141   8.190  0.0389 -0.8802 -1.9975
   99MOL0     H13353   7.583   2.050   8.020  0.2665  0.4659 -0.1249
   99MOL0     H13354   7.529   2.134   8.164  1.3040  0.7815 -0.6793
   99MOL0     H13355   7.319   2.004   8.154 -0.4693  3.5216  0.6828
   99MOL0     H13356   7.363   1.933   7.995  1.2151  0.5115 -0.6946
   99MOL0     H13357   7.366   2.236   8.041  1.2823 -0.8697  0.5530
   99MOL0     H13358   7.207   2.155   8.041  0.8998  1.5331  2.1345
   99MOL0     H13359   7.290   2.075   7.808 -1.9259  0.2742  1.6049
   99MOL0     H13360   7.254   2.251   7.820 -1.3132 -0.4300  1.7682
   99MOL0     H13361   7.654   2.247   7.714 -0.9147 -1.6100 -1.6992
   99MOL0     H13362   7.669   1.735   8.285 -0.7224  0.3168  1.1499
   99MOL0     H13363   7.939   1.673   8.492 -1.2211 -1.8760  1.1416
   99MOL0     H13364   7.810   1.606   8.382  1.6763 -1.8980  1.8899
   99MOL0     H13365   7.987   1.602   8.339  0.4804  1.7635 -2.6293
  100MOL0     O13366   3.628   9.444   7.765 -0.9676 -0.0388  0.1065
  100MOL0     C13367   3.635   9.425   7.888  0.3878 -0.2298 -0.2649
  100MOL0     O13368   3.720   9.344   7.953  0.4688  0.1075  0.2766
  100MOL0     C13369   3.835   9.293   7.899 -0.6047 -0.7721  0.1523
  100MOL0     C13370   3.884   9.169   7.941 -0.3482  0.2609 -0.2776
  100MOL0     C13371   3.998   9.111   7.890 -0.0186  0.1166  1.3012
  100MOL0     C13372   4.080   9.180   7.795 -0.4291  0.1858 -0.4772
  100MOL0     O13373   4.210   9.157   7.763  0.2516 -0.0692 -0.5854
  100MOL0     C13374   4.255   9.026   7.785  0.1115  0.3777 -0.3386
  100MOL0     C13375   4.377   9.005   7.694 -0.4324  0.5278 -0.2829
  100MOL0     C13376   4.438   8.866   7.696  0.1259  0.1580  0.1810
  100MOL0     C13377   4.479   8.838   7.847 -0.2498 -0.2739 -0.0236
  100MOL0     C13378   4.527   8.688   7.871 -1.1669  0.2965  0.0865
  100MOL0     C13379   4.671   8.677   7.925  0.8269  0.8577 -1.0719
  100MOL0     C13380   4.715   8.526   7.935 -0.7536 -0.2419  0.5438
  100MOL0     C13381   4.756   8.480   7.794  0.5162 -0.8590 -0.1500
  100MOL0     N13382   4.796   8.345   7.806 -1.2322 -0.6240 -0.9037
  100MOL0     C13383   4.718   8.235   7.798 -0.1762  0.5183 -0.2767
  100MOL0     C13384   4.809   8.138   7.806  0.0633  0.0397 -0.0791
  100MOL0     C13385   4.774   7.993   7.799 -0.2748  0.3566  0.1562
  100MOL0     C13386   4.888   7.892   7.775 -0.2635  0.0466 -0.4923
  100MOL0     C13387   4.970   7.874   7.898 -0.0576  0.0787 -0.3156
  100MOL0     C13388   5.015   7.724   7.930 -0.5661  0.7680 -0.6052
  100MOL0     O13389   5.070   7.665   7.812 -0.5599  0.2607 -0.1561
  100MOL0     C13390   5.194   7.693   7.766 -0.1427 -0.4521 -0.4425
  100MOL0     C13391   5.234   7.664   7.640  0.4012 -0.2899 -0.3913
  100MOL0     C13392   5.361   7.677   7.588  1.0318  0.2884  0.1353
  100MOL0     C13393   5.460   7.723   7.675  0.0364  0.3018  0.0891
  100MOL0     C13394   5.603   7.748   7.626 -0.5874  1.2682 -0.3652
  100MOL0     O13395   5.699   7.782   7.722  0.4287 -0.4274  0.8126
  100MOL0     C13396   5.817   7.856   7.696  0.0539 -0.2408  0.2126
  100MOL0     C13397   5.916   7.854   7.789 -0.8985  0.0914 -0.4806
  100MOL0     C13398   6.032   7.927   7.776 -0.2553 -0.5720  0.2495
  100MOL0     C13399   6.045   8.019   7.667  0.9514  0.3683  0.5684
  100MOL0     O13400   6.158   8.094   7.653 -0.3046 -0.2609 -0.0005
  100MOL0     C13401   6.171   8.197   7.552  0.4968  0.6479 -0.2605
  100MOL0     C13402   6.303   8.268   7.564  0.0700 -0.3686  0.2859
  100MOL0     C13403   6.283   8.404   7.636  0.8786  1.0105  0.1767
  100MOL0     C13404   6.414   8.465   7.664  0.1123  0.9038 -0.2445
  100MOL0     C13405   6.508   8.495   7.544  0.1668 -0.3847 -0.1375
  100MOL0     C13406   6.618   8.594   7.567  0.1775  0.3278 -0.3298
  100MOL0     C13407   6.723   8.539   7.663 -0.9327 -0.1480  0.1920
  100MOL0     C13408   6.807   8.656   7.722 -0.0343 -0.8269 -0.4282
  100MOL0    Cl13409   6.718   8.755   7.846  0.3835  0.2623 -0.0350
  100MOL0     C13410   5.941   8.027   7.568 -0.2953 -0.1681  0.0850
  100MOL0     C13411   5.825   7.949   7.587 -0.1954 -0.5215 -0.5668
  100MOL0     O13412   5.628   7.722   7.510 -0.4182  0.2966 -0.5113
  100MOL0     C13413   5.425   7.744   7.811 -0.4191 -0.1403 -0.1036
  100MOL0     C13414   5.294   7.737   7.864 -0.1029  0.2266  0.7352
  100MOL0     N13415   4.939   8.182   7.812 -0.0028  0.2700 -0.2142
  100MOL0     N13416   4.932   8.306   7.828  0.2955  0.0938 -0.2379
  100MOL0     C13417   4.025   9.305   7.748 -0.5370  0.6995 -0.3014
  100MOL0     C13418   3.909   9.355   7.790 -0.1346 -0.3034 -0.8112
  100MOL0     C13419   3.538   9.497   7.972  0.4009  0.9022 -0.8670
  100MOL0     C13420   3.565   9.490   8.110  0.9382  0.7298 -1.0760
  100MOL0     C13421   3.465   9.511   8.206  1.0876 -0.1464  1.2925
  100MOL0     C13422   3.340   9.563   8.162 -0.8200  0.7052 -0.0140
  100MOL0     O13423   3.233   9.600   8.248 -0.3814  0.3061 -0.7356
  100MOL0     C13424   3.251   9.595   8.393  0.9612 -0.1732 -0.7213
  100MOL0     C13425   3.115   9.599   8.462  0.1323  0.8625  0.4969
  100MOL0     C13426   3.128   9.640   8.612 -0.0116  0.3150  0.2635
  100MOL0     C13427   3.015   9.742   8.649  0.2017  0.7018  1.0018
  100MOL0     C13428   3.000   9.752   8.790 -0.5668  0.1431  1.2660
  100MOL0     C13429   3.002   9.762   8.911  0.1383 -0.2919  0.2092
  100MOL0     C13430   3.319   9.576   8.035 -0.8474 -0.8964  0.0060
  100MOL0     C13431   3.415   9.557   7.934 -0.6494 -0.4590 -0.0398
  100MOL0     C13432   3.380   9.587   7.785 -0.3715 -0.1210 -0.0397
  100MOL0     H13433   3.826   9.111   8.012 -1.9392  1.8160 -0.2502
  100MOL0     H13434   4.036   9.016   7.926 -0.1280  0.1080  1.3923
  100MOL0     H13435   4.274   9.009   7.892 -1.8642  0.8124  0.1275
  100MOL0     H13436   4.174   8.955   7.765 -0.6254  1.2311 -0.4801
  100MOL0     H13437   4.454   9.080   7.713 -0.0900 -0.1057  1.0040
  100MOL0     H13438   4.345   9.019   7.591 -0.1499 -0.2651 -0.4827
  100MOL0     H13439   4.525   8.862   7.631 -1.5717  0.2964 -2.2136
  100MOL0     H13440   4.368   8.787   7.668 -1.1441  0.7582  1.5375
  100MOL0     H13441   4.560   8.911   7.860 -0.1937 -0.2889 -0.2823
  100MOL0     H13442   4.407   8.858   7.927  1.8275 -0.8829  2.1415
  100MOL0     H13443   4.457   8.644   7.943 -1.8813 -3.8482 -2.7514
  100MOL0     H13444   4.510   8.623   7.784  2.5572 -0.0706 -0.5368
  100MOL0     H13445   4.738   8.725   7.853  0.5191 -0.4938 -2.3057
  100MOL0     H13446   4.678   8.720   8.025  1.6969 -2.8020  0.6053
  100MOL0     H13447   4.640   8.466   7.987 -0.2556 -1.2401  0.1381
  100MOL0     H13448   4.802   8.531   8.001 -1.2673 -1.5679  1.3521
  100MOL0     H13449   4.671   8.481   7.726 -1.0771 -0.5232  1.7671
  100MOL0     H13450   4.835   8.544   7.753  0.0746 -0.7924 -0.9065
  100MOL0     H13451   4.611   8.224   7.788 -0.2662 -0.4267  1.3284
  100MOL0     H13452   4.709   7.972   7.885 -1.4650  5.5399  0.9203
  100MOL0     H13453   4.710   7.987   7.711  1.2803  1.4393 -1.1033
  100MOL0     H13454   4.841   7.795   7.756 -0.0766 -0.2586  0.5579
  100MOL0     H13455   4.956   7.914   7.692  0.3494 -1.7065 -0.4844
  100MOL0     H13456   4.915   7.910   7.985 -2.9547  0.6723 -2.2158
  100MOL0     H13457   5.064   7.926   7.882  1.0885 -1.9102 -0.3704
  100MOL0     H13458   4.922   7.669   7.943 -1.3177  1.5129 -2.4491
  100MOL0     H13459   5.078   7.716   8.019 -1.3979  1.3042  0.0368
  100MOL0     H13460   5.158   7.614   7.579  0.1049 -1.3730  0.8156
  100MOL0     H13461   5.390   7.655   7.485  0.3625  0.3473 -0.0710
  100MOL0     H13462   5.907   7.777   7.865 -2.1070 -0.6601 -1.3505
  100MOL0     H13463   6.100   7.923   7.860  0.3143 -0.1557 -0.1787
  100MOL0     H13464   6.179   8.142   7.458 -0.5841  0.6520 -0.3698
  100MOL0     H13465   6.084   8.261   7.536  0.9394  0.6385 -3.4305
  100MOL0     H13466   6.377   8.208   7.618 -1.2642 -1.4581  0.9541
  100MOL0     H13467   6.335   8.295   7.463  1.6720  2.1801  1.3730
  100MOL0     H13468   6.229   8.469   7.568  1.3024  0.3646 -0.7944
  100MOL0     H13469   6.221   8.410   7.726 -2.4670  1.7334 -2.0378
  100MOL0     H13470   6.460   8.397   7.737  0.0495 -0.4433 -1.3979
  100MOL0     H13471   6.404   8.564   7.708  1.3070  0.9592 -0.0653
  100MOL0     H13472   6.446   8.519   7.457  0.5815  1.1243 -0.0568
  100MOL0     H13473   6.556   8.401   7.519 -0.2616  0.0331 -2.7805
  100MOL0     H13474   6.662   8.623   7.471  0.8710 -1.9469 -0.7831
  100MOL0     H13475   6.575   8.679   7.620  0.6268  0.3356  0.0272
  100MOL0     H13476   6.799   8.486   7.605 -2.2091  0.8696 -2.5912
  100MOL0     H13477   6.680   8.473   7.739 -0.8002 -0.2682  0.1625
  100MOL0     H13478   6.898   8.619   7.771  2.1094  2.6972 -1.3529
  100MOL0     H13479   6.837   8.734   7.652 -0.3985  1.7102  2.0620
  100MOL0     H13480   5.942   8.075   7.471  0.7925  0.5132  0.4214
  100MOL0     H13481   5.745   7.941   7.515  0.3712 -4.5887 -0.9477
  100MOL0     H13482   5.506   7.771   7.877  0.3209  1.3166 -1.5421
  100MOL0     H13483   5.287   7.755   7.971  1.6086 -1.2256  1.1427
  100MOL0     H13484   4.085   9.368   7.684 -3.7667  2.4954 -1.8105
  100MOL0     H13485   3.894   9.458   7.759  2.5018  0.1577 -0.7444
  100MOL0     H13486   3.654   9.446   8.153 -0.9076  0.9935  3.5632
  100MOL0     H13487   3.483   9.478   8.308  1.9995  2.5050  2.0677
  100MOL0     H13488   3.315   9.671   8.437  0.0459 -0.9229  2.1414
  100MOL0     H13489   3.293   9.497   8.419  0.2482 -0.9778 -2.4425
  100MOL0     H13490   3.075   9.498   8.453  0.4304  0.9304 -3.1960
  100MOL0     H13491   3.046   9.654   8.397  0.4484  0.0134 -0.6057
  100MOL0     H13492   3.229   9.679   8.626 -0.2365  0.9104  0.2827
  100MOL0     H13493   3.123   9.551   8.675 -1.3260 -1.6447 -2.4228
  100MOL0     H13494   3.033   9.837   8.597  0.4595  0.5254  0.7619
  100MOL0     H13495   2.917   9.712   8.612  0.7075  1.4033 -1.0164
  100MOL0     H13496   3.002   9.764   9.018 -2.2599  0.3183  0.2553
  100MOL0     H13497   3.221   9.618   8.011 -0.9188 -0.6779  0.6681
  100MOL0     H13498   3.346   9.490   7.748 -0.2766 -0.6934  1.3055
  100MOL0     H13499   3.289   9.648   7.790 -3.4650 -3.9740 -2.7544
  100MOL0     H13500   3.446   9.646   7.721 -0.0942 -0.6679 -0.2649
  101MOL0     O13501   8.104   1.927  10.864 -0.8794  0.5173 -0.2972
  101MOL0     C13502   8.091   2.015  10.783  0.0370 -0.1504 -0.6521
  101MOL0     O13503   8.192   2.074  10.717 -0.2548 -0.3311  0.5710
  101MOL0     C13504   8.326   2.050  10.730 -1.1055 -0.8994 -0.7068
  101MOL0     C13505   8.410   2.163  10.721  0.2248  1.1304 -0.8253
  101MOL0     C13506   8.545   2.150  10.736  0.3162 -0.2489  0.1515
  101MOL0     C13507   8.598   2.027  10.767  0.2261 -0.5088  0.0884
  101MOL0     O13508   8.733   2.027  10.787 -0.7041  0.2737 -0.0668
  101MOL0     C13509   8.802   1.905  10.751  0.2391 -0.0631 -0.5658
  101MOL0     C13510   8.951   1.929  10.743 -0.1800 -0.1906  0.5027
  101MOL0     C13511   9.025   1.805  10.686 -0.1588  0.1233 -0.5376
  101MOL0     C13512   9.181   1.823  10.690 -0.3967 -0.4469 -1.0324
  101MOL0     C13513   9.271   1.735  10.610  0.5436  0.0929 -0.2504
  101MOL0     C13514   9.413   1.778  10.641 -0.2823 -0.2119  0.5830
  101MOL0     C13515   9.531   1.694  10.579  0.7415  0.4034 -0.0444
  101MOL0     C13516   9.657   1.790  10.571 -1.0840  0.6454 -0.7348
  101MOL0     N13517   9.638   1.909  10.489 -1.0737  0.8353 -0.5371
  101MOL0     C13518   9.625   2.026  10.540 -0.8597 -0.6678  0.6347
  101MOL0     C13519   9.588   2.102  10.431 -0.2758  0.4869  0.2667
  101MOL0     C13520   9.558   2.250  10.439  0.0282 -0.3189  0.0925
  101MOL0     C13521   9.405   2.275  10.450 -0.4507 -0.6421 -0.3601
  101MOL0     C13522   9.352   2.244  10.593 -0.1936 -0.3082  1.0124
  101MOL0     C13523   9.211   2.282  10.593 -0.4357  0.4311  0.4422
  101MOL0     O13524   9.125   2.203  10.504 -0.4543 -0.9510  0.1681
  101MOL0     C13525   8.993   2.237  10.479  0.7505 -0.4392 -0.1777
  101MOL0     C13526   8.925   2.159  10.384 -0.2265 -0.0668  0.1939
  101MOL0     C13527   8.794   2.195  10.344  1.1833  0.0150  0.6591
  101MOL0     C13528   8.719   2.280  10.424  0.1991  0.2339 -0.1954
  101MOL0     C13529   8.577   2.297  10.404 -0.3294 -0.4711 -0.3873
  101MOL0     O13530   8.521   2.245  10.288  0.2097  0.2763 -0.5631
  101MOL0     C13531   8.389   2.288  10.256 -0.1523  0.1003  0.5524
  101MOL0     C13532   8.279   2.264  10.342 -0.5544  1.1375  1.4038
  101MOL0     C13533   8.150   2.295  10.301 -0.6184 -1.5569 -0.4140
  101MOL0     C13534   8.124   2.359  10.183 -0.9891 -0.4041  0.6411
  101MOL0     O13535   7.995   2.383  10.147 -0.5921 -0.1458  0.5227
  101MOL0     C13536   7.959   2.520  10.153  0.0055  0.6748 -0.0117
  101MOL0     C13537   7.863   2.547  10.044 -0.1350 -0.3777  0.2981
  101MOL0     C13538   7.834   2.692  10.019  0.4657 -0.1195  0.1627
  101MOL0     C13539   7.922   2.757   9.909  0.0786  0.3809 -0.4655
  101MOL0     C13540   7.852   2.874   9.838  0.7280 -0.1919 -0.1267
  101MOL0     C13541   7.859   3.002   9.926 -0.0473 -1.3602  0.4922
  101MOL0     C13542   7.826   3.140   9.859  0.3435 -0.0637 -0.1525
  101MOL0     C13543   7.939   3.174   9.761 -0.2431 -0.4209 -0.4639
  101MOL0    Cl13544   8.105   3.196   9.849 -0.0744 -0.1736 -0.3416
  101MOL0     C13545   8.233   2.388  10.095  0.8656 -0.4459  0.3573
  101MOL0     C13546   8.364   2.342  10.127  0.1846  0.1392 -0.1335
  101MOL0     O13547   8.516   2.372  10.480 -0.7488 -0.2670  0.0430
  101MOL0     C13548   8.792   2.357  10.519  0.2118 -0.3357  1.2387
  101MOL0     C13549   8.922   2.334  10.551  0.0734 -0.0801  0.4833
  101MOL0     N13550   9.576   2.024  10.317  0.8567 -0.5152  0.5065
  101MOL0     N13551   9.604   1.908  10.356  0.1859  0.3222  0.3569
  101MOL0     C13552   8.513   1.919  10.794  0.3929 -0.2451  0.4765
  101MOL0     C13553   8.375   1.927  10.768  0.1830  0.0746  0.7105
  101MOL0     C13554   7.955   2.061  10.742 -0.0433  0.2614 -0.8514
  101MOL0     C13555   7.943   2.138  10.624 -0.0104  0.6994 -0.6198
  101MOL0     C13556   7.821   2.176  10.573  0.9204  0.0464 -0.8103
  101MOL0     C13557   7.709   2.146  10.644 -0.2132 -0.3393  0.5149
  101MOL0     O13558   7.577   2.180  10.613  0.3399 -0.4257  0.3200
  101MOL0     C13559   7.543   2.225  10.479 -0.4477  0.1528  0.0761
  101MOL0     C13560   7.390   2.246  10.473 -0.0061 -0.1107  0.7645
  101MOL0     C13561   7.324   2.112  10.435 -0.1288  0.5544 -0.3400
  101MOL0     C13562   7.293   2.026  10.554 -0.6602  0.0466  0.1521
  101MOL0     C13563   7.195   2.088  10.647 -0.2318 -0.4684  0.4628
  101MOL0     C13564   7.114   2.155  10.716 -0.0940 -0.7935  0.8088
  101MOL0     C13565   7.718   2.073  10.755 -0.3073  0.4031 -0.5541
  101MOL0     C13566   7.837   2.027  10.810 -0.4985 -0.1808 -0.7032
  101MOL0     C13567   7.822   1.948  10.931 -0.0974  0.0435  0.1742
  101MOL0     H13568   8.352   2.254  10.704 -1.2926  0.5004  0.6953
  101MOL0     H13569   8.599   2.242  10.721  1.0829 -1.0006 -2.1386
  101MOL0     H13570   8.772   1.829  10.823 -2.0339  0.3216 -1.0005
  101MOL0     H13571   8.771   1.865  10.654  1.3715 -0.7553 -0.6565
  101MOL0     H13572   8.992   1.945  10.843 -1.9112 -0.2393  1.2406
  101MOL0     H13573   8.972   2.014  10.677 -1.3765 -0.3384 -0.0913
  101MOL0     H13574   9.000   1.802  10.580  0.9302 -2.0580 -0.7881
  101MOL0     H13575   8.989   1.711  10.728  1.2368 -0.0997  0.2399
  101MOL0     H13576   9.200   1.921  10.646  0.4027 -0.8362 -1.5721
  101MOL0     H13577   9.213   1.819  10.795 -3.5831 -1.0808  0.0447
  101MOL0     H13578   9.256   1.632  10.643  3.4410 -0.6891 -1.1133
  101MOL0     H13579   9.250   1.739  10.503  1.1263 -1.6985 -0.4531
  101MOL0     H13580   9.416   1.872  10.584  2.7437 -0.2792  0.4619
  101MOL0     H13581   9.433   1.802  10.746 -1.2121  1.2919  0.4500
  101MOL0     H13582   9.501   1.662  10.479 -2.8769  0.5360  0.8557
  101MOL0     H13583   9.563   1.605  10.633  3.9522  1.0105 -0.7525
  101MOL0     H13584   9.697   1.814  10.670 -0.2643 -1.3242 -0.5391
  101MOL0     H13585   9.742   1.735  10.529  0.9438  2.0687  1.2702
  101MOL0     H13586   9.639   2.074  10.637  1.1763  0.6101 -0.2042
  101MOL0     H13587   9.598   2.291  10.532 -2.0846 -1.8086  1.7555
  101MOL0     H13588   9.605   2.300  10.354 -3.2749  0.1193 -1.6263
  101MOL0     H13589   9.383   2.380  10.433  0.8312 -0.0234  1.5216
  101MOL0     H13590   9.360   2.217  10.369 -1.6920  1.3454 -1.1604
  101MOL0     H13591   9.405   2.299  10.672  1.8508 -3.7847  2.3181
  101MOL0     H13592   9.367   2.136  10.605  0.6172 -0.3666 -0.3580
  101MOL0     H13593   9.198   2.386  10.562  1.0380  0.6468  0.4899
  101MOL0     H13594   9.173   2.267  10.695  1.5337  1.7443  1.4399
  101MOL0     H13595   8.987   2.085  10.333 -1.8597 -1.3042 -0.0820
  101MOL0     H13596   8.738   2.137  10.271 -3.4404  1.6459  2.5593
  101MOL0     H13597   8.302   2.222  10.440  0.4486  2.0578  1.5847
  101MOL0     H13598   8.075   2.285  10.379 -1.3111 -0.9529 -0.9889
  101MOL0     H13599   7.928   2.546  10.255 -0.3035 -1.7757  0.5968
  101MOL0     H13600   8.045   2.586  10.147 -0.1075  0.6720 -2.3130
  101MOL0     H13601   7.904   2.508   9.951  0.0167 -0.0982  0.2474
  101MOL0     H13602   7.773   2.487  10.058  0.3966 -1.2635 -0.0044
  101MOL0     H13603   7.728   2.710   9.997  0.6961  1.7252  0.4455
  101MOL0     H13604   7.845   2.750  10.111  1.7336  1.7513 -1.0859
  101MOL0     H13605   7.931   2.683   9.830  0.4150  1.5870 -1.5954
  101MOL0     H13606   8.020   2.778   9.954 -0.3371  3.2084 -0.6912
  101MOL0     H13607   7.747   2.849   9.826  0.6874  1.0960 -3.1568
  101MOL0     H13608   7.903   2.888   9.742  0.5269  0.7469 -0.1036
  101MOL0     H13609   7.794   2.999  10.014  1.6550  2.1817  2.0754
  101MOL0     H13610   7.958   2.999   9.971 -0.2977  1.4566  1.4632
  101MOL0     H13611   7.823   3.218   9.934  1.7088 -1.7034  1.7220
  101MOL0     H13612   7.727   3.141   9.814  1.2295 -2.4825 -2.4659
  101MOL0     H13613   7.942   3.096   9.684 -1.8529  0.2549 -1.2620
  101MOL0     H13614   7.930   3.265   9.701  0.2923  0.3934  0.6541
  101MOL0     H13615   8.201   2.423   9.997 -0.7800 -2.0723  0.2563
  101MOL0     H13616   8.441   2.337  10.050  2.2707  1.7878  1.7264
  101MOL0     H13617   8.734   2.440  10.558 -0.1483 -0.1690  0.3715
  101MOL0     H13618   8.953   2.414  10.618  0.7594  0.1314 -0.0724
  101MOL0     H13619   8.550   1.821  10.823  0.1205 -0.1887  1.0330
  101MOL0     H13620   8.310   1.841  10.776 -0.9003  1.0519  3.1759
  101MOL0     H13621   8.033   2.162  10.567  1.0410  0.7383  0.9892
  101MOL0     H13622   7.809   2.226  10.478 -1.2573  0.0003 -0.5930
  101MOL0     H13623   7.572   2.157  10.398  0.4375 -0.2147  0.6903
  101MOL0     H13624   7.591   2.320  10.455 -2.5369  1.5032  0.9664
  101MOL0     H13625   7.356   2.310  10.391  2.3996  3.5598  2.3558
  101MOL0     H13626   7.350   2.280  10.569  2.2891 -2.2057  2.6007
  101MOL0     H13627   7.391   2.063  10.364  1.8085  0.0245  1.7474
  101MOL0     H13628   7.238   2.130  10.370  0.6763 -0.1946 -1.6683
  101MOL0     H13629   7.272   1.924  10.522  1.6187  0.0421 -1.5940
  101MOL0     H13630   7.386   2.024  10.611 -1.3056  2.5614  1.4513
  101MOL0     H13631   7.037   2.208  10.769 -0.9970 -1.3271  0.0584
  101MOL0     H13632   7.625   2.049  10.805 -0.6883 -0.4451 -1.6309
  101MOL0     H13633   7.841   1.843  10.911 -0.4380  0.1628 -0.8460
  101MOL0     H13634   7.894   1.977  11.008 -0.4429 -1.0994  0.9396
  101MOL0     H13635   7.723   1.960  10.976 -0.9981 -0.6466 -1.5532
  102MOL0     O13636  10.158   8.327   0.053  0.1424 -0.4292  0.5837
  102MOL0     C13637  10.216   8.226   0.081  0.3219  0.2759  0.6728
  102MOL0     O13638  10.337   8.224   0.148  0.7964 -0.5486 -0.6907
  102MOL0     C13639  10.393   8.326   0.215 -0.3401 -0.1260  0.4412
  102MOL0     C13640  10.532   8.330   0.207  0.0142 -0.8325 -0.1929
  102MOL0     C13641  10.608   8.433   0.266  0.7844 -0.4462  0.2550
  102MOL0     C13642  10.541   8.522   0.354 -0.1601  0.4851  0.9486
  102MOL0     O13643  10.621   8.615   0.407 -0.3952  0.3061  0.4071
  102MOL0     C13644  10.575   8.750   0.423  0.1509  0.2759  0.1461
  102MOL0     C13645  10.683   8.835   0.360 -0.3622 -0.0344 -0.0346
  102MOL0     C13646  10.626   8.969   0.318  0.0798 -1.3101  0.5290
  102MOL0     C13647  10.570   9.050   0.442  0.0159  0.6389  0.4500
  102MOL0     C13648  10.505   9.183   0.405 -0.5328  0.3778  0.0481
  102MOL0     C13649  10.593   9.279   0.336 -0.1734 -0.7808  0.4112
  102MOL0     C13650  10.674   9.351   0.442  1.1557 -0.4456  0.3730
  102MOL0     C13651  10.823   9.360   0.427 -0.2426  0.3844  0.4817
  102MOL0     N13652  10.875   9.227   0.454  0.3063  0.3185  0.0971
  102MOL0     C13653  10.968   9.154   0.387 -0.4618  0.4047  0.7306
  102MOL0     C13654  11.017   9.060   0.472  0.0140 -0.4866  0.0462
  102MOL0     C13655  11.142   8.977   0.444  0.8592 -0.2399 -0.5251
  102MOL0     C13656  11.102   8.880   0.338 -0.2740  0.1045  1.3363
  102MOL0     C13657  11.225   8.876   0.246 -0.1358  0.0558 -0.2561
  102MOL0     C13658  11.363   8.830   0.303  0.3312  0.7632 -0.3276
  102MOL0     O13659  11.343   8.694   0.358 -0.6400 -0.0147 -0.7570
  102MOL0     C13660  11.434   8.637   0.439 -0.5578 -0.0228 -0.3866
  102MOL0     C13661  11.571   8.662   0.435 -0.6218 -0.8195 -0.4965
  102MOL0     C13662  11.659   8.612   0.541 -0.4260  0.3952  0.5045
  102MOL0     C13663  11.598   8.531   0.651 -0.3121  0.5885 -0.3031
  102MOL0     C13664  11.686   8.487   0.763 -0.7104 -0.5298  0.1513
  102MOL0     O13665  11.806   8.553   0.763 -0.3320 -0.3163 -0.3837
  102MOL0     C13666  11.915   8.495   0.832 -0.7886 -0.2562  0.4000
  102MOL0     C13667  11.965   8.367   0.810  1.1302 -0.3712  0.6738
  102MOL0     C13668  12.075   8.317   0.875 -0.3602 -0.9098 -0.2643
  102MOL0     C13669  12.133   8.390   0.971  0.0771  0.1025 -0.6844
  102MOL0     O13670  12.239   8.338   1.041  0.3821 -0.2525  0.6348
  102MOL0     C13671  12.346   8.424   1.091 -0.0139  0.9169 -0.1317
  102MOL0     C13672  12.486   8.338   1.095 -0.6073  0.3818 -0.1163
  102MOL0     C13673  12.516   8.207   1.011  0.1663  0.5761 -0.2997
  102MOL0     C13674  12.635   8.120   1.060 -0.0969 -0.4143  0.6633
  102MOL0     C13675  12.698   8.026   0.946 -0.0095  0.5136 -0.7748
  102MOL0     C13676  12.595   7.947   0.865 -0.3373  0.4955  0.3402
  102MOL0     C13677  12.513   7.843   0.946  0.0573 -0.0535 -0.4602
  102MOL0     C13678  12.448   7.731   0.850  0.4039 -0.0091  0.2308
  102MOL0    Cl13679  12.410   7.587   0.936 -0.2543 -0.0929  0.7506
  102MOL0     C13680  12.085   8.515   1.013  0.0944  0.5857 -0.5587
  102MOL0     C13681  11.975   8.565   0.937 -0.2682  0.1186 -0.7205
  102MOL0     O13682  11.646   8.396   0.839 -0.5016 -0.6673 -0.3393
  102MOL0     C13683  11.460   8.495   0.636  0.8437  0.1594  0.2537
  102MOL0     C13684  11.377   8.559   0.536 -0.1540 -0.0865 -0.3656
  102MOL0     N13685  10.968   9.081   0.601  0.3856  0.0171 -0.4976
  102MOL0     N13686  10.894   9.188   0.587  0.7617  0.1236 -0.3673
  102MOL0     C13687  10.402   8.511   0.365  0.0709  0.2913 -0.4426
  102MOL0     C13688  10.325   8.417   0.294  0.4087 -0.1377 -0.0168
  102MOL0     C13689  10.155   8.089   0.043  0.1753 -0.8659  0.6577
  102MOL0     C13690  10.208   7.971   0.081 -0.0861 -0.1496 -0.4445
  102MOL0     C13691  10.172   7.850   0.023 -0.4636 -0.1228 -0.0831
  102MOL0     C13692  10.087   7.851  -0.084  0.2497 -0.5735  0.4460
  102MOL0     O13693  10.059   7.753  -0.174  0.0577 -0.1777  0.1184
  102MOL0     C13694  10.116   7.628  -0.145 -1.2514  0.6525  0.0705
  102MOL0     C13695  10.065   7.525  -0.256 -1.0347  0.1902  0.5461
  102MOL0     C13696  10.142   7.529  -0.396  0.2212  0.8428 -0.7974
  102MOL0     C13697  10.063   7.458  -0.498  0.4518 -0.0744  1.4580
  102MOL0     C13698  10.129   7.452  -0.629 -0.2555  0.0113 -0.4772
  102MOL0     C13699  10.179   7.430  -0.739 -0.0200 -0.3645  0.4563
  102MOL0     C13700  10.016   7.970  -0.111 -0.2918  1.2419  0.8217
  102MOL0     C13701  10.041   8.083  -0.052  0.3277  0.9753  0.0810
  102MOL0     C13702   9.949   8.192  -0.098 -0.6976  0.5413 -0.9904
  102MOL0     H13703  10.587   8.257   0.148 -1.1594 -1.2536 -0.7936
  102MOL0     H13704  10.712   8.446   0.240  0.3174  3.3263 -0.2719
  102MOL0     H13705  10.482   8.773   0.370  0.1711  0.2894  0.1162
  102MOL0     H13706  10.556   8.775   0.528 -0.8509  1.4217 -0.2873
  102MOL0     H13707  10.730   8.781   0.277 -1.5920 -1.5329  0.1908
  102MOL0     H13708  10.763   8.855   0.432 -0.0357  0.5222 -0.5429
  102MOL0     H13709  10.549   8.964   0.240 -0.0513 -0.5874  0.5999
  102MOL0     H13710  10.716   9.024   0.286  0.6035 -2.4046  0.0907
  102MOL0     H13711  10.488   8.992   0.485  0.1071 -0.4033 -0.7217
  102MOL0     H13712  10.649   9.065   0.516  0.0955  3.4640 -0.0965
  102MOL0     H13713  10.428   9.154   0.334 -0.2495 -4.0570  1.2529
  102MOL0     H13714  10.458   9.220   0.497  0.2409 -0.1371  0.6723
  102MOL0     H13715  10.654   9.240   0.254 -0.6609 -2.1034  0.6663
  102MOL0     H13716  10.529   9.350   0.283 -0.4016 -0.1814  1.4678
  102MOL0     H13717  10.642   9.325   0.543 -4.0826  2.4594 -0.1540
  102MOL0     H13718  10.635   9.453   0.433 -0.5672 -1.0481  0.5363
  102MOL0     H13719  10.851   9.388   0.325  0.3986 -2.0014 -0.0621
  102MOL0     H13720  10.869   9.427   0.501  0.2325  2.0313 -1.2264
  102MOL0     H13721  11.014   9.178   0.292 -1.4633  0.1907  0.1787
  102MOL0     H13722  11.230   9.036   0.417  0.4306 -0.9871 -4.1575
  102MOL0     H13723  11.168   8.918   0.532  3.6800 -1.7605 -2.2375
  102MOL0     H13724  11.074   8.779   0.369 -1.1299 -0.2876 -0.5269
  102MOL0     H13725  11.025   8.925   0.275  1.1662 -0.1554 -0.7476
  102MOL0     H13726  11.233   8.972   0.196 -0.8546 -0.0677 -0.6150
  102MOL0     H13727  11.206   8.809   0.162  0.7403  0.1692 -0.5524
  102MOL0     H13728  11.402   8.892   0.384  0.1312 -1.1042  1.2653
  102MOL0     H13729  11.441   8.824   0.226 -0.6777  2.0196 -1.5015
  102MOL0     H13730  11.605   8.726   0.354 -2.3918 -1.7168 -2.0336
  102MOL0     H13731  11.765   8.636   0.531 -0.1611  0.0994  2.1859
  102MOL0     H13732  11.922   8.318   0.724  1.4550 -1.5776  1.1753
  102MOL0     H13733  12.114   8.219   0.848 -3.0498 -2.0848 -0.2241
  102MOL0     H13734  12.356   8.520   1.038  3.3444 -0.3864 -2.1400
  102MOL0     H13735  12.320   8.437   1.197  0.5058 -1.4557  0.3279
  102MOL0     H13736  12.575   8.400   1.082  0.0482 -0.4514  0.2436
  102MOL0     H13737  12.501   8.300   1.197  5.2945 -1.4345 -1.2567
  102MOL0     H13738  12.423   8.150   1.010  0.4487 -0.0038  1.7531
  102MOL0     H13739  12.534   8.235   0.906 -3.3783  2.1779 -0.6279
  102MOL0     H13740  12.603   8.065   1.149 -0.3898  2.4122  2.4333
  102MOL0     H13741  12.712   8.189   1.096 -1.5901 -0.0100  3.3231
  102MOL0     H13742  12.762   7.948   0.989 -1.4122  0.3754  1.1548
  102MOL0     H13743  12.753   8.076   0.865  0.0652  0.6354 -0.6485
  102MOL0     H13744  12.525   8.017   0.820 -3.0748 -0.4199  2.8760
  102MOL0     H13745  12.652   7.889   0.791 -1.8859 -1.7546  0.8034
  102MOL0     H13746  12.432   7.893   1.000  1.4545  1.6266  0.1826
  102MOL0     H13747  12.578   7.799   1.023 -0.2384 -1.4836 -0.9965
  102MOL0     H13748  12.354   7.769   0.810  0.4770 -1.0023 -0.9267
  102MOL0     H13749  12.506   7.713   0.759 -0.4455  0.9438 -0.5161
  102MOL0     H13750  12.136   8.574   1.088 -0.8658  1.2390 -0.3993
  102MOL0     H13751  11.933   8.660   0.968 -0.2122  0.2855 -1.1548
  102MOL0     H13752  11.403   8.440   0.710  2.4035  0.5645  1.8229
  102MOL0     H13753  11.269   8.556   0.535 -0.2200  1.1177  0.5611
  102MOL0     H13754  10.347   8.583   0.424  0.8396 -0.3881  1.1822
  102MOL0     H13755  10.218   8.398   0.294  0.1376  1.2962  0.9689
  102MOL0     H13756  10.283   7.975   0.159 -3.2590 -0.8500  2.9134
  102MOL0     H13757  10.221   7.762   0.062  0.9173  0.4538 -0.4563
  102MOL0     H13758  10.086   7.598  -0.044 -1.1881  1.3967  0.3107
  102MOL0     H13759  10.225   7.638  -0.145 -1.2225  0.4494  0.9016
  102MOL0     H13760   9.957   7.536  -0.261 -1.1717  0.4696  2.9136
  102MOL0     H13761  10.082   7.422  -0.225 -0.3487 -0.1606 -0.9095
  102MOL0     H13762  10.240   7.483  -0.384 -0.3217 -0.2164 -0.2906
  102MOL0     H13763  10.160   7.636  -0.412 -0.1708  1.3744  1.7279
  102MOL0     H13764  10.056   7.355  -0.462  1.2044 -0.6752 -0.0379
  102MOL0     H13765   9.959   7.492  -0.504 -0.4735 -2.8298  0.6039
  102MOL0     H13766  10.210   7.404  -0.838  2.4859  0.5225  0.9435
  102MOL0     H13767   9.936   7.968  -0.184  1.6218 -0.4383 -1.3842
  102MOL0     H13768   9.928   8.258  -0.013 -1.0360  0.6332 -1.1452
  102MOL0     H13769  10.003   8.252  -0.171  0.3809  0.7173 -0.0770
  102MOL0     H13770   9.854   8.162  -0.142 -0.8802  1.0108 -0.9182
  103MOL0     O13771   0.496   5.965   0.558 -0.1435 -1.0769  0.4492
  103MOL0     C13772   0.483   5.911   0.445  0.0666  0.3811  0.1646
  103MOL0     O13773   0.595   5.861   0.376  0.1642  0.0385  0.5938
  103MOL0     C13774   0.718   5.901   0.414  0.3629 -0.0755 -0.1284
  103MOL0     C13775   0.803   5.980   0.340 -0.0189  0.0669  0.3402
  103MOL0     C13776   0.938   5.975   0.366  0.9218  0.1758 -0.2884
  103MOL0     C13777   0.994   5.915   0.476  0.2637  0.4892 -0.4319
  103MOL0     O13778   1.123   5.942   0.517  0.3259  0.1072  0.0590
  103MOL0     C13779   1.197   6.056   0.464  0.0370  0.7299 -0.1207
  103MOL0     C13780   1.323   6.061   0.545 -0.1804 -0.0649 -0.9054
  103MOL0     C13781   1.389   6.210   0.538  0.1487  0.2226 -0.1408
  103MOL0     C13782   1.539   6.209   0.545 -0.7373  0.0451 -0.9184
  103MOL0     C13783   1.591   6.219   0.688 -1.0316 -0.0702 -0.8302
  103MOL0     C13784   1.749   6.240   0.676  0.0438  0.1562  0.2732
  103MOL0     C13785   1.842   6.121   0.638  0.4144 -1.3430 -0.4322
  103MOL0     C13786   1.989   6.168   0.619  0.7584 -0.3333  0.3606
  103MOL0     N13787   2.050   6.170   0.749 -0.2114 -0.4387  0.3346
  103MOL0     C13788   2.063   6.069   0.838 -0.7835 -0.5579 -0.7218
  103MOL0     C13789   2.133   6.121   0.948  0.8195 -0.5485  0.0599
  103MOL0     C13790   2.158   6.033   1.071 -0.0014  0.2574 -0.5670
  103MOL0     C13791   2.038   5.971   1.153 -0.5157 -0.1761 -0.4409
  103MOL0     C13792   1.958   6.075   1.234 -0.0042 -0.4213 -0.3151
  103MOL0     C13793   1.832   6.026   1.305  0.4357  0.9619 -0.4427
  103MOL0     O13794   1.802   6.096   1.428  0.0265  0.2867 -0.4809
  103MOL0     C13795   1.686   6.057   1.483 -0.2845 -0.6669  0.2402
  103MOL0     C13796   1.583   6.145   1.479 -0.8849 -0.1020 -0.7048
  103MOL0     C13797   1.467   6.108   1.533 -0.7342 -0.3970 -0.2681
  103MOL0     C13798   1.450   5.988   1.601  0.0099 -0.0194  0.1995
  103MOL0     C13799   1.321   5.948   1.658  0.6374 -0.3145  0.6917
  103MOL0     O13800   1.223   6.041   1.659  0.3014  0.2699 -0.2520
  103MOL0     C13801   1.094   6.011   1.696 -1.3552  0.5952  0.0640
  103MOL0     C13802   1.061   5.948   1.816 -0.7968 -0.3428  0.1425
  103MOL0     C13803   0.938   5.893   1.837 -0.0626  0.7636 -0.1279
  103MOL0     C13804   0.847   5.892   1.734 -0.4301  0.0249  0.3704
  103MOL0     O13805   0.718   5.832   1.754 -0.0753 -0.8298 -0.0547
  103MOL0     C13806   0.639   5.815   1.642  0.2597  1.0547  0.0247
  103MOL0     C13807   0.526   5.716   1.675  0.4909 -0.4709  0.7284
  103MOL0     C13808   0.409   5.766   1.749  0.3861 -0.3351 -0.1824
  103MOL0     C13809   0.284   5.676   1.765 -0.5326  0.2497 -0.3017
  103MOL0     C13810   0.175   5.747   1.847  0.1752  0.4286 -0.4039
  103MOL0     C13811   0.089   5.643   1.925  0.7846  0.8284 -0.0958
  103MOL0     C13812  -0.017   5.703   2.016  0.2270  0.1399 -0.1371
  103MOL0     C13813  -0.106   5.594   2.073  0.1225  0.0838 -0.8949
  103MOL0    Cl13814  -0.013   5.506   2.189  0.0168  0.0058 -0.2395
  103MOL0     C13815   0.875   5.959   1.614 -0.8594  0.1723 -0.0637
  103MOL0     C13816   0.993   6.030   1.600  0.2440 -0.5437 -0.4467
  103MOL0     O13817   1.313   5.838   1.710  0.5586 -0.2270 -0.5668
  103MOL0     C13818   1.555   5.902   1.603  0.0141  0.3053 -0.1761
  103MOL0     C13819   1.681   5.942   1.551 -0.5589 -0.2016 -0.2528
  103MOL0     N13820   2.142   6.252   0.926 -0.0680  0.0052  0.7169
  103MOL0     N13821   2.082   6.289   0.812  0.0930  0.2852  0.5169
  103MOL0     C13822   0.907   5.835   0.550  0.2343 -0.6330 -0.0270
  103MOL0     C13823   0.768   5.822   0.516 -0.3281 -1.3090  0.0071
  103MOL0     C13824   0.349   5.895   0.386 -0.3003 -0.1737  0.3874
  103MOL0     C13825   0.245   5.925   0.479 -0.0103  0.2889  0.5542
  103MOL0     C13826   0.114   5.907   0.449  0.4123 -0.2599  0.1868
  103MOL0     C13827   0.078   5.874   0.320  0.2478  0.0607  0.8466
  103MOL0     O13828  -0.043   5.840   0.276 -0.0764  0.4176 -0.1436
  103MOL0     C13829  -0.155   5.872   0.358  0.3191 -0.3091  0.1650
  103MOL0     C13830  -0.241   5.751   0.413 -0.5139 -0.3870  0.4393
  103MOL0     C13831  -0.324   5.826   0.530 -0.0466  1.4991  0.0776
  103MOL0     C13832  -0.393   5.721   0.616 -0.5952  0.6116 -0.4388
  103MOL0     C13833  -0.493   5.652   0.533 -0.2837  0.5434 -0.7797
  103MOL0     C13834  -0.577   5.622   0.458 -0.3317  0.3064 -0.1071
  103MOL0     C13835   0.183   5.857   0.228  0.6626 -0.3755  0.0811
  103MOL0     C13836   0.318   5.864   0.254  0.8895  0.6054  0.1270
  103MOL0     C13837   0.406   5.841   0.138  0.9615 -0.1182  0.4333
  103MOL0     H13838   0.774   6.046   0.259  1.4907 -0.3423 -0.5608
  103MOL0     H13839   1.002   6.032   0.300  2.5387  0.9032  1.7887
  103MOL0     H13840   1.225   6.038   0.360 -0.8837  0.2498 -0.2938
  103MOL0     H13841   1.144   6.151   0.472 -0.1334  0.5108  1.8156
  103MOL0     H13842   1.381   5.972   0.520  0.2284 -0.0862  0.0847
  103MOL0     H13843   1.293   6.035   0.647  0.5281  0.2118 -0.6242
  103MOL0     H13844   1.337   6.261   0.620 -1.3942 -1.3306 -0.0979
  103MOL0     H13845   1.360   6.251   0.441 -3.2420 -0.1147  0.6346
  103MOL0     H13846   1.581   6.124   0.490  0.4997  0.8678 -1.2976
  103MOL0     H13847   1.565   6.294   0.481  0.8658  0.1334 -0.1979
  103MOL0     H13848   1.554   6.314   0.728  0.9135  0.0978  0.7211
  103MOL0     H13849   1.569   6.134   0.753  1.3073 -0.7925 -0.9015
  103MOL0     H13850   1.780   6.312   0.599 -0.3489 -0.8344 -0.8359
  103MOL0     H13851   1.779   6.281   0.773  1.5741  0.1118 -0.1574
  103MOL0     H13852   1.792   6.090   0.546 -2.7991  1.1757  0.2633
  103MOL0     H13853   1.824   6.035   0.703 -2.2126 -0.7740 -0.2783
  103MOL0     H13854   2.040   6.097   0.553 -0.8500 -0.2731 -1.0199
  103MOL0     H13855   1.996   6.270   0.581  0.5128  0.9611  3.4724
  103MOL0     H13856   2.020   5.969   0.834  0.4492 -1.1365 -0.1139
  103MOL0     H13857   2.214   5.945   1.037 -0.4979 -2.0228  3.7927
  103MOL0     H13858   2.218   6.091   1.142 -1.1681  0.4510  0.2778
  103MOL0     H13859   1.969   5.910   1.094  0.1974  1.5749 -3.3078
  103MOL0     H13860   2.085   5.916   1.235  1.7616  1.4949 -0.5327
  103MOL0     H13861   1.911   6.140   1.161  0.5072 -0.6921 -0.8908
  103MOL0     H13862   2.022   6.127   1.307 -0.4152  0.8886 -0.8725
  103MOL0     H13863   1.866   5.925   1.331 -0.2299  0.2462 -2.2126
  103MOL0     H13864   1.750   6.022   1.234  0.8785 -0.9566 -0.9276
  103MOL0     H13865   1.600   6.248   1.448  0.6234  0.8806  2.8808
  103MOL0     H13866   1.393   6.186   1.523  2.0770  2.3494 -1.4849
  103MOL0     H13867   1.145   5.948   1.886 -0.1011  0.1606 -0.6790
  103MOL0     H13868   0.911   5.850   1.933  0.0174  1.2293  0.1044
  103MOL0     H13869   0.612   5.914   1.605 -0.1603  0.5937 -0.9593
  103MOL0     H13870   0.691   5.763   1.561 -4.8456  0.1738 -3.1564
  103MOL0     H13871   0.501   5.672   1.578  0.5306 -0.4169  0.6937
  103MOL0     H13872   0.554   5.629   1.736 -0.2062 -1.5543 -0.4366
  103MOL0     H13873   0.445   5.783   1.850 -0.8186  0.8632  0.0829
  103MOL0     H13874   0.374   5.864   1.714 -1.7453 -1.2267 -0.7007
  103MOL0     H13875   0.329   5.592   1.819  0.7741  1.1486  0.0598
  103MOL0     H13876   0.255   5.646   1.664  0.0963  0.4847 -0.5597
  103MOL0     H13877   0.107   5.797   1.778 -0.9738  0.0421  0.4273
  103MOL0     H13878   0.220   5.820   1.914  1.2865  1.8762 -2.6026
  103MOL0     H13879   0.041   5.565   1.865 -2.1322  2.8572 -0.5914
  103MOL0     H13880   0.149   5.579   1.990 -2.4945 -1.6564  0.7656
  103MOL0     H13881  -0.072   5.776   1.957  0.7787 -1.1301 -2.3292
  103MOL0     H13882   0.023   5.758   2.102  0.4138 -3.5094  2.3543
  103MOL0     H13883  -0.196   5.636   2.120  0.5776  2.6738 -2.1864
  103MOL0     H13884  -0.119   5.516   1.997  1.5271 -0.6218 -0.4522
  103MOL0     H13885   0.804   5.955   1.532 -0.7972 -1.3149 -0.0695
  103MOL0     H13886   1.012   6.077   1.505  0.4903 -0.5958 -0.4226
  103MOL0     H13887   1.556   5.808   1.658  2.5743  0.4200  0.0984
  103MOL0     H13888   1.769   5.879   1.565  1.4087  2.1668 -1.3605
  103MOL0     H13889   0.955   5.780   0.631  0.5677 -0.1503  0.1129
  103MOL0     H13890   0.705   5.746   0.560  0.6353 -1.9387  0.3249
  103MOL0     H13891   0.268   5.973   0.573 -0.0340  2.8471 -0.6680
  103MOL0     H13892   0.041   5.922   0.528  0.3057  1.5502 -0.2132
  103MOL0     H13893  -0.221   5.930   0.292  0.8954 -2.1750 -2.2077
  103MOL0     H13894  -0.129   5.941   0.439 -0.0018 -1.0640  0.9204
  103MOL0     H13895  -0.172   5.673   0.446  1.8535  1.1709 -0.5296
  103MOL0     H13896  -0.296   5.708   0.329  0.9447 -0.6523 -0.4140
  103MOL0     H13897  -0.403   5.890   0.488 -2.1793 -0.3394  1.1156
  103MOL0     H13898  -0.267   5.890   0.598 -0.7956  1.0124  1.1849
  103MOL0     H13899  -0.328   5.638   0.647  1.5572  1.8502 -1.3841
  103MOL0     H13900  -0.449   5.770   0.696 -2.5084  0.4969 -1.6456
  103MOL0     H13901  -0.654   5.588   0.392 -1.1638  2.6262 -0.4319
  103MOL0     H13902   0.148   5.817   0.134  1.2220  2.2872 -1.3464
  103MOL0     H13903   0.355   5.838   0.042 -0.5448  0.8912  1.1684
  103MOL0     H13904   0.471   5.928   0.127 -0.5993  0.6700 -5.3533
  103MOL0     H13905   0.461   5.747   0.152  2.8493  1.1240  1.8106
  104MOL0     O13906   1.356   4.804   9.223  0.1726 -0.1059 -0.5550
  104MOL0     C13907   1.250   4.839   9.163 -0.1525  0.8343 -0.0447
  104MOL0     O13908   1.232   4.945   9.082  0.0502 -0.8887 -0.2713
  104MOL0     C13909   1.335   5.002   9.029 -0.1348 -0.4867  1.0064
  104MOL0     C13910   1.406   5.093   9.099  0.0649 -0.3786 -0.7172
  104MOL0     C13911   1.501   5.167   9.030 -0.0838 -0.2656  0.6812
  104MOL0     C13912   1.533   5.138   8.889  0.3595  0.4962 -1.0394
  104MOL0     O13913   1.621   5.214   8.815  0.1988 -0.1302 -0.5900
  104MOL0     C13914   1.605   5.357   8.813 -0.0431  0.5261 -0.1986
  104MOL0     C13915   1.700   5.439   8.718 -0.1313  0.4614 -0.3086
  104MOL0     C13916   1.841   5.412   8.761 -0.5355 -0.1688 -0.0867
  104MOL0     C13917   1.937   5.420   8.645  0.1753 -0.9488  0.1564
  104MOL0     C13918   2.075   5.390   8.698  0.4996  0.0219 -0.1810
  104MOL0     C13919   2.180   5.406   8.589  0.1154  0.6149 -0.3895
  104MOL0     C13920   2.312   5.361   8.658 -0.0974 -0.3736  0.0080
  104MOL0     C13921   2.437   5.372   8.579 -1.6563 -0.4479  0.0157
  104MOL0     N13922   2.560   5.355   8.662 -0.7330 -0.7368 -0.1640
  104MOL0     C13923   2.650   5.451   8.712  0.7236  0.3662 -0.6559
  104MOL0     C13924   2.739   5.371   8.778 -0.4244  0.3060 -0.2962
  104MOL0     C13925   2.868   5.420   8.833  0.2117  0.2376 -0.8214
  104MOL0     C13926   2.836   5.503   8.959 -0.9505  0.1856  0.1627
  104MOL0     C13927   2.964   5.539   9.029  0.3405  0.0929 -0.4909
  104MOL0     C13928   2.936   5.628   9.153 -0.6374  0.9928  0.0299
  104MOL0     O13929   3.033   5.604   9.257  0.4865 -0.3395 -0.5707
  104MOL0     C13930   3.135   5.692   9.264 -0.7886 -0.7787  0.8247
  104MOL0     C13931   3.165   5.799   9.179 -0.7756 -0.7637  0.6356
  104MOL0     C13932   3.285   5.872   9.196  0.0561  0.1442  0.2756
  104MOL0     C13933   3.386   5.841   9.300  0.5661  0.6853  0.4094
  104MOL0     C13934   3.508   5.917   9.327 -0.0367  0.1187 -0.2058
  104MOL0     O13935   3.576   5.886   9.440  0.5540  0.3202  0.5637
  104MOL0     C13936   3.710   5.921   9.436 -0.1521  0.1288  1.5973
  104MOL0     C13937   3.798   5.862   9.338  0.0166 -1.6167  0.6591
  104MOL0     C13938   3.933   5.911   9.329  1.0352 -0.1226 -0.2008
  104MOL0     C13939   3.994   5.997   9.427 -0.2056  1.2410 -0.0695
  104MOL0     O13940   4.127   6.036   9.432  0.3187 -0.2708  0.2952
  104MOL0     C13941   4.220   6.018   9.328  0.3683 -0.4455 -0.4086
  104MOL0     C13942   4.322   6.128   9.340 -0.5277 -0.3233  0.2787
  104MOL0     C13943   4.435   6.116   9.234 -0.2395  0.0896  0.1829
  104MOL0     C13944   4.525   6.247   9.212  0.5876  1.0193 -0.0604
  104MOL0     C13945   4.653   6.224   9.133 -0.1103  0.3603 -0.6360
  104MOL0     C13946   4.747   6.347   9.143  0.3988  0.2240 -0.9432
  104MOL0     C13947   4.840   6.340   9.033  0.7928 -0.1823  0.0660
  104MOL0     C13948   4.950   6.441   9.035  0.5968  1.3460  0.0900
  104MOL0    Cl13949   5.089   6.387   8.925  0.0109  0.3290  0.2881
  104MOL0     C13950   3.903   6.043   9.523  0.0440 -0.3398  0.3997
  104MOL0     C13951   3.764   6.009   9.531 -0.5319 -0.5379  0.0540
  104MOL0     O13952   3.542   6.003   9.244  0.1516  0.4459  0.3623
  104MOL0     C13953   3.347   5.734   9.381  0.4398 -0.5301 -0.2870
  104MOL0     C13954   3.227   5.673   9.369 -0.1641 -0.9772 -0.1528
  104MOL0     N13955   2.684   5.247   8.789 -0.1148 -0.1043 -0.1168
  104MOL0     N13956   2.584   5.231   8.714  0.5177  0.5649 -0.0879
  104MOL0     C13957   1.461   5.038   8.828 -0.9457  0.0088 -0.5028
  104MOL0     C13958   1.359   4.968   8.897  0.2335  0.0971 -1.9425
  104MOL0     C13959   1.134   4.741   9.163  0.6190 -0.8446  0.8766
  104MOL0     C13960   1.019   4.780   9.088  0.4832 -0.2040 -0.1231
  104MOL0     C13961   0.894   4.709   9.097  0.4423 -0.2124 -1.0111
  104MOL0     C13962   0.877   4.614   9.196  0.0292 -0.5861  0.3532
  104MOL0     O13963   0.760   4.552   9.221 -0.2554  0.7341 -0.8906
  104MOL0     C13964   0.658   4.552   9.118  0.6053  0.3112  0.1080
  104MOL0     C13965   0.570   4.675   9.135  0.2301  0.2681 -0.1142
  104MOL0     C13966   0.432   4.670   9.058 -0.4315 -0.5686 -0.4571
  104MOL0     C13967   0.457   4.616   8.909  0.1881  0.2208 -0.2834
  104MOL0     C13968   0.559   4.692   8.835  0.0424  0.1193  0.8123
  104MOL0     C13969   0.639   4.745   8.755 -0.5025 -0.2990  0.5970
  104MOL0     C13970   0.989   4.569   9.256 -0.3231  0.5063  0.3650
  104MOL0     C13971   1.122   4.620   9.244  0.1356 -0.1423  0.6941
  104MOL0     C13972   1.221   4.562   9.337 -0.6667  0.8694  0.1821
  104MOL0     H13973   1.377   5.117   9.201 -1.9623 -1.1619 -1.0705
  104MOL0     H13974   1.555   5.252   9.070 -2.4419  1.0266  1.3157
  104MOL0     H13975   1.508   5.369   8.763 -1.5281 -2.9873  1.4589
  104MOL0     H13976   1.601   5.399   8.913  0.9944  2.1623 -0.8077
  104MOL0     H13977   1.681   5.546   8.710 -2.5364  0.1750  0.8134
  104MOL0     H13978   1.687   5.412   8.613 -1.0157  2.4717 -0.7650
  104MOL0     H13979   1.853   5.317   8.814 -0.2259  0.4589  1.0097
  104MOL0     H13980   1.884   5.488   8.828  1.7975 -2.2654  0.9440
  104MOL0     H13981   1.912   5.352   8.564  0.3338  0.5971 -1.2488
  104MOL0     H13982   1.933   5.520   8.601 -1.8044 -0.3569  1.5506
  104MOL0     H13983   2.108   5.455   8.779 -1.8353 -0.4361  1.2333
  104MOL0     H13984   2.069   5.290   8.743  0.0665 -0.8218 -2.0044
  104MOL0     H13985   2.157   5.332   8.512  0.7042 -0.5985  0.5432
  104MOL0     H13986   2.178   5.506   8.547 -2.2691 -0.0167 -1.9438
  104MOL0     H13987   2.304   5.255   8.684 -0.6075 -0.6437 -1.1700
  104MOL0     H13988   2.329   5.406   8.756 -1.5737 -1.8846  1.0219
  104MOL0     H13989   2.428   5.296   8.501  0.4897  1.2754 -2.0504
  104MOL0     H13990   2.444   5.469   8.529  1.1948 -1.1255 -1.0959
  104MOL0     H13991   2.647   5.558   8.698  0.6682  1.1419  3.8660
  104MOL0     H13992   2.917   5.326   8.861  0.5344  0.8365  0.7147
  104MOL0     H13993   2.931   5.468   8.757 -1.5342  3.1458 -0.5579
  104MOL0     H13994   2.781   5.591   8.926  0.8428  0.8793 -1.1468
  104MOL0     H13995   2.779   5.442   9.030  0.4990 -0.0526  1.1667
  104MOL0     H13996   3.011   5.592   8.946 -4.4908  2.6353 -1.9876
  104MOL0     H13997   3.028   5.455   9.057  0.0350 -0.2867 -0.9061
  104MOL0     H13998   2.841   5.596   9.197 -1.0421  2.3785  0.2072
  104MOL0     H13999   2.916   5.728   9.114 -3.1838 -0.2845 -2.2991
  104MOL0     H14000   3.102   5.815   9.092  1.3835 -1.0634 -1.0541
  104MOL0     H14001   3.295   5.954   9.126  0.0341 -0.7063 -0.7580
  104MOL0     H14002   3.773   5.793   9.259  0.0336 -1.2153  0.3019
  104MOL0     H14003   3.995   5.881   9.245  1.2125  1.5000 -0.6859
  104MOL0     H14004   4.262   5.918   9.317  0.7706 -0.2058 -1.1085
  104MOL0     H14005   4.171   6.043   9.234  1.6174  0.1549 -0.9235
  104MOL0     H14006   4.276   6.227   9.339  1.2437  0.5329  0.3386
  104MOL0     H14007   4.370   6.120   9.438 -1.8239  0.4546  0.9994
  104MOL0     H14008   4.501   6.042   9.279 -3.9799 -2.4079  2.0943
  104MOL0     H14009   4.386   6.079   9.142 -1.4722  0.9807  0.4470
  104MOL0     H14010   4.550   6.289   9.310  2.0762 -0.9239  0.4576
  104MOL0     H14011   4.465   6.327   9.168  0.2906 -0.1638 -1.8628
  104MOL0     H14012   4.646   6.190   9.029  3.2527 -2.8475  0.0065
  104MOL0     H14013   4.701   6.145   9.190 -0.1363 -0.0486 -1.1701
  104MOL0     H14014   4.692   6.442   9.139 -0.5183 -0.3284 -2.2420
  104MOL0     H14015   4.795   6.349   9.242  4.0471  3.3724 -2.5161
  104MOL0     H14016   4.787   6.365   8.940  0.9886 -2.4714 -0.7183
  104MOL0     H14017   4.875   6.237   9.023  2.7299  0.2982  1.4108
  104MOL0     H14018   4.917   6.543   9.015  1.8601  1.6202 -0.7403
  104MOL0     H14019   4.988   6.444   9.137 -1.8794  1.1996  1.0671
  104MOL0     H14020   3.947   6.111   9.595 -0.0099  0.4203 -0.2651
  104MOL0     H14021   3.697   6.053   9.604 -0.5381 -1.7397  0.7790
  104MOL0     H14022   3.408   5.702   9.466  1.4244 -2.0727 -1.5198
  104MOL0     H14023   3.197   5.595   9.438  2.1150 -1.8798 -0.1013
  104MOL0     H14024   1.486   5.032   8.723 -0.0318 -2.6282 -0.2127
  104MOL0     H14025   1.287   4.899   8.855  0.3847  0.5228 -2.9287
  104MOL0     H14026   1.025   4.846   9.002  1.1755 -0.1543 -0.0433
  104MOL0     H14027   0.813   4.737   9.030  0.6209 -0.1343 -1.1943
  104MOL0     H14028   0.607   4.457   9.134  0.3349 -0.0364 -2.3893
  104MOL0     H14029   0.701   4.546   9.018 -1.8125  1.4169 -1.0754
  104MOL0     H14030   0.619   4.770   9.110  2.6891 -0.6169  1.0921
  104MOL0     H14031   0.554   4.697   9.241  0.9077  1.4398 -0.2383
  104MOL0     H14032   0.400   4.774   9.062  1.8137  0.2078 -0.9052
  104MOL0     H14033   0.360   4.606   9.108  0.6959 -0.3954  1.4766
  104MOL0     H14034   0.465   4.507   8.903  3.3010  0.4107 -1.5756
  104MOL0     H14035   0.378   4.650   8.841  0.0997 -1.0095 -0.8276
  104MOL0     H14036   0.712   4.784   8.688 -1.7544  3.1281  1.0093
  104MOL0     H14037   0.974   4.476   9.309 -1.3033 -0.3686 -1.3407
  104MOL0     H14038   1.255   4.630   9.415  2.8413 -1.0622  0.5756
  104MOL0     H14039   1.184   4.474   9.390 -0.0005 -0.1794 -1.0279
  104MOL0     H14040   1.306   4.526   9.278 -1.9887  0.9714 -1.8910
  105MOL0     O14041   7.291   4.632   1.158  0.4247  0.6035 -0.3268
  105MOL0     C14042   7.225   4.736   1.150 -0.1500 -0.1305 -0.7043
  105MOL0     O14043   7.276   4.866   1.173 -0.2077 -0.1922  0.9592
  105MOL0     C14044   7.408   4.888   1.206  0.4888  0.7161 -0.1553
  105MOL0     C14045   7.515   4.829   1.137  0.0041 -0.0123 -0.0036
  105MOL0     C14046   7.645   4.867   1.155  0.0915 -0.4805  0.2583
  105MOL0     C14047   7.670   4.964   1.254 -0.0674 -0.1373 -0.2385
  105MOL0     O14048   7.792   5.031   1.265  0.2881 -0.4028 -0.0682
  105MOL0     C14049   7.910   4.956   1.270 -0.9927 -0.0996 -0.0791
  105MOL0     C14050   7.912   4.897   1.406  0.4288 -0.8441  0.4453
  105MOL0     C14051   8.055   4.865   1.453 -0.7111 -0.8908 -0.1185
  105MOL0     C14052   8.050   4.792   1.583  0.8147  0.0641  0.4110
  105MOL0     C14053   8.180   4.715   1.597 -0.6156  0.5237 -0.7679
  105MOL0     C14054   8.291   4.815   1.620 -0.3511  0.4904 -0.1846
  105MOL0     C14055   8.368   4.836   1.482  0.0775  0.0588  0.4080
  105MOL0     C14056   8.525   4.824   1.487 -0.0960 -1.1201 -0.7137
  105MOL0     N14057   8.556   4.680   1.504 -0.0042 -0.5775 -0.4442
  105MOL0     C14058   8.687   4.627   1.518 -0.4270 -0.5012 -0.5371
  105MOL0     C14059   8.659   4.494   1.521 -0.4538  0.2487  0.0076
  105MOL0     C14060   8.774   4.394   1.519  0.6506  0.0486  0.6493
  105MOL0     C14061   8.808   4.329   1.384 -0.2492  1.8412 -0.1269
  105MOL0     C14062   8.866   4.427   1.284 -0.5218  0.5263  0.4463
  105MOL0     C14063   8.993   4.506   1.333  0.7490 -0.0450 -0.4024
  105MOL0     O14064   9.087   4.417   1.395 -0.1406 -0.0889 -1.6951
  105MOL0     C14065   9.221   4.433   1.376 -0.1521  0.3472  0.0231
  105MOL0     C14066   9.286   4.544   1.311  1.1823 -0.1632 -0.4878
  105MOL0     C14067   9.425   4.553   1.305  0.2826  0.1524  0.4287
  105MOL0     C14068   9.498   4.446   1.361  0.4610  0.7855  0.3060
  105MOL0     C14069   9.645   4.452   1.365  0.8538  0.8634 -0.2894
  105MOL0     O14070   9.698   4.551   1.295 -0.1823  0.2055  0.1996
  105MOL0     C14071   9.841   4.567   1.295  0.0048 -1.0700 -0.1607
  105MOL0     C14072   9.917   4.481   1.212 -0.4932 -0.2243 -0.5021
  105MOL0     C14073  10.052   4.516   1.195 -0.0250 -0.0208  1.3241
  105MOL0     C14074  10.109   4.635   1.243  0.2906  0.4423  0.6429
  105MOL0     O14075  10.237   4.654   1.205 -0.2787 -0.4563  0.2846
  105MOL0     C14076  10.308   4.759   1.275 -0.2983  0.1585  0.1672
  105MOL0     C14077  10.450   4.718   1.286 -0.9559 -0.6438 -0.5746
  105MOL0     C14078  10.496   4.787   1.419 -0.0707 -0.6616  0.4411
  105MOL0     C14079  10.641   4.740   1.444  0.2821  0.1618  0.2452
  105MOL0     C14080  10.750   4.819   1.359 -0.1495 -0.5175 -0.8729
  105MOL0     C14081  10.891   4.766   1.385  0.0308  0.3028  0.0664
  105MOL0     C14082  10.910   4.617   1.351 -0.3397 -1.0225 -0.2615
  105MOL0     C14083  11.056   4.577   1.333 -0.7408 -0.4638 -0.3798
  105MOL0    Cl14084  11.164   4.653   1.453  0.2662 -0.0194  0.1814
  105MOL0     C14085  10.033   4.712   1.329 -0.2733  0.3611 -0.4164
  105MOL0     C14086   9.898   4.683   1.351  0.4752  0.1845  0.4182
  105MOL0     O14087   9.711   4.357   1.414 -0.1957 -0.1140  0.5548
  105MOL0     C14088   9.435   4.329   1.413  0.4998 -0.0380  0.2916
  105MOL0     C14089   9.298   4.327   1.417 -0.4372  0.1071  0.2897
  105MOL0     N14090   8.525   4.466   1.502 -0.7911 -0.2113  0.4038
  105MOL0     N14091   8.459   4.581   1.496 -0.3270 -0.2723  0.3572
  105MOL0     C14092   7.566   5.021   1.322  0.3459 -0.3687  0.9891
  105MOL0     C14093   7.436   4.975   1.312  0.5884  0.1807  0.0295
  105MOL0     C14094   7.085   4.733   1.102  0.0923  0.3864 -0.8038
  105MOL0     C14095   7.021   4.855   1.071 -0.2367 -0.4468  0.6427
  105MOL0     C14096   6.895   4.857   1.019 -0.1308 -0.0247 -0.8774
  105MOL0     C14097   6.810   4.736   1.012  0.8417 -0.4548  0.1080
  105MOL0     O14098   6.677   4.736   0.990  0.0667 -0.0434 -0.0991
  105MOL0     C14099   6.612   4.859   0.935  0.0421  0.8306  0.5611
  105MOL0     C14100   6.501   4.806   0.857  0.0311 -0.9199  0.1256
  105MOL0     C14101   6.423   4.926   0.796 -0.7200 -0.1264 -0.3584
  105MOL0     C14102   6.453   4.978   0.651 -0.4821 -0.3897 -0.2920
  105MOL0     C14103   6.594   5.010   0.631  0.5256  0.2876  0.4653
  105MOL0     C14104   6.707   5.055   0.630  0.8155  0.0859 -0.3457
  105MOL0     C14105   6.868   4.619   1.057  0.6343 -0.0109  0.3482
  105MOL0     C14106   7.000   4.610   1.101 -0.4853 -0.4393 -0.1530
  105MOL0     C14107   7.045   4.474   1.155 -1.0486  0.3590 -0.5201
  105MOL0     H14108   7.491   4.753   1.062 -0.3480 -1.1131  1.1894
  105MOL0     H14109   7.721   4.839   1.083 -0.5531  3.8862 -2.4620
  105MOL0     H14110   7.920   4.884   1.188  1.7168  2.3645 -2.1459
  105MOL0     H14111   7.998   5.020   1.266 -1.4712  0.5642 -0.1699
  105MOL0     H14112   7.848   4.809   1.394 -1.5403  0.5510  0.1860
  105MOL0     H14113   7.873   4.970   1.477  4.6775  1.3054  0.8325
  105MOL0     H14114   8.113   4.955   1.472  0.8173 -2.2137  1.9150
  105MOL0     H14115   8.106   4.817   1.368 -0.6687  0.2874 -0.7838
  105MOL0     H14116   8.036   4.868   1.660 -2.3980 -2.4488  2.5603
  105MOL0     H14117   7.962   4.728   1.588 -0.3207  1.3916 -1.3530
  105MOL0     H14118   8.174   4.655   1.689 -1.1806  0.0376 -1.1190
  105MOL0     H14119   8.195   4.646   1.514  0.8441 -1.8696  1.3407
  105MOL0     H14120   8.251   4.911   1.653 -0.6099  0.8748 -1.5898
  105MOL0     H14121   8.362   4.779   1.695 -0.9737 -1.7442 -0.5903
  105MOL0     H14122   8.348   4.939   1.451  0.5920  0.7136  2.1039
  105MOL0     H14123   8.339   4.770   1.401  1.5434 -1.2054  0.8579
  105MOL0     H14124   8.575   4.854   1.394  1.2425 -3.0902 -0.6861
  105MOL0     H14125   8.563   4.879   1.573 -2.1994  1.8139 -1.4938
  105MOL0     H14126   8.786   4.672   1.518  0.0567 -1.4768  1.1492
  105MOL0     H14127   8.863   4.429   1.572  0.7832 -0.4762  0.7779
  105MOL0     H14128   8.737   4.318   1.587 -1.8157  1.4867  1.0219
  105MOL0     H14129   8.875   4.243   1.394  0.7234  2.7452  1.4178
  105MOL0     H14130   8.720   4.281   1.341  0.5881 -0.9172  0.9961
  105MOL0     H14131   8.781   4.488   1.249  0.9612  2.4119 -0.0492
  105MOL0     H14132   8.901   4.379   1.193 -2.5712 -1.6025  0.6903
  105MOL0     H14133   8.976   4.593   1.396 -0.1708 -1.0347  0.7566
  105MOL0     H14134   9.037   4.540   1.239  0.5518 -0.3012 -0.5890
  105MOL0     H14135   9.232   4.627   1.266 -1.1551 -2.4966 -2.2693
  105MOL0     H14136   9.464   4.645   1.263  0.3171 -0.4165 -0.8019
  105MOL0     H14137   9.878   4.386   1.176 -0.4194 -0.5615  0.2859
  105MOL0     H14138  10.114   4.449   1.136  3.6289  0.2993  4.4712
  105MOL0     H14139  10.292   4.860   1.234  0.4205 -0.8285 -2.7317
  105MOL0     H14140  10.268   4.747   1.377 -2.5136 -3.7087 -0.9518
  105MOL0     H14141  10.462   4.610   1.297  0.9070 -0.3012  1.4248
  105MOL0     H14142  10.506   4.750   1.198  0.6381 -0.5658  0.4393
  105MOL0     H14143  10.489   4.895   1.408  1.9130 -0.5715 -0.5084
  105MOL0     H14144  10.425   4.772   1.500 -1.0689  2.0207  0.1676
  105MOL0     H14145  10.647   4.633   1.425  0.7479  0.3626 -0.8164
  105MOL0     H14146  10.669   4.756   1.549 -0.8635 -2.5212  1.0374
  105MOL0     H14147  10.753   4.925   1.385 -1.5549 -0.4717 -0.8219
  105MOL0     H14148  10.737   4.808   1.251  0.1597 -1.1715 -0.8499
  105MOL0     H14149  10.955   4.827   1.320 -0.2460  1.7434  1.0941
  105MOL0     H14150  10.917   4.773   1.491  0.3723  0.8849 -0.0511
  105MOL0     H14151  10.872   4.605   1.249  0.1882  1.6853 -0.8602
  105MOL0     H14152  10.864   4.556   1.430 -0.9264  1.4684  1.4496
  105MOL0     H14153  11.064   4.469   1.344 -0.9936 -0.3522  1.2140
  105MOL0     H14154  11.089   4.612   1.235 -0.7070  1.4920  0.2698
  105MOL0     H14155  10.063   4.803   1.380  1.2752  0.3787 -1.3097
  105MOL0     H14156   9.831   4.745   1.410  1.4516  0.6427  1.0689
  105MOL0     H14157   9.497   4.242   1.436  0.9585 -0.1570 -1.3018
  105MOL0     H14158   9.250   4.235   1.450  0.9895  0.0473  2.3962
  105MOL0     H14159   7.590   5.106   1.385 -1.4664  0.6889  0.3142
  105MOL0     H14160   7.356   5.026   1.364  0.1117  2.9113 -3.0889
  105MOL0     H14161   7.078   4.947   1.075 -0.0487 -0.3153 -2.3170
  105MOL0     H14162   6.857   4.956   0.993 -0.9061 -0.1363 -0.2229
  105MOL0     H14163   6.695   4.899   0.876  1.1669  1.3492  2.3924
  105MOL0     H14164   6.588   4.933   1.012 -1.1077 -2.8811  4.1390
  105MOL0     H14165   6.444   4.737   0.919  0.8585 -2.5817 -0.9022
  105MOL0     H14166   6.527   4.738   0.776 -3.7999 -0.5220 -1.6726
  105MOL0     H14167   6.426   5.011   0.865 -0.7260  0.7650 -1.4228
  105MOL0     H14168   6.320   4.888   0.789 -0.9798  0.6529 -0.8844
  105MOL0     H14169   6.432   4.898   0.579 -2.9493  1.1127 -1.3817
  105MOL0     H14170   6.388   5.061   0.622  1.1245  0.2370 -2.2962
  105MOL0     H14171   6.808   5.089   0.644  0.3378  1.8804 -1.0419
  105MOL0     H14172   6.803   4.534   1.073 -2.1161  1.6915 -0.9415
  105MOL0     H14173   6.964   4.402   1.139 -0.2672 -0.9275  1.0317
  105MOL0     H14174   7.133   4.431   1.107 -1.8815 -0.8542 -1.0242
  105MOL0     H14175   7.067   4.482   1.262  4.0121 -2.4491 -1.0562
  106MOL0     O14176   8.129  11.028  11.286  0.1580 -0.3883 -0.0963
  106MOL0     C14177   8.031  10.958  11.269  0.6223 -1.8217 -0.1856
  106MOL0     O14178   8.031  10.835  11.224 -0.5359 -0.1568 -0.6296
  106MOL0     C14179   8.147  10.784  11.191  0.2580 -1.2675  0.1118
  106MOL0     C14180   8.197  10.797  11.068 -0.4946  1.0118  0.5408
  106MOL0     C14181   8.313  10.731  11.028 -0.4817  0.1846 -0.3654
  106MOL0     C14182   8.392  10.658  11.125  0.9352  0.4022  0.3985
  106MOL0     O14183   8.513  10.590  11.097 -0.4635  0.3347 -0.0138
  106MOL0     C14184   8.617  10.673  11.042 -0.2628  0.8994  0.5350
  106MOL0     C14185   8.686  10.732  11.165  0.6946 -0.0206 -0.2745
  106MOL0     C14186   8.819  10.791  11.122 -0.0873  0.5336  0.6612
  106MOL0     C14187   8.882  10.846  11.251  0.9058 -0.4461 -0.9019
  106MOL0     C14188   9.022  10.914  11.232 -0.3992 -0.5581 -0.2295
  106MOL0     C14189   9.036  11.035  11.144  0.1295 -0.5486  0.9610
  106MOL0     C14190   9.136  11.014  11.026 -0.0169  0.0560  0.7481
  106MOL0     C14191   9.081  10.907  10.927 -0.5234  0.0480 -0.1104
  106MOL0     N14192   9.200  10.881  10.842 -1.0537 -0.0070 -0.1646
  106MOL0     C14193   9.286  10.976  10.785 -1.0064  0.3200 -0.1266
  106MOL0     C14194   9.395  10.898  10.743  0.6462 -0.1158 -0.0042
  106MOL0     C14195   9.522  10.940  10.668  0.2766  0.4823  0.9396
  106MOL0     C14196   9.648  10.948  10.755 -0.0273 -0.1495 -0.3341
  106MOL0     C14197   9.638  11.058  10.868 -0.4238  0.2662 -0.5062
  106MOL0     C14198   9.771  11.066  10.940  0.7405  0.1737  0.0768
  106MOL0     O14199   9.877  11.075  10.847  0.2062  0.1647  1.1709
  106MOL0     C14200  10.003  11.071  10.887 -0.1132 -0.0256  0.7303
  106MOL0     C14201  10.052  11.061  11.019  0.7260  0.4520  0.0160
  106MOL0     C14202  10.188  11.067  11.057 -0.7005  0.1054  0.9207
  106MOL0     C14203  10.290  11.059  10.949  1.2901  0.2191  0.2482
  106MOL0     C14204  10.441  11.058  10.969  1.2701  0.1486  0.2889
  106MOL0     O14205  10.518  11.076  10.863  0.0173  0.1477  0.5637
  106MOL0     C14206  10.654  11.067  10.877  0.4122 -0.6816 -0.4959
  106MOL0     C14207  10.720  10.977  10.788 -0.5720 -0.3217 -0.6878
  106MOL0     C14208  10.861  10.980  10.788  0.4828  0.0472 -0.1504
  106MOL0     C14209  10.941  11.066  10.873 -0.1149 -0.3265 -0.7417
  106MOL0     O14210  11.076  11.063  10.842 -0.1868 -0.8400  0.3426
  106MOL0     C14211  11.159  11.175  10.874  0.3105  1.0676  0.4774
  106MOL0     C14212  11.301  11.121  10.835 -0.0335  0.6876  0.5211
  106MOL0     C14213  11.412  11.225  10.854 -0.0251 -0.0889 -0.6469
  106MOL0     C14214  11.543  11.157  10.821  0.9385  0.2679  0.5909
  106MOL0     C14215  11.660  11.252  10.822 -0.9976  0.4084 -0.1277
  106MOL0     C14216  11.783  11.188  10.773 -0.5622  0.6395  0.0056
  106MOL0     C14217  11.911  11.272  10.793  0.6633  0.4175 -0.3816
  106MOL0     C14218  12.025  11.205  10.714  0.9164  0.2454 -0.3504
  106MOL0    Cl14219  12.035  11.247  10.535  0.2076  0.1774 -0.3015
  106MOL0     C14220  10.871  11.145  10.964 -0.2890 -0.6541  0.0046
  106MOL0     C14221  10.728  11.150  10.964 -0.6457 -0.3611 -0.9236
  106MOL0     O14222  10.475  11.045  11.084  0.3432 -0.0674 -0.2652
  106MOL0     C14223  10.237  11.062  10.812 -0.9714  0.1904  0.4563
  106MOL0     C14224  10.102  11.081  10.786 -0.1816  0.6715  1.1490
  106MOL0     N14225   9.365  10.761  10.764 -0.1962  0.4318  0.0591
  106MOL0     N14226   9.256  10.757  10.833  0.1867  0.1701  0.4377
  106MOL0     C14227   8.339  10.640  11.254  0.4125 -0.0292 -0.2898
  106MOL0     C14228   8.217  10.704  11.283  0.1350 -0.1182 -0.3918
  106MOL0     C14229   7.896  11.020  11.290  0.1237  0.8503 -0.0756
  106MOL0     C14230   7.781  10.941  11.288  1.6118 -0.4462 -0.6655
  106MOL0     C14231   7.650  10.998  11.307  0.4345  0.1676  0.8246
  106MOL0     C14232   7.638  11.132  11.336 -0.0338  0.6607  0.5953
  106MOL0     O14233   7.511  11.163  11.375 -0.2339 -0.7908  0.0721
  106MOL0     C14234   7.488  11.303  11.387 -0.7458 -0.0613  1.1937
  106MOL0     C14235   7.340  11.333  11.419  0.6180 -0.1078  0.7351
  106MOL0     C14236   7.245  11.250  11.331  0.6742  0.7624 -0.2145
  106MOL0     C14237   7.096  11.275  11.369 -0.4481 -0.6098  0.6670
  106MOL0     C14238   7.068  11.224  11.501 -0.8913 -0.8780  0.6841
  106MOL0     C14239   7.036  11.200  11.610 -0.3162  0.6536 -0.0484
  106MOL0     C14240   7.753  11.216  11.333  0.5105 -0.0485 -0.0933
  106MOL0     C14241   7.879  11.160  11.312 -0.4385 -0.9661  0.2996
  106MOL0     C14242   7.995  11.264  11.300 -0.4220 -0.1740 -0.6587
  106MOL0     H14243   8.143  10.848  10.989 -1.7038  1.9170  1.9127
  106MOL0     H14244   8.351  10.738  10.926  1.8440  1.7686  0.5202
  106MOL0     H14245   8.687  10.611  10.986 -1.6332  0.8275 -1.1833
  106MOL0     H14246   8.581  10.750  10.974 -4.0899 -1.7374 -0.7637
  106MOL0     H14247   8.705  10.663  11.248 -1.3470  1.2322  1.3532
  106MOL0     H14248   8.616  10.805  11.206  0.6559  0.6151 -1.4207
  106MOL0     H14249   8.793  10.858  11.040 -0.9649  2.5300  2.4550
  106MOL0     H14250   8.894  10.720  11.087 -0.0725  2.0678 -2.7783
  106MOL0     H14251   8.803  10.907  11.295 -0.0430 -1.8919 -0.5272
  106MOL0     H14252   8.914  10.768  11.321  2.3257  1.7368  1.0341
  106MOL0     H14253   9.036  10.933  11.339 -0.1221  0.4987 -0.4428
  106MOL0     H14254   9.093  10.839  11.198  0.3627 -0.8594  1.8821
  106MOL0     H14255   8.940  11.073  11.110  1.3942  1.2146 -0.8900
  106MOL0     H14256   9.067  11.113  11.215 -2.1094  0.4260  0.9626
  106MOL0     H14257   9.237  10.993  11.063  0.9667  1.8103 -0.7535
  106MOL0     H14258   9.146  11.107  10.971 -1.5930 -0.7204 -0.9733
  106MOL0     H14259   9.058  10.814  10.981 -2.4122 -0.3651 -1.5559
  106MOL0     H14260   8.995  10.944  10.872 -0.5926  1.7745  1.0647
  106MOL0     H14261   9.275  11.083  10.781 -0.1648  0.4061 -0.3214
  106MOL0     H14262   9.541  10.860  10.596  0.6451  0.7503  0.7377
  106MOL0     H14263   9.502  11.031  10.612 -0.1973 -0.0630  0.2061
  106MOL0     H14264   9.671  10.849  10.797  0.4574 -0.2641 -0.8670
  106MOL0     H14265   9.737  10.970  10.697  0.0502  0.9841  0.1838
  106MOL0     H14266   9.565  11.047  10.948  0.5705 -1.4274  0.2365
  106MOL0     H14267   9.600  11.148  10.820 -4.5036  0.3915  2.4687
  106MOL0     H14268   9.776  10.972  10.995 -1.0278  0.0968  0.1834
  106MOL0     H14269   9.774  11.144  11.016 -1.5866 -1.3857  1.9132
  106MOL0     H14270   9.980  11.052  11.101 -1.0219 -1.4067 -1.6205
  106MOL0     H14271  10.219  11.077  11.160 -1.0343 -0.9659  1.1366
  106MOL0     H14272  10.663  10.909  10.725 -1.3335  0.8691 -1.3131
  106MOL0     H14273  10.905  10.918  10.710 -1.3875 -1.3933 -0.1375
  106MOL0     H14274  11.138  11.256  10.803  0.7605  0.0324 -0.8858
  106MOL0     H14275  11.140  11.201  10.978  0.0914 -1.3454  1.0976
  106MOL0     H14276  11.327  11.045  10.909 -0.4348  1.0861  1.0803
  106MOL0     H14277  11.308  11.091  10.730 -0.9193  2.1600  0.0097
  106MOL0     H14278  11.395  11.309  10.785  2.7380  1.1053  0.0248
  106MOL0     H14279  11.416  11.265  10.956 -1.6820 -1.8651  0.1859
  106MOL0     H14280  11.548  11.115  10.720  0.9013 -0.8991  1.0644
  106MOL0     H14281  11.545  11.072  10.889 -1.5081 -1.0674 -0.8447
  106MOL0     H14282  11.680  11.264  10.928  0.2994 -0.7769 -0.2204
  106MOL0     H14283  11.630  11.352  10.788 -2.8753  0.8954  2.6850
  106MOL0     H14284  11.804  11.097  10.830  1.4719  0.0119 -1.5917
  106MOL0     H14285  11.766  11.166  10.667  3.0860 -0.0058 -0.5774
  106MOL0     H14286  11.932  11.293  10.898 -0.4027 -0.9048  0.1385
  106MOL0     H14287  11.883  11.367  10.748 -0.3254 -0.9464 -2.8863
  106MOL0     H14288  12.122  11.224  10.761 -0.0496 -0.9542  2.3809
  106MOL0     H14289  12.019  11.096  10.710  1.4031  0.2737 -2.9162
  106MOL0     H14290  10.924  11.197  11.044  0.1497 -2.6528  1.0906
  106MOL0     H14291  10.675  11.214  11.034  1.0612 -0.8798  0.9388
  106MOL0     H14292  10.302  11.064  10.725  0.3213  2.7678  1.3994
  106MOL0     H14293  10.070  11.078  10.682 -1.5370 -1.6995  1.5651
  106MOL0     H14294   8.380  10.575  11.330 -0.4299 -0.9661 -0.6020
  106MOL0     H14295   8.181  10.688  11.384  0.3766 -5.5831 -0.8873
  106MOL0     H14296   7.780  10.832  11.278  0.2121 -0.5964  0.5942
  106MOL0     H14297   7.558  10.942  11.297 -1.6467  3.7367 -3.6877
  106MOL0     H14298   7.510  11.346  11.289 -3.9333 -4.6391 -1.9400
  106MOL0     H14299   7.550  11.344  11.468 -0.8737  1.5642  0.5108
  106MOL0     H14300   7.319  11.439  11.404 -2.4155 -0.1667  3.4787
  106MOL0     H14301   7.313  11.317  11.524 -1.1951  2.2844  0.6951
  106MOL0     H14302   7.261  11.142  11.347 -1.7005  0.6988  2.6355
  106MOL0     H14303   7.263  11.286  11.230 -2.3770  3.9254  0.1972
  106MOL0     H14304   7.077  11.382  11.363  1.0543 -0.3934 -1.1570
  106MOL0     H14305   7.036  11.225  11.292 -1.1456  0.3418  0.5732
  106MOL0     H14306   7.019  11.163  11.709  1.5633  0.0422  0.0958
  106MOL0     H14307   7.751  11.322  11.356 -0.1060 -0.3605  1.4098
  106MOL0     H14308   8.062  11.255  11.214  1.8910 -0.0712  1.0342
  106MOL0     H14309   7.959  11.366  11.286 -0.5430 -0.1586 -0.2556
  106MOL0     H14310   8.057  11.257  11.390 -0.3874  2.3511 -0.4248
  107MOL0     O14311   4.552   2.559   1.600  0.0645 -0.0485 -0.2279
  107MOL0     C14312   4.470   2.480   1.549  0.4962 -0.0529 -0.1525
  107MOL0     O14313   4.506   2.382   1.456 -0.0691  0.1025  0.1826
  107MOL0     C14314   4.638   2.344   1.439 -0.1674  0.4707 -0.1791
  107MOL0     C14315   4.672   2.305   1.316  0.4965  0.0136  0.0816
  107MOL0     C14316   4.796   2.252   1.293  0.6424  0.3114  0.4546
  107MOL0     C14317   4.874   2.213   1.402 -0.3808  0.3993  0.2364
  107MOL0     O14318   4.982   2.133   1.374  0.9404  0.2867  0.3646
  107MOL0     C14319   5.106   2.209   1.384  0.3269  0.4176 -0.2979
  107MOL0     C14320   5.207   2.146   1.293 -0.6478  1.2690  0.3479
  107MOL0     C14321   5.350   2.204   1.301  0.0925  0.5345  0.0961
  107MOL0     C14322   5.435   2.137   1.202  0.3641 -0.8914 -0.0981
  107MOL0     C14323   5.580   2.201   1.191 -0.2873 -0.1338 -0.3349
  107MOL0     C14324   5.677   2.143   1.086  0.0702 -0.2690 -0.3237
  107MOL0     C14325   5.801   2.223   1.084 -0.3033 -0.1490  0.3461
  107MOL0     C14326   5.902   2.172   0.982  0.6148 -0.2756  0.6204
  107MOL0     N14327   5.968   2.046   1.011 -0.6760 -0.3745  0.0290
  107MOL0     C14328   6.041   2.011   1.128 -0.6505 -0.2176 -0.0931
  107MOL0     C14329   6.073   1.879   1.106  0.0061 -0.6450 -0.5749
  107MOL0     C14330   6.138   1.789   1.201 -0.8166  0.5951  1.3256
  107MOL0     C14331   6.283   1.836   1.224  0.5462 -0.0700  0.4699
  107MOL0     C14332   6.354   1.750   1.317 -0.3271 -0.6445 -0.0058
  107MOL0     C14333   6.516   1.780   1.319 -1.3545 -0.5192  0.0852
  107MOL0     O14334   6.540   1.923   1.348 -0.0120  0.1014 -0.0863
  107MOL0     C14335   6.660   1.976   1.333  0.2798 -0.6305 -0.8136
  107MOL0     C14336   6.773   1.896   1.339 -0.4609  0.0383 -0.1346
  107MOL0     C14337   6.900   1.957   1.309 -0.1481  0.6050 -0.6753
  107MOL0     C14338   6.917   2.085   1.262 -0.7904  0.7206  0.2122
  107MOL0     C14339   7.051   2.129   1.219 -0.0964 -0.8625 -0.2687
  107MOL0     O14340   7.149   2.032   1.213 -0.1643  0.2677  0.3105
  107MOL0     C14341   7.277   2.055   1.165  0.4784 -0.0647 -0.1785
  107MOL0     C14342   7.345   1.948   1.109 -0.1107  0.0385 -0.2081
  107MOL0     C14343   7.475   1.970   1.063  0.8797  0.4798  1.4114
  107MOL0     C14344   7.541   2.094   1.082 -0.4094  0.8424  0.3626
  107MOL0     O14345   7.680   2.098   1.053  0.6534  0.3826 -0.4239
  107MOL0     C14346   7.717   2.231   1.010 -0.1919 -0.5685  0.3771
  107MOL0     C14347   7.863   2.227   0.979  0.1102 -0.3859  0.7408
  107MOL0     C14348   7.933   2.339   0.904  1.0793 -0.3498  0.5295
  107MOL0     C14349   8.071   2.290   0.878 -0.7680 -0.7346  0.5749
  107MOL0     C14350   8.159   2.407   0.820 -0.1511 -0.0544 -0.4679
  107MOL0     C14351   8.108   2.451   0.686 -0.3222  0.0111 -0.4761
  107MOL0     C14352   8.214   2.551   0.621  0.1183  0.1941  0.3495
  107MOL0     C14353   8.324   2.473   0.533 -0.4483 -0.5847 -0.2517
  107MOL0    Cl14354   8.254   2.416   0.381 -0.0307  0.5177  0.1949
  107MOL0     C14355   7.477   2.185   1.164  0.2821 -1.6238  0.6626
  107MOL0     C14356   7.342   2.176   1.195  0.6905 -0.4797  0.4472
  107MOL0     O14357   7.055   2.247   1.201  0.3995  0.2582  0.9557
  107MOL0     C14358   6.796   2.164   1.248  0.0142  0.7118  0.2407
  107MOL0     C14359   6.673   2.115   1.302  0.0812  0.1373  0.2597
  107MOL0     N14360   6.022   1.834   0.992  0.5093  0.1347 -0.2553
  107MOL0     N14361   5.960   1.934   0.940  0.0800 -0.1964 -0.1708
  107MOL0     C14362   4.829   2.242   1.532  1.0662 -0.5705  0.6459
  107MOL0     C14363   4.708   2.310   1.551  0.8041  1.1418 -0.5900
  107MOL0     C14364   4.322   2.507   1.561  0.1554 -0.5107  0.0848
  107MOL0     C14365   4.285   2.615   1.643  0.9453 -0.1116  0.0173
  107MOL0     C14366   4.149   2.644   1.665  0.1016 -1.0927 -0.3338
  107MOL0     C14367   4.051   2.574   1.601 -0.3682 -0.1555 -0.7198
  107MOL0     O14368   3.922   2.615   1.622 -0.2471  0.6792 -0.5861
  107MOL0     C14369   3.815   2.549   1.562 -0.6032 -1.1505 -0.0369
  107MOL0     C14370   3.677   2.615   1.606  0.1144  0.0514 -0.1389
  107MOL0     C14371   3.659   2.636   1.756 -0.1776 -0.5590  0.2968
  107MOL0     C14372   3.695   2.510   1.847 -0.1449 -0.6528 -0.8119
  107MOL0     C14373   3.578   2.421   1.847 -0.2955  0.0469  0.0320
  107MOL0     C14374   3.475   2.352   1.844 -0.7625 -0.1686 -0.5083
  107MOL0     C14375   4.083   2.466   1.523  0.3607 -0.0482 -0.2374
  107MOL0     C14376   4.213   2.433   1.503 -0.3224 -0.2980  0.4170
  107MOL0     C14377   4.231   2.305   1.428 -0.1450  1.0424  0.3504
  107MOL0     H14378   4.600   2.325   1.237  1.0806  2.0291  0.0035
  107MOL0     H14379   4.814   2.223   1.190 -0.6783  1.5948 -0.1659
  107MOL0     H14380   5.087   2.315   1.363 -2.0634 -0.2218 -1.8050
  107MOL0     H14381   5.133   2.197   1.489  1.6939 -0.2631 -0.6998
  107MOL0     H14382   5.164   2.164   1.194  1.5552  1.1966 -0.6647
  107MOL0     H14383   5.219   2.039   1.313  0.1294  0.8798 -1.9194
  107MOL0     H14384   5.389   2.186   1.401 -2.3761  0.2182  1.0730
  107MOL0     H14385   5.344   2.313   1.293 -0.8634  0.5332  0.6546
  107MOL0     H14386   5.454   2.031   1.218 -0.7098 -0.9251  1.0990
  107MOL0     H14387   5.387   2.145   1.104  3.9026  1.7145 -1.8442
  107MOL0     H14388   5.572   2.309   1.177  2.2145  0.4236  1.9035
  107MOL0     H14389   5.642   2.188   1.280 -2.7585 -1.8761  1.2727
  107MOL0     H14390   5.686   2.037   1.111 -1.1623  0.1043  1.9235
  107MOL0     H14391   5.634   2.152   0.986 -1.5343  1.2508  0.4659
  107MOL0     H14392   5.849   2.228   1.183  0.0079 -0.1706  0.1979
  107MOL0     H14393   5.767   2.324   1.059  0.3198 -0.1533 -0.5476
  107MOL0     H14394   5.857   2.165   0.883 -0.8376  3.4379  0.8501
  107MOL0     H14395   5.973   2.254   0.966  1.9805 -1.5950 -0.3192
  107MOL0     H14396   6.066   2.071   1.215 -0.9734 -0.4342  0.1508
  107MOL0     H14397   6.086   1.782   1.297  0.0135  1.0058  1.8115
  107MOL0     H14398   6.147   1.685   1.166 -1.3089  1.2558 -0.9259
  107MOL0     H14399   6.333   1.839   1.127 -0.3382  0.1705  0.0125
  107MOL0     H14400   6.277   1.937   1.265 -3.2186 -0.5728  1.5151
  107MOL0     H14401   6.347   1.642   1.301  1.5498 -0.9692  1.0209
  107MOL0     H14402   6.320   1.763   1.420  1.2079  0.8690  0.3702
  107MOL0     H14403   6.568   1.767   1.223  0.2025 -1.7308  1.0470
  107MOL0     H14404   6.560   1.716   1.395 -0.9588 -1.3470 -0.8161
  107MOL0     H14405   6.773   1.792   1.371  2.1582 -0.3035 -0.9405
  107MOL0     H14406   6.981   1.886   1.321 -0.8133  0.1238  1.4028
  107MOL0     H14407   7.304   1.848   1.108 -1.2195  0.4057  1.8469
  107MOL0     H14408   7.522   1.885   1.015 -0.2257 -1.0282  2.8960
  107MOL0     H14409   7.671   2.270   0.918 -0.0869  0.8112  0.8896
  107MOL0     H14410   7.698   2.304   1.089 -1.5534 -0.0873 -0.3603
  107MOL0     H14411   7.913   2.199   1.072  0.3674  0.8450  0.9882
  107MOL0     H14412   7.864   2.137   0.916 -1.2972 -0.8605  1.3640
  107MOL0     H14413   7.875   2.372   0.817  0.4367  3.5978  2.2072
  107MOL0     H14414   7.939   2.428   0.968  2.3513 -1.0003  1.3390
  107MOL0     H14415   8.075   2.216   0.798 -3.1354 -0.6921  0.3213
  107MOL0     H14416   8.116   2.256   0.972  0.6039  2.2930  1.1275
  107MOL0     H14417   8.265   2.384   0.814 -0.1385 -0.5333  1.0269
  107MOL0     H14418   8.156   2.490   0.892  2.5601  0.2846 -0.6767
  107MOL0     H14419   8.103   2.370   0.612  4.2502  0.1009 -1.1229
  107MOL0     H14420   8.012   2.503   0.696  0.0126  0.3101  1.4515
  107MOL0     H14421   8.268   2.611   0.695 -1.6829  3.4880 -0.7854
  107MOL0     H14422   8.151   2.625   0.571 -0.4217  2.9796  4.5950
  107MOL0     H14423   8.410   2.539   0.517 -0.6736 -0.0667  0.6111
  107MOL0     H14424   8.366   2.387   0.586  0.6169  0.1670  0.1732
  107MOL0     H14425   7.525   2.281   1.179 -0.7829 -0.4551 -2.5474
  107MOL0     H14426   7.299   2.246   1.266  0.9768 -0.0140  0.1637
  107MOL0     H14427   6.784   2.263   1.206 -1.5499  0.7005  0.6048
  107MOL0     H14428   6.578   2.165   1.286  0.9993  1.8938 -0.0186
  107MOL0     H14429   4.890   2.227   1.620  0.9039 -1.8089  0.5710
  107MOL0     H14430   4.666   2.329   1.649 -3.6749 -0.6026 -1.9347
  107MOL0     H14431   4.357   2.685   1.685 -0.0831  1.1421 -0.2201
  107MOL0     H14432   4.121   2.730   1.724 -2.2591  0.9071 -3.9965
  107MOL0     H14433   3.809   2.448   1.604 -0.6540 -1.3162 -0.4340
  107MOL0     H14434   3.826   2.553   1.453  0.0473  0.7712  0.0674
  107MOL0     H14435   3.598   2.547   1.572  0.6826 -0.5008 -0.3698
  107MOL0     H14436   3.663   2.706   1.546 -0.9876  0.3892  0.5927
  107MOL0     H14437   3.555   2.668   1.772 -0.6249 -2.0758  0.5743
  107MOL0     H14438   3.719   2.726   1.772  0.4940 -0.3335 -2.8709
  107MOL0     H14439   3.787   2.456   1.822  0.5540 -0.5426  1.3392
  107MOL0     H14440   3.719   2.555   1.943  1.8042  0.0520 -1.5888
  107MOL0     H14441   3.389   2.289   1.856  1.1675 -2.8203  0.5204
  107MOL0     H14442   4.006   2.405   1.479  1.6870 -2.3683  0.4715
  107MOL0     H14443   4.140   2.245   1.416  0.5833 -0.0569  0.1895
  107MOL0     H14444   4.274   2.321   1.329  0.3419 -0.1810  0.3514
  107MOL0     H14445   4.299   2.242   1.485 -2.4278  2.0799  4.6856
  108MOL0     O14446   8.481   5.021  10.043  0.1585  0.1567  0.5579
  108MOL0     C14447   8.382   5.074   9.990 -0.3590  0.8817 -0.1642
  108MOL0     O14448   8.369   5.208   9.965 -0.2155  0.0791 -0.1716
  108MOL0     C14449   8.485   5.279   9.991  0.5710 -0.4426 -0.5382
  108MOL0     C14450   8.576   5.307   9.890 -0.2189  0.0918  0.2507
  108MOL0     C14451   8.694   5.376   9.918  0.1484 -0.2284  0.3552
  108MOL0     C14452   8.719   5.437  10.034  0.9186 -0.4141  0.3402
  108MOL0     O14453   8.819   5.533  10.053  0.0083  0.0495  0.9970
  108MOL0     C14454   8.936   5.505   9.978  0.5783 -0.6009  0.6190
  108MOL0     C14455   9.049   5.589  10.027  0.0882 -0.0238 -0.2870
  108MOL0     C14456   9.104   5.532  10.155 -0.1054  0.6958 -1.4635
  108MOL0     C14457   9.230   5.619  10.202  0.3431  0.1931 -0.2308
  108MOL0     C14458   9.288   5.568  10.344 -0.2520 -0.1108  0.0464
  108MOL0     C14459   9.184   5.572  10.459 -0.7989  0.6199  1.0898
  108MOL0     C14460   9.215   5.484  10.580  1.0095 -0.2697  0.9163
  108MOL0     C14461   9.351   5.519  10.634  0.0563 -0.7087  0.1602
  108MOL0     N14462   9.363   5.488  10.779 -0.2128 -0.0723 -0.4339
  108MOL0     C14463   9.409   5.367  10.828  0.3513  0.0026 -0.4046
  108MOL0     C14464   9.455   5.391  10.954  0.5208 -0.2970 -0.1048
  108MOL0     C14465   9.525   5.298  11.045 -0.7848  0.2866  0.4840
  108MOL0     C14466   9.438   5.217  11.147 -0.4520 -0.2726  1.0886
  108MOL0     C14467   9.504   5.086  11.207  0.4309  0.2557 -0.2399
  108MOL0     C14468   9.627   5.098  11.292  0.0502  1.3604  0.1789
  108MOL0     O14469   9.741   5.152  11.223  0.3177  0.0230 -0.5417
  108MOL0     C14470   9.847   5.202  11.291  0.2833 -0.3926 -1.0635
  108MOL0     C14471   9.852   5.203  11.428 -0.8789 -0.3466  0.9143
  108MOL0     C14472   9.946   5.272  11.500 -0.2301  0.6245 -0.0964
  108MOL0     C14473  10.052   5.341  11.437  0.1781 -0.4067 -0.1418
  108MOL0     C14474  10.167   5.400  11.511 -0.0129  0.0022 -0.1214
  108MOL0     O14475  10.263   5.461  11.430 -0.2301  0.4224  0.4849
  108MOL0     C14476  10.383   5.525  11.474 -0.1755  0.2822 -0.4539
  108MOL0     C14477  10.420   5.576  11.603 -0.4655 -0.0274 -0.4659
  108MOL0     C14478  10.536   5.659  11.614  0.5176 -0.3260 -0.2873
  108MOL0     C14479  10.625   5.678  11.509  0.9180 -0.8051 -0.1224
  108MOL0     O14480  10.733   5.766  11.509 -0.9320 -0.3853 -0.0639
  108MOL0     C14481  10.717   5.886  11.586 -0.4989 -1.0540  0.1966
  108MOL0     C14482  10.822   5.989  11.546  0.5470 -0.0403 -0.2408
  108MOL0     C14483  10.829   6.121  11.626 -0.5451 -0.6137  0.3713
  108MOL0     C14484  10.962   6.191  11.590  0.6622 -0.5180  0.1055
  108MOL0     C14485  10.987   6.316  11.676 -0.2318 -0.4918 -0.1749
  108MOL0     C14486  11.054   6.262  11.807  0.2407  0.2745 -0.0970
  108MOL0     C14487  11.100   6.358  11.903  1.0633  0.8344 -0.5855
  108MOL0     C14488  11.257   6.390  11.907  0.2500 -0.3487  0.5327
  108MOL0    Cl14489  11.347   6.233  11.932  0.7776 -0.2296  0.1570
  108MOL0     C14490  10.597   5.607  11.399 -0.2450 -0.8841 -0.4333
  108MOL0     C14491  10.471   5.537  11.375  0.0919 -0.8454  1.3479
  108MOL0     O14492  10.178   5.389  11.631 -0.3556  0.1123 -0.6106
  108MOL0     C14493  10.044   5.347  11.300  0.2917  0.1690  0.8035
  108MOL0     C14494   9.946   5.276  11.225 -0.5739  1.0011  0.4241
  108MOL0     N14495   9.405   5.517  10.999 -0.5305  0.1043 -0.2314
  108MOL0     N14496   9.357   5.571  10.890  0.3480  0.7527  0.5829
  108MOL0     C14497   8.622   5.419  10.140 -0.5815  0.1408 -0.7315
  108MOL0     C14498   8.511   5.344  10.123  1.2979  0.0432  0.3525
  108MOL0     C14499   8.267   4.986   9.962 -0.0741 -0.1095  0.5669
  108MOL0     C14500   8.293   4.847   9.942 -0.1293  0.0390  0.8259
  108MOL0     C14501   8.187   4.765   9.908 -0.1448 -0.4519  0.0509
  108MOL0     C14502   8.056   4.810   9.896  0.3697  0.1586  0.3278
  108MOL0     O14503   7.946   4.732   9.861  0.2297  0.0230  1.0919
  108MOL0     C14504   7.967   4.600   9.802  0.1619 -0.3690  0.5077
  108MOL0     C14505   7.824   4.546   9.768 -1.2499  0.3814  0.0314
  108MOL0     C14506   7.705   4.624   9.809  0.2016  0.2008  0.2830
  108MOL0     C14507   7.693   4.615   9.963  0.2419  0.4391  0.0465
  108MOL0     C14508   7.622   4.502  10.014 -1.0260  0.6912 -1.0699
  108MOL0     C14509   7.576   4.402  10.058  1.2793  0.0193  0.6615
  108MOL0     C14510   8.037   4.941   9.920  0.8394 -0.4111 -0.1801
  108MOL0     C14511   8.132   5.037   9.946 -0.0853 -0.6553  0.0967
  108MOL0     C14512   8.094   5.185   9.942  0.7830  0.5025  0.4478
  108MOL0     H14513   8.553   5.265   9.793  1.2131 -1.1797  0.4184
  108MOL0     H14514   8.761   5.389   9.833  1.0254 -1.2264  0.8668
  108MOL0     H14515   8.981   5.405   9.987 -1.5730 -1.8731 -1.6193
  108MOL0     H14516   8.931   5.524   9.871  4.5418 -1.4520  0.1090
  108MOL0     H14517   9.024   5.695  10.032  1.2922  0.4867 -3.0499
  108MOL0     H14518   9.128   5.572   9.953 -2.0164  0.3630 -2.7887
  108MOL0     H14519   9.131   5.426  10.150 -0.3756  0.4903  0.5930
  108MOL0     H14520   9.029   5.531  10.235 -2.7208  1.3065 -3.7852
  108MOL0     H14521   9.311   5.613  10.128 -1.4719 -0.7066 -2.2547
  108MOL0     H14522   9.192   5.720  10.215 -2.6266 -1.0193  1.3578
  108MOL0     H14523   9.318   5.464  10.325 -1.0596 -0.6781  1.7072
  108MOL0     H14524   9.378   5.620  10.377  0.5220 -1.2750 -0.1769
  108MOL0     H14525   9.164   5.671  10.502 -2.0176 -0.4062  3.0594
  108MOL0     H14526   9.087   5.536  10.426  0.3839  0.2421 -2.3765
  108MOL0     H14527   9.203   5.380  10.550  0.3636 -0.0690  0.4497
  108MOL0     H14528   9.137   5.495  10.656 -1.1887  0.2744 -1.2668
  108MOL0     H14529   9.430   5.462  10.586  0.9266  1.8200 -1.6067
  108MOL0     H14530   9.379   5.623  10.611  1.3282 -1.0370  0.1711
  108MOL0     H14531   9.419   5.268  10.784  0.9196  0.2085 -0.7370
  108MOL0     H14532   9.572   5.233  10.972 -0.8787 -0.2047  0.8599
  108MOL0     H14533   9.613   5.343  11.093  1.6830 -0.0464 -3.3609
  108MOL0     H14534   9.403   5.287  11.223 -0.1626  0.8821  0.1891
  108MOL0     H14535   9.351   5.182  11.091 -0.3868 -1.3260  1.6276
  108MOL0     H14536   9.532   5.014  11.129  2.9779 -1.2148  1.8787
  108MOL0     H14537   9.420   5.048  11.267 -2.1979  2.6778 -2.0803
  108MOL0     H14538   9.647   4.995  11.324 -4.7704 -0.0181 -0.4922
  108MOL0     H14539   9.607   5.145  11.389 -0.1522 -2.8513  2.4258
  108MOL0     H14540   9.791   5.144  11.495 -1.2039  1.4961  2.3173
  108MOL0     H14541   9.942   5.256  11.607  1.0069 -1.5684 -0.3408
  108MOL0     H14542  10.363   5.577  11.695  1.4219  0.3258  0.7751
  108MOL0     H14543  10.554   5.716  11.705  6.9046  4.0634 -3.4974
  108MOL0     H14544  10.622   5.939  11.578  0.6687  0.9709 -1.2764
  108MOL0     H14545  10.741   5.861  11.690  2.3621 -2.7887 -0.7607
  108MOL0     H14546  10.921   5.944  11.542 -0.6360 -2.7605 -2.3291
  108MOL0     H14547  10.801   6.015  11.442  0.3702 -1.6294 -0.6331
  108MOL0     H14548  10.740   6.178  11.600 -0.0369  1.1155  2.1897
  108MOL0     H14549  10.818   6.101  11.733 -3.7662  1.2000  0.4913
  108MOL0     H14550  10.960   6.206  11.482 -0.1690  0.1703  0.2129
  108MOL0     H14551  11.046   6.123  11.606  3.0180  2.1540 -0.1553
  108MOL0     H14552  10.893   6.362  11.709 -0.8859 -2.2750  0.5743
  108MOL0     H14553  11.059   6.385  11.630  0.3208 -2.2048 -1.9905
  108MOL0     H14554  10.980   6.205  11.864 -1.6201  2.2225 -0.4030
  108MOL0     H14555  11.130   6.192  11.772  1.8891  2.7520 -1.7694
  108MOL0     H14556  11.074   6.329  12.006 -1.9479  0.3405 -1.3839
  108MOL0     H14557  11.058   6.456  11.883  0.5845  0.6784 -0.3557
  108MOL0     H14558  11.287   6.431  11.810  2.4540 -3.3787 -0.1911
  108MOL0     H14559  11.272   6.463  11.987  1.9045  1.7254 -1.5578
  108MOL0     H14560  10.672   5.622  11.323 -0.8490 -1.7379 -1.2200
  108MOL0     H14561  10.457   5.515  11.269  1.0678 -1.2030  1.2823
  108MOL0     H14562  10.129   5.380  11.240  0.9405 -3.0140 -0.2287
  108MOL0     H14563   9.930   5.275  11.118 -3.2086 -0.0201  0.7553
  108MOL0     H14564   8.635   5.455  10.242 -2.9891 -2.1071  0.4925
  108MOL0     H14565   8.434   5.334  10.199  0.3973 -4.5429 -0.8639
  108MOL0     H14566   8.392   4.806   9.950  1.0122  2.8547  3.0990
  108MOL0     H14567   8.215   4.661   9.891  1.3929 -0.0751  0.1949
  108MOL0     H14568   8.014   4.545   9.884  1.6512  2.5595  1.7769
  108MOL0     H14569   8.024   4.603   9.709  0.2741  0.5433  0.5996
  108MOL0     H14570   7.825   4.441   9.801 -1.2121  0.3187 -0.1698
  108MOL0     H14571   7.821   4.530   9.660 -1.0221 -0.2108  0.1088
  108MOL0     H14572   7.617   4.584   9.757  1.0019  3.2987 -3.9998
  108MOL0     H14573   7.708   4.728   9.776 -1.4371 -0.0655 -0.7981
  108MOL0     H14574   7.785   4.625  10.022  0.4211 -1.4658  0.1331
  108MOL0     H14575   7.632   4.699   9.999  2.1327  1.1234  1.8940
  108MOL0     H14576   7.537   4.311  10.101 -0.1568  0.1220 -0.3500
  108MOL0     H14577   7.932   4.968   9.912  0.9338  0.0261 -0.0156
  108MOL0     H14578   8.091   5.218  10.046 -0.6047  0.0869  0.5616
  108MOL0     H14579   8.157   5.237   9.870 -0.8996 -0.0959 -1.5479
  108MOL0     H14580   7.993   5.186   9.901  0.6505  0.6486  0.7676
  109MOL0     O14581   4.876   9.274   9.471 -0.1467 -0.3410  0.2900
  109MOL0     C14582   4.957   9.312   9.551 -0.7264 -0.6434  0.1475
  109MOL0     O14583   4.949   9.292   9.683 -1.0502 -0.1838 -0.1630
  109MOL0     C14584   4.847   9.222   9.726  0.4925  0.0229  0.7840
  109MOL0     C14585   4.860   9.101   9.791  0.3052 -0.4920 -0.1960
  109MOL0     C14586   4.751   9.028   9.835 -0.2411  0.3098 -0.1495
  109MOL0     C14587   4.625   9.079   9.815  0.4865  0.2802 -0.2933
  109MOL0     O14588   4.513   9.019   9.866  0.0759 -0.3264 -0.5947
  109MOL0     C14589   4.524   8.878   9.928  0.5953  0.6211  0.2818
  109MOL0     C14590   4.381   8.835   9.960 -0.1951 -0.7377 -0.7336
  109MOL0     C14591   4.299   8.927  10.052  0.3294 -0.8632 -0.6115
  109MOL0     C14592   4.160   8.878  10.069  0.2590 -0.3320 -0.1984
  109MOL0     C14593   4.081   8.981  10.153 -0.1938 -0.9784 -0.2840
  109MOL0     C14594   3.944   8.942  10.163  1.1262 -0.2670 -0.9004
  109MOL0     C14595   3.863   9.059  10.230  0.0970 -0.8476  0.4729
  109MOL0     C14596   3.727   9.015  10.261  0.3377 -0.3252 -0.1486
  109MOL0     N14597   3.719   8.940  10.385 -0.1398 -0.7708 -0.2137
  109MOL0     C14598   3.730   9.004  10.510 -0.6778 -0.1339  0.0374
  109MOL0     C14599   3.752   8.897  10.599  0.2818 -0.0347  0.1906
  109MOL0     C14600   3.808   8.921  10.743  1.3222 -0.7301  0.1065
  109MOL0     C14601   3.861   8.790  10.802 -0.3443  0.2289  0.4908
  109MOL0     C14602   3.966   8.717  10.716 -0.1635  0.5741 -0.6492
  109MOL0     C14603   4.062   8.811  10.638 -0.1481  0.0350 -1.1194
  109MOL0     O14604   4.145   8.727  10.561 -0.2724 -0.2010 -0.6994
  109MOL0     C14605   4.249   8.792  10.506 -0.8417 -0.2160  0.0478
  109MOL0     C14606   4.273   8.932  10.496  0.3428  0.6195  0.4347
  109MOL0     C14607   4.385   8.992  10.445 -0.4794 -0.8881  0.8776
  109MOL0     C14608   4.482   8.908  10.392 -0.1669  1.3916 -0.0633
  109MOL0     C14609   4.619   8.960  10.349  0.4285  0.1555 -0.2636
  109MOL0     O14610   4.624   9.095  10.338 -0.2916 -0.0772 -0.1745
  109MOL0     C14611   4.726   9.161  10.270 -0.2505 -0.0157 -0.7754
  109MOL0     C14612   4.851   9.178  10.341  0.1723  0.3285  0.2902
  109MOL0     C14613   4.953   9.262  10.280  0.9690  0.3438  0.3029
  109MOL0     C14614   4.945   9.312  10.146  0.2774 -0.3133 -0.5174
  109MOL0     O14615   5.048   9.392  10.102  0.0769  0.4319  0.1382
  109MOL0     C14616   5.049   9.414   9.958 -0.0176 -0.1723 -0.5477
  109MOL0     C14617   5.175   9.501   9.923  0.6675 -0.3501 -0.6685
  109MOL0     C14618   5.308   9.428   9.966 -0.0408 -0.0213  0.7231
  109MOL0     C14619   5.418   9.467   9.870  0.0129  0.6461 -0.7439
  109MOL0     C14620   5.551   9.400   9.874  0.1772 -0.4239 -0.2003
  109MOL0     C14621   5.661   9.490   9.826 -0.7309 -0.0088 -0.3569
  109MOL0     C14622   5.672   9.491   9.673 -1.1147  0.8370  0.1822
  109MOL0     C14623   5.782   9.588   9.625 -0.2455 -0.4518  0.1140
  109MOL0    Cl14624   5.725   9.756   9.630 -0.2616 -0.0207 -0.1273
  109MOL0     C14625   4.824   9.281  10.083  0.2579 -0.1394  0.5227
  109MOL0     C14626   4.719   9.198  10.142 -1.5314 -0.0262 -0.0940
  109MOL0     O14627   4.712   8.878  10.337 -0.2023  0.2951 -0.2628
  109MOL0     C14628   4.450   8.766  10.378 -0.1401  0.5221 -0.8860
  109MOL0     C14629   4.330   8.710  10.433 -0.1525  0.2294  0.4579
  109MOL0     N14630   3.731   8.779  10.525 -0.5166  0.0112  0.3988
  109MOL0     N14631   3.710   8.806  10.399 -0.3183 -0.1481 -0.5915
  109MOL0     C14632   4.611   9.200   9.752 -0.3925 -0.5730 -0.2207
  109MOL0     C14633   4.717   9.269   9.704 -0.6126  0.0471 -1.5099
  109MOL0     C14634   5.071   9.400   9.497 -1.0378  0.3585 -0.8250
  109MOL0     C14635   5.099   9.516   9.575 -0.2088  0.6949  0.6295
  109MOL0     C14636   5.197   9.606   9.524  0.7482  0.7565  0.2575
  109MOL0     C14637   5.272   9.582   9.409  0.3198  0.2648  0.0998
  109MOL0     O14638   5.348   9.681   9.366 -0.2846 -0.4470 -0.1006
  109MOL0     C14639   5.462   9.643   9.291  0.3473 -0.6420 -0.0794
  109MOL0     C14640   5.559   9.751   9.297  0.9480  0.3447 -0.5108
  109MOL0     C14641   5.672   9.720   9.202  0.0565  0.3309  0.0692
  109MOL0     C14642   5.787   9.812   9.230  0.3401 -0.3253 -0.5754
  109MOL0     C14643   5.908   9.733   9.191 -0.0914 -0.7743 -0.3217
  109MOL0     C14644   5.993   9.662   9.142  0.1504  1.0909 -0.0987
  109MOL0     C14645   5.248   9.465   9.338  1.4819  0.1122  0.2374
  109MOL0     C14646   5.146   9.374   9.383  0.2360  0.0225 -0.5698
  109MOL0     C14647   5.119   9.254   9.297  0.7804  0.0734 -0.5062
  109MOL0     H14648   4.961   9.079   9.823  0.3868  0.4320  0.2099
  109MOL0     H14649   4.781   8.935   9.882  0.9351  1.0300  0.5669
  109MOL0     H14650   4.571   8.815   9.852  1.7986  0.8715  0.8051
  109MOL0     H14651   4.575   8.887  10.024 -0.1974 -0.5592  0.8369
  109MOL0     H14652   4.374   8.740  10.014 -3.2695  0.8401  1.9273
  109MOL0     H14653   4.325   8.834   9.866  3.1537 -1.4561 -2.9138
  109MOL0     H14654   4.295   9.033  10.022 -0.7936 -0.0799  1.9870
  109MOL0     H14655   4.348   8.908  10.148 -1.0964  1.2208  0.6295
  109MOL0     H14656   4.112   8.860   9.973  0.1483 -1.6145  0.0775
  109MOL0     H14657   4.161   8.787  10.131 -0.2126  1.0832  1.9934
  109MOL0     H14658   4.124   8.983  10.254 -0.9610 -1.9638  0.0813
  109MOL0     H14659   4.085   9.082  10.110 -1.5723  0.2216  2.2048
  109MOL0     H14660   3.906   8.923  10.062  1.7190  3.6824 -2.0676
  109MOL0     H14661   3.932   8.860  10.233 -2.0049  0.1442 -0.8031
  109MOL0     H14662   3.877   9.150  10.172 -0.2755 -1.0285  0.0922
  109MOL0     H14663   3.914   9.074  10.326  0.1387 -1.8308  0.6192
  109MOL0     H14664   3.669   9.107  10.270  0.8687  0.3342 -2.6071
  109MOL0     H14665   3.684   8.962  10.175 -0.9936  2.6596 -1.4499
  109MOL0     H14666   3.721   9.111  10.519  0.1490  0.3151 -3.2698
  109MOL0     H14667   3.886   8.997  10.730 -0.7541  1.3179 -1.1182
  109MOL0     H14668   3.720   8.959  10.797 -1.9522 -2.7907 -3.3757
  109MOL0     H14669   3.902   8.801  10.903 -0.9677 -0.7422  0.8614
  109MOL0     H14670   3.777   8.723  10.820  0.1404 -0.6894 -0.5330
  109MOL0     H14671   3.930   8.638  10.649 -0.6033  1.0004 -0.9182
  109MOL0     H14672   4.020   8.656  10.789  0.6932  1.3926 -0.5840
  109MOL0     H14673   4.131   8.859  10.708 -0.7069 -2.8832  1.6755
  109MOL0     H14674   4.014   8.881  10.570 -1.2764  0.1159 -0.2763
  109MOL0     H14675   4.195   8.996  10.537 -1.0764  2.6924 -4.6665
  109MOL0     H14676   4.386   9.101  10.448 -1.5956 -0.8778  2.5910
  109MOL0     H14677   4.873   9.133  10.437  0.0417  1.5961  0.9249
  109MOL0     H14678   5.037   9.280  10.346 -2.5169  0.8747  5.1268
  109MOL0     H14679   5.060   9.318   9.906  4.7906  0.7527 -1.6827
  109MOL0     H14680   4.954   9.454   9.922  0.1677  1.9189  1.0796
  109MOL0     H14681   5.173   9.533   9.819 -1.6891  1.2532 -0.1958
  109MOL0     H14682   5.164   9.599   9.969  1.6323  0.1071 -1.3741
  109MOL0     H14683   5.323   9.463  10.069 -0.5701  3.7163 -0.3116
  109MOL0     H14684   5.292   9.320   9.961 -0.3637  0.0404  0.4469
  109MOL0     H14685   5.442   9.573   9.884  1.6797  0.2182 -0.1717
  109MOL0     H14686   5.386   9.453   9.766 -0.0246 -0.8904 -0.5523
  109MOL0     H14687   5.545   9.299   9.833  2.4873 -1.4548  1.6772
  109MOL0     H14688   5.587   9.381   9.976  0.4837  0.4567 -0.1358
  109MOL0     H14689   5.641   9.582   9.884  0.0875 -1.2868  2.0981
  109MOL0     H14690   5.757   9.447   9.856 -0.1503 -0.1452 -2.2795
  109MOL0     H14691   5.573   9.511   9.632 -0.6248  1.5633 -0.6623
  109MOL0     H14692   5.702   9.388   9.651 -0.2332  0.8323  1.3026
  109MOL0     H14693   5.869   9.574   9.690  0.8890 -1.4625 -1.5479
  109MOL0     H14694   5.824   9.576   9.525 -0.1764  2.6619 -0.3288
  109MOL0     H14695   4.818   9.319   9.981  3.0135  0.2004  0.4174
  109MOL0     H14696   4.636   9.159  10.084 -2.3479  0.6128  0.6210
  109MOL0     H14697   4.524   8.701  10.332 -0.9319 -0.3038 -1.0266
  109MOL0     H14698   4.303   8.605  10.425  2.4804 -0.5231  0.3616
  109MOL0     H14699   4.514   9.245   9.735 -0.6982 -0.6758  1.1145
  109MOL0     H14700   4.695   9.372   9.675 -2.3621  0.3888  0.7371
  109MOL0     H14701   5.040   9.542   9.663 -3.5346 -1.5407 -0.7681
  109MOL0     H14702   5.197   9.698   9.582 -2.6142  1.4529 -0.6219
  109MOL0     H14703   5.442   9.619   9.186  0.8420 -2.1458  0.1386
  109MOL0     H14704   5.502   9.549   9.330  1.1348  0.1015  0.9695
  109MOL0     H14705   5.603   9.747   9.397  0.8285 -2.2912 -0.5002
  109MOL0     H14706   5.503   9.844   9.282 -0.3016 -0.0780  1.2749
  109MOL0     H14707   5.642   9.731   9.097 -0.6476  1.5123  0.3737
  109MOL0     H14708   5.705   9.616   9.201  1.0851  0.6331  0.8613
  109MOL0     H14709   5.775   9.897   9.162  3.1559  0.2287 -0.4865
  109MOL0     H14710   5.799   9.842   9.334  3.4087  0.1777 -1.0100
  109MOL0     H14711   6.060   9.606   9.079  0.7502  1.9161 -0.2234
  109MOL0     H14712   5.300   9.444   9.245  1.4746  1.5471 -0.1170
  109MOL0     H14713   5.020   9.262   9.250  1.6842 -0.6095 -2.6573
  109MOL0     H14714   5.199   9.238   9.224  2.5174  0.2408  1.3059
  109MOL0     H14715   5.122   9.166   9.363  0.3855  0.5883  0.2105
  110MOL0     O14716   2.604   1.863   3.918  0.0163 -0.0504 -0.6998
  110MOL0     C14717   2.636   1.749   3.921 -1.4239 -0.0338 -0.3291
  110MOL0     O14718   2.771   1.708   3.932  0.4947 -0.1175  0.3735
  110MOL0     C14719   2.864   1.796   3.940 -0.2820 -0.7164 -0.2229
  110MOL0     C14720   2.948   1.814   3.834  0.3919 -0.3909  0.1496
  110MOL0     C14721   3.048   1.913   3.848 -0.7849 -0.0399  0.1407
  110MOL0     C14722   3.076   1.977   3.971  0.4650  0.2829 -0.3373
  110MOL0     O14723   3.193   2.064   3.969 -0.0021  0.3189  0.5647
  110MOL0     C14724   3.213   2.144   4.091 -0.3517 -0.3737  0.2887
  110MOL0     C14725   3.295   2.058   4.193 -0.2795 -0.2556 -0.6758
  110MOL0     C14726   3.420   1.983   4.137  0.6051  1.1095 -0.3912
  110MOL0     C14727   3.532   2.059   4.065  0.1546  0.3044  0.2514
  110MOL0     C14728   3.514   2.093   3.922  0.0829  1.1092 -0.3155
  110MOL0     C14729   3.489   1.971   3.831  1.5697  0.2227 -0.4601
  110MOL0     C14730   3.577   1.848   3.851  0.0017  0.5959  0.3071
  110MOL0     C14731   3.730   1.888   3.831 -0.1426  0.5541  0.4051
  110MOL0     N14732   3.803   1.760   3.834  0.1133 -0.5474 -0.5274
  110MOL0     C14733   3.830   1.691   3.723 -0.1534 -0.4191  0.0680
  110MOL0     C14734   3.892   1.577   3.758 -0.0370  0.0806 -1.2325
  110MOL0     C14735   3.936   1.467   3.664  1.0732 -0.3268  0.0752
  110MOL0     C14736   4.093   1.467   3.652 -1.1545 -0.3444 -0.6208
  110MOL0     C14737   4.125   1.396   3.520  0.1654  0.6111  0.3199
  110MOL0     C14738   4.271   1.354   3.511  0.4155 -0.6442  0.4879
  110MOL0     O14739   4.343   1.472   3.467  0.6123  0.9825  0.0181
  110MOL0     C14740   4.480   1.459   3.450  0.1945 -0.0881 -0.3890
  110MOL0     C14741   4.561   1.341   3.443  0.6812  0.4033  0.1634
  110MOL0     C14742   4.686   1.341   3.401  0.1300  0.1483  0.2831
  110MOL0     C14743   4.752   1.470   3.392 -0.3085  1.0531  0.3804
  110MOL0     C14744   4.901   1.464   3.383  0.7470  0.3630 -0.5983
  110MOL0     O14745   4.955   1.576   3.446 -0.1836  0.0387  0.2028
  110MOL0     C14746   5.087   1.572   3.478  0.2309 -0.2223 -0.3930
  110MOL0     C14747   5.188   1.581   3.374 -0.0445  0.7201 -0.7154
  110MOL0     C14748   5.325   1.575   3.404 -0.6171 -0.3035  0.1212
  110MOL0     C14749   5.371   1.551   3.533 -0.0913  0.0880 -0.4235
  110MOL0     O14750   5.499   1.540   3.573 -0.2059  0.5774  0.3485
  110MOL0     C14751   5.593   1.622   3.500 -0.2252 -0.1344 -0.0374
  110MOL0     C14752   5.665   1.552   3.389 -0.0483 -0.6158 -0.3021
  110MOL0     C14753   5.787   1.636   3.334  0.5004 -0.9037 -0.7251
  110MOL0     C14754   5.735   1.763   3.265  0.3079  0.2285  0.3001
  110MOL0     C14755   5.836   1.872   3.255  0.3887  0.8124  0.6173
  110MOL0     C14756   5.940   1.838   3.147 -0.1245 -0.0147 -0.5159
  110MOL0     C14757   6.056   1.934   3.155 -0.3865  0.0223 -0.3213
  110MOL0     C14758   6.159   1.880   3.067  0.1926 -0.7221  0.9241
  110MOL0    Cl14759   6.127   1.885   2.887 -0.2568 -0.0957  0.3272
  110MOL0     C14760   5.268   1.536   3.631 -0.4184 -0.1252 -0.6255
  110MOL0     C14761   5.133   1.536   3.610  0.1897  0.2651  0.8611
  110MOL0     O14762   4.960   1.372   3.338  0.2361 -0.4002 -0.0640
  110MOL0     C14763   4.685   1.594   3.408 -0.2478  0.2157 -0.3902
  110MOL0     C14764   4.542   1.584   3.426  0.1124 -0.1164  0.3743
  110MOL0     N14765   3.916   1.594   3.896 -0.5941  0.6807  0.5742
  110MOL0     N14766   3.847   1.699   3.947 -0.6392  0.4948  0.1400
  110MOL0     C14767   2.987   1.950   4.075 -1.1554  0.9292 -0.9486
  110MOL0     C14768   2.881   1.861   4.063 -0.1216  1.3374 -0.3611
  110MOL0     C14769   2.527   1.650   3.902 -0.9616  0.0992  1.2472
  110MOL0     C14770   2.540   1.519   3.969  0.1463  0.1281 -0.0446
  110MOL0     C14771   2.435   1.428   3.987 -0.3550 -0.1888 -0.2917
  110MOL0     C14772   2.314   1.451   3.921  0.5058  0.4663  0.6117
  110MOL0     O14773   2.205   1.374   3.915  0.4080  0.3102 -0.9549
  110MOL0     C14774   2.198   1.248   3.978 -0.1694 -0.7834  0.2457
  110MOL0     C14775   2.059   1.182   3.967  0.1622 -1.1793 -0.3994
  110MOL0     C14776   2.024   1.108   3.834 -1.0537  0.7061  0.1734
  110MOL0     C14777   2.058   0.953   3.826 -0.5931 -0.7489  0.1353
  110MOL0     C14778   2.205   0.923   3.844  0.0384 -0.6329 -0.4347
  110MOL0     C14779   2.324   0.888   3.847  1.0606 -0.3828  0.0337
  110MOL0     C14780   2.306   1.573   3.852 -0.3983 -0.4998  1.0160
  110MOL0     C14781   2.403   1.672   3.841 -0.5682  0.4478 -0.4841
  110MOL0     C14782   2.370   1.798   3.761  1.4379  0.0800  0.8142
  110MOL0     H14783   2.937   1.752   3.746 -0.8895  2.1952 -1.6583
  110MOL0     H14784   3.125   1.932   3.774 -0.1704  0.6359  0.9390
  110MOL0     H14785   3.269   2.233   4.063  0.4552 -0.9009  0.1637
  110MOL0     H14786   3.112   2.172   4.122 -0.7469  0.1244 -1.3782
  110MOL0     H14787   3.224   1.995   4.248 -0.5479  1.1399  0.6294
  110MOL0     H14788   3.332   2.125   4.271 -0.9362  0.2673 -0.7968
  110MOL0     H14789   3.378   1.898   4.083 -1.7295  3.2833 -2.2107
  110MOL0     H14790   3.480   1.952   4.224  2.6760 -0.0553 -2.1350
  110MOL0     H14791   3.566   2.145   4.123 -0.1759 -0.5613  1.7859
  110MOL0     H14792   3.616   1.990   4.054  0.8219  1.2676 -0.9091
  110MOL0     H14793   3.442   2.176   3.912  1.0710  1.8551 -1.5305
  110MOL0     H14794   3.614   2.131   3.902  1.1768 -0.4903  1.7376
  110MOL0     H14795   3.387   1.932   3.838  2.3834 -1.7562  4.0746
  110MOL0     H14796   3.488   2.014   3.730  0.4780  2.7685  0.5415
  110MOL0     H14797   3.542   1.770   3.782 -1.3709  0.1429  1.4578
  110MOL0     H14798   3.556   1.803   3.948 -1.0439 -1.6658 -0.8834
  110MOL0     H14799   3.743   1.940   3.736 -0.1662  1.8664  1.0959
  110MOL0     H14800   3.764   1.951   3.914 -0.8545  1.3976  0.0666
  110MOL0     H14801   3.803   1.714   3.621  1.8712  1.5033 -0.1219
  110MOL0     H14802   3.899   1.367   3.690 -0.9201 -0.5225 -3.0344
  110MOL0     H14803   3.902   1.483   3.561  0.1194 -0.2290  0.3938
  110MOL0     H14804   4.128   1.571   3.656  0.9792 -1.0511 -0.0736
  110MOL0     H14805   4.136   1.424   3.743  1.1653 -2.8886 -2.7880
  110MOL0     H14806   4.091   1.458   3.437  0.6332  0.4529  0.0022
  110MOL0     H14807   4.066   1.304   3.517 -1.1231  1.4523 -0.8490
  110MOL0     H14808   4.287   1.271   3.442  2.3419  1.1431 -1.3630
  110MOL0     H14809   4.299   1.332   3.615 -1.1529  0.8919  1.2953
  110MOL0     H14810   4.504   1.251   3.463 -0.6894  1.2169  0.1161
  110MOL0     H14811   4.741   1.251   3.376  2.6785  1.5209  0.5620
  110MOL0     H14812   5.167   1.598   3.269  1.4787  2.1031 -0.8351
  110MOL0     H14813   5.394   1.593   3.322  0.8419  1.4628  1.6213
  110MOL0     H14814   5.540   1.707   3.457  0.2333 -0.7936 -1.9807
  110MOL0     H14815   5.657   1.678   3.569  1.6307  0.4561 -2.1213
  110MOL0     H14816   5.687   1.449   3.419  0.7178 -0.0311  1.2389
  110MOL0     H14817   5.596   1.537   3.305  0.7069 -1.6153 -0.7679
  110MOL0     H14818   5.857   1.658   3.415 -0.6207 -0.6581  0.2112
  110MOL0     H14819   5.840   1.576   3.260  1.8128  1.0175 -1.4179
  110MOL0     H14820   5.649   1.811   3.314  1.6504  0.9692  2.0564
  110MOL0     H14821   5.704   1.737   3.164  3.3506  0.0286 -0.6640
  110MOL0     H14822   5.893   1.882   3.347  2.7491  0.4428 -0.7270
  110MOL0     H14823   5.781   1.962   3.226 -1.9283 -1.4792 -2.9474
  110MOL0     H14824   5.982   1.742   3.175  0.7290  0.7208  0.7904
  110MOL0     H14825   5.895   1.830   3.047 -1.6159 -2.2848  0.2658
  110MOL0     H14826   6.077   1.933   3.262  0.2416 -1.7774 -0.4272
  110MOL0     H14827   6.024   2.032   3.117  2.2016  0.6611 -1.0690
  110MOL0     H14828   6.252   1.934   3.082 -0.6395  0.8845  0.5184
  110MOL0     H14829   6.170   1.774   3.092 -1.4700 -1.0493  0.3797
  110MOL0     H14830   5.289   1.494   3.729 -2.6007 -1.2486 -0.5777
  110MOL0     H14831   5.070   1.498   3.689  0.3444  0.8891  1.2918
  110MOL0     H14832   4.746   1.684   3.403 -1.4265  1.0033 -0.9422
  110MOL0     H14833   4.491   1.679   3.415  0.4001 -0.0912 -0.9406
  110MOL0     H14834   3.004   1.980   4.178 -1.6858  0.7899 -0.8168
  110MOL0     H14835   2.817   1.846   4.150  0.4219  1.2099  0.0180
  110MOL0     H14836   2.638   1.503   4.012  0.2599  0.7773 -0.0495
  110MOL0     H14837   2.455   1.333   4.036 -2.8577 -0.5994  0.0366
  110MOL0     H14838   2.226   1.250   4.084  1.7920  0.8502 -0.2230
  110MOL0     H14839   2.274   1.195   3.919  0.5683  0.4741  0.0230
  110MOL0     H14840   1.981   1.248   4.006  0.8903 -0.1946 -0.5710
  110MOL0     H14841   2.060   1.096   4.035  3.6386 -0.5779  0.5184
  110MOL0     H14842   2.055   1.172   3.751 -2.4181  1.8575  0.5210
  110MOL0     H14843   1.917   1.127   3.822 -1.3344  0.4768  1.9914
  110MOL0     H14844   1.993   0.904   3.899 -1.1941 -0.8126 -0.4353
  110MOL0     H14845   2.029   0.917   3.727  0.1864  0.4903 -0.5702
  110MOL0     H14846   2.428   0.864   3.838  1.8399  2.2872  1.0784
  110MOL0     H14847   2.220   1.596   3.789 -0.9457 -1.3301  1.4332
  110MOL0     H14848   2.293   1.771   3.688 -1.0803  0.2973  3.2464
  110MOL0     H14849   2.304   1.864   3.819  0.7724  0.5968 -0.4904
  110MOL0     H14850   2.451   1.854   3.715  1.1088 -1.4636 -1.8789
  111MOL0     O14851   8.557   0.112  11.008 -0.9449  0.3591 -0.0650
  111MOL0     C14852   8.557   0.014  11.084  1.4875 -1.7498  0.0191
  111MOL0     O14853   8.625  -0.096  11.065 -0.3014 -1.2805  0.8321
  111MOL0     C14854   8.718  -0.108  10.965  0.2332 -0.0902 -0.2446
  111MOL0     C14855   8.717  -0.224  10.894  0.4828  0.0363 -0.3833
  111MOL0     C14856   8.817  -0.235  10.798  1.0232  0.4708  0.3982
  111MOL0     C14857   8.921  -0.145  10.787 -0.4186  0.2837 -0.6290
  111MOL0     O14858   9.006  -0.161  10.683 -0.6616  0.2532  0.8467
  111MOL0     C14859   9.055  -0.057  10.594  0.5008  0.1856 -0.0757
  111MOL0     C14860   9.101  -0.113  10.460 -0.2514  0.2247 -0.3531
  111MOL0     C14861   9.144   0.011  10.368  0.1718 -0.2519  0.3524
  111MOL0     C14862   9.029   0.077  10.310  0.0843  0.1272 -0.5536
  111MOL0     C14863   9.067   0.186  10.203  0.5558  0.3747  0.5205
  111MOL0     C14864   8.950   0.218  10.108  0.3816 -0.3082 -0.1599
  111MOL0     C14865   8.989   0.301   9.990 -0.1393  0.4981  0.8150
  111MOL0     C14866   8.985   0.223   9.854 -0.3523  0.3160 -0.0781
  111MOL0     N14867   9.019   0.308   9.742 -0.1572 -0.5207  0.0711
  111MOL0     C14868   9.144   0.340   9.687 -0.3661  1.1715 -0.3154
  111MOL0     C14869   9.127   0.391   9.571  1.1320  0.5351 -0.3051
  111MOL0     C14870   9.230   0.436   9.479  1.0409  0.4889 -1.1630
  111MOL0     C14871   9.316   0.320   9.422 -0.0943 -0.1294  0.0073
  111MOL0     C14872   9.410   0.356   9.307  0.9697 -0.4073 -0.6577
  111MOL0     C14873   9.382   0.265   9.185  0.7603 -0.7726 -0.1808
  111MOL0     O14874   9.489   0.304   9.096 -0.5544  0.1921 -0.3528
  111MOL0     C14875   9.612   0.254   9.117 -1.0781 -0.4448 -0.0021
  111MOL0     C14876   9.649   0.133   9.177 -0.5993  0.1012  0.5511
  111MOL0     C14877   9.786   0.092   9.180 -0.1064  0.2548  0.5431
  111MOL0     C14878   9.892   0.174   9.127  1.0061  0.0549  0.3277
  111MOL0     C14879  10.034   0.122   9.131 -0.3063  0.0743 -0.0709
  111MOL0     O14880  10.129   0.206   9.068 -0.3878  0.0215 -0.2698
  111MOL0     C14881  10.268   0.174   9.084  0.6212 -0.6774  0.2208
  111MOL0     C14882  10.325   0.103   9.191 -0.0184  0.2374 -0.0070
  111MOL0     C14883  10.464   0.086   9.191 -0.7122  0.0799  0.1301
  111MOL0     C14884  10.540   0.151   9.096 -0.6687  0.4845  0.2272
  111MOL0     O14885  10.674   0.105   9.102 -0.0058 -0.4314  0.0619
  111MOL0     C14886  10.742   0.124   9.229  0.4405 -0.7834 -0.1246
  111MOL0     C14887  10.896   0.096   9.213  0.2057 -0.8046 -0.1836
  111MOL0     C14888  10.947  -0.022   9.135 -0.4732  0.7765  0.4949
  111MOL0     C14889  11.087   0.020   9.080 -0.3027 -0.2132  0.0775
  111MOL0     C14890  11.170  -0.094   9.017  0.8741  0.6037  0.3131
  111MOL0     C14891  11.206  -0.214   9.109  0.4497  0.3048 -1.3270
  111MOL0     C14892  11.319  -0.302   9.053 -0.4379 -0.3338 -0.0056
  111MOL0     C14893  11.457  -0.232   9.066  0.2202  0.5133 -0.2398
  111MOL0    Cl14894  11.578  -0.348   9.012 -0.4009  0.5991  0.0837
  111MOL0     C14895  10.485   0.210   8.981  0.9448 -0.0646 -0.6168
  111MOL0     C14896  10.346   0.227   8.983  0.2458  0.1466  0.9630
  111MOL0     O14897  10.057   0.028   9.205 -0.2493 -0.6292 -0.8035
  111MOL0     C14898   9.854   0.296   9.068 -0.9186 -0.6227  0.3178
  111MOL0     C14899   9.719   0.337   9.066 -0.5802  0.5010  0.3436
  111MOL0     N14900   8.988   0.390   9.543 -0.0810  0.1561 -0.7946
  111MOL0     N14901   8.933   0.340   9.640  0.2477 -0.1076  0.4349
  111MOL0     C14902   8.929  -0.022  10.862 -0.9343  0.3432  0.7594
  111MOL0     C14903   8.819  -0.007  10.949 -0.1483 -0.2909 -0.2764
  111MOL0     C14904   8.471   0.032  11.205 -0.1722  0.0147 -0.4349
  111MOL0     C14905   8.454   0.166  11.257 -0.5230  0.9307 -0.0622
  111MOL0     C14906   8.381   0.187  11.380 -0.2483  0.3891  0.8211
  111MOL0     C14907   8.313   0.081  11.435  0.6151 -0.3702  0.1414
  111MOL0     O14908   8.240   0.078  11.551  0.4594  0.4765 -0.4720
  111MOL0     C14909   8.127   0.162  11.552  0.0417  0.6705 -0.7454
  111MOL0     C14910   8.050   0.143  11.683 -0.0453  0.4485  0.1566
  111MOL0     C14911   7.918   0.063  11.653  0.1072  0.2564  0.6365
  111MOL0     C14912   7.832   0.043  11.776 -0.8897  0.8058  0.0585
  111MOL0     C14913   7.910  -0.032  11.874 -0.6621  0.0734  0.0954
  111MOL0     C14914   8.001  -0.087  11.934  0.5378  1.3573  0.9628
  111MOL0     C14915   8.328  -0.050  11.384  0.3107  0.2121  0.5330
  111MOL0     C14916   8.415  -0.074  11.271  0.3848  0.8648  0.0206
  111MOL0     C14917   8.433  -0.222  11.234  0.1759 -0.0512 -0.9959
  111MOL0     H14918   8.647  -0.304  10.916  0.0518  0.3548 -0.5799
  111MOL0     H14919   8.809  -0.324  10.737 -1.0610  0.9062 -0.0361
  111MOL0     H14920   8.972   0.013  10.582 -1.8920 -2.2816  1.0008
  111MOL0     H14921   9.145  -0.006  10.628  0.0099  1.4428 -0.5922
  111MOL0     H14922   9.020  -0.171  10.416 -2.4463  3.3644 -0.8256
  111MOL0     H14923   9.179  -0.188  10.478 -0.5004  0.3081  1.2045
  111MOL0     H14924   9.200  -0.035  10.287 -1.9573 -2.2594 -0.0826
  111MOL0     H14925   9.199   0.092  10.416 -1.2700  2.1456 -1.8392
  111MOL0     H14926   8.960   0.001  10.273  0.3576 -2.3767  3.4317
  111MOL0     H14927   8.970   0.120  10.391  0.1826 -1.1877  0.2462
  111MOL0     H14928   9.108   0.273  10.256  0.1910  0.1076  1.2598
  111MOL0     H14929   9.138   0.139  10.135  0.2663 -0.1849  0.6051
  111MOL0     H14930   8.913   0.122  10.070  2.2144 -1.7249  1.4508
  111MOL0     H14931   8.873   0.269  10.165 -1.1710 -0.3204 -2.1196
  111MOL0     H14932   9.085   0.353  10.002  0.9562 -0.3706 -2.8210
  111MOL0     H14933   8.912   0.379   9.983 -0.3089  0.3095  0.5799
  111MOL0     H14934   9.060   0.144   9.854  1.1702  1.7074 -0.6852
  111MOL0     H14935   8.887   0.176   9.838 -0.9755  2.2519 -2.7294
  111MOL0     H14936   9.240   0.321   9.733 -1.0366  0.9469  1.0436
  111MOL0     H14937   9.178   0.490   9.398 -1.7695 -0.1640  0.0820
  111MOL0     H14938   9.295   0.513   9.521  0.1838  0.8136 -0.4160
  111MOL0     H14939   9.387   0.306   9.504  0.3945 -0.6640 -0.5040
  111MOL0     H14940   9.258   0.230   9.402 -0.8411 -0.4434  3.0830
  111MOL0     H14941   9.512   0.330   9.336  0.8422 -0.4801 -0.2676
  111MOL0     H14942   9.416   0.459   9.272 -1.0051  0.3736  1.0685
  111MOL0     H14943   9.282   0.284   9.144  0.3754  1.5636  1.6516
  111MOL0     H14944   9.383   0.160   9.219  2.4632 -0.6013  0.3970
  111MOL0     H14945   9.582   0.060   9.220  0.8387 -1.8588 -0.4106
  111MOL0     H14946   9.808  -0.008   9.216  0.8112 -0.4553 -1.8057
  111MOL0     H14947  10.273   0.069   9.279  2.0025  1.5732  1.8256
  111MOL0     H14948  10.499   0.038   9.282 -2.2857  0.1269  0.8024
  111MOL0     H14949  10.722   0.222   9.272 -0.3263 -1.0047  0.0299
  111MOL0     H14950  10.695   0.052   9.297  1.1906 -0.9488  0.2291
  111MOL0     H14951  10.927   0.191   9.169 -1.4247 -0.5901 -0.9584
  111MOL0     H14952  10.938   0.092   9.314  0.3930 -2.3415 -0.3012
  111MOL0     H14953  10.945  -0.114   9.194 -0.3049  0.6752  0.3463
  111MOL0     H14954  10.895  -0.050   9.043  0.0809  1.0087  0.1041
  111MOL0     H14955  11.153   0.068   9.152  0.6834  0.9458 -1.5449
  111MOL0     H14956  11.060   0.086   8.998 -0.6162 -1.1283 -0.5701
  111MOL0     H14957  11.255  -0.047   8.967  1.4970  1.1742  1.8495
  111MOL0     H14958  11.114  -0.137   8.933  3.1459 -0.3647 -0.7708
  111MOL0     H14959  11.236  -0.170   9.205 -0.7102  4.4545 -2.6596
  111MOL0     H14960  11.118  -0.275   9.133  0.5161 -0.0212 -1.9069
  111MOL0     H14961  11.299  -0.338   8.951 -1.2189  1.0797 -0.3804
  111MOL0     H14962  11.323  -0.393   9.113 -1.0951 -0.7725 -0.6050
  111MOL0     H14963  11.465  -0.138   9.012  1.3786  0.6946  0.2186
  111MOL0     H14964  11.471  -0.215   9.173 -2.0604  4.8183 -0.4069
  111MOL0     H14965  10.554   0.247   8.906  1.6797  0.9279  0.5014
  111MOL0     H14966  10.303   0.290   8.906 -0.9630  0.9915  2.2829
  111MOL0     H14967   9.927   0.361   9.023 -1.7770  0.1299 -0.0280
  111MOL0     H14968   9.687   0.420   9.004 -2.3411 -1.5896 -1.7038
  111MOL0     H14969   9.008   0.051  10.849 -0.8109 -0.1302 -1.6824
  111MOL0     H14970   8.820   0.075  11.020 -1.8113  0.0316 -0.5800
  111MOL0     H14971   8.497   0.259  11.222 -1.0755  2.5675  3.2129
  111MOL0     H14972   8.367   0.289  11.414  1.2337  0.6932  0.6141
  111MOL0     H14973   8.067   0.154  11.461 -0.1322  0.7167 -0.6358
  111MOL0     H14974   8.164   0.265  11.544 -1.3667  1.0720 -2.6761
  111MOL0     H14975   8.034   0.240  11.731  1.8215 -0.0163  1.8736
  111MOL0     H14976   8.116   0.081  11.744  0.5065 -1.7760 -2.4756
  111MOL0     H14977   7.942  -0.028  11.598  0.4355  1.1217 -0.7102
  111MOL0     H14978   7.852   0.110  11.579  0.4899 -0.2493 -0.0363
  111MOL0     H14979   7.803   0.139  11.819 -2.1869  0.7301 -0.6008
  111MOL0     H14980   7.739  -0.011  11.757 -0.1524  0.2007 -2.1243
  111MOL0     H14981   8.087  -0.138  11.974  0.9538  0.5501 -0.8483
  111MOL0     H14982   8.274  -0.128  11.437 -2.7864  0.5863 -1.7522
  111MOL0     H14983   8.538  -0.253  11.234  0.0856 -0.4487  0.8890
  111MOL0     H14984   8.384  -0.287  11.308 -0.0252  2.0523  0.8281
  111MOL0     H14985   8.398  -0.238  11.131  1.5569 -0.4135 -1.4290
  112MOL0     O14986   1.862   8.681   4.072 -0.7319 -0.5530  1.2024
  112MOL0     C14987   1.817   8.725   3.965  0.8378  0.1100  0.0007
  112MOL0     O14988   1.888   8.782   3.861  0.0091  0.7734 -0.3994
  112MOL0     C14989   2.025   8.787   3.864  0.3091  0.3304 -0.3611
  112MOL0     C14990   2.109   8.671   3.869  0.7136  0.4313 -0.1146
  112MOL0     C14991   2.243   8.691   3.876  0.0533 -0.0139 -0.0338
  112MOL0     C14992   2.302   8.815   3.863 -0.4423  0.0408  0.2788
  112MOL0     O14993   2.441   8.832   3.857  0.4207 -0.2191 -0.0101
  112MOL0     C14994   2.514   8.727   3.801 -0.1029  0.8125  0.5942
  112MOL0     C14995   2.660   8.766   3.789  0.0995 -0.1166 -0.7875
  112MOL0     C14996   2.751   8.642   3.788  0.5094 -0.2289  0.1889
  112MOL0     C14997   2.883   8.679   3.730  0.0173 -0.3317  0.6457
  112MOL0     C14998   2.989   8.559   3.722 -0.3511 -0.4609  0.0820
  112MOL0     C14999   3.137   8.595   3.684 -0.4922  0.2717 -0.2484
  112MOL0     C15000   3.232   8.474   3.700 -0.5493 -0.6764 -0.2274
  112MOL0     C15001   3.363   8.533   3.757  0.2183  0.2410 -0.0086
  112MOL0     N15002   3.460   8.425   3.746  0.5881  0.9916 -0.6671
  112MOL0     C15003   3.500   8.343   3.844 -0.1933 -0.3501 -0.2587
  112MOL0     C15004   3.592   8.258   3.794 -0.6399  0.0158 -0.1935
  112MOL0     C15005   3.687   8.168   3.867 -1.0764  0.8456  0.5820
  112MOL0     C15006   3.839   8.202   3.851  0.5875 -0.2849  1.1504
  112MOL0     C15007   3.924   8.087   3.904 -0.3507 -0.5050 -0.1930
  112MOL0     C15008   4.077   8.117   3.876  1.1821 -0.2631 -0.8594
  112MOL0     O15009   4.145   7.999   3.898  0.3225  0.6618 -0.0084
  112MOL0     C15010   4.266   7.989   3.843 -0.2729 -0.4256 -0.0808
  112MOL0     C15011   4.344   8.087   3.792  0.1299 -0.2598  0.5305
  112MOL0     C15012   4.469   8.053   3.740 -0.1771  0.5440 -0.2874
  112MOL0     C15013   4.517   7.921   3.729 -0.2144  0.1474 -0.1553
  112MOL0     C15014   4.649   7.885   3.681  0.6281 -0.1554  0.3399
  112MOL0     O15015   4.736   7.993   3.654  0.0703  0.4217 -0.1189
  112MOL0     C15016   4.856   7.956   3.599  0.5072 -0.6315 -0.4718
  112MOL0     C15017   4.978   7.990   3.650  0.2221  0.6650  0.3585
  112MOL0     C15018   5.097   7.969   3.583 -0.4038 -0.1213 -0.5642
  112MOL0     C15019   5.098   7.895   3.462  0.1004 -0.0633  0.0774
  112MOL0     O15020   5.225   7.875   3.409 -0.4007  0.4131  0.3562
  112MOL0     C15021   5.224   7.813   3.279 -0.5495  0.4470  0.7540
  112MOL0     C15022   5.362   7.818   3.224  0.3545  0.3324  0.7975
  112MOL0     C15023   5.471   7.737   3.303  0.7116 -0.4014  0.9749
  112MOL0     C15024   5.599   7.735   3.231 -0.0766  0.3085  0.7129
  112MOL0     C15025   5.708   7.696   3.340  0.3829 -0.5478 -0.1099
  112MOL0     C15026   5.851   7.701   3.289 -0.4154 -0.8161 -0.3669
  112MOL0     C15027   5.946   7.680   3.402 -0.1456 -0.1052  0.0078
  112MOL0     C15028   6.083   7.713   3.361  0.2512  0.8973  0.5237
  112MOL0    Cl15029   6.176   7.701   3.507 -0.1473  0.1923  0.3802
  112MOL0     C15030   4.976   7.857   3.406 -0.3063 -0.1188 -0.0863
  112MOL0     C15031   4.859   7.889   3.474  0.1667 -0.1459 -1.2160
  112MOL0     O15032   4.679   7.767   3.685  0.3422 -0.6739  0.1558
  112MOL0     C15033   4.436   7.827   3.791 -0.1420  0.0597  0.3681
  112MOL0     C15034   4.308   7.858   3.844  0.1063  0.5369  0.8703
  112MOL0     N15035   3.588   8.270   3.656  0.9572  0.5994  0.1139
  112MOL0     N15036   3.512   8.377   3.629 -0.1285 -0.0646  0.3020
  112MOL0     C15037   2.220   8.924   3.838  1.6090  1.0858  0.4450
  112MOL0     C15038   2.082   8.908   3.846 -0.1494  0.1119  1.2706
  112MOL0     C15039   1.668   8.698   3.930 -0.2056  1.1167  0.8493
  112MOL0     C15040   1.634   8.653   3.799  0.5677 -0.2207  0.4338
  112MOL0     C15041   1.500   8.615   3.767 -0.0518 -0.1353 -0.1524
  112MOL0     C15042   1.403   8.623   3.862  0.3602  0.1168 -0.4102
  112MOL0     O15043   1.268   8.595   3.834 -0.5101  1.6725 -0.6308
  112MOL0     C15044   1.196   8.706   3.793  0.0230  0.5073  0.2134
  112MOL0     C15045   1.149   8.684   3.651  0.1384 -1.0565  0.6973
  112MOL0     C15046   1.032   8.581   3.627 -0.0014  0.2912 -0.6281
  112MOL0     C15047   1.010   8.555   3.479  0.0393  0.0320 -0.3510
  112MOL0     C15048   0.895   8.474   3.457  0.1654  0.2459 -0.5381
  112MOL0     C15049   0.790   8.411   3.450  0.8955 -0.5690  0.5106
  112MOL0     C15050   1.432   8.658   3.994 -0.2188  0.0419  0.6520
  112MOL0     C15051   1.563   8.703   4.024 -0.1628 -1.0135 -0.4642
  112MOL0     C15052   1.583   8.732   4.172  0.9212 -0.7777  0.2587
  112MOL0     H15053   2.060   8.576   3.886  2.6669 -0.5399  0.4092
  112MOL0     H15054   2.306   8.603   3.880 -1.4298 -1.0835  2.0816
  112MOL0     H15055   2.509   8.643   3.871 -1.7900  1.7947  1.7371
  112MOL0     H15056   2.466   8.687   3.711  2.5968 -0.6285 -0.3273
  112MOL0     H15057   2.671   8.836   3.872 -2.4600  1.4054 -1.6086
  112MOL0     H15058   2.683   8.822   3.697  2.2594  0.4178 -0.0068
  112MOL0     H15059   2.712   8.566   3.720  2.6419 -2.7181  1.5659
  112MOL0     H15060   2.757   8.610   3.893  3.8511  3.3993  1.3450
  112MOL0     H15061   2.870   8.723   3.630  0.3086  2.2503  1.6688
  112MOL0     H15062   2.929   8.760   3.787  4.5083 -1.8670 -0.3955
  112MOL0     H15063   2.987   8.512   3.821 -2.0849 -3.0478 -1.0843
  112MOL0     H15064   2.948   8.485   3.653 -1.4080  2.5642 -2.7523
  112MOL0     H15065   3.145   8.633   3.582  4.6929  0.6004 -0.0200
  112MOL0     H15066   3.176   8.672   3.751 -0.4149 -1.5358  1.9009
  112MOL0     H15067   3.239   8.426   3.602 -1.1303  1.1443 -1.2212
  112MOL0     H15068   3.195   8.396   3.767  1.3531 -2.5474 -1.2195
  112MOL0     H15069   3.392   8.616   3.692 -2.6866  1.5652  0.2630
  112MOL0     H15070   3.350   8.583   3.853 -1.7154  2.8842 -1.5117
  112MOL0     H15071   3.464   8.361   3.945 -0.2454 -3.1234  0.2922
  112MOL0     H15072   3.673   8.164   3.975 -0.9151 -0.8658  0.5721
  112MOL0     H15073   3.676   8.063   3.836 -0.7947  0.1890  2.5319
  112MOL0     H15074   3.856   8.219   3.745  1.1027 -0.8356  1.1406
  112MOL0     H15075   3.849   8.287   3.920 -0.6205  0.2400  0.6897
  112MOL0     H15076   3.893   7.995   3.853 -1.6846 -0.7163  0.9408
  112MOL0     H15077   3.915   8.077   4.012 -1.2152  2.7324  0.1452
  112MOL0     H15078   4.111   8.200   3.938  1.2568  0.2213 -1.5292
  112MOL0     H15079   4.092   8.150   3.772  1.4742  0.9609 -0.4479
  112MOL0     H15080   4.341   8.195   3.791  0.2246 -0.2037 -2.2998
  112MOL0     H15081   4.529   8.138   3.709  1.2873 -0.0419  0.7885
  112MOL0     H15082   4.998   8.041   3.744  3.5271 -4.1978  2.7257
  112MOL0     H15083   5.193   7.992   3.628 -0.7997 -2.7327  1.9305
  112MOL0     H15084   5.195   7.709   3.290  0.3833  0.1156  0.2055
  112MOL0     H15085   5.164   7.883   3.220 -0.6657  0.8488  1.3339
  112MOL0     H15086   5.358   7.772   3.125 -0.0954 -0.2312  1.0691
  112MOL0     H15087   5.388   7.923   3.213 -0.9023  0.6612  0.7939
  112MOL0     H15088   5.482   7.763   3.408  0.9383 -1.8873  1.3402
  112MOL0     H15089   5.435   7.634   3.307 -4.0347  1.0590  1.2164
  112MOL0     H15090   5.624   7.830   3.184  2.0833 -0.1326  0.8531
  112MOL0     H15091   5.592   7.646   3.167 -0.5397 -1.7135  3.3785
  112MOL0     H15092   5.690   7.591   3.367  2.9337 -0.8840  0.5567
  112MOL0     H15093   5.688   7.756   3.429 -2.9786  2.2304 -2.4596
  112MOL0     H15094   5.873   7.620   3.217  3.5448 -0.7585  0.5195
  112MOL0     H15095   5.875   7.797   3.244  1.8048 -1.2833 -0.3090
  112MOL0     H15096   5.934   7.576   3.435 -0.4978  0.2231  0.9366
  112MOL0     H15097   5.925   7.760   3.474  2.3093  2.3193 -1.7519
  112MOL0     H15098   6.110   7.642   3.282  0.0373  0.6182  0.6986
  112MOL0     H15099   6.092   7.817   3.330 -0.3948  1.5206  2.3070
  112MOL0     H15100   4.976   7.806   3.311 -0.2541 -1.2071  0.4778
  112MOL0     H15101   4.760   7.868   3.436  0.8871  2.2821 -4.9009
  112MOL0     H15102   4.461   7.721   3.781 -0.8827  0.0549 -2.4043
  112MOL0     H15103   4.244   7.778   3.880  0.4168  0.3943  1.1138
  112MOL0     H15104   2.253   9.027   3.826  1.7405  0.9384 -0.5482
  112MOL0     H15105   2.011   8.988   3.834 -1.4816 -1.3371 -1.5318
  112MOL0     H15106   1.708   8.651   3.719 -0.4333 -0.0676 -0.5288
  112MOL0     H15107   1.476   8.577   3.668  2.1001  1.1525 -1.2672
  112MOL0     H15108   1.263   8.793   3.797  1.2629 -0.1938 -2.9094
  112MOL0     H15109   1.105   8.710   3.854 -2.1291 -0.0728 -2.7263
  112MOL0     H15110   1.232   8.648   3.588 -0.9467  1.4746 -2.5159
  112MOL0     H15111   1.119   8.782   3.611  0.6248 -0.9168  0.6661
  112MOL0     H15112   0.945   8.629   3.673  0.6048  0.4039  0.4333
  112MOL0     H15113   1.057   8.489   3.680 -0.0311 -0.1421 -1.3567
  112MOL0     H15114   0.987   8.652   3.435 -1.4953  0.1826  0.7412
  112MOL0     H15115   1.098   8.512   3.428  0.4119 -1.9467  1.8036
  112MOL0     H15116   0.713   8.336   3.449 -0.2460  0.4952 -2.6264
  112MOL0     H15117   1.351   8.638   4.064 -1.6505 -0.0476 -0.9810
  112MOL0     H15118   1.491   8.748   4.230  1.0708 -1.3346  0.6641
  112MOL0     H15119   1.635   8.649   4.222  3.6910  1.7505  1.9235
  112MOL0     H15120   1.651   8.817   4.175 -0.8591  0.9859 -3.4368
  113MOL0     O15121   5.390   9.324   8.420  0.3407 -0.6849  0.8731
  113MOL0     C15122   5.388   9.210   8.466  0.0060  0.3490  0.9004
  113MOL0     O15123   5.496   9.139   8.518  0.0528 -0.8866 -0.2439
  113MOL0     C15124   5.621   9.193   8.485  0.5455 -0.5611 -0.6140
  113MOL0     C15125   5.685   9.205   8.352  0.5099  0.5544 -0.7514
  113MOL0     C15126   5.805   9.268   8.339 -0.5270 -0.1571 -0.0630
  113MOL0     C15127   5.893   9.308   8.444  0.5142  0.1130 -0.3552
  113MOL0     O15128   6.019   9.346   8.425  0.4347  0.1638  0.6202
  113MOL0     C15129   6.107   9.226   8.438  0.6032  0.7469 -0.6244
  113MOL0     C15130   6.216   9.208   8.327 -0.2256  0.0462 -0.3198
  113MOL0     C15131   6.299   9.328   8.315  0.4853 -0.6423 -0.3787
  113MOL0     C15132   6.430   9.311   8.237 -0.0339 -0.3956 -0.3615
  113MOL0     C15133   6.505   9.449   8.258  0.4126 -0.3884  0.6468
  113MOL0     C15134   6.647   9.453   8.205 -0.2337  0.3710 -0.3802
  113MOL0     C15135   6.652   9.405   8.058 -0.0353 -0.8717 -0.8610
  113MOL0     C15136   6.796   9.392   8.006  0.6485  0.4995  0.2087
  113MOL0     N15137   6.887   9.328   8.092 -0.1709  0.5030  0.1226
  113MOL0     C15138   6.890   9.196   8.123 -0.3959 -0.7339 -0.5745
  113MOL0     C15139   6.973   9.186   8.234  0.3056  0.2713  0.0522
  113MOL0     C15140   7.011   9.057   8.302  0.4255 -0.5091 -0.1641
  113MOL0     C15141   6.881   8.978   8.331 -0.1689  0.1341  0.2921
  113MOL0     C15142   6.932   8.846   8.390 -0.8390 -0.4490  0.1278
  113MOL0     C15143   6.809   8.744   8.400 -1.2388 -0.1620  0.4950
  113MOL0     O15144   6.867   8.620   8.455  0.2899 -0.0506  0.5311
  113MOL0     C15145   6.885   8.615   8.592  0.5362 -0.8571 -0.0850
  113MOL0     C15146   6.969   8.512   8.651  0.4247  0.4293 -0.3300
  113MOL0     C15147   7.000   8.509   8.788 -0.4665  0.1558 -0.2160
  113MOL0     C15148   6.950   8.608   8.875 -0.7626 -0.1585 -0.3449
  113MOL0     C15149   6.977   8.607   9.015  0.6289  0.1494 -0.5032
  113MOL0     O15150   6.884   8.669   9.087  0.1248 -0.2276 -0.2235
  113MOL0     C15151   6.906   8.697   9.222 -0.4475 -0.4986 -0.6777
  113MOL0     C15152   7.035   8.712   9.289  0.0135  0.0890  0.2579
  113MOL0     C15153   7.033   8.760   9.424  0.0498 -0.8492 -0.0788
  113MOL0     C15154   6.911   8.778   9.499 -0.3324 -0.4995  1.0675
  113MOL0     O15155   6.890   8.809   9.630  0.2153 -0.3461  0.4648
  113MOL0     C15156   7.009   8.825   9.702  0.4104  0.0411 -0.1839
  113MOL0     C15157   7.065   8.966   9.694 -1.0090  0.0512 -0.1276
  113MOL0     C15158   7.188   8.977   9.787 -0.2314 -0.5685  0.4683
  113MOL0     C15159   7.237   9.124   9.805 -0.2981  0.0313 -0.0111
  113MOL0     C15160   7.365   9.141   9.873 -0.2062  0.2373 -0.2803
  113MOL0     C15161   7.382   9.048  10.000 -0.1233 -0.2598 -0.1318
  113MOL0     C15162   7.510   9.085  10.078 -0.7711  0.0986  1.0208
  113MOL0     C15163   7.620   8.983  10.052  0.1568 -0.3434  0.2730
  113MOL0    Cl15164   7.755   9.012  10.151  0.3562 -0.0993  0.0992
  113MOL0     C15165   6.799   8.767   9.425  0.4172 -0.3739 -0.4227
  113MOL0     C15166   6.787   8.721   9.299  0.1575  0.4083  0.3444
  113MOL0     O15167   7.067   8.542   9.057  0.0373  0.0118  0.1119
  113MOL0     C15168   6.879   8.719   8.821 -0.6389 -0.0319  0.0273
  113MOL0     C15169   6.843   8.727   8.676 -0.1772  1.0983 -0.8060
  113MOL0     N15170   7.003   9.313   8.271  0.8541  0.3569 -0.2985
  113MOL0     N15171   6.969   9.391   8.185  0.0462 -0.5403 -0.2675
  113MOL0     C15172   5.827   9.292   8.567 -0.5968  1.2204  1.2221
  113MOL0     C15173   5.700   9.239   8.588  0.8403 -0.5975  0.2949
  113MOL0     C15174   5.252   9.148   8.459  0.1218  0.3931 -1.2275
  113MOL0     C15175   5.151   9.199   8.370  0.7600  0.0224  0.0385
  113MOL0     C15176   5.027   9.132   8.355  0.4552  0.6120 -0.8591
  113MOL0     C15177   4.994   9.016   8.428 -1.1567 -0.3470  0.2149
  113MOL0     O15178   4.863   8.965   8.420 -0.1881 -0.1579  0.2141
  113MOL0     C15179   4.863   8.833   8.380  0.7018  0.6142 -0.0773
  113MOL0     C15180   4.834   8.738   8.489  1.3743  0.3614  0.1570
  113MOL0     C15181   4.679   8.737   8.519 -0.1343  0.0305 -0.8682
  113MOL0     C15182   4.592   8.690   8.408 -0.8473  1.1556 -0.8477
  113MOL0     C15183   4.650   8.569   8.341  1.0801 -0.2626  0.1669
  113MOL0     C15184   4.684   8.464   8.291 -0.1721  0.4803  0.2341
  113MOL0     C15185   5.095   8.975   8.523 -0.3482 -0.4002  0.7130
  113MOL0     C15186   5.222   9.028   8.536  0.2014  1.1582  0.2033
  113MOL0     C15187   5.319   8.964   8.627 -0.0330 -0.0378 -0.0557
  113MOL0     H15188   5.625   9.167   8.269 -1.8777 -0.1629  1.1658
  113MOL0     H15189   5.852   9.261   8.242  2.4819  1.5798  1.1145
  113MOL0     H15190   6.147   9.231   8.539 -1.5740 -0.0237  0.3411
  113MOL0     H15191   6.038   9.141   8.425  0.5201  1.1230 -3.4394
  113MOL0     H15192   6.182   9.189   8.225  2.5992 -0.9458 -1.1696
  113MOL0     H15193   6.282   9.125   8.353  0.4780  0.2060 -1.5338
  113MOL0     H15194   6.322   9.356   8.418  0.9841 -2.6647  0.1143
  113MOL0     H15195   6.243   9.409   8.268 -2.4349 -1.7437  0.9427
  113MOL0     H15196   6.482   9.221   8.273  0.9030 -0.5377 -1.9758
  113MOL0     H15197   6.414   9.276   8.134  2.8745 -1.8202 -0.4206
  113MOL0     H15198   6.456   9.521   8.192 -0.2678 -2.1291 -0.8516
  113MOL0     H15199   6.505   9.481   8.362 -0.5488  0.5859  0.3695
  113MOL0     H15200   6.693   9.552   8.214  1.9158 -0.7540  2.4749
  113MOL0     H15201   6.707   9.388   8.269  0.2499  0.1841 -1.0129
  113MOL0     H15202   6.606   9.486   8.000  0.3834  0.7895  1.0114
  113MOL0     H15203   6.602   9.308   8.054 -0.5286 -0.7199  0.9022
  113MOL0     H15204   6.786   9.329   7.917 -2.8751  2.3735 -0.8975
  113MOL0     H15205   6.847   9.486   7.983  1.0697  0.0815 -0.5986
  113MOL0     H15206   6.840   9.119   8.065  0.7530 -1.3586 -0.7874
  113MOL0     H15207   7.085   9.007   8.238  0.7178  1.6002 -1.5778
  113MOL0     H15208   7.067   9.079   8.393 -0.6221  1.0342  0.1500
  113MOL0     H15209   6.808   9.030   8.395  0.9008  0.2373  1.4659
  113MOL0     H15210   6.822   8.958   8.241 -1.1069  1.3905  0.5946
  113MOL0     H15211   6.968   8.869   8.490 -2.0545 -0.4123  0.5704
  113MOL0     H15212   7.010   8.794   8.333  3.2314  2.6543  2.3188
  113MOL0     H15213   6.773   8.713   8.302 -3.2107  0.3760  0.9993
  113MOL0     H15214   6.723   8.798   8.441 -0.5289  2.1476 -0.8486
  113MOL0     H15215   6.998   8.441   8.575 -0.6361  0.3324 -0.6703
  113MOL0     H15216   7.067   8.432   8.825 -1.6138 -0.3848  0.7820
  113MOL0     H15217   7.137   8.696   9.254 -0.2121  0.8486 -0.7994
  113MOL0     H15218   7.132   8.773   9.466  0.0225  0.1103 -0.2905
  113MOL0     H15219   6.976   8.813   9.806 -1.0941  1.1118 -0.5011
  113MOL0     H15220   7.080   8.744   9.683  1.8637  1.4182 -0.8784
  113MOL0     H15221   7.086   9.002   9.593  0.3546  2.1012  0.8332
  113MOL0     H15222   6.996   9.034   9.744  0.0162  2.1257 -1.4385
  113MOL0     H15223   7.152   8.941   9.884 -1.5617 -2.2978 -0.6146
  113MOL0     H15224   7.268   8.908   9.760 -1.0789 -1.2923 -0.2259
  113MOL0     H15225   7.164   9.188   9.854 -1.5872  0.6155 -2.5513
  113MOL0     H15226   7.243   9.173   9.708 -0.5854 -0.2070 -0.1528
  113MOL0     H15227   7.398   9.242   9.898  0.2240 -0.1293  0.6820
  113MOL0     H15228   7.450   9.106   9.813  0.9828  0.8475  0.9881
  113MOL0     H15229   7.302   9.067  10.073  0.2279 -1.6556  0.6565
  113MOL0     H15230   7.386   8.943   9.969 -1.2529 -0.6198  0.8615
  113MOL0     H15231   7.482   9.082  10.184 -2.0679 -1.2025  0.6784
  113MOL0     H15232   7.557   9.182  10.058  0.6896 -1.1345 -2.0788
  113MOL0     H15233   7.577   8.883  10.063  0.5067 -0.6669 -1.0728
  113MOL0     H15234   7.654   8.983   9.948  5.2468 -1.7795  1.6374
  113MOL0     H15235   6.708   8.788   9.479  1.0688  0.8964  0.2313
  113MOL0     H15236   6.692   8.717   9.247 -0.4961 -1.3301  1.5879
  113MOL0     H15237   6.865   8.798   8.894 -4.5601 -2.3601  2.1099
  113MOL0     H15238   6.799   8.821   8.646  0.6834  2.5047  1.9380
  113MOL0     H15239   5.873   9.332   8.657  1.8658 -0.9817  1.0585
  113MOL0     H15240   5.662   9.254   8.689 -1.8144  2.9182 -1.0613
  113MOL0     H15241   5.146   9.294   8.316 -2.7516 -1.7390 -3.2073
  113MOL0     H15242   4.958   9.155   8.274 -1.6091 -0.5789  0.4487
  113MOL0     H15243   4.963   8.799   8.351  0.7524 -1.4528  2.1918
  113MOL0     H15244   4.801   8.818   8.292  1.1535  1.7869 -0.6192
  113MOL0     H15245   4.876   8.768   8.586 -0.9058 -4.7911  3.1381
  113MOL0     H15246   4.883   8.646   8.458  0.3128 -0.0764 -0.2667
  113MOL0     H15247   4.657   8.838   8.555  0.6488 -0.0357 -0.1514
  113MOL0     H15248   4.671   8.675   8.608  1.2201  1.8495  0.6231
  113MOL0     H15249   4.492   8.669   8.448 -1.2400  3.5623 -0.4289
  113MOL0     H15250   4.576   8.766   8.331  0.9845  1.2678 -1.1756
  113MOL0     H15251   4.720   8.372   8.252 -1.2146 -0.3440  1.1350
  113MOL0     H15252   5.083   8.883   8.580  1.8471  0.5913  2.9547
  113MOL0     H15253   5.362   9.032   8.701  1.6152 -0.5590 -0.4955
  113MOL0     H15254   5.266   8.883   8.678 -0.4689 -0.8509 -1.7389
  113MOL0     H15255   5.397   8.923   8.562  2.9150  0.3679  2.9471
  114MOL0     O15256   7.788   9.084   1.399 -0.6280 -0.8218  0.2349
  114MOL0     C15257   7.765   9.144   1.290  0.5620  0.2314  0.1735
  114MOL0     O15258   7.636   9.152   1.236  0.4970 -0.2539 -0.3843
  114MOL0     C15259   7.511   9.119   1.304  0.3056 -0.2954 -0.1449
  114MOL0     C15260   7.486   9.132   1.442 -0.0112 -0.4279  0.7960
  114MOL0     C15261   7.361   9.085   1.487  0.1527 -1.1631 -0.3443
  114MOL0     C15262   7.260   9.050   1.405 -0.1465  0.5219  0.8156
  114MOL0     O15263   7.133   9.030   1.447 -0.0516 -0.1789  0.0668
  114MOL0     C15264   7.106   9.026   1.596 -0.2490  0.7116  1.0652
  114MOL0     C15265   6.948   9.012   1.608  0.0899 -0.7742 -0.3195
  114MOL0     C15266   6.864   9.104   1.509  0.2790 -0.1148  0.2084
  114MOL0     C15267   6.717   9.088   1.552  0.3548 -0.1901  1.2921
  114MOL0     C15268   6.621   9.181   1.470  0.9000  0.0724 -0.2607
  114MOL0     C15269   6.641   9.324   1.541 -0.0521  0.4135 -0.3029
  114MOL0     C15270   6.552   9.428   1.474  0.2763 -0.2479  0.1771
  114MOL0     C15271   6.607   9.570   1.481 -0.5032  0.4981  0.0112
  114MOL0     N15272   6.592   9.637   1.606 -0.4403 -0.1608  0.3330
  114MOL0     C15273   6.479   9.675   1.674 -0.1213 -0.5040  0.1991
  114MOL0     C15274   6.510   9.734   1.798 -1.3795  0.1594  0.5662
  114MOL0     C15275   6.429   9.798   1.910 -0.7285  0.0745 -0.5042
  114MOL0     C15276   6.308   9.882   1.853  0.2599 -0.1306 -0.5000
  114MOL0     C15277   6.190   9.888   1.960  0.0639 -0.4806  0.0510
  114MOL0     C15278   6.221   9.962   2.090 -0.2742  0.0279 -0.3690
  114MOL0     O15279   6.259   9.871   2.194  0.1122  0.4980  0.2455
  114MOL0     C15280   6.274   9.903   2.328 -0.0522  1.5994 -0.5538
  114MOL0     C15281   6.251  10.026   2.382 -0.3394 -0.5053  0.4968
  114MOL0     C15282   6.275  10.051   2.514  0.4220 -0.1645 -0.4443
  114MOL0     C15283   6.324   9.963   2.612  0.7953  0.3837  0.4264
  114MOL0     C15284   6.374   9.984   2.751  0.4040 -0.1873 -0.0791
  114MOL0     O15285   6.459   9.897   2.815 -0.3736 -0.1696  0.2826
  114MOL0     C15286   6.493   9.913   2.949 -0.2992  0.2671  0.5356
  114MOL0     C15287   6.632   9.907   2.979  1.0059  0.8009  0.1080
  114MOL0     C15288   6.682   9.929   3.109  0.0199  0.5085 -0.2098
  114MOL0     C15289   6.592   9.952   3.213 -0.7336  0.0614 -0.6730
  114MOL0     O15290   6.651   9.976   3.331 -0.4743  0.8185 -0.3296
  114MOL0     C15291   6.564  10.000   3.442 -0.1801 -0.3337 -0.1503
  114MOL0     C15292   6.653  10.042   3.558  0.4403  0.3745  1.1862
  114MOL0     C15293   6.714   9.914   3.619 -0.4214 -0.2199 -0.5824
  114MOL0     C15294   6.785   9.966   3.743 -0.0361  0.9149  0.7388
  114MOL0     C15295   6.884   9.860   3.791 -0.1029  0.6191  0.0983
  114MOL0     C15296   6.927   9.886   3.933 -0.0597 -0.5976  0.8248
  114MOL0     C15297   6.836   9.821   4.033  0.7003 -0.3426 -0.3703
  114MOL0     C15298   6.868   9.882   4.169 -0.0500  0.3173 -0.0391
  114MOL0    Cl15299   6.745   9.822   4.299 -0.1776 -0.0472  0.0961
  114MOL0     C15300   6.446   9.967   3.183 -1.3577  0.1367  0.6606
  114MOL0     C15301   6.409   9.956   3.051 -0.2879 -0.6111 -0.2067
  114MOL0     O15302   6.334  10.092   2.803 -0.1030 -0.1615 -0.9691
  114MOL0     C15303   6.341   9.831   2.560  0.0590 -0.5008  0.6000
  114MOL0     C15304   6.307   9.802   2.426  0.1054 -0.2934 -0.1561
  114MOL0     N15305   6.655   9.731   1.798  0.5026 -0.1990 -0.7831
  114MOL0     N15306   6.695   9.675   1.685 -0.7611 -0.9491  0.6159
  114MOL0     C15307   7.283   9.032   1.268  1.1007 -0.4521 -0.0210
  114MOL0     C15308   7.408   9.074   1.213  0.6183  0.3512  0.0775
  114MOL0     C15309   7.879   9.196   1.215  0.5091 -0.1416  0.0849
  114MOL0     C15310   7.871   9.191   1.071  0.3157  1.3257  0.5370
  114MOL0     C15311   7.989   9.218   0.996 -0.6159 -0.4686  0.5735
  114MOL0     C15312   8.109   9.263   1.056  0.1533  0.2587 -1.6510
  114MOL0     O15313   8.211   9.267   0.966  0.2541 -0.1562  0.9026
  114MOL0     C15314   8.333   9.330   0.980 -0.2148 -0.4229 -0.5075
  114MOL0     C15315   8.321   9.482   0.946 -0.8498 -0.0092 -0.7849
  114MOL0     C15316   8.459   9.545   0.967 -0.5900 -0.3010  0.3447
  114MOL0     C15317   8.550   9.532   0.836  0.1775  0.6361  0.2752
  114MOL0     C15318   8.679   9.599   0.836 -0.4021  0.1446 -0.3721
  114MOL0     C15319   8.792   9.653   0.848  0.0035  0.3822 -0.1217
  114MOL0     C15320   8.110   9.270   1.196 -0.4382 -0.8716 -0.0902
  114MOL0     C15321   8.000   9.241   1.280 -0.7680  0.2143  0.2249
  114MOL0     C15322   8.027   9.255   1.423 -0.1610 -0.3184  0.3676
  114MOL0     H15323   7.569   9.155   1.508  2.0716 -4.9602  0.1869
  114MOL0     H15324   7.342   9.088   1.594  0.5449  0.4913 -0.3084
  114MOL0     H15325   7.155   8.939   1.641 -1.8605 -1.0538 -0.3593
  114MOL0     H15326   7.131   9.125   1.634 -5.6097  3.0512 -0.5684
  114MOL0     H15327   6.927   9.035   1.712 -0.3210  0.4926 -0.6721
  114MOL0     H15328   6.919   8.908   1.591 -1.6345 -0.1912 -1.1417
  114MOL0     H15329   6.875   9.068   1.407 -0.6079  0.3347 -0.0521
  114MOL0     H15330   6.890   9.210   1.509 -0.0384 -0.0351 -0.0205
  114MOL0     H15331   6.691   8.991   1.508  2.1538  1.2538 -3.6990
  114MOL0     H15332   6.698   9.088   1.660 -0.0391 -3.2984  1.3329
  114MOL0     H15333   6.632   9.189   1.361 -0.3219  1.5240 -0.3064
  114MOL0     H15334   6.517   9.150   1.483  0.9728 -1.6334 -2.8237
  114MOL0     H15335   6.604   9.320   1.644  2.1031 -1.4320  0.4925
  114MOL0     H15336   6.749   9.344   1.540 -0.1120  1.3197  2.5639
  114MOL0     H15337   6.457   9.435   1.528  0.0270  2.6755 -0.4682
  114MOL0     H15338   6.532   9.398   1.371  0.2844 -1.0749  0.4113
  114MOL0     H15339   6.711   9.570   1.447  0.0307 -0.6425  1.5236
  114MOL0     H15340   6.552   9.627   1.405  0.0632  0.5645 -0.3597
  114MOL0     H15341   6.383   9.657   1.627 -1.1509  1.1729  1.5128
  114MOL0     H15342   6.398   9.714   1.973  2.1403  0.0352  1.0596
  114MOL0     H15343   6.502   9.857   1.967  0.4821  0.0294 -1.9486
  114MOL0     H15344   6.340   9.979   1.815 -0.1536 -0.1956 -1.0305
  114MOL0     H15345   6.270   9.825   1.768  1.7246  2.1755 -2.8325
  114MOL0     H15346   6.147   9.791   1.985  2.3211 -1.4440  0.3740
  114MOL0     H15347   6.114   9.948   1.907 -1.5573 -0.7294  1.9779
  114MOL0     H15348   6.124  10.006   2.116  0.1393 -0.3456  2.1073
  114MOL0     H15349   6.291  10.046   2.087 -1.3295  1.0911  1.8038
  114MOL0     H15350   6.208  10.108   2.325 -0.3788 -2.0627 -1.8852
  114MOL0     H15351   6.262  10.152   2.553  2.8585 -0.3424  1.0531
  114MOL0     H15352   6.688   9.896   2.887  0.9681  0.7880  0.0865
  114MOL0     H15353   6.789   9.942   3.120  0.0238  2.3360 -1.8289
  114MOL0     H15354   6.493  10.080   3.420 -0.9547 -0.7210  0.8689
  114MOL0     H15355   6.506   9.914   3.476 -1.2226  0.8894  1.2928
  114MOL0     H15356   6.736  10.109   3.532  2.5889 -1.0959  3.7970
  114MOL0     H15357   6.589  10.094   3.631  1.2427  2.6911  0.3507
  114MOL0     H15358   6.638   9.841   3.648 -0.9861  0.7709  0.4923
  114MOL0     H15359   6.780   9.862   3.548 -0.6690 -1.7758  0.2746
  114MOL0     H15360   6.715   9.983   3.826 -0.3392  0.2972  0.6170
  114MOL0     H15361   6.846  10.055   3.727  0.5812  0.9412  2.8938
  114MOL0     H15362   6.967   9.848   3.722  1.7977 -0.2379  2.3891
  114MOL0     H15363   6.836   9.762   3.797 -0.0601  0.6830  2.1371
  114MOL0     H15364   7.030   9.861   3.959 -0.2275  0.2547  2.4108
  114MOL0     H15365   6.923   9.995   3.944 -1.7162 -0.7228  1.8804
  114MOL0     H15366   6.856   9.714   4.039  0.6273 -0.3150  0.6481
  114MOL0     H15367   6.732   9.843   4.006  0.9311 -1.9199 -2.8337
  114MOL0     H15368   6.969   9.852   4.196 -0.4063 -0.6353  0.2974
  114MOL0     H15369   6.854   9.990   4.164  2.0680  0.7316  1.8722
  114MOL0     H15370   6.379   9.984   3.266  0.9804  0.0708  2.6733
  114MOL0     H15371   6.305   9.979   3.031 -0.6592  1.5540  3.3984
  114MOL0     H15372   6.391   9.754   2.618  2.6429  1.7274  1.4764
  114MOL0     H15373   6.334   9.698   2.407  0.8395 -0.3099  0.8966
  114MOL0     H15374   7.204   8.993   1.205  0.5055  0.8031 -0.0845
  114MOL0     H15375   7.429   9.079   1.107  0.6679  2.0610  0.1469
  114MOL0     H15376   7.775   9.156   1.035  0.4382  0.7139  0.7783
  114MOL0     H15377   7.998   9.204   0.889  2.0495  2.2233  0.3029
  114MOL0     H15378   8.398   9.279   0.909  0.2671 -0.2026 -0.2237
  114MOL0     H15379   8.377   9.324   1.079  1.9614  0.7025 -1.3492
  114MOL0     H15380   8.254   9.526   1.020 -1.4601 -2.5263  0.2533
  114MOL0     H15381   8.286   9.508   0.846 -2.1656  1.9422  0.1308
  114MOL0     H15382   8.506   9.516   1.061  1.6021 -0.2493 -0.6510
  114MOL0     H15383   8.445   9.654   0.972  0.7566 -0.0095 -1.0081
  114MOL0     H15384   8.575   9.428   0.812 -0.7672  0.2067  1.0658
  114MOL0     H15385   8.495   9.577   0.752  0.4270  2.0191  0.8320
  114MOL0     H15386   8.890   9.693   0.862  0.6745  0.3473 -3.7077
  114MOL0     H15387   8.202   9.296   1.246 -0.6929  1.8267 -0.8876
  114MOL0     H15388   8.095   9.340   1.433  0.6323 -0.9499  0.4532
  114MOL0     H15389   7.933   9.285   1.470 -0.4877 -0.2494 -0.3188
  114MOL0     H15390   8.063   9.161   1.467 -0.3996  0.1977  1.7046
  115MOL0     O15391   2.594   1.889   8.282 -0.3835  0.4222 -0.1332
  115MOL0     C15392   2.523   1.881   8.180  0.0376  1.4515  0.4991
  115MOL0     O15393   2.560   1.911   8.057 -0.0298 -0.4840 -0.2179
  115MOL0     C15394   2.685   1.953   8.019 -0.0458  0.1523 -0.5445
  115MOL0     C15395   2.783   1.999   8.107 -0.1882 -0.4641  0.6157
  115MOL0     C15396   2.910   2.039   8.053  0.8685 -0.3639 -0.1090
  115MOL0     C15397   2.937   2.026   7.919 -0.5323  0.0673 -0.0986
  115MOL0     O15398   3.059   2.045   7.847 -0.0880 -0.1717 -1.0846
  115MOL0     C15399   3.161   1.955   7.881 -0.5001 -0.1451  1.0776
  115MOL0     C15400   3.293   2.025   7.867  0.2267 -0.8646 -0.1886
  115MOL0     C15401   3.405   1.924   7.867 -0.8128 -0.0774  0.4640
  115MOL0     C15402   3.543   1.984   7.883 -0.2024 -0.2028  0.0345
  115MOL0     C15403   3.659   1.886   7.863 -0.2260  0.2160 -0.1933
  115MOL0     C15404   3.788   1.968   7.863 -0.1538 -0.6620 -0.0775
  115MOL0     C15405   3.930   1.895   7.865 -0.2172 -0.7006  0.3601
  115MOL0     C15406   3.974   1.839   7.999 -0.6261  0.0273 -0.8114
  115MOL0     N15407   3.895   1.735   8.067  0.5862 -0.3756 -0.0107
  115MOL0     C15408   3.828   1.754   8.190 -0.1746  0.7243  0.1696
  115MOL0     C15409   3.791   1.625   8.223  0.5098 -0.6841 -1.3303
  115MOL0     C15410   3.718   1.598   8.353 -0.3876 -0.3059 -0.2773
  115MOL0     C15411   3.807   1.508   8.440 -0.4703  0.8678  0.3684
  115MOL0     C15412   3.720   1.476   8.566  0.7627 -0.0116 -1.0302
  115MOL0     C15413   3.808   1.409   8.675 -0.7169 -0.3461  0.3332
  115MOL0     O15414   3.750   1.415   8.802 -0.1067  0.1048  0.2673
  115MOL0     C15415   3.628   1.354   8.834  0.1826 -0.4527 -0.6628
  115MOL0     C15416   3.578   1.392   8.952  0.8678  0.6637 -0.0374
  115MOL0     C15417   3.461   1.331   8.999 -0.7563  0.1151 -0.3221
  115MOL0     C15418   3.403   1.219   8.936 -0.4472 -0.0139 -0.0463
  115MOL0     C15419   3.291   1.144   8.997 -0.4727  0.0482  0.3044
  115MOL0     O15420   3.232   1.033   8.932  0.4861 -0.2107 -0.3563
  115MOL0     C15421   3.108   0.981   8.978  0.4756  0.5324 -0.0537
  115MOL0     C15422   3.003   1.052   9.040  0.2739 -0.1911 -0.6910
  115MOL0     C15423   2.880   0.993   9.064  0.1904 -0.6835 -0.1404
  115MOL0     C15424   2.861   0.861   9.025  0.4805  0.4902 -0.2022
  115MOL0     O15425   2.745   0.790   9.048  0.2417 -0.0193 -0.2370
  115MOL0     C15426   2.627   0.863   9.089  1.0751 -0.1600 -0.4736
  115MOL0     C15427   2.575   0.944   8.973  0.3455 -0.8445  0.8202
  115MOL0     C15428   2.430   0.979   9.004  0.5173  0.6699 -0.4281
  115MOL0     C15429   2.358   1.029   8.872 -0.5173  0.2199 -0.5009
  115MOL0     C15430   2.235   1.104   8.918 -0.3698 -0.5974  0.2362
  115MOL0     C15431   2.147   1.032   9.011 -1.0745 -0.1452  0.3007
  115MOL0     C15432   1.999   1.040   8.995  0.1909 -0.5790 -0.4723
  115MOL0     C15433   1.943   1.182   8.986  0.3121  0.1303 -0.9749
  115MOL0    Cl15434   1.958   1.254   9.140  0.0052 -0.0243  0.0467
  115MOL0     C15435   2.965   0.788   8.954 -0.2882  0.0393 -0.6336
  115MOL0     C15436   3.087   0.855   8.936 -0.0160  0.1334  0.4477
  115MOL0     O15437   3.253   1.189   9.110 -0.3624 -0.0101 -0.0483
  115MOL0     C15438   3.444   1.189   8.806 -0.0059 -1.1175  0.4704
  115MOL0     C15439   3.555   1.262   8.761 -0.7381 -0.3092  0.1021
  115MOL0     N15440   3.826   1.538   8.126  0.5998 -0.1541  0.2840
  115MOL0     N15441   3.877   1.605   8.030 -0.4130 -1.2911 -0.4080
  115MOL0     C15442   2.841   1.988   7.833  0.8500  0.0925 -0.6141
  115MOL0     C15443   2.710   1.947   7.881 -0.6254 -1.0196 -0.3962
  115MOL0     C15444   2.382   1.829   8.192 -0.3640  0.5197  0.1667
  115MOL0     C15445   2.346   1.759   8.310 -0.3255 -0.5420  0.0512
  115MOL0     C15446   2.221   1.701   8.323  0.1302  0.1480  0.2495
  115MOL0     C15447   2.125   1.725   8.228 -0.6586  0.3096 -0.7615
  115MOL0     O15448   1.993   1.707   8.241  0.4419 -0.2795  0.1934
  115MOL0     C15449   1.935   1.650   8.364 -0.0553  0.6614 -0.7834
  115MOL0     C15450   1.783   1.643   8.332 -0.6239 -0.2057  0.6795
  115MOL0     C15451   1.691   1.572   8.441 -0.7128  0.8740  0.4077
  115MOL0     C15452   1.551   1.583   8.395 -0.5182  0.1539  0.4481
  115MOL0     C15453   1.492   1.718   8.409 -0.6237 -1.1874  0.2887
  115MOL0     C15454   1.436   1.825   8.425  0.3164 -0.4463  0.0053
  115MOL0     C15455   2.166   1.784   8.116  0.2415  0.0365 -0.3411
  115MOL0     C15456   2.289   1.837   8.089  0.8515 -0.6092 -0.8721
  115MOL0     C15457   2.303   1.907   7.955 -0.1819 -0.0236 -0.1752
  115MOL0     H15458   2.781   2.005   8.215  0.0509 -3.4641  0.8553
  115MOL0     H15459   2.986   2.065   8.125  0.1193 -2.9777  1.8100
  115MOL0     H15460   3.150   1.909   7.980  1.1844 -5.9497 -1.0133
  115MOL0     H15461   3.171   1.874   7.808  2.5928  3.0214 -2.4839
  115MOL0     H15462   3.298   2.089   7.955  0.9626  1.0112 -1.5211
  115MOL0     H15463   3.297   2.092   7.780  0.9151 -1.4755 -0.6384
  115MOL0     H15464   3.401   1.874   7.770 -3.3161 -1.4642  1.2178
  115MOL0     H15465   3.390   1.841   7.935 -3.5700 -0.9078 -1.0149
  115MOL0     H15466   3.552   2.073   7.820 -0.5740  0.4259  0.8549
  115MOL0     H15467   3.548   2.035   7.980 -1.9713  2.3958 -1.1463
  115MOL0     H15468   3.647   1.810   7.940 -2.3964  0.5441 -0.1320
  115MOL0     H15469   3.652   1.835   7.766 -1.5913  0.3630 -0.2016
  115MOL0     H15470   3.784   2.025   7.770 -2.2144 -0.6433 -0.0254
  115MOL0     H15471   3.793   2.053   7.932  0.5516  1.5171 -2.6282
  115MOL0     H15472   4.008   1.966   7.838 -1.0109  0.6536  1.4789
  115MOL0     H15473   3.925   1.815   7.790 -1.7507 -1.3684  1.1216
  115MOL0     H15474   4.071   1.792   7.984  0.2306  0.2180  3.0252
  115MOL0     H15475   3.996   1.922   8.067 -4.4600 -1.8770  3.3512
  115MOL0     H15476   3.820   1.843   8.252  0.9679 -0.2463  1.7923
  115MOL0     H15477   3.691   1.692   8.401 -0.6707  0.3271 -1.6154
  115MOL0     H15478   3.622   1.550   8.331 -0.5742  0.0853 -0.3174
  115MOL0     H15479   3.836   1.416   8.387  2.4983  0.4220  2.4850
  115MOL0     H15480   3.892   1.573   8.463  1.0441 -1.1850  0.9450
  115MOL0     H15481   3.631   1.419   8.539 -1.6828  3.0158 -0.0189
  115MOL0     H15482   3.690   1.575   8.603 -0.4538  0.3952 -2.9975
  115MOL0     H15483   3.899   1.469   8.678 -0.4087 -0.4207 -3.0737
  115MOL0     H15484   3.843   1.307   8.654 -0.5033 -1.1485  3.9628
  115MOL0     H15485   3.636   1.467   9.004  1.8039  1.7459 -2.4855
  115MOL0     H15486   3.430   1.355   9.101  2.0007  0.6710  0.4665
  115MOL0     H15487   3.016   1.158   9.058  0.9896 -0.2886 -0.5869
  115MOL0     H15488   2.804   1.055   9.110 -0.4011  1.0670 -3.2127
  115MOL0     H15489   2.551   0.787   9.114  2.5047 -1.4545  0.1024
  115MOL0     H15490   2.636   0.923   9.179 -2.7833 -0.5378  0.3324
  115MOL0     H15491   2.633   1.035   8.957 -2.2615  0.9064  0.6829
  115MOL0     H15492   2.569   0.878   8.885 -1.0673 -0.0601  0.2975
  115MOL0     H15493   2.376   0.894   9.047 -0.3258  1.6322  0.4516
  115MOL0     H15494   2.430   1.056   9.082 -0.1237  0.7247 -0.4778
  115MOL0     H15495   2.314   0.951   8.809 -2.1806  0.9134 -0.2572
  115MOL0     H15496   2.417   1.093   8.806  0.4212 -3.2105 -3.2856
  115MOL0     H15497   2.183   1.136   8.827 -0.2679 -1.1482 -0.0208
  115MOL0     H15498   2.274   1.187   8.977  2.5437 -0.8179 -1.1768
  115MOL0     H15499   2.167   0.928   8.984  0.1637  0.2752 -0.4985
  115MOL0     H15500   2.185   1.054   9.111  1.8179 -1.4514 -0.3990
  115MOL0     H15501   1.947   1.004   9.085  1.3111  0.6714  0.7259
  115MOL0     H15502   1.965   0.969   8.920  0.4460 -2.1815  0.8685
  115MOL0     H15503   2.000   1.244   8.916  4.5561 -1.8730  0.3814
  115MOL0     H15504   1.836   1.186   8.964  0.2933 -0.1605 -0.9341
  115MOL0     H15505   2.943   0.687   8.921 -1.9869 -0.6782  2.2455
  115MOL0     H15506   3.172   0.805   8.891  0.5369  3.6763 -3.0327
  115MOL0     H15507   3.390   1.118   8.744 -1.0008 -1.0045  1.1832
  115MOL0     H15508   3.591   1.234   8.663 -0.1163  0.6986  0.0249
  115MOL0     H15509   2.855   1.990   7.725  0.7312 -1.3592 -0.6839
  115MOL0     H15510   2.635   1.907   7.815 -1.0817 -0.2518 -0.3584
  115MOL0     H15511   2.423   1.741   8.385  0.4872  1.3476 -0.2863
  115MOL0     H15512   2.212   1.649   8.418 -0.2392  2.3595  1.5015
  115MOL0     H15513   1.945   1.714   8.453 -1.9406 -1.0723  0.7608
  115MOL0     H15514   1.975   1.552   8.391 -2.1209 -0.2405 -0.8510
  115MOL0     H15515   1.778   1.590   8.237  0.1846  1.5002 -0.3687
  115MOL0     H15516   1.751   1.746   8.313 -0.8586 -0.2400  0.8854
  115MOL0     H15517   1.703   1.623   8.537  0.2791 -3.7414  3.0782
  115MOL0     H15518   1.723   1.468   8.451  0.3690  1.3890  2.8823
  115MOL0     H15519   1.540   1.551   8.291  0.4370  1.7493 -0.1863
  115MOL0     H15520   1.483   1.523   8.456 -0.8960 -1.1373 -1.1713
  115MOL0     H15521   1.363   1.902   8.434 -1.5420 -2.1785  0.5230
  115MOL0     H15522   2.095   1.795   8.035  1.7908  1.7690 -1.5411
  115MOL0     H15523   2.364   1.998   7.953  0.4189 -0.3880  1.0754
  115MOL0     H15524   2.357   1.839   7.888 -2.8768 -1.3100 -1.2119
  115MOL0     H15525   2.205   1.924   7.909 -1.1984 -0.2179  1.8075
  116MOL0     O15526   8.593  10.718   8.126 -0.0927 -0.2882  0.4610
  116MOL0     C15527   8.691  10.664   8.076  0.1768 -0.2488  0.1822
  116MOL0     O15528   8.697  10.578   7.970 -0.2656  0.5812  0.3456
  116MOL0     C15529   8.583  10.536   7.906 -0.7416  0.7491 -0.4440
  116MOL0     C15530   8.457  10.533   7.968  0.4477 -0.1454  0.5939
  116MOL0     C15531   8.345  10.508   7.880  0.7749  0.1614 -1.3006
  116MOL0     C15532   8.359  10.501   7.739 -0.2791 -0.0087 -0.4400
  116MOL0     O15533   8.242  10.497   7.669 -0.0608  0.1668 -0.2595
  116MOL0     C15534   8.237  10.562   7.544 -0.3697  0.4015  0.2807
  116MOL0     C15535   8.162  10.473   7.444 -0.9914  0.1493  1.5387
  116MOL0     C15536   8.142  10.537   7.307 -0.0787  0.4996  0.4264
  116MOL0     C15537   8.020  10.480   7.237 -0.3258 -0.3750  0.3240
  116MOL0     C15538   7.978  10.572   7.120  0.3691  0.3420 -0.5333
  116MOL0     C15539   7.840  10.528   7.069 -0.3705  0.0937 -0.0504
  116MOL0     C15540   7.784  10.643   6.983  0.3042  1.0463  0.3319
  116MOL0     C15541   7.841  10.639   6.841  0.2142 -0.6904  0.2537
  116MOL0     N15542   7.749  10.703   6.743  0.6563  1.2934 -0.9364
  116MOL0     C15543   7.703  10.835   6.739  0.0276  0.3976 -0.2368
  116MOL0     C15544   7.616  10.847   6.635 -0.0056 -0.3890 -0.3309
  116MOL0     C15545   7.552  10.970   6.580  0.0272  1.0201  0.4287
  116MOL0     C15546   7.410  10.949   6.527 -0.0389  0.7270  0.5761
  116MOL0     C15547   7.356  11.083   6.466  0.1071 -0.6554 -0.0827
  116MOL0     C15548   7.383  11.107   6.332  0.6668  0.4861 -0.2680
  116MOL0     O15549   7.434  11.242   6.293  0.5375  0.1244 -0.6909
  116MOL0     C15550   7.561  11.266   6.323  0.6733  0.3712 -0.0928
  116MOL0     C15551   7.608  11.319   6.441 -1.0337  0.2658 -0.0962
  116MOL0     C15552   7.739  11.358   6.456  0.4030  0.4960  0.4043
  116MOL0     C15553   7.837  11.325   6.358 -0.3759 -0.6501 -0.0297
  116MOL0     C15554   7.968  11.372   6.364  0.5484  0.5617 -0.9205
  116MOL0     O15555   8.057  11.324   6.268 -0.3912  0.1082  0.2839
  116MOL0     C15556   8.188  11.359   6.273  0.1752 -0.5051 -0.4280
  116MOL0     C15557   8.285  11.263   6.239  0.8322 -0.4143  0.3816
  116MOL0     C15558   8.417  11.279   6.249 -0.2260  0.0844 -0.2399
  116MOL0     C15559   8.471  11.405   6.288 -0.5698  0.1619  0.3866
  116MOL0     O15560   8.607  11.422   6.303 -0.3714  0.2578 -0.1765
  116MOL0     C15561   8.697  11.343   6.221 -0.4041 -0.2942 -0.1961
  116MOL0     C15562   8.840  11.388   6.269 -0.0528 -0.6301 -1.1830
  116MOL0     C15563   8.847  11.538   6.246  0.6316  0.7087 -0.3372
  116MOL0     C15564   8.991  11.576   6.227  0.3316  0.5252 -0.2320
  116MOL0     C15565   9.048  11.568   6.085 -0.0827  0.1406  0.9003
  116MOL0     C15566   9.197  11.610   6.081  1.3695  0.8523 -0.0558
  116MOL0     C15567   9.207  11.766   6.085 -0.5830 -0.6459 -0.2986
  116MOL0     C15568   9.352  11.795   6.093 -0.6771 -0.5296  0.0755
  116MOL0    Cl15569   9.447  11.753   5.947 -0.0228 -0.2521 -0.5727
  116MOL0     C15570   8.383  11.505   6.325  0.2965  0.5969  0.8942
  116MOL0     C15571   8.239  11.484   6.318  0.1017 -0.7267 -0.5293
  116MOL0     O15572   7.998  11.423   6.473 -0.2782  0.4522  0.1810
  116MOL0     C15573   7.791  11.261   6.237 -0.1099 -0.1166 -0.2773
  116MOL0     C15574   7.654  11.243   6.229 -1.2454  0.5631  0.8059
  116MOL0     N15575   7.613  10.730   6.576  0.6470 -0.1822 -0.4017
  116MOL0     N15576   7.686  10.639   6.637  0.1616 -0.1244 -0.1062
  116MOL0     C15577   8.497  10.508   7.684  0.5954  0.2604  0.0917
  116MOL0     C15578   8.603  10.532   7.771  0.2976  1.0513  0.8487
  116MOL0     C15579   8.825  10.691   8.142 -0.0131 -0.2217 -0.0459
  116MOL0     C15580   8.878  10.596   8.230 -0.2597  0.3165 -0.1586
  116MOL0     C15581   8.991  10.615   8.299 -0.6283  0.2336 -1.1739
  116MOL0     C15582   9.075  10.730   8.280 -0.1899  0.9053 -0.5448
  116MOL0     O15583   9.205  10.755   8.318 -0.3708 -0.2430  0.5080
  116MOL0     C15584   9.269  10.659   8.410  0.7634  0.1227  0.4691
  116MOL0     C15585   9.410  10.656   8.363 -0.4112 -0.6899 -0.0440
  116MOL0     C15586   9.437  10.581   8.231 -0.0570 -0.0950  0.6894
  116MOL0     C15587   9.582  10.589   8.188  0.1739  0.1248  0.6602
  116MOL0     C15588   9.616  10.715   8.124 -0.6237 -0.0256 -0.7231
  116MOL0     C15589   9.646  10.829   8.083 -0.3269 -0.2859 -0.3067
  116MOL0     C15590   9.014  10.830   8.194 -0.7890  0.7712  0.2099
  116MOL0     C15591   8.893  10.813   8.127  0.7485 -0.1354 -0.4024
  116MOL0     C15592   8.845  10.929   8.029 -0.5804  0.2145 -0.3172
  116MOL0     H15593   8.437  10.544   8.074 -0.4427  1.3975  0.2844
  116MOL0     H15594   8.241  10.494   7.910  0.5615  1.8286 -1.1142
  116MOL0     H15595   8.178  10.654   7.549 -1.0736  0.0099 -0.5125
  116MOL0     H15596   8.335  10.600   7.511  1.1575  1.8893  5.5781
  116MOL0     H15597   8.066  10.436   7.479 -0.5712  1.5126  4.3496
  116MOL0     H15598   8.217  10.380   7.424 -1.6077  0.2927 -1.2597
  116MOL0     H15599   8.234  10.511   7.253  1.3665  3.7452  1.1480
  116MOL0     H15600   8.124  10.644   7.310 -0.6631  0.3984  0.6549
  116MOL0     H15601   8.038  10.377   7.208  0.7919  0.3857 -1.9224
  116MOL0     H15602   7.935  10.485   7.305 -1.1313 -0.3259 -0.6561
  116MOL0     H15603   7.962  10.670   7.166  0.3966  0.0919  0.0186
  116MOL0     H15604   8.055  10.564   7.044  1.2426  0.7147  0.2928
  116MOL0     H15605   7.857  10.440   7.006 -0.5548  0.5578 -0.7723
  116MOL0     H15606   7.775  10.498   7.151  0.6160 -0.2626  0.6204
  116MOL0     H15607   7.795  10.737   7.038  0.8905  0.8380  0.5741
  116MOL0     H15608   7.675  10.638   6.975  0.4310 -1.6860 -0.9725
  116MOL0     H15609   7.934  10.697   6.841 -0.9519  1.2430  0.5485
  116MOL0     H15610   7.858  10.533   6.818  0.9203 -0.3053 -1.1695
  116MOL0     H15611   7.720  10.909   6.816 -0.3763 -1.4794  1.7558
  116MOL0     H15612   7.553  11.043   6.661  1.8994  2.2995 -0.6773
  116MOL0     H15613   7.617  11.005   6.500  3.6955  1.6301  3.3646
  116MOL0     H15614   7.397  10.863   6.461  0.6405  0.6963  0.4752
  116MOL0     H15615   7.346  10.932   6.614 -3.0201 -1.7477 -1.8950
  116MOL0     H15616   7.386  11.161   6.536 -1.4773  0.1073 -0.2020
  116MOL0     H15617   7.246  11.082   6.463  0.0864 -2.6866 -0.5053
  116MOL0     H15618   7.299  11.065   6.277 -1.1662 -0.8036  3.2135
  116MOL0     H15619   7.471  11.045   6.313 -0.3963 -2.1018  2.5194
  116MOL0     H15620   7.540  11.358   6.515 -0.8878  0.4121 -0.0385
  116MOL0     H15621   7.767  11.412   6.546  0.5994  0.2422  0.4964
  116MOL0     H15622   8.246  11.168   6.203  0.6956  0.1384 -0.9535
  116MOL0     H15623   8.483  11.197   6.222  0.2860  0.4630 -0.1557
  116MOL0     H15624   8.685  11.239   6.253 -0.3324  0.6983  3.4800
  116MOL0     H15625   8.689  11.371   6.115 -3.0759  3.4636  0.7875
  116MOL0     H15626   8.862  11.364   6.374 -0.3258 -2.2094 -1.4715
  116MOL0     H15627   8.916  11.332   6.214  0.3447 -1.7940  0.4641
  116MOL0     H15628   8.791  11.578   6.161 -0.9249  1.2923  0.8934
  116MOL0     H15629   8.816  11.587   6.339 -1.4487  2.2276 -1.7478
  116MOL0     H15630   9.061  11.527   6.294 -0.1946  0.1197  0.0306
  116MOL0     H15631   8.991  11.681   6.257  2.0364 -0.4084  3.6779
  116MOL0     H15632   8.992  11.635   6.019  2.4314  1.6542  0.1723
  116MOL0     H15633   9.030  11.465   6.051  1.8573 -1.0069  3.0959
  116MOL0     H15634   9.259  11.582   6.168  0.0318  2.8673  1.6393
  116MOL0     H15635   9.238  11.566   5.990  0.3648 -3.0137  1.1764
  116MOL0     H15636   9.153  11.799   6.174  0.8183  0.5849  0.1397
  116MOL0     H15637   9.161  11.827   6.006  2.3155  4.5717  1.5233
  116MOL0     H15638   9.350  11.904   6.105 -0.8022 -0.4797 -0.3614
  116MOL0     H15639   9.397  11.754   6.183 -1.4579  0.7639  1.1061
  116MOL0     H15640   8.430  11.598   6.352  0.6880  0.6384  0.0939
  116MOL0     H15641   8.168  11.559   6.350  0.5370 -0.5250 -0.0310
  116MOL0     H15642   7.864  11.235   6.161  0.2635  0.1025  0.0077
  116MOL0     H15643   7.620  11.206   6.134  1.1845 -1.5918  0.6532
  116MOL0     H15644   8.523  10.488   7.580  2.2915  1.2150  0.3090
  116MOL0     H15645   8.702  10.557   7.732 -1.8297  3.9569 -3.4513
  116MOL0     H15646   8.815  10.508   8.239 -1.4196  1.1933  0.5234
  116MOL0     H15647   9.010  10.526   8.358  0.7060  1.4792  0.3651
  116MOL0     H15648   9.217  10.564   8.400  1.2404 -0.1091  0.1445
  116MOL0     H15649   9.263  10.696   8.512 -2.0515 -0.1423  0.4554
  116MOL0     H15650   9.466  10.602   8.441 -1.2807 -2.4338 -0.5902
  116MOL0     H15651   9.456  10.756   8.360  2.1067 -1.7465  0.4903
  116MOL0     H15652   9.373  10.612   8.148 -1.4575 -0.6784  1.5204
  116MOL0     H15653   9.415  10.478   8.261  2.4267 -0.2503  2.2759
  116MOL0     H15654   9.651  10.566   8.269 -1.0349  0.1233  1.7102
  116MOL0     H15655   9.595  10.510   8.112 -1.2430 -0.6423  1.1734
  116MOL0     H15656   9.683  10.916   8.033 -0.3331 -1.3475 -2.2413
  116MOL0     H15657   9.077  10.917   8.179  0.7412 -0.4041 -0.4492
  116MOL0     H15658   8.891  11.026   8.050  0.3130 -0.1661 -0.4741
  116MOL0     H15659   8.878  10.909   7.926  2.1968  1.0997  0.3325
  116MOL0     H15660   8.736  10.925   8.018 -0.4520 -0.2906 -1.5908
  117MOL0     O15661  10.848   1.690   8.940 -0.4089 -0.2900  0.1145
  117MOL0     C15662  10.870   1.595   8.865  0.0833  0.2145  0.2243
  117MOL0     O15663  10.975   1.579   8.782 -0.0597  0.7663  0.2128
  117MOL0     C15664  11.075   1.675   8.769  0.0621 -0.9153  0.2651
  117MOL0     C15665  11.132   1.688   8.641 -0.0450 -0.6146 -0.1290
  117MOL0     C15666  11.237   1.780   8.611  0.3256 -0.2326 -0.3913
  117MOL0     C15667  11.286   1.863   8.713 -0.5775 -0.0701 -1.1107
  117MOL0     O15668  11.400   1.947   8.697  0.5421  0.0054 -0.4589
  117MOL0     C15669  11.446   1.992   8.567  0.2481 -0.0909 -0.6236
  117MOL0     C15670  11.542   2.114   8.592  0.0053 -0.2030 -0.1647
  117MOL0     C15671  11.670   2.116   8.495 -0.3650  0.5431  0.2118
  117MOL0     C15672  11.749   1.991   8.461  0.2804  0.7471 -0.6497
  117MOL0     C15673  11.887   2.033   8.395  1.3438  0.6349  0.1613
  117MOL0     C15674  11.972   1.914   8.349 -0.3171 -0.0083  0.2817
  117MOL0     C15675  11.919   1.836   8.227 -0.2394  0.1798 -0.1813
  117MOL0     C15676  11.977   1.894   8.097 -0.5776 -0.8015 -0.4571
  117MOL0     N15677  12.127   1.868   8.083 -0.1824 -0.7681 -1.2010
  117MOL0     C15678  12.220   1.954   8.024  0.2639  0.5629 -0.7021
  117MOL0     C15679  12.334   1.880   8.024 -0.4318 -0.6658  0.6454
  117MOL0     C15680  12.468   1.941   7.975  0.2827 -1.0443  0.7274
  117MOL0     C15681  12.591   1.841   7.956 -0.2868 -0.7680  0.4708
  117MOL0     C15682  12.677   1.841   8.074 -0.5709 -0.6580 -0.3700
  117MOL0     C15683  12.778   1.958   8.080  0.3983 -0.7175  0.0584
  117MOL0     O15684  12.843   1.983   7.958 -0.3885 -0.5185 -0.8407
  117MOL0     C15685  12.963   1.924   7.934  0.4920  0.0394 -0.4306
  117MOL0     C15686  12.999   1.803   7.993 -0.3795 -0.4072 -0.6942
  117MOL0     C15687  13.129   1.755   7.967 -0.3737  0.4094 -0.0618
  117MOL0     C15688  13.209   1.811   7.865  0.3810  0.1249  0.3848
  117MOL0     C15689  13.339   1.754   7.815 -0.3298 -0.7717 -0.3899
  117MOL0     O15690  13.410   1.830   7.716  0.3539  0.1643 -0.0206
  117MOL0     C15691  13.532   1.783   7.664  0.0880  0.2618  0.0185
  117MOL0     C15692  13.601   1.666   7.676  0.3581  0.7587 -0.2538
  117MOL0     C15693  13.729   1.640   7.614  0.2907  0.1731 -1.3476
  117MOL0     C15694  13.790   1.746   7.534 -0.3093 -0.0185  0.3125
  117MOL0     O15695  13.919   1.720   7.480  0.4630  0.7944 -0.2917
  117MOL0     C15696  13.983   1.823   7.409 -0.8017  0.4474 -0.2344
  117MOL0     C15697  14.126   1.783   7.374  0.0939 -0.6500  0.7619
  117MOL0     C15698  14.203   1.755   7.497 -0.4750 -0.2013  0.0618
  117MOL0     C15699  14.345   1.752   7.447 -0.6544  0.3231  0.3163
  117MOL0     C15700  14.442   1.679   7.550  0.4226 -0.1834 -0.4067
  117MOL0     C15701  14.579   1.741   7.567  0.1045  0.3242 -0.1533
  117MOL0     C15702  14.652   1.743   7.434  0.7616  0.3185 -0.3941
  117MOL0     C15703  14.795   1.772   7.447 -0.7367  0.5392  0.6741
  117MOL0    Cl15704  14.844   1.853   7.285  0.3307 -0.0926 -0.2597
  117MOL0     C15705  13.709   1.856   7.508 -0.5026 -0.9556 -0.6674
  117MOL0     C15706  13.589   1.878   7.570 -0.4602  0.6595  0.1996
  117MOL0     O15707  13.380   1.647   7.869  0.0144  0.1068  0.3105
  117MOL0     C15708  13.156   1.928   7.802 -0.2109 -0.1764  0.6604
  117MOL0     C15709  13.034   1.975   7.831  0.3077 -0.0435  0.8060
  117MOL0     N15710  12.316   1.759   8.094 -0.4288  0.4971 -0.7619
  117MOL0     N15711  12.191   1.757   8.123  0.4561 -0.1430 -0.4037
  117MOL0     C15712  11.232   1.846   8.847 -0.2780 -0.3322  0.3953
  117MOL0     C15713  11.122   1.759   8.874  0.2940  0.0001 -0.4000
  117MOL0     C15714  10.762   1.489   8.883 -0.4569 -0.1809 -0.5633
  117MOL0     C15715  10.632   1.534   8.919  0.3546 -0.4093 -0.2746
  117MOL0     C15716  10.519   1.446   8.907  0.7625 -0.0819 -0.0770
  117MOL0     C15717  10.540   1.305   8.890 -1.4143 -0.0798  0.5649
  117MOL0     O15718  10.426   1.232   8.896  0.2274  0.0988 -0.6870
  117MOL0     C15719  10.426   1.096   8.946 -0.6092 -0.3103  0.8077
  117MOL0     C15720  10.295   1.049   9.018 -0.1211  0.0287 -0.1585
  117MOL0     C15721  10.186   1.029   8.912 -0.2549  0.1101  0.1741
  117MOL0     C15722  10.079   1.134   8.915  0.2926 -0.8316 -0.2501
  117MOL0     C15723   9.993   1.113   9.032 -0.3122  0.5512 -0.5949
  117MOL0     C15724   9.936   1.123   9.142  0.2009 -0.2892  0.6280
  117MOL0     C15725  10.668   1.258   8.861 -0.2877 -0.1246 -0.3457
  117MOL0     C15726  10.784   1.348   8.859  0.6015 -0.6119 -0.6008
  117MOL0     C15727  10.914   1.291   8.801  0.3791  0.4761  0.1348
  117MOL0     H15728  11.091   1.631   8.558 -1.2321  1.4152 -1.0154
  117MOL0     H15729  11.290   1.790   8.517  0.1333  1.3253 -0.3571
  117MOL0     H15730  11.502   1.909   8.525 -1.3218 -3.0738  2.6704
  117MOL0     H15731  11.368   2.017   8.495 -1.5750 -0.5459  1.0991
  117MOL0     H15732  11.558   2.120   8.700 -2.0597 -0.8567  0.2211
  117MOL0     H15733  11.494   2.211   8.571  0.8108  0.0303 -1.0077
  117MOL0     H15734  11.737   2.183   8.549 -1.0707  0.8004  0.7899
  117MOL0     H15735  11.647   2.165   8.399  2.0385 -1.3385 -1.4506
  117MOL0     H15736  11.772   1.936   8.552 -4.2512  0.0782  0.3218
  117MOL0     H15737  11.687   1.935   8.390  1.1587  0.2567 -1.0412
  117MOL0     H15738  11.858   2.092   8.308  0.2865  0.5995  0.4738
  117MOL0     H15739  11.939   2.091   8.471 -0.0925  1.1836  0.7557
  117MOL0     H15740  12.076   1.940   8.327 -0.4749 -0.7730 -1.5432
  117MOL0     H15741  11.968   1.843   8.433 -0.4603  0.6502  0.8410
  117MOL0     H15742  11.811   1.841   8.213 -0.2329  1.3783  0.0259
  117MOL0     H15743  11.936   1.730   8.244 -0.2877 -0.1089 -1.8121
  117MOL0     H15744  11.939   1.847   8.006  0.0332 -2.0231 -0.0918
  117MOL0     H15745  11.944   1.999   8.100 -3.0316 -1.5276  1.9027
  117MOL0     H15746  12.197   2.050   7.978  1.6549  1.7442  0.9281
  117MOL0     H15747  12.453   1.987   7.878  2.3024 -1.0178  0.3953
  117MOL0     H15748  12.494   2.016   8.050  0.5489 -0.6122  0.2029
  117MOL0     H15749  12.564   1.736   7.938 -0.0930 -0.5094 -1.6737
  117MOL0     H15750  12.637   1.872   7.861 -1.1296 -0.3735  0.1871
  117MOL0     H15751  12.735   1.750   8.055 -0.1968 -0.7564  1.0834
  117MOL0     H15752  12.625   1.820   8.169  0.2473  0.5227  0.3634
  117MOL0     H15753  12.852   1.956   8.161  1.6243  3.3763 -0.7138
  117MOL0     H15754  12.725   2.053   8.097 -0.6295 -1.5392  1.6836
  117MOL0     H15755  12.941   1.744   8.063 -3.8978  4.1812  0.7025
  117MOL0     H15756  13.167   1.673   8.026  3.1405 -0.3739 -3.0212
  117MOL0     H15757  13.566   1.580   7.732  0.1841  0.6352 -0.5549
  117MOL0     H15758  13.774   1.543   7.629  0.4451  0.4357 -0.0091
  117MOL0     H15759  13.923   1.857   7.324  0.2200 -0.7892 -1.4827
  117MOL0     H15760  13.992   1.909   7.476 -1.4994  1.9390 -1.9802
  117MOL0     H15761  14.127   1.699   7.304  0.1854 -1.4093  1.6504
  117MOL0     H15762  14.174   1.870   7.331  0.5902 -1.0888  0.4215
  117MOL0     H15763  14.192   1.833   7.572  1.1052  0.8730 -0.7566
  117MOL0     H15764  14.179   1.659   7.545  1.4376 -0.7049  0.1134
  117MOL0     H15765  14.389   1.852   7.452  1.7063 -0.6901  2.3361
  117MOL0     H15766  14.369   1.705   7.351  0.0695 -1.2728  1.2190
  117MOL0     H15767  14.455   1.581   7.501  1.1762  0.8579 -2.4073
  117MOL0     H15768  14.387   1.665   7.643 -0.8472 -0.1121 -1.1242
  117MOL0     H15769  14.564   1.847   7.592 -0.7895  0.0256  0.6430
  117MOL0     H15770  14.637   1.687   7.643  2.7494  0.9099 -1.6122
  117MOL0     H15771  14.600   1.815   7.371 -0.8572 -0.9182 -0.5410
  117MOL0     H15772  14.643   1.646   7.384  0.4575  0.7517 -1.2001
  117MOL0     H15773  14.822   1.837   7.530 -0.2044  0.6929  0.3830
  117MOL0     H15774  14.855   1.681   7.455  0.5448  1.3304  0.2745
  117MOL0     H15775  13.741   1.919   7.425  0.7446 -1.9971 -1.0194
  117MOL0     H15776  13.525   1.955   7.529  0.0295 -0.3881 -2.8158
  117MOL0     H15777  13.207   1.986   7.726 -1.7328 -1.2554 -1.2880
  117MOL0     H15778  12.991   2.059   7.778 -1.3439 -0.0961  2.0048
  117MOL0     H15779  11.265   1.903   8.934  0.7571 -1.3095  0.6664
  117MOL0     H15780  11.078   1.751   8.974 -1.2971 -0.6572 -1.1080
  117MOL0     H15781  10.614   1.638   8.943  0.1389 -0.0876 -1.7411
  117MOL0     H15782  10.422   1.493   8.924 -0.7164 -3.5935  2.4808
  117MOL0     H15783  10.511   1.078   9.011  0.5624  1.0088 -0.2879
  117MOL0     H15784  10.447   1.038   8.855  0.3051 -0.3819  1.0528
  117MOL0     H15785  10.272   1.119   9.098  3.3539  0.6258  0.4739
  117MOL0     H15786  10.310   0.952   9.065 -0.6049  0.4888  0.9917
  117MOL0     H15787  10.144   0.930   8.930 -1.7689  1.1253  2.9518
  117MOL0     H15788  10.244   1.034   8.820  1.8084  0.9208  1.4280
  117MOL0     H15789  10.122   1.235   8.917  1.0440 -1.1374 -0.7346
  117MOL0     H15790  10.012   1.124   8.829  0.0075  4.5466 -1.0057
  117MOL0     H15791   9.880   1.121   9.233 -0.4716  1.8633  0.3112
  117MOL0     H15792  10.675   1.150   8.852 -2.8423 -0.3562 -0.4977
  117MOL0     H15793  10.941   1.192   8.838  1.9675  1.7483  2.6791
  117MOL0     H15794  10.922   1.290   8.692  1.4670  2.9076  0.1366
  117MOL0     H15795  10.998   1.349   8.842  0.1251  0.6887  0.3633
  118MOL0     O15796   7.917   1.907   9.407 -0.5971 -0.3221  0.0844
  118MOL0     C15797   8.017   1.979   9.405 -0.3500  0.1420 -0.0469
  118MOL0     O15798   8.028   2.086   9.319 -0.0477  0.0001 -0.2706
  118MOL0     C15799   7.942   2.132   9.225  0.1798 -1.5474  0.0599
  118MOL0     C15800   7.867   2.054   9.145  0.3411 -0.0644  0.4346
  118MOL0     C15801   7.781   2.112   9.051 -0.1286  0.0946  0.4467
  118MOL0     C15802   7.790   2.246   9.018  0.2888 -0.0594  0.2800
  118MOL0     O15803   7.703   2.313   8.924 -0.0782 -0.0118 -0.5609
  118MOL0     C15804   7.568   2.295   8.965 -0.4386  0.5404  0.0213
  118MOL0     C15805   7.480   2.411   8.923  0.2297 -0.0839 -1.2327
  118MOL0     C15806   7.369   2.440   9.026 -0.0550 -0.1213  0.3685
  118MOL0     C15807   7.258   2.537   8.965 -0.4516 -0.2073 -0.9102
  118MOL0     C15808   7.178   2.600   9.085 -0.0989  0.2267  0.4064
  118MOL0     C15809   7.046   2.669   9.030 -0.0849 -0.1187  1.5174
  118MOL0     C15810   6.946   2.700   9.137  0.6995  0.0831  0.4291
  118MOL0     C15811   6.823   2.767   9.077  1.1360  0.0592  0.4731
  118MOL0     N15812   6.727   2.796   9.187 -0.8674 -0.3473  0.1481
  118MOL0     C15813   6.659   2.697   9.257 -0.2221 -0.4903 -0.3682
  118MOL0     C15814   6.596   2.770   9.353  0.4132  0.8394 -0.3266
  118MOL0     C15815   6.514   2.699   9.466  0.1831  0.3484  0.4182
  118MOL0     C15816   6.382   2.641   9.401 -0.8035  0.1325 -0.4177
  118MOL0     C15817   6.299   2.578   9.515  0.3978 -0.2538  0.0512
  118MOL0     C15818   6.376   2.456   9.580  0.0525  0.2782  0.4795
  118MOL0     O15819   6.446   2.502   9.697 -0.6937 -0.7032 -0.2197
  118MOL0     C15820   6.560   2.428   9.724 -0.2854 -0.3461 -0.2835
  118MOL0     C15821   6.587   2.300   9.684 -1.1531  0.2093  0.4472
  118MOL0     C15822   6.705   2.232   9.715  0.6712  0.1292  0.3542
  118MOL0     C15823   6.802   2.303   9.797 -0.1731 -0.7360 -0.4216
  118MOL0     C15824   6.928   2.234   9.841  0.7106  0.1693  0.3898
  118MOL0     O15825   7.024   2.300   9.908  0.7639 -0.0705 -0.3276
  118MOL0     C15826   7.150   2.244   9.912  0.8602  0.6190  0.8035
  118MOL0     C15827   7.211   2.194   9.798  0.2583  0.4167 -0.0170
  118MOL0     C15828   7.340   2.142   9.798 -0.5304  0.0552  0.5757
  118MOL0     C15829   7.405   2.118   9.918  0.6446  0.1098  0.3707
  118MOL0     O15830   7.526   2.055   9.907  0.4478  0.4747 -0.0482
  118MOL0     C15831   7.543   1.945  10.004  0.1348 -0.8986 -0.0069
  118MOL0     C15832   7.692   1.936  10.023  0.0825  0.1504 -0.5981
  118MOL0     C15833   7.734   2.041  10.125  0.6017 -0.0848 -0.3745
  118MOL0     C15834   7.843   1.980  10.231 -0.7210  0.8076  0.9676
  118MOL0     C15835   7.990   1.956  10.182 -0.2196  0.0285 -0.1702
  118MOL0     C15836   8.080   1.908  10.300 -1.5216  0.6375  1.0643
  118MOL0     C15837   8.212   1.833  10.265  0.1841 -0.4233 -0.4970
  118MOL0     C15838   8.300   1.920  10.182 -0.5175  0.1218  0.2923
  118MOL0    Cl15839   8.258   1.922   9.996  0.5828 -0.1197  0.1787
  118MOL0     C15840   7.344   2.172  10.030 -0.4650  0.5919  0.1093
  118MOL0     C15841   7.219   2.236  10.034  0.2406  0.5457 -0.3223
  118MOL0     O15842   6.926   2.114   9.810 -0.0143 -0.7827  0.0965
  118MOL0     C15843   6.774   2.436   9.837 -0.2780  1.5124  0.0885
  118MOL0     C15844   6.652   2.498   9.805  0.0252 -0.2928  0.0065
  118MOL0     N15845   6.611   2.904   9.335 -0.2358  0.5013 -0.2298
  118MOL0     N15846   6.707   2.918   9.250 -0.1049 -0.4080  0.4203
  118MOL0     C15847   7.897   2.321   9.073 -0.4467  0.0914  0.5438
  118MOL0     C15848   7.974   2.265   9.181 -0.8658  0.1079  0.8052
  118MOL0     C15849   8.135   1.934   9.485 -0.3343 -0.1245 -0.4629
  118MOL0     C15850   8.256   1.968   9.436 -0.0221 -0.1931 -0.1915
  118MOL0     C15851   8.374   1.923   9.498 -0.7508 -0.6827 -0.8632
  118MOL0     C15852   8.366   1.830   9.609  0.1490  0.2488  0.3980
  118MOL0     O15853   8.482   1.767   9.652 -0.0656  0.1859  0.1321
  118MOL0     C15854   8.479   1.630   9.688 -0.1643  0.0365 -0.9452
  118MOL0     C15855   8.614   1.572   9.695  0.5848 -0.4307  0.6217
  118MOL0     C15856   8.687   1.603   9.822  0.4012 -0.5405 -0.5434
  118MOL0     C15857   8.835   1.621   9.785 -0.1714 -0.2234 -0.2976
  118MOL0     C15858   8.896   1.498   9.734  0.3069 -0.8065 -0.0535
  118MOL0     C15859   8.951   1.393   9.709  0.9133  0.9847 -0.5858
  118MOL0     C15860   8.247   1.808   9.663  0.0766  0.3787 -0.9801
  118MOL0     C15861   8.128   1.862   9.607  0.9595  0.0613  0.0493
  118MOL0     C15862   8.001   1.854   9.692 -0.1017  0.1338 -0.2234
  118MOL0     H15863   7.874   1.946   9.148  0.6978 -0.0421  0.4801
  118MOL0     H15864   7.708   2.045   9.007  2.1082 -1.7462 -0.6575
  118MOL0     H15865   7.519   2.205   8.928 -0.6227  1.8412 -3.2993
  118MOL0     H15866   7.570   2.304   9.074 -3.3283  2.1553  0.0481
  118MOL0     H15867   7.439   2.401   8.822 -1.0342  0.9962 -0.8614
  118MOL0     H15868   7.555   2.490   8.910  2.0905 -1.7963 -1.3068
  118MOL0     H15869   7.420   2.491   9.108 -0.2633 -0.1472  0.5158
  118MOL0     H15870   7.326   2.347   9.064 -1.0594  0.6075  1.0722
  118MOL0     H15871   7.302   2.620   8.909 -1.2743  0.1800 -1.0058
  118MOL0     H15872   7.192   2.481   8.898 -3.2141  1.6941  0.0447
  118MOL0     H15873   7.143   2.529   9.160 -0.8247 -0.1034 -0.2344
  118MOL0     H15874   7.244   2.655   9.153  0.1630 -1.8960  1.9839
  118MOL0     H15875   7.076   2.759   8.975  0.6307 -1.4440 -0.3968
  118MOL0     H15876   7.002   2.603   8.954 -0.6047  0.9625  0.8592
  118MOL0     H15877   6.999   2.761   9.211  1.8994  0.8654 -1.0093
  118MOL0     H15878   6.906   2.614   9.192 -0.9563  1.4040  1.4109
  118MOL0     H15879   6.843   2.857   9.018 -2.1728  1.0160  0.5792
  118MOL0     H15880   6.779   2.694   9.007  2.2441  0.9545 -1.2439
  118MOL0     H15881   6.660   2.589   9.256  0.2174 -0.4850 -1.9218
  118MOL0     H15882   6.576   2.620   9.509 -1.4935 -0.9124  0.6231
  118MOL0     H15883   6.493   2.767   9.549  0.2703 -2.5326  2.9902
  118MOL0     H15884   6.320   2.710   9.344 -0.6474  0.0431 -0.6964
  118MOL0     H15885   6.410   2.555   9.339  2.8036  0.7106  0.2022
  118MOL0     H15886   6.201   2.549   9.477 -1.4832  1.8611  2.8856
  118MOL0     H15887   6.286   2.651   9.595 -0.5153  0.0457 -0.3624
  118MOL0     H15888   6.439   2.408   9.504  1.0340  0.8693  0.8935
  118MOL0     H15889   6.307   2.377   9.612  2.2564 -1.4025  1.3812
  118MOL0     H15890   6.509   2.241   9.639  1.2213 -3.9808  1.2696
  118MOL0     H15891   6.698   2.125   9.699 -1.4393 -0.0376  1.9770
  118MOL0     H15892   7.162   2.208   9.703 -0.7761  2.2128  0.7346
  118MOL0     H15893   7.395   2.100   9.715 -0.1869 -0.9322  1.2832
  118MOL0     H15894   7.497   1.962  10.101  0.1794 -1.1137  0.0542
  118MOL0     H15895   7.502   1.849   9.969 -0.8399 -1.1449  1.7063
  118MOL0     H15896   7.715   1.836  10.060 -1.6635  1.1414  3.6735
  118MOL0     H15897   7.749   1.955   9.931 -0.1034  2.4235 -0.2968
  118MOL0     H15898   7.773   2.130  10.075 -1.3510  1.3199  0.5089
  118MOL0     H15899   7.656   2.081  10.190  1.2493  4.9189 -2.2685
  118MOL0     H15900   7.805   1.882  10.262  0.6727 -0.8376 -2.1143
  118MOL0     H15901   7.854   2.056  10.309 -0.1675 -1.0744  2.8037
  118MOL0     H15902   8.038   2.050  10.152  2.4998 -0.0916  3.1972
  118MOL0     H15903   7.977   1.885  10.100  0.1434  0.0214 -0.2205
  118MOL0     H15904   8.099   1.989  10.372 -0.4131 -0.3076  1.8830
  118MOL0     H15905   8.016   1.848  10.366 -0.5113 -2.0444 -0.2662
  118MOL0     H15906   8.190   1.740  10.211 -1.0085 -1.4530  1.6103
  118MOL0     H15907   8.259   1.803  10.360  0.9409  0.8597 -0.4527
  118MOL0     H15908   8.290   2.021  10.221 -2.9082  1.3935 -3.0563
  118MOL0     H15909   8.401   1.878  10.189 -0.9064 -0.9672 -0.2834
  118MOL0     H15910   7.399   2.178  10.124  0.9564 -0.8704 -0.5775
  118MOL0     H15911   7.170   2.276  10.123  0.8263  0.9401 -0.1748
  118MOL0     H15912   6.842   2.484   9.906 -0.2429  1.9764 -0.2598
  118MOL0     H15913   6.629   2.594   9.850  3.5241  0.2607  0.9463
  118MOL0     H15914   7.905   2.417   9.023 -3.0710 -0.0012 -0.2013
  118MOL0     H15915   8.045   2.332   9.229 -0.1435 -1.1421  1.5146
  118MOL0     H15916   8.264   2.046   9.361 -0.8530 -1.3411 -1.5351
  118MOL0     H15917   8.476   1.953   9.475 -1.5266  3.9991  0.7183
  118MOL0     H15918   8.428   1.575   9.609 -1.8119  1.5742 -1.0279
  118MOL0     H15919   8.442   1.618   9.791  1.2664 -0.8950 -0.5092
  118MOL0     H15920   8.673   1.572   9.604  2.3235  0.4566  1.7053
  118MOL0     H15921   8.594   1.466   9.714  0.5239 -0.5324 -0.0060
  118MOL0     H15922   8.677   1.531   9.905 -1.1821  2.1279  1.7556
  118MOL0     H15923   8.633   1.686   9.868 -1.4904 -0.3733 -2.9034
  118MOL0     H15924   8.847   1.700   9.711  1.9621  0.0846  0.3077
  118MOL0     H15925   8.893   1.653   9.872  2.0904 -0.7930 -1.5237
  118MOL0     H15926   9.003   1.301   9.692 -2.2736 -0.9941 -0.4021
  118MOL0     H15927   8.240   1.739   9.747  1.2183 -1.0171 -1.9790
  118MOL0     H15928   7.956   1.756   9.679 -0.5913 -0.1880  2.9560
  118MOL0     H15929   8.019   1.875   9.798  1.0965  3.6763 -0.9860
  118MOL0     H15930   7.923   1.924   9.661  0.3411  0.0156 -1.6353
  119MOL0     O15931   9.120   3.345   4.376  0.0825  0.1920 -0.1904
  119MOL0     C15932   9.096   3.420   4.280  0.4559 -0.6811 -0.2689
  119MOL0     O15933   9.183   3.480   4.198 -0.0484 -0.1734 -0.0225
  119MOL0     C15934   9.315   3.445   4.199  0.7148  0.1796 -0.0519
  119MOL0     C15935   9.357   3.356   4.093  0.1965  0.2856  0.3782
  119MOL0     C15936   9.497   3.327   4.081  1.0798 -0.0445 -0.2260
  119MOL0     C15937   9.590   3.379   4.176  0.1109 -0.2489 -0.5645
  119MOL0     O15938   9.719   3.342   4.143  0.3564  0.4306  0.5881
  119MOL0     C15939   9.821   3.411   4.213  0.2688  0.5263  0.7470
  119MOL0     C15940   9.958   3.351   4.194  0.1072  0.0242  0.5587
  119MOL0     C15941  10.068   3.450   4.253  0.1010  0.5319 -0.6983
  119MOL0     C15942  10.206   3.419   4.195 -0.5700  0.3692 -0.0490
  119MOL0     C15943  10.315   3.515   4.251 -0.3634 -0.6427  0.0609
  119MOL0     C15944  10.456   3.499   4.202 -0.9987  0.2726 -0.8628
  119MOL0     C15945  10.517   3.357   4.256 -0.7542 -0.7430  0.1505
  119MOL0     C15946  10.668   3.365   4.219  0.9487  0.4812  0.5922
  119MOL0     N15947  10.703   3.340   4.079  1.2771 -0.2691 -0.1626
  119MOL0     C15948  10.642   3.246   4.006  0.6246 -0.6799  0.0751
  119MOL0     C15949  10.708   3.268   3.886  0.1695  0.4561 -0.1759
  119MOL0     C15950  10.685   3.192   3.755  0.7155  0.9670  1.3956
  119MOL0     C15951  10.556   3.240   3.699 -0.3411 -0.4706 -0.0663
  119MOL0     C15952  10.512   3.160   3.584  0.0085 -0.2850  0.6008
  119MOL0     C15953  10.371   3.204   3.547 -0.0801 -0.2721  0.0520
  119MOL0     O15954  10.327   3.121   3.437  0.0547 -0.1200  0.0195
  119MOL0     C15955  10.192   3.113   3.417  0.3697 -0.2445 -0.4552
  119MOL0     C15956  10.099   3.169   3.508 -0.4261  0.0924  0.0776
  119MOL0     C15957   9.964   3.150   3.479  0.5268  0.9477  0.1156
  119MOL0     C15958   9.912   3.076   3.371 -0.6347 -0.5211  0.1093
  119MOL0     C15959   9.765   3.044   3.360 -0.1527 -0.6588 -0.6751
  119MOL0     O15960   9.721   2.971   3.256  0.1921 -0.3067 -0.1661
  119MOL0     C15961   9.580   2.962   3.250  0.3236 -0.3928 -0.0990
  119MOL0     C15962   9.502   2.889   3.348 -0.9150  1.1855  0.2294
  119MOL0     C15963   9.360   2.866   3.339 -0.8204  0.0081 -0.4655
  119MOL0     C15964   9.285   2.933   3.240  0.2249 -0.1817 -0.0864
  119MOL0     O15965   9.150   2.906   3.230 -0.1196 -0.0352 -0.5630
  119MOL0     C15966   9.083   2.925   3.104 -0.1372  0.4440 -0.1200
  119MOL0     C15967   8.940   2.925   3.133  0.0895 -0.2361  0.2747
  119MOL0     C15968   8.858   2.926   3.000  0.3591  0.3477 -0.8160
  119MOL0     C15969   8.717   2.976   3.019  0.6560  0.0444  0.9738
  119MOL0     C15970   8.646   3.005   2.881 -0.4266 -0.1761 -0.6334
  119MOL0     C15971   8.512   3.065   2.890  0.8650  0.0401  0.2389
  119MOL0     C15972   8.443   3.086   2.749  0.6374  0.8576  0.1237
  119MOL0     C15973   8.507   3.204   2.677 -0.1554  0.5395  0.9263
  119MOL0    Cl15974   8.635   3.151   2.565 -0.1678  0.0157  0.2212
  119MOL0     C15975   9.359   3.009   3.140  0.4242  0.3225  0.1611
  119MOL0     C15976   9.507   3.015   3.145  0.4321 -0.1261  0.5017
  119MOL0     O15977   9.694   3.073   3.459 -0.5642 -0.0202  0.3620
  119MOL0     C15978  10.006   3.018   3.289  0.7979 -0.3074  0.4050
  119MOL0     C15979  10.143   3.040   3.315 -0.0324 -0.0674 -0.3886
  119MOL0     N15980  10.784   3.377   3.889 -0.9281 -0.6432 -0.2261
  119MOL0     N15981  10.778   3.430   4.007  0.0904  1.2468 -0.3546
  119MOL0     C15982   9.543   3.457   4.287 -0.3263  0.1197  0.7815
  119MOL0     C15983   9.404   3.478   4.303  0.3048 -0.2120 -0.0968
  119MOL0     C15984   8.953   3.454   4.277  0.1313 -0.9505 -0.3393
  119MOL0     C15985   8.918   3.590   4.284  0.5138  0.1785  0.2391
  119MOL0     C15986   8.784   3.620   4.304 -0.1275  0.0861 -0.1556
  119MOL0     C15987   8.684   3.521   4.316  0.5249  0.3050  0.8186
  119MOL0     O15988   8.552   3.559   4.345 -0.4637 -0.3343 -0.5381
  119MOL0     C15989   8.449   3.463   4.329 -0.3052 -0.1358  0.1680
  119MOL0     C15990   8.321   3.535   4.339  0.0957 -0.1572 -0.7639
  119MOL0     C15991   8.315   3.634   4.454  0.4342  0.4697 -0.0478
  119MOL0     C15992   8.165   3.644   4.498 -0.2429  0.2378  0.4695
  119MOL0     C15993   8.096   3.742   4.412  0.7271 -0.1691  0.4337
  119MOL0     C15994   8.035   3.824   4.352  0.4739  0.2715 -0.3262
  119MOL0     C15995   8.724   3.390   4.301  0.5228  0.0318  0.0150
  119MOL0     C15996   8.860   3.353   4.287 -0.1317 -0.9865  0.1304
  119MOL0     C15997   8.886   3.207   4.261  0.1188  1.0134  0.3508
  119MOL0     H15998   9.285   3.319   4.021  0.9528 -2.0855  0.7687
  119MOL0     H15999   9.525   3.276   3.990 -1.3286 -2.9270  0.5003
  119MOL0     H16000   9.821   3.517   4.186 -2.0579  1.3780  3.5567
  119MOL0     H16001   9.800   3.413   4.320  0.7421  1.1760  0.8308
  119MOL0     H16002   9.969   3.335   4.087  2.1783 -3.7481  1.1695
  119MOL0     H16003   9.963   3.252   4.239  3.1994 -0.7427 -1.2094
  119MOL0     H16004  10.068   3.462   4.362 -4.3617  1.5576 -0.6199
  119MOL0     H16005  10.051   3.553   4.222  3.2816  1.7268  1.0229
  119MOL0     H16006  10.221   3.313   4.215 -0.8402 -0.6346 -4.1688
  119MOL0     H16007  10.209   3.427   4.085 -0.2571  2.0213  0.0532
  119MOL0     H16008  10.294   3.618   4.221  3.8877 -0.1240 -1.9497
  119MOL0     H16009  10.322   3.511   4.360 -1.3383 -0.4073  0.1448
  119MOL0     H16010  10.462   3.491   4.093 -1.7764 -2.8833 -0.7795
  119MOL0     H16011  10.517   3.580   4.245  0.8001  0.0804 -2.8921
  119MOL0     H16012  10.460   3.283   4.200 -0.6387 -0.9002  0.2414
  119MOL0     H16013  10.509   3.342   4.364  0.6296  0.7052  0.4965
  119MOL0     H16014  10.721   3.455   4.250  1.2076  0.4885  0.1355
  119MOL0     H16015  10.709   3.282   4.277 -3.1257 -2.1559  0.0997
  119MOL0     H16016  10.559   3.179   4.025 -2.6258  3.3916  1.9100
  119MOL0     H16017  10.770   3.203   3.687  0.5145  0.8614  1.1207
  119MOL0     H16018  10.689   3.086   3.783  0.8536  0.6560  0.2713
  119MOL0     H16019  10.476   3.241   3.774  0.3584 -2.0639  0.7422
  119MOL0     H16020  10.563   3.345   3.668 -2.1142 -0.3054 -0.0219
  119MOL0     H16021  10.515   3.053   3.604 -1.1184 -0.1164  1.7827
  119MOL0     H16022  10.570   3.165   3.491 -1.6234 -3.1231 -0.6946
  119MOL0     H16023  10.382   3.303   3.503  1.4471 -0.3620  0.2064
  119MOL0     H16024  10.304   3.210   3.634  0.4507  2.6537  0.3668
  119MOL0     H16025  10.123   3.229   3.596  0.3836  0.0222 -0.0819
  119MOL0     H16026   9.899   3.198   3.552  2.6261  2.1480  1.2871
  119MOL0     H16027   9.551   2.832   3.426  0.4724  0.9009 -0.8304
  119MOL0     H16028   9.322   2.800   3.416 -0.3059  0.6663  0.3683
  119MOL0     H16029   9.124   3.011   3.051 -1.9186  1.5321  0.2096
  119MOL0     H16030   9.100   2.839   3.038  1.2604  0.4061  0.2452
  119MOL0     H16031   8.911   2.834   3.187  0.3207 -0.2822  0.3190
  119MOL0     H16032   8.923   3.013   3.196 -0.0148  0.3654 -0.5712
  119MOL0     H16033   8.903   2.999   2.932 -1.0533 -0.1900 -2.4022
  119MOL0     H16034   8.855   2.830   2.948  1.0952  1.0056 -2.1398
  119MOL0     H16035   8.711   3.069   3.075  0.0899  1.0408 -0.6751
  119MOL0     H16036   8.653   2.902   3.068  0.8996  0.7733  2.4256
  119MOL0     H16037   8.648   2.910   2.827  1.7289  1.6161 -4.0187
  119MOL0     H16038   8.718   3.068   2.828 -0.6932  1.2421  0.6193
  119MOL0     H16039   8.449   3.005   2.956 -1.0728 -1.2931 -2.5923
  119MOL0     H16040   8.517   3.165   2.933 -3.1108  0.8378 -0.7299
  119MOL0     H16041   8.336   3.101   2.769  0.5664 -0.7403  1.1135
  119MOL0     H16042   8.455   2.994   2.690 -1.3728  0.6405 -0.0227
  119MOL0     H16043   8.429   3.258   2.623 -1.6431 -1.9974  0.3477
  119MOL0     H16044   8.560   3.275   2.741 -0.1257  2.5133 -1.1718
  119MOL0     H16045   9.309   3.057   3.057  2.2105  1.3423 -0.3701
  119MOL0     H16046   9.554   3.085   3.076 -3.2065  1.8427 -0.2312
  119MOL0     H16047   9.973   2.977   3.194  0.0525  2.9252 -0.8271
  119MOL0     H16048  10.207   2.995   3.239 -3.0778  0.3221 -3.4674
  119MOL0     H16049   9.604   3.481   4.373 -0.3857  1.1510  0.5516
  119MOL0     H16050   9.370   3.519   4.397  3.0248  1.8205  0.1172
  119MOL0     H16051   8.997   3.665   4.281  0.7104 -0.0443 -1.3536
  119MOL0     H16052   8.761   3.725   4.317 -1.7648 -0.3791  0.9594
  119MOL0     H16053   8.450   3.393   4.413  0.8246 -1.7863 -1.1386
  119MOL0     H16054   8.439   3.411   4.233 -2.3848 -4.4655  2.4381
  119MOL0     H16055   8.250   3.452   4.339  0.7528 -1.0404  4.1873
  119MOL0     H16056   8.307   3.600   4.253 -1.8000 -0.4488 -0.7177
  119MOL0     H16057   8.360   3.729   4.425 -0.2517  0.6719 -0.4798
  119MOL0     H16058   8.373   3.597   4.538  0.7500 -2.4339 -1.4252
  119MOL0     H16059   8.113   3.548   4.492  0.4854 -0.0814 -1.9276
  119MOL0     H16060   8.159   3.683   4.600  2.0382  1.0958  0.3521
  119MOL0     H16061   7.988   3.901   4.294 -0.0094  0.0520 -0.2271
  119MOL0     H16062   8.659   3.304   4.286  0.6398  0.0291 -0.4969
  119MOL0     H16063   8.883   3.142   4.349  2.3583 -0.7890 -0.8071
  119MOL0     H16064   8.811   3.155   4.200  1.9534  0.2587 -1.3582
  119MOL0     H16065   8.980   3.196   4.206 -2.6034 -1.7285 -4.4797
  120MOL0     O16066   2.656   2.568   8.974  0.1338 -0.0177  0.0153
  120MOL0     C16067   2.554   2.630   9.001 -1.0240 -0.7363 -0.3167
  120MOL0     O16068   2.548   2.744   9.071  0.5496 -0.3564 -0.4506
  120MOL0     C16069   2.634   2.795   9.160 -1.0643  0.1201  0.8893
  120MOL0     C16070   2.741   2.727   9.217  0.1617  0.6527  0.0980
  120MOL0     C16071   2.827   2.783   9.315  0.5525 -0.1110 -0.7882
  120MOL0     C16072   2.791   2.913   9.364 -1.1643 -1.0009 -1.1427
  120MOL0     O16073   2.865   2.955   9.473  0.3178 -0.3562  0.2725
  120MOL0     C16074   2.896   3.096   9.455 -0.0882  0.6414  0.1221
  120MOL0     C16075   3.015   3.131   9.547  0.4636  0.2387 -0.0698
  120MOL0     C16076   3.065   3.271   9.522  0.2572 -0.3132  0.2204
  120MOL0     C16077   3.194   3.299   9.602  0.0306 -0.1983  0.1958
  120MOL0     C16078   3.245   3.427   9.541 -0.1619 -0.7958  0.0164
  120MOL0     C16079   3.354   3.497   9.616 -0.0008 -0.0062 -0.1417
  120MOL0     C16080   3.401   3.629   9.551 -0.8191  0.5077  0.3910
  120MOL0     C16081   3.457   3.738   9.650 -0.7999  0.1955 -0.8184
  120MOL0     N16082   3.572   3.687   9.731 -0.4700  0.5119 -0.0112
  120MOL0     C16083   3.687   3.615   9.693  0.3169  0.1401  0.1761
  120MOL0     C16084   3.740   3.562   9.802 -0.4058 -0.6198  0.1026
  120MOL0     C16085   3.840   3.449   9.821 -0.8401  0.5352  0.5091
  120MOL0     C16086   3.988   3.495   9.790 -0.3303  0.0794 -0.0796
  120MOL0     C16087   4.030   3.430   9.654 -0.2254 -0.2383 -0.0712
  120MOL0     C16088   4.181   3.439   9.632  0.0983 -0.0187 -0.3547
  120MOL0     O16089   4.211   3.380   9.502 -0.8056  0.3472  0.6104
  120MOL0     C16090   4.338   3.371   9.454  0.1890  0.3653 -0.0504
  120MOL0     C16091   4.341   3.299   9.335  0.2313  0.1711  0.1008
  120MOL0     C16092   4.470   3.267   9.281  0.4708  0.0047 -0.4881
  120MOL0     C16093   4.591   3.307   9.340  0.7402  1.1108 -0.1510
  120MOL0     C16094   4.718   3.264   9.278  0.1697 -0.0632 -0.3713
  120MOL0     O16095   4.822   3.242   9.373  0.3276  0.7300  0.3233
  120MOL0     C16096   4.949   3.220   9.332 -0.0164 -0.2573 -0.0469
  120MOL0     C16097   5.010   3.102   9.364 -0.0957 -0.2589 -0.8301
  120MOL0     C16098   5.139   3.065   9.326 -0.1890  0.1176 -0.1557
  120MOL0     C16099   5.213   3.158   9.253  1.2095 -0.1955 -0.0847
  120MOL0     O16100   5.324   3.115   9.200 -0.3776  0.3108  0.6564
  120MOL0     C16101   5.375   3.177   9.076  0.6235  0.4751 -0.3381
  120MOL0     C16102   5.505   3.107   9.030  0.4349  0.6333 -0.5525
  120MOL0     C16103   5.612   3.142   9.133 -0.1620  0.0679 -0.4370
  120MOL0     C16104   5.728   3.038   9.115 -0.9327  0.1418 -0.1925
  120MOL0     C16105   5.840   3.069   9.216  0.4354  0.2951 -0.0588
  120MOL0     C16106   5.969   2.988   9.187  1.2698  0.0550 -1.1460
  120MOL0     C16107   6.094   3.053   9.239  0.4416  0.7747 -0.1397
  120MOL0     C16108   6.201   2.945   9.273 -0.5276 -0.4864 -0.1116
  120MOL0    Cl16109   6.248   2.850   9.126  0.1313  0.2196 -0.2608
  120MOL0     C16110   5.155   3.289   9.220  0.4868  0.1409  0.2156
  120MOL0     C16111   5.022   3.322   9.265  0.4235 -0.1125 -0.4511
  120MOL0     O16112   4.725   3.262   9.162 -0.3964 -0.3342  0.3600
  120MOL0     C16113   4.580   3.390   9.455  0.4026 -0.0276  0.0872
  120MOL0     C16114   4.459   3.421   9.510  0.6082  0.3400  0.0233
  120MOL0     N16115   3.671   3.625   9.910  1.0949  0.5881  0.0305
  120MOL0     N16116   3.568   3.691   9.864 -0.6554  0.0900  0.6909
  120MOL0     C16117   2.691   2.987   9.297  1.1458 -0.8071  0.8474
  120MOL0     C16118   2.628   2.925   9.189  0.8695 -0.3350  0.1864
  120MOL0     C16119   2.430   2.558   8.983  0.5451  0.5372  0.5100
  120MOL0     C16120   2.326   2.590   9.069  1.0837  0.4183  0.5256
  120MOL0     C16121   2.203   2.528   9.063 -0.0377  0.2925  0.4469
  120MOL0     C16122   2.171   2.425   8.971  0.3674  0.3955  0.3786
  120MOL0     O16123   2.043   2.375   8.980 -0.9688  0.0542  0.2420
  120MOL0     C16124   2.030   2.225   8.962 -0.1587 -1.1717 -0.5057
  120MOL0     C16125   1.986   2.161   9.094  0.0817  0.0443 -0.4761
  120MOL0     C16126   1.858   2.240   9.156 -1.1459 -0.1234 -0.5439
  120MOL0     C16127   1.812   2.175   9.286 -0.1684 -0.2111  0.3881
  120MOL0     C16128   1.904   2.210   9.388 -0.4128 -1.0354  0.1434
  120MOL0     C16129   1.982   2.238   9.474  0.4183 -0.0595 -0.3091
  120MOL0     C16130   2.281   2.392   8.882  0.9139 -1.2926 -0.4199
  120MOL0     C16131   2.404   2.463   8.884  0.4799  0.0536  0.1681
  120MOL0     C16132   2.501   2.442   8.775  0.8405  0.0820  0.1932
  120MOL0     H16133   2.747   2.619   9.203 -2.8248  0.0118  2.6150
  120MOL0     H16134   2.907   2.736   9.370  0.5322  1.9422  1.1424
  120MOL0     H16135   2.935   3.109   9.353  0.6270  0.7088  0.4001
  120MOL0     H16136   2.805   3.152   9.479 -2.0895 -1.8379 -1.2087
  120MOL0     H16137   3.094   3.057   9.533 -1.8538 -2.9155  2.1700
  120MOL0     H16138   2.993   3.130   9.654  1.6952  0.5889  0.2098
  120MOL0     H16139   2.995   3.355   9.525  2.4449  1.6687 -0.7549
  120MOL0     H16140   3.091   3.268   9.415  1.1322  1.6300  0.3433
  120MOL0     H16141   3.167   3.303   9.708  2.2916  1.5256  0.7735
  120MOL0     H16142   3.276   3.231   9.580 -0.0202  0.7599 -3.9137
  120MOL0     H16143   3.293   3.410   9.444  1.0076  0.9065  0.2495
  120MOL0     H16144   3.165   3.502   9.538  0.6692  0.1761  1.0223
  120MOL0     H16145   3.314   3.514   9.716 -0.3676 -0.4424 -0.2077
  120MOL0     H16146   3.442   3.432   9.618 -0.9500 -1.4639 -2.1042
  120MOL0     H16147   3.326   3.684   9.492  0.3970 -0.0797 -1.8195
  120MOL0     H16148   3.472   3.596   9.474 -0.7750  0.6925  0.3511
  120MOL0     H16149   3.498   3.828   9.604  1.7252  0.0235  0.8707
  120MOL0     H16150   3.371   3.765   9.712 -1.4170 -0.1297 -1.5084
  120MOL0     H16151   3.712   3.578   9.594 -1.9236  0.7196 -0.6651
  120MOL0     H16152   3.842   3.417   9.926  0.4228 -0.1754  0.2969
  120MOL0     H16153   3.811   3.371   9.750 -0.2987  0.8669 -0.0854
  120MOL0     H16154   3.990   3.604   9.781  1.4351  0.7927  5.2922
  120MOL0     H16155   4.055   3.461   9.870  0.9603 -3.2899 -2.3961
  120MOL0     H16156   3.983   3.476   9.567  1.8921 -2.4108 -2.5751
  120MOL0     H16157   4.002   3.324   9.652 -2.5852  0.3383 -2.1676
  120MOL0     H16158   4.231   3.382   9.710 -1.5914 -0.4606  0.4594
  120MOL0     H16159   4.204   3.546   9.635  1.7076 -0.3595  0.0299
  120MOL0     H16160   4.257   3.260   9.278  0.4310 -1.4888  0.8734
  120MOL0     H16161   4.461   3.203   9.194  2.8523 -0.8001 -0.2313
  120MOL0     H16162   4.965   3.030   9.432  0.7981 -0.2181 -0.1857
  120MOL0     H16163   5.184   2.970   9.352  2.3197  0.3169 -3.1809
  120MOL0     H16164   5.288   3.173   9.010 -2.8482 -0.4588  3.8292
  120MOL0     H16165   5.388   3.283   9.102 -2.1730  0.2660  2.4793
  120MOL0     H16166   5.496   2.998   9.026 -1.7054  0.6965  0.8665
  120MOL0     H16167   5.534   3.138   8.929  0.4613 -0.5545 -0.9183
  120MOL0     H16168   5.648   3.244   9.118  1.6752 -0.0378  2.3729
  120MOL0     H16169   5.576   3.129   9.236  0.4403 -0.7623 -0.3131
  120MOL0     H16170   5.764   3.038   9.012  2.9448 -1.3825  0.9886
  120MOL0     H16171   5.695   2.935   9.129 -0.2664  0.0951  1.2408
  120MOL0     H16172   5.805   3.047   9.317  1.4141 -0.2547  0.1681
  120MOL0     H16173   5.873   3.174   9.213  2.9807 -0.3832  1.2129
  120MOL0     H16174   5.951   2.888   9.226  0.7887 -0.0472 -1.6124
  120MOL0     H16175   5.969   2.971   9.079 -1.8323 -0.9014 -1.0931
  120MOL0     H16176   6.076   3.108   9.332 -2.4469 -1.1020  0.5346
  120MOL0     H16177   6.131   3.123   9.163  2.1181 -0.7835 -0.8520
  120MOL0     H16178   6.291   2.983   9.322 -2.5608 -0.2144  3.7579
  120MOL0     H16179   6.157   2.873   9.343  0.5828 -0.0591  1.0525
  120MOL0     H16180   5.204   3.353   9.147  2.1641 -1.4911 -0.1826
  120MOL0     H16181   4.967   3.415   9.256 -0.8201 -0.4689  2.1914
  120MOL0     H16182   4.671   3.419   9.505  0.2664 -1.9131  1.5544
  120MOL0     H16183   4.462   3.462   9.611 -0.6132  0.0486  0.1852
  120MOL0     H16184   2.665   3.088   9.330  0.8775 -0.4166 -0.5144
  120MOL0     H16185   2.565   2.990   9.129  2.4328 -1.5748 -3.0806
  120MOL0     H16186   2.334   2.659   9.153  0.6166  3.1418 -1.5241
  120MOL0     H16187   2.128   2.561   9.135  0.6968  1.2490  0.7859
  120MOL0     H16188   2.130   2.188   8.938  0.3809 -0.7282  0.9176
  120MOL0     H16189   1.956   2.194   8.887 -1.6528 -3.5578  1.7574
  120MOL0     H16190   2.065   2.154   9.169 -0.4085 -1.5853 -0.0588
  120MOL0     H16191   1.959   2.055   9.093  1.3074 -0.3746  2.2501
  120MOL0     H16192   1.777   2.219   9.085 -0.0867 -1.3194 -1.4221
  120MOL0     H16193   1.877   2.348   9.163 -1.5328  0.0300 -1.6709
  120MOL0     H16194   1.711   2.203   9.317 -0.1981  0.1770 -0.0383
  120MOL0     H16195   1.808   2.069   9.259  1.1784 -0.1364 -0.1606
  120MOL0     H16196   2.049   2.246   9.557 -0.4537 -0.6490  0.4737
  120MOL0     H16197   2.256   2.311   8.814  3.1440 -0.9980 -1.7251
  120MOL0     H16198   2.588   2.384   8.807  0.9627 -0.7296 -1.4568
  120MOL0     H16199   2.455   2.384   8.693  2.1876  0.1968 -0.6811
  120MOL0     H16200   2.534   2.533   8.724 -3.1924  0.4966 -2.1236
  121MOL0     O16201   6.913   3.317   4.456 -0.1707 -0.2848  0.2448
  121MOL0     C16202   6.839   3.403   4.409 -1.1611  0.6770  0.4160
  121MOL0     O16203   6.814   3.426   4.276  0.1742  0.2733 -1.1120
  121MOL0     C16204   6.882   3.370   4.169  0.8463  0.3715 -0.3906
  121MOL0     C16205   7.007   3.309   4.166  0.1288  0.1629  0.1862
  121MOL0     C16206   7.060   3.259   4.051  0.2223  0.5144  0.5406
  121MOL0     C16207   6.987   3.265   3.933 -0.6359 -0.5904  1.0068
  121MOL0     O16208   7.031   3.223   3.805 -0.2878 -0.0356 -0.3946
  121MOL0     C16209   7.157   3.161   3.794 -1.1627 -0.2426  0.5546
  121MOL0     C16210   7.204   3.175   3.650 -0.2359  0.0743  0.5233
  121MOL0     C16211   7.327   3.094   3.642  0.3331  0.6656  0.5633
  121MOL0     C16212   7.364   3.080   3.495  1.0601  0.5531 -0.5666
  121MOL0     C16213   7.514   3.047   3.463  0.2544  0.6396 -0.3371
  121MOL0     C16214   7.574   2.939   3.562 -0.9753  0.4679 -0.0564
  121MOL0     C16215   7.705   2.872   3.524  0.1016  0.0021 -0.1601
  121MOL0     C16216   7.812   2.970   3.464 -0.6362  0.3012 -0.1813
  121MOL0     N16217   7.942   2.905   3.448 -0.0270  0.8820  0.0189
  121MOL0     C16218   8.014   2.901   3.335  0.3709 -0.5156  0.7918
  121MOL0     C16219   8.121   2.816   3.355 -0.0683  0.6728 -0.3276
  121MOL0     C16220   8.250   2.791   3.276  0.5021  0.4458  0.2988
  121MOL0     C16221   8.371   2.817   3.363  0.4336  0.1421 -0.8838
  121MOL0     C16222   8.487   2.852   3.281  0.2869  0.1333  0.6095
  121MOL0     C16223   8.613   2.819   3.358  0.1869  0.3368  0.1426
  121MOL0     O16224   8.640   2.924   3.454 -0.4209  0.2268 -0.0829
  121MOL0     C16225   8.761   2.935   3.514  0.6302  0.4073 -0.5941
  121MOL0     C16226   8.875   2.865   3.480  0.1752 -0.5537 -0.0545
  121MOL0     C16227   8.997   2.902   3.535 -0.1237  0.2648 -0.1462
  121MOL0     C16228   9.020   3.005   3.628  0.1975 -0.3571 -0.1579
  121MOL0     C16229   9.149   3.026   3.688 -0.6697  0.2288 -0.6371
  121MOL0     O16230   9.247   2.928   3.665  1.0935  0.0918 -0.6375
  121MOL0     C16231   9.364   2.932   3.742  0.8238 -0.3911 -0.4077
  121MOL0     C16232   9.473   3.021   3.722  0.2683 -0.2084 -0.3304
  121MOL0     C16233   9.584   3.010   3.805  0.0901 -0.4334 -0.9144
  121MOL0     C16234   9.580   2.926   3.919  0.8560  1.5522 -0.3525
  121MOL0     O16235   9.691   2.910   4.008 -0.8208  0.3026  0.5435
  121MOL0     C16236   9.672   2.911   4.148 -0.1136  0.3947 -0.3752
  121MOL0     C16237   9.800   2.896   4.238  0.4957 -0.0012  0.0406
  121MOL0     C16238   9.880   2.772   4.210 -0.8524  0.2785 -0.2634
  121MOL0     C16239   9.994   2.749   4.320 -0.2209 -0.4222  0.8297
  121MOL0     C16240  10.065   2.616   4.305 -0.3371 -0.5272  0.7543
  121MOL0     C16241  10.191   2.609   4.391  1.2226 -0.8726  0.6082
  121MOL0     C16242  10.187   2.640   4.543 -0.2931 -0.4754  0.0771
  121MOL0     C16243  10.334   2.627   4.589  0.8990 -0.1709 -0.5849
  121MOL0    Cl16244  10.368   2.711   4.741 -0.0195  0.2221 -0.1184
  121MOL0     C16245   9.471   2.839   3.939  0.4138  0.1306  0.7265
  121MOL0     C16246   9.361   2.843   3.849 -1.2605  0.8740 -0.5778
  121MOL0     O16247   9.161   3.123   3.765 -0.0683 -0.0973  0.4035
  121MOL0     C16248   8.900   3.075   3.669 -0.3517  0.1070 -0.6994
  121MOL0     C16249   8.778   3.024   3.616  0.7863 -1.0984  0.0044
  121MOL0     N16250   8.103   2.771   3.487  0.0584 -0.0244 -0.0359
  121MOL0     N16251   7.997   2.818   3.535 -0.1592 -0.1901  0.3997
  121MOL0     C16252   6.871   3.324   3.934  0.2542  0.6904  0.2781
  121MOL0     C16253   6.813   3.374   4.052  0.0936 -0.1790 -0.2314
  121MOL0     C16254   6.784   3.494   4.519 -0.0234 -0.2592  0.4209
  121MOL0     C16255   6.857   3.495   4.644 -0.3915 -0.0884 -0.0755
  121MOL0     C16256   6.820   3.574   4.749  0.0085 -0.2712  0.4547
  121MOL0     C16257   6.704   3.654   4.743 -0.7453  0.2022  0.5168
  121MOL0     O16258   6.655   3.736   4.842 -0.3794  0.3944 -0.2620
  121MOL0     C16259   6.721   3.728   4.971 -0.0009 -0.6881  1.0025
  121MOL0     C16260   6.672   3.844   5.058  0.3992 -0.3765  0.4092
  121MOL0     C16261   6.770   3.878   5.168 -0.1018  0.4300  0.4172
  121MOL0     C16262   6.737   3.998   5.258 -0.5580 -0.9512  1.6778
  121MOL0     C16263   6.610   3.981   5.331 -0.4411  0.3660 -0.6846
  121MOL0     C16264   6.512   3.961   5.400 -0.2505  0.3406 -0.0271
  121MOL0     C16265   6.632   3.653   4.630 -0.6707 -0.4909 -0.2318
  121MOL0     C16266   6.676   3.582   4.514  0.3123 -0.1195  0.9251
  121MOL0     C16267   6.595   3.616   4.391  1.0119 -0.4923 -0.6399
  121MOL0     H16268   7.064   3.301   4.258  0.5895  0.0048 -0.1111
  121MOL0     H16269   7.151   3.205   4.075 -0.4104  0.4576  3.0852
  121MOL0     H16270   7.228   3.221   3.852  2.3934 -4.2478  0.9491
  121MOL0     H16271   7.157   3.062   3.841  0.0459  0.4440  2.1122
  121MOL0     H16272   7.226   3.280   3.629 -0.4985 -0.2654 -1.7581
  121MOL0     H16273   7.140   3.128   3.574  1.5625 -0.9803 -0.4173
  121MOL0     H16274   7.315   2.995   3.687 -0.9687 -0.2687 -1.6577
  121MOL0     H16275   7.410   3.146   3.690 -0.7531  1.5632  1.5305
  121MOL0     H16276   7.305   2.999   3.452 -2.3562  0.5527  3.5933
  121MOL0     H16277   7.325   3.167   3.440 -1.5942  2.3931  3.7411
  121MOL0     H16278   7.530   3.009   3.362 -0.6531  3.8079 -1.7847
  121MOL0     H16279   7.581   3.134   3.462  0.2448  0.7209  1.5627
  121MOL0     H16280   7.577   2.987   3.660 -1.5618 -1.2351  0.8403
  121MOL0     H16281   7.504   2.856   3.581 -0.8616  0.2627 -0.5101
  121MOL0     H16282   7.680   2.807   3.440  0.4953  3.8758 -3.5646
  121MOL0     H16283   7.736   2.825   3.618 -1.9445  2.1887  1.7775
  121MOL0     H16284   7.770   3.015   3.373 -2.4422  0.7976  0.8390
  121MOL0     H16285   7.830   3.051   3.534  0.2942  0.0173 -0.0836
  121MOL0     H16286   7.999   2.963   3.247  0.0251 -0.6104  0.7813
  121MOL0     H16287   8.249   2.689   3.237  1.8377  0.5942 -0.1996
  121MOL0     H16288   8.251   2.868   3.198  0.9740 -0.5402 -0.6916
  121MOL0     H16289   8.353   2.890   3.442 -0.7269  0.3725 -1.3357
  121MOL0     H16290   8.379   2.726   3.423 -0.9904 -0.2714 -1.2796
  121MOL0     H16291   8.489   2.958   3.256 -1.2449  0.4165  1.5737
  121MOL0     H16292   8.489   2.796   3.187  3.0914  0.5108  0.3484
  121MOL0     H16293   8.690   2.790   3.286 -0.0810 -0.9830  0.3637
  121MOL0     H16294   8.604   2.730   3.422  1.8104 -1.3002 -1.7633
  121MOL0     H16295   8.869   2.775   3.420 -2.2744 -2.0042  2.1469
  121MOL0     H16296   9.084   2.848   3.497  2.0468 -0.2115  4.6819
  121MOL0     H16297   9.476   3.090   3.639 -0.9196  0.2948  0.0317
  121MOL0     H16298   9.671   3.073   3.788  2.7443 -2.3702  3.7130
  121MOL0     H16299   9.611   2.998   4.176 -0.0977 -0.8988  4.7378
  121MOL0     H16300   9.609   2.828   4.179  1.0641 -1.2459 -2.1977
  121MOL0     H16301   9.862   2.986   4.227  1.3978 -0.7236 -1.0346
  121MOL0     H16302   9.764   2.878   4.339 -0.2682  0.9887 -0.0376
  121MOL0     H16303   9.809   2.688   4.206 -0.7689  0.1785  0.2977
  121MOL0     H16304   9.929   2.763   4.113 -1.0494 -0.6203 -0.2917
  121MOL0     H16305   9.947   2.744   4.419 -2.2612  4.1030  0.3323
  121MOL0     H16306  10.059   2.837   4.322 -0.7781  0.1480 -1.9657
  121MOL0     H16307  10.092   2.610   4.199  1.5373 -0.6473  1.1997
  121MOL0     H16308   9.992   2.538   4.328 -0.3286 -1.4706 -2.0077
  121MOL0     H16309  10.225   2.506   4.382  0.0544 -1.1555 -0.8698
  121MOL0     H16310  10.260   2.681   4.345 -1.6460  1.6800 -0.0968
  121MOL0     H16311  10.125   2.572   4.601  0.8971 -0.7687  1.0501
  121MOL0     H16312  10.154   2.744   4.557  1.8287  0.1281  1.1570
  121MOL0     H16313  10.359   2.521   4.603  0.9490 -0.0880 -0.0178
  121MOL0     H16314  10.410   2.654   4.516  0.8832 -1.5914 -1.1645
  121MOL0     H16315   9.469   2.781   4.031  2.3365 -0.4259  0.4574
  121MOL0     H16316   9.272   2.780   3.858  1.2041 -2.9619 -0.6531
  121MOL0     H16317   8.887   3.152   3.743 -0.5311 -0.6800  0.1115
  121MOL0     H16318   8.687   3.077   3.643  2.1728  1.3949  0.0670
  121MOL0     H16319   6.813   3.320   3.842 -0.2554 -0.7553  0.6375
  121MOL0     H16320   6.713   3.416   4.058  0.1177 -0.2112  0.4962
  121MOL0     H16321   6.940   3.427   4.662 -1.6687 -1.6409  0.1401
  121MOL0     H16322   6.888   3.581   4.834 -0.9941 -1.2960  1.3776
  121MOL0     H16323   6.830   3.731   4.965 -0.1037  0.1839 -1.4486
  121MOL0     H16324   6.677   3.637   5.014 -2.4062 -0.0741 -0.0389
  121MOL0     H16325   6.574   3.827   5.102 -0.2185  0.3350 -0.6424
  121MOL0     H16326   6.656   3.931   4.994  0.4230 -1.8343 -1.6906
  121MOL0     H16327   6.868   3.896   5.123  0.4899 -1.3437  0.9462
  121MOL0     H16328   6.796   3.793   5.231 -0.8239  0.4339  0.7270
  121MOL0     H16329   6.816   4.011   5.333 -0.1706  2.5964  0.8084
  121MOL0     H16330   6.732   4.088   5.197 -1.4975 -3.8876 -3.1769
  121MOL0     H16331   6.422   3.931   5.451  0.7244 -0.9101  1.0065
  121MOL0     H16332   6.549   3.723   4.621 -0.1286  0.1590 -0.2764
  121MOL0     H16333   6.544   3.529   4.349 -1.7904  0.2004  1.0363
  121MOL0     H16334   6.515   3.686   4.417 -0.3349 -2.2541  0.2117
  121MOL0     H16335   6.648   3.666   4.310  2.9832  1.2252  1.5647
  122MOL0     O16336   0.198  11.134   7.606 -0.2596 -0.1092  0.2392
  122MOL0     C16337   0.168  11.074   7.498  0.6171 -0.2732  0.2609
  122MOL0     O16338   0.259  11.008   7.424  0.3591  0.3618 -0.0290
  122MOL0     C16339   0.384  10.985   7.486  0.3447 -0.2690  0.3099
  122MOL0     C16340   0.416  10.857   7.538  0.0843  0.3333  0.9352
  122MOL0     C16341   0.543  10.820   7.591 -0.1806 -1.0093 -0.2656
  122MOL0     C16342   0.647  10.918   7.593  0.9885 -0.4798  1.0262
  122MOL0     O16343   0.764  10.897   7.650  0.1301  0.2085 -1.2179
  122MOL0     C16344   0.888  10.939   7.594 -0.4813  0.3731 -0.2143
  122MOL0     C16345   0.954  11.029   7.700  0.0796 -0.4291 -0.8617
  122MOL0     C16346   1.077  10.974   7.759  0.4101 -0.4409  0.6130
  122MOL0     C16347   1.154  11.067   7.856 -0.4370 -0.5653 -0.7155
  122MOL0     C16348   1.277  11.001   7.908  0.6549  0.7298 -0.1908
  122MOL0     C16349   1.345  11.095   8.000  0.4617 -0.3301 -0.1270
  122MOL0     C16350   1.411  11.223   7.944 -1.5218  0.7656 -0.0611
  122MOL0     C16351   1.494  11.293   8.045  0.5711 -0.5665  0.0341
  122MOL0     N16352   1.609  11.218   8.096  0.6213 -0.8530  0.0910
  122MOL0     C16353   1.704  11.176   8.016 -0.0828 -0.1374 -0.3854
  122MOL0     C16354   1.801  11.135   8.094 -0.5485  0.2579 -0.2864
  122MOL0     C16355   1.922  11.078   8.056  0.0304  0.2737 -0.1652
  122MOL0     C16356   1.918  10.975   7.943  0.1815 -0.4016  0.6367
  122MOL0     C16357   2.060  10.920   7.918  0.6343 -1.0787  0.0405
  122MOL0     C16358   2.053  10.790   7.842 -0.2940 -0.2330  0.0401
  122MOL0     O16359   1.956  10.795   7.731 -1.1727  0.5437  0.6155
  122MOL0     C16360   1.884  10.685   7.703  0.4019  0.0402 -0.3271
  122MOL0     C16361   1.790  10.636   7.794 -0.2537  0.4322  1.3616
  122MOL0     C16362   1.715  10.517   7.760 -0.7499  0.6082  0.1646
  122MOL0     C16363   1.732  10.451   7.641 -0.6977  0.2103  0.0601
  122MOL0     C16364   1.654  10.332   7.605  0.8508  0.2411  0.0273
  122MOL0     O16365   1.558  10.283   7.687 -0.3977  0.1005  0.2982
  122MOL0     C16366   1.498  10.165   7.649 -0.9313  0.8180 -0.7059
  122MOL0     C16367   1.535  10.036   7.701  0.3132 -0.6154  0.5998
  122MOL0     C16368   1.465   9.917   7.667 -0.1270  0.2936  0.0138
  122MOL0     C16369   1.348   9.923   7.590 -1.0134  0.3850  0.6021
  122MOL0     O16370   1.288   9.807   7.568 -0.4815  0.0848  0.5652
  122MOL0     C16371   1.147   9.798   7.540 -0.5690  0.2271  0.2102
  122MOL0     C16372   1.114   9.751   7.396  0.7929  0.4897 -0.0775
  122MOL0     C16373   0.960   9.754   7.380 -0.0254  0.3008  0.0552
  122MOL0     C16374   0.881   9.643   7.461  0.1745  0.6390  0.0653
  122MOL0     C16375   0.732   9.642   7.463 -0.4936 -0.3423  0.1526
  122MOL0     C16376   0.673   9.510   7.525  0.7532  0.2824  0.5136
  122MOL0     C16377   0.704   9.381   7.449 -0.1582 -0.9650  0.8017
  122MOL0     C16378   0.643   9.264   7.502 -0.4069 -0.2538  0.1983
  122MOL0    Cl16379   0.470   9.269   7.473 -0.0580 -0.2642  0.3812
  122MOL0     C16380   1.312  10.050   7.540  0.5906 -0.3395 -0.3368
  122MOL0     C16381   1.387  10.166   7.572  0.4222  0.1576  0.8291
  122MOL0     O16382   1.703  10.271   7.507 -0.2351  0.5097  0.1189
  122MOL0     C16383   1.831  10.505   7.554 -0.1725  0.8144 -0.6646
  122MOL0     C16384   1.906  10.618   7.587 -0.1180  0.0994 -0.5858
  122MOL0     N16385   1.758  11.148   8.225 -0.3674 -0.6483 -0.0011
  122MOL0     N16386   1.637  11.190   8.227 -0.6400 -0.0814  0.9637
  122MOL0     C16387   0.613  11.047   7.532 -0.0132  0.1677  1.0038
  122MOL0     C16388   0.486  11.079   7.477 -0.2614 -0.3954 -0.4227
  122MOL0     C16389   0.030  11.060   7.461  0.3128 -0.3540 -0.1575
  122MOL0     C16390  -0.039  11.176   7.428 -0.8988 -1.4885  0.0576
  122MOL0     C16391  -0.177  11.160   7.384  0.4092  0.1430 -1.0021
  122MOL0     C16392  -0.237  11.035   7.394  0.1771  0.3433  0.5145
  122MOL0     O16393  -0.368  11.003   7.352 -0.4212 -0.8682 -0.0773
  122MOL0     C16394  -0.437  11.097   7.271  0.4644 -0.8170  0.0490
  122MOL0     C16395  -0.387  11.129   7.135  0.0587  0.3369  1.0795
  122MOL0     C16396  -0.387  11.006   7.045  0.5833  0.0635  0.8088
  122MOL0     C16397  -0.358  11.039   6.895 -0.8902  0.3125 -1.4068
  122MOL0     C16398  -0.217  11.036   6.858 -0.2172  0.0329 -0.4768
  122MOL0     C16399  -0.105  11.031   6.819  0.1590 -0.6047 -0.1399
  122MOL0     C16400  -0.172  10.926   7.459  0.2352  0.4969  0.2119
  122MOL0     C16401  -0.038  10.940   7.487 -0.5851 -0.1190  0.0241
  122MOL0     C16402   0.024  10.826   7.573 -0.0842 -0.5937 -0.2433
  122MOL0     H16403   0.339  10.782   7.530 -0.0984  0.6766 -0.9895
  122MOL0     H16404   0.572  10.723   7.629  2.2205 -1.5564 -3.0964
  122MOL0     H16405   0.939  10.843   7.577 -2.1775 -0.9153  1.5363
  122MOL0     H16406   0.870  10.996   7.502  1.6732 -0.7163 -1.4175
  122MOL0     H16407   0.887  11.037   7.786 -0.0725  2.6096 -1.1427
  122MOL0     H16408   0.978  11.129   7.662 -0.0374 -0.2895 -0.5734
  122MOL0     H16409   1.143  10.938   7.679 -0.5740  2.2587 -1.6033
  122MOL0     H16410   1.048  10.888   7.820 -0.6734 -0.4429  0.1119
  122MOL0     H16411   1.181  11.161   7.808 -0.5641 -0.1414  0.0379
  122MOL0     H16412   1.085  11.087   7.938 -1.2493 -0.9733 -1.2807
  122MOL0     H16413   1.248  10.913   7.967 -0.2580  0.5378 -0.9033
  122MOL0     H16414   1.347  10.982   7.826  2.7759 -0.3845  1.7425
  122MOL0     H16415   1.279  11.131   8.079  0.2025  0.0645 -0.5190
  122MOL0     H16416   1.425  11.050   8.060  2.9058  3.0698 -0.5554
  122MOL0     H16417   1.340  11.305   7.929 -1.3326  0.6912 -1.5307
  122MOL0     H16418   1.457  11.208   7.846 -0.0827 -1.3016  0.8610
  122MOL0     H16419   1.528  11.381   7.990  1.4983 -2.2833 -2.3432
  122MOL0     H16420   1.441  11.327   8.134  1.5384  2.3136 -0.4002
  122MOL0     H16421   1.693  11.175   7.908  0.4010 -1.3165 -0.4442
  122MOL0     H16422   1.980  11.156   8.007  0.3951 -1.6079 -2.9671
  122MOL0     H16423   1.972  11.032   8.141 -0.4419 -1.1789 -0.6405
  122MOL0     H16424   1.850  10.895   7.974 -0.9488  1.0015  1.9220
  122MOL0     H16425   1.882  11.021   7.851  3.9884 -1.5650 -1.6552
  122MOL0     H16426   2.116  10.899   8.010  0.6612 -2.3108 -0.2295
  122MOL0     H16427   2.114  10.995   7.860 -1.2790  0.4792  0.1606
  122MOL0     H16428   2.032  10.713   7.915 -0.2397  1.7948  2.3240
  122MOL0     H16429   2.147  10.765   7.791  0.5331  0.4996  1.1582
  122MOL0     H16430   1.760  10.686   7.886 -1.8817 -0.2707  1.2483
  122MOL0     H16431   1.635  10.494   7.830 -0.8424  1.7907  0.4806
  122MOL0     H16432   1.621  10.047   7.766  1.3515 -0.2642 -0.7672
  122MOL0     H16433   1.499   9.824   7.712  1.0029 -0.0493 -1.4806
  122MOL0     H16434   1.107   9.732   7.617  0.5112 -0.0249  0.5688
  122MOL0     H16435   1.093   9.890   7.565 -2.9245 -0.8485 -0.6408
  122MOL0     H16436   1.159   9.816   7.321  2.3099 -1.7469 -1.2397
  122MOL0     H16437   1.143   9.648   7.371 -1.2670  0.1843 -1.4259
  122MOL0     H16438   0.935   9.859   7.397 -0.5114  1.1696 -4.6277
  122MOL0     H16439   0.955   9.749   7.271  3.1307 -1.1139 -0.1227
  122MOL0     H16440   0.906   9.639   7.567 -1.1629 -0.7336  0.3609
  122MOL0     H16441   0.925   9.549   7.424 -0.8927  0.7908 -1.7397
  122MOL0     H16442   0.688   9.641   7.363 -0.7908 -4.9182  0.1179
  122MOL0     H16443   0.692   9.721   7.527 -0.8535 -1.0386  0.7965
  122MOL0     H16444   0.708   9.500   7.628  0.2903  2.9339  0.9913
  122MOL0     H16445   0.564   9.522   7.528  0.3612 -2.0337 -1.3426
  122MOL0     H16446   0.812   9.375   7.432  0.3223  4.7834  0.0552
  122MOL0     H16447   0.665   9.395   7.348  2.2795 -0.3140 -0.1096
  122MOL0     H16448   0.680   9.178   7.446  0.2555  0.4620 -0.4927
  122MOL0     H16449   0.657   9.253   7.610 -2.8039 -2.6288  0.3735
  122MOL0     H16450   1.231  10.052   7.468  1.8099  2.5234 -1.8057
  122MOL0     H16451   1.360  10.265   7.538  3.2037  0.1581 -1.8134
  122MOL0     H16452   1.860  10.464   7.457  0.6335  0.9314 -0.4828
  122MOL0     H16453   1.985  10.651   7.520  0.5327 -2.1952 -1.0220
  122MOL0     H16454   0.686  11.127   7.531 -1.3060  1.3809  0.5326
  122MOL0     H16455   0.459  11.180   7.448  2.7630 -0.2142 -3.1191
  122MOL0     H16456   0.019  11.267   7.421 -1.9877 -0.6466  1.4097
  122MOL0     H16457  -0.234  11.251   7.375 -2.7156 -1.3498  1.5456
  122MOL0     H16458  -0.461  11.192   7.318 -0.7715 -2.2312  2.4644
  122MOL0     H16459  -0.534  11.049   7.257  0.8077 -1.3444 -0.6164
  122MOL0     H16460  -0.292  11.183   7.137 -0.6783  2.1407 -2.9712
  122MOL0     H16461  -0.460  11.195   7.087 -2.6738 -2.1367  1.5947
  122MOL0     H16462  -0.479  10.949   7.057  1.0824 -0.4499  2.4899
  122MOL0     H16463  -0.307  10.942   7.081  0.7453 -0.2299 -0.0409
  122MOL0     H16464  -0.389  10.955   6.832 -1.2060 -0.6237 -0.0472
  122MOL0     H16465  -0.409  11.134   6.875 -0.3596  0.8474 -0.3188
  122MOL0     H16466  -0.001  11.032   6.792 -0.0211  1.6117 -0.9079
  122MOL0     H16467  -0.222  10.832   7.478  1.3287 -0.0859  0.2920
  122MOL0     H16468  -0.044  10.743   7.593 -1.1898  0.0965 -1.0257
  122MOL0     H16469   0.101  10.776   7.513  0.1911 -2.4310  1.5378
  122MOL0     H16470   0.059  10.865   7.669  1.3325  2.2354 -1.7984
  123MOL0     O16471  11.003  10.176  10.179 -0.8673  0.1345 -0.9050
  123MOL0     C16472  10.915  10.097  10.151 -0.2333 -0.3448  1.2477
  123MOL0     O16473  10.927   9.959  10.134 -0.6731 -0.7957 -0.7122
  123MOL0     C16474  11.057   9.907  10.141  0.0496 -0.3341 -0.1735
  123MOL0     C16475  11.084   9.803  10.236 -0.6936 -1.1154  0.1203
  123MOL0     C16476  11.200   9.726  10.221  0.5103  0.8577 -0.3323
  123MOL0     C16477  11.288   9.769  10.119  0.2192 -0.1508 -0.2918
  123MOL0     O16478  11.407   9.703  10.122  0.0287  0.0453 -0.3747
  123MOL0     C16479  11.448   9.640  10.003  0.2584  0.5883  0.5079
  123MOL0     C16480  11.592   9.591  10.020  0.2855  0.5403  0.4769
  123MOL0     C16481  11.685   9.700   9.973  0.1335  0.0816  0.0071
  123MOL0     C16482  11.813   9.710  10.056  0.5246  0.1902 -0.0792
  123MOL0     C16483  11.922   9.624  10.018 -0.2911  0.4784 -0.1980
  123MOL0     C16484  12.022   9.583  10.130 -1.0676  0.4117  0.3201
  123MOL0     C16485  12.141   9.507  10.078  0.3375  1.0095  0.7783
  123MOL0     C16486  12.222   9.576   9.960  0.0346 -0.5937 -0.5572
  123MOL0     N16487  12.352   9.500   9.942 -0.3855 -0.2137  0.2080
  123MOL0     C16488  12.374   9.390   9.864 -0.0028 -0.0160 -0.4633
  123MOL0     C16489  12.506   9.358   9.875  0.0419  0.5760  0.6665
  123MOL0     C16490  12.573   9.239   9.822  0.0940 -1.6418 -0.6855
  123MOL0     C16491  12.716   9.271   9.781 -0.4563 -0.4523 -0.2118
  123MOL0     C16492  12.798   9.241   9.914 -0.6609 -0.3387  0.4255
  123MOL0     C16493  12.945   9.228   9.888  0.1812  0.1434 -0.5757
  123MOL0     O16494  12.991   9.343   9.818 -0.3358 -0.2364  0.1310
  123MOL0     C16495  13.119   9.371   9.814 -0.0442  0.4517 -0.1319
  123MOL0     C16496  13.184   9.344   9.690 -0.0928 -0.3635  0.9934
  123MOL0     C16497  13.323   9.363   9.672 -0.3174 -0.3279 -0.3315
  123MOL0     C16498  13.395   9.385   9.783 -0.2049 -0.8080  0.0148
  123MOL0     C16499  13.538   9.407   9.768  0.7611  0.3107 -0.0852
  123MOL0     O16500  13.607   9.447   9.872  0.6108 -0.2512  0.1072
  123MOL0     C16501  13.744   9.485   9.871 -0.0011 -0.2485 -0.9708
  123MOL0     C16502  13.821   9.516   9.759  0.4939 -0.5363  0.4838
  123MOL0     C16503  13.954   9.550   9.764  0.3502  0.1039 -0.7227
  123MOL0     C16504  14.023   9.546   9.887 -0.3929  0.4931 -0.3010
  123MOL0     O16505  14.156   9.537   9.909  0.1294  0.7994  0.3103
  123MOL0     C16506  14.252   9.532   9.803 -0.3477 -0.4257  0.5011
  123MOL0     C16507  14.332   9.666   9.796  0.5826  0.1908  0.0956
  123MOL0     C16508  14.445   9.644   9.687 -0.3154  0.4605  0.0633
  123MOL0     C16509  14.569   9.607   9.773  0.0717  0.2115 -0.7298
  123MOL0     C16510  14.682   9.563   9.675  0.1477  0.1781 -0.0989
  123MOL0     C16511  14.811   9.537   9.758 -0.0223 -0.0392  0.3527
  123MOL0     C16512  14.924   9.499   9.660  0.3314 -0.4001  0.7062
  123MOL0     C16513  14.999   9.619   9.598 -0.2045  0.2478 -0.1789
  123MOL0    Cl16514  15.134   9.549   9.507  0.4559 -0.0936  0.1742
  123MOL0     C16515  13.952   9.522  10.003  0.0027  0.3734  0.2154
  123MOL0     C16516  13.810   9.494   9.996  0.1934 -0.6941  0.8291
  123MOL0     O16517  13.582   9.371   9.659  0.3982 -0.2582  0.2560
  123MOL0     C16518  13.337   9.405   9.910  1.0387 -0.1420  0.1496
  123MOL0     C16519  13.202   9.402   9.921  0.0006  1.0298  0.3472
  123MOL0     N16520  12.560   9.437   9.970  0.6755 -0.0935  0.4416
  123MOL0     N16521  12.479   9.526  10.006  0.4716 -0.5375  0.3431
  123MOL0     C16522  11.271   9.880  10.040 -0.2135  0.5758  0.0858
  123MOL0     C16523  11.153   9.952  10.046 -0.5205  0.5014 -0.3507
  123MOL0     C16524  10.777  10.143  10.169 -0.3354  0.4257 -1.3214
  123MOL0     C16525  10.686  10.050  10.238  0.5116  0.6594  0.4338
  123MOL0     C16526  10.550  10.092  10.261 -0.5712  1.4806  0.8075
  123MOL0     C16527  10.503  10.215  10.208 -1.2982  0.8356  0.2161
  123MOL0     O16528  10.373  10.255  10.199  0.1464  0.0439  0.0953
  123MOL0     C16529  10.264  10.175  10.250  0.9829  0.1629  0.7572
  123MOL0     C16530  10.222  10.051  10.172  0.0012 -0.1181  0.7660
  123MOL0     C16531  10.229  10.075  10.022 -0.1051  0.0618  0.5496
  123MOL0     C16532  10.166   9.961   9.943 -0.3958  0.0288 -0.6805
  123MOL0     C16533  10.279   9.880   9.903  0.1776 -0.0903  0.2467
  123MOL0     C16534  10.369   9.806   9.873 -0.1052  0.4221 -0.5961
  123MOL0     C16535  10.596  10.300  10.139  0.9331 -0.2369  0.4492
  123MOL0     C16536  10.729  10.271  10.126  0.4353  0.4430  0.0606
  123MOL0     C16537  10.819  10.358  10.044  0.5947 -0.4617 -0.2811
  123MOL0     H16538  11.011   9.771  10.309 -0.9851 -0.9981 -0.1196
  123MOL0     H16539  11.231   9.636  10.275  0.8925  1.6078  0.7276
  123MOL0     H16540  11.372   9.560   9.999 -0.1338  1.0135 -2.2324
  123MOL0     H16541  11.427   9.700   9.914 -0.5069 -0.6177 -0.1640
  123MOL0     H16542  11.607   9.501   9.959 -0.1074 -1.0199  2.5796
  123MOL0     H16543  11.605   9.566  10.126  0.4150  0.1734  0.3746
  123MOL0     H16544  11.634   9.796   9.988 -0.4827 -0.2515  0.0940
  123MOL0     H16545  11.712   9.679   9.869 -1.0182 -2.1134  0.0956
  123MOL0     H16546  11.845   9.815  10.056 -1.7875  0.9336 -0.7717
  123MOL0     H16547  11.783   9.689  10.159 -0.5168  1.1457 -0.1721
  123MOL0     H16548  11.886   9.523   9.997  0.0446 -0.2928  2.5336
  123MOL0     H16549  11.976   9.674   9.937 -0.3665  0.7061 -0.1102
  123MOL0     H16550  12.054   9.678  10.173  2.1183  0.2340 -1.3847
  123MOL0     H16551  11.961   9.524  10.199 -2.5056 -0.6273 -1.7517
  123MOL0     H16552  12.101   9.414  10.035  0.0967  1.1564  0.6788
  123MOL0     H16553  12.207   9.478  10.160  2.6546 -0.7217 -1.5026
  123MOL0     H16554  12.157   9.577   9.873 -0.3769 -1.6492 -0.2833
  123MOL0     H16555  12.257   9.677   9.985  0.7234 -1.2189  1.1549
  123MOL0     H16556  12.291   9.337   9.819 -2.8986  1.7741  2.3479
  123MOL0     H16557  12.556   9.163   9.898 -1.1315 -1.2832 -0.5771
  123MOL0     H16558  12.517   9.204   9.734 -0.5521  0.8894 -1.3492
  123MOL0     H16559  12.759   9.222   9.694  1.8971  1.3514 -0.2039
  123MOL0     H16560  12.726   9.379   9.765  0.9262  0.0042  2.9113
  123MOL0     H16561  12.756   9.158   9.972 -1.8714 -0.3846 -0.4755
  123MOL0     H16562  12.790   9.324   9.986 -1.5409 -1.5851  1.8402
  123MOL0     H16563  12.948   9.138   9.826 -1.2092  0.6295 -1.3878
  123MOL0     H16564  12.985   9.213   9.989 -3.2453  0.2212  0.9163
  123MOL0     H16565  13.117   9.319   9.608  1.6648  0.5752 -0.8048
  123MOL0     H16566  13.369   9.354   9.574 -0.8066  0.0655 -0.6035
  123MOL0     H16567  13.770   9.496   9.666 -1.4578 -0.6872  1.5361
  123MOL0     H16568  13.985   9.565   9.661 -3.2618 -3.2537 -2.5909
  123MOL0     H16569  14.317   9.445   9.811 -1.5025 -1.3731 -0.0559
  123MOL0     H16570  14.210   9.524   9.703  4.3717 -3.3034 -1.5700
  123MOL0     H16571  14.269   9.748   9.759  0.9516 -0.6426 -2.5774
  123MOL0     H16572  14.354   9.685   9.902 -1.9175 -2.0806  1.1385
  123MOL0     H16573  14.416   9.564   9.618 -1.2370  0.1997  0.7388
  123MOL0     H16574  14.469   9.733   9.628  2.5677  0.2200  0.7244
  123MOL0     H16575  14.558   9.535   9.855  1.2104  0.5880 -0.2150
  123MOL0     H16576  14.610   9.700   9.816  0.9233  1.0433 -3.1733
  123MOL0     H16577  14.700   9.644   9.605 -0.7119  1.4167  1.0585
  123MOL0     H16578  14.656   9.474   9.617  1.6927 -1.3275  1.3657
  123MOL0     H16579  14.841   9.629   9.810 -1.1995 -0.1254  1.2126
  123MOL0     H16580  14.789   9.452   9.823 -0.6507 -0.5340 -0.4795
  123MOL0     H16581  14.878   9.444   9.577 -3.7405 -0.0299  2.4672
  123MOL0     H16582  15.003   9.446   9.712  1.2415  0.2059 -0.0245
  123MOL0     H16583  14.942   9.688   9.536  0.4359  0.9980  0.0556
  123MOL0     H16584  15.045   9.674   9.681 -2.3613 -1.0838  2.0381
  123MOL0     H16585  13.999   9.503  10.100  2.0191 -1.4508 -1.0320
  123MOL0     H16586  13.759   9.472  10.089 -1.7345 -1.1990 -0.2906
  123MOL0     H16587  13.407   9.423   9.991  1.7535 -1.9269 -0.0164
  123MOL0     H16588  13.154   9.414  10.017 -0.6038  0.3572  0.1467
  123MOL0     H16589  11.351   9.920   9.978  1.3378  0.9350  2.2082
  123MOL0     H16590  11.132  10.039   9.985 -0.6065 -0.4729 -1.7425
  123MOL0     H16591  10.713   9.949  10.266 -0.2275  0.1925 -0.4452
  123MOL0     H16592  10.490  10.007  10.293  3.0388 -1.4974  0.2830
  123MOL0     H16593  10.173  10.236  10.254  2.5260  2.6790 -0.1773
  123MOL0     H16594  10.291  10.140  10.350 -0.6000 -5.6743 -0.4359
  123MOL0     H16595  10.121  10.021  10.201  0.1201  0.4210  1.7706
  123MOL0     H16596  10.284   9.965  10.199 -0.5615 -1.4893 -1.9189
  123MOL0     H16597  10.332  10.097   9.990  0.1637 -0.2563  1.1760
  123MOL0     H16598  10.172  10.163   9.991 -0.3131 -0.7921 -1.6150
  123MOL0     H16599  10.085   9.913  10.000 -0.2847 -0.8385 -1.2384
  123MOL0     H16600  10.111   9.993   9.854  0.2549 -0.1580 -1.1573
  123MOL0     H16601  10.449   9.745   9.837 -2.3450 -2.2633 -1.3478
  123MOL0     H16602  10.554  10.387  10.090 -2.1448  0.0088  3.1781
  123MOL0     H16603  10.891  10.295   9.991 -0.3510 -1.3283 -0.5621
  123MOL0     H16604  10.761  10.412   9.969  0.2996 -1.4267 -0.7603
  123MOL0     H16605  10.861  10.431  10.115  0.3223  0.1495 -0.7376
  124MOL0     O16606  10.647  10.893   2.661  0.0717  0.0673  0.2434
  124MOL0     C16607  10.666  11.010   2.690 -0.2457 -0.3488  0.4849
  124MOL0     O16608  10.794  11.056   2.707 -0.1546  0.1398  0.9914
  124MOL0     C16609  10.906  10.984   2.713  0.3836 -0.2049 -0.4216
  124MOL0     C16610  10.912  10.856   2.766 -0.4185 -0.9181 -0.1844
  124MOL0     C16611  11.035  10.782   2.756  0.7326  0.5726  0.6489
  124MOL0     C16612  11.152  10.852   2.733  0.2437  0.3944  0.3279
  124MOL0     O16613  11.278  10.808   2.744 -0.1534  0.3287 -0.0149
  124MOL0     C16614  11.308  10.672   2.723 -0.7566  0.6468 -0.4641
  124MOL0     C16615  11.460  10.641   2.761 -0.0526  0.1635 -0.0027
  124MOL0     C16616  11.521  10.515   2.684  0.6442 -0.1651 -0.4185
  124MOL0     C16617  11.651  10.460   2.740 -0.1180  0.7729 -0.7106
  124MOL0     C16618  11.694  10.362   2.632  0.6490  0.8612  0.0969
  124MOL0     C16619  11.833  10.300   2.667  0.0135  0.9229 -0.3691
  124MOL0     C16620  11.839  10.220   2.797  0.6458  0.1479  0.0551
  124MOL0     C16621  11.932  10.097   2.816 -0.5087  0.1631 -0.1669
  124MOL0     N16622  12.083  10.129   2.811  0.9607 -0.3195  0.0386
  124MOL0     C16623  12.161  10.112   2.701 -0.3243  0.2735  0.6500
  124MOL0     C16624  12.288  10.137   2.752  0.0009 -0.1501  0.2901
  124MOL0     C16625  12.408  10.115   2.666 -1.0410  0.3238 -0.2486
  124MOL0     C16626  12.467   9.971   2.687  0.5973 -0.6458  0.7144
  124MOL0     C16627  12.599   9.960   2.611 -0.5592 -0.2475 -0.0057
  124MOL0     C16628  12.718  10.029   2.678  0.0485 -0.3480  0.3026
  124MOL0     O16629  12.829  10.020   2.593 -0.3735  0.7284  0.3010
  124MOL0     C16630  12.955  10.005   2.642  0.9411 -0.6858  0.9351
  124MOL0     C16631  12.997  10.039   2.773  0.0024  0.7010  0.0767
  124MOL0     C16632  13.134  10.032   2.799 -0.4459  0.2606 -0.7238
  124MOL0     C16633  13.233   9.993   2.709 -0.0144 -0.5694 -0.0086
  124MOL0     C16634  13.372  10.006   2.757  0.1343  0.8833 -0.6141
  124MOL0     O16635  13.399  10.101   2.852  0.3103 -0.2487 -0.3894
  124MOL0     C16636  13.523  10.145   2.879  0.4336  0.7001 -0.6089
  124MOL0     C16637  13.528  10.280   2.921 -0.5602 -0.0355  0.4836
  124MOL0     C16638  13.646  10.339   2.961  0.3400  0.2155 -0.7589
  124MOL0     C16639  13.764  10.271   2.948  0.9498 -0.3041 -0.0859
  124MOL0     O16640  13.886  10.335   2.969  0.1991 -0.0354  0.2573
  124MOL0     C16641  13.970  10.334   2.848 -0.6468 -0.2640  0.3629
  124MOL0     C16642  14.117  10.377   2.870  0.4984 -0.0876  0.1037
  124MOL0     C16643  14.210  10.266   2.906  1.0385 -0.3570 -0.7483
  124MOL0     C16644  14.358  10.306   2.927  0.6591  0.1127 -0.2742
  124MOL0     C16645  14.430  10.209   3.018 -0.5627 -0.4426 -0.0548
  124MOL0     C16646  14.573  10.256   3.027 -0.4406  0.0576 -0.2284
  124MOL0     C16647  14.652  10.160   3.119  0.0164 -0.4770 -0.4046
  124MOL0     C16648  14.793  10.212   3.146 -1.3268  0.2172  0.1083
  124MOL0    Cl16649  14.901  10.082   3.195  0.1960  0.5148  0.0316
  124MOL0     C16650  13.763  10.132   2.919 -0.4138 -0.3075 -0.6740
  124MOL0     C16651  13.642  10.076   2.881 -0.5521  0.6798  0.1531
  124MOL0     O16652  13.457   9.947   2.697  0.2911  0.1972  0.4377
  124MOL0     C16653  13.191   9.964   2.578 -0.3491  0.5869 -0.7307
  124MOL0     C16654  13.053   9.964   2.552  0.0119  0.7850  0.7730
  124MOL0     N16655  12.287  10.172   2.882  0.2116  0.2464 -0.3253
  124MOL0     N16656  12.156  10.180   2.914 -0.3663 -0.3466  0.4397
  124MOL0     C16657  11.143  10.985   2.701 -0.8076  0.5569  0.7419
  124MOL0     C16658  11.021  11.040   2.675  0.6762 -0.6360 -0.7100
  124MOL0     C16659  10.541  11.093   2.697 -0.1376  0.4195 -0.1133
  124MOL0     C16660  10.414  11.029   2.666  0.6997 -0.6887 -0.8708
  124MOL0     C16661  10.292  11.108   2.669 -0.0025  0.2097  0.4512
  124MOL0     C16662  10.291  11.245   2.700 -1.0137  0.2156  0.3436
  124MOL0     O16663  10.175  11.309   2.699 -0.1577 -0.1113  0.0245
  124MOL0     C16664  10.161  11.414   2.803  0.0726  0.0942  0.7943
  124MOL0     C16665  10.018  11.463   2.837  0.0886 -0.9072 -0.4105
  124MOL0     C16666   9.921  11.460   2.723  0.7156 -0.1216  0.3126
  124MOL0     C16667   9.776  11.460   2.747  0.4532 -0.3154 -0.1280
  124MOL0     C16668   9.703  11.484   2.624  0.8635  0.4048  0.0385
  124MOL0     C16669   9.644  11.502   2.517  0.1669 -1.0517 -0.2661
  124MOL0     C16670  10.411  11.302   2.734 -0.0191 -0.3062 -0.0602
  124MOL0     C16671  10.538  11.231   2.731  0.5895  0.2735  0.5010
  124MOL0     C16672  10.655  11.318   2.781 -0.1518  0.2937 -0.0244
  124MOL0     H16673  10.820  10.813   2.806 -0.0051  0.8307  2.9827
  124MOL0     H16674  11.037  10.674   2.773  2.0615  0.1520 -1.6854
  124MOL0     H16675  11.242  10.602   2.774  1.0444 -1.6504 -1.0721
  124MOL0     H16676  11.315  10.658   2.615  1.0386 -0.9074 -0.1924
  124MOL0     H16677  11.455  10.628   2.869  0.7473 -0.0884  0.0054
  124MOL0     H16678  11.515  10.730   2.731  0.1381  0.3408  0.8544
  124MOL0     H16679  11.534  10.545   2.579  0.4318 -1.9838 -1.0037
  124MOL0     H16680  11.442  10.440   2.679  1.4579 -1.1070  0.3913
  124MOL0     H16681  11.722  10.543   2.746  1.2017 -0.3439 -0.4959
  124MOL0     H16682  11.638  10.408   2.835 -0.3034 -1.5471 -1.9223
  124MOL0     H16683  11.630  10.273   2.634  0.2296  1.1400 -0.7465
  124MOL0     H16684  11.693  10.419   2.539  1.9755  2.5418  1.0576
  124MOL0     H16685  11.851  10.240   2.576 -2.1911  2.4302 -1.9100
  124MOL0     H16686  11.898  10.387   2.669  0.8503  0.3123 -0.5147
  124MOL0     H16687  11.739  10.189   2.830  0.9751 -0.5127  0.4428
  124MOL0     H16688  11.865  10.290   2.877  0.0539 -0.5145  0.8536
  124MOL0     H16689  11.893  10.048   2.906 -0.6846 -2.8493 -1.7416
  124MOL0     H16690  11.916  10.019   2.740  0.0221 -0.8297  0.7152
  124MOL0     H16691  12.131  10.092   2.598 -0.8050  2.8762  0.2120
  124MOL0     H16692  12.375  10.123   2.563 -0.3592  1.9113 -0.3593
  124MOL0     H16693  12.479  10.192   2.697  1.7861 -2.5020  0.9155
  124MOL0     H16694  12.480   9.955   2.795  0.1482  0.8845  1.0254
  124MOL0     H16695  12.397   9.898   2.645 -0.6324  0.5981  0.5276
  124MOL0     H16696  12.584  10.001   2.510 -0.1992 -1.1496 -0.4312
  124MOL0     H16697  12.621   9.854   2.600 -1.0790 -0.2980 -0.6205
  124MOL0     H16698  12.739   9.974   2.771  2.0640  0.4768  0.4024
  124MOL0     H16699  12.691  10.134   2.695  0.2143 -0.2990  0.2675
  124MOL0     H16700  12.914  10.061   2.840  0.6691 -1.6474  1.8099
  124MOL0     H16701  13.167  10.069   2.896  0.0734  0.2998 -0.9145
  124MOL0     H16702  13.434  10.331   2.939 -0.2652  0.4765  0.5983
  124MOL0     H16703  13.665  10.443   2.987  0.5060 -0.1912  0.8948
  124MOL0     H16704  13.977  10.239   2.795 -2.4790 -2.1530  3.2492
  124MOL0     H16705  13.930  10.404   2.773 -2.7283 -1.5759  0.1627
  124MOL0     H16706  14.154  10.410   2.773  0.1310  1.9839  0.6296
  124MOL0     H16707  14.115  10.467   2.932 -1.2748  1.7523 -2.4365
  124MOL0     H16708  14.173  10.229   3.003 -0.8533  4.3832  0.6262
  124MOL0     H16709  14.211  10.190   2.827 -1.2841  2.1465 -3.4145
  124MOL0     H16710  14.341  10.402   2.976 -3.1139 -0.6362  0.2010
  124MOL0     H16711  14.403  10.321   2.828  0.7388 -0.2042 -0.2898
  124MOL0     H16712  14.431  10.107   2.977  1.2929  0.3256 -2.0844
  124MOL0     H16713  14.382  10.211   3.116  0.9223  1.9946  0.7007
  124MOL0     H16714  14.616  10.257   2.927 -2.5317  0.9178 -1.1937
  124MOL0     H16715  14.576  10.359   3.063 -0.1293  0.0490 -0.2285
  124MOL0     H16716  14.660  10.062   3.071  0.1230  0.5067 -2.5295
  124MOL0     H16717  14.594  10.155   3.211  0.9465 -0.0459  0.2183
  124MOL0     H16718  14.836  10.241   3.049  0.0301 -1.0171  0.2995
  124MOL0     H16719  14.800  10.290   3.222  1.0099  0.2672 -0.0697
  124MOL0     H16720  13.861  10.085   2.915 -0.2576  0.0583 -1.5267
  124MOL0     H16721  13.634   9.972   2.852 -0.9653  0.8998 -0.5405
  124MOL0     H16722  13.262   9.930   2.503  1.0300  1.8338 -0.0610
  124MOL0     H16723  13.012   9.944   2.453 -3.4017  2.8058  1.6060
  124MOL0     H16724  11.239  11.031   2.678  0.1329 -0.2971  2.7713
  124MOL0     H16725  11.019  11.137   2.626 -1.9257  0.2442  0.9608
  124MOL0     H16726  10.410  10.922   2.644 -3.0108 -0.8906  0.1578
  124MOL0     H16727  10.195  11.069   2.639  0.2361 -2.3743  2.6755
  124MOL0     H16728  10.211  11.504   2.768  1.4604 -0.3071  1.6706
  124MOL0     H16729  10.210  11.374   2.892  0.9293 -1.8998 -0.5058
  124MOL0     H16730  10.017  11.561   2.885 -2.4758 -1.7590  1.4845
  124MOL0     H16731   9.981  11.399   2.918  1.4000  1.8555  2.5615
  124MOL0     H16732   9.950  11.369   2.670 -1.4102 -0.6968  0.0316
  124MOL0     H16733   9.947  11.547   2.662 -0.4267  0.0362  0.0290
  124MOL0     H16734   9.733  11.373   2.799  0.5067  0.2606  0.9009
  124MOL0     H16735   9.762  11.542   2.818  1.9106 -1.7109  1.8682
  124MOL0     H16736   9.588  11.514   2.426  3.5606  0.2785 -2.3523
  124MOL0     H16737  10.402  11.408   2.757  0.0415  0.9627 -4.7794
  124MOL0     H16738  10.729  11.263   2.839 -0.3267  1.5130  1.4116
  124MOL0     H16739  10.702  11.378   2.702 -0.8968 -0.1234 -0.8084
  124MOL0     H16740  10.607  11.381   2.856 -2.5686 -3.6992  2.1671
  125MOL0     O16741   3.434   9.187   4.994 -0.1815 -0.2994 -0.4820
  125MOL0     C16742   3.375   9.248   5.086 -0.2473 -0.0468  0.4160
  125MOL0     O16743   3.436   9.311   5.191 -0.1447 -0.4224  0.5087
  125MOL0     C16744   3.571   9.280   5.205  0.3390  0.3016 -0.3557
  125MOL0     C16745   3.602   9.157   5.269  0.4392  0.1060  0.1941
  125MOL0     C16746   3.734   9.124   5.286 -0.5682 -0.2011  0.0366
  125MOL0     C16747   3.836   9.206   5.232 -0.6641  0.6600  0.7432
  125MOL0     O16748   3.961   9.149   5.238  0.8328  0.4015  0.2388
  125MOL0     C16749   4.023   9.138   5.113 -1.0718  0.5051  0.2710
  125MOL0     C16750   4.173   9.105   5.123  0.8477  0.2402 -0.1666
  125MOL0     C16751   4.266   9.131   5.002 -0.3546  0.6412 -0.9633
  125MOL0     C16752   4.270   9.004   4.916  0.2094 -0.4884 -0.6902
  125MOL0     C16753   4.376   9.010   4.802  0.8511  0.0867 -0.1740
  125MOL0     C16754   4.513   8.998   4.855 -0.2751  0.6464 -0.6501
  125MOL0     C16755   4.612   8.959   4.745  1.2416  0.0076 -0.2441
  125MOL0     C16756   4.754   8.959   4.788 -0.5370 -0.0265 -0.5668
  125MOL0     N16757   4.862   8.951   4.683 -0.8583  0.1094 -0.9446
  125MOL0     C16758   4.844   8.947   4.542 -0.0141  0.4228 -0.1286
  125MOL0     C16759   4.981   8.953   4.503 -0.4543  0.2003 -0.4951
  125MOL0     C16760   5.021   8.943   4.355  1.2356  0.2631 -0.1160
  125MOL0     C16761   5.154   8.880   4.340  0.4358  0.1563  0.1464
  125MOL0     C16762   5.189   8.876   4.199 -0.1007  0.1488  0.4757
  125MOL0     C16763   5.318   8.809   4.187  0.1781  0.3557 -0.4814
  125MOL0     O16764   5.340   8.797   4.048  0.1870 -0.4827 -0.4563
  125MOL0     C16765   5.476   8.808   4.006 -0.0991  0.0143  0.4613
  125MOL0     C16766   5.496   8.857   3.874 -0.9279  0.4062  0.0376
  125MOL0     C16767   5.625   8.876   3.829  0.6122  0.1497 -0.2677
  125MOL0     C16768   5.740   8.848   3.912 -0.9884  0.3353  0.3728
  125MOL0     C16769   5.877   8.874   3.884  0.3110  0.1218  0.3114
  125MOL0     O16770   5.909   8.945   3.761 -0.2253 -0.0501  0.1276
  125MOL0     C16771   6.040   8.975   3.744  0.9085 -0.0934  0.1587
  125MOL0     C16772   6.113   8.906   3.646  0.0920 -0.3702  0.6345
  125MOL0     C16773   6.246   8.945   3.620  0.0778 -0.5420  0.0742
  125MOL0     C16774   6.309   9.052   3.690 -0.4046  0.7727 -0.1869
  125MOL0     O16775   6.438   9.098   3.655 -0.2391  0.7829  0.6748
  125MOL0     C16776   6.504   9.026   3.552 -1.1102  0.4934  0.2972
  125MOL0     C16777   6.653   9.064   3.564  0.4614  0.2131  0.7688
  125MOL0     C16778   6.727   8.988   3.454 -0.2197 -0.0222  0.1632
  125MOL0     C16779   6.869   9.049   3.461 -0.2509  0.0276  1.2866
  125MOL0     C16780   6.969   8.963   3.380 -0.4162  0.3078  0.3660
  125MOL0     C16781   7.097   9.032   3.328 -0.0409 -0.5775 -0.1069
  125MOL0     C16782   7.200   8.933   3.257  0.5364 -0.7580  0.4224
  125MOL0     C16783   7.337   9.016   3.231 -0.6951  0.2380 -0.1703
  125MOL0    Cl16784   7.419   8.933   3.098  0.1523  0.2173 -0.1609
  125MOL0     C16785   6.232   9.123   3.785  0.4800  0.1655 -0.8832
  125MOL0     C16786   6.096   9.083   3.809 -0.4572 -0.1643 -1.2599
  125MOL0     O16787   5.963   8.827   3.953  0.4581  0.4969 -0.1427
  125MOL0     C16788   5.709   8.805   4.043 -1.1702 -0.6324 -0.7926
  125MOL0     C16789   5.581   8.789   4.092  0.5252  0.0046 -0.0064
  125MOL0     N16790   5.066   8.961   4.605 -0.0405 -0.0899 -0.3481
  125MOL0     N16791   4.992   8.964   4.713 -0.1538  0.0581 -0.4683
  125MOL0     C16792   3.806   9.334   5.173 -0.4207  0.5648 -0.6309
  125MOL0     C16793   3.675   9.364   5.154  1.2244  0.1467 -0.5942
  125MOL0     C16794   3.233   9.229   5.085 -0.2376 -0.4329  0.1043
  125MOL0     C16795   3.186   9.178   5.204 -0.6045 -0.4555 -1.2324
  125MOL0     C16796   3.049   9.139   5.223  0.1383 -0.0245 -0.5511
  125MOL0     C16797   2.958   9.169   5.123  1.3490  0.6089  0.1023
  125MOL0     O16798   2.824   9.130   5.133 -0.2958 -0.0717 -0.8754
  125MOL0     C16799   2.771   9.091   5.259 -0.2909 -0.0583  0.3908
  125MOL0     C16800   2.615   9.080   5.265  0.4409 -0.0211  0.0558
  125MOL0     C16801   2.578   8.963   5.164  0.2304 -0.0009 -0.4788
  125MOL0     C16802   2.423   8.948   5.187 -0.5529 -0.0947  0.3946
  125MOL0     C16803   2.394   8.892   5.312  0.4897 -0.8808  0.1726
  125MOL0     C16804   2.395   8.853   5.424 -0.5878 -0.2119 -0.1580
  125MOL0     C16805   3.005   9.224   5.006  0.4817  0.7318  0.1745
  125MOL0     C16806   3.135   9.251   4.980  0.4223 -0.0324 -0.2733
  125MOL0     C16807   3.174   9.303   4.847  0.4987  0.1028  0.6110
  125MOL0     H16808   3.526   9.089   5.308 -1.1087  1.5741 -0.1349
  125MOL0     H16809   3.761   9.025   5.322 -2.0482 -0.8432 -0.5555
  125MOL0     H16810   3.987   9.055   5.050 -0.4169 -0.6086  1.3190
  125MOL0     H16811   4.020   9.235   5.063  0.7775 -0.5494 -2.1082
  125MOL0     H16812   4.188   9.004   5.164  1.3154  1.0465  1.7814
  125MOL0     H16813   4.206   9.163   5.210 -2.3614 -1.1588  2.2059
  125MOL0     H16814   4.362   9.155   5.049 -0.8668  3.7702 -1.3284
  125MOL0     H16815   4.229   9.216   4.944  2.3724  0.8183 -2.6325
  125MOL0     H16816   4.300   8.915   4.973  1.6183  0.1282 -0.4448
  125MOL0     H16817   4.171   8.981   4.874  0.4095 -0.3991 -1.2162
  125MOL0     H16818   4.355   8.935   4.725 -1.1064  0.2878  0.1185
  125MOL0     H16819   4.362   9.106   4.752 -0.4645  0.0671  0.1296
  125MOL0     H16820   4.532   9.098   4.896 -2.6940  1.2198 -0.7806
  125MOL0     H16821   4.523   8.934   4.943  0.2875  2.2078  0.4733
  125MOL0     H16822   4.596   9.036   4.668  0.9710 -0.6190 -0.8184
  125MOL0     H16823   4.585   8.862   4.705  0.3603  0.4217 -0.6845
  125MOL0     H16824   4.766   9.058   4.834 -1.3004  0.2295 -0.9089
  125MOL0     H16825   4.760   8.880   4.864 -3.4759 -1.9310 -2.1607
  125MOL0     H16826   4.764   8.932   4.471 -0.2221  1.5455 -0.1446
  125MOL0     H16827   4.947   8.887   4.298 -0.8563  2.2594  0.4543
  125MOL0     H16828   5.019   9.041   4.306  0.6556 -0.0157 -0.6546
  125MOL0     H16829   5.226   8.937   4.399 -2.7725  0.7238  3.9192
  125MOL0     H16830   5.144   8.780   4.384 -4.3258  0.3797  0.0193
  125MOL0     H16831   5.210   8.981   4.175 -0.6176  0.1769  0.1098
  125MOL0     H16832   5.116   8.828   4.133 -0.0138 -2.7073  2.3201
  125MOL0     H16833   5.308   8.712   4.236  3.0128  0.4408  0.4510
  125MOL0     H16834   5.395   8.867   4.239 -1.4395  2.1229  0.0393
  125MOL0     H16835   5.415   8.882   3.806 -0.6591  0.7973 -0.1434
  125MOL0     H16836   5.640   8.918   3.729  1.0633 -2.8852 -1.5895
  125MOL0     H16837   6.060   8.835   3.583  1.6538  0.9442 -2.3835
  125MOL0     H16838   6.287   8.902   3.529 -0.1611 -4.1108  1.5056
  125MOL0     H16839   6.497   8.918   3.571  0.2688  0.2467 -0.4451
  125MOL0     H16840   6.456   9.051   3.457  0.3938  0.3640 -0.5207
  125MOL0     H16841   6.655   9.167   3.527 -1.6909 -0.6689 -2.1759
  125MOL0     H16842   6.698   9.054   3.663  1.1789  1.6889  0.6170
  125MOL0     H16843   6.735   8.885   3.489  1.8045 -0.1135 -0.4191
  125MOL0     H16844   6.668   8.992   3.362 -0.6504  1.0007  0.4779
  125MOL0     H16845   6.909   9.086   3.556  0.4039  4.1715 -0.3529
  125MOL0     H16846   6.858   9.135   3.395 -0.6282 -1.4641 -0.6689
  125MOL0     H16847   6.913   8.945   3.288  1.0836  0.6912 -0.6542
  125MOL0     H16848   6.997   8.868   3.426  0.8094  1.6480  2.5661
  125MOL0     H16849   7.071   9.105   3.251  0.4008  0.6399  0.8677
  125MOL0     H16850   7.133   9.089   3.413 -0.6307 -0.9229  0.3841
  125MOL0     H16851   7.153   8.899   3.165 -0.5321 -2.8039  1.6430
  125MOL0     H16852   7.227   8.846   3.319  0.9991 -1.7264 -1.0750
  125MOL0     H16853   7.322   9.121   3.204 -2.2364 -0.8629 -4.2913
  125MOL0     H16854   7.395   9.020   3.324 -1.7522  0.8314  0.4827
  125MOL0     H16855   6.269   9.213   3.833  1.5779 -0.3698 -0.7107
  125MOL0     H16856   6.032   9.145   3.872  1.9264  2.0938 -0.8916
  125MOL0     H16857   5.782   8.765   4.113  0.6150  2.5260 -0.6361
  125MOL0     H16858   5.567   8.754   4.194 -3.7218 -0.8843 -0.7230
  125MOL0     H16859   3.878   9.414   5.161  0.4922  0.0847  1.1734
  125MOL0     H16860   3.651   9.460   5.109 -2.9807 -1.2016 -1.6938
  125MOL0     H16861   3.260   9.157   5.281 -0.1368 -1.8640 -2.0157
  125MOL0     H16862   3.015   9.102   5.319 -0.9675  0.8451 -0.5922
  125MOL0     H16863   2.798   9.162   5.337  2.2611  1.1049 -1.4196
  125MOL0     H16864   2.803   8.994   5.298  0.1637 -0.3570 -0.6897
  125MOL0     H16865   2.573   9.174   5.229 -2.1585 -1.2223 -0.2093
  125MOL0     H16866   2.575   9.065   5.366 -1.6082  0.9638 -0.5764
  125MOL0     H16867   2.628   8.873   5.201 -1.1847 -0.4425  0.4408
  125MOL0     H16868   2.604   8.988   5.061  0.9748 -3.0320 -1.1408
  125MOL0     H16869   2.381   9.049   5.172 -2.7885 -0.9322  0.6504
  125MOL0     H16870   2.385   8.876   5.114  2.0255 -0.8209 -0.3323
  125MOL0     H16871   2.421   8.821   5.523  1.0675  1.0812 -0.1136
  125MOL0     H16872   2.924   9.228   4.933 -1.2797  1.1523  2.0709
  125MOL0     H16873   3.112   9.385   4.810  0.8353  0.1703  0.1940
  125MOL0     H16874   3.278   9.335   4.840  0.2138  1.0081  0.4576
  125MOL0     H16875   3.160   9.228   4.768 -2.1757  2.9212 -1.8663
  126MOL0     O16876   3.628   5.390   4.393  0.9479  0.7485  0.3237
  126MOL0     C16877   3.606   5.512   4.380  0.0672 -0.7279  1.2927
  126MOL0     O16878   3.707   5.605   4.346 -0.6103  0.0751 -0.6694
  126MOL0     C16879   3.840   5.571   4.364 -0.4261 -0.7865  0.2257
  126MOL0     C16880   3.936   5.622   4.278 -0.6028 -0.3504  0.3715
  126MOL0     C16881   4.071   5.584   4.283 -0.9307  0.2637 -0.7352
  126MOL0     C16882   4.122   5.499   4.380  0.3937  0.1041 -1.3113
  126MOL0     O16883   4.255   5.481   4.388  0.0824  0.3929 -0.1457
  126MOL0     C16884   4.302   5.415   4.502 -0.5659 -0.2758 -0.1441
  126MOL0     C16885   4.460   5.437   4.516 -0.9340 -0.3197  0.6228
  126MOL0     C16886   4.544   5.381   4.402  0.4662  0.4466 -0.1828
  126MOL0     C16887   4.693   5.409   4.429 -0.4391 -0.1733 -0.6102
  126MOL0     C16888   4.785   5.310   4.357 -0.2026  0.1164  0.1134
  126MOL0     C16889   4.919   5.319   4.426 -0.6132 -0.5365 -0.1232
  126MOL0     C16890   5.017   5.214   4.386  0.0259  0.6281  0.3484
  126MOL0     C16891   5.147   5.197   4.466 -0.0196  0.5201 -0.0542
  126MOL0     N16892   5.258   5.282   4.432  0.2150  0.1204 -0.9699
  126MOL0     C16893   5.342   5.251   4.329 -0.2102 -0.7578  0.3147
  126MOL0     C16894   5.448   5.338   4.339  0.8217 -1.2302 -0.8174
  126MOL0     C16895   5.575   5.329   4.250 -0.6298  0.0829 -0.5465
  126MOL0     C16896   5.545   5.428   4.137  0.4628 -0.1832  0.5332
  126MOL0     C16897   5.668   5.447   4.045 -0.1581 -0.0374 -0.3842
  126MOL0     C16898   5.644   5.568   3.948  0.4041  0.4835 -1.0134
  126MOL0     O16899   5.556   5.528   3.847 -0.1633 -0.0849 -0.1238
  126MOL0     C16900   5.610   5.517   3.722 -0.3986  0.6199  0.2137
  126MOL0     C16901   5.572   5.604   3.620  0.7253  0.5188 -0.0056
  126MOL0     C16902   5.637   5.592   3.489 -0.0159 -0.7835  0.3674
  126MOL0     C16903   5.725   5.490   3.464 -0.2740  0.2577 -0.3855
  126MOL0     C16904   5.786   5.473   3.330  0.4012  0.4726  0.7221
  126MOL0     O16905   5.842   5.355   3.301 -0.5053 -0.0917 -0.2863
  126MOL0     C16906   5.864   5.327   3.168 -0.4661  1.2698  0.3520
  126MOL0     C16907   5.773   5.244   3.091  0.2154 -0.0606  0.4186
  126MOL0     C16908   5.800   5.203   2.956 -0.3697  1.5955 -0.3662
  126MOL0     C16909   5.917   5.242   2.891  0.0925 -0.5555 -0.6501
  126MOL0     O16910   5.921   5.205   2.756 -0.4404  0.2246 -0.4306
  126MOL0     C16911   6.027   5.261   2.689  0.0259 -0.2340 -0.1209
  126MOL0     C16912   5.996   5.241   2.541  0.6578  0.0937  0.4048
  126MOL0     C16913   5.871   5.330   2.506  0.3802  0.2078 -1.2363
  126MOL0     C16914   5.850   5.332   2.353  0.4710  0.0137 -0.3301
  126MOL0     C16915   5.726   5.418   2.314  0.0584  0.0966  0.1115
  126MOL0     C16916   5.679   5.378   2.173  0.2949  0.1978  0.5344
  126MOL0     C16917   5.574   5.480   2.118 -0.5499 -0.1337 -0.6375
  126MOL0     C16918   5.492   5.548   2.229 -0.0686 -0.3224  0.2359
  126MOL0    Cl16919   5.386   5.678   2.144 -0.1097 -0.4335  0.3708
  126MOL0     C16920   6.004   5.319   2.970 -0.0543  0.5333  0.4591
  126MOL0     C16921   5.983   5.358   3.102  0.0165  0.5207 -0.9926
  126MOL0     O16922   5.778   5.576   3.260  0.7941  0.1305  0.5170
  126MOL0     C16923   5.770   5.404   3.570  0.0712 -0.6388 -0.0679
  126MOL0     C16924   5.704   5.412   3.697  0.2541  0.4948 -0.0710
  126MOL0     N16925   5.422   5.426   4.446  0.6153  0.0396 -0.1246
  126MOL0     N16926   5.313   5.383   4.506 -0.2107  0.7551 -0.4208
  126MOL0     C16927   4.023   5.462   4.477 -0.3452 -0.4566 -0.5179
  126MOL0     C16928   3.888   5.483   4.467 -0.3242 -1.0283  0.1768
  126MOL0     C16929   3.467   5.560   4.383  0.7285 -0.4962 -0.6950
  126MOL0     C16930   3.452   5.698   4.405  0.3342 -0.3423 -0.4834
  126MOL0     C16931   3.318   5.746   4.413 -0.7251  0.3453 -1.0241
  126MOL0     C16932   3.212   5.668   4.387 -0.1376  0.0276 -0.0824
  126MOL0     O16933   3.088   5.735   4.407  0.4977  0.3626  0.9773
  126MOL0     C16934   2.983   5.657   4.467  1.0631  0.3457 -0.1746
  126MOL0     C16935   2.896   5.610   4.356  0.1222  0.6364  0.4220
  126MOL0     C16936   2.775   5.698   4.318  0.1606 -0.0252  0.0255
  126MOL0     C16937   2.672   5.636   4.221  0.1536  0.4748 -1.1074
  126MOL0     C16938   2.744   5.585   4.108  0.1978 -0.0123 -0.3113
  126MOL0     C16939   2.791   5.520   4.020 -0.1263 -0.0166 -0.5064
  126MOL0     C16940   3.224   5.527   4.373 -0.2831 -0.3424 -0.0181
  126MOL0     C16941   3.351   5.466   4.374 -0.2121 -0.2614 -0.0459
  126MOL0     C16942   3.345   5.318   4.359  0.1787  0.3455 -0.1896
  126MOL0     H16943   3.907   5.703   4.211 -2.5212 -1.2418  0.0636
  126MOL0     H16944   4.148   5.615   4.213  2.1183 -2.5182  1.1186
  126MOL0     H16945   4.263   5.453   4.597 -2.9999 -1.0475 -0.7561
  126MOL0     H16946   4.281   5.307   4.494 -0.8923 -0.2182 -0.0985
  126MOL0     H16947   4.492   5.387   4.608  0.5978  3.3266  2.2574
  126MOL0     H16948   4.473   5.545   4.518 -3.8038  0.1006  1.5869
  126MOL0     H16949   4.514   5.429   4.309  5.5259 -1.1651 -3.0684
  126MOL0     H16950   4.524   5.274   4.386  0.4439  0.4945 -0.4799
  126MOL0     H16951   4.722   5.505   4.387  1.2197 -1.3165 -2.2569
  126MOL0     H16952   4.706   5.407   4.538 -0.3878  1.9894 -0.5500
  126MOL0     H16953   4.747   5.208   4.368 -1.5943  0.7052  1.1815
  126MOL0     H16954   4.794   5.333   4.251  1.7391 -0.5860  0.0950
  126MOL0     H16955   4.952   5.421   4.406  0.3392 -0.4292  1.8118
  126MOL0     H16956   4.912   5.305   4.534  0.6973  0.7949  0.1602
  126MOL0     H16957   5.040   5.218   4.279 -1.2017 -1.1746 -0.0270
  126MOL0     H16958   4.969   5.116   4.391 -0.2369  0.6346 -1.3814
  126MOL0     H16959   5.131   5.212   4.573  0.7369 -1.6832  0.4212
  126MOL0     H16960   5.183   5.096   4.448 -0.2311  0.5019 -0.3834
  126MOL0     H16961   5.342   5.161   4.269  0.5928 -0.7232  0.2490
  126MOL0     H16962   5.653   5.373   4.314  0.1987 -0.6132 -1.0684
  126MOL0     H16963   5.611   5.232   4.217  1.9818  0.9285 -0.3954
  126MOL0     H16964   5.462   5.392   4.075 -0.2300  1.1042  0.7006
  126MOL0     H16965   5.510   5.521   4.181  0.4733  0.2111 -0.2849
  126MOL0     H16966   5.685   5.354   3.992 -3.9036 -1.7337  1.0289
  126MOL0     H16967   5.763   5.459   4.098  1.1499 -1.2796 -2.3423
  126MOL0     H16968   5.742   5.593   3.907  0.5039  0.9817 -0.4760
  126MOL0     H16969   5.595   5.648   4.004 -1.3742 -0.1913 -1.5195
  126MOL0     H16970   5.505   5.682   3.653  0.2333 -0.3810  1.1983
  126MOL0     H16971   5.602   5.651   3.406  1.3701 -0.0293  0.3020
  126MOL0     H16972   5.675   5.229   3.135  0.2974  0.0951  0.6555
  126MOL0     H16973   5.732   5.153   2.888  0.6801  1.8663 -1.6529
  126MOL0     H16974   6.033   5.370   2.697 -2.0946  0.0124 -1.1995
  126MOL0     H16975   6.111   5.206   2.733 -1.6899 -1.0601  2.2872
  126MOL0     H16976   6.084   5.278   2.489  0.1752  0.7242  0.0212
  126MOL0     H16977   5.974   5.136   2.522 -0.9556 -0.1029  2.8695
  126MOL0     H16978   5.783   5.277   2.543  0.8538 -0.2541 -0.7471
  126MOL0     H16979   5.885   5.432   2.543  1.4233 -0.3448 -0.0341
  126MOL0     H16980   5.836   5.227   2.326  2.9241 -0.4901  0.1198
  126MOL0     H16981   5.936   5.378   2.303 -0.3436  2.1804  0.1283
  126MOL0     H16982   5.744   5.526   2.317 -1.1709  0.5267 -3.3884
  126MOL0     H16983   5.643   5.397   2.382 -0.5639  2.4070  0.1288
  126MOL0     H16984   5.770   5.378   2.112  0.9767  2.2854  1.4172
  126MOL0     H16985   5.628   5.282   2.176 -2.5499  1.6034  0.2558
  126MOL0     H16986   5.508   5.419   2.055  0.3270  1.1368 -2.8859
  126MOL0     H16987   5.620   5.561   2.062 -0.4121  0.3614  0.1776
  126MOL0     H16988   5.432   5.470   2.277  0.2836 -0.3616  0.6179
  126MOL0     H16989   5.548   5.603   2.304 -3.0360  0.8253  1.7863
  126MOL0     H16990   6.085   5.357   2.908 -1.5790 -1.5413 -3.0585
  126MOL0     H16991   6.049   5.420   3.162  1.1244 -2.3632  1.0108
  126MOL0     H16992   5.853   5.339   3.545  1.1315  0.4781  0.4572
  126MOL0     H16993   5.731   5.350   3.782 -0.2223 -0.2281 -0.4319
  126MOL0     H16994   4.055   5.411   4.568 -0.5439 -0.9469 -0.7153
  126MOL0     H16995   3.815   5.451   4.540 -0.1216  0.0248  0.8737
  126MOL0     H16996   3.537   5.758   4.437 -0.7400  0.1776  1.5430
  126MOL0     H16997   3.311   5.852   4.437  0.5276  0.8808 -2.8010
  126MOL0     H16998   2.927   5.725   4.532  1.1657  0.9581 -0.7113
  126MOL0     H16999   3.008   5.583   4.543  1.1793  1.5067  0.9630
  126MOL0     H17000   2.855   5.511   4.380  0.2529  0.6615  0.7668
  126MOL0     H17001   2.958   5.595   4.267 -2.6177 -4.0705 -1.0605
  126MOL0     H17002   2.824   5.790   4.283  0.8090 -1.3545 -2.9094
  126MOL0     H17003   2.726   5.718   4.413 -1.3871 -3.8569  0.1898
  126MOL0     H17004   2.615   5.555   4.266  1.9732 -0.3133 -0.1314
  126MOL0     H17005   2.600   5.714   4.196  0.7455  1.9837  1.5310
  126MOL0     H17006   2.828   5.453   3.946 -0.8816 -1.8493  0.7243
  126MOL0     H17007   3.138   5.461   4.362 -0.4072 -0.2202  0.2277
  126MOL0     H17008   3.380   5.275   4.453 -2.9446  0.9859  1.4083
  126MOL0     H17009   3.241   5.284   4.359 -0.0786  1.0748  0.7510
  126MOL0     H17010   3.402   5.272   4.278 -0.5015  0.4482 -0.7384
  127MOL0     O17011   8.319   4.238  11.223 -0.5659  0.5078  0.2692
  127MOL0     C17012   8.211   4.217  11.268 -0.2177  1.3596  0.7173
  127MOL0     O17013   8.140   4.104  11.237 -0.0154 -0.7435 -0.1814
  127MOL0     C17014   8.198   3.999  11.173  0.3499  0.0840  0.5960
  127MOL0     C17015   8.182   3.986  11.031 -0.3549  0.2697  0.1450
  127MOL0     C17016   8.234   3.870  10.974 -0.2240  0.2886  0.2731
  127MOL0     C17017   8.296   3.768  11.045  0.0222  0.0233  0.5890
  127MOL0     O17018   8.368   3.661  10.990 -0.0627 -0.5663 -0.1869
  127MOL0     C17019   8.328   3.600  10.870 -0.6289  0.2850  0.4959
  127MOL0     C17020   8.397   3.471  10.858 -0.2342  0.4655 -0.4324
  127MOL0     C17021   8.551   3.487  10.880 -0.4506 -0.5544 -0.0004
  127MOL0     C17022   8.639   3.380  10.808  0.2049  0.4386 -0.2132
  127MOL0     C17023   8.625   3.242  10.874 -0.0631  1.0252 -0.1403
  127MOL0     C17024   8.741   3.151  10.830 -0.1924  0.5127  0.3627
  127MOL0     C17025   8.742   3.010  10.893  0.3992 -0.5112 -0.3491
  127MOL0     C17026   8.833   2.911  10.806  0.3363 -0.6519  0.2712
  127MOL0     N17027   8.835   2.771  10.854  0.4390  0.1103 -0.6594
  127MOL0     C17028   8.922   2.734  10.958 -0.4628 -0.3209  0.2153
  127MOL0     C17029   8.929   2.604  10.946  0.6384 -0.0029  0.1556
  127MOL0     C17030   9.034   2.520  11.011  0.2869  0.0072 -0.0924
  127MOL0     C17031   8.970   2.455  11.132  0.2341 -0.4082 -0.1206
  127MOL0     C17032   8.856   2.345  11.106 -0.2691 -0.6989  0.0534
  127MOL0     C17033   8.908   2.222  11.043 -0.3087 -0.0486  0.3638
  127MOL0     O17034   9.004   2.142  11.121 -0.2057  0.7344  0.1623
  127MOL0     C17035   9.134   2.108  11.088 -0.2415 -0.0236  0.6296
  127MOL0     C17036   9.225   2.066  11.185 -0.2190  0.0944 -0.1625
  127MOL0     C17037   9.350   2.022  11.163 -0.2537  0.0776  0.1507
  127MOL0     C17038   9.403   2.027  11.036 -0.3472 -0.5207  0.0938
  127MOL0     C17039   9.541   1.975  11.006 -0.2859  0.1225  0.3209
  127MOL0     O17040   9.610   1.915  11.114  0.5778 -0.2297  1.2002
  127MOL0     C17041   9.735   1.863  11.085 -0.3773  0.8680  0.3620
  127MOL0     C17042   9.757   1.735  11.137 -0.3581  1.0235 -0.0997
  127MOL0     C17043   9.874   1.654  11.093  0.1822 -0.3368 -0.5176
  127MOL0     C17044   9.975   1.713  11.014  0.4871 -0.0161 -0.6560
  127MOL0     O17045  10.085   1.632  10.990 -0.1003 -0.3188 -0.7745
  127MOL0     C17046  10.154   1.663  10.867 -0.3037  1.2988 -0.4385
  127MOL0     C17047  10.274   1.575  10.841  0.2923  1.1297 -0.2965
  127MOL0     C17048  10.392   1.603  10.942 -0.2751  0.4150 -0.7157
  127MOL0     C17049  10.511   1.506  10.917 -0.5357  0.7343 -0.1744
  127MOL0     C17050  10.643   1.545  10.991  0.1770  1.2070 -0.2192
  127MOL0     C17051  10.748   1.440  10.954 -0.1253  0.3352 -0.7318
  127MOL0     C17052  10.867   1.440  11.056  0.5810  0.2671  0.1018
  127MOL0     C17053  10.982   1.355  11.009 -0.0310 -0.5648  0.1891
  127MOL0    Cl17054  11.053   1.436  10.873 -0.3351  0.4566 -0.1535
  127MOL0     C17055   9.955   1.846  10.975 -0.5119 -0.7689  0.2909
  127MOL0     C17056   9.838   1.921  11.005  1.0431 -0.3856  0.1094
  127MOL0     O17057   9.582   1.977  10.883  0.2244 -0.0219 -0.6528
  127MOL0     C17058   9.320   2.084  10.932  0.2563  0.4565 -0.6259
  127MOL0     C17059   9.187   2.124  10.959  0.4777 -0.4509  0.2404
  127MOL0     N17060   8.831   2.564  10.855 -0.0150  0.2735  0.6673
  127MOL0     N17061   8.778   2.665  10.793  0.1811 -0.4171  0.4824
  127MOL0     C17062   8.295   3.776  11.183 -0.5201 -0.2287  0.3247
  127MOL0     C17063   8.237   3.881  11.245 -1.9768 -1.0919 -0.7212
  127MOL0     C17064   8.138   4.314  11.353 -0.5313 -0.4683  0.6530
  127MOL0     C17065   8.000   4.290  11.369 -0.1056 -0.6808 -0.4847
  127MOL0     C17066   7.921   4.371  11.450 -0.6122 -0.9624 -0.1033
  127MOL0     C17067   7.984   4.476  11.517 -0.0313  0.6870 -0.2908
  127MOL0     O17068   7.919   4.548  11.608  0.4416  0.5175 -0.0558
  127MOL0     C17069   7.808   4.629  11.557 -0.0067  0.1813  0.0926
  127MOL0     C17070   7.672   4.562  11.584  0.6453 -0.2708  0.6536
  127MOL0     C17071   7.558   4.660  11.541  0.7061 -0.3904  0.0104
  127MOL0     C17072   7.426   4.590  11.530  0.6161 -1.1061 -0.7824
  127MOL0     C17073   7.313   4.670  11.572 -0.5238  0.3488 -0.3302
  127MOL0     C17074   7.215   4.724  11.618 -0.2676 -0.2198 -0.4565
  127MOL0     C17075   8.121   4.499  11.509  0.5690 -0.6333  0.7183
  127MOL0     C17076   8.202   4.418  11.423  0.2232 -0.8229 -0.4469
  127MOL0     C17077   8.347   4.466  11.391  0.1975 -0.8068 -0.3221
  127MOL0     H17078   8.134   4.059  10.966  0.9578  0.8353 -0.2342
  127MOL0     H17079   8.219   3.854  10.867 -0.6546  1.8091  0.0818
  127MOL0     H17080   8.219   3.589  10.863 -0.6527 -0.2556  1.3972
  127MOL0     H17081   8.362   3.672  10.796  2.1724  3.5088  4.4289
  127MOL0     H17082   8.373   3.437  10.757 -2.7736  0.1941  0.1806
  127MOL0     H17083   8.357   3.401  10.933 -0.6522  0.6810 -0.4558
  127MOL0     H17084   8.568   3.490  10.988 -0.2800 -1.0853 -0.0123
  127MOL0     H17085   8.580   3.585  10.841  0.4059 -0.8233 -0.0410
  127MOL0     H17086   8.623   3.374  10.700  1.6461 -0.7825 -0.3944
  127MOL0     H17087   8.741   3.418  10.813  0.2221  0.7921 -2.3551
  127MOL0     H17088   8.638   3.258  10.982  0.9785  1.3511 -0.2945
  127MOL0     H17089   8.526   3.204  10.850  0.8786 -0.5479 -1.7647
  127MOL0     H17090   8.722   3.140  10.722 -1.7607  3.4981  0.2262
  127MOL0     H17091   8.829   3.212  10.851  1.4232 -1.1050 -1.3496
  127MOL0     H17092   8.650   2.952  10.879  0.8804 -1.7382  1.2353
  127MOL0     H17093   8.762   3.012  11.001 -2.2977 -0.3332  0.2159
  127MOL0     H17094   8.800   2.903  10.702 -1.5121 -0.4360  0.8048
  127MOL0     H17095   8.930   2.963  10.811 -0.7783  1.6225 -0.5469
  127MOL0     H17096   8.978   2.794  11.030 -0.4034  0.8332 -0.7494
  127MOL0     H17097   9.064   2.450  10.932 -0.4731 -0.0092 -0.3752
  127MOL0     H17098   9.118   2.579  11.048  1.2277 -0.2835 -1.6604
  127MOL0     H17099   9.055   2.412  11.186 -0.2643  1.5496  2.4370
  127MOL0     H17100   8.925   2.534  11.193  0.4894 -1.0175  0.8693
  127MOL0     H17101   8.770   2.391  11.056 -0.8717  1.6294  2.9626
  127MOL0     H17102   8.818   2.301  11.198 -0.8714  0.1964  0.2459
  127MOL0     H17103   8.964   2.258  10.956  1.5885  1.2901  2.0375
  127MOL0     H17104   8.831   2.153  11.008  1.0802 -1.5728  0.2282
  127MOL0     H17105   9.198   2.045  11.288  1.3238 -1.1912  0.0197
  127MOL0     H17106   9.410   2.009  11.253  1.1147  1.4516 -0.5144
  127MOL0     H17107   9.686   1.689  11.205  1.1852 -0.5496  0.5305
  127MOL0     H17108   9.877   1.553  11.132 -2.0349 -0.3380 -0.2001
  127MOL0     H17109  10.083   1.646  10.786 -2.2923 -1.4367  1.7051
  127MOL0     H17110  10.194   1.764  10.881 -1.1535  1.3995  1.6103
  127MOL0     H17111  10.248   1.469  10.854  3.1966  0.1940 -1.3544
  127MOL0     H17112  10.299   1.582  10.735  0.9762  0.3123 -0.1970
  127MOL0     H17113  10.432   1.704  10.927 -0.0898  0.6297  1.0688
  127MOL0     H17114  10.344   1.599  11.040 -2.3274  2.9989 -1.4941
  127MOL0     H17115  10.533   1.517  10.810 -0.0601 -0.7420 -0.2439
  127MOL0     H17116  10.486   1.400  10.924 -0.0907  0.5256 -1.4943
  127MOL0     H17117  10.614   1.549  11.096  2.0790  0.2514  0.3870
  127MOL0     H17118  10.681   1.640  10.952  1.3235  0.5908 -0.6460
  127MOL0     H17119  10.700   1.342  10.954  2.4835 -1.0669  0.5116
  127MOL0     H17120  10.782   1.465  10.853  0.6721  1.1347 -0.2803
  127MOL0     H17121  10.831   1.401  11.151 -2.2095  1.3758 -0.3936
  127MOL0     H17122  10.897   1.544  11.071 -0.7488  0.7441 -0.3041
  127MOL0     H17123  11.062   1.354  11.083  1.3961  0.3877 -1.2796
  127MOL0     H17124  10.946   1.254  10.985  1.0177 -1.3127  1.6345
  127MOL0     H17125  10.036   1.905  10.935  0.0432 -2.3664 -1.0395
  127MOL0     H17126   9.832   2.024  10.971  1.3540 -0.3437  0.1742
  127MOL0     H17127   9.366   2.090  10.835 -1.4261 -2.4447 -1.7268
  127MOL0     H17128   9.118   2.152  10.880  1.3313  0.8439 -0.0748
  127MOL0     H17129   8.337   3.692  11.238  2.0838 -0.8837 -2.4081
  127MOL0     H17130   8.216   3.878  11.352 -4.1530  1.6470 -0.9260
  127MOL0     H17131   7.953   4.214  11.307 -0.3848  1.6395 -3.2803
  127MOL0     H17132   7.822   4.345  11.484 -1.2408  0.4781 -0.7516
  127MOL0     H17133   7.829   4.669  11.457  0.5292  0.9980  0.5166
  127MOL0     H17134   7.812   4.724  11.610 -0.2172 -0.7486  1.8437
  127MOL0     H17135   7.657   4.548  11.691 -0.2389  4.3545  1.3829
  127MOL0     H17136   7.660   4.467  11.532  2.0571  1.1237 -2.5381
  127MOL0     H17137   7.593   4.686  11.440  0.6158 -1.2116 -0.2437
  127MOL0     H17138   7.553   4.749  11.604  5.2833  1.0287 -1.2696
  127MOL0     H17139   7.398   4.556  11.430 -2.7445 -0.5236 -0.1636
  127MOL0     H17140   7.431   4.492  11.578  1.3087 -0.2909  0.8878
  127MOL0     H17141   7.131   4.780  11.653 -0.5815 -0.9131 -0.0698
  127MOL0     H17142   8.166   4.572  11.576  2.4023 -1.7143  0.7392
  127MOL0     H17143   8.375   4.552  11.453 -0.1058 -1.1326  0.2721
  127MOL0     H17144   8.407   4.377  11.409  1.9718  0.4819  0.4559
  127MOL0     H17145   8.354   4.500  11.287  2.4034 -0.3405 -0.0695
  128MOL0     O17146   4.114   0.843   2.067 -0.7338  0.3887  0.3773
  128MOL0     C17147   4.206   0.868   2.137 -0.1414  0.0632 -0.8848
  128MOL0     O17148   4.204   0.925   2.255  0.2310  0.1184 -0.2180
  128MOL0     C17149   4.075   0.959   2.313 -0.5634 -0.4701  0.6536
  128MOL0     C17150   3.995   0.856   2.360  0.3529  0.9493  0.2810
  128MOL0     C17151   3.868   0.887   2.421  0.4651  0.1738  0.1758
  128MOL0     C17152   3.831   1.017   2.450 -0.5680  0.9989 -0.2354
  128MOL0     O17153   3.714   1.049   2.510 -0.9499  0.0538  0.4601
  128MOL0     C17154   3.598   0.974   2.460 -0.3295 -0.3527 -1.1515
  128MOL0     C17155   3.473   1.043   2.532 -0.6144 -0.3318 -0.3318
  128MOL0     C17156   3.348   0.965   2.497  0.2695  0.4655  0.2806
  128MOL0     C17157   3.220   0.993   2.582 -0.7021 -0.2188 -0.0045
  128MOL0     C17158   3.106   0.888   2.558  0.2909  0.3696  0.3139
  128MOL0     C17159   2.982   0.943   2.638  0.3052  0.3831 -0.9548
  128MOL0     C17160   2.861   0.868   2.586 -0.5837  0.5721  0.2853
  128MOL0     C17161   2.740   0.922   2.657  0.4884  0.2547  0.3732
  128MOL0     N17162   2.630   0.827   2.625 -0.1160  0.1643 -0.0498
  128MOL0     C17163   2.580   0.800   2.501  0.6394 -0.6953  0.9951
  128MOL0     C17164   2.477   0.707   2.531 -0.6797 -0.0492 -0.3430
  128MOL0     C17165   2.390   0.618   2.444 -0.5182  0.8247 -0.5431
  128MOL0     C17166   2.307   0.720   2.357  0.0308  0.4076  0.7117
  128MOL0     C17167   2.255   0.626   2.248 -0.3605 -0.5925 -0.8076
  128MOL0     C17168   2.125   0.675   2.175 -0.5101 -0.6240 -0.0828
  128MOL0     O17169   2.137   0.814   2.131 -0.4452  0.4359  0.1528
  128MOL0     C17170   2.223   0.849   2.027  0.0947  0.6282  0.5113
  128MOL0     C17171   2.296   0.758   1.941  0.4286 -0.0327  1.0365
  128MOL0     C17172   2.365   0.804   1.832  0.9520  0.4641 -0.4020
  128MOL0     C17173   2.360   0.935   1.791 -0.3029 -0.1430  0.2187
  128MOL0     C17174   2.422   0.992   1.674  0.3453 -0.5040 -0.6310
  128MOL0     O17175   2.525   0.912   1.625  0.3561 -0.9172  0.8350
  128MOL0     C17176   2.609   0.963   1.521 -0.6851 -0.6665 -0.4378
  128MOL0     C17177   2.747   0.927   1.532 -0.1333 -0.3569  0.5602
  128MOL0     C17178   2.837   0.960   1.429  0.7524  0.0373  0.6577
  128MOL0     C17179   2.792   1.024   1.314  0.0076  0.3828  0.1082
  128MOL0     O17180   2.879   1.054   1.221  0.3345 -0.2475  0.6477
  128MOL0     C17181   3.019   1.062   1.236  0.3816  0.2356 -0.0435
  128MOL0     C17182   3.075   1.120   1.109  0.4689 -0.6003  0.5886
  128MOL0     C17183   3.056   1.040   0.985 -0.8281 -0.2595  0.3378
  128MOL0     C17184   2.983   1.128   0.874  0.1474  0.4561 -0.9435
  128MOL0     C17185   2.992   1.067   0.738  0.7087  0.1859 -0.5186
  128MOL0     C17186   3.132   1.084   0.688  0.3269 -0.2999  0.1472
  128MOL0     C17187   3.123   1.088   0.529  0.8504  0.0879  0.0219
  128MOL0     C17188   3.071   0.959   0.465 -0.0003 -0.1850 -0.2015
  128MOL0    Cl17189   3.094   0.957   0.293  0.2420 -0.3710 -0.3203
  128MOL0     C17190   2.646   1.037   1.295 -0.1936 -0.5686  0.3391
  128MOL0     C17191   2.558   1.008   1.399  1.4074 -0.0123  0.2056
  128MOL0     O17192   2.389   1.099   1.626 -0.2545 -0.0849  0.1407
  128MOL0     C17193   2.293   1.023   1.882 -0.2354 -0.6010  0.4542
  128MOL0     C17194   2.215   0.977   1.987 -0.2541  0.2822  0.1426
  128MOL0     N17195   2.467   0.684   2.660  0.2272 -0.4293 -0.6994
  128MOL0     N17196   2.561   0.754   2.723  0.7728  0.1974  0.7056
  128MOL0     C17197   3.920   1.120   2.422 -0.1618 -0.0067  0.5160
  128MOL0     C17198   4.035   1.093   2.347 -0.1406  0.1145  0.8445
  128MOL0     C17199   4.339   0.814   2.091  0.3190 -0.1689 -0.7074
  128MOL0     C17200   4.376   0.819   1.952  1.4536  0.1252 -0.4715
  128MOL0     C17201   4.504   0.783   1.909  0.0843  0.2224 -0.1884
  128MOL0     C17202   4.595   0.727   2.001 -0.4204  0.1344  0.0316
  128MOL0     O17203   4.718   0.671   1.975 -0.9393 -0.6538 -0.1684
  128MOL0     C17204   4.740   0.609   1.849 -0.6105 -0.4715  0.2819
  128MOL0     C17205   4.875   0.514   1.858  0.5171  0.5910 -0.6278
  128MOL0     C17206   4.903   0.448   1.717 -0.7434 -0.3630 -0.0565
  128MOL0     C17207   5.018   0.345   1.717  0.3590 -0.3299 -0.3515
  128MOL0     C17208   5.150   0.419   1.733  0.6598  0.1348 -0.4069
  128MOL0     C17209   5.250   0.485   1.739 -0.0663  1.3319  0.3638
  128MOL0     C17210   4.562   0.730   2.134 -0.6367  0.6519 -0.6804
  128MOL0     C17211   4.439   0.779   2.183 -0.5589  0.7470  0.0900
  128MOL0     C17212   4.439   0.799   2.332  0.1003  0.4188 -0.1517
  128MOL0     H17213   4.033   0.755   2.350  2.6270  1.9642 -2.8323
  128MOL0     H17214   3.808   0.802   2.450 -0.7690  1.1217  0.5008
  128MOL0     H17215   3.584   0.972   2.351 -3.0470  0.8864 -0.9226
  128MOL0     H17216   3.610   0.868   2.483  1.9643  0.5149  2.4035
  128MOL0     H17217   3.470   1.147   2.499  0.6464  0.6453  2.3095
  128MOL0     H17218   3.495   1.053   2.639 -0.7350 -0.8805 -0.2504
  128MOL0     H17219   3.370   0.859   2.509  1.8890  0.7999  0.4636
  128MOL0     H17220   3.322   0.972   2.390  2.5701  0.1304 -0.3588
  128MOL0     H17221   3.240   0.985   2.690 -1.6025 -2.8359  0.0492
  128MOL0     H17222   3.189   1.098   2.575  0.3795  0.0952 -0.2085
  128MOL0     H17223   3.096   0.882   2.450 -1.2030 -3.9034  0.5307
  128MOL0     H17224   3.142   0.790   2.590 -0.9511  0.3722  1.8514
  128MOL0     H17225   3.010   0.926   2.742  1.1771  1.0579 -1.0636
  128MOL0     H17226   2.965   1.050   2.617 -0.8932  0.2566 -0.6876
  128MOL0     H17227   2.865   0.762   2.612  2.6396 -0.1276 -2.4039
  128MOL0     H17228   2.853   0.874   2.477 -1.6229  0.1622  0.3200
  128MOL0     H17229   2.753   0.936   2.765  4.7312  0.8893 -0.0539
  128MOL0     H17230   2.723   1.019   2.610 -1.1583 -1.1916 -2.2536
  128MOL0     H17231   2.606   0.834   2.401 -1.1153 -1.4541  0.2216
  128MOL0     H17232   2.464   0.568   2.381 -1.9625 -2.1279 -0.0589
  128MOL0     H17233   2.328   0.545   2.497  1.8333  0.1355  1.4693
  128MOL0     H17234   2.214   0.759   2.398 -1.5509  0.1911 -2.3311
  128MOL0     H17235   2.379   0.790   2.313 -0.2783  0.1604 -0.2076
  128MOL0     H17236   2.224   0.528   2.286  1.1936 -0.9565 -0.4060
  128MOL0     H17237   2.339   0.612   2.179  0.8131  0.7641  0.2831
  128MOL0     H17238   2.045   0.669   2.250 -1.6071  1.3794 -1.0182
  128MOL0     H17239   2.094   0.610   2.093  0.2936 -0.3099 -0.6459
  128MOL0     H17240   2.290   0.653   1.967 -2.4471 -0.3924 -0.7313
  128MOL0     H17241   2.421   0.720   1.792 -1.1098 -1.0346 -0.3185
  128MOL0     H17242   2.779   0.888   1.628  0.6025 -3.1270 -0.7232
  128MOL0     H17243   2.943   0.941   1.441  1.1691  0.7866 -1.3881
  128MOL0     H17244   3.055   1.121   1.321  0.5983  1.1348 -0.7394
  128MOL0     H17245   3.053   0.959   1.231  0.0356  0.1820 -3.3425
  128MOL0     H17246   3.021   1.214   1.092  0.5455 -0.7154 -0.3549
  128MOL0     H17247   3.180   1.143   1.129  0.2495  1.4143 -0.3587
  128MOL0     H17248   3.157   1.008   0.960 -0.8741 -0.1196 -0.0275
  128MOL0     H17249   3.000   0.946   0.985 -0.3152 -0.5775 -0.8903
  128MOL0     H17250   3.013   1.233   0.876  0.9428  0.2257  0.3692
  128MOL0     H17251   2.876   1.145   0.893 -0.0663  0.0261 -1.6943
  128MOL0     H17252   2.926   1.118   0.667 -1.8159 -1.7123  0.2859
  128MOL0     H17253   2.961   0.962   0.729 -2.5606  1.1715 -2.4643
  128MOL0     H17254   3.177   1.176   0.726  2.5221 -0.2809 -2.2164
  128MOL0     H17255   3.189   0.999   0.729  0.7730  0.7612  1.8564
  128MOL0     H17256   3.220   1.099   0.479  0.4632 -0.3264 -0.8467
  128MOL0     H17257   3.067   1.175   0.493  1.1580 -1.3546 -4.7466
  128MOL0     H17258   3.117   0.873   0.515 -0.5196 -0.5977 -0.4241
  128MOL0     H17259   2.963   0.953   0.481 -0.0116 -0.8636 -0.5026
  128MOL0     H17260   2.604   1.058   1.198 -0.0619 -2.6761 -0.2336
  128MOL0     H17261   2.450   1.009   1.390  1.1909  1.2624  2.3172
  128MOL0     H17262   2.290   1.129   1.860 -1.0841 -0.8466 -0.6978
  128MOL0     H17263   2.159   1.053   2.041  0.2955  0.5316  0.3743
  128MOL0     H17264   3.892   1.221   2.451  3.3093  1.9133 -2.0248
  128MOL0     H17265   4.089   1.179   2.309 -1.5695  0.1352 -1.3139
  128MOL0     H17266   4.296   0.856   1.889 -1.1359 -3.0933  0.6608
  128MOL0     H17267   4.522   0.783   1.802  2.5842 -2.9593  0.0693
  128MOL0     H17268   4.750   0.689   1.776 -2.6959 -0.0196  0.4286
  128MOL0     H17269   4.657   0.549   1.810 -0.8371  0.4932 -0.7504
  128MOL0     H17270   4.867   0.430   1.928  1.1717 -1.0739 -2.4510
  128MOL0     H17271   4.958   0.576   1.893  2.0560 -0.9019 -1.5138
  128MOL0     H17272   4.928   0.530   1.649  0.6790 -2.2307 -1.8929
  128MOL0     H17273   4.812   0.399   1.684 -1.3873 -0.2428  1.4615
  128MOL0     H17274   4.999   0.286   1.807  0.2318 -1.4603 -1.1077
  128MOL0     H17275   5.016   0.285   1.626 -1.2763  2.3529 -2.2402
  128MOL0     H17276   5.338   0.541   1.760  1.9437 -1.5687  0.3696
  128MOL0     H17277   4.639   0.690   2.199 -1.8443 -1.0497 -0.2151
  128MOL0     H17278   4.479   0.900   2.343  0.9639  0.1329 -0.5063
  128MOL0     H17279   4.339   0.792   2.374 -0.4789  0.9860 -1.3946
  128MOL0     H17280   4.499   0.726   2.387  0.5551  0.2628 -0.8297
  129MOL0     O17281   4.488   0.870   8.892 -0.5026  0.0944 -0.1455
  129MOL0     C17282   4.443   0.919   8.789  0.3329  0.8318 -0.2989
  129MOL0     O17283   4.400   0.858   8.688 -0.7029  0.7903 -0.4831
  129MOL0     C17284   4.401   0.725   8.682 -0.4733 -0.3565 -0.1126
  129MOL0     C17285   4.518   0.646   8.672  0.3185 -0.1807  0.2015
  129MOL0     C17286   4.510   0.505   8.679 -0.5942  0.3954  0.6185
  129MOL0     C17287   4.388   0.437   8.701 -0.8906 -0.4520  0.7441
  129MOL0     O17288   4.372   0.307   8.710 -0.5274  0.4205 -0.3994
  129MOL0     C17289   4.373   0.260   8.846 -0.9138 -0.0584 -0.5410
  129MOL0     C17290   4.521   0.258   8.907  0.6857 -0.8645  0.6837
  129MOL0     C17291   4.610   0.148   8.860  0.4078  0.0922  0.0778
  129MOL0     C17292   4.726   0.120   8.965  0.1036  0.0665 -0.0171
  129MOL0     C17293   4.804  -0.012   8.943  1.3119 -1.5648 -0.3816
  129MOL0     C17294   4.891  -0.003   8.820 -0.7343 -0.1734 -0.1618
  129MOL0     C17295   4.965  -0.142   8.799  0.2454 -0.5709  0.5742
  129MOL0     C17296   5.038  -0.140   8.658  0.6098 -0.2012  0.0830
  129MOL0     N17297   5.153  -0.046   8.657  0.1909  0.5635 -0.4033
  129MOL0     C17298   5.273  -0.075   8.709  0.3196  0.6532  0.1800
  129MOL0     C17299   5.332   0.045   8.723 -0.1579  0.0516 -0.6288
  129MOL0     C17300   5.471   0.076   8.767 -0.0236  0.0159  0.1573
  129MOL0     C17301   5.511   0.058   8.909  1.0125  0.2341  0.4589
  129MOL0     C17302   5.658   0.112   8.943 -0.0580 -0.5092 -0.5903
  129MOL0     C17303   5.766   0.050   8.850  0.7268  0.5788 -0.7243
  129MOL0     O17304   5.738  -0.095   8.822 -0.2276 -0.0408  0.2572
  129MOL0     C17305   5.824  -0.160   8.735 -0.0528 -0.5162 -0.2237
  129MOL0     C17306   5.952  -0.112   8.704  0.9093 -0.1495 -0.3762
  129MOL0     C17307   6.036  -0.181   8.627  0.3429 -0.4350  0.6117
  129MOL0     C17308   6.000  -0.310   8.571 -0.2458 -0.9571 -1.1979
  129MOL0     C17309   6.108  -0.380   8.493 -0.0015  0.1352 -0.4386
  129MOL0     O17310   6.237  -0.327   8.501  0.0778 -0.2031  0.6423
  129MOL0     C17311   6.343  -0.370   8.425  0.1216  1.0292 -1.2942
  129MOL0     C17312   6.471  -0.379   8.483 -0.9187  0.2613 -0.9426
  129MOL0     C17313   6.577  -0.419   8.405  0.4095  0.0143 -0.0305
  129MOL0     C17314   6.561  -0.474   8.279 -0.1713 -0.2833 -0.2332
  129MOL0     O17315   6.666  -0.532   8.218  0.3351  0.5092  0.0112
  129MOL0     C17316   6.793  -0.480   8.242 -0.3195 -0.0275  0.3700
  129MOL0     C17317   6.864  -0.578   8.337  0.0457  0.1317  0.0310
  129MOL0     C17318   7.013  -0.606   8.300  0.3445 -0.3629 -0.2588
  129MOL0     C17319   7.107  -0.486   8.328  0.3052  0.4308 -1.3293
  129MOL0     C17320   7.256  -0.508   8.333  0.7656  0.9296  0.0924
  129MOL0     C17321   7.310  -0.524   8.183  0.3584  0.5026 -0.5162
  129MOL0     C17322   7.447  -0.575   8.164 -0.3690 -0.1576 -0.0933
  129MOL0     C17323   7.545  -0.523   8.267 -0.5340 -0.8873  0.3412
  129MOL0    Cl17324   7.706  -0.572   8.211  0.0821 -0.2018  0.2901
  129MOL0     C17325   6.435  -0.473   8.217 -0.6322 -0.1346 -0.9088
  129MOL0     C17326   6.332  -0.416   8.286  0.9793 -0.4585 -0.1738
  129MOL0     O17327   6.071  -0.472   8.425 -0.2664  0.3814  0.1463
  129MOL0     C17328   5.867  -0.353   8.589  0.4884  0.0807 -0.2938
  129MOL0     C17329   5.784  -0.283   8.680  0.3829  1.5140 -0.1396
  129MOL0     N17330   5.249   0.140   8.664  0.6301 -0.1352  0.3442
  129MOL0     N17331   5.140   0.079   8.627 -0.1936 -0.2305 -0.2483
  129MOL0     C17332   4.273   0.526   8.714  0.1632 -0.8200  0.1359
  129MOL0     C17333   4.279   0.668   8.711 -0.0478  0.6901 -0.2119
  129MOL0     C17334   4.440   1.061   8.779  0.4585  0.0620 -0.0158
  129MOL0     C17335   4.406   1.127   8.899 -0.2134 -0.0086 -0.4318
  129MOL0     C17336   4.405   1.262   8.907 -1.0824 -0.1894  0.5256
  129MOL0     C17337   4.443   1.343   8.794 -0.2046 -0.0637 -0.4200
  129MOL0     O17338   4.438   1.473   8.836  0.7054  0.6516  0.0861
  129MOL0     C17339   4.510   1.562   8.744  0.3388 -0.1908 -0.4749
  129MOL0     C17340   4.502   1.698   8.817 -0.5810  0.2996 -0.2683
  129MOL0     C17341   4.552   1.694   8.961  0.2964  0.4967 -0.6189
  129MOL0     C17342   4.611   1.817   9.022 -0.2077 -0.4223  0.1568
  129MOL0     C17343   4.712   1.876   8.944  0.3573  0.6887 -0.2242
  129MOL0     C17344   4.808   1.930   8.904 -0.0874 -0.3550 -0.0614
  129MOL0     C17345   4.482   1.281   8.673 -0.3418  0.7748 -0.2701
  129MOL0     C17346   4.475   1.141   8.664 -0.1018 -0.2752 -0.3425
  129MOL0     C17347   4.496   1.087   8.524  0.0339  0.0981 -1.3637
  129MOL0     H17348   4.609   0.706   8.673  1.1712 -1.4245 -0.3296
  129MOL0     H17349   4.608   0.459   8.680  0.1985  1.9423 -0.4558
  129MOL0     H17350   4.306   0.318   8.910 -1.8007 -0.9140 -0.6715
  129MOL0     H17351   4.339   0.157   8.856  2.4416 -1.1274  1.5174
  129MOL0     H17352   4.501   0.256   9.015 -3.5692  1.1483  0.1340
  129MOL0     H17353   4.562   0.357   8.884 -1.4043  0.3541  1.8680
  129MOL0     H17354   4.660   0.174   8.766  0.7453 -2.9568 -0.6852
  129MOL0     H17355   4.547   0.062   8.834 -2.6937  1.7981  1.4226
  129MOL0     H17356   4.786   0.211   8.977  0.3234 -0.2580  1.6523
  129MOL0     H17357   4.681   0.111   9.064  1.3563  0.7063  0.6341
  129MOL0     H17358   4.870  -0.043   9.024  3.6900  0.8451 -1.2637
  129MOL0     H17359   4.720  -0.081   8.929  0.0600 -0.1362 -0.3012
  129MOL0     H17360   4.836   0.026   8.729 -1.0511 -0.6826 -0.1398
  129MOL0     H17361   4.971   0.067   8.844 -0.1596 -0.4767 -1.1357
  129MOL0     H17362   4.892  -0.223   8.808 -0.4806  0.1042  0.8067
  129MOL0     H17363   5.038  -0.144   8.880  1.2413 -0.1113 -0.2834
  129MOL0     H17364   5.068  -0.240   8.625  1.4499 -0.1893  0.7625
  129MOL0     H17365   4.954  -0.106   8.597  0.5183 -0.8413 -0.1578
  129MOL0     H17366   5.305  -0.176   8.734 -0.7686  0.4458  0.8124
  129MOL0     H17367   5.543   0.027   8.702  0.5588 -0.8078  1.3725
  129MOL0     H17368   5.483   0.184   8.751 -2.0546  0.9950  3.9913
  129MOL0     H17369   5.435   0.114   8.965  0.2497  2.5706 -2.6756
  129MOL0     H17370   5.504  -0.047   8.941  2.1289  0.2636  0.8369
  129MOL0     H17371   5.680   0.088   9.048 -1.3455 -1.2265 -0.4594
  129MOL0     H17372   5.657   0.219   8.923  0.0677 -0.0282  1.6825
  129MOL0     H17373   5.858   0.053   8.909 -0.1186 -3.4731  1.1817
  129MOL0     H17374   5.771   0.113   8.761 -0.4314  1.6699 -0.0460
  129MOL0     H17375   5.985  -0.022   8.755 -2.6559  0.3067  1.4263
  129MOL0     H17376   6.130  -0.128   8.624  0.0590  0.1933  2.1302
  129MOL0     H17377   6.501  -0.345   8.582 -4.0340  0.0160  0.2112
  129MOL0     H17378   6.675  -0.406   8.451 -1.1700 -1.0050  4.1190
  129MOL0     H17379   6.847  -0.477   8.147 -2.6593 -2.5953 -1.1856
  129MOL0     H17380   6.782  -0.378   8.280  0.3689  0.9587 -1.8556
  129MOL0     H17381   6.858  -0.540   8.440 -0.2546  1.2765 -0.4026
  129MOL0     H17382   6.818  -0.677   8.343  0.5093 -0.0156  2.0826
  129MOL0     H17383   7.046  -0.688   8.365  1.2352  1.0956  1.2011
  129MOL0     H17384   7.005  -0.643   8.198 -1.2957  0.5495 -0.4884
  129MOL0     H17385   7.083  -0.460   8.431 -0.2685 -2.4750 -0.6431
  129MOL0     H17386   7.081  -0.401   8.263  0.2457  0.2242 -1.5797
  129MOL0     H17387   7.275  -0.599   8.390  0.7768  1.3336  0.7368
  129MOL0     H17388   7.316  -0.428   8.378  0.9108  0.0637  1.4752
  129MOL0     H17389   7.250  -0.598   8.129 -1.1657 -0.3899  2.1955
  129MOL0     H17390   7.306  -0.424   8.138  0.4865 -0.0045 -1.6926
  129MOL0     H17391   7.475  -0.561   8.059 -1.3097 -1.9836 -0.6366
  129MOL0     H17392   7.456  -0.684   8.178 -0.7213  0.1709  3.9026
  129MOL0     H17393   7.554  -0.415   8.282 -1.4755 -0.8337  0.5731
  129MOL0     H17394   7.515  -0.574   8.359 -1.7799 -4.5853 -1.8908
  129MOL0     H17395   6.429  -0.507   8.114  1.3990 -2.4087 -0.3700
  129MOL0     H17396   6.237  -0.411   8.233  0.8860 -0.8148 -0.0463
  129MOL0     H17397   5.831  -0.442   8.540 -1.0349  0.1673  0.6098
  129MOL0     H17398   5.695  -0.335   8.712  1.3562  0.0884  0.3821
  129MOL0     H17399   4.179   0.474   8.724  0.0023 -0.4735  0.4746
  129MOL0     H17400   4.184   0.721   8.712 -0.4972  0.0639  2.8567
  129MOL0     H17401   4.379   1.074   8.990  1.5290  1.0525  0.7855
  129MOL0     H17402   4.362   1.316   8.991 -1.2687  1.4263 -0.5483
  129MOL0     H17403   4.464   1.571   8.645 -2.0521 -0.9239  0.4989
  129MOL0     H17404   4.615   1.533   8.740  1.1054  1.5965  2.9789
  129MOL0     H17405   4.401   1.738   8.820 -0.2711  1.0652  1.5356
  129MOL0     H17406   4.567   1.770   8.766 -0.9498  0.9513  0.1703
  129MOL0     H17407   4.627   1.614   8.959 -3.7221 -3.6598 -2.0682
  129MOL0     H17408   4.476   1.646   9.024  1.1703  0.0575  0.1347
  129MOL0     H17409   4.531   1.890   9.039  1.6021  1.3350  1.6442
  129MOL0     H17410   4.649   1.789   9.120 -3.1816 -1.5744  1.1145
  129MOL0     H17411   4.909   1.966   8.894 -0.5128  0.8129 -0.3576
  129MOL0     H17412   4.507   1.339   8.584 -0.9377  0.9734 -0.3098
  129MOL0     H17413   4.557   0.996   8.529 -1.0795 -0.6264 -0.1033
  129MOL0     H17414   4.400   1.057   8.480 -1.0797  2.8750 -1.0370
  129MOL0     H17415   4.552   1.156   8.461  1.1767 -0.4454 -0.9828
  130MOL0     O17416   6.227   1.661   9.000  0.2712  0.1100 -0.5469
  130MOL0     C17417   6.147   1.726   9.061  0.4507  0.0462 -0.3801
  130MOL0     O17418   6.177   1.843   9.120 -0.3406  0.4550 -0.0979
  130MOL0     C17419   6.306   1.899   9.092  0.1310 -0.1298 -0.8506
  130MOL0     C17420   6.428   1.844   9.127  0.1778  0.2648 -0.4992
  130MOL0     C17421   6.548   1.896   9.076  0.1184 -0.5085 -0.5412
  130MOL0     C17422   6.551   2.017   9.007 -0.9332 -0.2264 -1.2743
  130MOL0     O17423   6.678   2.076   8.986 -0.0521 -0.2962  0.1889
  130MOL0     C17424   6.692   2.216   8.958 -0.3722 -0.2783 -0.5585
  130MOL0     C17425   6.844   2.257   8.953 -0.7870 -0.2316 -0.3561
  130MOL0     C17426   6.950   2.146   8.926  1.0280  0.6535 -0.0389
  130MOL0     C17427   7.090   2.195   8.881 -0.0497  0.2512 -0.3393
  130MOL0     C17428   7.197   2.081   8.902 -0.0699 -0.2173 -0.2614
  130MOL0     C17429   7.215   2.043   9.053 -0.5724  0.2238  0.2371
  130MOL0     C17430   7.360   1.981   9.077 -0.5358 -0.1529 -0.5697
  130MOL0     C17431   7.390   1.934   9.217 -1.2604 -0.0236 -0.1735
  130MOL0     N17432   7.420   2.037   9.300 -0.2241 -0.9096 -0.3508
  130MOL0     C17433   7.544   2.073   9.345 -0.8769  0.5721 -0.0530
  130MOL0     C17434   7.528   2.175   9.433  0.2420 -0.8646  0.1819
  130MOL0     C17435   7.643   2.248   9.491  0.3515 -0.4959  0.0111
  130MOL0     C17436   7.729   2.168   9.588 -0.2920  0.1833 -0.3883
  130MOL0     C17437   7.769   2.252   9.718  0.3687  0.7828 -0.0896
  130MOL0     C17438   7.849   2.371   9.692  0.3060 -0.7437  0.6130
  130MOL0     O17439   7.960   2.362   9.599 -0.2370  0.2319 -0.1441
  130MOL0     C17440   8.085   2.319   9.631 -0.2074  0.0829  0.5562
  130MOL0     C17441   8.121   2.264   9.755 -0.0113 -0.2449 -0.0905
  130MOL0     C17442   8.258   2.228   9.781 -0.1387 -0.0365  0.9559
  130MOL0     C17443   8.350   2.251   9.677 -0.3517  0.0133  0.1576
  130MOL0     C17444   8.489   2.232   9.716 -0.7951  0.3315 -0.2974
  130MOL0     O17445   8.516   2.147   9.812 -0.0038  0.4518 -0.4704
  130MOL0     C17446   8.646   2.127   9.856 -0.8067 -0.5574  0.3098
  130MOL0     C17447   8.712   2.012   9.805  1.5763 -0.0501 -0.4163
  130MOL0     C17448   8.847   1.998   9.828 -0.9215 -1.3153  0.2277
  130MOL0     C17449   8.907   2.079   9.938  0.4613 -0.4962 -0.2304
  130MOL0     O17450   9.034   2.062   9.967 -0.2888  0.1187 -0.2750
  130MOL0     C17451   9.116   2.155   9.893  0.8368 -0.5521 -0.3609
  130MOL0     C17452   9.255   2.103   9.885 -0.2176  0.2213  0.8411
  130MOL0     C17453   9.256   1.978   9.785  0.9701  0.2037 -0.1088
  130MOL0     C17454   9.393   1.950   9.733  0.0738  0.3026  0.2125
  130MOL0     C17455   9.454   2.058   9.638  0.0405 -0.3909 -0.7839
  130MOL0     C17456   9.583   2.118   9.693  0.2642 -0.5052 -0.0466
  130MOL0     C17457   9.639   2.213   9.582  0.4366 -0.3313 -0.4176
  130MOL0     C17458   9.792   2.193   9.568 -0.1005 -0.4196 -1.2522
  130MOL0    Cl17459   9.857   2.329   9.454  0.0905 -0.1415 -0.3375
  130MOL0     C17460   8.837   2.183  10.001  0.0672 -0.0245 -0.0457
  130MOL0     C17461   8.710   2.210   9.951 -1.2141 -0.1157  0.6162
  130MOL0     O17462   8.567   2.289   9.647  0.3326 -0.2130 -0.1819
  130MOL0     C17463   8.307   2.284   9.542 -0.2193 -0.2234  0.1805
  130MOL0     C17464   8.172   2.303   9.525  0.9099 -0.2889  0.5599
  130MOL0     N17465   7.397   2.215   9.430 -0.1518 -0.0176  0.3247
  130MOL0     N17466   7.336   2.139   9.345 -0.3150  0.4696 -0.5847
  130MOL0     C17467   6.431   2.084   8.990  0.2862  0.4352 -0.2056
  130MOL0     C17468   6.309   2.023   9.033  0.1171 -0.8152 -0.5570
  130MOL0     C17469   6.013   1.681   9.084  0.2378  0.1721  0.1311
  130MOL0     C17470   5.974   1.554   9.033 -0.6153  0.8010 -0.2666
  130MOL0     C17471   5.848   1.505   9.044  0.3040 -1.6331 -0.9914
  130MOL0     C17472   5.746   1.578   9.105 -0.1854 -0.3282  0.1743
  130MOL0     O17473   5.625   1.514   9.115  0.4154  0.6970 -0.0719
  130MOL0     C17474   5.505   1.591   9.106  0.0570  0.2431  1.0262
  130MOL0     C17475   5.472   1.638   8.965  0.5466  0.2039  0.7943
  130MOL0     C17476   5.460   1.524   8.866 -0.8045  0.2979 -0.8637
  130MOL0     C17477   5.417   1.574   8.718  0.0270  0.4668 -0.7648
  130MOL0     C17478   5.487   1.698   8.668  0.0384  0.0550 -0.1778
  130MOL0     C17479   5.555   1.781   8.616 -1.3102  0.7235 -0.6280
  130MOL0     C17480   5.773   1.714   9.144  0.1024  0.4827  1.3007
  130MOL0     C17481   5.898   1.768   9.125  0.3066  0.1947 -0.1272
  130MOL0     C17482   5.899   1.919   9.172 -0.4383  0.6198  1.1509
  130MOL0     H17483   6.409   1.752   9.180 -4.7188  0.5323 -1.3132
  130MOL0     H17484   6.641   1.850   9.109  1.0524 -0.3876 -2.8767
  130MOL0     H17485   6.654   2.238   8.857 -0.6864  0.2971 -0.3213
  130MOL0     H17486   6.631   2.269   9.032 -1.2229 -1.0428 -0.6844
  130MOL0     H17487   6.872   2.312   9.043  2.1726  0.7417 -1.7321
  130MOL0     H17488   6.858   2.325   8.868  2.2976 -1.1782 -0.7349
  130MOL0     H17489   6.915   2.084   8.842  1.4413  1.3830 -0.7685
  130MOL0     H17490   6.954   2.080   9.013 -1.7114 -0.0647 -0.3885
  130MOL0     H17491   7.091   2.249   8.786  3.8201  0.0142 -0.5841
  130MOL0     H17492   7.114   2.274   8.952  1.0431 -1.6606  1.5190
  130MOL0     H17493   7.178   1.990   8.844 -0.6599 -0.8728  0.9241
  130MOL0     H17494   7.292   2.111   8.856 -0.0615 -2.1650 -1.6418
  130MOL0     H17495   7.203   2.133   9.113 -3.4907  0.9411 -1.2166
  130MOL0     H17496   7.132   1.979   9.084 -0.5024 -0.4161 -0.8156
  130MOL0     H17497   7.430   2.058   9.044 -1.0446 -0.1728 -1.7794
  130MOL0     H17498   7.362   1.893   9.011  1.3626  0.5471 -1.5078
  130MOL0     H17499   7.302   1.890   9.266 -0.3373 -1.5562  0.1787
  130MOL0     H17500   7.471   1.862   9.227 -0.5151  0.8550  0.2341
  130MOL0     H17501   7.641   2.028   9.326 -1.9699 -3.1182  2.0206
  130MOL0     H17502   7.696   2.286   9.403 -0.9054 -2.0700 -1.5005
  130MOL0     H17503   7.600   2.326   9.555  0.8733  0.1949 -0.4737
  130MOL0     H17504   7.678   2.079   9.623  1.6806 -0.5125  0.8710
  130MOL0     H17505   7.816   2.124   9.537 -0.0890  0.4499 -0.2762
  130MOL0     H17506   7.835   2.190   9.780  0.0891 -0.5818 -1.0980
  130MOL0     H17507   7.678   2.282   9.770  1.1097  0.0262  1.7252
  130MOL0     H17508   7.888   2.406   9.789 -0.8286  0.6144  0.6175
  130MOL0     H17509   7.779   2.450   9.663 -0.9351 -0.9939  2.7195
  130MOL0     H17510   8.051   2.233   9.832  2.1471  0.2661  2.2201
  130MOL0     H17511   8.284   2.184   9.877 -3.5538 -0.4761  1.8194
  130MOL0     H17512   8.659   1.950   9.734  1.4633 -1.2481  0.6820
  130MOL0     H17513   8.910   1.922   9.782  1.0337 -0.5398  1.4970
  130MOL0     H17514   9.075   2.170   9.792 -1.8650  0.2861  0.7669
  130MOL0     H17515   9.126   2.246   9.953  2.4325 -0.5273 -0.6250
  130MOL0     H17516   9.321   2.182   9.848  0.3476  0.4831  2.3465
  130MOL0     H17517   9.290   2.079   9.986  0.4829 -3.1500 -0.0503
  130MOL0     H17518   9.209   1.897   9.842 -0.7447  0.2591 -1.3706
  130MOL0     H17519   9.187   1.999   9.703  0.0982  1.8266  0.9707
  130MOL0     H17520   9.375   1.853   9.687 -1.1471  0.5149  0.1985
  130MOL0     H17521   9.458   1.929   9.819 -1.5782 -2.0554  0.9693
  130MOL0     H17522   9.383   2.135   9.606  1.4331  0.6273 -1.5671
  130MOL0     H17523   9.479   2.018   9.539 -2.1526  1.3726 -2.1500
  130MOL0     H17524   9.575   2.175   9.786 -0.7002  0.0670 -0.4617
  130MOL0     H17525   9.650   2.043   9.736 -0.5438  0.2801  2.7322
  130MOL0     H17526   9.612   2.317   9.605  2.7118  0.6095 -1.6566
  130MOL0     H17527   9.582   2.198   9.490 -2.5276  0.5787  1.1179
  130MOL0     H17528   9.835   2.197   9.668 -2.4677 -2.7683  0.0057
  130MOL0     H17529   9.817   2.094   9.527 -0.4178 -1.1045  0.1576
  130MOL0     H17530   8.880   2.235  10.086 -2.2176 -3.0606  3.2706
  130MOL0     H17531   8.639   2.283   9.987  0.3272  0.6588  2.1834
  130MOL0     H17532   8.376   2.306   9.462 -1.0366  1.9181 -0.0095
  130MOL0     H17533   8.139   2.316   9.422  0.8236 -3.1660  0.1210
  130MOL0     H17534   6.418   2.186   8.955  0.6249  1.2566  1.9215
  130MOL0     H17535   6.217   2.076   9.007  1.5415  0.9941 -2.2092
  130MOL0     H17536   6.060   1.500   8.995 -1.1345 -0.9144  0.8357
  130MOL0     H17537   5.818   1.416   8.988 -0.8260 -2.5771  1.0088
  130MOL0     H17538   5.515   1.678   9.172 -0.9031 -0.0725  1.6133
  130MOL0     H17539   5.424   1.524   9.136  0.8976 -1.4439 -0.3117
  130MOL0     H17540   5.542   1.715   8.931 -0.0829 -0.6227 -2.7754
  130MOL0     H17541   5.377   1.692   8.967 -0.0129 -0.7513  0.8096
  130MOL0     H17542   5.389   1.452   8.907 -3.0574  2.2895 -1.0856
  130MOL0     H17543   5.551   1.467   8.843 -1.6889 -1.3682 -0.3783
  130MOL0     H17544   5.445   1.489   8.655 -0.4841 -1.3435  1.3207
  130MOL0     H17545   5.309   1.586   8.714 -0.0468  0.0386 -0.2841
  130MOL0     H17546   5.629   1.854   8.592  0.1736 -0.5630 -0.1020
  130MOL0     H17547   5.689   1.771   9.185 -1.9810  0.3798 -2.3859
  130MOL0     H17548   5.962   1.927   9.262  1.8265  2.9386 -0.4770
  130MOL0     H17549   5.956   1.969   9.093 -0.0475  1.6050  2.0304
  130MOL0     H17550   5.801   1.968   9.179 -0.1921  1.1625  0.8235
  131MOL0     O17551   9.226   3.555   6.912 -0.3561 -0.1857 -0.3766
  131MOL0     C17552   9.219   3.443   6.959 -0.0349 -0.8135  0.1682
  131MOL0     O17553   9.321   3.377   7.026 -0.3487  0.2021  0.3911
  131MOL0     C17554   9.429   3.464   7.040 -0.7291  0.1728  0.9116
  131MOL0     C17555   9.411   3.567   7.128  0.2028  0.0222 -0.5046
  131MOL0     C17556   9.523   3.645   7.169  0.4235 -1.0221  0.3458
  131MOL0     C17557   9.651   3.626   7.124  0.5913  0.4817 -0.0207
  131MOL0     O17558   9.751   3.707   7.172  1.0280 -0.2550  0.5986
  131MOL0     C17559   9.868   3.750   7.103  0.8483  0.4379  0.8429
  131MOL0     C17560   9.980   3.811   7.197  0.3349  0.4122 -0.4072
  131MOL0     C17561   9.945   3.957   7.237  0.2595  0.4891 -0.0131
  131MOL0     C17562  10.058   4.014   7.317  0.0863 -0.2490 -0.1485
  131MOL0     C17563  10.031   4.153   7.378 -0.0022 -0.3000  0.2988
  131MOL0     C17564  10.000   4.258   7.270 -0.2062 -0.4377  0.0518
  131MOL0     C17565  10.030   4.405   7.318  0.0117  0.0285 -0.0274
  131MOL0     C17566   9.922   4.474   7.386  0.0240  0.5982 -0.0385
  131MOL0     N17567   9.970   4.598   7.456  0.4411 -0.0118 -0.4490
  131MOL0     C17568  10.011   4.706   7.385  0.0502 -0.1329 -0.1006
  131MOL0     C17569  10.055   4.790   7.473  0.2387 -0.7418 -0.8470
  131MOL0     C17570  10.106   4.927   7.433 -0.4463 -0.2706 -0.1226
  131MOL0     C17571  10.258   4.932   7.395  0.8392  0.2915 -0.0656
  131MOL0     C17572  10.346   4.862   7.496  0.1091  0.4659 -0.0434
  131MOL0     C17573  10.488   4.889   7.444  0.0271 -0.3444 -1.1972
  131MOL0     O17574  10.495   4.801   7.326  0.3229 -0.4934  0.2583
  131MOL0     C17575  10.633   4.767   7.295  0.9991 -0.1141  0.6913
  131MOL0     C17576  10.657   4.644   7.236  0.3048  0.4741 -0.5959
  131MOL0     C17577  10.787   4.597   7.204  0.7619 -0.1710 -0.2000
  131MOL0     C17578  10.896   4.677   7.229 -0.5809 -0.2876  0.0972
  131MOL0     C17579  11.033   4.626   7.211 -0.2121 -0.4326 -0.1715
  131MOL0     O17580  11.137   4.689   7.271  0.0997  0.4683  0.1087
  131MOL0     C17581  11.257   4.622   7.262 -0.0528  0.4906 -0.2944
  131MOL0     C17582  11.280   4.484   7.305  0.2801 -0.1695  0.2439
  131MOL0     C17583  11.401   4.429   7.266 -0.5762 -0.0576  0.2077
  131MOL0     C17584  11.511   4.504   7.210 -0.0332 -0.0280 -0.6533
  131MOL0     O17585  11.638   4.464   7.193  0.5761  0.3070 -0.3645
  131MOL0     C17586  11.650   4.327   7.160  0.4622  0.4438 -0.0494
  131MOL0     C17587  11.787   4.284   7.119 -0.6709  0.9627 -0.4018
  131MOL0     C17588  11.887   4.318   7.235  0.0552  0.5428  0.3349
  131MOL0     C17589  12.031   4.272   7.191 -0.2950  0.3071  0.5317
  131MOL0     C17590  12.135   4.261   7.306 -0.6082 -0.9665 -0.4037
  131MOL0     C17591  12.120   4.154   7.410 -0.1013 -0.1634 -0.0626
  131MOL0     C17592  12.241   4.120   7.503  0.0240 -0.4583  0.6058
  131MOL0     C17593  12.224   3.985   7.577  0.0875  0.5958  0.5003
  131MOL0    Cl17594  12.070   3.969   7.664  0.1691 -0.2555  0.0902
  131MOL0     C17595  11.492   4.648   7.195  0.4127  0.5269  0.4963
  131MOL0     C17596  11.360   4.697   7.211  0.2469  0.2279  0.1968
  131MOL0     O17597  11.047   4.515   7.161  0.3342  0.6577  0.3597
  131MOL0     C17598  10.875   4.800   7.298  0.2455  0.4706  0.6447
  131MOL0     C17599  10.746   4.845   7.324  1.0153 -0.8355  0.8978
  131MOL0     N17600  10.038   4.742   7.599 -0.4045  0.3359 -0.6333
  131MOL0     N17601   9.986   4.620   7.592 -0.6374 -0.5237 -0.2873
  131MOL0     C17602   9.670   3.512   7.053 -0.6987 -0.5231 -0.5595
  131MOL0     C17603   9.560   3.435   7.003  0.0882 -0.9134  0.2134
  131MOL0     C17604   9.090   3.373   6.938 -0.1245 -0.5514 -1.0981
  131MOL0     C17605   9.012   3.416   6.830  0.4420 -0.0798  0.0419
  131MOL0     C17606   8.880   3.369   6.810  0.6508 -0.4384 -0.4618
  131MOL0     C17607   8.823   3.279   6.897  0.4123  0.1365 -0.3140
  131MOL0     O17608   8.707   3.233   6.856  1.0086 -0.2062  0.3330
  131MOL0     C17609   8.641   3.136   6.945 -0.5187 -0.4815 -0.4849
  131MOL0     C17610   8.511   3.099   6.887  0.6707  0.1627 -0.1615
  131MOL0     C17611   8.539   3.018   6.751 -0.6572 -0.5027 -0.3028
  131MOL0     C17612   8.415   3.002   6.670 -1.0279  0.0760  0.8019
  131MOL0     C17613   8.366   3.129   6.615 -0.3364  0.3493  0.4132
  131MOL0     C17614   8.313   3.227   6.557  0.0289  0.4824  0.8540
  131MOL0     C17615   8.903   3.235   7.005 -0.2392 -0.4430  0.3136
  131MOL0     C17616   9.033   3.283   7.028 -0.3445 -0.6713 -1.5932
  131MOL0     C17617   9.106   3.224   7.143  0.2952 -0.1645  0.3222
  131MOL0     H17618   9.310   3.579   7.166 -0.6030 -1.6311 -1.9919
  131MOL0     H17619   9.498   3.714   7.248  0.3617 -0.2901 -0.3045
  131MOL0     H17620   9.912   3.656   7.066  3.7827  2.3202 -0.8636
  131MOL0     H17621   9.840   3.820   7.025  0.8755 -0.1135  0.3331
  131MOL0     H17622  10.068   3.806   7.131 -0.1782 -2.4502 -0.9809
  131MOL0     H17623   9.998   3.744   7.282 -4.4237 -3.1375 -1.8215
  131MOL0     H17624   9.859   3.965   7.304  1.2354 -0.0680  1.3641
  131MOL0     H17625   9.913   4.014   7.149  0.3674  2.3998  1.1277
  131MOL0     H17626  10.103   3.953   7.396  0.8533  1.7072  0.9875
  131MOL0     H17627  10.136   4.016   7.239 -0.6901 -0.2695 -0.9372
  131MOL0     H17628   9.955   4.147   7.456  2.1263  1.8038  2.7562
  131MOL0     H17629  10.122   4.187   7.429  1.2642  1.7049 -2.9983
  131MOL0     H17630  10.068   4.239   7.187 -1.2256  0.7891 -1.1041
  131MOL0     H17631   9.898   4.260   7.231 -0.0884  0.7202 -0.2143
  131MOL0     H17632  10.041   4.459   7.223 -1.2108 -0.8359 -0.6953
  131MOL0     H17633  10.129   4.406   7.365 -0.6097 -2.2815  1.4830
  131MOL0     H17634   9.844   4.501   7.314  0.1730  0.3932 -0.2809
  131MOL0     H17635   9.887   4.396   7.454 -0.9900 -0.7484 -2.0109
  131MOL0     H17636  10.010   4.736   7.281  2.2867  1.2201  0.1981
  131MOL0     H17637  10.048   4.957   7.345 -1.5506  1.7175  1.2163
  131MOL0     H17638  10.077   4.991   7.516  0.2577  2.2999 -1.7376
  131MOL0     H17639  10.259   4.871   7.304  1.5719 -0.9629  0.7467
  131MOL0     H17640  10.293   5.034   7.376  2.3815 -0.3394 -0.8021
  131MOL0     H17641  10.307   4.760   7.506  2.1989 -0.7968 -3.1123
  131MOL0     H17642  10.342   4.915   7.591 -0.1561  2.3157 -1.0369
  131MOL0     H17643  10.564   4.852   7.514 -1.3353 -0.8933  0.0399
  131MOL0     H17644  10.493   4.997   7.428 -1.4952  0.2590  1.7194
  131MOL0     H17645  10.575   4.573   7.228 -0.3069  1.1126 -0.1335
  131MOL0     H17646  10.805   4.506   7.148  0.7643  0.9226 -2.0282
  131MOL0     H17647  11.191   4.441   7.349  0.1273  1.5440  1.7186
  131MOL0     H17648  11.411   4.324   7.292  1.2996 -0.0702 -0.4057
  131MOL0     H17649  11.610   4.264   7.240  0.7006  1.1256  0.6183
  131MOL0     H17650  11.583   4.304   7.076  0.6800  0.5292 -0.2479
  131MOL0     H17651  11.780   4.176   7.110  0.4252  0.3361  3.7728
  131MOL0     H17652  11.825   4.323   7.024  0.8298  0.1321 -0.1867
  131MOL0     H17653  11.895   4.427   7.238 -0.1334  0.7303 -2.5893
  131MOL0     H17654  11.860   4.273   7.330  0.1034 -0.8809 -0.3094
  131MOL0     H17655  12.072   4.337   7.114 -1.6622  0.7605  0.1563
  131MOL0     H17656  12.018   4.175   7.141 -0.2206 -0.6644  2.3281
  131MOL0     H17657  12.143   4.350   7.369 -0.2535 -1.9881  1.0380
  131MOL0     H17658  12.233   4.250   7.259  0.0132  0.0260  0.6001
  131MOL0     H17659  12.033   4.161   7.475  0.0836 -0.6601  0.2442
  131MOL0     H17660  12.104   4.065   7.348  1.1188 -0.1756 -0.3789
  131MOL0     H17661  12.256   4.201   7.575  0.8451 -1.0993  1.1743
  131MOL0     H17662  12.334   4.113   7.446 -0.9316 -1.3960 -0.9105
  131MOL0     H17663  12.237   3.899   7.510  0.1949 -0.3167  1.6513
  131MOL0     H17664  12.309   3.977   7.646  0.6911  1.3106 -0.1376
  131MOL0     H17665  11.557   4.716   7.140  2.9299 -1.6622  0.5793
  131MOL0     H17666  11.334   4.802   7.199 -0.5201 -0.3080 -3.9467
  131MOL0     H17667  10.955   4.869   7.321 -0.1368  0.8136  0.9524
  131MOL0     H17668  10.726   4.942   7.368 -2.3081 -0.5894 -0.8392
  131MOL0     H17669   9.775   3.491   7.037 -0.0097  2.0459  0.1220
  131MOL0     H17670   9.571   3.356   6.929  2.3098  0.0279 -0.5285
  131MOL0     H17671   9.048   3.495   6.764 -0.8467  1.0473  0.6392
  131MOL0     H17672   8.829   3.398   6.719  0.6767  0.0252 -0.3309
  131MOL0     H17673   8.618   3.180   7.043 -0.3211 -0.1578 -0.5803
  131MOL0     H17674   8.700   3.045   6.958  1.2003  0.8387  1.9321
  131MOL0     H17675   8.464   3.194   6.861 -0.0870  0.4108  1.9714
  131MOL0     H17676   8.439   3.037   6.941  0.3870 -2.7332 -3.4604
  131MOL0     H17677   8.578   2.921   6.783  0.5643 -0.2942 -1.1063
  131MOL0     H17678   8.604   3.076   6.686 -1.2598 -0.3523 -0.7839
  131MOL0     H17679   8.443   2.927   6.595  0.0014 -0.0013  1.2547
  131MOL0     H17680   8.341   2.957   6.737  2.1988  0.3581  4.8659
  131MOL0     H17681   8.255   3.305   6.511 -0.3818 -0.7259 -0.7575
  131MOL0     H17682   8.869   3.155   7.070  2.6180  0.0303  2.5941
  131MOL0     H17683   9.123   3.309   7.209  2.0838 -0.2554  0.0442
  131MOL0     H17684   9.038   3.154   7.192 -3.5179  1.6650 -1.9041
  131MOL0     H17685   9.200   3.177   7.114 -0.0814 -2.8408  2.9690
  132MOL0     O17686   0.625  10.288   8.710  0.0960 -0.1729 -0.1042
  132MOL0     C17687   0.696  10.199   8.657  0.8182  0.2156  0.9112
  132MOL0     O17688   0.841  10.196   8.649 -0.1365  0.4518 -0.0917
  132MOL0     C17689   0.904  10.306   8.707  0.0235  0.0963  0.3001
  132MOL0     C17690   0.873  10.438   8.662  0.3028 -0.0409  0.3178
  132MOL0     C17691   0.940  10.556   8.700  0.4052  0.9651  0.0182
  132MOL0     C17692   1.055  10.543   8.781  0.5230  0.0408 -0.3967
  132MOL0     O17693   1.128  10.642   8.837 -0.4599  0.1329 -0.8057
  132MOL0     C17694   1.131  10.771   8.777 -0.0517 -0.3371  0.1652
  132MOL0     C17695   1.213  10.867   8.864  0.4907  0.4198 -0.6101
  132MOL0     C17696   1.359  10.821   8.905 -0.6206 -0.3385 -1.3554
  132MOL0     C17697   1.414  10.865   9.038  0.5089 -0.3663  0.3299
  132MOL0     C17698   1.519  10.764   9.077  0.2951 -0.3627  0.5562
  132MOL0     C17699   1.593  10.815   9.199  0.8739 -1.0231 -0.4207
  132MOL0     C17700   1.713  10.905   9.187 -0.5585  0.2515  0.5956
  132MOL0     C17701   1.809  10.895   9.071 -1.3618  0.9766  0.3129
  132MOL0     N17702   1.938  10.955   9.107  0.0359  1.0572 -0.7607
  132MOL0     C17703   2.041  10.876   9.167 -0.5114 -0.3776  0.1900
  132MOL0     C17704   2.141  10.967   9.186 -0.1876  0.3425  0.0809
  132MOL0     C17705   2.277  10.936   9.243  0.8580 -0.1168  0.0382
  132MOL0     C17706   2.385  10.918   9.140 -0.3641  0.1895 -0.2936
  132MOL0     C17707   2.380  11.026   9.032 -0.0391 -0.0221  0.0524
  132MOL0     C17708   2.504  11.052   8.956  0.0054  0.0635  0.5358
  132MOL0     O17709   2.613  11.084   9.040 -0.4366 -0.3051 -0.4537
  132MOL0     C17710   2.739  11.113   8.985  0.2216  0.3044 -0.5163
  132MOL0     C17711   2.764  11.109   8.848  0.9397 -0.2726  0.3391
  132MOL0     C17712   2.896  11.114   8.803 -0.1579 -0.2790  0.1217
  132MOL0     C17713   3.004  11.130   8.898  0.3126  0.3966 -0.4317
  132MOL0     C17714   3.144  11.135   8.846  0.1892  0.2233 -0.2076
  132MOL0     O17715   3.248  11.136   8.934  0.0071  0.3939 -0.2380
  132MOL0     C17716   3.370  11.165   8.881  0.4094  0.7102 -0.3606
  132MOL0     C17717   3.466  11.067   8.891 -1.2715  0.1016  0.3570
  132MOL0     C17718   3.597  11.097   8.851 -0.5976 -0.2454 -0.6694
  132MOL0     C17719   3.632  11.212   8.800 -0.1404 -0.1771 -0.5967
  132MOL0     O17720   3.765  11.217   8.775 -0.2546  0.0678  0.2673
  132MOL0     C17721   3.825  11.334   8.716 -0.9670 -0.5581  0.5017
  132MOL0     C17722   3.974  11.330   8.685  0.2887  1.0581  0.1433
  132MOL0     C17723   4.023  11.461   8.623  0.0012 -0.3802 -0.0938
  132MOL0     C17724   4.158  11.451   8.551  0.7111  0.0442 -0.4832
  132MOL0     C17725   4.132  11.381   8.420 -0.0753  0.2379  1.0451
  132MOL0     C17726   4.257  11.332   8.340  0.5386  0.0952  0.2080
  132MOL0     C17727   4.342  11.444   8.273 -0.0774 -0.7660 -0.8917
  132MOL0     C17728   4.416  11.535   8.367 -0.4577  0.2553 -0.1894
  132MOL0    Cl17729   4.539  11.611   8.267 -0.5931  0.0409  0.1692
  132MOL0     C17730   3.544  11.312   8.790  0.8210  0.0937 -0.1477
  132MOL0     C17731   3.409  11.297   8.830  1.3137  0.5406 -0.4669
  132MOL0     O17732   3.158  11.151   8.723 -0.8621 -0.1628 -0.3193
  132MOL0     C17733   2.979  11.136   9.036  1.3108 -0.0192 -0.4253
  132MOL0     C17734   2.845  11.123   9.074 -0.3029 -0.5661 -0.0439
  132MOL0     N17735   2.103  11.091   9.143  0.1303  0.2145  1.0134
  132MOL0     N17736   1.981  11.080   9.096  0.4141  0.1737 -0.0824
  132MOL0     C17737   1.096  10.412   8.813  0.5644  0.3832  0.7680
  132MOL0     C17738   1.020  10.293   8.783 -1.0843 -0.5487  0.2191
  132MOL0     C17739   0.616  10.081   8.594  0.0326  0.2481  0.4584
  132MOL0     C17740   0.671   9.988   8.505 -0.1038 -0.3388 -0.8766
  132MOL0     C17741   0.593   9.894   8.431  0.3463  0.1480  1.1270
  132MOL0     C17742   0.455   9.900   8.434 -0.4143  0.8471  0.4842
  132MOL0     O17743   0.389   9.831   8.346  0.4773  0.1730 -0.1529
  132MOL0     C17744   0.268   9.867   8.295  0.1657 -0.9968  0.0927
  132MOL0     C17745   0.249   9.804   8.157  0.0210 -0.7755 -0.8526
  132MOL0     C17746   0.195   9.663   8.159  1.4029 -1.1051  0.2323
  132MOL0     C17747   0.150   9.645   8.009 -0.8368  0.3808 -0.2687
  132MOL0     C17748   0.036   9.723   7.959  1.1635 -0.3375  0.4852
  132MOL0     C17749  -0.048   9.790   7.902  0.7106  0.6760 -0.1052
  132MOL0     C17750   0.401   9.989   8.525  0.3524 -0.0549 -0.7105
  132MOL0     C17751   0.473  10.066   8.612  0.1148 -0.0245 -0.6069
  132MOL0     C17752   0.388  10.132   8.718 -0.1831 -0.5156  0.9604
  132MOL0     H17753   0.787  10.444   8.597  0.1251 -0.8820  0.4702
  132MOL0     H17754   0.899  10.644   8.652  0.3355 -0.0227 -1.7831
  132MOL0     H17755   1.167  10.766   8.674 -1.0159  0.3467 -0.2153
  132MOL0     H17756   1.027  10.804   8.778 -0.1746 -0.6180 -1.5052
  132MOL0     H17757   1.161  10.866   8.961  2.9990 -1.3340  0.8225
  132MOL0     H17758   1.206  10.965   8.815 -3.3038 -0.6278 -2.5976
  132MOL0     H17759   1.422  10.857   8.823 -1.6428  1.5258 -1.3837
  132MOL0     H17760   1.354  10.713   8.891  2.3032 -0.6748 -0.4017
  132MOL0     H17761   1.447  10.969   9.027 -2.9906  1.0074  1.3864
  132MOL0     H17762   1.341  10.852   9.118  2.0126 -2.3653  1.4494
  132MOL0     H17763   1.488  10.659   9.072 -0.0387 -0.2213 -0.5429
  132MOL0     H17764   1.593  10.771   8.997 -0.0379  1.1985  0.3678
  132MOL0     H17765   1.521  10.868   9.262  0.3031 -1.6756 -0.5175
  132MOL0     H17766   1.622  10.726   9.255 -1.0184 -0.8263  0.9453
  132MOL0     H17767   1.770  10.891   9.280 -0.9300  3.0382  1.3275
  132MOL0     H17768   1.679  11.008   9.201  0.8243  0.9744 -0.9611
  132MOL0     H17769   1.825  10.792   9.037 -0.5499  0.8908  0.9333
  132MOL0     H17770   1.770  10.952   8.985  1.1116  3.5147  0.7312
  132MOL0     H17771   2.052  10.770   9.186  1.7917 -0.3570 -0.6890
  132MOL0     H17772   2.296  11.016   9.315  0.0193  0.2630 -0.1548
  132MOL0     H17773   2.279  10.845   9.304 -1.2830  1.9029  3.4435
  132MOL0     H17774   2.482  10.917   9.191 -1.1835 -0.4298  1.2974
  132MOL0     H17775   2.380  10.819   9.093 -1.0781  0.9171 -1.8348
  132MOL0     H17776   2.368  11.118   9.088  1.7832 -0.5425  1.3876
  132MOL0     H17777   2.293  11.002   8.969  0.7083  0.7777 -1.3270
  132MOL0     H17778   2.481  11.138   8.893  0.5297 -0.1498  0.0441
  132MOL0     H17779   2.517  10.963   8.894  1.4455  0.8559 -0.3655
  132MOL0     H17780   2.688  11.093   8.772  1.2912  2.5279 -0.7313
  132MOL0     H17781   2.906  11.096   8.696 -1.7716 -1.2134  0.0971
  132MOL0     H17782   3.433  10.979   8.946 -1.2524  0.6805  1.3244
  132MOL0     H17783   3.678  11.029   8.874  1.1180  2.5117  2.2635
  132MOL0     H17784   3.776  11.348   8.619 -2.4170  0.0302  1.2774
  132MOL0     H17785   3.801  11.425   8.771 -2.1254 -0.1835 -0.5652
  132MOL0     H17786   4.020  11.304   8.781 -2.3025 -0.3435  1.0902
  132MOL0     H17787   3.995  11.248   8.615 -2.1363  1.1784 -0.8132
  132MOL0     H17788   3.955  11.505   8.549  0.1845  0.9963  0.5153
  132MOL0     H17789   4.038  11.530   8.707  1.9012  0.2804 -0.9212
  132MOL0     H17790   4.236  11.403   8.612 -0.4943  0.8253  1.7758
  132MOL0     H17791   4.185  11.554   8.528 -3.7821  1.0674 -2.1121
  132MOL0     H17792   4.084  11.447   8.346  1.6408 -4.2281 -4.8868
  132MOL0     H17793   4.060  11.300   8.420  1.0357 -0.8633 -1.4775
  132MOL0     H17794   4.313  11.264   8.405  0.0781 -1.6793 -1.1792
  132MOL0     H17795   4.225  11.275   8.253  1.2360 -0.6150  0.4052
  132MOL0     H17796   4.274  11.511   8.221 -0.8749  0.4385  1.5590
  132MOL0     H17797   4.415  11.400   8.204  0.9842 -1.3038  0.5169
  132MOL0     H17798   4.352  11.616   8.401  1.7094  1.8832  0.2133
  132MOL0     H17799   4.446  11.477   8.455  0.1208  2.8726  1.4559
  132MOL0     H17800   3.568  11.409   8.748  1.0653  1.0435  2.0475
  132MOL0     H17801   3.337  11.378   8.825  0.8099  0.0978 -0.5465
  132MOL0     H17802   3.057  11.155   9.108  0.6873  1.5354 -0.1315
  132MOL0     H17803   2.821  11.132   9.180 -3.5171 -0.6305 -0.6499
  132MOL0     H17804   1.192  10.413   8.863  0.2215  3.0339  1.5457
  132MOL0     H17805   1.061  10.195   8.807 -2.2922 -1.3716 -0.9738
  132MOL0     H17806   0.777  10.001   8.485  0.4573 -2.0520  0.6914
  132MOL0     H17807   0.629   9.833   8.349  1.3443  3.0646 -0.7409
  132MOL0     H17808   0.273   9.975   8.277  2.0849 -1.3652 -1.9134
  132MOL0     H17809   0.178   9.850   8.356 -0.9804  1.7927 -0.6361
  132MOL0     H17810   0.348   9.794   8.111  0.6222  0.6677  0.0478
  132MOL0     H17811   0.185   9.877   8.108  0.4776 -0.8345 -1.5506
  132MOL0     H17812   0.103   9.659   8.219  0.2456 -1.2230 -1.4912
  132MOL0     H17813   0.262   9.584   8.193 -0.4012 -1.2795  3.9082
  132MOL0     H17814   0.240   9.655   7.947 -0.6342  1.0228  0.1259
  132MOL0     H17815   0.116   9.543   7.989 -0.8295 -0.0423  1.6581
  132MOL0     H17816  -0.124   9.847   7.852 -1.2586 -0.7676  1.0556
  132MOL0     H17817   0.293   9.980   8.533  0.3671 -2.4415 -2.1291
  132MOL0     H17818   0.432  10.140   8.819 -1.7074 -0.6103  1.6561
  132MOL0     H17819   0.364  10.233   8.682 -1.3307 -0.4640  1.7968
  132MOL0     H17820   0.292  10.083   8.730 -0.5148 -0.3264 -0.7375
  133MOL0     O17821   0.477   3.769   7.154  0.0936  0.1498 -0.0655
  133MOL0     C17822   0.356   3.728   7.163 -0.5025  0.6843  0.3885
  133MOL0     O17823   0.302   3.633   7.087 -0.1384  0.1190  0.1260
  133MOL0     C17824   0.383   3.579   6.999  0.4384 -0.2432  1.3072
  133MOL0     C17825   0.419   3.640   6.876  0.5543  0.2212 -0.3489
  133MOL0     C17826   0.522   3.588   6.794 -0.8146 -0.5985  0.0158
  133MOL0     C17827   0.588   3.477   6.844  0.4402  0.5298 -0.0177
  133MOL0     O17828   0.690   3.419   6.768 -0.4144  0.7298 -0.2510
  133MOL0     C17829   0.829   3.486   6.767  0.2966  0.6923 -0.5215
  133MOL0     C17830   0.879   3.519   6.911  1.0712  0.1622  0.0314
  133MOL0     C17831   1.026   3.516   6.928 -1.1542 -0.3162 -0.3958
  133MOL0     C17832   1.089   3.403   7.017  0.2071  0.1451 -0.0391
  133MOL0     C17833   1.081   3.262   6.956  0.6676  0.9882 -0.1720
  133MOL0     C17834   1.161   3.242   6.829  0.5531 -0.5900 -0.0502
  133MOL0     C17835   1.304   3.297   6.838  0.0790  0.4246 -0.0149
  133MOL0     C17836   1.388   3.231   6.945 -0.3691 -0.0383 -0.7432
  133MOL0     N17837   1.529   3.276   6.939  0.1295  0.3316 -0.4269
  133MOL0     C17838   1.625   3.185   6.911  0.2230  0.2721 -1.0122
  133MOL0     C17839   1.741   3.251   6.945 -0.0515 -1.0939 -0.5501
  133MOL0     C17840   1.890   3.217   6.924 -0.4894  0.6473 -0.3150
  133MOL0     C17841   1.954   3.154   7.053  0.1868  0.0673 -0.1351
  133MOL0     C17842   2.104   3.167   7.053 -0.4338 -0.8627  0.3386
  133MOL0     C17843   2.163   3.138   7.191  0.7284  1.6569  0.3682
  133MOL0     O17844   2.296   3.183   7.216 -0.3648  0.6528  0.6574
  133MOL0     C17845   2.393   3.108   7.159  0.7411 -0.9388 -0.1103
  133MOL0     C17846   2.522   3.165   7.172 -0.5333  0.0761  0.1662
  133MOL0     C17847   2.632   3.104   7.110 -0.3707  0.5206 -0.5429
  133MOL0     C17848   2.622   2.983   7.035  0.5902 -0.4983  0.7383
  133MOL0     C17849   2.743   2.938   6.957  0.0192  0.2646  0.7002
  133MOL0     O17850   2.863   2.988   7.007 -0.7331 -0.6192  0.2271
  133MOL0     C17851   2.989   2.945   6.965  0.5476  0.4273 -0.4121
  133MOL0     C17852   3.019   2.808   6.926 -0.0222  0.1565  0.1912
  133MOL0     C17853   3.154   2.782   6.890 -0.2426 -0.5611  0.0751
  133MOL0     C17854   3.260   2.880   6.902  0.0675  0.2232  0.1156
  133MOL0     O17855   3.393   2.834   6.904  1.1141  0.1720  0.4911
  133MOL0     C17856   3.472   2.880   6.794 -0.5702 -0.0756  0.5474
  133MOL0     C17857   3.569   2.771   6.739 -0.0738  0.4612 -0.5415
  133MOL0     C17858   3.674   2.739   6.848 -0.5718 -0.5930 -0.9770
  133MOL0     C17859   3.757   2.621   6.804  0.1307  0.3174  0.0436
  133MOL0     C17860   3.863   2.583   6.898 -0.1496 -0.4441  0.3449
  133MOL0     C17861   3.947   2.471   6.854  0.3220 -0.1648 -0.5606
  133MOL0     C17862   4.054   2.444   6.952 -0.6543  0.8893 -0.3942
  133MOL0     C17863   4.181   2.390   6.879  0.3352 -0.3712 -1.0115
  133MOL0    Cl17864   4.263   2.298   7.017  0.1029  0.2241  0.6211
  133MOL0     C17865   3.228   3.008   6.930 -0.3407 -0.1903  0.3370
  133MOL0     C17866   3.092   3.036   6.966  0.0332  0.1509 -0.3485
  133MOL0     O17867   2.736   2.856   6.865  0.0472  0.1910 -0.0911
  133MOL0     C17868   2.494   2.934   7.026  0.2855  0.0557  0.4955
  133MOL0     C17869   2.383   2.991   7.081 -0.1331  0.2321 -0.5939
  133MOL0     N17870   1.704   3.383   6.986  0.0896  0.3827 -0.0790
  133MOL0     N17871   1.579   3.397   6.992 -0.7349 -0.1494 -0.0358
  133MOL0     C17872   0.541   3.409   6.965 -0.3866 -1.0902  0.7964
  133MOL0     C17873   0.435   3.461   7.040 -0.1298  0.4564  0.1023
  133MOL0     C17874   0.256   3.830   7.219 -0.7977  0.2728  0.2642
  133MOL0     C17875   0.122   3.841   7.155 -0.3168 -0.1679 -0.5416
  133MOL0     C17876   0.026   3.931   7.200 -0.0999 -0.3462  0.3496
  133MOL0     C17877   0.050   4.007   7.312 -0.5140 -0.1078  0.0362
  133MOL0     O17878  -0.044   4.095   7.369  0.2252 -0.0983 -0.0136
  133MOL0     C17879  -0.182   4.078   7.334 -0.4017  0.4547  0.9913
  133MOL0     C17880  -0.266   4.156   7.435  0.7092 -0.5808  0.0576
  133MOL0     C17881  -0.409   4.179   7.388  0.3396 -0.0307 -0.3173
  133MOL0     C17882  -0.491   4.241   7.503 -1.0041 -0.2368 -1.1583
  133MOL0     C17883  -0.639   4.245   7.485  0.5740  0.2503  0.2635
  133MOL0     C17884  -0.764   4.244   7.487 -0.3133  0.0439 -0.1168
  133MOL0     C17885   0.175   4.003   7.374 -0.4051 -0.2724  1.0846
  133MOL0     C17886   0.283   3.919   7.328  0.0668  0.3358  0.0952
  133MOL0     C17887   0.413   3.911   7.412 -1.0041 -0.4513 -0.8565
  133MOL0     H17888   0.368   3.729   6.843 -0.2790 -0.3550 -0.6581
  133MOL0     H17889   0.545   3.631   6.697  3.2139  1.5816  1.6847
  133MOL0     H17890   0.902   3.418   6.723  0.3517  0.8309 -0.6422
  133MOL0     H17891   0.825   3.573   6.701 -0.9628  1.3760  0.4152
  133MOL0     H17892   0.838   3.439   6.974 -2.4236  1.7333 -0.0313
  133MOL0     H17893   0.841   3.617   6.940  2.5096  0.9333 -0.6080
  133MOL0     H17894   1.061   3.607   6.977  0.7265 -1.3472  0.2959
  133MOL0     H17895   1.070   3.521   6.828  0.9166  2.8025  0.5339
  133MOL0     H17896   1.193   3.432   7.038 -0.3491  0.3575  2.7981
  133MOL0     H17897   1.036   3.393   7.112 -0.8810  0.7727 -0.5573
  133MOL0     H17898   1.116   3.192   7.032 -1.8528 -3.2179 -2.4732
  133MOL0     H17899   0.979   3.227   6.936 -0.0697  3.6514 -1.6346
  133MOL0     H17900   1.172   3.139   6.796 -0.7225  0.4026 -4.2533
  133MOL0     H17901   1.104   3.283   6.745  1.6065 -1.3030 -1.1433
  133MOL0     H17902   1.304   3.406   6.847  0.8791  0.5755 -1.4568
  133MOL0     H17903   1.347   3.263   6.743  1.0641  0.1986  0.5010
  133MOL0     H17904   1.353   3.259   7.045  1.9789  0.9034 -0.1033
  133MOL0     H17905   1.386   3.122   6.935 -2.8088 -0.3581  1.9732
  133MOL0     H17906   1.624   3.086   6.868  0.2987 -1.0573  1.8212
  133MOL0     H17907   1.902   3.144   6.844  0.8100 -2.0888  2.2088
  133MOL0     H17908   1.938   3.309   6.889  1.6747 -1.4875 -3.3991
  133MOL0     H17909   1.919   3.205   7.143  2.3124 -0.7409  1.2100
  133MOL0     H17910   1.929   3.048   7.057  0.3792 -0.0154 -0.9463
  133MOL0     H17911   2.117   3.272   7.026  0.4260 -1.0671 -0.0587
  133MOL0     H17912   2.150   3.097   6.983 -0.5299 -0.3143 -0.2832
  133MOL0     H17913   2.151   3.030   7.202 -1.2086  1.5099 -2.1660
  133MOL0     H17914   2.103   3.171   7.276  0.1483 -1.0976  1.1198
  133MOL0     H17915   2.538   3.258   7.225  2.1316  0.5849 -1.3307
  133MOL0     H17916   2.720   3.166   7.126 -1.1839  1.1694  1.7903
  133MOL0     H17917   2.946   2.727   6.922  1.6618 -1.6097  2.5362
  133MOL0     H17918   3.180   2.678   6.869 -1.0776 -1.2221  2.1394
  133MOL0     H17919   3.412   2.897   6.703 -0.9540 -1.0721  0.5992
  133MOL0     H17920   3.522   2.970   6.828 -0.2245 -1.0358  2.7016
  133MOL0     H17921   3.515   2.691   6.688 -1.4622  1.8322 -1.3382
  133MOL0     H17922   3.630   2.807   6.655 -0.8752 -1.0777 -1.8413
  133MOL0     H17923   3.739   2.825   6.868 -0.2523 -1.0973  0.2253
  133MOL0     H17924   3.625   2.708   6.940 -1.0985  3.8185  0.4402
  133MOL0     H17925   3.786   2.648   6.702 -0.0405  2.0048  0.4130
  133MOL0     H17926   3.686   2.538   6.793  0.3458 -0.3345  2.8339
  133MOL0     H17927   3.816   2.562   6.995 -1.0439  3.3202  0.8862
  133MOL0     H17928   3.927   2.671   6.911  0.1085 -0.4784 -0.6425
  133MOL0     H17929   3.881   2.385   6.838  1.4474 -0.9615 -1.0103
  133MOL0     H17930   3.988   2.499   6.757  1.0222 -1.8792 -0.7971
  133MOL0     H17931   4.018   2.367   7.021  0.3357  1.8891  1.3274
  133MOL0     H17932   4.083   2.528   7.016  1.1082  0.9279 -1.1826
  133MOL0     H17933   4.155   2.318   6.801 -2.2263 -1.6101  0.8730
  133MOL0     H17934   4.239   2.478   6.847 -2.6186  3.0680  2.1269
  133MOL0     H17935   3.312   3.074   6.949 -1.2129  1.1941 -0.4546
  133MOL0     H17936   3.075   3.141   6.989 -1.9293 -0.5728  1.8219
  133MOL0     H17937   2.497   2.843   6.967 -0.6229 -1.2230  2.3444
  133MOL0     H17938   2.301   2.920   7.080  0.1138 -0.1213  0.7972
  133MOL0     H17939   0.571   3.308   6.990  1.1541 -0.6771  0.7292
  133MOL0     H17940   0.408   3.406   7.130  2.0407 -1.6478 -0.4197
  133MOL0     H17941   0.089   3.793   7.063  2.6939 -1.3902 -1.1106
  133MOL0     H17942  -0.068   3.927   7.146  1.1329 -0.8406 -1.8641
  133MOL0     H17943  -0.216   3.975   7.348  1.0016 -0.2407 -0.3860
  133MOL0     H17944  -0.199   4.126   7.237  2.1532 -0.0790  0.2209
  133MOL0     H17945  -0.227   4.258   7.437  0.0218 -0.3077 -0.2971
  133MOL0     H17946  -0.260   4.106   7.532 -1.9307 -0.5498  0.2998
  133MOL0     H17947  -0.451   4.082   7.360  1.9049 -0.9559  0.3746
  133MOL0     H17948  -0.428   4.246   7.304  1.5244  1.5768  0.6297
  133MOL0     H17949  -0.457   4.189   7.593  0.1473  1.0464 -0.8190
  133MOL0     H17950  -0.451   4.342   7.517 -0.6412 -0.7794  2.9976
  133MOL0     H17951  -0.870   4.244   7.500 -1.1965  0.4793 -5.1520
  133MOL0     H17952   0.194   4.071   7.457  1.7492  0.4229  0.0892
  133MOL0     H17953   0.392   3.935   7.517  0.3204  1.3711 -0.9709
  133MOL0     H17954   0.454   3.810   7.420 -1.1555 -0.3976  1.4630
  133MOL0     H17955   0.494   3.974   7.376  2.3842 -3.3361  1.0220
  134MOL0     O17956   6.664   9.785   7.988 -0.1208  0.1577 -0.0725
  134MOL0     C17957   6.662   9.871   7.900  0.3574 -0.2239  0.8739
  134MOL0     O17958   6.761   9.894   7.812 -0.4543 -0.4914  0.2148
  134MOL0     C17959   6.882   9.836   7.816 -0.3588  0.5456  0.1412
  134MOL0     C17960   6.954   9.854   7.698  0.4854 -0.8399  0.4938
  134MOL0     C17961   7.087   9.801   7.695  0.2722 -0.6683  0.7594
  134MOL0     C17962   7.148   9.741   7.801  0.3211  0.3794 -0.2040
  134MOL0     O17963   7.277   9.702   7.797 -0.3595  0.4062  0.0691
  134MOL0     C17964   7.373   9.807   7.762  0.8367 -0.0482 -0.1812
  134MOL0     C17965   7.523   9.755   7.777 -0.0003  0.3682  0.8893
  134MOL0     C17966   7.574   9.724   7.913 -0.1630  0.2853 -0.5250
  134MOL0     C17967   7.703   9.802   7.940 -0.1340 -0.2299  0.3817
  134MOL0     C17968   7.758   9.795   8.077 -0.3285  0.0676 -0.4100
  134MOL0     C17969   7.795   9.647   8.116  0.2941  0.0309  0.0486
  134MOL0     C17970   7.855   9.647   8.253 -0.0504 -0.2223  0.4375
  134MOL0     C17971   7.769   9.700   8.377  0.2204 -0.3769  0.7019
  134MOL0     N17972   7.633   9.630   8.369 -0.0667 -0.6182  0.0017
  134MOL0     C17973   7.514   9.695   8.346 -0.7227  0.1076 -0.5395
  134MOL0     C17974   7.432   9.595   8.325  0.4446 -0.4083 -0.0355
  134MOL0     C17975   7.282   9.602   8.308  0.2038  0.8105  0.3896
  134MOL0     C17976   7.202   9.540   8.421  0.1074 -0.4796 -0.0108
  134MOL0     C17977   7.216   9.619   8.556 -0.1198 -0.0815 -0.6617
  134MOL0     C17978   7.121   9.556   8.667  0.4801 -0.8997 -0.6336
  134MOL0     O17979   7.109   9.656   8.776 -0.8026  0.8086 -0.5229
  134MOL0     C17980   7.003   9.647   8.860 -0.3228 -0.0563  0.6365
  134MOL0     C17981   6.904   9.545   8.869 -0.9741 -0.5218 -0.2418
  134MOL0     C17982   6.807   9.554   8.972  0.4660 -1.0139  0.1143
  134MOL0     C17983   6.817   9.662   9.065 -1.2316 -0.3748 -0.7752
  134MOL0     C17984   6.729   9.675   9.177 -0.0488  0.2705 -0.0739
  134MOL0     O17985   6.741   9.768   9.278  0.4504 -0.1155 -0.1754
  134MOL0     C17986   6.632   9.783   9.365  0.9325 -0.6324 -1.0555
  134MOL0     C17987   6.510   9.839   9.333  0.3523  0.8707  0.1968
  134MOL0     C17988   6.397   9.847   9.415  0.2065  0.3160  0.0596
  134MOL0     C17989   6.412   9.797   9.541 -0.0752 -0.0287 -0.5252
  134MOL0     O17990   6.312   9.801   9.629  0.6780  0.0509 -0.7922
  134MOL0     C17991   6.215   9.695   9.614  0.4937  0.5176  0.9818
  134MOL0     C17992   6.140   9.676   9.745 -0.1776  0.9071  0.1815
  134MOL0     C17993   6.039   9.786   9.799  1.1076 -1.6399  0.4519
  134MOL0     C17994   5.971   9.754   9.938 -0.7969 -0.7563 -0.5588
  134MOL0     C17995   5.866   9.850   9.973  0.4683  0.4569 -0.6066
  134MOL0     C17996   5.927   9.983  10.011 -0.0739 -0.0538 -0.5678
  134MOL0     C17997   6.021   9.989  10.135  0.7473 -0.0283 -0.3385
  134MOL0     C17998   6.051  10.134  10.186 -0.2763 -0.1473  0.1873
  134MOL0    Cl17999   6.204  10.147  10.289 -0.1752  0.3427  0.0401
  134MOL0     C18000   6.542   9.745   9.587  0.9359  0.4713 -0.7197
  134MOL0     C18001   6.647   9.730   9.494 -0.1662  0.2792 -0.0583
  134MOL0     O18002   6.635   9.594   9.182  0.9075  0.0965  0.0586
  134MOL0     C18003   6.915   9.760   9.057  0.7845  0.7925  0.0712
  134MOL0     C18004   7.001   9.752   8.958 -0.2122 -0.5915  0.9704
  134MOL0     N18005   7.494   9.478   8.345  0.6833  0.3512  0.0998
  134MOL0     N18006   7.615   9.499   8.380  0.6183  0.3322 -0.8016
  134MOL0     C18007   7.079   9.730   7.920 -0.0251 -0.7360 -0.3556
  134MOL0     C18008   6.943   9.778   7.930  0.0924  0.1366 -0.0181
  134MOL0     C18009   6.542   9.957   7.870 -0.7429 -0.3304  0.0896
  134MOL0     C18010   6.513  10.004   7.738  0.7574  0.5699  0.1136
  134MOL0     C18011   6.387  10.070   7.716 -0.0656  0.2252  0.6071
  134MOL0     C18012   6.299  10.097   7.825 -0.1884  0.1434 -0.3960
  134MOL0     O18013   6.184  10.173   7.820  0.1248 -0.4244  0.9016
  134MOL0     C18014   6.125  10.202   7.692  0.9050  0.2672 -0.5351
  134MOL0     C18015   6.068  10.347   7.689  0.0932 -0.5032  0.2625
  134MOL0     C18016   6.000  10.400   7.816 -0.4094  0.2828  0.0820
  134MOL0     C18017   5.862  10.325   7.839  0.4165 -0.4501  0.2912
  134MOL0     C18018   5.773  10.406   7.926  0.3513 -0.6120  0.3794
  134MOL0     C18019   5.710  10.482   7.993 -0.3216  0.0443 -0.3440
  134MOL0     C18020   6.333  10.065   7.954 -0.7472  0.9556 -0.7580
  134MOL0     C18021   6.460   9.994   7.984  0.1220  0.1154  0.7133
  134MOL0     C18022   6.487   9.959   8.132  0.1419 -0.0125  0.1552
  134MOL0     H18023   6.923   9.918   7.616  2.4691 -1.4291 -0.8054
  134MOL0     H18024   7.153   9.818   7.610 -0.2724 -0.8584  0.2922
  134MOL0     H18025   7.354   9.835   7.658  0.8665 -1.0003 -0.4536
  134MOL0     H18026   7.360   9.893   7.829  1.5622 -1.4280  1.8347
  134MOL0     H18027   7.603   9.802   7.719 -2.4155  0.3033 -2.8640
  134MOL0     H18028   7.519   9.658   7.727  3.3329  0.4745  0.1996
  134MOL0     H18029   7.602   9.618   7.917 -0.5541  0.0931 -2.3427
  134MOL0     H18030   7.506   9.759   7.991  0.6078  1.4147 -0.3350
  134MOL0     H18031   7.783   9.756   7.882 -0.8380 -0.2738 -0.5799
  134MOL0     H18032   7.693   9.906   7.908 -0.4094 -1.4600 -4.2681
  134MOL0     H18033   7.849   9.855   8.079  0.8737 -1.6555  1.8991
  134MOL0     H18034   7.695   9.830   8.160  1.0794  0.7878  0.3932
  134MOL0     H18035   7.699   9.596   8.108 -0.3760  1.4993 -2.8575
  134MOL0     H18036   7.868   9.611   8.043 -0.4456 -1.3507 -0.0358
  134MOL0     H18037   7.942   9.714   8.258 -1.0547  1.2727 -1.0819
  134MOL0     H18038   7.890   9.546   8.275  1.9683  0.1117 -0.9943
  134MOL0     H18039   7.827   9.683   8.468 -0.2120  0.4663  1.1427
  134MOL0     H18040   7.750   9.808   8.377  1.6600 -0.0999  0.9570
  134MOL0     H18041   7.491   9.801   8.353 -4.0308 -0.1855 -3.9321
  134MOL0     H18042   7.261   9.709   8.310 -2.1474  0.4330 -0.6122
  134MOL0     H18043   7.246   9.556   8.216  4.0766  1.5996 -1.7235
  134MOL0     H18044   7.105   9.557   8.375  0.2678 -0.4892 -0.3562
  134MOL0     H18045   7.225   9.433   8.423 -1.0323 -0.7288  0.1102
  134MOL0     H18046   7.178   9.721   8.543  1.1383  0.7024  1.3623
  134MOL0     H18047   7.321   9.607   8.582 -0.3001 -4.7208 -1.3047
  134MOL0     H18048   7.163   9.459   8.694  1.4033 -1.3570 -3.3808
  134MOL0     H18049   7.019   9.532   8.635 -0.6383 -1.8638  3.1626
  134MOL0     H18050   6.907   9.457   8.806  1.2777 -0.4827 -0.2637
  134MOL0     H18051   6.738   9.471   8.989  0.2219 -0.6975  0.7187
  134MOL0     H18052   6.495   9.871   9.230 -1.7719 -1.0699 -0.1681
  134MOL0     H18053   6.295   9.853   9.378  1.2618 -0.6803 -3.3504
  134MOL0     H18054   6.146   9.708   9.530 -1.4835 -1.8141  2.1157
  134MOL0     H18055   6.272   9.607   9.585 -0.3325  0.5673 -0.9617
  134MOL0     H18056   6.090   9.580   9.730  1.4103  0.2968 -1.7216
  134MOL0     H18057   6.215   9.657   9.822 -1.2933 -1.6750  0.7320
  134MOL0     H18058   6.103   9.875   9.803 -0.6764 -0.2515 -0.2477
  134MOL0     H18059   5.956   9.810   9.731  1.1476 -1.3340  0.5098
  134MOL0     H18060   6.050   9.747  10.013 -0.1950 -2.7901 -1.3242
  134MOL0     H18061   5.922   9.656   9.931  0.0321 -1.1146 -1.7284
  134MOL0     H18062   5.810   9.819  10.062  1.6086  1.6936  0.5827
  134MOL0     H18063   5.790   9.850   9.895  1.3016  1.5307 -1.4459
  134MOL0     H18064   5.987  10.019   9.927 -0.2036  1.4964 -0.0273
  134MOL0     H18065   5.843  10.053  10.024 -0.9416 -1.4061  1.6916
  134MOL0     H18066   6.117   9.942  10.110  0.5267 -0.6906  0.0357
  134MOL0     H18067   5.964   9.936  10.211 -1.6432  0.5853 -1.6085
  134MOL0     H18068   6.062  10.206  10.104  0.6790 -1.4955 -0.9017
  134MOL0     H18069   5.961  10.170  10.237  0.7082  2.6061  0.1733
  134MOL0     H18070   6.554   9.720   9.691  0.6411  0.9444 -0.5671
  134MOL0     H18071   6.738   9.686   9.534 -0.8162  0.9467  2.3360
  134MOL0     H18072   6.920   9.850   9.118  1.8516  0.9463 -0.2376
  134MOL0     H18073   7.082   9.824   8.962 -1.1086  0.9698 -3.3920
  134MOL0     H18074   7.121   9.693   8.013 -0.5300  0.8598  0.5399
  134MOL0     H18075   6.898   9.777   8.028  0.4061  0.9599  0.1394
  134MOL0     H18076   6.585   9.992   7.657  2.0137 -0.3410  1.3007
  134MOL0     H18077   6.376  10.104   7.613  0.6861 -0.6780  0.2163
  134MOL0     H18078   6.043  10.132   7.673  0.6946  0.3090  0.1773
  134MOL0     H18079   6.184  10.187   7.601 -0.0684 -0.1204 -1.1171
  134MOL0     H18080   5.999  10.351   7.603  0.9393 -1.9746 -0.5243
  134MOL0     H18081   6.152  10.415   7.669  0.5499 -1.7844 -2.8248
  134MOL0     H18082   5.980  10.507   7.804  1.9890  0.9028  1.0914
  134MOL0     H18083   6.068  10.403   7.902 -0.0308  3.6009 -0.2226
  134MOL0     H18084   5.815  10.316   7.741  3.0581 -1.3305 -0.9772
  134MOL0     H18085   5.888  10.226   7.877  2.9701  0.0635  0.0663
  134MOL0     H18086   5.650  10.557   8.042  0.9184  0.3079  0.7973
  134MOL0     H18087   6.265  10.079   8.038  0.8658 -3.3354  1.6146
  134MOL0     H18088   6.506   9.852   8.145  3.5231  0.2404 -1.5816
  134MOL0     H18089   6.569  10.023   8.164 -0.2701  1.2394 -1.1786
  134MOL0     H18090   6.395   9.981   8.186  0.2757 -0.8198  0.7261
  135MOL0     O18091   8.758  10.159   6.476  0.0732 -0.0775  0.2278
  135MOL0     C18092   8.707  10.237   6.391 -1.0476  0.1655 -0.3302
  135MOL0     O18093   8.777  10.325   6.312  0.2266 -0.4701  0.2810
  135MOL0     C18094   8.911  10.332   6.335 -0.4815 -0.0473 -0.0864
  135MOL0     C18095   9.018  10.291   6.253 -0.1634  0.7410  0.0691
  135MOL0     C18096   9.151  10.311   6.280  1.0259 -0.3284  0.5964
  135MOL0     C18097   9.194  10.380   6.396 -0.1981  0.0631 -0.0899
  135MOL0     O18098   9.328  10.402   6.426 -0.7812  0.3696 -0.7160
  135MOL0     C18099   9.434  10.372   6.336  0.2550 -0.8680  0.3890
  135MOL0     C18100   9.567  10.419   6.392  0.2296  0.5542  0.6827
  135MOL0     C18101   9.576  10.571   6.418 -0.2354  0.2386  0.1099
  135MOL0     C18102   9.723  10.609   6.416 -0.3423 -0.3811 -0.3679
  135MOL0     C18103   9.735  10.761   6.465 -0.6818  0.1331  1.1792
  135MOL0     C18104   9.871  10.814   6.441 -0.4865 -0.2692  0.1978
  135MOL0     C18105   9.890  10.962   6.454  0.1759 -0.6238  0.4741
  135MOL0     C18106  10.034  10.998   6.432  0.5844  0.1164 -0.1171
  135MOL0     N18107  10.053  11.140   6.446 -0.4336 -0.0708 -0.1657
  135MOL0     C18108  10.175  11.194   6.445  0.2715 -1.0660  0.1969
  135MOL0     C18109  10.158  11.323   6.473 -0.4614 -0.0491 -0.1496
  135MOL0     C18110  10.269  11.420   6.480  0.1931 -0.7381  0.9669
  135MOL0     C18111  10.261  11.510   6.604  0.2273 -0.2793 -0.0525
  135MOL0     C18112  10.396  11.598   6.606 -0.9983 -0.1728 -0.4622
  135MOL0     C18113  10.408  11.652   6.755 -0.4346 -0.0267  0.3704
  135MOL0     O18114  10.448  11.544   6.842 -0.4106  0.5837  0.5172
  135MOL0     C18115  10.573  11.523   6.893 -0.6426  0.3050 -0.0044
  135MOL0     C18116  10.686  11.533   6.821  0.0608 -0.3588  0.5776
  135MOL0     C18117  10.812  11.517   6.878  0.0001  0.0744 -1.0239
  135MOL0     C18118  10.833  11.490   7.018  0.6015 -0.7095 -0.6374
  135MOL0     C18119  10.973  11.474   7.075  0.5586  0.9403  1.6504
  135MOL0     O18120  11.082  11.483   6.995 -0.2511 -0.0660  0.3269
  135MOL0     C18121  11.210  11.486   7.054  0.4828 -0.2327  0.8270
  135MOL0     C18122  11.252  11.547   7.166 -0.4257 -0.2820 -0.8390
  135MOL0     C18123  11.380  11.526   7.216 -0.3885  0.0519 -0.4783
  135MOL0     C18124  11.471  11.448   7.148 -0.2845 -0.0261  0.5567
  135MOL0     O18125  11.594  11.449   7.207 -0.2011  0.2096  0.7294
  135MOL0     C18126  11.706  11.475   7.120 -0.0301  0.6059 -0.1697
  135MOL0     C18127  11.830  11.522   7.205  0.7091 -0.5767 -0.2319
  135MOL0     C18128  11.957  11.538   7.121  0.6462  0.2538  0.2206
  135MOL0     C18129  12.078  11.565   7.217  0.5996  0.1600 -0.0771
  135MOL0     C18130  12.210  11.549   7.141 -0.6527 -1.1892  0.5390
  135MOL0     C18131  12.329  11.581   7.244 -0.8833  0.5709  0.1370
  135MOL0     C18132  12.464  11.567   7.173 -0.3456 -0.2642 -0.2308
  135MOL0     C18133  12.588  11.584   7.250  0.2694  0.3736 -0.9117
  135MOL0    Cl18134  12.575  11.465   7.393 -0.4032  0.0867 -0.2921
  135MOL0     C18135  11.434  11.389   7.028 -0.7165  0.0893  0.0273
  135MOL0     C18136  11.302  11.408   6.983 -0.2398 -0.6623  0.0564
  135MOL0     O18137  10.970  11.452   7.199 -0.2006 -0.2261  0.9789
  135MOL0     C18138  10.715  11.481   7.097  0.1247 -0.0361  0.2864
  135MOL0     C18139  10.589  11.492   7.030  0.8339 -0.3294  0.5135
  135MOL0     N18140  10.020  11.355   6.485 -0.3464  0.0058 -0.2026
  135MOL0     N18141   9.960  11.238   6.460  0.3003 -0.7298  0.5089
  135MOL0     C18142   9.088  10.423   6.477  0.5218  0.7504 -0.3331
  135MOL0     C18143   8.951  10.407   6.451 -0.5116  0.3325  0.3192
  135MOL0     C18144   8.559  10.236   6.384 -1.2287 -0.1082  0.5552
  135MOL0     C18145   8.505  10.221   6.254  0.3680 -0.2132  0.1427
  135MOL0     C18146   8.364  10.238   6.246  0.0607 -0.0441  0.3572
  135MOL0     C18147   8.275  10.252   6.350  0.0872  0.1993 -0.0438
  135MOL0     O18148   8.143  10.272   6.323 -0.6872 -0.3483 -0.3305
  135MOL0     C18149   8.100  10.407   6.355 -0.2361  0.5214  0.3325
  135MOL0     C18150   7.984  10.442   6.269 -0.0826 -0.0636 -0.6153
  135MOL0     C18151   8.032  10.465   6.126  0.6053 -0.2585  0.3034
  135MOL0     C18152   7.926  10.512   6.024 -0.1115 -0.1494 -0.2079
  135MOL0     C18153   7.807  10.430   6.026  0.6985  0.5274 -0.0517
  135MOL0     C18154   7.696  10.381   6.045  0.2764  0.6503 -1.0877
  135MOL0     C18155   8.333  10.249   6.481 -0.2334  0.1632  0.5002
  135MOL0     C18156   8.476  10.244   6.499 -0.1285  0.1484  0.1187
  135MOL0     C18157   8.524  10.261   6.635 -0.6244  0.5588  0.0743
  135MOL0     H18158   8.993  10.238   6.162 -0.9062  0.6102  0.3406
  135MOL0     H18159   9.229  10.294   6.207  0.5929  2.3274 -0.6141
  135MOL0     H18160   9.420  10.266   6.312 -1.5538 -1.1411  2.3456
  135MOL0     H18161   9.414  10.431   6.246 -3.0782 -0.8731  0.9709
  135MOL0     H18162   9.621  10.390   6.301 -2.5570  1.9990 -1.5684
  135MOL0     H18163   9.605  10.370   6.482  3.2431  0.5258 -0.4948
  135MOL0     H18164   9.530  10.603   6.512 -1.2191  0.5869 -0.4715
  135MOL0     H18165   9.521  10.619   6.336 -2.3108  0.1322  1.3721
  135MOL0     H18166   9.782  10.543   6.480  0.0216  3.5108  3.7819
  135MOL0     H18167   9.764  10.587   6.316 -0.0594 -1.8066  0.0390
  135MOL0     H18168   9.664  10.822   6.407 -0.8320  0.4968  1.7357
  135MOL0     H18169   9.701  10.766   6.569 -2.3038  0.8139  0.6645
  135MOL0     H18170   9.934  10.760   6.513 -0.4948  0.2661  0.6195
  135MOL0     H18171   9.897  10.781   6.340  0.2169 -1.1414  0.6469
  135MOL0     H18172   9.881  10.989   6.560  0.4565  0.8194  0.1527
  135MOL0     H18173   9.824  11.024   6.393 -0.3893 -0.9002  0.7930
  135MOL0     H18174  10.097  10.943   6.502  0.7743 -0.6634 -0.8746
  135MOL0     H18175  10.077  10.965   6.337  1.3076  0.4530  0.0926
  135MOL0     H18176  10.264  11.133   6.432 -0.1817 -1.3642 -1.7869
  135MOL0     H18177  10.372  11.383   6.476 -0.0233 -1.4805  1.9555
  135MOL0     H18178  10.273  11.495   6.400  0.4599  1.3957  2.8564
  135MOL0     H18179  10.175  11.576   6.593  1.2379  1.0273 -0.2839
  135MOL0     H18180  10.249  11.459   6.700 -0.5983  0.5145  0.2836
  135MOL0     H18181  10.378  11.686   6.543  3.8284  1.7275  0.3650
  135MOL0     H18182  10.489  11.553   6.569 -1.1045  0.2482 -1.2635
  135MOL0     H18183  10.315  11.696   6.791  0.1313  0.8618  0.7724
  135MOL0     H18184  10.482  11.733   6.761 -1.4764  0.9865 -0.1455
  135MOL0     H18185  10.667  11.560   6.718 -0.2230  1.8061  1.1407
  135MOL0     H18186  10.894  11.531   6.808  2.2061 -0.2581  1.3458
  135MOL0     H18187  11.187  11.614   7.221  1.1936 -0.5368  1.5991
  135MOL0     H18188  11.408  11.570   7.311 -2.5838  0.3417  0.0761
  135MOL0     H18189  11.728  11.383   7.065 -2.4509  0.8760 -1.7480
  135MOL0     H18190  11.680  11.554   7.048 -0.8581  2.9803  2.5241
  135MOL0     H18191  11.802  11.612   7.261 -1.4224 -2.8193  2.6543
  135MOL0     H18192  11.834  11.445   7.283 -2.3661  1.3769  2.1190
  135MOL0     H18193  11.976  11.449   7.061  0.6142 -0.3093  1.0254
  135MOL0     H18194  11.937  11.625   7.058  2.1186  1.1538  0.9561
  135MOL0     H18195  12.082  11.478   7.283 -2.8983 -0.3066 -0.3052
  135MOL0     H18196  12.065  11.660   7.268 -1.6768  1.1989 -2.3831
  135MOL0     H18197  12.219  11.636   7.076  3.0464 -1.3494  0.6463
  135MOL0     H18198  12.227  11.451   7.095  0.7861 -0.9788  0.5646
  135MOL0     H18199  12.317  11.684   7.279  1.2474  0.7209  0.6063
  135MOL0     H18200  12.325  11.515   7.332 -1.3670 -0.0893 -0.3715
  135MOL0     H18201  12.466  11.627   7.081  2.4470 -1.6671 -1.1936
  135MOL0     H18202  12.459  11.462   7.141 -1.1642 -0.2153 -0.3019
  135MOL0     H18203  12.682  11.558   7.199  4.4021  4.2690  3.6445
  135MOL0     H18204  12.601  11.686   7.287  0.3741 -0.1573  0.5651
  135MOL0     H18205  11.503  11.323   6.977  0.2417  0.1063  1.2650
  135MOL0     H18206  11.278  11.365   6.886 -1.2171 -1.4064  0.6201
  135MOL0     H18207  10.726  11.459   7.203  2.1281 -0.2200  0.0824
  135MOL0     H18208  10.507  11.472   7.099  0.6274 -1.4956 -0.0433
  135MOL0     H18209   9.120  10.480   6.565  0.5495 -1.9608  1.5398
  135MOL0     H18210   8.886  10.446   6.528 -0.4008 -1.0031  1.1185
  135MOL0     H18211   8.556  10.210   6.160  0.6265 -0.2145  0.2828
  135MOL0     H18212   8.325  10.244   6.145 -2.0101 -1.4044  1.0267
  135MOL0     H18213   8.179  10.480   6.333  1.5942 -1.4982 -0.1470
  135MOL0     H18214   8.079  10.416   6.462 -1.2286  0.4445  0.1534
  135MOL0     H18215   7.937  10.533   6.308 -2.0545 -0.7624 -1.2404
  135MOL0     H18216   7.917  10.356   6.265  0.8004 -0.7086 -3.1747
  135MOL0     H18217   8.075  10.373   6.086  1.8539  0.2117  0.5106
  135MOL0     H18218   8.110  10.541   6.133 -0.8467  1.2734  0.4965
  135MOL0     H18219   7.893  10.611   6.056  1.6396  0.4655 -0.2126
  135MOL0     H18220   7.960  10.519   5.920  1.2615 -1.4447  0.1302
  135MOL0     H18221   7.602  10.334   6.066 -0.0103  1.1336 -1.2704
  135MOL0     H18222   8.255  10.246   6.557 -2.2957  1.8172 -1.4012
  135MOL0     H18223   8.581  10.172   6.665  0.3248  0.8838 -0.7110
  135MOL0     H18224   8.594  10.344   6.643  2.9347 -1.9334 -2.0495
  135MOL0     H18225   8.442  10.281   6.704 -0.5339  2.1438 -0.2433
  136MOL0     O18226   0.066   1.245   6.250 -0.1291 -0.3219 -0.2101
  136MOL0     C18227   0.094   1.145   6.315  0.4455 -0.3641 -0.3534
  136MOL0     O18228   0.199   1.065   6.291  0.5298  0.3966 -0.1932
  136MOL0     C18229   0.313   1.114   6.244 -0.1813  0.4306  0.8187
  136MOL0     C18230   0.359   1.048   6.129  0.4136 -1.0430 -0.0921
  136MOL0     C18231   0.483   1.093   6.082  1.1281 -0.1022 -0.4330
  136MOL0     C18232   0.548   1.207   6.134 -0.5927 -1.3522  0.1040
  136MOL0     O18233   0.682   1.250   6.095  0.3590  0.9315  0.3477
  136MOL0     C18234   0.753   1.166   6.007 -0.9297 -0.4411  0.8197
  136MOL0     C18235   0.905   1.208   6.010 -0.3765  0.1585 -0.2574
  136MOL0     C18236   0.977   1.175   5.875 -0.0621 -0.6278 -0.2377
  136MOL0     C18237   1.075   1.278   5.813  0.3128  0.0769 -0.4784
  136MOL0     C18238   1.068   1.271   5.660 -0.5209 -0.2177  0.5349
  136MOL0     C18239   1.179   1.345   5.574  0.3358 -0.2993  0.0028
  136MOL0     C18240   1.190   1.296   5.431 -0.0259 -0.7271  0.4542
  136MOL0     C18241   1.327   1.330   5.363  0.3837  0.4065  0.6549
  136MOL0     N18242   1.442   1.270   5.437  0.7166 -0.1893  0.1815
  136MOL0     C18243   1.454   1.143   5.467 -0.2965 -1.0496 -1.4227
  136MOL0     C18244   1.590   1.130   5.486  0.3844  0.0492  0.1693
  136MOL0     C18245   1.657   0.997   5.520  0.4742  0.1276  0.5281
  136MOL0     C18246   1.798   1.006   5.576 -0.1606 -0.3900  0.2601
  136MOL0     C18247   1.797   1.053   5.721 -0.3403 -1.1311  0.0921
  136MOL0     C18248   1.931   1.101   5.766 -0.2300  0.3640 -0.4014
  136MOL0     O18249   2.003   0.988   5.825 -0.1973 -0.7669  0.0634
  136MOL0     C18250   2.127   0.952   5.777  0.2923 -0.0874 -0.1635
  136MOL0     C18251   2.213   0.894   5.863  0.0735  0.0330 -1.4447
  136MOL0     C18252   2.334   0.833   5.824  0.3574  0.7205  0.6360
  136MOL0     C18253   2.366   0.827   5.684 -1.2340 -0.7768  0.0408
  136MOL0     C18254   2.496   0.766   5.644  0.2057  0.2520 -0.0885
  136MOL0     O18255   2.519   0.766   5.507  0.4951  0.1961 -0.4812
  136MOL0     C18256   2.645   0.721   5.477 -0.3669  0.4900  1.0098
  136MOL0     C18257   2.687   0.590   5.498 -0.4937  0.0021  0.2182
  136MOL0     C18258   2.811   0.547   5.456  0.4387  0.8629  0.2805
  136MOL0     C18259   2.889   0.644   5.387  0.1603 -0.2470  0.4577
  136MOL0     O18260   3.008   0.617   5.330 -0.4889  0.0154 -0.1557
  136MOL0     C18261   3.065   0.488   5.353  0.6884 -0.0070  0.0330
  136MOL0     C18262   3.205   0.481   5.286  0.0993  0.0696  0.3532
  136MOL0     C18263   3.289   0.353   5.308  0.3065  0.0161 -0.9121
  136MOL0     C18264   3.336   0.347   5.452  0.0947 -1.4002  0.0813
  136MOL0     C18265   3.406   0.222   5.489  0.7459  0.0032 -1.2538
  136MOL0     C18266   3.401   0.212   5.641  0.2333  0.4376 -0.1534
  136MOL0     C18267   3.439   0.070   5.676  0.7879  0.4669  0.2089
  136MOL0     C18268   3.466   0.058   5.835 -0.3548  0.2056  0.3520
  136MOL0    Cl18269   3.317   0.011   5.917 -0.4840  0.2277  0.1534
  136MOL0     C18270   2.848   0.774   5.371  0.3901  0.0631  0.5239
  136MOL0     C18271   2.721   0.812   5.402  0.1594  0.3387 -0.0134
  136MOL0     O18272   2.573   0.735   5.727  1.0325  0.0373  0.6129
  136MOL0     C18273   2.282   0.896   5.595 -0.7438 -0.4508  0.2795
  136MOL0     C18274   2.167   0.956   5.643  0.0661  0.1363 -0.1598
  136MOL0     N18275   1.652   1.248   5.461 -0.3156 -0.2230  0.1614
  136MOL0     N18276   1.565   1.333   5.431  0.0782 -0.0668  0.2336
  136MOL0     C18277   0.492   1.274   6.242 -0.1433  0.2544  0.8840
  136MOL0     C18278   0.379   1.222   6.306  0.4050 -0.0446  0.2835
  136MOL0     C18279  -0.018   1.083   6.393  0.6411  0.3163 -0.0240
  136MOL0     C18280  -0.034   0.942   6.379  0.3879  0.3127 -0.3556
  136MOL0     C18281  -0.159   0.894   6.413 -0.4264 -0.3596  0.0930
  136MOL0     C18282  -0.241   0.951   6.510  1.9778 -1.2725  0.6294
  136MOL0     O18283  -0.345   0.885   6.561 -1.3031  0.0935 -0.1230
  136MOL0     C18284  -0.436   0.950   6.648  0.3929  1.0135 -0.8269
  136MOL0     C18285  -0.529   1.032   6.562 -0.1993  0.1846  0.8327
  136MOL0     C18286  -0.604   0.940   6.463 -0.7205  0.2877  0.3395
  136MOL0     C18287  -0.714   1.021   6.388 -0.5093  0.4160  0.2386
  136MOL0     C18288  -0.791   0.931   6.306  1.6264 -0.2942  0.3984
  136MOL0     C18289  -0.884   0.866   6.252 -0.7757  0.1080 -0.0446
  136MOL0     C18290  -0.208   1.088   6.541  0.0446 -0.0979 -0.3646
  136MOL0     C18291  -0.110   1.154   6.480 -0.2731  0.2652 -0.2042
  136MOL0     C18292  -0.105   1.312   6.494  0.1462 -0.1995  0.5246
  136MOL0     H18293   0.300   0.972   6.079 -3.0565  0.5229  1.3151
  136MOL0     H18294   0.515   1.043   5.991 -0.6356 -1.1022 -0.5271
  136MOL0     H18295   0.749   1.062   6.041  1.2971 -0.5856  0.8268
  136MOL0     H18296   0.704   1.176   5.910  2.5389 -0.6585 -1.0992
  136MOL0     H18297   0.952   1.172   6.102  0.7078  1.1725 -0.3910
  136MOL0     H18298   0.910   1.318   6.016  1.5359  0.0257  1.6910
  136MOL0     H18299   0.890   1.153   5.814 -1.3880 -1.4707  1.8506
  136MOL0     H18300   1.036   1.083   5.876  1.6799  0.4225  1.2248
  136MOL0     H18301   1.063   1.385   5.830  1.3719  0.7646 -3.4618
  136MOL0     H18302   1.175   1.249   5.848  0.1548 -0.6376 -0.5899
  136MOL0     H18303   1.063   1.166   5.631  0.1699  0.2697 -1.4672
  136MOL0     H18304   0.967   1.306   5.637 -0.6533 -0.6756  0.4106
  136MOL0     H18305   1.144   1.449   5.568  0.1090 -0.4524 -3.1094
  136MOL0     H18306   1.276   1.338   5.624  1.4805 -3.2662 -2.2931
  136MOL0     H18307   1.103   1.329   5.374 -0.7080  1.9712  2.8113
  136MOL0     H18308   1.179   1.187   5.435 -1.8421 -0.5380  1.5334
  136MOL0     H18309   1.330   1.298   5.258  0.8428  3.4855 -0.3847
  136MOL0     H18310   1.344   1.438   5.363 -0.9873  0.7347 -2.2624
  136MOL0     H18311   1.377   1.066   5.467  1.1787 -2.6153 -2.9027
  136MOL0     H18312   1.604   0.944   5.599  1.0489 -1.0185  0.1604
  136MOL0     H18313   1.658   0.938   5.428  2.2312  0.5600  0.2223
  136MOL0     H18314   1.850   0.913   5.552  0.9790  0.4882 -0.8251
  136MOL0     H18315   1.867   1.075   5.526  2.3329 -4.2813 -2.2198
  136MOL0     H18316   1.760   0.980   5.794 -1.4056  0.6740  1.4248
  136MOL0     H18317   1.726   1.133   5.741  0.9931 -0.4315  2.4020
  136MOL0     H18318   1.921   1.180   5.842 -0.9294  1.1721 -1.3229
  136MOL0     H18319   1.991   1.161   5.697 -0.5474  1.2798  0.0918
  136MOL0     H18320   2.180   0.875   5.964  2.6953 -0.2329 -0.5542
  136MOL0     H18321   2.400   0.786   5.897  0.8306 -0.8691 -0.7360
  136MOL0     H18322   2.618   0.521   5.545  0.0217  0.8507  2.3436
  136MOL0     H18323   2.842   0.443   5.451 -0.1489  0.7362 -1.5462
  136MOL0     H18324   3.062   0.462   5.459 -4.6703 -1.9082 -0.2481
  136MOL0     H18325   3.011   0.405   5.305  1.9536 -0.0362 -1.4343
  136MOL0     H18326   3.188   0.484   5.178 -1.4133  0.3626  0.5764
  136MOL0     H18327   3.260   0.573   5.310  2.7448 -1.6984  1.5649
  136MOL0     H18328   3.226   0.270   5.274  1.2393 -0.9030 -0.4421
  136MOL0     H18329   3.382   0.343   5.252  2.2087 -0.9629  2.1555
  136MOL0     H18330   3.249   0.369   5.514  0.2508  2.4209 -0.8039
  136MOL0     H18331   3.410   0.425   5.468  0.7322 -2.0134  0.1721
  136MOL0     H18332   3.512   0.227   5.462  1.5248 -1.3940  1.2028
  136MOL0     H18333   3.366   0.140   5.430  0.4735 -1.1314  0.4509
  136MOL0     H18334   3.469   0.285   5.687 -0.1932  0.6126  0.2057
  136MOL0     H18335   3.301   0.229   5.681 -0.1224  0.3807 -1.0091
  136MOL0     H18336   3.534   0.053   5.623  0.9914  0.6898  0.5017
  136MOL0     H18337   3.361   0.011   5.627  1.5124  1.6848 -2.6781
  136MOL0     H18338   3.534  -0.026   5.853 -2.0604 -1.3220 -0.0234
  136MOL0     H18339   3.520   0.145   5.872  2.3917 -1.4582  0.5751
  136MOL0     H18340   2.914   0.846   5.324  1.0686  0.3770  1.9032
  136MOL0     H18341   2.679   0.909   5.379 -1.7166  0.1222  2.1871
  136MOL0     H18342   2.312   0.900   5.491 -0.7649 -0.1470  0.2840
  136MOL0     H18343   2.103   1.008   5.572 -0.9762  2.0434  2.0516
  136MOL0     H18344   0.545   1.360   6.281 -1.7544  1.0086  1.4830
  136MOL0     H18345   0.340   1.274   6.393  1.3585 -0.0109  0.7049
  136MOL0     H18346   0.035   0.868   6.340  2.9395  2.6880 -0.7114
  136MOL0     H18347  -0.182   0.797   6.370  1.3122 -0.1333 -1.4777
  136MOL0     H18348  -0.389   1.013   6.723  0.3445 -0.3867  0.4330
  136MOL0     H18349  -0.481   0.879   6.719  2.0288  1.7981  1.0611
  136MOL0     H18350  -0.468   1.103   6.505  2.6832 -2.8225 -0.1632
  136MOL0     H18351  -0.599   1.082   6.629  0.7034  0.8595  1.2923
  136MOL0     H18352  -0.656   0.864   6.521  2.1512 -2.5031 -0.4956
  136MOL0     H18353  -0.538   0.889   6.393 -0.7866 -0.2936  0.6949
  136MOL0     H18354  -0.780   1.071   6.459 -1.1558 -1.7575  1.2622
  136MOL0     H18355  -0.665   1.090   6.320 -1.2510 -1.2329 -2.0778
  136MOL0     H18356  -0.957   0.797   6.216  1.2588 -0.9768 -2.3594
  136MOL0     H18357  -0.263   1.142   6.618  1.5994  2.2478 -0.7913
  136MOL0     H18358  -0.119   1.347   6.391  1.4332  0.5051  0.5694
  136MOL0     H18359  -0.177   1.350   6.566  1.7131  2.1103  0.9843
  136MOL0     H18360  -0.006   1.342   6.531  0.1832  0.9516 -0.4566
  137MOL0     O18361   5.146   2.322   8.607  0.1385 -0.1681  0.0345
  137MOL0     C18362   5.108   2.214   8.570  0.2668  0.0561 -0.6489
  137MOL0     O18363   5.134   2.095   8.630  0.0456 -0.2170  0.6431
  137MOL0     C18364   5.197   2.089   8.752  0.9652  0.7532  0.1215
  137MOL0     C18365   5.146   2.165   8.863 -0.1516 -0.3625  0.6775
  137MOL0     C18366   5.197   2.146   8.989 -0.5047  0.8996 -0.7814
  137MOL0     C18367   5.322   2.072   9.008  1.1757 -0.5682 -0.0349
  137MOL0     O18368   5.381   2.050   9.128 -0.5861  0.2202  0.5583
  137MOL0     C18369   5.378   2.150   9.227 -0.0364  1.1772  0.3864
  137MOL0     C18370   5.488   2.129   9.337  0.9298  0.3257  1.1580
  137MOL0     C18371   5.614   2.198   9.306 -0.4766  0.3087  0.4200
  137MOL0     C18372   5.720   2.154   9.398  0.3081  0.2963 -0.6046
  137MOL0     C18373   5.862   2.205   9.367 -0.3659 -0.3762 -0.3212
  137MOL0     C18374   5.958   2.149   9.479  0.1936  0.3445  0.2124
  137MOL0     C18375   6.104   2.197   9.441  0.3952  0.1104 -0.3830
  137MOL0     C18376   6.178   2.151   9.322 -0.1809  0.0873 -0.0491
  137MOL0     N18377   6.322   2.201   9.322 -0.6030  0.4272 -0.5596
  137MOL0     C18378   6.428   2.129   9.371  0.0481 -0.4278  1.4777
  137MOL0     C18379   6.543   2.186   9.331  0.5082 -0.2630 -1.0841
  137MOL0     C18380   6.683   2.144   9.359  0.3225  0.2844 -0.4435
  137MOL0     C18381   6.774   2.263   9.340  0.8930  0.3083  0.3948
  137MOL0     C18382   6.922   2.235   9.392  0.3196 -0.5449  0.1823
  137MOL0     C18383   7.021   2.352   9.374  0.8909 -0.3517 -0.8537
  137MOL0     O18384   6.995   2.465   9.464 -0.4085  0.1817 -0.0340
  137MOL0     C18385   7.086   2.487   9.565  0.7021  1.2009 -0.6095
  137MOL0     C18386   7.043   2.540   9.687  0.4027 -0.0420 -0.1846
  137MOL0     C18387   7.128   2.572   9.793 -0.7189  0.0802  0.5054
  137MOL0     C18388   7.268   2.552   9.781 -0.5153  0.1843  0.0517
  137MOL0     C18389   7.358   2.600   9.885 -0.2154  0.0949 -0.0547
  137MOL0     O18390   7.318   2.645  10.013  0.3319  0.0349 -0.7230
  137MOL0     C18391   7.413   2.678  10.105  0.0537 -0.4826 -1.3865
  137MOL0     C18392   7.424   2.806  10.149  0.9919  0.0466 -0.2210
  137MOL0     C18393   7.513   2.847  10.251  0.3330  0.4812  0.1553
  137MOL0     C18394   7.600   2.748  10.304 -0.0145 -0.2849  0.2230
  137MOL0     O18395   7.693   2.772  10.396  0.0653 -0.0966 -0.4148
  137MOL0     C18396   7.722   2.912  10.440  0.3869 -0.2756 -0.2822
  137MOL0     C18397   7.837   2.915  10.548 -0.0028  0.1119 -1.1802
  137MOL0     C18398   7.843   3.054  10.612  0.0164 -0.2132 -0.5054
  137MOL0     C18399   7.875   3.170  10.524 -0.1457 -0.1235  0.4537
  137MOL0     C18400   7.905   3.306  10.593 -0.8051  0.3499  0.0585
  137MOL0     C18401   7.788   3.382  10.644 -0.2608 -0.6425 -0.2339
  137MOL0     C18402   7.830   3.532  10.651  0.8574  1.0195  0.4975
  137MOL0     C18403   7.965   3.552  10.724 -0.2167 -0.3621  0.5110
  137MOL0    Cl18404   7.987   3.727  10.715  0.4099  0.0709 -0.0388
  137MOL0     C18405   7.583   2.615  10.259  0.0921  0.9811 -0.1502
  137MOL0     C18406   7.498   2.580  10.150  0.3361  0.3410 -0.8054
  137MOL0     O18407   7.480   2.583   9.853  0.2210 -0.2897 -0.8601
  137MOL0     C18408   7.315   2.507   9.649  0.1173 -0.1142 -0.4842
  137MOL0     C18409   7.223   2.474   9.542 -0.0636 -0.7699 -0.0375
  137MOL0     N18410   6.497   2.299   9.260 -0.3214 -0.1002  0.1294
  137MOL0     N18411   6.372   2.300   9.245  0.3425 -0.0177  0.7833
  137MOL0     C18412   5.375   2.006   8.896  0.1537 -0.7405  1.0052
  137MOL0     C18413   5.301   2.002   8.776 -0.3739  0.6460  0.3692
  137MOL0     C18414   4.989   2.204   8.471 -0.3470  0.6075  0.0725
  137MOL0     C18415   4.982   2.094   8.377 -0.9241  0.7436 -0.0202
  137MOL0     C18416   4.879   2.081   8.280  0.2465 -0.3675  0.3410
  137MOL0     C18417   4.785   2.181   8.270  0.6079  0.3631 -0.5814
  137MOL0     O18418   4.682   2.188   8.178  0.1794 -0.3000  0.2696
  137MOL0     C18419   4.677   2.101   8.065 -0.1523 -0.0353  0.7969
  137MOL0     C18420   4.578   2.145   7.961  0.7921 -0.3888  0.1816
  137MOL0     C18421   4.591   2.293   7.929  0.0756  0.4299  0.5111
  137MOL0     C18422   4.508   2.326   7.810  0.2006  0.6839 -0.3165
  137MOL0     C18423   4.366   2.301   7.824 -0.2981  0.8188 -0.2157
  137MOL0     C18424   4.246   2.271   7.831  0.8038 -0.6417  0.4759
  137MOL0     C18425   4.791   2.284   8.363  0.5055  1.3036 -1.1098
  137MOL0     C18426   4.887   2.299   8.464 -0.3348  0.3303 -0.2775
  137MOL0     C18427   4.871   2.418   8.566  0.2547  0.8887 -0.5225
  137MOL0     H18428   5.053   2.221   8.863 -0.7491 -1.2996  2.2864
  137MOL0     H18429   5.137   2.196   9.065 -1.8244 -2.8180  0.8674
  137MOL0     H18430   5.400   2.248   9.182  0.5127  1.6484  1.6521
  137MOL0     H18431   5.281   2.167   9.274  0.3247  0.9592  1.2224
  137MOL0     H18432   5.514   2.023   9.342  2.4057  0.3368 -2.6740
  137MOL0     H18433   5.444   2.170   9.428 -0.1162 -0.3460  0.9661
  137MOL0     H18434   5.618   2.307   9.309 -0.3439  0.4371 -2.1606
  137MOL0     H18435   5.645   2.170   9.205 -0.6339  0.6112  0.2871
  137MOL0     H18436   5.694   2.187   9.499  0.3326 -0.0515 -0.4847
  137MOL0     H18437   5.725   2.045   9.390 -2.2114  0.2391 -2.3034
  137MOL0     H18438   5.888   2.159   9.272  1.9060  0.9119 -0.3853
  137MOL0     H18439   5.863   2.313   9.351 -1.1402 -0.2745  0.2255
  137MOL0     H18440   5.924   2.185   9.577  1.1962  0.6934  0.4385
  137MOL0     H18441   5.943   2.041   9.479 -0.0838  0.3799 -0.3004
  137MOL0     H18442   6.166   2.167   9.527  2.7983  2.8071 -1.0288
  137MOL0     H18443   6.106   2.306   9.445  1.3999  0.0918  0.0176
  137MOL0     H18444   6.179   2.041   9.319  2.3650  0.0753 -2.7685
  137MOL0     H18445   6.116   2.184   9.238 -2.8974 -2.1546  0.8928
  137MOL0     H18446   6.408   2.033   9.418 -1.5215  0.0268  1.7876
  137MOL0     H18447   6.674   2.100   9.459  2.8374 -2.3214 -1.1898
  137MOL0     H18448   6.719   2.064   9.294  2.7518  2.6153 -2.2044
  137MOL0     H18449   6.788   2.286   9.234  2.6021 -0.8714  0.3248
  137MOL0     H18450   6.727   2.352   9.383 -2.6633 -1.0063 -0.4339
  137MOL0     H18451   6.964   2.150   9.338 -0.5606 -0.3333 -0.8689
  137MOL0     H18452   6.913   2.204   9.497  4.4527  1.4188  1.3298
  137MOL0     H18453   7.033   2.389   9.271  0.6374  0.0958 -0.7243
  137MOL0     H18454   7.119   2.309   9.399 -0.2781 -2.6044  0.1570
  137MOL0     H18455   6.935   2.547   9.695  0.2086 -0.8463 -1.6990
  137MOL0     H18456   7.087   2.608   9.888  0.9299  1.5676  0.7112
  137MOL0     H18457   7.359   2.880  10.104 -0.6739 -1.9922 -1.3407
  137MOL0     H18458   7.512   2.946  10.294  0.5456 -0.7616  3.3153
  137MOL0     H18459   7.769   2.967  10.358  2.4402 -0.6481  0.5680
  137MOL0     H18460   7.635   2.970  10.470  0.4434  0.8513 -2.1150
  137MOL0     H18461   7.819   2.836  10.622  1.9148  1.2695  0.6417
  137MOL0     H18462   7.936   2.892  10.507  0.6045  0.3079  0.1312
  137MOL0     H18463   7.753   3.057  10.673  0.1755 -4.6171  0.2871
  137MOL0     H18464   7.933   3.037  10.672  1.0902  0.0804 -1.9715
  137MOL0     H18465   7.797   3.181  10.447  1.1696  0.7125 -0.8099
  137MOL0     H18466   7.961   3.136  10.466 -1.2273 -2.7239  0.2083
  137MOL0     H18467   7.968   3.358  10.521  0.5421  1.0454  1.6687
  137MOL0     H18468   7.971   3.290  10.679 -0.3083  1.5855 -0.0749
  137MOL0     H18469   7.704   3.370  10.575 -0.7731  3.1261 -0.4870
  137MOL0     H18470   7.752   3.341  10.739 -1.2716  2.1798  0.7137
  137MOL0     H18471   7.752   3.580  10.711 -0.2998 -0.6828  0.4285
  137MOL0     H18472   7.833   3.582  10.554  3.2344  0.9528  0.4815
  137MOL0     H18473   7.938   3.521  10.826  1.5833  1.9736  1.7930
  137MOL0     H18474   8.050   3.497  10.682 -0.0751  2.1588 -2.9407
  137MOL0     H18475   7.645   2.543  10.312  5.1628  2.9277 -2.7765
  137MOL0     H18476   7.488   2.477  10.117  3.4539 -0.9937  1.9090
  137MOL0     H18477   7.423   2.505   9.633  0.2689  2.3453 -0.1516
  137MOL0     H18478   7.254   2.440   9.443  0.4709 -0.1362 -0.0966
  137MOL0     H18479   5.458   1.937   8.902 -0.0885 -1.2640 -0.8866
  137MOL0     H18480   5.333   1.947   8.689 -1.0747  1.5554 -0.4805
  137MOL0     H18481   5.051   2.010   8.378 -2.5852 -0.6783  0.6421
  137MOL0     H18482   4.870   1.994   8.216  1.3415  0.6212 -1.2428
  137MOL0     H18483   4.640   2.000   8.088  0.7245 -1.0899 -1.9311
  137MOL0     H18484   4.775   2.082   8.021  0.3949 -1.0184  2.3544
  137MOL0     H18485   4.483   2.126   8.011  1.8300 -1.1735  1.9442
  137MOL0     H18486   4.570   2.083   7.872 -1.4870 -1.1698  0.8680
  137MOL0     H18487   4.696   2.310   7.903  0.7263 -0.1900  2.5139
  137MOL0     H18488   4.567   2.357   8.015 -0.3051  3.0550 -1.4136
  137MOL0     H18489   4.526   2.432   7.789 -0.4056  1.6134  3.2094
  137MOL0     H18490   4.535   2.274   7.718 -0.9775  1.6404 -1.2539
  137MOL0     H18491   4.145   2.235   7.844  0.2918  0.8008  0.7198
  137MOL0     H18492   4.715   2.361   8.366 -1.8046 -0.8005 -2.3990
  137MOL0     H18493   4.952   2.491   8.557  2.1232 -1.1716 -1.0398
  137MOL0     H18494   4.781   2.481   8.561  0.5571  1.3365 -0.3322
  137MOL0     H18495   4.883   2.389   8.670 -1.6497  1.6613 -0.0415
  138MOL0     O18496   4.106   0.643   5.983  0.5717  0.6454  0.8040
  138MOL0     C18497   4.101   0.708   6.088  0.1560 -0.4911  0.4161
  138MOL0     O18498   4.208   0.757   6.159  0.2122 -0.3482 -0.2967
  138MOL0     C18499   4.334   0.739   6.108  0.2904  0.6998  0.1379
  138MOL0     C18500   4.431   0.698   6.200  0.9419 -0.7980  0.4534
  138MOL0     C18501   4.561   0.674   6.162 -0.6239  0.0389 -0.2827
  138MOL0     C18502   4.606   0.687   6.030  1.1752  0.2757  0.0586
  138MOL0     O18503   4.739   0.676   6.005  1.0601  0.1147  0.6501
  138MOL0     C18504   4.798   0.737   5.889 -0.1003 -0.4481 -0.3087
  138MOL0     C18505   4.949   0.726   5.917 -0.3951  0.0481  0.1063
  138MOL0     C18506   5.019   0.794   5.797  0.7854  1.2830 -0.1365
  138MOL0     C18507   5.169   0.830   5.843  0.8270  0.1188  0.3433
  138MOL0     C18508   5.256   0.854   5.720  0.0493  0.2655 -0.1467
  138MOL0     C18509   5.394   0.876   5.773 -1.2872  1.0825 -0.0937
  138MOL0     C18510   5.485   0.924   5.656  0.2504  0.2161  0.6114
  138MOL0     C18511   5.504   0.800   5.567 -0.7222  0.1920  0.1401
  138MOL0     N18512   5.608   0.831   5.461  0.3328  0.1468 -0.4357
  138MOL0     C18513   5.599   0.928   5.374 -0.7980 -0.1774  0.2512
  138MOL0     C18514   5.714   0.921   5.307  0.7473  0.4025  1.0372
  138MOL0     C18515   5.749   1.013   5.190 -0.0496 -0.5427  0.6681
  138MOL0     C18516   5.896   1.046   5.200  0.7341 -0.4117 -0.3606
  138MOL0     C18517   5.915   1.150   5.089 -0.1530 -0.6298 -0.1712
  138MOL0     C18518   6.058   1.188   5.074  0.1577  0.1329 -0.4475
  138MOL0     O18519   6.114   1.074   5.001 -0.5880 -0.5487 -0.2811
  138MOL0     C18520   6.248   1.082   4.971 -0.1181 -0.2252 -0.6747
  138MOL0     C18521   6.327   1.199   4.988 -0.0833 -0.0955  0.5147
  138MOL0     C18522   6.467   1.211   4.953  0.2112 -0.9748  0.2430
  138MOL0     C18523   6.528   1.097   4.904 -0.5446 -0.4409  0.4983
  138MOL0     C18524   6.673   1.103   4.854 -1.0074 -1.4599  0.5433
  138MOL0     O18525   6.745   1.217   4.888  0.3618 -0.0029 -0.7799
  138MOL0     C18526   6.881   1.232   4.872 -0.5820  0.5936 -0.0454
  138MOL0     C18527   6.968   1.142   4.816 -0.1638 -0.0148  0.2709
  138MOL0     C18528   7.094   1.180   4.776 -0.4699 -0.3642 -0.3442
  138MOL0     C18529   7.142   1.311   4.790 -0.2379  0.7691 -0.4527
  138MOL0     O18530   7.272   1.331   4.746  0.0821 -0.0689  0.1937
  138MOL0     C18531   7.331   1.458   4.741  0.3128 -0.2554 -0.4492
  138MOL0     C18532   7.491   1.455   4.702  0.5364 -0.3948 -0.2092
  138MOL0     C18533   7.506   1.378   4.582 -0.9564 -0.0348  0.2023
  138MOL0     C18534   7.450   1.446   4.454  0.7250  0.0913  0.7708
  138MOL0     C18535   7.492   1.389   4.323 -0.1162 -0.4203  0.0953
  138MOL0     C18536   7.645   1.392   4.299 -0.3788 -0.4902  0.4034
  138MOL0     C18537   7.683   1.418   4.147 -0.6786 -0.3997  0.0653
  138MOL0     C18538   7.651   1.292   4.059 -0.6774 -0.7936 -0.4442
  138MOL0    Cl18539   7.475   1.288   4.017 -0.0026 -0.6140 -0.2723
  138MOL0     C18540   7.058   1.397   4.841  0.6933  0.0300  0.4343
  138MOL0     C18541   6.930   1.363   4.888  0.2224 -0.5705 -0.3853
  138MOL0     O18542   6.713   1.012   4.783 -0.0127 -0.2467 -0.5484
  138MOL0     C18543   6.459   0.979   4.895  0.2871 -0.2792 -0.6289
  138MOL0     C18544   6.326   0.971   4.933 -0.3021  0.4723  0.0534
  138MOL0     N18545   5.783   0.809   5.352  0.1173  0.1956 -0.2216
  138MOL0     N18546   5.726   0.760   5.458 -0.4321 -0.1563 -0.3522
  138MOL0     C18547   4.511   0.723   5.939  0.2400 -0.0833  0.2456
  138MOL0     C18548   4.375   0.749   5.976 -1.0220 -0.1363  1.2251
  138MOL0     C18549   3.970   0.726   6.152 -0.2679 -0.5018  0.1008
  138MOL0     C18550   3.946   0.738   6.288  0.2756  0.5331  1.3599
  138MOL0     C18551   3.822   0.768   6.354  0.9718 -0.1660 -0.7400
  138MOL0     C18552   3.714   0.796   6.276 -0.3841 -0.1974  0.2622
  138MOL0     O18553   3.592   0.838   6.330 -0.9202 -1.0301  0.1644
  138MOL0     C18554   3.575   0.864   6.466  0.0835 -0.2740 -0.3575
  138MOL0     C18555   3.653   0.983   6.523 -0.0341  0.6984 -0.0393
  138MOL0     C18556   3.631   1.113   6.451 -0.8180  0.6581 -0.0869
  138MOL0     C18557   3.745   1.148   6.352  0.2231  0.5213 -0.2966
  138MOL0     C18558   3.884   1.160   6.414  0.7105 -1.2252  0.3077
  138MOL0     C18559   3.995   1.166   6.454  0.1328 -0.8061 -0.1938
  138MOL0     C18560   3.730   0.781   6.136  0.2665 -0.5584 -1.5948
  138MOL0     C18561   3.857   0.752   6.074 -0.0230  0.1918 -0.4654
  138MOL0     C18562   3.849   0.773   5.926  0.7092  0.3166  0.2024
  138MOL0     H18563   4.389   0.687   6.300  0.8271 -1.3489  0.3459
  138MOL0     H18564   4.634   0.659   6.241 -0.6605  1.3710  0.0315
  138MOL0     H18565   4.755   0.681   5.806 -1.9829  0.1542  0.2271
  138MOL0     H18566   4.778   0.844   5.891  2.7842  0.1926 -0.8156
  138MOL0     H18567   4.985   0.623   5.925  0.7073  0.2684 -1.4414
  138MOL0     H18568   4.969   0.770   6.014  1.3299 -1.3006  0.4194
  138MOL0     H18569   4.970   0.872   5.739 -2.0491 -0.7841 -0.7891
  138MOL0     H18570   5.028   0.717   5.719 -0.3301  1.0407 -0.0403
  138MOL0     H18571   5.161   0.914   5.913  0.6362  0.3931 -0.0078
  138MOL0     H18572   5.215   0.747   5.899  0.5296 -0.4114 -0.1887
  138MOL0     H18573   5.244   0.763   5.660  1.9879 -1.3572  1.7217
  138MOL0     H18574   5.210   0.938   5.668 -2.2458 -0.7078  0.1788
  138MOL0     H18575   5.393   0.955   5.849  1.9841  0.8167  0.3586
  138MOL0     H18576   5.439   0.783   5.809 -1.2046 -0.9496 -4.6564
  138MOL0     H18577   5.579   0.964   5.695 -0.7801  2.5070  0.9195
  138MOL0     H18578   5.446   1.009   5.599  1.6707  0.5126  0.0407
  138MOL0     H18579   5.540   0.720   5.631 -1.0741  0.3644  0.5560
  138MOL0     H18580   5.411   0.762   5.522  0.1480 -0.7632 -0.9250
  138MOL0     H18581   5.522   1.004   5.371 -2.2056 -1.5486  0.8483
  138MOL0     H18582   5.734   0.953   5.099  2.8994 -2.0445  1.0407
  138MOL0     H18583   5.691   1.104   5.174  2.2548  0.4373 -3.7797
  138MOL0     H18584   5.917   1.094   5.296  1.4470  1.0081 -1.2064
  138MOL0     H18585   5.965   0.961   5.194  0.8742 -0.4335  1.0408
  138MOL0     H18586   5.863   1.242   5.119 -2.0683 -1.2024 -1.5262
  138MOL0     H18587   5.870   1.125   4.993  1.2600  2.1311 -1.6871
  138MOL0     H18588   6.122   1.208   5.160  2.3239 -0.1054 -1.9341
  138MOL0     H18589   6.056   1.286   5.026 -0.3195  1.4877  2.1398
  138MOL0     H18590   6.289   1.294   5.026  2.3895  1.4511 -0.6459
  138MOL0     H18591   6.522   1.303   4.968  2.4723 -2.5256  2.2099
  138MOL0     H18592   6.944   1.038   4.800 -1.7252 -0.0261  2.3603
  138MOL0     H18593   7.159   1.111   4.723  3.1475  1.7112  1.0951
  138MOL0     H18594   7.267   1.518   4.675 -0.1954 -0.2354  0.0550
  138MOL0     H18595   7.327   1.497   4.843  3.0354 -0.4187 -0.2062
  138MOL0     H18596   7.531   1.556   4.688  1.3906 -0.7798 -0.6253
  138MOL0     H18597   7.551   1.410   4.782  0.4905 -1.4172 -0.7303
  138MOL0     H18598   7.615   1.379   4.565 -0.9296  1.6086  0.2976
  138MOL0     H18599   7.486   1.271   4.591 -1.6978 -0.3222 -3.4002
  138MOL0     H18600   7.474   1.552   4.459  2.5039 -0.3159  2.1380
  138MOL0     H18601   7.341   1.431   4.458  0.8528 -1.6970 -0.9443
  138MOL0     H18602   7.449   1.450   4.243  0.9948 -1.8844 -1.7105
  138MOL0     H18603   7.454   1.287   4.312  0.7455 -0.5781 -2.2132
  138MOL0     H18604   7.685   1.479   4.351  1.2905  1.3865 -3.5620
  138MOL0     H18605   7.703   1.309   4.340  2.6870  2.0574  1.6262
  138MOL0     H18606   7.790   1.437   4.140 -0.7058  0.4202  1.4084
  138MOL0     H18607   7.633   1.505   4.103 -1.5119 -0.9500 -0.1055
  138MOL0     H18608   7.709   1.298   3.966  0.7265 -0.3315  0.4360
  138MOL0     H18609   7.679   1.203   4.115  1.7404 -0.6523 -1.3054
  138MOL0     H18610   7.085   1.499   4.868  0.3015  0.0961  0.5880
  138MOL0     H18611   6.875   1.438   4.943  2.9996  0.8950  0.6151
  138MOL0     H18612   6.505   0.884   4.871 -0.1676 -0.5386 -0.4773
  138MOL0     H18613   6.281   0.873   4.941  3.3154 -1.5525 -1.8692
  138MOL0     H18614   4.545   0.737   5.837  0.1278  1.0484  0.3491
  138MOL0     H18615   4.290   0.772   5.911 -1.1277 -1.5983  0.8082
  138MOL0     H18616   4.033   0.721   6.351 -0.3118  0.9026  2.2899
  138MOL0     H18617   3.823   0.771   6.462  0.4906 -3.0932 -0.5659
  138MOL0     H18618   3.600   0.778   6.529 -0.3811  0.2407  0.5447
  138MOL0     H18619   3.468   0.879   6.479 -0.3139 -0.8996 -2.4256
  138MOL0     H18620   3.760   0.962   6.529  0.0216  0.8646 -0.4313
  138MOL0     H18621   3.609   0.995   6.623 -0.8989  1.8284 -0.5352
  138MOL0     H18622   3.654   1.192   6.524  3.4528 -0.8217  0.4401
  138MOL0     H18623   3.533   1.119   6.403 -2.5349  0.9405  3.1624
  138MOL0     H18624   3.751   1.077   6.269  1.6471 -2.0936  1.8663
  138MOL0     H18625   3.714   1.242   6.306 -2.0028  0.2174  0.4643
  138MOL0     H18626   4.100   1.173   6.476  0.2113 -0.8544 -0.5509
  138MOL0     H18627   3.637   0.788   6.080 -1.6005  0.0423  1.3715
  138MOL0     H18628   3.881   0.684   5.871  2.4589  1.2097 -0.3007
  138MOL0     H18629   3.743   0.783   5.901  0.1356 -3.0607  0.8266
  138MOL0     H18630   3.907   0.856   5.885 -0.4888  1.5365  0.8960
  139MOL0     O18631  10.704   8.178   8.376  0.2174  0.0990  0.7992
  139MOL0     C18632  10.726   8.188   8.257  0.5354  0.2779  0.0349
  139MOL0     O18633  10.629   8.233   8.165 -0.2557  0.5753  0.3795
  139MOL0     C18634  10.493   8.223   8.200 -0.0667 -0.8155 -0.1159
  139MOL0     C18635  10.416   8.324   8.137 -1.1407  0.5645 -0.0013
  139MOL0     C18636  10.283   8.320   8.162  0.4505  0.7853 -0.1532
  139MOL0     C18637  10.211   8.222   8.240  0.0529  0.1709 -0.4610
  139MOL0     O18638  10.075   8.242   8.264  0.1695 -0.4782  0.5760
  139MOL0     C18639  10.051   8.269   8.400  0.5594 -0.3293 -0.8079
  139MOL0     C18640   9.941   8.373   8.419 -0.1319  0.0703 -0.1807
  139MOL0     C18641   9.817   8.322   8.353 -0.4576 -1.0195  0.9421
  139MOL0     C18642   9.745   8.205   8.421 -0.3468  0.6411  0.0638
  139MOL0     C18643   9.621   8.142   8.362  0.6228 -0.1500  0.2328
  139MOL0     C18644   9.585   7.998   8.409  0.3721  0.2240 -0.1581
  139MOL0     C18645   9.698   7.894   8.417 -0.7614  0.7195  0.9133
  139MOL0     C18646   9.775   7.880   8.280 -0.0786  0.1522  0.1251
  139MOL0     N18647   9.900   7.805   8.297  0.6628  0.6843  0.6024
  139MOL0     C18648  10.023   7.844   8.242  0.5401  0.4204  0.2717
  139MOL0     C18649  10.107   7.739   8.262  0.0641 -0.0671  0.6619
  139MOL0     C18650  10.253   7.748   8.216  0.1334  0.0564 -1.2529
  139MOL0     C18651  10.271   7.763   8.067 -0.6513  0.0754  0.9586
  139MOL0     C18652  10.392   7.685   8.023  0.6247  0.2230 -0.3297
  139MOL0     C18653  10.526   7.723   8.092  0.2365  0.3981  0.0482
  139MOL0     O18654  10.633   7.641   8.036  0.0734  0.5523  0.5455
  139MOL0     C18655  10.759   7.655   8.082  1.2386 -0.2970  0.5297
  139MOL0     C18656  10.859   7.634   7.987  0.2100 -0.4349 -0.5796
  139MOL0     C18657  11.000   7.655   8.012 -0.1069 -0.2319  0.2574
  139MOL0     C18658  11.029   7.701   8.140  0.1151 -0.1830 -0.4024
  139MOL0     C18659  11.182   7.709   8.180  0.9376 -0.7679  0.9053
  139MOL0     O18660  11.214   7.733   8.306  0.3270  0.5642 -0.1934
  139MOL0     C18661  11.347   7.753   8.346 -0.0589 -0.3536  0.7270
  139MOL0     C18662  11.404   7.678   8.445 -0.7018  0.3034 -0.5062
  139MOL0     C18663  11.535   7.688   8.480  0.7171 -0.2162 -0.0052
  139MOL0     C18664  11.622   7.777   8.413  0.3929  0.8651  0.0644
  139MOL0     O18665  11.758   7.780   8.430 -0.3522  0.5078  0.1600
  139MOL0     C18666  11.819   7.655   8.467 -0.1248  0.5757  0.6306
  139MOL0     C18667  11.885   7.683   8.604 -0.7590  1.4700  0.2590
  139MOL0     C18668  11.941   7.554   8.674 -0.2494  0.0502  0.7754
  139MOL0     C18669  12.086   7.524   8.639  0.1761  0.0571 -0.0262
  139MOL0     C18670  12.150   7.420   8.738 -0.5357 -1.1245  0.0960
  139MOL0     C18671  12.294   7.381   8.701  0.6598 -0.4564 -0.6711
  139MOL0     C18672  12.358   7.329   8.828  0.4325  0.5269 -0.2483
  139MOL0     C18673  12.500   7.289   8.793 -0.4080 -0.4818 -0.0417
  139MOL0    Cl18674  12.554   7.210   8.936  0.1423 -0.0756  0.2866
  139MOL0     C18675  11.573   7.864   8.318  0.5991  0.4919 -0.0960
  139MOL0     C18676  11.429   7.850   8.281 -0.2036 -0.0693 -0.4357
  139MOL0     O18677  11.259   7.705   8.082 -0.8604  0.7538 -0.5308
  139MOL0     C18678  10.931   7.729   8.234 -0.0122 -0.7726 -0.3591
  139MOL0     C18679  10.799   7.708   8.202 -0.1165 -0.1164  0.2652
  139MOL0     N18680  10.024   7.641   8.314 -0.5955 -0.3577  0.0465
  139MOL0     N18681   9.912   7.684   8.346  0.0154 -0.1935 -0.8757
  139MOL0     C18682  10.293   8.127   8.310  0.7573 -0.4033 -0.3728
  139MOL0     C18683  10.434   8.125   8.290  0.3649 -0.3064  0.1665
  139MOL0     C18684  10.858   8.166   8.204  0.0998 -0.3274  0.5750
  139MOL0     C18685  10.904   8.214   8.084 -0.6227  0.8363  0.3552
  139MOL0     C18686  11.031   8.200   8.023 -0.0761  0.6837 -0.2289
  139MOL0     C18687  11.128   8.143   8.104 -0.0043 -0.2563 -0.5406
  139MOL0     O18688  11.257   8.109   8.056  0.1761  0.5314 -0.0870
  139MOL0     C18689  11.303   8.163   7.929  0.5152  0.6055  0.2747
  139MOL0     C18690  11.432   8.095   7.889 -0.2970  0.6876  0.2901
  139MOL0     C18691  11.543   8.142   7.991 -0.5124 -0.7798 -0.7114
  139MOL0     C18692  11.669   8.064   7.967 -0.4118  0.1636 -0.3946
  139MOL0     C18693  11.783   8.114   8.039 -0.1692  0.2903 -0.2965
  139MOL0     C18694  11.888   8.153   8.079 -0.1853  0.2554 -0.1934
  139MOL0     C18695  11.090   8.099   8.235  0.0077  0.4403  0.8508
  139MOL0     C18696  10.956   8.094   8.278 -0.3221  0.6980  0.0188
  139MOL0     C18697  10.946   8.025   8.410  0.5709 -0.5759  0.2003
  139MOL0     H18698  10.467   8.398   8.077 -1.8270  0.7583 -0.3593
  139MOL0     H18699  10.225   8.393   8.106 -4.8696 -5.2076 -3.8853
  139MOL0     H18700  10.029   8.174   8.450  0.0453  0.1051 -0.1967
  139MOL0     H18701  10.135   8.321   8.448 -1.5094  4.1535 -1.5812
  139MOL0     H18702   9.977   8.461   8.365 -0.9623  0.0003 -0.8790
  139MOL0     H18703   9.926   8.395   8.525 -0.3423 -0.0467 -0.1869
  139MOL0     H18704   9.828   8.291   8.248 -0.8782  0.4004  0.4589
  139MOL0     H18705   9.752   8.409   8.360  0.9966  0.0623  1.5312
  139MOL0     H18706   9.815   8.121   8.411 -0.7644  0.5502 -3.5951
  139MOL0     H18707   9.722   8.221   8.527 -4.0539  0.5823 -0.6027
  139MOL0     H18708   9.538   8.209   8.387  1.9404  1.5201  0.3205
  139MOL0     H18709   9.618   8.145   8.253 -2.1208  2.1454  0.2569
  139MOL0     H18710   9.537   8.001   8.507  0.2120  4.4065 -0.1942
  139MOL0     H18711   9.507   7.959   8.343  0.0110 -2.9886  1.9371
  139MOL0     H18712   9.660   7.792   8.431  0.6310 -0.1960 -1.3947
  139MOL0     H18713   9.766   7.920   8.498 -0.1740  0.4225  0.5225
  139MOL0     H18714   9.721   7.823   8.203 -0.4503 -1.0478  1.2332
  139MOL0     H18715   9.792   7.975   8.229  0.1740  1.0408  1.8052
  139MOL0     H18716  10.049   7.944   8.207 -2.0921  2.0949  2.6290
  139MOL0     H18717  10.304   7.834   8.260 -1.8213 -0.3319  2.1216
  139MOL0     H18718  10.307   7.663   8.258  1.3793  1.9561  1.2523
  139MOL0     H18719  10.183   7.723   8.017  0.0765  0.1551 -0.4551
  139MOL0     H18720  10.292   7.865   8.032  0.9027 -0.3410  0.5611
  139MOL0     H18721  10.411   7.717   7.920  1.1796 -2.4234 -1.1250
  139MOL0     H18722  10.370   7.579   8.041  0.5401  0.7460  3.4844
  139MOL0     H18723  10.518   7.709   8.201 -2.3239 -0.5947 -0.2159
  139MOL0     H18724  10.542   7.830   8.073  0.2019 -0.0768 -3.0996
  139MOL0     H18725  10.824   7.616   7.886 -0.6120  2.4948 -0.9253
  139MOL0     H18726  11.079   7.631   7.942  1.3891 -0.0377  1.7922
  139MOL0     H18727  11.341   7.605   8.495  0.3410 -0.8259 -0.7737
  139MOL0     H18728  11.567   7.614   8.552  1.6909  0.6712  0.5032
  139MOL0     H18729  11.752   7.569   8.461  2.7047 -1.6821 -1.5281
  139MOL0     H18730  11.895   7.624   8.395 -0.9476 -3.8522  1.3391
  139MOL0     H18731  11.965   7.756   8.592  0.9912 -0.6770 -2.3876
  139MOL0     H18732  11.812   7.728   8.672  2.3201  2.6610  3.0471
  139MOL0     H18733  11.934   7.571   8.781 -0.0300  1.6666  0.5479
  139MOL0     H18734  11.876   7.469   8.648  1.9386 -0.9545 -1.9239
  139MOL0     H18735  12.142   7.617   8.639 -1.4289  1.1207 -2.3581
  139MOL0     H18736  12.069   7.491   8.536 -1.7971  1.9778 -0.3846
  139MOL0     H18737  12.088   7.330   8.726  0.6886 -1.6231 -4.1402
  139MOL0     H18738  12.139   7.453   8.842 -2.8484  1.4549 -0.8512
  139MOL0     H18739  12.285   7.311   8.618 -0.6785  1.7277 -2.5012
  139MOL0     H18740  12.343   7.471   8.661  1.4767 -0.9722 -0.8555
  139MOL0     H18741  12.293   7.250   8.866 -1.3075  1.6748 -0.7285
  139MOL0     H18742  12.357   7.404   8.908 -1.5741 -0.3497  0.5999
  139MOL0     H18743  12.512   7.226   8.704 -0.9152  0.9874 -1.2012
  139MOL0     H18744  12.556   7.380   8.770  1.9444 -1.8439 -0.0311
  139MOL0     H18745  11.627   7.945   8.270  0.0581 -0.0611 -1.7159
  139MOL0     H18746  11.376   7.921   8.219 -0.2332  0.9408  0.7095
  139MOL0     H18747  10.971   7.748   8.333  1.1405 -2.1707 -0.5187
  139MOL0     H18748  10.730   7.724   8.284  0.2406 -2.2225  1.0263
  139MOL0     H18749  10.247   8.067   8.388 -0.8506  1.2634  0.0412
  139MOL0     H18750  10.504   8.057   8.339  2.5547  0.5066 -1.6525
  139MOL0     H18751  10.829   8.272   8.030 -1.0225 -0.8674 -1.0134
  139MOL0     H18752  11.045   8.229   7.919 -1.5582  0.2672 -0.5720
  139MOL0     H18753  11.320   8.271   7.932  0.8935  0.5955 -0.8610
  139MOL0     H18754  11.238   8.146   7.842  0.4026  1.0458  0.2703
  139MOL0     H18755  11.458   8.134   7.790  1.1288 -0.0070  0.3716
  139MOL0     H18756  11.412   7.988   7.885 -0.9012  0.6986  2.1785
  139MOL0     H18757  11.509   8.139   8.095 -1.9697  1.6672 -1.0406
  139MOL0     H18758  11.563   8.248   7.976 -0.4507 -0.2249  2.5263
  139MOL0     H18759  11.656   7.962   8.002  0.2601  0.0852 -0.3559
  139MOL0     H18760  11.708   8.071   7.865 -2.5661  1.5143 -1.2111
  139MOL0     H18761  11.983   8.192   8.109 -0.2999  1.7986 -1.7303
  139MOL0     H18762  11.173   8.057   8.291 -0.8419 -0.4200  1.4945
  139MOL0     H18763  11.036   7.969   8.437  0.4022  0.0201  2.1754
  139MOL0     H18764  10.920   8.095   8.490  0.9159 -0.0852 -0.1159
  139MOL0     H18765  10.864   7.953   8.396  0.1438 -0.5321  2.2081
  140MOL0     O18766   2.801   5.106   1.608 -0.0992  0.0574 -0.9288
  140MOL0     C18767   2.726   5.111   1.704 -0.0514 -1.0928  0.1342
  140MOL0     O18768   2.658   5.228   1.748  0.6036 -0.7217  0.0423
  140MOL0     C18769   2.713   5.351   1.727  0.3575  0.1760  0.2327
  140MOL0     C18770   2.857   5.368   1.728  1.1850  0.4614 -0.4677
  140MOL0     C18771   2.910   5.498   1.706 -0.5313 -0.0968  0.4855
  140MOL0     C18772   2.824   5.609   1.674  0.0432  0.7927  0.5371
  140MOL0     O18773   2.874   5.730   1.630  0.5609 -0.3518 -0.3667
  140MOL0     C18774   3.016   5.760   1.629 -0.4603 -0.5918 -0.7455
  140MOL0     C18775   3.079   5.774   1.767 -0.0284  0.5366 -0.3536
  140MOL0     C18776   3.214   5.836   1.751 -0.3252 -0.4601  0.7565
  140MOL0     C18777   3.309   5.777   1.650  0.5493  1.2493 -0.2732
  140MOL0     C18778   3.428   5.857   1.652 -1.0577  0.1212 -0.4110
  140MOL0     C18779   3.559   5.787   1.606  0.6965  0.4668 -0.0084
  140MOL0     C18780   3.667   5.905   1.587 -0.0525 -0.0203  0.7729
  140MOL0     C18781   3.644   5.978   1.454 -0.0784 -0.7376 -0.3275
  140MOL0     N18782   3.616   5.884   1.340  0.5787  0.3251 -0.1114
  140MOL0     C18783   3.697   5.772   1.302  0.3441 -0.0724 -0.5444
  140MOL0     C18784   3.634   5.730   1.190  0.6591 -0.4230  0.6602
  140MOL0     C18785   3.668   5.629   1.091  0.9098  0.8408  0.0692
  140MOL0     C18786   3.620   5.651   0.952 -0.2559 -0.1230 -0.2791
  140MOL0     C18787   3.689   5.568   0.845  0.4926  0.0524  0.1485
  140MOL0     C18788   3.814   5.643   0.794  0.2369 -0.1165  0.4884
  140MOL0     O18789   3.835   5.623   0.645 -0.6126  0.5045 -0.0199
  140MOL0     C18790   3.959   5.655   0.584 -0.0991 -0.3252 -1.4219
  140MOL0     C18791   3.962   5.646   0.448 -0.1291 -0.5007 -0.8526
  140MOL0     C18792   4.082   5.689   0.383 -0.0571  0.4813 -0.5717
  140MOL0     C18793   4.195   5.739   0.462  0.1118  0.7758  0.1175
  140MOL0     C18794   4.310   5.797   0.389  0.3768 -0.5386  0.5710
  140MOL0     O18795   4.311   5.798   0.251 -0.2452 -0.1680 -0.3351
  140MOL0     C18796   4.421   5.855   0.190 -1.3059 -0.2854  0.0068
  140MOL0     C18797   4.495   5.793   0.089  0.4009 -0.0040  0.1003
  140MOL0     C18798   4.614   5.845   0.040 -0.9756  0.2198  0.0283
  140MOL0     C18799   4.657   5.977   0.079 -0.0175  0.2523 -0.5962
  140MOL0     O18800   4.771   6.039   0.042 -0.0104  0.5263  0.5634
  140MOL0     C18801   4.876   5.965  -0.020 -0.6228 -0.0331  0.1891
  140MOL0     C18802   4.991   6.062   0.000  0.0464  0.0752 -0.1495
  140MOL0     C18803   5.101   6.002  -0.082 -0.3850  0.7238 -0.0338
  140MOL0     C18804   5.237   5.969  -0.013 -1.2894 -0.1513  0.3345
  140MOL0     C18805   5.334   5.884  -0.097 -1.1756  0.8303  0.9144
  140MOL0     C18806   5.394   5.971  -0.209  0.1644 -0.0995 -0.6155
  140MOL0     C18807   5.492   5.909  -0.313 -0.7356 -0.1816  0.7979
  140MOL0     C18808   5.423   5.788  -0.380 -0.4543 -0.3507  0.4329
  140MOL0    Cl18809   5.513   5.760  -0.530  0.0766 -0.3064 -0.2155
  140MOL0     C18810   4.565   6.052   0.159 -0.2640  0.9074  0.2765
  140MOL0     C18811   4.446   5.994   0.200  1.0459 -0.7171  0.3734
  140MOL0     O18812   4.396   5.857   0.464  0.4005 -0.0364  0.0815
  140MOL0     C18813   4.178   5.746   0.601 -0.6129  0.1446  0.2213
  140MOL0     C18814   4.058   5.713   0.664  0.3096 -1.1135  0.4145
  140MOL0     N18815   3.521   5.812   1.167 -0.8552 -0.6111 -0.1179
  140MOL0     N18816   3.513   5.897   1.255  0.5933  0.1567  0.1832
  140MOL0     C18817   2.687   5.588   1.691  0.2346 -0.0914 -0.5102
  140MOL0     C18818   2.629   5.467   1.730 -0.7867 -0.4135  1.1329
  140MOL0     C18819   2.696   5.002   1.797 -0.2930 -0.1458 -0.3177
  140MOL0     C18820   2.567   4.988   1.848  0.3638  0.4508  0.0659
  140MOL0     C18821   2.528   4.868   1.911 -0.4902  0.4454  0.4209
  140MOL0     C18822   2.622   4.765   1.927 -0.9344  0.1602  0.4164
  140MOL0     O18823   2.596   4.639   1.982 -0.7666  0.2823  0.4611
  140MOL0     C18824   2.534   4.548   1.893 -0.3185  0.2117  0.8772
  140MOL0     C18825   2.628   4.523   1.768  0.8921  0.3087  0.2265
  140MOL0     C18826   2.746   4.431   1.801 -0.6260  1.0848  0.8085
  140MOL0     C18827   2.842   4.433   1.682  0.2690 -0.3691  0.1295
  140MOL0     C18828   2.930   4.544   1.677  0.2593  0.8393  0.2654
  140MOL0     C18829   3.014   4.625   1.664 -0.7891 -0.0456 -0.0344
  140MOL0     C18830   2.746   4.775   1.875 -0.8551  0.1712 -0.2876
  140MOL0     C18831   2.789   4.900   1.821  0.0655 -0.0134  0.1520
  140MOL0     C18832   2.934   4.913   1.797 -0.0230  0.1867 -0.0840
  140MOL0     H18833   2.920   5.283   1.751 -0.9472 -2.4746 -4.2499
  140MOL0     H18834   3.018   5.506   1.711  0.0330 -4.1296 -0.9937
  140MOL0     H18835   3.065   5.682   1.570  0.0711 -0.9040  0.0810
  140MOL0     H18836   3.027   5.856   1.577 -0.7175  1.2802  2.3432
  140MOL0     H18837   3.082   5.678   1.819 -3.6575  1.2273  1.4152
  140MOL0     H18838   3.026   5.840   1.837 -0.3775 -0.8085  0.7053
  140MOL0     H18839   3.266   5.834   1.847  0.5451  3.3478  0.5150
  140MOL0     H18840   3.204   5.944   1.736  2.4736 -0.0811  1.0161
  140MOL0     H18841   3.328   5.671   1.672 -1.9562  0.4296 -1.6328
  140MOL0     H18842   3.262   5.773   1.552 -1.3740 -1.5908  0.6515
  140MOL0     H18843   3.402   5.940   1.585  1.9141  1.6681  0.1636
  140MOL0     H18844   3.454   5.893   1.752 -1.1843  1.5590 -0.8682
  140MOL0     H18845   3.595   5.716   1.680  0.3837 -0.8651 -1.0936
  140MOL0     H18846   3.544   5.736   1.510 -0.3644  1.8079 -0.5913
  140MOL0     H18847   3.764   5.855   1.588  1.2565  2.3426 -0.1593
  140MOL0     H18848   3.657   5.984   1.662  0.7585  0.2128  0.6499
  140MOL0     H18849   3.552   6.036   1.464  1.4546  1.6346  1.1529
  140MOL0     H18850   3.725   6.050   1.437 -1.9637  0.9127 -3.0710
  140MOL0     H18851   3.783   5.719   1.343 -1.3815 -2.2611  0.4550
  140MOL0     H18852   3.772   5.594   1.098  0.6080  0.0847  1.0532
  140MOL0     H18853   3.615   5.541   1.130  2.5271  0.0627  0.6135
  140MOL0     H18854   3.513   5.625   0.948 -0.3293 -0.1717  1.3900
  140MOL0     H18855   3.631   5.758   0.937  2.0507 -0.4948 -1.7171
  140MOL0     H18856   3.623   5.552   0.759  0.9401 -1.0513 -0.0092
  140MOL0     H18857   3.705   5.466   0.881 -2.7761 -0.5906  0.0149
  140MOL0     H18858   3.896   5.610   0.859  0.9431 -1.6568 -1.0983
  140MOL0     H18859   3.797   5.751   0.799 -1.1970 -0.1253 -2.2948
  140MOL0     H18860   3.884   5.618   0.378  0.4562 -0.3665 -1.5786
  140MOL0     H18861   4.083   5.701   0.275 -3.1885  1.5113 -0.5840
  140MOL0     H18862   4.468   5.689   0.081 -0.2392  0.1222  0.5755
  140MOL0     H18863   4.687   5.787  -0.014  0.2126  0.1484  1.6275
  140MOL0     H18864   4.893   5.873   0.037 -1.2173 -0.7464 -0.7496
  140MOL0     H18865   4.856   5.942  -0.125 -1.0821 -2.8680  0.8273
  140MOL0     H18866   4.967   6.159  -0.044 -0.7290 -0.0998 -0.1337
  140MOL0     H18867   5.015   6.074   0.107 -5.0310  1.1455  1.1279
  140MOL0     H18868   5.069   5.908  -0.126  2.1582 -0.8244  1.1849
  140MOL0     H18869   5.120   6.074  -0.162  1.0302  0.7821  0.3273
  140MOL0     H18870   5.214   5.911   0.077 -1.4703  0.0558  0.4237
  140MOL0     H18871   5.283   6.062   0.023 -0.7419 -1.8921  4.6276
  140MOL0     H18872   5.273   5.809  -0.149  2.1757 -1.1126 -0.5572
  140MOL0     H18873   5.412   5.834  -0.040 -0.1901  0.1335 -0.9588
  140MOL0     H18874   5.304   5.997  -0.264 -0.8344 -2.5138 -0.2506
  140MOL0     H18875   5.454   6.053  -0.168  0.7933 -1.1503  0.6671
  140MOL0     H18876   5.572   5.872  -0.248 -1.3248 -1.0404  1.0569
  140MOL0     H18877   5.525   5.987  -0.382 -0.9144 -1.2235 -0.4869
  140MOL0     H18878   5.436   5.709  -0.305 -1.6054 -0.3698  0.6336
  140MOL0     H18879   5.318   5.797  -0.410 -0.4424  0.5895  0.6139
  140MOL0     H18880   4.572   6.154   0.194 -2.2307  1.5027 -0.8936
  140MOL0     H18881   4.372   6.053   0.254  2.3719 -0.6193  2.1747
  140MOL0     H18882   4.268   5.769   0.657 -1.1172  2.4623  0.1990
  140MOL0     H18883   4.054   5.719   0.772 -2.1043 -0.2563  0.3479
  140MOL0     H18884   2.618   5.670   1.669 -1.7330 -0.9578  1.8748
  140MOL0     H18885   2.521   5.461   1.744 -1.5517  1.1106 -2.7639
  140MOL0     H18886   2.506   5.077   1.859  0.7786  0.8338 -0.6708
  140MOL0     H18887   2.429   4.864   1.956  0.1097  0.8994  1.8179
  140MOL0     H18888   2.445   4.589   1.846 -0.7967 -2.4059 -0.7560
  140MOL0     H18889   2.501   4.460   1.948 -3.1562 -1.0947 -2.5399
  140MOL0     H18890   2.655   4.619   1.723 -1.0506  0.8705  0.1926
  140MOL0     H18891   2.570   4.474   1.689 -0.3468 -1.0373  1.8873
  140MOL0     H18892   2.709   4.328   1.806  0.4492  0.6084 -0.5620
  140MOL0     H18893   2.799   4.461   1.892  1.0029 -1.0644  0.6542
  140MOL0     H18894   2.897   4.338   1.686 -0.9767 -1.1002  0.4743
  140MOL0     H18895   2.787   4.435   1.587 -2.9211 -1.8357  1.7708
  140MOL0     H18896   3.094   4.694   1.651  2.3388 -3.1743  1.1812
  140MOL0     H18897   2.820   4.698   1.891  0.3299  1.3498  0.0940
  140MOL0     H18898   2.954   4.875   1.697  0.2759 -1.1597  0.4726
  140MOL0     H18899   2.965   5.018   1.804  1.9686 -0.3748  0.0083
  140MOL0     H18900   2.993   4.856   1.869 -1.1885  0.3351  1.0161
  141MOL0     O18901   7.526  10.892   4.410  0.3847 -0.1377  0.1065
  141MOL0     C18902   7.463  10.994   4.416  0.7812 -0.0206 -0.6095
  141MOL0     O18903   7.513  11.111   4.448  0.0032  0.6429  0.3502
  141MOL0     C18904   7.643  11.112   4.493 -0.1964 -0.4742  0.7254
  141MOL0     C18905   7.752  11.127   4.405 -0.9844  0.1360  0.1625
  141MOL0     C18906   7.883  11.125   4.461 -0.1185 -0.3848  0.2184
  141MOL0     C18907   7.911  11.091   4.592 -1.0383 -0.1402  0.5677
  141MOL0     O18908   8.043  11.068   4.619 -0.4187 -0.5422  0.0409
  141MOL0     C18909   8.070  11.047   4.758  0.3041 -0.4345 -0.6807
  141MOL0     C18910   8.212  11.014   4.790  0.0564 -1.0384 -0.0708
  141MOL0     C18911   8.297  11.131   4.754  0.9994 -0.2955  0.0173
  141MOL0     C18912   8.442  11.106   4.768 -0.4940 -0.5457  0.8834
  141MOL0     C18913   8.483  11.109   4.920  0.4196 -0.3212  0.4495
  141MOL0     C18914   8.631  11.092   4.938 -0.4301 -0.0168 -0.1915
  141MOL0     C18915   8.670  11.137   5.085 -0.9924  0.0790  1.0576
  141MOL0     C18916   8.815  11.194   5.101 -0.7033  0.0622 -0.4721
  141MOL0     N18917   8.916  11.097   5.069 -0.8736  0.1440  0.1083
  141MOL0     C18918   8.986  11.090   4.946  0.3715 -0.5105 -0.9540
  141MOL0     C18919   9.062  10.977   4.952 -0.3072 -0.2760  1.0136
  141MOL0     C18920   9.165  10.951   4.845  0.6131  1.0854 -0.9417
  141MOL0     C18921   9.256  11.072   4.823  0.7807  0.0603 -0.0796
  141MOL0     C18922   9.349  11.111   4.938 -0.1085  0.6947  0.4198
  141MOL0     C18923   9.437  11.231   4.906 -0.0485  0.7246  0.3346
  141MOL0     O18924   9.508  11.227   4.783  0.3636  0.2308  0.1705
  141MOL0     C18925   9.634  11.178   4.772 -0.7363  0.3618 -0.5031
  141MOL0     C18926   9.675  11.152   4.644  0.6659 -0.5019 -0.5764
  141MOL0     C18927   9.810  11.136   4.621 -0.2461  1.1717  0.0501
  141MOL0     C18928   9.904  11.125   4.723 -0.6711  1.3323 -0.0125
  141MOL0     C18929  10.051  11.110   4.703 -0.4213 -0.9928 -0.6336
  141MOL0     O18930  10.122  11.066   4.813  0.7106 -0.0972  0.0300
  141MOL0     C18931  10.257  11.039   4.814 -0.6829  0.4871  0.3216
  141MOL0     C18932  10.316  10.978   4.926  0.1137 -0.2644  0.7582
  141MOL0     C18933  10.455  10.989   4.953  1.2136  0.4698  0.0120
  141MOL0     C18934  10.546  11.035   4.863 -0.2125  0.6606 -0.3656
  141MOL0     O18935  10.675  11.012   4.896  0.3566  0.0134 -0.1742
  141MOL0     C18936  10.764  11.099   4.822  0.3870 -0.0556  0.1119
  141MOL0     C18937  10.902  11.100   4.890 -0.0456  0.0017  0.4429
  141MOL0     C18938  10.991  11.225   4.842  0.3649  0.8928 -0.3017
  141MOL0     C18939  11.140  11.198   4.865 -0.2354  0.4186  0.3429
  141MOL0     C18940  11.231  11.321   4.842  0.9249  0.2342 -0.5278
  141MOL0     C18941  11.365  11.297   4.905 -0.4875  0.2497  0.0770
  141MOL0     C18942  11.465  11.418   4.884 -0.4446  0.2509 -0.0027
  141MOL0     C18943  11.499  11.456   4.736 -0.5161 -0.5888 -0.5947
  141MOL0    Cl18944  11.640  11.364   4.677  0.2162 -0.1385 -0.2257
  141MOL0     C18945  10.496  11.087   4.742 -0.4647 -0.4874  0.7340
  141MOL0     C18946  10.352  11.094   4.720 -0.4239 -0.0675 -0.6762
  141MOL0     O18947  10.094  11.158   4.599  0.7923  0.4690 -0.3924
  141MOL0     C18948   9.856  11.119   4.858  0.3055 -0.7072 -0.6551
  141MOL0     C18949   9.725  11.147   4.878 -0.3458  0.6001 -0.1119
  141MOL0     N18950   9.048  10.926   5.082 -0.5057  0.1345 -0.0941
  141MOL0     N18951   8.964  10.997   5.152 -0.1015 -0.0664  0.8946
  141MOL0     C18952   7.798  11.066   4.675  0.3915 -0.1057 -0.6597
  141MOL0     C18953   7.668  11.081   4.627 -0.1567 -0.1431 -0.3599
  141MOL0     C18954   7.311  10.970   4.401  0.0366  0.1464  0.1575
  141MOL0     C18955   7.226  11.080   4.422  0.8564 -0.1260 -0.1826
  141MOL0     C18956   7.080  11.062   4.415  0.2617  0.6337  0.2333
  141MOL0     C18957   7.028  10.941   4.374 -0.5009  0.1289  0.4473
  141MOL0     O18958   6.896  10.912   4.355 -0.1849 -0.1929 -0.5324
  141MOL0     C18959   6.798  11.006   4.395 -0.2022  0.6804  0.2641
  141MOL0     C18960   6.664  10.933   4.396  0.1967 -0.3728  0.1489
  141MOL0     C18961   6.616  10.887   4.258  0.3595 -0.3431  0.7481
  141MOL0     C18962   6.478  10.812   4.269 -0.7308  0.3645 -0.3870
  141MOL0     C18963   6.439  10.756   4.145 -0.2247 -0.2133  0.2727
  141MOL0     C18964   6.407  10.700   4.042 -0.3659  0.2523 -0.7208
  141MOL0     C18965   7.117  10.839   4.355  0.8055  0.4265 -0.0428
  141MOL0     C18966   7.253  10.847   4.367  0.2326  0.1688 -0.2384
  141MOL0     C18967   7.326  10.718   4.331  0.4263  0.0247  0.7102
  141MOL0     H18968   7.729  11.150   4.301 -2.6912 -1.5437  0.1094
  141MOL0     H18969   7.969  11.134   4.396 -0.5268  1.3607 -0.1058
  141MOL0     H18970   8.051  11.133   4.824  1.3852  0.3421 -1.3487
  141MOL0     H18971   8.016  10.958   4.793  0.5695 -0.2270  0.2973
  141MOL0     H18972   8.250  10.925   4.738  0.6325 -0.7082 -0.2281
  141MOL0     H18973   8.221  10.990   4.896  0.4064  0.1017  0.1749
  141MOL0     H18974   8.266  11.221   4.807 -3.3713 -1.5469 -0.0035
  141MOL0     H18975   8.280  11.156   4.649 -0.3705 -1.2567 -0.0236
  141MOL0     H18976   8.473  11.004   4.740  0.6137 -0.4082  1.5236
  141MOL0     H18977   8.494  11.183   4.710  0.7023 -3.0776 -1.6678
  141MOL0     H18978   8.447  11.203   4.965 -1.3716 -1.9201  2.5713
  141MOL0     H18979   8.435  11.029   4.976  0.6204 -2.8084 -2.6288
  141MOL0     H18980   8.657  10.990   4.908  0.4220  0.8414 -2.6805
  141MOL0     H18981   8.682  11.146   4.857  1.7994 -0.5064  0.8201
  141MOL0     H18982   8.650  11.052   5.150 -1.1785 -0.1884  0.6592
  141MOL0     H18983   8.600  11.212   5.123 -0.6126 -0.1493  2.2197
  141MOL0     H18984   8.837  11.283   5.041  0.7528 -0.4507 -0.7343
  141MOL0     H18985   8.813  11.227   5.205 -0.2597 -0.5165 -0.2738
  141MOL0     H18986   8.972  11.147   4.855  2.3111 -0.3542 -1.1880
  141MOL0     H18987   9.208  10.857   4.880 -0.3234  1.4159  1.2929
  141MOL0     H18988   9.105  10.917   4.760 -0.4040 -1.2219  0.6050
  141MOL0     H18989   9.300  11.061   4.723 -0.3262  0.4112 -0.6113
  141MOL0     H18990   9.191  11.158   4.810  3.2094  1.9143 -0.8513
  141MOL0     H18991   9.413  11.025   4.956 -1.1898  0.3114  2.8115
  141MOL0     H18992   9.288  11.137   5.025 -1.3343 -2.3414  0.5929
  141MOL0     H18993   9.495  11.253   4.996 -0.4180 -0.9822  1.0272
  141MOL0     H18994   9.373  11.318   4.892 -0.3115  0.2205 -1.9633
  141MOL0     H18995   9.594  11.158   4.573  0.4061 -1.6943 -0.3990
  141MOL0     H18996   9.838  11.138   4.516 -0.8866 -5.5480 -0.6805
  141MOL0     H18997  10.261  10.930   5.006  0.3646  0.8618  1.6275
  141MOL0     H18998  10.496  10.944   5.043  0.0639 -0.1498  0.2415
  141MOL0     H18999  10.786  11.053   4.726  2.4138  0.0152  0.5050
  141MOL0     H19000  10.722  11.200   4.816 -4.6822 -1.9133 -1.4254
  141MOL0     H19001  10.895  11.117   4.998  0.9886  4.0122  0.0318
  141MOL0     H19002  10.962  11.010   4.873  1.1459  0.9079 -0.3440
  141MOL0     H19003  10.974  11.251   4.737  0.4615 -2.3437 -1.2167
  141MOL0     H19004  10.971  11.314   4.903  1.8763  3.3622 -3.1455
  141MOL0     H19005  11.185  11.122   4.800  0.1924 -1.7432  2.9772
  141MOL0     H19006  11.158  11.167   4.969 -1.6075 -0.6281  0.2930
  141MOL0     H19007  11.192  11.412   4.888  2.4902 -0.2329  1.9126
  141MOL0     H19008  11.251  11.337   4.736  3.9818 -0.1833 -0.0931
  141MOL0     H19009  11.358  11.282   5.014  0.6322  0.8247  0.2370
  141MOL0     H19010  11.408  11.201   4.877  0.0696  0.5641 -0.1522
  141MOL0     H19011  11.559  11.408   4.938  0.9874  2.1095 -1.9531
  141MOL0     H19012  11.413  11.504   4.925 -5.2074 -2.9257  1.4765
  141MOL0     H19013  11.412  11.460   4.670 -0.7386  1.0950 -0.2581
  141MOL0     H19014  11.525  11.562   4.737 -3.7440  0.3479 -1.7135
  141MOL0     H19015  10.570  11.123   4.672 -2.3584 -2.0245 -2.2686
  141MOL0     H19016  10.332  11.144   4.626  2.6404 -1.2081 -2.0807
  141MOL0     H19017   9.927  11.099   4.937  0.0059  0.1459 -0.1657
  141MOL0     H19018   9.689  11.158   4.980 -1.0557  1.9105 -0.4707
  141MOL0     H19019   7.804  11.019   4.773  2.7663 -1.9732 -1.6025
  141MOL0     H19020   7.593  11.046   4.698 -0.7730  0.7984 -0.5268
  141MOL0     H19021   7.254  11.184   4.440 -1.2675  0.9718 -2.5926
  141MOL0     H19022   7.020  11.148   4.442 -0.6478 -0.1697  0.8327
  141MOL0     H19023   6.795  11.089   4.323 -2.3923 -1.3296 -2.1616
  141MOL0     H19024   6.808  11.041   4.498 -1.0628 -0.4912  0.7699
  141MOL0     H19025   6.589  11.007   4.427 -1.8086 -2.2923  0.1389
  141MOL0     H19026   6.652  10.847   4.463 -1.3539  0.0576  0.4815
  141MOL0     H19027   6.690  10.811   4.230  0.4417 -0.8041  2.1273
  141MOL0     H19028   6.602  10.963   4.181 -2.9763  1.1525  2.6411
  141MOL0     H19029   6.483  10.730   4.341 -0.0740  0.8534  0.1372
  141MOL0     H19030   6.406  10.885   4.310 -0.6189  0.2446  0.0266
  141MOL0     H19031   6.392  10.664   3.942 -2.9506 -1.7587  0.2936
  141MOL0     H19032   7.072  10.745   4.327 -0.4580  0.9946  0.0129
  141MOL0     H19033   7.414  10.730   4.268  1.2972 -1.9306  1.4661
  141MOL0     H19034   7.374  10.663   4.413 -1.7502  0.0578  2.1082
  141MOL0     H19035   7.259  10.649   4.278  1.7228  0.6343 -1.8423
  142MOL0     O19036   8.263   6.414  10.766  0.2559 -0.4188 -0.0611
  142MOL0     C19037   8.201   6.358  10.677  0.0433 -0.6648 -0.1534
  142MOL0     O19038   8.249   6.244  10.616  0.1341 -0.3191  0.2391
  142MOL0     C19039   8.383   6.222  10.613 -1.0590  0.6751  0.6347
  142MOL0     C19040   8.483   6.315  10.597 -0.0680  0.5180 -0.2983
  142MOL0     C19041   8.615   6.277  10.578  0.2856 -0.4479 -1.2187
  142MOL0     C19042   8.652   6.142  10.577 -0.4086 -0.5530 -0.5564
  142MOL0     O19043   8.783   6.106  10.557  0.1216 -0.0313 -0.5106
  142MOL0     C19044   8.900   6.194  10.584 -0.4241 -0.9106 -0.3971
  142MOL0     C19045   8.977   6.178  10.716  0.4435 -0.1313 -0.2630
  142MOL0     C19046   9.106   6.249  10.725  0.0935 -0.7258  0.4802
  142MOL0     C19047   9.159   6.234  10.867  0.3793 -0.5401  0.2016
  142MOL0     C19048   9.293   6.292  10.899  0.3420 -0.5722 -0.4662
  142MOL0     C19049   9.289   6.448  10.891  0.0689  0.2907  0.9988
  142MOL0     C19050   9.436   6.495  10.901  0.1158  0.3506 -0.3951
  142MOL0     C19051   9.456   6.649  10.919  0.0243 -0.2355  0.6936
  142MOL0     N19052   9.597   6.689  10.904 -0.0544 -0.1012  0.2286
  142MOL0     C19053   9.668   6.725  10.790 -0.4540 -0.9385  0.2898
  142MOL0     C19054   9.797   6.750  10.832 -0.7684 -0.8193  0.4168
  142MOL0     C19055   9.921   6.772  10.739  0.0629 -0.0220 -0.3081
  142MOL0     C19056   9.954   6.915  10.786  0.8412  0.3318 -0.9777
  142MOL0     C19057  10.083   6.963  10.725 -0.2950  0.5570 -0.6046
  142MOL0     C19058  10.207   6.885  10.768 -0.0714  0.1976  0.3910
  142MOL0     O19059  10.314   6.972  10.771 -0.2058 -0.1848  0.0035
  142MOL0     C19060  10.323   7.064  10.878 -0.3960  0.0768 -0.0244
  142MOL0     C19061  10.436   7.147  10.880 -0.5795 -0.1225  0.5429
  142MOL0     C19062  10.449   7.245  10.975 -0.3451 -0.5692 -0.5246
  142MOL0     C19063  10.355   7.269  11.083 -0.4588  0.6535  0.0650
  142MOL0     C19064  10.376   7.364  11.193 -0.7804  0.0586  0.0571
  142MOL0     O19065  10.491   7.436  11.189 -0.5235  0.4849  0.7393
  142MOL0     C19066  10.510   7.539  11.272  0.0681  0.5614  0.3241
  142MOL0     C19067  10.538   7.526  11.408 -0.8107  0.4313  0.4243
  142MOL0     C19068  10.542   7.630  11.497  0.1670 -0.1252  0.6864
  142MOL0     C19069  10.532   7.755  11.453 -0.1713 -1.0320 -0.2089
  142MOL0     O19070  10.534   7.876  11.529 -0.0486  0.0656  0.3632
  142MOL0     C19071  10.573   7.861  11.670 -1.2351  0.2483 -0.4741
  142MOL0     C19072  10.639   7.994  11.719  0.2155  0.2063 -1.0885
  142MOL0     C19073  10.695   7.968  11.868  0.0201 -0.4529 -0.3576
  142MOL0     C19074  10.728   8.095  11.918 -0.2052 -0.5775  0.0678
  142MOL0     C19075  10.795   8.091  12.062  0.3077 -0.5053 -0.6315
  142MOL0     C19076  10.713   8.144  12.173  0.0101  0.0751 -0.2272
  142MOL0     C19077  10.572   8.086  12.182 -0.0253  0.0664  0.7637
  142MOL0     C19078  10.476   8.146  12.281 -0.0032  0.5871  0.0445
  142MOL0    Cl19079  10.548   8.134  12.448 -0.2137  0.0336 -0.2206
  142MOL0     C19080  10.520   7.778  11.308 -0.0441  0.0369 -0.3877
  142MOL0     C19081  10.508   7.666  11.226 -0.2668 -0.6156  0.2501
  142MOL0     O19082  10.297   7.367  11.289  1.0679 -0.6187 -0.1434
  142MOL0     C19083  10.246   7.182  11.082  0.2739 -0.5149  0.9195
  142MOL0     C19084  10.223   7.094  10.974 -0.1739  0.3602  0.4440
  142MOL0     N19085   9.791   6.765  10.966 -0.0825 -0.2395 -0.1071
  142MOL0     N19086   9.677   6.724  11.006  0.6173  0.4206  0.0474
  142MOL0     C19087   8.558   6.046  10.589 -0.3092 -0.2785 -0.2583
  142MOL0     C19088   8.420   6.086  10.595  0.6615 -0.5708 -0.1154
  142MOL0     C19089   8.054   6.387  10.649  0.3884 -0.4360  0.9479
  142MOL0     C19090   7.982   6.274  10.645 -0.4192  0.8332 -0.3416
  142MOL0     C19091   7.840   6.285  10.632 -0.8406  0.1699 -0.5974
  142MOL0     C19092   7.772   6.408  10.630 -0.3837 -1.3909 -0.1562
  142MOL0     O19093   7.633   6.404  10.619  0.5109 -0.0735 -0.5406
  142MOL0     C19094   7.573   6.520  10.562 -0.1073  0.5895  0.5816
  142MOL0     C19095   7.424   6.514  10.568  0.5822 -0.7930 -0.2845
  142MOL0     C19096   7.358   6.398  10.487 -0.2085 -0.2679 -0.7410
  142MOL0     C19097   7.213   6.390  10.532 -0.0502 -0.0092  0.2867
  142MOL0     C19098   7.140   6.312  10.431 -0.1455 -1.0276  0.1136
  142MOL0     C19099   7.084   6.244  10.348 -0.0907  0.4361  0.3157
  142MOL0     C19100   7.849   6.526  10.636 -0.5302  0.4217 -0.4392
  142MOL0     C19101   7.993   6.515  10.631  0.3527 -0.3983 -0.0416
  142MOL0     C19102   8.079   6.648  10.638 -0.7517 -0.0371  0.5036
  142MOL0     H19103   8.458   6.420  10.603 -0.9314  0.9752 -6.0610
  142MOL0     H19104   8.688   6.357  10.569  0.2743  0.2686  2.8134
  142MOL0     H19105   8.962   6.182  10.494 -2.1547  0.4429 -1.8558
  142MOL0     H19106   8.876   6.301  10.584  2.8032 -0.0341  1.4942
  142MOL0     H19107   8.993   6.072  10.738 -2.3402 -0.8935 -1.5437
  142MOL0     H19108   8.911   6.225  10.790 -0.1657  1.3499 -1.6769
  142MOL0     H19109   9.083   6.354  10.707 -1.1749 -0.8130  1.4751
  142MOL0     H19110   9.178   6.210  10.653 -2.0160 -0.3710 -1.9662
  142MOL0     H19111   9.087   6.282  10.934  2.2808  2.6300  0.1882
  142MOL0     H19112   9.162   6.128  10.891  0.4852 -0.4060  0.8026
  142MOL0     H19113   9.308   6.250  10.999 -0.0216  2.5009  1.0122
  142MOL0     H19114   9.364   6.251  10.827 -1.7052 -1.2598 -2.2054
  142MOL0     H19115   9.258   6.482  10.792  0.6965  1.8374  1.3057
  142MOL0     H19116   9.227   6.498  10.967 -1.2641  0.8534 -0.4035
  142MOL0     H19117   9.493   6.458  10.815  0.5718 -0.8194  0.3878
  142MOL0     H19118   9.477   6.458  10.995  1.0179  1.9277 -0.1197
  142MOL0     H19119   9.392   6.706  10.850  2.0151  2.7933  1.1559
  142MOL0     H19120   9.423   6.689  11.016  1.3037  0.7246  0.7580
  142MOL0     H19121   9.633   6.709  10.689  2.0368 -1.9333 -0.4949
  142MOL0     H19122  10.001   6.703  10.765 -0.4719 -0.0170  1.4816
  142MOL0     H19123   9.897   6.771  10.632 -0.0527 -0.5706 -0.2786
  142MOL0     H19124   9.878   6.978  10.738  0.0172  0.8188  0.9041
  142MOL0     H19125   9.958   6.933  10.893 -0.5710  0.2563 -0.8933
  142MOL0     H19126  10.096   7.068  10.754  0.0038  0.6151 -0.9447
  142MOL0     H19127  10.079   6.960  10.616  1.0580 -2.6796 -0.6677
  142MOL0     H19128  10.227   6.805  10.696 -0.3147  1.5551 -1.2472
  142MOL0     H19129  10.198   6.832  10.863  1.9850  1.2000  1.1941
  142MOL0     H19130  10.502   7.131  10.796  0.1011 -0.5178  1.1427
  142MOL0     H19131  10.541   7.302  10.975  0.5538 -1.7144  3.2773
  142MOL0     H19132  10.548   7.425  11.449 -0.3147  0.8383  1.3380
  142MOL0     H19133  10.543   7.611  11.604 -2.3463  0.9065  0.9870
  142MOL0     H19134  10.479   7.834  11.719 -2.0560 -0.1454 -2.2115
  142MOL0     H19135  10.649   7.782  11.671 -0.4825  0.9476 -1.0361
  142MOL0     H19136  10.723   8.009  11.650  1.8584  1.8928  1.1635
  142MOL0     H19137  10.566   8.075  11.719  1.1601  1.3407  3.5423
  142MOL0     H19138  10.616   7.921  11.927  0.6243  1.4602  2.1317
  142MOL0     H19139  10.786   7.910  11.849  1.5631  1.7670 -0.0973
  142MOL0     H19140  10.644   8.163  11.909 -1.3948 -1.6282  2.3535
  142MOL0     H19141  10.796   8.139  11.845 -0.4114 -0.1735  0.1230
  142MOL0     H19142  10.880   8.160  12.060 -1.1653  1.4944  1.0470
  142MOL0     H19143  10.813   7.985  12.081 -1.3939 -1.2367 -2.6826
  142MOL0     H19144  10.766   8.120  12.265  1.7995  0.0472 -1.2351
  142MOL0     H19145  10.710   8.253  12.163 -0.5873 -0.1024 -2.5117
  142MOL0     H19146  10.577   7.981  12.213  0.0728  0.2307  1.3106
  142MOL0     H19147  10.520   8.094  12.086  2.3633  0.2273 -0.5923
  142MOL0     H19148  10.451   8.252  12.268  0.6869  0.9375  1.4255
  142MOL0     H19149  10.383   8.087  12.284  2.0693 -2.9814 -0.2620
  142MOL0     H19150  10.506   7.878  11.268  0.2563 -0.9447 -3.1231
  142MOL0     H19151  10.497   7.688  11.120  0.2667 -4.5011 -0.7955
  142MOL0     H19152  10.166   7.202  11.153 -0.4102  3.0633 -0.6416
  142MOL0     H19153  10.131   7.042  10.998  0.1622  1.2005  4.1922
  142MOL0     H19154   8.578   5.939  10.593 -1.0018 -0.4413 -0.9045
  142MOL0     H19155   8.351   6.004  10.609 -2.5175  1.5752 -1.9698
  142MOL0     H19156   8.017   6.175  10.672 -1.2372  1.0456  1.6815
  142MOL0     H19157   7.775   6.199  10.626  0.2867 -0.9470  1.7479
  142MOL0     H19158   7.607   6.501  10.460  0.5051 -1.4784  1.1274
  142MOL0     H19159   7.607   6.617  10.600  1.3116 -0.5241  2.3114
  142MOL0     H19160   7.379   6.603  10.521 -1.7359 -2.9616 -2.4829
  142MOL0     H19161   7.392   6.518  10.672 -1.0697 -1.3304 -0.7422
  142MOL0     H19162   7.398   6.299  10.508  0.2172  0.1255  0.3984
  142MOL0     H19163   7.365   6.423  10.380 -3.6757  0.2945 -0.9652
  142MOL0     H19164   7.205   6.342  10.631  1.9664  0.2212  0.6022
  142MOL0     H19165   7.177   6.492  10.543  2.0458  0.9392 -1.0592
  142MOL0     H19166   7.045   6.188  10.265  0.1705  0.7028  0.0099
  142MOL0     H19167   7.796   6.620  10.646 -1.3673  0.1953 -2.2782
  142MOL0     H19168   8.051   6.718  10.559 -2.2801  0.9591  1.8779
  142MOL0     H19169   8.068   6.696  10.735 -0.8486  2.7593 -0.7945
  142MOL0     H19170   8.182   6.611  10.635 -0.9279 -1.2285  4.3769
  143MOL0     O19171   7.548   6.649   3.441  0.1989 -0.5035 -0.8501
  143MOL0     C19172   7.533   6.526   3.426 -0.4764  0.0177  0.1244
  143MOL0     O19173   7.626   6.442   3.367  0.2717  0.2739  0.2704
  143MOL0     C19174   7.744   6.484   3.301  0.5790 -0.6322 -0.6461
  143MOL0     C19175   7.861   6.411   3.305  0.8418 -0.3200  0.7600
  143MOL0     C19176   7.984   6.465   3.251  0.6030  0.3328 -0.0326
  143MOL0     C19177   7.986   6.591   3.190 -0.1729 -0.6597  0.2006
  143MOL0     O19178   8.114   6.627   3.138 -0.1585  0.0779  0.8291
  143MOL0     C19179   8.149   6.763   3.123 -0.1678  0.2035 -0.6863
  143MOL0     C19180   8.294   6.777   3.077 -0.5396  0.5389 -1.2842
  143MOL0     C19181   8.335   6.928   3.065 -0.2343  0.5404 -0.1529
  143MOL0     C19182   8.481   6.951   3.035 -0.9110 -0.0861  0.6212
  143MOL0     C19183   8.533   7.093   3.079 -0.3523 -0.2739  0.1982
  143MOL0     C19184   8.663   7.134   3.019  0.8126 -0.5827  0.0606
  143MOL0     C19185   8.725   7.247   3.098 -1.0425 -0.0865 -0.4281
  143MOL0     C19186   8.845   7.314   3.018 -0.0056  0.1374 -1.0300
  143MOL0     N19187   8.958   7.216   2.988  0.6319  0.8254 -0.4903
  143MOL0     C19188   9.065   7.179   3.070  0.4031  0.2332  0.4112
  143MOL0     C19189   9.132   7.076   3.008 -0.1870  0.2519 -0.1692
  143MOL0     C19190   9.260   7.011   3.048  0.3750 -0.2704  0.2907
  143MOL0     C19191   9.260   6.999   3.206 -0.1616 -0.5025 -0.1585
  143MOL0     C19192   9.386   6.923   3.258 -0.1470 -0.7968  0.6603
  143MOL0     C19193   9.510   7.002   3.206  0.3071  0.7334  0.1012
  143MOL0     O19194   9.634   6.953   3.253  0.0607 -0.4641 -0.3883
  143MOL0     C19195   9.752   7.019   3.239  0.2362  0.1782 -0.9969
  143MOL0     C19196   9.868   6.953   3.279  0.2282  0.0234 -0.8101
  143MOL0     C19197   9.999   7.005   3.285  0.9599 -0.3337  0.5208
  143MOL0     C19198  10.009   7.134   3.230 -0.5309 -0.1510 -0.0150
  143MOL0     C19199  10.142   7.194   3.196 -0.0930  0.1060 -0.6228
  143MOL0     O19200  10.245   7.117   3.243  0.1251 -0.3331 -0.4002
  143MOL0     C19201  10.382   7.137   3.209  0.2624  0.4925 -0.2408
  143MOL0     C19202  10.431   7.260   3.169 -0.1783 -0.2731 -0.5416
  143MOL0     C19203  10.560   7.267   3.127 -0.0474 -0.1313  0.5112
  143MOL0     C19204  10.645   7.155   3.122  0.1715 -0.7422 -0.3626
  143MOL0     O19205  10.775   7.172   3.077 -0.0976 -0.4556  0.5047
  143MOL0     C19206  10.847   7.241   3.177 -0.6727 -0.4041  0.3865
  143MOL0     C19207  10.982   7.271   3.124 -0.3895  0.2700  0.6782
  143MOL0     C19208  11.088   7.153   3.115 -0.2205  0.5682  0.2582
  143MOL0     C19209  11.229   7.215   3.086  0.3823 -0.0496  0.7672
  143MOL0     C19210  11.322   7.113   3.069 -0.1116  0.7777 -0.3333
  143MOL0     C19211  11.455   7.170   3.032  0.1805 -0.2476 -0.0549
  143MOL0     C19212  11.566   7.081   3.067  0.8077  0.4338 -0.6598
  143MOL0     C19213  11.694   7.128   3.011 -1.0873  0.3587  0.3835
  143MOL0    Cl19214  11.820   6.996   3.042 -0.0360 -0.0786 -0.3376
  143MOL0     C19215  10.599   7.037   3.172 -1.4986  0.4570 -0.4052
  143MOL0     C19216  10.473   7.030   3.222  0.5230 -0.1158  0.6502
  143MOL0     O19217  10.146   7.301   3.138  0.2769  0.0113  0.3038
  143MOL0     C19218   9.894   7.211   3.201  0.6169 -0.8099  0.5099
  143MOL0     C19219   9.767   7.159   3.206 -0.2161  0.6218  0.3645
  143MOL0     N19220   9.064   7.042   2.892 -0.5443 -0.2429 -0.7102
  143MOL0     N19221   8.975   7.138   2.875  0.2048 -0.3562  0.4276
  143MOL0     C19222   7.869   6.666   3.183 -0.5774  0.3448 -0.1274
  143MOL0     C19223   7.752   6.608   3.230  0.2906  0.4752  0.1929
  143MOL0     C19224   7.398   6.474   3.464  0.4193  0.2638  0.4866
  143MOL0     C19225   7.337   6.546   3.575 -0.2854  0.9926  0.2368
  143MOL0     C19226   7.206   6.509   3.623 -0.4713  0.5158 -0.3100
  143MOL0     C19227   7.153   6.382   3.583 -0.2263  0.0123  1.1772
  143MOL0     O19228   7.039   6.331   3.639  0.0945 -0.5106 -0.4402
  143MOL0     C19229   6.954   6.408   3.728 -0.0221  0.4171 -0.5362
  143MOL0     C19230   6.879   6.304   3.818 -0.3224  0.5890  1.0606
  143MOL0     C19231   6.782   6.371   3.907  0.1713 -0.3349  0.5337
  143MOL0     C19232   6.730   6.280   4.008 -0.2210 -0.2346  0.3767
  143MOL0     C19233   6.623   6.356   4.085  0.3617  0.9167 -0.2426
  143MOL0     C19234   6.527   6.396   4.136  0.3195  0.3286 -0.3484
  143MOL0     C19235   7.221   6.305   3.482  0.2999  0.4293 -0.7219
  143MOL0     C19236   7.334   6.353   3.424 -0.5975  0.1954 -0.1044
  143MOL0     C19237   7.390   6.263   3.310 -0.0744  0.1924 -0.3941
  143MOL0     H19238   7.849   6.316   3.356  0.4849  0.1300  1.5164
  143MOL0     H19239   8.074   6.408   3.274  1.7577  2.0425 -0.1202
  143MOL0     H19240   8.076   6.790   3.046 -1.5733 -0.7800  0.2521
  143MOL0     H19241   8.133   6.813   3.219 -1.9544 -2.1011  0.3210
  143MOL0     H19242   8.299   6.729   2.979 -0.0716 -0.1412 -0.9362
  143MOL0     H19243   8.360   6.719   3.142 -1.1499  1.3383  0.0928
  143MOL0     H19244   8.317   6.968   3.165 -0.2671 -1.7348  0.8142
  143MOL0     H19245   8.280   6.984   2.989  2.6896  1.8491 -1.4539
  143MOL0     H19246   8.539   6.878   3.092  2.2603  3.4680  2.3984
  143MOL0     H19247   8.510   6.930   2.932  0.4535 -1.7067  1.3009
  143MOL0     H19248   8.458   7.167   3.050 -0.5715 -0.3798  0.4981
  143MOL0     H19249   8.547   7.077   3.186  0.3745 -0.2640  0.1071
  143MOL0     H19250   8.729   7.047   3.028  0.1564 -1.0739  0.1535
  143MOL0     H19251   8.644   7.174   2.919  0.0178  0.8042  0.7266
  143MOL0     H19252   8.767   7.209   3.192  0.2068  2.0376 -0.0605
  143MOL0     H19253   8.652   7.328   3.105  0.0447  0.8364  0.8172
  143MOL0     H19254   8.795   7.338   2.923 -1.6117  0.5808 -0.1170
  143MOL0     H19255   8.874   7.404   3.073 -1.9187  0.7964 -1.0217
  143MOL0     H19256   9.091   7.232   3.162  0.5606 -2.1493  1.8121
  143MOL0     H19257   9.261   6.913   2.999 -0.9752  0.3624 -1.0784
  143MOL0     H19258   9.330   7.080   3.002 -0.8851  0.6267 -0.3437
  143MOL0     H19259   9.263   7.100   3.247 -0.8925 -0.1938 -0.8213
  143MOL0     H19260   9.170   6.955   3.249 -0.8536 -1.2250 -2.1989
  143MOL0     H19261   9.390   6.819   3.225  1.3287 -1.3414  2.3749
  143MOL0     H19262   9.383   6.912   3.367  0.3643 -4.0619  0.4456
  143MOL0     H19263   9.495   7.110   3.220 -0.4279  1.0215 -2.2914
  143MOL0     H19264   9.510   6.977   3.099 -0.7480  0.3647  0.1768
  143MOL0     H19265   9.855   6.847   3.296 -0.4918  0.2150 -0.0862
  143MOL0     H19266  10.088   6.945   3.304  1.8304 -0.6108 -3.4890
  143MOL0     H19267  10.377   7.352   3.190 -0.5965 -1.2826  3.6018
  143MOL0     H19268  10.598   7.367   3.113  0.7429 -0.6614 -1.3977
  143MOL0     H19269  10.800   7.335   3.207 -0.7870 -0.0025 -0.9788
  143MOL0     H19270  10.850   7.171   3.261 -0.0080  1.8991  2.3984
  143MOL0     H19271  10.972   7.320   3.027 -1.6156 -2.1082 -0.4883
  143MOL0     H19272  11.022   7.344   3.195 -2.4258  3.4984 -1.2799
  143MOL0     H19273  11.095   7.100   3.211  2.2873  0.0243 -0.1640
  143MOL0     H19274  11.053   7.079   3.043 -0.7920  1.4408 -0.3879
  143MOL0     H19275  11.246   7.282   3.172 -0.8571 -0.1178  1.0869
  143MOL0     H19276  11.215   7.273   2.994 -0.5471 -0.0195  0.9211
  143MOL0     H19277  11.286   7.055   2.984  1.2441 -0.1192 -0.3391
  143MOL0     H19278  11.339   7.059   3.162 -2.2371  2.7003  1.2763
  143MOL0     H19279  11.445   7.203   2.928 -0.1800  1.1484  0.4111
  143MOL0     H19280  11.477   7.258   3.093  2.4007 -0.8564  0.1243
  143MOL0     H19281  11.540   6.980   3.034 -0.8912  0.9191 -0.8908
  143MOL0     H19282  11.570   7.086   3.177 -1.1718  1.2475 -0.5892
  143MOL0     H19283  11.674   7.144   2.904 -0.2890 -1.5754 -0.1016
  143MOL0     H19284  11.723   7.221   3.060  0.2393 -0.5435  1.3901
  143MOL0     H19285  10.662   6.949   3.183 -1.0045  0.7665 -0.7257
  143MOL0     H19286  10.452   6.933   3.268 -0.8971  0.7083  1.8169
  143MOL0     H19287   9.899   7.314   3.168 -0.6139 -1.6969 -2.8577
  143MOL0     H19288   9.678   7.217   3.185 -1.0957 -0.7420  0.1606
  143MOL0     H19289   7.869   6.768   3.146  2.5976  0.8967  1.1805
  143MOL0     H19290   7.659   6.663   3.234  0.7071  1.1775  0.4465
  143MOL0     H19291   7.373   6.638   3.620  3.8219 -0.5553  0.5189
  143MOL0     H19292   7.162   6.578   3.694 -3.3721 -0.1066 -1.3532
  143MOL0     H19293   6.883   6.474   3.676 -2.2201 -2.6720 -1.7491
  143MOL0     H19294   7.014   6.466   3.798 -0.2983 -0.2751  0.2778
  143MOL0     H19295   6.959   6.251   3.870  0.9412  1.1432 -0.2464
  143MOL0     H19296   6.830   6.231   3.753 -0.4385  1.5323  0.0485
  143MOL0     H19297   6.697   6.413   3.852 -2.2305 -0.5090  3.8309
  143MOL0     H19298   6.828   6.458   3.954 -1.2415  0.2254  0.9435
  143MOL0     H19299   6.686   6.189   3.966 -0.1395 -1.1529  2.1703
  143MOL0     H19300   6.811   6.263   4.080  0.3997 -1.1425 -0.5104
  143MOL0     H19301   6.434   6.441   4.166  1.2139  2.0251  0.0142
  143MOL0     H19302   7.173   6.211   3.454 -2.2816  1.3874  0.1175
  143MOL0     H19303   7.454   6.314   3.237  2.2588 -1.3607  0.4105
  143MOL0     H19304   7.453   6.185   3.355 -1.5681 -1.0790 -0.4406
  143MOL0     H19305   7.310   6.207   3.262  0.0327 -1.5361  1.3188
  144MOL0     O19306   8.682   2.494   1.045  0.0239  0.3639 -0.1365
  144MOL0     C19307   8.633   2.572   0.957  0.0536 -1.0394  0.6186
  144MOL0     O19308   8.511   2.627   0.968  0.3416  0.2801 -0.7361
  144MOL0     C19309   8.433   2.580   1.075  0.5041 -0.8013 -0.6977
  144MOL0     C19310   8.379   2.450   1.071  0.3315 -0.6743 -0.2398
  144MOL0     C19311   8.299   2.412   1.175  0.1774 -0.0080  0.2719
  144MOL0     C19312   8.274   2.495   1.284  0.0462  0.6755 -0.0618
  144MOL0     O19313   8.188   2.441   1.380 -0.0218  0.4112 -0.1653
  144MOL0     C19314   8.069   2.381   1.322  0.5769 -0.3464  0.8360
  144MOL0     C19315   7.941   2.415   1.403  1.0307  0.3996  0.0792
  144MOL0     C19316   7.825   2.322   1.385 -0.1044  0.0167  0.1886
  144MOL0     C19317   7.840   2.200   1.470 -0.6823 -0.8753 -0.1479
  144MOL0     C19318   7.733   2.106   1.435 -0.4323  0.2086  0.3860
  144MOL0     C19319   7.764   1.983   1.528 -0.1983 -0.5202 -0.3552
  144MOL0     C19320   7.712   2.014   1.676 -0.2532 -0.4415 -0.1524
  144MOL0     C19321   7.564   2.032   1.676 -0.3590  0.3757 -1.0668
  144MOL0     N19322   7.499   1.997   1.803 -1.1196  0.1165 -1.3696
  144MOL0     C19323   7.460   2.095   1.900 -0.6252  0.1954 -0.2899
  144MOL0     C19324   7.420   2.027   2.012 -0.4217 -0.7257  0.6779
  144MOL0     C19325   7.376   2.069   2.144  0.1118 -1.5406  0.2440
  144MOL0     C19326   7.396   2.221   2.169 -0.0998  0.4971  0.8738
  144MOL0     C19327   7.332   2.254   2.306  0.2450  0.1915  0.8931
  144MOL0     C19328   7.366   2.392   2.347 -0.2905 -0.0757  0.1110
  144MOL0     O19329   7.306   2.422   2.475  0.5465 -0.0653 -0.0842
  144MOL0     C19330   7.327   2.554   2.520  0.3016  0.6737  0.4435
  144MOL0     C19331   7.421   2.645   2.462 -1.1055 -1.1664 -0.9176
  144MOL0     C19332   7.421   2.779   2.509  0.3284  0.3535 -0.0474
  144MOL0     C19333   7.333   2.819   2.617 -1.1124  0.2572 -0.3284
  144MOL0     C19334   7.326   2.962   2.674 -0.8881 -0.5724 -0.6739
  144MOL0     O19335   7.435   3.043   2.656  0.3686  0.3020  0.0878
  144MOL0     C19336   7.451   3.173   2.690  1.2140  0.6649 -0.1418
  144MOL0     C19337   7.337   3.262   2.690 -0.7473 -0.3218  0.2511
  144MOL0     C19338   7.357   3.402   2.712  0.2383  0.4268 -0.3537
  144MOL0     C19339   7.481   3.443   2.762 -0.0917 -0.5692  0.5402
  144MOL0     O19340   7.491   3.577   2.796 -0.4019 -0.0328  0.1457
  144MOL0     C19341   7.615   3.642   2.766  0.4123 -0.2455  0.1802
  144MOL0     C19342   7.694   3.655   2.900  0.4130  0.3109 -0.6940
  144MOL0     C19343   7.616   3.734   2.997 -0.4665  0.0710 -0.0780
  144MOL0     C19344   7.706   3.778   3.112 -0.9158  0.9565  0.6348
  144MOL0     C19345   7.785   3.894   3.086 -0.3202 -0.2211 -0.4761
  144MOL0     C19346   7.840   3.960   3.213  0.0248 -0.7269  0.4501
  144MOL0     C19347   7.910   3.852   3.303  0.2735  0.4889 -0.0416
  144MOL0     C19348   7.996   3.926   3.408 -0.4631 -0.3296  0.0203
  144MOL0    Cl19349   8.152   3.951   3.339  0.2747  0.3023  0.1547
  144MOL0     C19350   7.595   3.355   2.754  0.9811 -0.1134 -0.0850
  144MOL0     C19351   7.581   3.223   2.709 -0.2786 -0.7731 -0.0799
  144MOL0     O19352   7.228   2.994   2.737 -0.2052 -0.2187 -0.2335
  144MOL0     C19353   7.244   2.723   2.668  0.1386 -0.1260 -0.2322
  144MOL0     C19354   7.233   2.601   2.615  0.0340 -0.1642 -0.2936
  144MOL0     N19355   7.428   1.890   1.968  0.1122 -0.2947 -0.7536
  144MOL0     N19356   7.465   1.877   1.848  0.2595  0.0637  0.3067
  144MOL0     C19357   8.330   2.619   1.295  1.0573 -0.2892 -0.5642
  144MOL0     C19358   8.410   2.669   1.190 -0.0024  0.4317  0.0347
  144MOL0     C19359   8.702   2.630   0.840  0.1824 -0.2936  0.4933
  144MOL0     C19360   8.637   2.691   0.732 -0.6675 -0.2659 -0.1038
  144MOL0     C19361   8.704   2.738   0.611 -0.1266  0.0465  0.1185
  144MOL0     C19362   8.844   2.712   0.595  0.1373  0.5526 -0.2293
  144MOL0     O19363   8.928   2.755   0.491  1.0436  0.1715  0.5430
  144MOL0     C19364   8.863   2.814   0.371  0.3780 -0.7551 -0.2786
  144MOL0     C19365   8.802   2.694   0.299 -0.8786 -0.1287  1.2577
  144MOL0     C19366   8.732   2.729   0.168 -0.5501  0.2979 -0.1880
  144MOL0     C19367   8.605   2.804   0.190 -0.0224  1.0855  0.2305
  144MOL0     C19368   8.557   2.854   0.054 -0.1047 -0.0156 -0.2475
  144MOL0     C19369   8.511   2.893  -0.052 -0.1610 -0.1415  0.2723
  144MOL0     C19370   8.909   2.658   0.706 -0.3638 -0.8642 -0.8679
  144MOL0     C19371   8.846   2.621   0.822  0.4566  0.0148 -0.1769
  144MOL0     C19372   8.933   2.589   0.943  0.2912  1.5887  0.5122
  144MOL0     H19373   8.406   2.394   0.981  0.8253  2.2448 -2.0571
  144MOL0     H19374   8.250   2.315   1.165 -0.7908 -0.0490  3.9093
  144MOL0     H19375   8.058   2.423   1.222  1.7216 -1.7146  0.1015
  144MOL0     H19376   8.077   2.272   1.312 -2.2134 -0.5960  0.4232
  144MOL0     H19377   7.896   2.511   1.373 -2.3255 -1.0076  0.2262
  144MOL0     H19378   7.974   2.427   1.506 -0.4942 -2.1773  0.9342
  144MOL0     H19379   7.810   2.294   1.281 -1.1295 -0.7875  0.5381
  144MOL0     H19380   7.732   2.372   1.415 -1.5772 -2.0630 -0.6687
  144MOL0     H19381   7.938   2.156   1.447 -0.4306  0.2144 -1.2357
  144MOL0     H19382   7.858   2.233   1.573  2.3674 -0.2190 -0.7904
  144MOL0     H19383   7.630   2.137   1.453 -0.6127  0.0284 -0.2864
  144MOL0     H19384   7.735   2.073   1.330  0.0281 -1.0676  0.7715
  144MOL0     H19385   7.730   1.897   1.470 -1.3391 -0.1130 -0.3112
  144MOL0     H19386   7.871   1.966   1.544 -0.1874  1.2383  1.9552
  144MOL0     H19387   7.753   2.110   1.707  0.8459 -0.2345 -2.0983
  144MOL0     H19388   7.738   1.936   1.748 -3.6255 -1.3540  0.2668
  144MOL0     H19389   7.525   2.128   1.641 -6.0396 -1.2293 -0.1034
  144MOL0     H19390   7.527   1.960   1.602  0.1114  1.0999 -2.0365
  144MOL0     H19391   7.479   2.201   1.892 -3.4817  0.7749 -0.7199
  144MOL0     H19392   7.271   2.042   2.159 -0.1494 -1.7165 -1.6052
  144MOL0     H19393   7.434   2.019   2.221  0.4292  1.4205  2.0768
  144MOL0     H19394   7.504   2.236   2.165  0.5915 -3.4652 -0.2527
  144MOL0     H19395   7.345   2.273   2.087 -0.1664 -1.5867 -0.4942
  144MOL0     H19396   7.374   2.188   2.383  1.3368 -0.3951 -0.1660
  144MOL0     H19397   7.223   2.248   2.294  0.3484 -1.1880  0.3944
  144MOL0     H19398   7.323   2.462   2.275  0.3577  1.0638  0.7987
  144MOL0     H19399   7.475   2.399   2.354 -0.2968 -1.6720  3.4275
  144MOL0     H19400   7.492   2.628   2.381 -0.7665 -1.6716 -0.5171
  144MOL0     H19401   7.486   2.842   2.449 -0.9757 -0.9284 -2.9684
  144MOL0     H19402   7.239   3.222   2.668 -0.2516  0.1641 -3.7035
  144MOL0     H19403   7.272   3.469   2.705 -1.6015 -1.8588 -1.1391
  144MOL0     H19404   7.672   3.593   2.687 -1.5937 -1.0370 -0.8533
  144MOL0     H19405   7.596   3.743   2.729  0.6646 -0.2303  0.0882
  144MOL0     H19406   7.702   3.554   2.939  1.6243  1.2252  1.5960
  144MOL0     H19407   7.798   3.690   2.887  0.6309 -0.8081 -2.2151
  144MOL0     H19408   7.574   3.822   2.949 -1.9089  1.1663  2.9274
  144MOL0     H19409   7.528   3.688   3.044 -0.1416 -1.0793 -0.5469
  144MOL0     H19410   7.767   3.688   3.130 -2.9299 -0.9163 -1.2634
  144MOL0     H19411   7.660   3.794   3.209 -1.0498 -0.1520  0.7728
  144MOL0     H19412   7.711   3.963   3.043 -3.7532 -2.0974  2.0023
  144MOL0     H19413   7.859   3.876   3.008 -2.2371 -1.4950 -2.0950
  144MOL0     H19414   7.904   4.043   3.182  1.9788 -3.3887 -3.6666
  144MOL0     H19415   7.758   3.995   3.275  0.4494  0.4308  0.3709
  144MOL0     H19416   7.986   3.791   3.253  0.1610 -0.2073  0.6211
  144MOL0     H19417   7.845   3.787   3.362 -0.7604  0.0604 -1.5597
  144MOL0     H19418   7.940   4.013   3.443 -1.9982 -1.0698 -0.5044
  144MOL0     H19419   7.990   3.864   3.497 -2.7141 -0.1737  0.0186
  144MOL0     H19420   7.694   3.390   2.785  0.5967  2.8743 -1.8470
  144MOL0     H19421   7.676   3.172   2.701  1.8146  2.5363  1.6667
  144MOL0     H19422   7.168   2.742   2.743 -0.1463 -2.2490  0.0949
  144MOL0     H19423   7.151   2.536   2.644  1.6485 -1.1537  2.4247
  144MOL0     H19424   8.312   2.674   1.387  0.3676 -2.2319  0.5092
  144MOL0     H19425   8.458   2.766   1.189  1.5695 -0.2102  2.9551
  144MOL0     H19426   8.532   2.715   0.742 -0.6779 -0.0739 -0.6484
  144MOL0     H19427   8.652   2.795   0.535  3.0897  1.2405 -1.3687
  144MOL0     H19428   8.933   2.874   0.313 -1.8431  0.3673 -1.9223
  144MOL0     H19429   8.783   2.884   0.396  1.6764  0.7732 -0.1949
  144MOL0     H19430   8.741   2.636   0.369 -0.8244 -0.4711  1.0230
  144MOL0     H19431   8.891   2.642   0.263 -0.6625  1.9144 -1.5308
  144MOL0     H19432   8.704   2.639   0.113  0.7223 -0.1391 -0.1519
  144MOL0     H19433   8.802   2.780   0.101 -0.1719  2.0563  1.4702
  144MOL0     H19434   8.527   2.737   0.226 -1.3351  1.1843 -2.2278
  144MOL0     H19435   8.625   2.888   0.258  2.0002 -0.7375  2.0461
  144MOL0     H19436   8.466   2.910  -0.148  0.3317  5.1068  0.6514
  144MOL0     H19437   9.017   2.651   0.697 -0.1196 -1.6408  1.8802
  144MOL0     H19438   9.041   2.587   0.926 -0.0387 -1.3508 -2.2157
  144MOL0     H19439   8.910   2.665   1.018  0.2535  2.4711 -0.3667
  144MOL0     H19440   8.909   2.491   0.985  0.2179  1.0265 -0.7849
  145MOL0     O19441  10.826   9.983   8.786  0.0892 -0.2543 -0.2218
  145MOL0     C19442  10.798  10.022   8.672 -0.4358  0.2451 -0.4981
  145MOL0     O19443  10.880  10.038   8.562 -0.1896 -0.0357 -0.3194
  145MOL0     C19444  11.004   9.981   8.582  0.6705  0.3637 -0.7109
  145MOL0     C19445  11.108  10.037   8.655  0.7319 -0.2031  0.0535
  145MOL0     C19446  11.238   9.980   8.662 -0.2383  0.5217 -0.0095
  145MOL0     C19447  11.274   9.857   8.601  0.2098  0.1326 -1.1318
  145MOL0     O19448  11.406   9.803   8.599  0.6113  0.3503 -0.2269
  145MOL0     C19449  11.418   9.666   8.552  0.6372 -0.1085  0.5907
  145MOL0     C19450  11.564   9.622   8.563  0.6604 -0.0837 -0.6052
  145MOL0     C19451  11.579   9.470   8.532  0.4238 -0.3536 -0.5594
  145MOL0     C19452  11.711   9.411   8.573 -0.7714 -0.1624 -0.1256
  145MOL0     C19453  11.827   9.456   8.490 -0.6205  0.5937 -0.3974
  145MOL0     C19454  11.961   9.409   8.540 -0.6859  0.2060 -0.2441
  145MOL0     C19455  12.075   9.455   8.440  0.1834 -0.2691 -0.4967
  145MOL0     C19456  12.217   9.463   8.514 -0.5860  0.1589  0.4816
  145MOL0     N19457  12.259   9.601   8.542  0.2089  0.3162  0.6309
  145MOL0     C19458  12.248   9.673   8.665 -0.6422 -0.0999 -0.8094
  145MOL0     C19459  12.316   9.793   8.648  0.0988  0.1766  0.1562
  145MOL0     C19460  12.314   9.906   8.740  0.2299  0.1891  0.1699
  145MOL0     C19461  12.365   9.875   8.874  0.5797 -0.9179 -0.2542
  145MOL0     C19462  12.520   9.836   8.857  0.9080 -0.2251 -0.0523
  145MOL0     C19463  12.577   9.815   8.999  0.4264 -0.4173 -0.7139
  145MOL0     O19464  12.722   9.796   9.010  0.5093 -0.3818 -0.1059
  145MOL0     C19465  12.774   9.667   9.006  0.0686 -0.3221  0.0578
  145MOL0     C19466  12.902   9.659   9.054  1.4462 -0.2389 -0.1312
  145MOL0     C19467  12.971   9.538   9.032 -0.4728 -0.2424  0.1302
  145MOL0     C19468  12.912   9.421   8.977  0.4885 -0.5457  0.8195
  145MOL0     C19469  12.988   9.304   8.954 -0.3480 -0.6405  0.1376
  145MOL0     O19470  13.103   9.304   9.023 -0.5445 -0.0442  0.1458
  145MOL0     C19471  13.188   9.194   8.997  1.2615 -0.6100  0.0418
  145MOL0     C19472  13.234   9.117   9.104 -0.4360 -0.1878 -0.5282
  145MOL0     C19473  13.337   9.029   9.088  0.0890 -0.3129 -0.4943
  145MOL0     C19474  13.390   9.004   8.961  0.1045 -0.0242 -0.7146
  145MOL0     O19475  13.496   8.916   8.960  0.1716 -0.3288 -0.5580
  145MOL0     C19476  13.579   8.902   8.846 -0.1450 -0.4012 -0.0521
  145MOL0     C19477  13.683   8.788   8.859 -0.2898 -0.5131 -0.1137
  145MOL0     C19478  13.614   8.659   8.913 -0.2688  0.5572  0.3038
  145MOL0     C19479  13.699   8.532   8.905  0.9947 -0.4043  0.7948
  145MOL0     C19480  13.811   8.534   9.009 -0.3132 -0.2271 -0.1028
  145MOL0     C19481  13.900   8.414   9.004  0.3634 -0.2799 -0.3136
  145MOL0     C19482  13.996   8.418   9.114  0.1804  0.3728  0.2317
  145MOL0     C19483  14.090   8.299   9.117 -0.1516 -0.1820  0.2368
  145MOL0    Cl19484  14.244   8.359   9.055 -0.4073 -0.0298 -0.2893
  145MOL0     C19485  13.340   9.075   8.851 -0.0712 -0.1159  0.3395
  145MOL0     C19486  13.238   9.167   8.867  0.4742  0.0877 -0.1747
  145MOL0     O19487  12.946   9.217   8.879  0.1094 -0.6453 -0.6510
  145MOL0     C19488  12.778   9.430   8.942 -1.1112 -0.5496 -0.3864
  145MOL0     C19489  12.711   9.550   8.961 -0.2742 -0.5791  0.2800
  145MOL0     N19490  12.376   9.795   8.522 -0.2777  0.1195 -0.1996
  145MOL0     N19491  12.341   9.677   8.460 -1.3907  0.1902  0.4878
  145MOL0     C19492  11.170   9.799   8.526  0.5662 -0.2914 -0.1492
  145MOL0     C19493  11.040   9.860   8.520  0.2133  0.0748  0.2781
  145MOL0     C19494  10.663  10.078   8.648  0.0844 -0.2698 -0.3227
  145MOL0     C19495  10.650  10.210   8.603  1.0785  1.3710  0.6213
  145MOL0     C19496  10.524  10.262   8.583 -0.0208 -0.3692  0.5481
  145MOL0     C19497  10.404  10.188   8.597  0.1901 -0.2340  0.6747
  145MOL0     O19498  10.292  10.257   8.577 -0.5936  0.2078 -0.0119
  145MOL0     C19499  10.184  10.180   8.547 -0.1728 -0.0470 -0.8347
  145MOL0     C19500  10.057  10.265   8.547 -0.6165 -0.3555  0.0315
  145MOL0     C19501  10.002  10.255   8.405  0.6415 -0.5228 -0.0388
  145MOL0     C19502   9.861  10.331   8.384 -0.6810 -0.0490 -0.7060
  145MOL0     C19503   9.749  10.245   8.411  0.1291  0.2805  0.4018
  145MOL0     C19504   9.646  10.183   8.416  0.0660  0.7080 -0.0242
  145MOL0     C19505  10.422  10.054   8.623 -0.1278  0.9054 -0.6118
  145MOL0     C19506  10.545  10.002   8.650 -0.5010  1.0726 -0.3155
  145MOL0     C19507  10.560   9.852   8.686  0.6372 -0.3771  0.4143
  145MOL0     H19508  11.097  10.131   8.709  1.2263 -1.0899  1.7601
  145MOL0     H19509  11.319  10.019   8.723 -1.1065 -1.3561  2.5239
  145MOL0     H19510  11.367   9.605   8.628  1.3744 -0.3495  0.8976
  145MOL0     H19511  11.376   9.642   8.454  0.2315 -2.7936  1.3196
  145MOL0     H19512  11.595   9.653   8.664 -1.7670 -1.2040  0.5656
  145MOL0     H19513  11.625   9.671   8.486  0.3049  2.1686  0.4600
  145MOL0     H19514  11.564   9.457   8.425  0.3006 -3.3327 -0.2653
  145MOL0     H19515  11.503   9.422   8.595  1.7484 -3.4014 -1.1302
  145MOL0     H19516  11.726   9.430   8.680  2.9992 -0.9098 -0.3800
  145MOL0     H19517  11.708   9.302   8.563 -0.9733  0.0250 -2.5630
  145MOL0     H19518  11.810   9.411   8.391 -1.7500 -2.0143  0.8642
  145MOL0     H19519  11.826   9.565   8.486 -1.5923  0.7970  2.8341
  145MOL0     H19520  11.974   9.445   8.642 -0.9270 -0.8548  0.1714
  145MOL0     H19521  11.956   9.300   8.546 -1.3669  0.3229  2.2402
  145MOL0     H19522  12.041   9.554   8.409  0.1338 -0.0840  0.1294
  145MOL0     H19523  12.088   9.390   8.353 -1.4858 -2.4454  0.7703
  145MOL0     H19524  12.213   9.411   8.610  0.9380 -1.2943 -0.1726
  145MOL0     H19525  12.290   9.419   8.445 -0.9608  1.3326 -0.7019
  145MOL0     H19526  12.200   9.628   8.751  1.0365  0.8169  0.6630
  145MOL0     H19527  12.357   9.990   8.686  0.0238  1.4757  1.9351
  145MOL0     H19528  12.210   9.929   8.768  0.3751 -0.5769  1.4292
  145MOL0     H19529  12.354   9.966   8.933  0.7295 -1.9431  1.4298
  145MOL0     H19530  12.300   9.802   8.924 -0.8112 -0.2175 -0.9918
  145MOL0     H19531  12.575   9.905   8.792 -1.8581  0.8960 -1.4077
  145MOL0     H19532  12.524   9.742   8.801  0.3060  0.4200 -1.2196
  145MOL0     H19533  12.521   9.737   9.052  0.2702 -1.6111 -2.5544
  145MOL0     H19534  12.557   9.910   9.051 -1.0853 -0.1222 -1.7780
  145MOL0     H19535  12.957   9.746   9.088 -0.7041  1.5790 -1.0244
  145MOL0     H19536  13.073   9.523   9.066 -0.5718 -0.5298  0.3075
  145MOL0     H19537  13.193   9.122   9.205  0.1527 -0.5715 -0.2640
  145MOL0     H19538  13.386   8.984   9.174 -0.3768 -0.5865 -0.3681
  145MOL0     H19539  13.510   8.884   8.763  2.5402 -0.7967 -2.3610
  145MOL0     H19540  13.641   8.988   8.819  3.0323 -2.8250 -1.1330
  145MOL0     H19541  13.728   8.764   8.762  0.3563 -0.6501  0.2090
  145MOL0     H19542  13.760   8.817   8.931  1.5572 -1.7134 -1.5109
  145MOL0     H19543  13.590   8.678   9.018  0.2100  3.5809 -0.0355
  145MOL0     H19544  13.517   8.634   8.869 -0.2610 -0.3653  0.7887
  145MOL0     H19545  13.742   8.524   8.804 -4.1521  0.3096 -1.7954
  145MOL0     H19546  13.627   8.450   8.912  0.5806 -1.0155 -5.1778
  145MOL0     H19547  13.760   8.539   9.106 -0.2897 -1.5243 -0.0064
  145MOL0     H19548  13.879   8.618   8.997 -0.1942 -0.5714 -2.2592
  145MOL0     H19549  13.843   8.320   9.009 -1.2123  0.5602 -1.6899
  145MOL0     H19550  13.943   8.420   8.904 -4.2333 -0.7164 -2.5300
  145MOL0     H19551  13.931   8.416   9.202 -3.1818  0.5560 -2.0696
  145MOL0     H19552  14.046   8.514   9.131  0.6141  0.0118  1.0728
  145MOL0     H19553  14.113   8.263   9.217 -0.5973 -2.0624 -0.3048
  145MOL0     H19554  14.054   8.208   9.069 -0.7626 -0.2951  0.8881
  145MOL0     H19555  13.375   9.061   8.749  2.3683  1.0040  0.9333
  145MOL0     H19556  13.199   9.235   8.793  1.9181  1.6373  0.4388
  145MOL0     H19557  12.723   9.347   8.900  1.3782 -2.3706 -0.2203
  145MOL0     H19558  12.605   9.546   8.936 -0.7252 -2.1585  2.1574
  145MOL0     H19559  11.183   9.705   8.473 -0.4745 -0.5289 -0.0009
  145MOL0     H19560  10.958   9.819   8.462 -0.0783  0.5356  0.3569
  145MOL0     H19561  10.738  10.274   8.598  0.7453  2.0346  2.2975
  145MOL0     H19562  10.511  10.366   8.555  0.1412 -0.0340  1.6665
  145MOL0     H19563  10.164  10.115   8.633  1.4361  1.4062  0.7499
  145MOL0     H19564  10.202  10.125   8.454  0.7609  1.3256 -1.5006
  145MOL0     H19565  10.086  10.370   8.561 -3.8429  0.8222 -1.1267
  145MOL0     H19566   9.982  10.243   8.623 -2.4779 -1.0351 -1.9115
  145MOL0     H19567   9.980  10.149   8.390  0.5583 -0.3632 -1.0840
  145MOL0     H19568  10.077  10.280   8.330  1.0174 -1.3088  0.0633
  145MOL0     H19569   9.859  10.422   8.444  0.8820 -1.0215  0.9504
  145MOL0     H19570   9.848  10.350   8.277  1.1043 -0.4466 -1.0259
  145MOL0     H19571   9.556  10.126   8.428  0.4023  0.8353  4.8243
  145MOL0     H19572  10.335   9.990   8.635  2.3135 -2.3159  1.6801
  145MOL0     H19573  10.650   9.810   8.639  0.0098 -1.4650  0.1623
  145MOL0     H19574  10.552   9.828   8.792 -0.5772  0.9130  0.6490
  145MOL0     H19575  10.479   9.799   8.635 -1.2389  0.5733  2.2575
  146MOL0     O19576   1.966   1.628   3.504  0.3986  0.1090  1.0457
  146MOL0     C19577   1.949   1.503   3.496 -0.3857  0.0782 -1.1290
  146MOL0     O19578   2.039   1.405   3.518 -0.1487  0.9363 -0.2157
  146MOL0     C19579   2.183   1.437   3.514 -0.4704 -0.8472  0.0313
  146MOL0     C19580   2.251   1.527   3.431  0.5650  0.6866  0.1036
  146MOL0     C19581   2.390   1.543   3.445 -1.0447 -0.0607 -0.2979
  146MOL0     C19582   2.462   1.466   3.534 -0.7433  0.3475 -0.1233
  146MOL0     O19583   2.592   1.508   3.561  0.5334  0.2636  0.4203
  146MOL0     C19584   2.681   1.416   3.631  0.0278 -0.5318  0.3277
  146MOL0     C19585   2.816   1.476   3.633  0.6632 -0.4257 -0.4391
  146MOL0     C19586   2.928   1.389   3.684 -0.2209  0.1062  0.8630
  146MOL0     C19587   3.056   1.465   3.713 -0.2363 -0.6800 -0.4816
  146MOL0     C19588   3.142   1.511   3.589 -0.1761 -0.2323 -0.9879
  146MOL0     C19589   3.291   1.526   3.622  1.1103  0.1802 -0.5689
  146MOL0     C19590   3.370   1.556   3.505 -0.0537 -0.1674  0.3692
  146MOL0     C19591   3.527   1.566   3.519  0.1483 -0.4237 -0.0788
  146MOL0     N19592   3.585   1.440   3.571 -0.2134 -0.7410  1.1740
  146MOL0     C19593   3.585   1.404   3.700  0.3859  0.1852  0.2747
  146MOL0     C19594   3.606   1.269   3.701 -0.3767 -0.0531  0.5506
  146MOL0     C19595   3.640   1.192   3.820 -0.9235 -0.0278  0.0107
  146MOL0     C19596   3.786   1.166   3.854 -0.3326 -0.6007  0.3829
  146MOL0     C19597   3.799   1.064   3.963 -0.5854 -0.3998 -0.1850
  146MOL0     C19598   3.934   1.039   4.036  0.7699 -0.4533  0.9217
  146MOL0     O19599   4.033   1.132   3.993 -0.0744 -0.6227 -0.7047
  146MOL0     C19600   4.164   1.120   4.049  1.3074 -0.2153  0.2557
  146MOL0     C19601   4.244   1.206   3.972 -0.0814  0.2268 -0.0442
  146MOL0     C19602   4.379   1.218   3.992  0.4074  0.2507  0.0043
  146MOL0     C19603   4.439   1.123   4.079 -0.4993 -0.1975 -0.3360
  146MOL0     C19604   4.584   1.121   4.093  0.5021 -0.2715 -0.5175
  146MOL0     O19605   4.636   1.008   4.167 -0.3988 -0.4436 -0.4274
  146MOL0     C19606   4.768   0.974   4.167  0.4615 -0.7268 -0.8273
  146MOL0     C19607   4.856   1.046   4.248 -0.1441  1.3741 -0.3178
  146MOL0     C19608   4.990   1.000   4.267  0.0427 -0.7311  0.2628
  146MOL0     C19609   5.037   0.883   4.217 -0.4887 -0.5425  0.6650
  146MOL0     O19610   5.162   0.845   4.248 -0.2260 -0.1031  0.0086
  146MOL0     C19611   5.202   0.717   4.213 -0.0982  0.0345  0.3491
  146MOL0     C19612   5.325   0.682   4.279 -1.0553 -0.5747  0.1272
  146MOL0     C19613   5.440   0.784   4.249  0.0523 -0.0075  0.4155
  146MOL0     C19614   5.572   0.725   4.309  0.2489 -0.1892 -0.4032
  146MOL0     C19615   5.693   0.823   4.295  0.0452 -0.6175  0.7944
  146MOL0     C19616   5.760   0.814   4.158 -1.3057  0.3829 -0.3963
  146MOL0     C19617   5.900   0.889   4.160  0.4909  0.3707  0.1783
  146MOL0     C19618   5.982   0.875   4.027  0.4170 -0.7484 -0.8350
  146MOL0    Cl19619   5.910   0.969   3.898 -0.1816 -0.0707 -0.1348
  146MOL0     C19620   4.936   0.805   4.153 -0.8424  0.2239  0.8878
  146MOL0     C19621   4.811   0.855   4.125  0.4518 -0.1030 -0.9264
  146MOL0     O19622   4.647   1.211   4.037 -0.0236  0.1838  0.1939
  146MOL0     C19623   4.355   1.037   4.153 -0.9814  1.1103 -0.4346
  146MOL0     C19624   4.219   1.036   4.140  0.4411  0.3456 -0.6649
  146MOL0     N19625   3.606   1.227   3.571  0.5220 -0.1180  0.5421
  146MOL0     N19626   3.587   1.326   3.502  0.1568  0.7425 -0.5286
  146MOL0     C19627   2.395   1.371   3.607 -0.5500 -0.8546  0.7053
  146MOL0     C19628   2.255   1.359   3.597 -0.7418 -0.3864  0.2294
  146MOL0     C19629   1.815   1.454   3.480  0.7675 -0.0835  0.8805
  146MOL0     C19630   1.805   1.329   3.424  0.2527 -0.0246 -0.3957
  146MOL0     C19631   1.678   1.281   3.375 -0.3925 -0.0129 -0.0853
  146MOL0     C19632   1.564   1.349   3.380  0.1661 -0.6461  0.2000
  146MOL0     O19633   1.452   1.302   3.310  0.5421  0.2586 -0.7858
  146MOL0     C19634   1.326   1.374   3.314  0.6332 -0.0106  0.0641
  146MOL0     C19635   1.206   1.285   3.260 -0.4058 -0.1834 -1.0358
  146MOL0     C19636   1.066   1.352   3.297  0.8264  0.3743  0.8574
  146MOL0     C19637   0.954   1.309   3.200  0.5172 -0.2057  0.0794
  146MOL0     C19638   0.917   1.166   3.195  0.0264  1.3291  0.0458
  146MOL0     C19639   0.904   1.044   3.172  0.6478 -0.1473 -1.0126
  146MOL0     C19640   1.575   1.471   3.443 -0.4753 -0.4776  0.6152
  146MOL0     C19641   1.691   1.525   3.494 -0.0081 -0.2834 -0.1296
  146MOL0     C19642   1.691   1.660   3.559 -0.9325 -0.2037  0.2225
  146MOL0     H19643   2.199   1.578   3.351 -3.0205 -1.0034  1.1669
  146MOL0     H19644   2.452   1.613   3.390  0.8679  1.2301  3.1791
  146MOL0     H19645   2.655   1.377   3.730  1.5303 -3.1985 -0.2283
  146MOL0     H19646   2.699   1.324   3.574  0.5805 -1.5668  2.0836
  146MOL0     H19647   2.808   1.559   3.704 -3.7556 -1.6118  0.7743
  146MOL0     H19648   2.853   1.514   3.538  1.4000  3.1178  1.1228
  146MOL0     H19649   2.942   1.302   3.619 -2.4270  0.1939  0.2089
  146MOL0     H19650   2.895   1.351   3.782 -2.5669 -0.4585 -0.0834
  146MOL0     H19651   3.017   1.551   3.768 -0.4217 -1.4733  0.6678
  146MOL0     H19652   3.121   1.409   3.780 -0.3127  0.2034  0.3623
  146MOL0     H19653   3.129   1.429   3.518 -1.7327 -0.5720 -0.3517
  146MOL0     H19654   3.096   1.604   3.554  2.0951 -0.3275 -4.8119
  146MOL0     H19655   3.296   1.601   3.701  0.4585  0.1043 -0.4458
  146MOL0     H19656   3.323   1.434   3.672 -0.3338  0.1759  0.4231
  146MOL0     H19657   3.335   1.655   3.475 -1.0415 -0.6764 -0.2277
  146MOL0     H19658   3.347   1.493   3.418 -1.5976  0.7227  0.0924
  146MOL0     H19659   3.569   1.579   3.419 -0.6351 -0.7233 -0.4597
  146MOL0     H19660   3.554   1.654   3.578 -1.5997  0.4568 -0.5007
  146MOL0     H19661   3.576   1.472   3.784 -0.2548  0.7907 -0.2740
  146MOL0     H19662   3.596   1.247   3.904 -0.5310 -0.8458  0.7708
  146MOL0     H19663   3.575   1.104   3.823 -0.0403 -0.8298 -2.2396
  146MOL0     H19664   3.834   1.138   3.760  0.0452 -0.2553  0.4730
  146MOL0     H19665   3.835   1.259   3.882 -0.2919  0.3671 -2.5845
  146MOL0     H19666   3.764   0.967   3.926  0.5743 -1.4068  1.2602
  146MOL0     H19667   3.727   1.078   4.044 -0.1973 -0.9747  0.2629
  146MOL0     H19668   3.971   0.937   4.019  0.3998 -0.0126 -4.3581
  146MOL0     H19669   3.917   1.066   4.140 -0.0983  3.9951 -0.1651
  146MOL0     H19670   4.187   1.260   3.897 -1.8695  0.7562  1.6142
  146MOL0     H19671   4.442   1.284   3.934  1.5915  0.6837  1.7008
  146MOL0     H19672   4.834   1.133   4.309  0.3698  1.6398 -0.5012
  146MOL0     H19673   5.057   1.063   4.326 -0.2401  0.8957 -1.0682
  146MOL0     H19674   5.125   0.649   4.250 -3.0009  1.5366 -2.4623
  146MOL0     H19675   5.218   0.700   4.106  1.9899  0.9189  0.4731
  146MOL0     H19676   5.307   0.674   4.386  3.3912 -1.5185  1.0130
  146MOL0     H19677   5.359   0.584   4.244  1.5501 -0.4877  2.0598
  146MOL0     H19678   5.458   0.801   4.142  0.6928 -1.1786  0.3211
  146MOL0     H19679   5.414   0.879   4.297  2.0341  0.5930  0.3823
  146MOL0     H19680   5.578   0.626   4.263 -1.2675 -0.2118 -0.5989
  146MOL0     H19681   5.552   0.716   4.416 -0.9117  1.3575 -0.4453
  146MOL0     H19682   5.777   0.786   4.356 -0.1765 -0.0084  1.4786
  146MOL0     H19683   5.677   0.930   4.310 -1.7387 -0.6274 -0.7119
  146MOL0     H19684   5.769   0.711   4.122 -1.5520 -0.9887  3.1224
  146MOL0     H19685   5.700   0.869   4.085  0.0737  1.0377 -1.0671
  146MOL0     H19686   5.947   0.857   4.254 -0.6637  0.2960  0.7469
  146MOL0     H19687   5.866   0.992   4.166 -4.5162 -1.0980  1.2677
  146MOL0     H19688   6.083   0.911   4.047  0.0541 -0.5554  0.8399
  146MOL0     H19689   6.005   0.771   3.999  1.7795 -0.4287 -0.9774
  146MOL0     H19690   4.951   0.705   4.114  1.7438 -0.1593  2.6299
  146MOL0     H19691   4.731   0.797   4.082 -3.0113  0.6567  3.6203
  146MOL0     H19692   4.383   0.954   4.217  1.1603  2.5566  0.6348
  146MOL0     H19693   4.164   0.972   4.207  1.0018  0.8792  0.3278
  146MOL0     H19694   2.450   1.323   3.687 -1.1265  0.8131  2.1872
  146MOL0     H19695   2.205   1.286   3.660  2.4131 -1.6553  1.4391
  146MOL0     H19696   1.890   1.269   3.394  0.3606 -0.2638  0.3650
  146MOL0     H19697   1.685   1.180   3.336 -0.7097 -0.0638 -0.0085
  146MOL0     H19698   1.340   1.463   3.252 -0.1905  0.3764  0.4024
  146MOL0     H19699   1.302   1.404   3.417  0.2560 -0.2099  0.0356
  146MOL0     H19700   1.216   1.195   3.321 -1.7687  0.2809 -0.0892
  146MOL0     H19701   1.218   1.257   3.155 -0.6276 -2.5161 -0.4806
  146MOL0     H19702   1.082   1.459   3.307 -1.1458  1.1433 -2.6484
  146MOL0     H19703   1.036   1.313   3.394 -1.8188 -1.9460 -0.7202
  146MOL0     H19704   0.865   1.358   3.238 -0.6907 -0.9917 -1.6170
  146MOL0     H19705   0.970   1.345   3.098 -1.5022 -2.5412 -1.1587
  146MOL0     H19706   0.878   0.941   3.157 -2.4188  0.4971 -0.6434
  146MOL0     H19707   1.486   1.532   3.437 -0.1679 -0.1396 -1.0152
  146MOL0     H19708   1.759   1.663   3.645 -0.4229  0.8394 -0.1953
  146MOL0     H19709   1.729   1.742   3.497  0.2508  0.4374  1.7294
  146MOL0     H19710   1.591   1.680   3.599 -0.7819  0.6682  0.2013
  147MOL0     O19711   3.957  11.166  11.345  0.2390 -0.5216 -0.4195
  147MOL0     C19712   4.042  11.124  11.264  0.4631  0.9101  0.2253
  147MOL0     O19713   4.076  10.995  11.254  1.1552  0.2057  0.2053
  147MOL0     C19714   4.010  10.907  11.332  0.7118 -0.5297  0.3604
  147MOL0     C19715   3.941  10.795  11.277  0.3544  0.1030 -0.1720
  147MOL0     C19716   3.869  10.705  11.363 -0.0668 -0.0484 -0.2239
  147MOL0     C19717   3.863  10.716  11.502 -0.2752 -0.7969  0.4027
  147MOL0     O19718   3.805  10.615  11.574  0.0721  0.3301 -0.9045
  147MOL0     C19719   3.837  10.597  11.713 -0.5122 -0.3071  0.5364
  147MOL0     C19720   3.712  10.625  11.800 -0.1056 -0.3736  0.1677
  147MOL0     C19721   3.588  10.547  11.763 -0.0470 -0.2463  0.4515
  147MOL0     C19722   3.463  10.600  11.836  0.5164  0.0405 -0.0953
  147MOL0     C19723   3.339  10.513  11.816 -0.2059  0.5475 -0.3465
  147MOL0     C19724   3.227  10.572  11.899 -0.5281  1.0439  0.3810
  147MOL0     C19725   3.090  10.521  11.855 -0.3452 -0.5302  0.4372
  147MOL0     C19726   2.980  10.620  11.898 -0.2794 -1.2519  0.1137
  147MOL0     N19727   2.891  10.568  11.993  0.0642  0.8792 -0.7714
  147MOL0     C19728   2.755  10.534  11.981  0.0646 -0.6618  0.3322
  147MOL0     C19729   2.716  10.518  12.115  0.0882  0.6268 -0.0385
  147MOL0     C19730   2.585  10.454  12.152 -1.2466  0.1535 -1.0000
  147MOL0     C19731   2.476  10.555  12.179 -0.6512  0.0415  0.6883
  147MOL0     C19732   2.405  10.608  12.058 -0.2347  0.1964  0.3264
  147MOL0     C19733   2.299  10.716  12.089  0.2654  0.1634 -0.7728
  147MOL0     O19734   2.211  10.731  11.975  0.9021 -0.7574 -0.2259
  147MOL0     C19735   2.093  10.803  11.996 -0.1889 -0.4362 -0.2692
  147MOL0     C19736   2.077  10.899  12.095  0.0284 -1.4521 -0.7061
  147MOL0     C19737   1.970  10.990  12.097 -0.3415  0.0318 -0.1211
  147MOL0     C19738   1.861  10.981  12.003 -0.4462  0.6411  0.1856
  147MOL0     C19739   1.740  11.071  12.006 -0.4367  1.2507  1.2115
  147MOL0     O19740   1.702  11.110  12.135  0.8381 -0.2459  0.0694
  147MOL0     C19741   1.569  11.161  12.132 -0.2940  0.1632 -0.0733
  147MOL0     C19742   1.563  11.291  12.177  0.5978  0.3682  0.2438
  147MOL0     C19743   1.446  11.346  12.213 -0.2313  0.0350 -0.5837
  147MOL0     C19744   1.318  11.284  12.186 -0.4602 -0.7324 -0.6992
  147MOL0     O19745   1.209  11.364  12.212 -0.0228  0.0174 -0.0145
  147MOL0     C19746   1.081  11.311  12.191  0.7828  0.2950 -0.5522
  147MOL0     C19747   0.985  11.432  12.194 -0.2714  0.6672 -0.4091
  147MOL0     C19748   0.845  11.374  12.219  0.3616 -0.3374 -0.1427
  147MOL0     C19749   0.739  11.483  12.189  0.0667  0.0352  0.3100
  147MOL0     C19750   0.759  11.624  12.248  0.6038 -0.1957 -0.9005
  147MOL0     C19751   0.751  11.618  12.403  0.1312  0.3000  0.1428
  147MOL0     C19752   0.839  11.728  12.476 -0.5248  0.2515 -0.1488
  147MOL0     C19753   0.773  11.788  12.601 -0.3735 -0.3541  0.8349
  147MOL0    Cl19754   0.615  11.854  12.567 -0.0981  0.3180 -0.4649
  147MOL0     C19755   1.322  11.147  12.144 -0.4030  0.3312 -0.1268
  147MOL0     C19756   1.452  11.091  12.108  0.0933  0.3809  0.6559
  147MOL0     O19757   1.682  11.088  11.893  0.1200  0.8295 -0.0661
  147MOL0     C19758   1.876  10.883  11.901 -0.6534 -0.4225  0.6946
  147MOL0     C19759   1.987  10.796  11.904 -0.5315  0.2652  1.3416
  147MOL0     N19760   2.824  10.547  12.198 -0.2329  0.1177  0.0658
  147MOL0     N19761   2.917  10.578  12.124  0.2535 -0.9445  0.7411
  147MOL0     C19762   3.924  10.828  11.558 -0.1826 -0.7851  0.6581
  147MOL0     C19763   3.996  10.921  11.475  0.7706 -0.4094  0.9148
  147MOL0     C19764   4.083  11.223  11.164  0.5481 -0.1181 -0.5865
  147MOL0     C19765   4.005  11.335  11.131 -0.0373  0.0385  1.0116
  147MOL0     C19766   4.041  11.427  11.032 -0.0870  0.0168  0.4354
  147MOL0     C19767   4.160  11.421  10.971 -0.0783 -1.0743 -0.2940
  147MOL0     O19768   4.192  11.510  10.867 -0.0151 -0.1004  0.5807
  147MOL0     C19769   4.247  11.459  10.750  0.0956  0.5164  0.0375
  147MOL0     C19770   4.144  11.468  10.636 -0.1879 -0.2479 -0.2556
  147MOL0     C19771   4.077  11.602  10.617 -0.2356 -0.4246 -0.2670
  147MOL0     C19772   4.026  11.633  10.473 -0.0907 -0.1439  0.1291
  147MOL0     C19773   3.925  11.538  10.442  0.1302  0.7356 -0.1415
  147MOL0     C19774   3.842  11.464  10.407 -0.5626  0.0836 -0.7893
  147MOL0     C19775   4.245  11.319  11.004  0.5189  0.2943  0.2294
  147MOL0     C19776   4.210  11.219  11.102 -0.3470 -0.4385 -0.0870
  147MOL0     C19777   4.318  11.129  11.143 -0.4814  1.0418  0.5541
  147MOL0     H19778   3.948  10.770  11.172  0.4938 -0.0494 -0.1279
  147MOL0     H19779   3.833  10.609  11.326  0.7840 -0.3285 -0.3463
  147MOL0     H19780   3.864  10.492  11.728  0.9310 -0.1175 -0.5095
  147MOL0     H19781   3.931  10.646  11.739  0.3872 -2.3210  1.2585
  147MOL0     H19782   3.694  10.733  11.790 -2.8330 -0.6431  1.0962
  147MOL0     H19783   3.736  10.610  11.905 -1.7506 -0.6495  0.5306
  147MOL0     H19784   3.603  10.444  11.795  1.8555  0.5027  2.2554
  147MOL0     H19785   3.580  10.542  11.654  0.8850  0.4126  0.3429
  147MOL0     H19786   3.482  10.589  11.943 -1.0182 -0.2629  0.1691
  147MOL0     H19787   3.450  10.706  11.816  0.1528  0.8270  3.5763
  147MOL0     H19788   3.311  10.514  11.710 -1.9521  5.1967 -0.0843
  147MOL0     H19789   3.349  10.410  11.853  0.0374  1.8729  3.7116
  147MOL0     H19790   3.240  10.555  12.007  2.6873  4.7660  0.8225
  147MOL0     H19791   3.226  10.679  11.875  0.5067  0.5363 -2.1547
  147MOL0     H19792   3.074  10.420  11.894 -1.1633 -0.7140 -0.3421
  147MOL0     H19793   3.080  10.518  11.746 -1.3700 -1.9338  0.5388
  147MOL0     H19794   3.018  10.720  11.921 -0.1968 -0.3631 -3.2937
  147MOL0     H19795   2.923  10.644  11.808  2.5139 -0.6162 -1.6155
  147MOL0     H19796   2.699  10.514  11.890  0.6474 -0.9628  0.0409
  147MOL0     H19797   2.535  10.392  12.077 -3.7232  0.7433  0.0696
  147MOL0     H19798   2.608  10.401  12.244  0.0110 -1.4600 -2.1910
  147MOL0     H19799   2.404  10.518  12.253 -1.1188  2.4254  1.5389
  147MOL0     H19800   2.518  10.646  12.224  1.7464  0.3921 -1.9578
  147MOL0     H19801   2.350  10.536  11.997  0.0453  1.1131 -1.0685
  147MOL0     H19802   2.477  10.659  11.992 -1.8701  1.2946 -0.6770
  147MOL0     H19803   2.340  10.813  12.119  0.9891  0.2227 -1.8836
  147MOL0     H19804   2.237  10.683  12.173  0.0842 -0.5285 -1.1732
  147MOL0     H19805   2.159  10.923  12.161  0.5495 -1.9315 -1.1731
  147MOL0     H19806   1.952  11.045  12.188 -0.8280 -1.4488  0.7069
  147MOL0     H19807   1.658  11.329  12.215  0.8795 -1.3956  1.4326
  147MOL0     H19808   1.464  11.450  12.240  2.7196 -0.1473 -1.5516
  147MOL0     H19809   1.068  11.272  12.090 -1.8204  1.0006 -0.5532
  147MOL0     H19810   1.052  11.234  12.264 -1.3250  2.5676  1.1863
  147MOL0     H19811   1.008  11.491  12.283  2.1942  1.4804 -1.4975
  147MOL0     H19812   0.990  11.496  12.105  1.3744  2.1348  0.6716
  147MOL0     H19813   0.817  11.280  12.170 -2.4753 -0.1831  1.0122
  147MOL0     H19814   0.852  11.353  12.326  0.1665  1.7911  0.3401
  147MOL0     H19815   0.635  11.452  12.199 -0.1630 -0.9075 -3.4944
  147MOL0     H19816   0.750  11.487  12.080  0.1715 -2.4640  0.1653
  147MOL0     H19817   0.672  11.683  12.217 -0.6978 -0.8977  1.1948
  147MOL0     H19818   0.854  11.671  12.220 -0.1499  1.0732 -1.3898
  147MOL0     H19819   0.643  11.618  12.418  0.0326 -0.3135 -0.4915
  147MOL0     H19820   0.794  11.527  12.446 -0.0845  1.3220  2.7030
  147MOL0     H19821   0.858  11.816  12.413 -3.3579  1.3500  0.3705
  147MOL0     H19822   0.939  11.693  12.503  0.4043  1.8711 -1.2616
  147MOL0     H19823   0.766  11.711  12.678  3.5023  0.5697  2.3318
  147MOL0     H19824   0.828  11.873  12.642 -0.5446  0.8648 -1.3061
  147MOL0     H19825   1.237  11.094  12.103 -0.9945 -0.7131  2.3212
  147MOL0     H19826   1.465  10.992  12.066 -0.0514 -1.0159  3.6298
  147MOL0     H19827   1.798  10.872  11.826 -1.3703 -0.8988  1.4947
  147MOL0     H19828   2.013  10.739  11.815 -0.4082  0.5629  1.1869
  147MOL0     H19829   3.922  10.841  11.665  1.3481 -3.6946  1.1440
  147MOL0     H19830   4.040  11.008  11.522  0.9774 -1.1967  2.2322
  147MOL0     H19831   3.902  11.332  11.165 -0.4065 -2.7009 -0.0810
  147MOL0     H19832   3.968  11.499  10.995  0.2585 -0.7445 -1.8809
  147MOL0     H19833   4.279  11.354  10.756 -1.5097  0.0635  1.4167
  147MOL0     H19834   4.337  11.517  10.726  0.6978  0.2591  1.5284
  147MOL0     H19835   4.076  11.384  10.650 -0.7883  0.3446  0.4691
  147MOL0     H19836   4.200  11.450  10.543 -0.7362  0.3269 -0.7065
  147MOL0     H19837   4.157  11.676  10.632 -2.6259  2.1428  0.6937
  147MOL0     H19838   4.008  11.610  10.701  1.6798  1.4058  1.2409
  147MOL0     H19839   3.996  11.738  10.467 -0.5714 -0.3613 -2.7505
  147MOL0     H19840   4.103  11.620  10.396 -0.4428 -2.3652  0.0865
  147MOL0     H19841   3.758  11.405  10.375 -1.1574  1.6382 -2.2469
  147MOL0     H19842   4.344  11.307  10.962 -0.0953 -2.8720 -0.5535
  147MOL0     H19843   4.334  11.049  11.071  2.7549  0.2669  1.9141
  147MOL0     H19844   4.415  11.177  11.124 -0.4358  0.3822 -1.0386
  147MOL0     H19845   4.315  11.094  11.247  4.1691  1.3852  1.0469
  148MOL0     O19846   9.933   7.052   5.213  0.1374  0.8683  0.0278
  148MOL0     C19847   9.929   7.137   5.298 -1.0596 -0.5661 -0.9301
  148MOL0     O19848  10.021   7.238   5.315  0.6019  0.1289  0.3853
  148MOL0     C19849  10.145   7.234   5.256  0.9879 -0.8440 -0.7405
  148MOL0     C19850  10.186   7.186   5.135  0.2246  0.1539 -0.1566
  148MOL0     C19851  10.318   7.197   5.094  0.3164  0.3251  0.0157
  148MOL0     C19852  10.413   7.258   5.173  0.2074 -0.1867 -0.0227
  148MOL0     O19853  10.540   7.257   5.123 -0.4248  0.5491 -0.2964
  148MOL0     C19854  10.641   7.358   5.161  0.1020 -0.2518  0.5351
  148MOL0     C19855  10.750   7.367   5.050 -0.8998  1.1164  0.7147
  148MOL0     C19856  10.869   7.273   5.080  0.3086 -0.2106 -0.7429
  148MOL0     C19857  10.871   7.127   5.043  0.7051  0.8310 -0.2924
  148MOL0     C19858  11.015   7.062   5.064  0.0305 -0.3272  0.3166
  148MOL0     C19859  11.096   7.079   5.199  0.0869 -0.1877  0.1849
  148MOL0     C19860  11.193   7.186   5.225 -0.0467  0.1762  0.0635
  148MOL0     C19861  11.297   7.148   5.321  0.2298 -0.6423 -0.1905
  148MOL0     N19862  11.413   7.071   5.268 -0.5080  0.2340  0.0942
  148MOL0     C19863  11.511   7.122   5.190  0.1132 -0.4309  0.6837
  148MOL0     C19864  11.592   7.021   5.162  0.4694 -0.4043  1.0359
  148MOL0     C19865  11.701   7.046   5.073  0.0878  0.6417  0.5843
  148MOL0     C19866  11.789   6.924   5.086 -0.1255 -0.2980  0.1443
  148MOL0     C19867  11.913   6.936   4.991  1.0777  0.3138 -0.1693
  148MOL0     C19868  11.995   6.806   5.002  0.0270  0.0933 -0.4524
  148MOL0     O19869  12.118   6.843   4.937 -0.4954  0.0193  0.0999
  148MOL0     C19870  12.229   6.759   4.950  1.0752  1.1796  0.4980
  148MOL0     C19871  12.222   6.613   4.958 -0.7796  1.0587 -0.1487
  148MOL0     C19872  12.344   6.537   4.973 -0.5588 -0.7237  0.2189
  148MOL0     C19873  12.468   6.600   4.946  0.4704  0.1561 -0.0556
  148MOL0     C19874  12.589   6.513   4.926  0.0212  0.0787 -0.4067
  148MOL0     O19875  12.707   6.579   4.954  0.1610  0.5048  0.4554
  148MOL0     C19876  12.818   6.495   4.924  0.4326 -0.2916  0.3180
  148MOL0     C19877  12.855   6.383   4.990 -0.5854  0.4954  0.2274
  148MOL0     C19878  12.958   6.303   4.941 -0.2587  0.3452  0.4068
  148MOL0     C19879  13.041   6.341   4.829  1.0943  0.5738  0.3280
  148MOL0     O19880  13.159   6.282   4.789  1.0977 -0.0172 -1.0730
  148MOL0     C19881  13.150   6.135   4.800 -0.5130 -0.1186  0.4935
  148MOL0     C19882  13.285   6.071   4.750  0.0230 -0.0704  0.9072
  148MOL0     C19883  13.320   5.949   4.832 -0.0846  0.0118 -0.5981
  148MOL0     C19884  13.468   5.908   4.819 -0.0564  0.0527 -0.4382
  148MOL0     C19885  13.509   5.806   4.933 -1.3488  0.3502 -1.2347
  148MOL0     C19886  13.664   5.771   4.912  1.3843  0.4703 -0.3644
  148MOL0     C19887  13.703   5.689   5.032 -0.1762  0.3324  0.4400
  148MOL0     C19888  13.677   5.539   4.997  0.7500 -0.3749  0.4137
  148MOL0    Cl19889  13.712   5.435   5.145  0.0472 -0.2005  0.5285
  148MOL0     C19890  12.999   6.455   4.762  1.3509  0.8072  0.3186
  148MOL0     C19891  12.889   6.530   4.805 -0.2032 -0.3359  0.3612
  148MOL0     O19892  12.576   6.401   4.884  0.0139 -0.3948 -0.4455
  148MOL0     C19893  12.470   6.738   4.922  0.2518 -1.4563 -0.0292
  148MOL0     C19894  12.355   6.816   4.937 -0.5517  0.5130 -0.4202
  148MOL0     N19895  11.549   6.907   5.228  0.0815  0.2960  0.4300
  148MOL0     N19896  11.439   6.936   5.289 -0.0910 -0.3863  0.1305
  148MOL0     C19897  10.375   7.321   5.291 -0.0958 -0.1991 -0.2242
  148MOL0     C19898  10.240   7.316   5.336 -0.0522  0.2935  0.3594
  148MOL0     C19899   9.813   7.141   5.386 -0.0281 -0.4179 -0.7261
  148MOL0     C19900   9.695   7.072   5.345  0.0445 -0.4084 -0.3410
  148MOL0     C19901   9.568   7.075   5.406 -0.6720 -0.5992  0.1080
  148MOL0     C19902   9.564   7.153   5.530  0.3589  0.0467  0.0524
  148MOL0     O19903   9.438   7.160   5.591 -0.2846 -0.2726 -0.0575
  148MOL0     C19904   9.313   7.156   5.521 -0.8724 -0.2420  0.6023
  148MOL0     C19905   9.208   7.243   5.582 -0.0610 -0.6115 -0.5188
  148MOL0     C19906   9.062   7.195   5.574 -0.4634 -0.7826  0.3117
  148MOL0     C19907   8.958   7.294   5.631  0.0195  0.4541 -0.0939
  148MOL0     C19908   8.841   7.216   5.674  0.5612 -0.1444  0.7111
  148MOL0     C19909   8.741   7.157   5.704  0.0453 -1.0470  0.2996
  148MOL0     C19910   9.677   7.218   5.568 -0.1254  0.5548 -1.2279
  148MOL0     C19911   9.807   7.221   5.504 -0.1339 -0.3166  0.1092
  148MOL0     C19912   9.911   7.307   5.565 -0.3275  0.6198 -0.4634
  148MOL0     H19913  10.123   7.129   5.068  0.7035 -0.9236  0.2770
  148MOL0     H19914  10.339   7.158   4.995 -0.2683 -2.4261  0.9138
  148MOL0     H19915  10.592   7.455   5.175  0.6586  0.1396 -0.1728
  148MOL0     H19916  10.688   7.339   5.258 -1.5456 -1.5551  1.1288
  148MOL0     H19917  10.784   7.471   5.047 -1.0256  1.1467  0.3905
  148MOL0     H19918  10.711   7.335   4.954 -0.7611  1.5461  0.5133
  148MOL0     H19919  10.897   7.286   5.185  0.7490  1.8808 -1.0736
  148MOL0     H19920  10.956   7.319   5.032  2.4109 -0.1245  2.8571
  148MOL0     H19921  10.811   7.075   5.119  1.8981 -0.4140 -0.1625
  148MOL0     H19922  10.830   7.103   4.945  0.1422 -2.0691  0.5357
  148MOL0     H19923  10.995   6.955   5.059  0.3051 -0.3629 -0.0869
  148MOL0     H19924  11.080   7.092   4.981  2.3736 -2.3255  1.3101
  148MOL0     H19925  11.026   7.071   5.282 -3.2391  0.0367 -2.3719
  148MOL0     H19926  11.154   6.987   5.214 -0.0157  0.1844  3.7142
  148MOL0     H19927  11.137   7.271   5.263 -0.7675  0.5215 -1.6922
  148MOL0     H19928  11.246   7.218   5.134  0.0133  0.0497  0.0535
  148MOL0     H19929  11.340   7.237   5.369  0.5291 -0.7952 -0.1765
  148MOL0     H19930  11.252   7.081   5.395  2.3747 -0.9299  0.9580
  148MOL0     H19931  11.515   7.222   5.149  1.5192 -0.9714 -0.6071
  148MOL0     H19932  11.672   7.054   4.968  1.9975  0.2780 -0.0080
  148MOL0     H19933  11.751   7.138   5.104  3.3191 -0.6130 -0.4381
  148MOL0     H19934  11.825   6.918   5.190 -1.0680 -1.1581  0.4354
  148MOL0     H19935  11.735   6.830   5.071 -1.2175  0.4232 -0.5727
  148MOL0     H19936  11.963   7.032   5.008 -1.3053  1.3976  1.1371
  148MOL0     H19937  11.871   6.948   4.891 -2.5441  1.7457  1.3414
  148MOL0     H19938  11.945   6.728   4.944  0.6941 -0.3293 -0.4712
  148MOL0     H19939  12.030   6.777   5.101  1.2032 -1.1434 -1.1934
  148MOL0     H19940  12.133   6.551   4.967  0.1165 -0.2017  0.4121
  148MOL0     H19941  12.341   6.434   5.007  0.8972  0.2268  3.6675
  148MOL0     H19942  12.797   6.355   5.077  0.3605 -2.1437  0.0912
  148MOL0     H19943  12.991   6.219   5.001 -1.4087 -2.6753 -2.8479
  148MOL0     H19944  13.138   6.109   4.905 -0.9168 -0.8393  0.2803
  148MOL0     H19945  13.068   6.107   4.734  1.1958 -3.4240 -0.4580
  148MOL0     H19946  13.298   6.051   4.643 -0.5830 -5.0318  1.5071
  148MOL0     H19947  13.355   6.149   4.782 -1.5271  0.9665  1.9010
  148MOL0     H19948  13.301   5.966   4.939  3.5507 -0.4366  0.2524
  148MOL0     H19949  13.254   5.870   4.794 -1.5764 -0.5541  2.7350
  148MOL0     H19950  13.531   5.997   4.829  2.3883 -1.5687 -0.6144
  148MOL0     H19951  13.490   5.860   4.724  0.1478  0.2529 -0.4928
  148MOL0     H19952  13.439   5.722   4.929 -2.1745  0.9158  0.5692
  148MOL0     H19953  13.494   5.861   5.026 -0.6703  0.4566 -1.1768
  148MOL0     H19954  13.676   5.727   4.813 -0.6072  2.0707 -1.3957
  148MOL0     H19955  13.719   5.866   4.913 -1.4634  2.3017 -2.1723
  148MOL0     H19956  13.658   5.713   5.129 -4.5961 -2.4228 -0.6780
  148MOL0     H19957  13.811   5.702   5.045 -0.0170  0.8932 -1.1843
  148MOL0     H19958  13.574   5.516   4.969  0.5227  0.9265  0.1121
  148MOL0     H19959  13.742   5.501   4.917  0.0840 -2.6848  0.9150
  148MOL0     H19960  13.054   6.485   4.674 -0.3688  0.6885 -0.8625
  148MOL0     H19961  12.851   6.616   4.750 -0.5456 -0.2912  0.6657
  148MOL0     H19962  12.567   6.776   4.892  1.2723 -1.7255  2.6395
  148MOL0     H19963  12.374   6.921   4.917  0.0720  0.3486 -0.7442
  148MOL0     H19964  10.434   7.391   5.349 -0.9991  0.9725 -0.6653
  148MOL0     H19965  10.221   7.374   5.425  0.6929  3.7963 -1.5985
  148MOL0     H19966   9.697   7.008   5.258  1.6390  0.1404 -0.7432
  148MOL0     H19967   9.486   7.029   5.353  1.9287 -0.7058 -4.2996
  148MOL0     H19968   9.277   7.053   5.507  0.7978 -0.6057 -1.6132
  148MOL0     H19969   9.328   7.188   5.418 -2.6688  1.0979  0.7086
  148MOL0     H19970   9.230   7.332   5.522  0.4455 -0.2358  0.2100
  148MOL0     H19971   9.232   7.261   5.687  3.1442 -2.3841 -0.8250
  148MOL0     H19972   9.051   7.109   5.641 -0.7350 -0.1794  1.0535
  148MOL0     H19973   9.034   7.169   5.471  0.7471 -1.0506  0.0347
  148MOL0     H19974   9.002   7.342   5.719 -0.5039 -1.4811  1.3030
  148MOL0     H19975   8.925   7.377   5.568 -1.1955  0.9126  1.0960
  148MOL0     H19976   8.653   7.107   5.740 -1.4378  1.0114 -0.2557
  148MOL0     H19977   9.666   7.279   5.657 -0.8826 -0.1591 -0.8274
  148MOL0     H19978  10.011   7.262   5.560 -1.3956 -1.8446 -1.5671
  148MOL0     H19979   9.917   7.402   5.511 -3.4356  1.5355  0.5522
  148MOL0     H19980   9.886   7.331   5.669 -2.3372 -1.0963 -0.4739
  149MOL0     O19981   1.654   8.685  11.258  0.1512  0.2728 -0.0318
  149MOL0     C19982   1.653   8.750  11.359  0.5123  0.0808  0.5091
  149MOL0     O19983   1.755   8.817  11.409 -0.2015 -0.8469  0.3628
  149MOL0     C19984   1.882   8.829  11.337 -0.1792 -0.3100 -0.1180
  149MOL0     C19985   1.995   8.796  11.415 -0.0416 -0.1798 -1.0635
  149MOL0     C19986   2.128   8.802  11.365 -0.5335 -0.2354  0.3174
  149MOL0     C19987   2.141   8.839  11.226 -0.1788  0.5095  0.4570
  149MOL0     O19988   2.266   8.830  11.164  0.4610  0.5526  0.4144
  149MOL0     C19989   2.389   8.850  11.232 -0.3788  0.2437 -0.3938
  149MOL0     C19990   2.501   8.804  11.140  0.1879 -0.5229 -0.3737
  149MOL0     C19991   2.640   8.834  11.208 -0.5247 -0.9060  0.0088
  149MOL0     C19992   2.660   8.992  11.210  0.0932  0.5316  0.0020
  149MOL0     C19993   2.800   9.035  11.256  0.5083 -0.6625  0.3137
  149MOL0     C19994   2.818   8.996  11.409  0.2374 -0.4825 -0.0015
  149MOL0     C19995   2.965   9.012  11.446  0.5651 -0.0702  0.4266
  149MOL0     C19996   3.058   8.899  11.390 -0.1778  0.0648 -0.5744
  149MOL0     N19997   3.202   8.930  11.403 -0.5866 -0.9318 -0.2361
  149MOL0     C19998   3.245   9.040  11.338 -0.7714 -0.4936 -0.1826
  149MOL0     C19999   3.379   9.044  11.363 -0.8412  1.1952 -0.3933
  149MOL0     C20000   3.485   9.154  11.329  0.1776  0.8837 -0.2241
  149MOL0     C20001   3.615   9.094  11.257 -0.2851  0.5266 -0.1526
  149MOL0     C20002   3.726   9.198  11.229 -0.1771 -0.6209 -0.6209
  149MOL0     C20003   3.860   9.138  11.190  0.7412  0.7160 -0.3794
  149MOL0     O20004   3.860   9.132  11.052  0.2527 -0.0130 -0.0073
  149MOL0     C20005   3.983   9.157  10.995 -1.1318  0.7592 -0.1053
  149MOL0     C20006   4.112   9.126  11.050 -0.1446 -0.1160 -0.4491
  149MOL0     C20007   4.222   9.176  10.988  0.4073 -0.3545  0.5753
  149MOL0     C20008   4.228   9.246  10.865  0.4643  0.2563  0.1567
  149MOL0     C20009   4.358   9.288  10.799 -0.4193  0.2489 -0.3277
  149MOL0     O20010   4.466   9.292  10.886 -0.4773 -0.3393 -0.2035
  149MOL0     C20011   4.595   9.276  10.846  0.6634  0.4437  0.0666
  149MOL0     C20012   4.643   9.190  10.740  0.0230 -0.5167 -0.2278
  149MOL0     C20013   4.776   9.157  10.724 -0.2172 -0.0539  0.2198
  149MOL0     C20014   4.872   9.218  10.811  0.7291 -0.2190  0.5625
  149MOL0     O20015   5.004   9.200  10.810  0.1966  0.5552 -0.1328
  149MOL0     C20016   5.055   9.165  10.674 -0.1366 -1.0232 -0.1520
  149MOL0     C20017   5.208   9.179  10.692 -0.1870  0.6282  0.1240
  149MOL0     C20018   5.257   9.325  10.720  0.6023  0.4755 -0.0870
  149MOL0     C20019   5.238   9.419  10.596  0.4439  0.2204 -0.8170
  149MOL0     C20020   5.333   9.376  10.483  0.0290  0.2645 -0.1351
  149MOL0     C20021   5.328   9.466  10.358  0.0782  0.8141  0.1490
  149MOL0     C20022   5.341   9.623  10.382 -0.2048 -0.5168  0.0168
  149MOL0     C20023   5.383   9.696  10.250 -0.3792 -0.1105  0.0071
  149MOL0    Cl20024   5.554   9.661  10.227 -0.1008 -0.2903 -0.2256
  149MOL0     C20025   4.824   9.304  10.912  0.2779 -0.6699  0.8473
  149MOL0     C20026   4.686   9.339  10.931 -0.6479  0.5362  0.5763
  149MOL0     O20027   4.371   9.304  10.680  0.1779 -0.0378  0.0905
  149MOL0     C20028   4.100   9.272  10.806  0.0077  0.2279 -0.4441
  149MOL0     C20029   3.982   9.224  10.875 -0.4836  0.0315  0.2500
  149MOL0     N20030   3.408   8.943  11.448  0.3301  0.3911 -0.8063
  149MOL0     N20031   3.304   8.877  11.470  0.2206 -0.5437  0.1261
  149MOL0     C20032   2.030   8.864  11.147 -1.0603  0.7183  0.3236
  149MOL0     C20033   1.901   8.863  11.201 -0.1179  0.1792  0.2779
  149MOL0     C20034   1.523   8.775  11.433 -0.0379  0.5177  0.9842
  149MOL0     C20035   1.526   8.839  11.559 -0.1827 -0.1188  0.2471
  149MOL0     C20036   1.409   8.869  11.626  0.1869  0.4771  0.0364
  149MOL0     C20037   1.281   8.856  11.565 -0.1946 -0.5981  0.4626
  149MOL0     O20038   1.174   8.911  11.627 -0.2392 -0.5138  0.3115
  149MOL0     C20039   1.034   8.887  11.583 -0.3449 -0.1733 -0.4093
  149MOL0     C20040   0.992   8.754  11.642 -0.2886 -0.1826  0.0841
  149MOL0     C20041   1.004   8.766  11.796  0.1684  0.2539  0.1244
  149MOL0     C20042   0.999   8.635  11.867  0.7887  0.5513 -0.4919
  149MOL0     C20043   0.875   8.560  11.837 -1.0425 -0.4088 -0.2437
  149MOL0     C20044   0.766   8.497  11.830 -0.1891 -0.2083 -0.4452
  149MOL0     C20045   1.281   8.810  11.427 -0.6590  0.0225 -0.6831
  149MOL0     C20046   1.401   8.762  11.364  0.3596  0.2820 -0.2018
  149MOL0     C20047   1.384   8.713  11.222 -0.6811 -0.4316 -0.1903
  149MOL0     H20048   1.982   8.762  11.518  1.0352  5.4107  1.3368
  149MOL0     H20049   2.199   8.790  11.446 -2.2343  2.0894  2.3518
  149MOL0     H20050   2.400   8.959  11.238 -1.7458  0.4655 -1.3540
  149MOL0     H20051   2.395   8.802  11.330 -1.2453 -2.6377 -1.6457
  149MOL0     H20052   2.486   8.848  11.041 -0.0198  0.7278  0.1937
  149MOL0     H20053   2.493   8.696  11.129 -2.8369 -0.2008 -2.9435
  149MOL0     H20054   2.725   8.790  11.156  1.7239  0.7822  2.0277
  149MOL0     H20055   2.634   8.790  11.308 -1.2905  0.0797  0.4140
  149MOL0     H20056   2.652   9.026  11.106  1.4466  1.6959  0.2411
  149MOL0     H20057   2.596   9.045  11.281 -0.9028  0.4429 -0.8097
  149MOL0     H20058   2.872   8.980  11.194 -1.7928 -2.3927 -0.9995
  149MOL0     H20059   2.818   9.140  11.230  1.4810 -0.8382  0.2140
  149MOL0     H20060   2.755   9.061  11.470  0.5386  0.2629 -0.4755
  149MOL0     H20061   2.789   8.892  11.428 -1.8804  0.1403  0.5067
  149MOL0     H20062   2.970   9.008  11.556 -1.6012  0.1238  0.5794
  149MOL0     H20063   2.989   9.109  11.403 -1.4450 -0.6638 -2.2731
  149MOL0     H20064   3.037   8.803  11.438 -2.1794 -0.3581 -2.1354
  149MOL0     H20065   3.038   8.883  11.283 -0.4778 -1.7840 -0.2739
  149MOL0     H20066   3.192   9.106  11.271  0.3979  0.2138 -0.4458
  149MOL0     H20067   3.431   9.217  11.258 -1.8522 -2.7650 -2.1607
  149MOL0     H20068   3.517   9.207  11.420 -2.1695  2.3105 -0.1475
  149MOL0     H20069   3.662   9.013  11.312  3.7743  1.8962 -1.2669
  149MOL0     H20070   3.588   9.034  11.169 -1.4739 -2.3654  2.0190
  149MOL0     H20071   3.741   9.261  11.318  3.0315 -1.2380 -0.6050
  149MOL0     H20072   3.691   9.258  11.145  1.4578  1.4130  0.0550
  149MOL0     H20073   3.885   9.037  11.225  0.7079  1.3472  1.5671
  149MOL0     H20074   3.942   9.198  11.232 -1.0956  1.9236  1.6888
  149MOL0     H20075   4.124   9.061  11.136  0.3161  1.3595  0.6414
  149MOL0     H20076   4.312   9.179  11.049  0.4218  0.9862  0.5239
  149MOL0     H20077   4.582   9.130  10.673  0.1088 -0.1250 -0.6593
  149MOL0     H20078   4.806   9.086  10.648 -3.1093  1.5232 -2.6810
  149MOL0     H20079   5.043   9.060  10.644 -0.4307 -1.4782  1.4811
  149MOL0     H20080   5.013   9.228  10.595 -2.3572 -0.1308  1.6482
  149MOL0     H20081   5.248   9.121  10.776  0.6057  1.4910  0.3632
  149MOL0     H20082   5.257   9.142  10.601 -1.9645 -2.9877  0.4809
  149MOL0     H20083   5.202   9.365  10.805  1.9150 -0.0357  1.0456
  149MOL0     H20084   5.362   9.305  10.744  0.0127 -1.8530  0.9087
  149MOL0     H20085   5.250   9.519  10.638 -2.1385 -1.2350  4.1410
  149MOL0     H20086   5.146   9.412  10.538  0.7492  1.8264 -1.5597
  149MOL0     H20087   5.318   9.270  10.460  2.6401 -0.4274  1.0213
  149MOL0     H20088   5.436   9.376  10.519  0.9361 -0.3580 -2.5196
  149MOL0     H20089   5.415   9.443  10.296  0.9661  2.1649  0.8138
  149MOL0     H20090   5.237   9.448  10.301  1.0724 -1.7797 -0.7189
  149MOL0     H20091   5.413   9.636  10.463  0.5945  0.6893 -0.8543
  149MOL0     H20092   5.238   9.657  10.396 -0.0262  0.9076 -1.7062
  149MOL0     H20093   5.314   9.661  10.172  0.9862  0.2721 -1.4294
  149MOL0     H20094   5.357   9.802  10.254 -0.3338  0.1656 -3.7088
  149MOL0     H20095   4.912   9.349  10.957  2.2490 -0.9799 -2.3983
  149MOL0     H20096   4.653   9.409  11.006 -0.9095 -0.2569  1.2143
  149MOL0     H20097   4.084   9.324  10.712  0.7357  0.5960 -0.3681
  149MOL0     H20098   3.889   9.258  10.831  0.0182 -1.2612 -2.0050
  149MOL0     H20099   2.040   8.881  11.041  1.6719  1.8775  0.6908
  149MOL0     H20100   1.811   8.886  11.144 -2.1847 -2.4593  2.2222
  149MOL0     H20101   1.619   8.863  11.611 -0.1325 -0.8204  0.4951
  149MOL0     H20102   1.401   8.936  11.711  3.6584  0.4533  0.5475
  149MOL0     H20103   1.009   8.883  11.477 -2.0471 -1.2122 -0.0011
  149MOL0     H20104   0.975   8.962  11.636  0.3408  0.1486 -0.0823
  149MOL0     H20105   1.050   8.671  11.600  0.1947 -0.2254  0.8065
  149MOL0     H20106   0.890   8.741  11.606 -0.3961  0.7363  0.0253
  149MOL0     H20107   0.932   8.836  11.840  0.2170  1.1777 -1.2186
  149MOL0     H20108   1.106   8.796  11.823  1.4835 -0.8057 -3.1620
  149MOL0     H20109   1.079   8.565  11.841 -0.6752 -1.5701  0.3894
  149MOL0     H20110   1.009   8.664  11.972 -1.0785 -0.0084 -0.1188
  149MOL0     H20111   0.670   8.449  11.829 -1.6408  2.4933 -0.1357
  149MOL0     H20112   1.186   8.797  11.377 -0.2643  1.4748 -1.8722
  149MOL0     H20113   1.280   8.706  11.187 -0.8962 -0.1376  0.3723
  149MOL0     H20114   1.434   8.781  11.153  0.4035 -1.1663 -0.1339
  149MOL0     H20115   1.424   8.612  11.212  2.1866  0.6628 -0.6230
  150MOL0     O20116   0.132   1.096  10.339  0.0352  0.0521 -0.4882
  150MOL0     C20117   0.104   1.117  10.460 -0.2438  0.4108 -0.0307
  150MOL0     O20118   0.173   1.191  10.551  0.1805  0.9685 -0.0996
  150MOL0     C20119   0.294   1.237  10.497  0.5338  0.0001 -0.4120
  150MOL0     C20120   0.407   1.192  10.563 -1.1495 -0.1905 -0.3958
  150MOL0     C20121   0.538   1.228  10.519  0.2212 -0.4892  0.0999
  150MOL0     C20122   0.559   1.305  10.403  0.3724 -0.7364  0.4910
  150MOL0     O20123   0.686   1.342  10.369  0.8814 -0.3483 -0.1309
  150MOL0     C20124   0.699   1.457  10.279  0.0069 -0.5529 -0.0593
  150MOL0     C20125   0.847   1.502  10.255  0.1851  0.1771  0.4286
  150MOL0     C20126   0.934   1.401  10.176 -0.0565  0.1115 -0.1761
  150MOL0     C20127   0.882   1.384  10.032 -0.0725 -0.4725 -0.3556
  150MOL0     C20128   0.984   1.308   9.938  0.1313 -0.0126  0.1469
  150MOL0     C20129   1.099   1.404   9.897 -0.3640  0.0382 -0.3958
  150MOL0     C20130   1.203   1.328   9.819 -0.2516 -0.0711  0.0702
  150MOL0     C20131   1.304   1.422   9.772 -0.7836 -0.5582  1.1653
  150MOL0     N20132   1.391   1.359   9.668 -0.6509 -0.5089 -0.1689
  150MOL0     C20133   1.375   1.371   9.533 -0.0773 -0.1276 -0.5340
  150MOL0     C20134   1.496   1.326   9.486 -0.5987  0.3277  0.2211
  150MOL0     C20135   1.525   1.305   9.346 -0.3341 -0.7282  0.1735
  150MOL0     C20136   1.471   1.186   9.275 -0.8038  0.0401 -0.5636
  150MOL0     C20137   1.482   1.181   9.118 -0.9399  0.9059  0.3553
  150MOL0     C20138   1.385   1.271   9.047 -0.3435 -0.1171 -0.9217
  150MOL0     O20139   1.425   1.409   9.064 -0.1464 -0.3825  0.0823
  150MOL0     C20140   1.538   1.450   8.993  0.5276 -0.1154 -0.4153
  150MOL0     C20141   1.557   1.409   8.856 -0.7337 -0.4454 -0.5993
  150MOL0     C20142   1.683   1.425   8.797  0.8214  0.6503  0.0307
  150MOL0     C20143   1.795   1.482   8.870  0.3480 -0.4465  1.0007
  150MOL0     C20144   1.909   1.533   8.798 -0.0978 -0.7088 -0.5437
  150MOL0     O20145   2.028   1.520   8.863  0.1464  0.0836  0.0375
  150MOL0     C20146   2.143   1.520   8.796 -0.1373 -0.4560  0.4779
  150MOL0     C20147   2.254   1.587   8.850 -0.6398 -0.8060  0.3127
  150MOL0     C20148   2.375   1.595   8.777  0.0616 -0.1154  0.2536
  150MOL0     C20149   2.394   1.526   8.659 -0.5091 -0.7882 -0.3065
  150MOL0     O20150   2.512   1.546   8.591 -0.0792 -0.7279  0.1031
  150MOL0     C20151   2.562   1.428   8.525 -0.2548  0.6793 -0.5053
  150MOL0     C20152   2.709   1.445   8.493  0.6877 -0.1908  0.1016
  150MOL0     C20153   2.752   1.583   8.445  0.3238  0.1340 -0.3821
  150MOL0     C20154   2.886   1.574   8.383  0.0373 -0.0216 -0.6586
  150MOL0     C20155   2.943   1.717   8.365  0.2578  0.8257  0.0287
  150MOL0     C20156   3.091   1.708   8.361  0.1983  0.8551  0.5723
  150MOL0     C20157   3.166   1.832   8.313  0.4114 -0.5474  0.1461
  150MOL0     C20158   3.307   1.799   8.287 -1.2824  0.9805  0.1013
  150MOL0    Cl20159   3.411   1.934   8.237 -0.0795  0.1129  0.0835
  150MOL0     C20160   2.289   1.449   8.608 -0.2913  0.0672 -0.1324
  150MOL0     C20161   2.165   1.444   8.679  0.3314 -0.3916 -0.9880
  150MOL0     O20162   1.897   1.560   8.676  0.0325  0.5699 -0.2534
  150MOL0     C20163   1.774   1.515   9.008  0.4794  0.0903  0.0346
  150MOL0     C20164   1.650   1.492   9.067  0.9562 -1.1484 -0.7690
  150MOL0     N20165   1.575   1.297   9.590  0.5089  0.5810 -0.0326
  150MOL0     N20166   1.516   1.322   9.700  0.2764 -0.1641  0.0283
  150MOL0     C20167   0.435   1.348  10.333  0.0981  0.4976  0.1149
  150MOL0     C20168   0.302   1.319  10.389 -0.2827  0.2163  0.5679
  150MOL0     C20169  -0.027   1.055  10.496  0.6136  0.3434 -0.1609
  150MOL0     C20170  -0.091   0.958  10.413  0.4274  0.2118 -0.2525
  150MOL0     C20171  -0.208   0.900  10.452  0.4750 -0.8067 -0.7281
  150MOL0     C20172  -0.280   0.931  10.570 -0.5722  0.2027 -0.4893
  150MOL0     O20173  -0.393   0.859  10.602  0.0502  0.1126  0.3074
  150MOL0     C20174  -0.479   0.895  10.707 -0.1308 -0.6418 -0.0517
  150MOL0     C20175  -0.540   1.038  10.694 -0.3787 -0.1977 -0.8841
  150MOL0     C20176  -0.625   1.068  10.824 -0.6620 -0.5606 -0.1310
  150MOL0     C20177  -0.766   1.097  10.800  0.7794 -0.0670 -0.1919
  150MOL0     C20178  -0.799   1.199  10.702  0.1646 -0.4355  0.9354
  150MOL0     C20179  -0.834   1.282  10.615 -0.3264  0.2796  0.6585
  150MOL0     C20180  -0.222   1.035  10.648  0.4165 -0.6978  0.7794
  150MOL0     C20181  -0.103   1.093  10.617 -0.3306 -0.6878  0.3897
  150MOL0     C20182  -0.052   1.204  10.706  0.3157 -0.0199 -0.1036
  150MOL0     H20183   0.396   1.127  10.649 -2.1034 -0.3648 -0.6405
  150MOL0     H20184   0.624   1.202  10.579  2.1775  2.8991 -0.9870
  150MOL0     H20185   0.658   1.451  10.178 -1.1015  1.3378  0.2340
  150MOL0     H20186   0.650   1.544  10.324  0.2704 -0.7647  0.6576
  150MOL0     H20187   0.886   1.518  10.356  1.6303 -0.7669  0.0542
  150MOL0     H20188   0.849   1.601  10.208 -0.8920  1.6160  3.1383
  150MOL0     H20189   0.931   1.304  10.228  2.2265  0.1029  0.0293
  150MOL0     H20190   1.034   1.444  10.186 -0.6852  1.5071  0.2898
  150MOL0     H20191   0.797   1.315  10.034 -0.0133 -0.5255  1.4227
  150MOL0     H20192   0.832   1.476   9.999 -2.0348 -0.2125  2.8864
  150MOL0     H20193   1.013   1.219   9.994 -0.9144 -1.3853 -1.3969
  150MOL0     H20194   0.921   1.296   9.850 -0.8557  0.3204  0.7900
  150MOL0     H20195   1.061   1.483   9.831  1.0926  0.5305 -0.6722
  150MOL0     H20196   1.157   1.448   9.979  0.0126 -1.7063  0.3194
  150MOL0     H20197   1.150   1.274   9.740 -1.2411 -2.6690  2.3386
  150MOL0     H20198   1.236   1.249   9.887 -0.8064  1.8413  2.7425
  150MOL0     H20199   1.253   1.509   9.729 -0.5487  1.6704  4.9653
  150MOL0     H20200   1.360   1.448   9.862 -1.6040  0.0166  1.5217
  150MOL0     H20201   1.293   1.404   9.469 -2.0861 -0.5162  1.7023
  150MOL0     H20202   1.492   1.398   9.298  1.9914  0.1525  0.1352
  150MOL0     H20203   1.634   1.312   9.342 -0.3990 -0.1026 -1.0617
  150MOL0     H20204   1.530   1.105   9.320 -1.5013  0.8679  2.0342
  150MOL0     H20205   1.364   1.176   9.297 -0.9525 -0.5116 -1.4911
  150MOL0     H20206   1.474   1.076   9.086  2.6613  0.3660  0.7702
  150MOL0     H20207   1.585   1.211   9.097 -0.1150 -1.1742  1.1332
  150MOL0     H20208   1.281   1.265   9.080  0.5469  1.5512  2.7064
  150MOL0     H20209   1.379   1.258   8.939  1.0426  0.9641 -1.1647
  150MOL0     H20210   1.476   1.369   8.796  0.4007 -2.2332 -1.0391
  150MOL0     H20211   1.701   1.392   8.696 -0.3542 -2.3866  0.6838
  150MOL0     H20212   2.249   1.646   8.940 -1.9879 -1.0441  0.4128
  150MOL0     H20213   2.462   1.638   8.825 -0.4149 -1.0578  2.0258
  150MOL0     H20214   2.560   1.344   8.594  2.7701  0.0903 -0.9914
  150MOL0     H20215   2.500   1.409   8.437 -0.3872 -1.9899  0.0730
  150MOL0     H20216   2.764   1.428   8.586  0.8369  2.2805  0.5327
  150MOL0     H20217   2.731   1.376   8.411  0.1517  0.2092 -0.3907
  150MOL0     H20218   2.684   1.626   8.370  2.8583  3.2476 -1.1248
  150MOL0     H20219   2.763   1.652   8.529  0.1730 -0.3305  0.0205
  150MOL0     H20220   2.880   1.518   8.289 -0.2324  0.8220 -1.1541
  150MOL0     H20221   2.947   1.529   8.462 -0.8304  2.3570  1.5027
  150MOL0     H20222   2.914   1.776   8.451 -1.3505 -1.9924  1.5789
  150MOL0     H20223   2.895   1.756   8.274  0.4016 -1.8927 -1.3389
  150MOL0     H20224   3.119   1.681   8.463  0.6632 -2.2336 -0.2646
  150MOL0     H20225   3.130   1.626   8.300 -1.6456  1.0390 -0.9590
  150MOL0     H20226   3.170   1.911   8.388  1.7117  0.2968 -0.7579
  150MOL0     H20227   3.125   1.868   8.218  1.8244 -1.2607 -0.7639
  150MOL0     H20228   3.353   1.766   8.381 -1.5147  1.0788  0.2488
  150MOL0     H20229   3.323   1.719   8.214  1.3880  1.2298  0.3245
  150MOL0     H20230   2.297   1.379   8.525  0.3299 -0.5744  0.4566
  150MOL0     H20231   2.079   1.385   8.649 -0.5126  0.7336 -0.8803
  150MOL0     H20232   1.855   1.572   9.053 -1.0513  1.7015  0.8551
  150MOL0     H20233   1.629   1.503   9.173 -0.2989 -1.3301 -0.9808
  150MOL0     H20234   0.436   1.407  10.242  1.2419 -0.5422 -0.5875
  150MOL0     H20235   0.212   1.341  10.332 -2.1642 -0.0247  3.2036
  150MOL0     H20236  -0.040   0.912  10.329  0.9751 -1.4034  0.9259
  150MOL0     H20237  -0.238   0.817  10.389  2.3045 -0.6710 -1.8669
  150MOL0     H20238  -0.430   0.885  10.804  0.4603  1.0185 -0.1392
  150MOL0     H20239  -0.564   0.829  10.688 -0.4672  0.4401 -2.7722
  150MOL0     H20240  -0.604   1.045  10.606 -0.2517  1.0040 -0.9003
  150MOL0     H20241  -0.461   1.113  10.679 -1.1887  0.4128 -2.2560
  150MOL0     H20242  -0.573   1.160  10.849 -0.8882  0.6065 -3.4793
  150MOL0     H20243  -0.611   0.989  10.899 -3.1043 -2.2376 -1.2969
  150MOL0     H20244  -0.817   1.006  10.768 -2.4099  1.6273 -0.3354
  150MOL0     H20245  -0.812   1.134  10.892  2.3708  3.1010 -0.5362
  150MOL0     H20246  -0.864   1.350  10.538 -0.4684  0.7598  1.1337
  150MOL0     H20247  -0.264   1.071  10.742 -0.8502  1.4427 -0.4969
  150MOL0     H20248  -0.047   1.297  10.649  0.3869 -0.7129 -1.2564
  150MOL0     H20249  -0.097   1.210  10.806 -0.3635  0.5240 -0.4376
  150MOL0     H20250   0.046   1.172  10.742  0.0822  1.8968  2.5980
  151MOL0     O20251   4.520   0.425   1.641 -0.4425  0.8441  0.6647
  151MOL0     C20252   4.441   0.345   1.585  0.2691 -0.0799 -1.0853
  151MOL0     O20253   4.473   0.234   1.503  0.5924  0.3181  0.0424
  151MOL0     C20254   4.604   0.217   1.454  0.6154 -0.0527 -0.3083
  151MOL0     C20255   4.671   0.094   1.462  0.0196  0.3004  0.3209
  151MOL0     C20256   4.802   0.087   1.425 -0.7035  0.1933  0.5333
  151MOL0     C20257   4.872   0.193   1.362  0.3380 -0.3304 -0.2127
  151MOL0     O20258   4.998   0.181   1.339  0.0351 -0.4021  0.8139
  151MOL0     C20259   5.032   0.098   1.225  1.1379  0.2257  0.2868
  151MOL0     C20260   5.180   0.110   1.196  0.2702  0.4754 -0.0985
  151MOL0     C20261   5.192   0.076   1.051  0.4664  0.7322 -0.2246
  151MOL0     C20262   5.334   0.052   1.010  0.2026 -0.3140 -0.0763
  151MOL0     C20263   5.361   0.052   0.863  0.0985 -0.2076 -0.7253
  151MOL0     C20264   5.503   0.001   0.845  0.0379 -0.8552 -0.4807
  151MOL0     C20265   5.583   0.054   0.720  0.2843  1.0562  0.2263
  151MOL0     C20266   5.503   0.039   0.589  0.3548 -1.1280 -0.3541
  151MOL0     N20267   5.448   0.167   0.551 -0.3170 -0.4992  0.3610
  151MOL0     C20268   5.313   0.205   0.557 -0.1187 -0.5042 -1.1967
  151MOL0     C20269   5.307   0.333   0.518 -0.2163 -0.2447 -0.0631
  151MOL0     C20270   5.188   0.418   0.510 -0.0749 -0.2141 -0.5675
  151MOL0     C20271   5.105   0.421   0.642  0.1429  0.3440  0.2967
  151MOL0     C20272   5.171   0.472   0.776 -0.4856 -0.0284  0.8311
  151MOL0     C20273   5.281   0.578   0.738 -0.5121 -0.3394 -0.4839
  151MOL0     O20274   5.337   0.651   0.847 -0.8822 -0.1951 -0.2982
  151MOL0     C20275   5.469   0.628   0.873 -0.4110 -0.9809 -0.3977
  151MOL0     C20276   5.550   0.516   0.843  0.3405  0.0874 -0.3615
  151MOL0     C20277   5.691   0.525   0.842 -0.3092 -0.5613 -0.1155
  151MOL0     C20278   5.754   0.641   0.885  0.2308 -0.4368  0.2225
  151MOL0     C20279   5.900   0.659   0.902  0.3042 -0.5948  0.2711
  151MOL0     O20280   5.939   0.795   0.922 -0.4132  0.5155 -0.4000
  151MOL0     C20281   6.066   0.827   0.910  0.2639  0.1234  0.7150
  151MOL0     C20282   6.135   0.799   0.786  0.2993 -0.7324 -0.2119
  151MOL0     C20283   6.270   0.844   0.770  0.0766  0.3701 -0.4103
  151MOL0     C20284   6.334   0.926   0.864 -0.7541  0.5005  0.6107
  151MOL0     O20285   6.457   0.979   0.850 -0.3824  0.0834  0.8310
  151MOL0     C20286   6.477   1.119   0.840 -1.5437 -0.1541  0.7707
  151MOL0     C20287   6.630   1.152   0.841 -0.4884  0.5557  0.2782
  151MOL0     C20288   6.697   1.119   0.974  0.7904 -0.1251 -0.3086
  151MOL0     C20289   6.838   1.171   0.974 -0.5795  0.0221  0.7282
  151MOL0     C20290   6.907   1.136   1.102 -0.6001 -0.0112 -0.0125
  151MOL0     C20291   6.974   1.258   1.167 -0.3265  0.2141 -0.6076
  151MOL0     C20292   7.071   1.207   1.278 -0.2275  0.5885 -0.8298
  151MOL0     C20293   7.160   1.318   1.350 -0.5255  1.2708  0.1979
  151MOL0    Cl20294   7.199   1.246   1.506 -0.7346  0.1789 -0.2295
  151MOL0     C20295   6.257   0.952   0.979  0.5586 -0.9107  0.6147
  151MOL0     C20296   6.125   0.905   1.001  0.7627  0.4092 -0.4696
  151MOL0     O20297   5.977   0.568   0.883  0.3803  0.0239 -0.1617
  151MOL0     C20298   5.677   0.759   0.904  0.0877  0.8229  0.2558
  151MOL0     C20299   5.535   0.748   0.897 -1.1022  0.4813  0.2431
  151MOL0     N20300   5.431   0.375   0.500 -0.3284  0.2186 -0.2746
  151MOL0     N20301   5.525   0.282   0.522  0.0572  0.8868 -0.1621
  151MOL0     C20302   4.802   0.311   1.349 -0.1246  0.7398  0.1620
  151MOL0     C20303   4.672   0.324   1.397  0.0555 -0.3944  0.2790
  151MOL0     C20304   4.293   0.357   1.622 -0.2490  0.7908 -0.3792
  151MOL0     C20305   4.204   0.324   1.520  0.4483 -0.1014 -0.5191
  151MOL0     C20306   4.071   0.343   1.544 -0.6069  0.0463 -0.1011
  151MOL0     C20307   4.015   0.383   1.668  0.3143 -0.0142  1.1829
  151MOL0     O20308   3.880   0.376   1.692  0.6876 -0.0164 -0.6108
  151MOL0     C20309   3.790   0.401   1.588 -0.2397  0.3862  0.7894
  151MOL0     C20310   3.653   0.392   1.650  0.4610  0.1706 -0.4889
  151MOL0     C20311   3.636   0.500   1.762 -0.3627 -0.1661  0.3890
  151MOL0     C20312   3.495   0.536   1.795 -0.4746 -0.0289  0.2276
  151MOL0     C20313   3.398   0.431   1.776  0.2356 -0.1593  1.4651
  151MOL0     C20314   3.315   0.349   1.749  0.0315 -0.1147  0.3362
  151MOL0     C20315   4.106   0.413   1.775  0.2303  1.0899 -0.2351
  151MOL0     C20316   4.245   0.400   1.747  0.7568  0.1169  0.0012
  151MOL0     C20317   4.338   0.449   1.853 -0.3472 -1.0555  0.2173
  151MOL0     H20318   4.616   0.012   1.507 -1.0119 -0.9888 -2.9319
  151MOL0     H20319   4.853  -0.008   1.439 -0.8617 -0.0268 -0.3343
  151MOL0     H20320   5.002  -0.004   1.249 -1.5238  1.0297  0.7069
  151MOL0     H20321   4.975   0.121   1.135  2.1285  0.1212 -0.3913
  151MOL0     H20322   5.230   0.040   1.264 -3.1319 -0.6052  1.4967
  151MOL0     H20323   5.215   0.210   1.221 -1.0982  1.2875 -1.2760
  151MOL0     H20324   5.153   0.160   0.992 -0.7529  0.8917  0.7796
  151MOL0     H20325   5.138  -0.018   1.038  0.5190  0.0523  3.3861
  151MOL0     H20326   5.405   0.120   1.057  0.6052  1.8341 -3.4500
  151MOL0     H20327   5.362  -0.050   1.037  0.5535 -1.0109 -2.7518
  151MOL0     H20328   5.290  -0.011   0.809 -0.1990  1.5403 -2.5104
  151MOL0     H20329   5.351   0.153   0.820  3.9267 -0.4974 -2.7743
  151MOL0     H20330   5.564   0.013   0.936 -0.2445  0.4607 -0.4469
  151MOL0     H20331   5.488  -0.106   0.831  2.2966 -1.6233  1.9816
  151MOL0     H20332   5.661  -0.022   0.723  0.0931  0.8831  1.1769
  151MOL0     H20333   5.637   0.149   0.720 -0.1711  1.3816 -2.1705
  151MOL0     H20334   5.580   0.014   0.515  0.1230  1.5717 -1.6566
  151MOL0     H20335   5.429  -0.041   0.590 -1.9142  0.7707  2.3477
  151MOL0     H20336   5.239   0.146   0.610  2.4000 -0.7391  2.4840
  151MOL0     H20337   5.214   0.519   0.478 -1.3746  0.5112  0.5658
  151MOL0     H20338   5.119   0.391   0.431  0.0510 -1.7548 -0.1825
  151MOL0     H20339   5.011   0.473   0.620 -1.1513 -2.6191 -1.9161
  151MOL0     H20340   5.079   0.315   0.649  0.8545  0.2882  3.3444
  151MOL0     H20341   5.220   0.398   0.840 -0.3372 -0.1652  0.5611
  151MOL0     H20342   5.090   0.521   0.829 -0.9486  0.7536 -0.5485
  151MOL0     H20343   5.236   0.653   0.673 -1.2451 -1.2538 -1.0570
  151MOL0     H20344   5.362   0.527   0.684 -0.6743  0.6744 -1.7444
  151MOL0     H20345   5.507   0.418   0.825 -1.0582  0.8197 -1.1522
  151MOL0     H20346   5.756   0.441   0.819 -0.9844 -0.7755 -1.3272
  151MOL0     H20347   6.092   0.740   0.706 -0.6707 -1.9501  1.1622
  151MOL0     H20348   6.322   0.816   0.679 -0.1729 -0.3709 -0.3286
  151MOL0     H20349   6.447   1.156   0.741  4.0242  0.9603 -0.8422
  151MOL0     H20350   6.421   1.173   0.917 -0.2777 -0.1846  1.7478
  151MOL0     H20351   6.685   1.098   0.763  1.2424  0.2259  1.6722
  151MOL0     H20352   6.635   1.256   0.806  3.5071  0.2239 -0.6465
  151MOL0     H20353   6.633   1.169   1.048 -0.0199 -1.5469  0.0002
  151MOL0     H20354   6.698   1.012   0.998  0.4113 -0.8400 -3.1127
  151MOL0     H20355   6.844   1.280   0.966 -0.1396  0.0092  0.8329
  151MOL0     H20356   6.887   1.136   0.883  3.3425 -0.8893  2.9308
  151MOL0     H20357   6.988   1.063   1.093  2.2695  1.8141  5.9936
  151MOL0     H20358   6.834   1.087   1.167 -0.5951 -1.9798 -1.4082
  151MOL0     H20359   7.036   1.313   1.094  2.9305 -0.5249  1.3660
  151MOL0     H20360   6.896   1.320   1.211 -0.7250 -1.8083  1.7815
  151MOL0     H20361   7.147   1.142   1.234  1.7368  2.0302  0.3187
  151MOL0     H20362   7.013   1.146   1.349  1.0011  2.4585  1.9261
  151MOL0     H20363   7.247   1.350   1.292  1.0719 -0.7229  1.3854
  151MOL0     H20364   7.103   1.408   1.373 -1.5273 -0.3046  4.8946
  151MOL0     H20365   6.295   1.019   1.056 -1.5462  0.4725  0.5426
  151MOL0     H20366   6.065   0.932   1.088 -2.9061 -1.7061 -2.0781
  151MOL0     H20367   5.723   0.854   0.928  1.8734  0.2642 -0.7071
  151MOL0     H20368   5.469   0.833   0.903 -0.1598  1.4835 -2.3407
  151MOL0     H20369   4.855   0.396   1.308 -0.9224  0.3386 -1.8151
  151MOL0     H20370   4.623   0.420   1.388 -2.2957 -1.6353 -1.3486
  151MOL0     H20371   4.215   0.294   1.416 -1.8359 -0.3545 -0.7454
  151MOL0     H20372   4.004   0.314   1.464  2.0457 -1.0749 -2.1068
  151MOL0     H20373   3.802   0.318   1.517  0.5779  0.2188  1.1149
  151MOL0     H20374   3.815   0.501   1.552  2.4322 -0.8537 -1.1328
  151MOL0     H20375   3.633   0.296   1.697 -0.3925  0.7337  0.3400
  151MOL0     H20376   3.574   0.408   1.576 -0.5959 -0.7477  0.4043
  151MOL0     H20377   3.694   0.589   1.734  0.4358 -0.4615  1.0616
  151MOL0     H20378   3.677   0.470   1.858 -4.0856 -1.6632  1.6838
  151MOL0     H20379   3.493   0.564   1.901  0.2212  1.8496 -0.2118
  151MOL0     H20380   3.477   0.624   1.732  1.7332 -1.4157 -2.5547
  151MOL0     H20381   3.251   0.271   1.713 -1.0309  0.4406  0.9895
  151MOL0     H20382   4.069   0.443   1.872  0.4267 -1.1080  0.5756
  151MOL0     H20383   4.281   0.470   1.944 -1.1201  0.9866 -0.6887
  151MOL0     H20384   4.412   0.373   1.882  0.4755  0.2741  1.7530
  151MOL0     H20385   4.397   0.539   1.836  0.0016 -0.2353  4.5169
  152MOL0     O20386   9.896  10.375   6.192  0.0237  0.1524 -0.0552
  152MOL0     C20387   9.938  10.452   6.106  0.0710 -0.5546 -0.2931
  152MOL0     O20388   9.870  10.503   6.001  0.0955  0.6140 -0.5897
  152MOL0     C20389   9.741  10.453   5.987  0.4318 -0.1145 -0.2417
  152MOL0     C20390   9.713  10.336   5.934  0.0288  1.1017 -0.4170
  152MOL0     C20391   9.585  10.280   5.925 -0.6760 -0.7630  0.5003
  152MOL0     C20392   9.480  10.356   5.973  0.3569  0.2871  0.6073
  152MOL0     O20393   9.349  10.313   5.968  0.6662  0.1937 -0.3555
  152MOL0     C20394   9.244  10.416   5.943  0.5336  0.4749  0.2659
  152MOL0     C20395   9.262  10.508   5.820 -0.5827 -0.1118 -0.4299
  152MOL0     C20396   9.128  10.578   5.777 -0.1194 -0.4120 -0.5241
  152MOL0     C20397   9.050  10.465   5.703  0.3554 -0.2646 -0.3983
  152MOL0     C20398   8.906  10.511   5.678  1.0939  0.6704 -0.2538
  152MOL0     C20399   8.829  10.528   5.813  0.1148  0.2847  0.4640
  152MOL0     C20400   8.801  10.394   5.886  0.0472 -0.3166 -0.0330
  152MOL0     C20401   8.691  10.399   5.983  0.1721 -1.3718  0.0870
  152MOL0     N20402   8.562  10.425   5.915  0.5115  0.3429  0.5900
  152MOL0     C20403   8.483  10.534   5.928  0.0210 -0.1650 -0.1892
  152MOL0     C20404   8.370  10.502   5.857 -0.3870  0.7900 -0.5063
  152MOL0     C20405   8.252  10.590   5.861  0.3936 -0.0735 -0.4944
  152MOL0     C20406   8.285  10.731   5.809  0.2419  0.6042  0.1303
  152MOL0     C20407   8.227  10.839   5.899 -0.0596 -0.1004 -1.2605
  152MOL0     C20408   8.337  10.923   5.969 -0.1726  0.1915  0.4120
  152MOL0     O20409   8.401  11.000   5.870  0.4735 -0.3537 -0.1257
  152MOL0     C20410   8.533  11.024   5.895  0.0397  0.3719 -0.2717
  152MOL0     C20411   8.630  10.923   5.909 -0.0157  0.5701 -1.1938
  152MOL0     C20412   8.768  10.958   5.934  0.4943 -0.0929 -0.0542
  152MOL0     C20413   8.813  11.088   5.906 -0.5675  0.0999 -0.1768
  152MOL0     C20414   8.956  11.117   5.892 -0.8430 -0.2272 -0.5932
  152MOL0     O20415   8.991  11.247   5.921  0.1821  0.2800 -0.2415
  152MOL0     C20416   9.108  11.298   5.890 -0.5937  0.1794 -0.5743
  152MOL0     C20417   9.108  11.398   5.789  0.4741 -0.1002 -0.4029
  152MOL0     C20418   9.237  11.438   5.745 -0.7760  0.5793 -0.0595
  152MOL0     C20419   9.353  11.395   5.804 -0.7373 -0.7793 -0.2974
  152MOL0     O20420   9.466  11.438   5.745  0.4389 -0.0993 -0.0009
  152MOL0     C20421   9.531  11.337   5.670  0.3309 -1.1774  0.1293
  152MOL0     C20422   9.668  11.379   5.627 -0.1932 -0.2445  0.5308
  152MOL0     C20423   9.769  11.398   5.742 -0.8561 -0.8692 -0.0195
  152MOL0     C20424   9.913  11.416   5.675 -0.1994  0.3013 -0.0269
  152MOL0     C20425  10.015  11.432   5.780 -0.5714  0.1288 -0.0386
  152MOL0     C20426  10.161  11.459   5.735 -0.1959 -0.3889 -0.1441
  152MOL0     C20427  10.224  11.332   5.697  1.3486 -0.4331 -0.2115
  152MOL0     C20428  10.378  11.353   5.686  0.1898 -0.2133  0.0769
  152MOL0    Cl20429  10.458  11.202   5.656  0.3463 -0.3794  0.1123
  152MOL0     C20430   9.348  11.311   5.921 -0.4110  0.5559  0.1094
  152MOL0     C20431   9.229  11.262   5.958 -0.7052  0.1654  0.1108
  152MOL0     O20432   9.043  11.031   5.865 -0.3260  0.0557 -0.9426
  152MOL0     C20433   8.710  11.189   5.890 -0.2252  0.1153 -1.0616
  152MOL0     C20434   8.574  11.155   5.881  0.9180  0.3965  0.4492
  152MOL0     N20435   8.384  10.372   5.807  0.0227  0.2930 -0.7303
  152MOL0     N20436   8.497  10.328   5.848  0.1277  0.3015  0.7468
  152MOL0     C20437   9.509  10.482   6.020 -0.5088 -1.2946 -0.1651
  152MOL0     C20438   9.640  10.531   6.033  0.8125  1.0647  0.1210
  152MOL0     C20439  10.086  10.489   6.114  0.7147  0.1943  0.1044
  152MOL0     C20440  10.145  10.526   5.994 -0.1108 -0.0510  0.0812
  152MOL0     C20441  10.267  10.586   5.989  0.2715 -0.2853 -0.6228
  152MOL0     C20442  10.343  10.601   6.104 -0.3421 -0.4450  0.2448
  152MOL0     O20443  10.468  10.673   6.092  0.6784  0.1470  0.1855
  152MOL0     C20444  10.554  10.683   6.213 -0.2609  0.0936 -0.4526
  152MOL0     C20445  10.502  10.802   6.297 -0.1441 -0.1312  0.5747
  152MOL0     C20446  10.615  10.853   6.385  0.2635 -0.0086 -1.0521
  152MOL0     C20447  10.612  10.772   6.522  0.4983 -0.1459  0.3630
  152MOL0     C20448  10.747  10.772   6.562 -0.6568 -0.3576  0.9204
  152MOL0     C20449  10.859  10.753   6.600 -0.7624 -0.1961 -0.6472
  152MOL0     C20450  10.288  10.555   6.223 -0.3914 -0.5992  0.8048
  152MOL0     C20451  10.157  10.501   6.227 -0.1152 -0.0657 -0.2145
  152MOL0     C20452  10.103  10.473   6.363 -0.4705 -0.3660 -0.3727
  152MOL0     H20453   9.791  10.275   5.889 -0.9581 -0.4059 -0.1454
  152MOL0     H20454   9.573  10.181   5.882  1.2105 -0.0020 -2.0161
  152MOL0     H20455   9.149  10.362   5.941  2.5418 -3.4507  0.9156
  152MOL0     H20456   9.236  10.473   6.036 -3.0791  1.0278 -0.2362
  152MOL0     H20457   9.303  10.456   5.734 -1.6511  0.7526 -1.4918
  152MOL0     H20458   9.341  10.583   5.830  0.7058 -1.2676 -1.6019
  152MOL0     H20459   9.138  10.664   5.710  0.4032  1.0691  1.3478
  152MOL0     H20460   9.084  10.614   5.871  3.1044  0.1868  0.9235
  152MOL0     H20461   9.098  10.470   5.605  0.3112 -0.0618 -0.4101
  152MOL0     H20462   9.059  10.367   5.752  1.6896 -0.3694 -0.8190
  152MOL0     H20463   8.901  10.603   5.620  0.3912  0.9627  0.2474
  152MOL0     H20464   8.851  10.438   5.617 -1.1133 -0.1396  2.4706
  152MOL0     H20465   8.884  10.588   5.887  1.8424  0.1587 -0.6594
  152MOL0     H20466   8.732  10.568   5.784 -0.3534  0.2885  1.9758
  152MOL0     H20467   8.897  10.358   5.924  1.0870  0.6687 -1.5986
  152MOL0     H20468   8.764  10.320   5.815  0.7423 -0.5381 -0.1776
  152MOL0     H20469   8.687  10.302   6.033 -2.9405 -1.7944 -0.7787
  152MOL0     H20470   8.701  10.475   6.062  0.7570  0.8216 -1.9886
  152MOL0     H20471   8.504  10.619   5.993  0.8162 -0.7914  0.3890
  152MOL0     H20472   8.163  10.550   5.810 -0.9027  1.8414  0.1642
  152MOL0     H20473   8.238  10.603   5.968  1.9255 -2.5161  0.0777
  152MOL0     H20474   8.394  10.745   5.810  0.4323 -0.5786  3.0217
  152MOL0     H20475   8.241  10.731   5.709 -1.3787 -0.8756  0.7917
  152MOL0     H20476   8.158  10.792   5.970 -2.2126  0.8147 -2.6360
  152MOL0     H20477   8.170  10.912   5.841 -1.8959  1.2071  1.9252
  152MOL0     H20478   8.401  10.860   6.031  0.5085  0.6036  0.1373
  152MOL0     H20479   8.286  10.990   6.039 -3.8149 -0.5711 -1.2681
  152MOL0     H20480   8.591  10.822   5.920 -0.0367  0.8652  3.2669
  152MOL0     H20481   8.838  10.875   5.935  2.4283  1.4325 -0.9218
  152MOL0     H20482   9.026  11.442   5.734 -0.2100 -0.1483  0.5365
  152MOL0     H20483   9.238  11.510   5.664 -0.2644  0.4267 -0.1926
  152MOL0     H20484   9.532  11.245   5.729 -0.0841 -0.4205  1.3458
  152MOL0     H20485   9.473  11.304   5.583  0.1185  0.3710 -0.3347
  152MOL0     H20486   9.704  11.320   5.542 -3.1446  1.0170 -1.7864
  152MOL0     H20487   9.654  11.476   5.580  1.7545 -1.3036 -2.5382
  152MOL0     H20488   9.753  11.487   5.804 -1.9673 -0.9372 -0.1828
  152MOL0     H20489   9.784  11.314   5.809  0.6701 -2.0074 -1.7018
  152MOL0     H20490   9.918  11.499   5.604 -0.5784  0.4357  0.1027
  152MOL0     H20491   9.931  11.322   5.622 -0.8195  0.4990 -0.5993
  152MOL0     H20492  10.016  11.342   5.842  3.1245 -0.9352 -1.4166
  152MOL0     H20493   9.982  11.514   5.845 -3.5842 -0.5887 -0.5012
  152MOL0     H20494  10.145  11.524   5.649  1.3091 -0.0921 -0.2182
  152MOL0     H20495  10.221  11.498   5.818  0.1706  2.1274 -1.5220
  152MOL0     H20496  10.182  11.287   5.607  2.4215 -0.3859 -0.7558
  152MOL0     H20497  10.218  11.253   5.774  0.8960  1.9825  2.3953
  152MOL0     H20498  10.398  11.417   5.600  1.9586  0.3858  0.8803
  152MOL0     H20499  10.433  11.408   5.763 -0.1802  2.4480 -1.4295
  152MOL0     H20500   9.438  11.267   5.964 -1.2182 -0.7052  0.5588
  152MOL0     H20501   9.231  11.187   6.037  3.3978 -0.8578 -0.7243
  152MOL0     H20502   8.739  11.291   5.869  2.2570 -0.5334 -1.0386
  152MOL0     H20503   8.497  11.231   5.875 -0.7781 -1.1112  1.9097
  152MOL0     H20504   9.422  10.540   6.051 -0.9207 -1.7983 -0.3770
  152MOL0     H20505   9.653  10.629   6.079 -0.1297  1.1370  0.2601
  152MOL0     H20506  10.102  10.503   5.897 -1.6810 -0.6211  0.8775
  152MOL0     H20507  10.312  10.619   5.896 -1.5472  1.5240 -0.9311
  152MOL0     H20508  10.656  10.703   6.179  0.4307  0.1222  1.5141
  152MOL0     H20509  10.549  10.593   6.274 -0.2450 -0.6782 -1.5775
  152MOL0     H20510  10.416  10.761   6.351  0.2195 -0.2665  1.0591
  152MOL0     H20511  10.474  10.879   6.225  0.6554 -1.2551 -1.0017
  152MOL0     H20512  10.590  10.957   6.409  3.4069 -0.1451  4.2236
  152MOL0     H20513  10.712  10.856   6.335  0.3437  4.1025 -1.0117
  152MOL0     H20514  10.548  10.813   6.600 -0.3420  0.4762 -0.6310
  152MOL0     H20515  10.592  10.669   6.491  0.2056  1.1814 -4.8739
  152MOL0     H20516  10.966  10.745   6.608 -0.3878  1.6698 -2.7931
  152MOL0     H20517  10.349  10.561   6.313 -0.8064  0.1696  1.0426
  152MOL0     H20518  10.018  10.539   6.385  0.3318  1.7156 -2.8823
  152MOL0     H20519  10.075  10.367   6.359 -2.1316 -0.2020  3.2149
  152MOL0     H20520  10.183  10.483   6.437 -2.4202  1.4245  1.6296
  153MOL0     O20521   8.959  10.364   0.580 -0.5637  0.4845 -0.3747
  153MOL0     C20522   8.981  10.412   0.470 -0.4798 -0.6911 -0.0703
  153MOL0     O20523   9.082  10.500   0.442  0.0334 -0.4016  0.3652
  153MOL0     C20524   9.184  10.540   0.524  0.2734  0.5144 -0.8139
  153MOL0     C20525   9.301  10.571   0.462  0.3244  0.7177 -0.6857
  153MOL0     C20526   9.403  10.619   0.541  0.6828 -0.0856  0.1912
  153MOL0     C20527   9.400  10.626   0.682 -0.0136  0.0120  0.5198
  153MOL0     O20528   9.519  10.651   0.743 -0.5107  0.3547 -0.3500
  153MOL0     C20529   9.537  10.598   0.876 -0.5689  0.0807 -0.0193
  153MOL0     C20530   9.688  10.573   0.900  0.5892 -0.7399 -1.1974
  153MOL0     C20531   9.779  10.702   0.873 -0.4058  0.8000 -0.6373
  153MOL0     C20532   9.918  10.659   0.918  1.1632 -0.7454 -0.0118
  153MOL0     C20533  10.019  10.769   0.885  0.0734 -0.1214  0.7680
  153MOL0     C20534  10.165  10.715   0.894  0.5864  0.6062 -0.2511
  153MOL0     C20535  10.269  10.823   0.920 -0.5126 -0.8241 -0.1077
  153MOL0     C20536  10.296  10.921   0.795  0.6565 -0.2273 -0.6842
  153MOL0     N20537  10.421  10.994   0.832 -0.9763  0.9092 -0.3107
  153MOL0     C20538  10.549  10.941   0.837  0.7749  0.8602 -0.0796
  153MOL0     C20539  10.621  11.045   0.877 -0.3839  0.9435  0.7113
  153MOL0     C20540  10.770  11.072   0.876 -0.2344 -0.1411  0.5349
  153MOL0     C20541  10.840  10.992   0.765  0.2407  0.4197  0.4886
  153MOL0     C20542  10.851  11.052   0.621 -0.4087 -0.0756  0.4652
  153MOL0     C20543  10.945  11.171   0.620  0.1830  0.6263  0.0279
  153MOL0     O20544  11.050  11.143   0.531  0.0275 -0.6672  0.0498
  153MOL0     C20545  11.141  11.246   0.497 -1.3622 -0.2227 -0.7570
  153MOL0     C20546  11.240  11.208   0.411  0.6240 -0.4289 -0.2952
  153MOL0     C20547  11.346  11.293   0.373  0.2590  0.3947 -0.7072
  153MOL0     C20548  11.356  11.425   0.426  0.3767  0.9368  0.0935
  153MOL0     C20549  11.480  11.510   0.414  0.8291 -0.9052 -0.5674
  153MOL0     O20550  11.592  11.445   0.374 -0.0226  0.3463  1.1160
  153MOL0     C20551  11.710  11.516   0.393  0.7609 -0.2960  0.3066
  153MOL0     C20552  11.752  11.547   0.522 -0.5111 -0.6908  0.3699
  153MOL0     C20553  11.873  11.610   0.543  0.4176 -0.6978  0.6498
  153MOL0     C20554  11.957  11.639   0.436  0.2971 -0.6468 -0.9323
  153MOL0     O20555  12.081  11.677   0.462 -0.7470  0.5410 -0.7583
  153MOL0     C20556  12.189  11.588   0.420  0.3250 -0.4427 -0.3881
  153MOL0     C20557  12.294  11.671   0.347  0.2488 -0.4506  0.0842
  153MOL0     C20558  12.357  11.792   0.421 -0.1173 -0.2048  0.3049
  153MOL0     C20559  12.432  11.748   0.544  0.4932 -1.1131 -0.3925
  153MOL0     C20560  12.481  11.877   0.616  0.3297 -0.5652 -0.1470
  153MOL0     C20561  12.546  11.859   0.753 -0.2956  0.2357  0.1156
  153MOL0     C20562  12.639  11.730   0.762 -0.0031  0.0522 -0.0477
  153MOL0     C20563  12.706  11.732   0.896 -0.3786 -0.3238 -0.3653
  153MOL0    Cl20564  12.599  11.730   1.044 -0.0926 -0.2230 -0.3233
  153MOL0     C20565  11.913  11.601   0.307  0.9162 -0.5927 -0.2771
  153MOL0     C20566  11.786  11.548   0.280  0.4334 -0.1482  0.2564
  153MOL0     O20567  11.472  11.624   0.453  0.5709  0.0226  0.1022
  153MOL0     C20568  11.246  11.470   0.507  0.1296  0.2075 -0.0198
  153MOL0     C20569  11.144  11.382   0.536  1.2109 -0.0385 -0.6577
  153MOL0     N20570  10.539  11.145   0.923  0.5462 -0.5275 -0.2447
  153MOL0     N20571  10.416  11.112   0.889  0.0855  0.3477 -0.0277
  153MOL0     C20572   9.272  10.595   0.742 -1.1105  0.1297 -0.3210
  153MOL0     C20573   9.170  10.551   0.665  0.1681 -0.7522  1.3475
  153MOL0     C20574   8.871  10.401   0.372  0.1025  0.4801  0.3327
  153MOL0     C20575   8.861  10.499   0.266 -1.1805 -0.1604  0.7465
  153MOL0     C20576   8.764  10.488   0.175  0.2810 -0.3590  0.0431
  153MOL0     C20577   8.680  10.376   0.164  0.3745  0.2197 -1.0495
  153MOL0     O20578   8.587  10.375   0.061  0.3291  0.3124 -0.4301
  153MOL0     C20579   8.617  10.277  -0.044 -0.6574 -0.5386  0.5574
  153MOL0     C20580   8.542  10.151  -0.022  0.6304 -0.7243 -0.3562
  153MOL0     C20581   8.387  10.164   0.019 -0.1058  0.8955  0.9351
  153MOL0     C20582   8.297  10.059  -0.034 -0.0068 -0.0943 -0.0563
  153MOL0     C20583   8.167  10.072   0.034 -0.6209 -0.0744 -0.6415
  153MOL0     C20584   8.068  10.104   0.093  0.2556  0.7912 -0.0673
  153MOL0     C20585   8.678  10.284   0.266 -1.1421  0.5928 -0.0365
  153MOL0     C20586   8.774  10.290   0.373 -1.2508 -0.5948  0.4680
  153MOL0     C20587   8.783  10.181   0.471 -0.2320 -0.2065 -0.2841
  153MOL0     H20588   9.302  10.558   0.354 -1.6655 -2.1544 -0.4542
  153MOL0     H20589   9.498  10.643   0.495  2.6777 -4.0413  1.7260
  153MOL0     H20590   9.480  10.665   0.942 -1.2922 -0.3304 -0.2077
  153MOL0     H20591   9.479  10.505   0.880  0.5353 -0.7805 -2.3739
  153MOL0     H20592   9.725  10.495   0.833  2.0076  1.1108 -2.6979
  153MOL0     H20593   9.704  10.531   1.000  0.6539  1.3909 -0.2630
  153MOL0     H20594   9.745  10.786   0.934  0.9905 -0.8035  2.5989
  153MOL0     H20595   9.782  10.717   0.764  1.7341 -0.2119 -0.7778
  153MOL0     H20596   9.915  10.637   1.026 -1.3137 -1.4686 -0.1863
  153MOL0     H20597   9.949  10.566   0.869  2.7110 -0.3774  0.2142
  153MOL0     H20598   9.996  10.818   0.790 -0.1553 -2.1330 -0.2695
  153MOL0     H20599  10.000  10.850   0.956  1.2132  0.3805  0.5340
  153MOL0     H20600  10.174  10.647   0.979  2.8474  1.3650  0.1822
  153MOL0     H20601  10.177  10.673   0.793  2.0009  0.7045 -0.1417
  153MOL0     H20602  10.360  10.765   0.937 -0.8995 -1.5782 -0.5602
  153MOL0     H20603  10.241  10.880   1.009 -3.1046 -3.1219  0.7001
  153MOL0     H20604  10.310  10.859   0.706 -0.3258 -2.2839  0.5298
  153MOL0     H20605  10.207  10.981   0.771 -0.8248 -2.6740 -1.6557
  153MOL0     H20606  10.576  10.849   0.786 -0.5579  0.3219  0.1417
  153MOL0     H20607  10.791  11.180   0.873 -0.9270 -0.0249 -0.6145
  153MOL0     H20608  10.808  11.037   0.973 -0.2729 -0.8073  0.3106
  153MOL0     H20609  10.945  10.972   0.788  0.3817 -0.7446 -1.0571
  153MOL0     H20610  10.790  10.895   0.764 -0.1032  0.5522  1.8162
  153MOL0     H20611  10.756  11.091   0.583  1.5602  5.2209  0.1066
  153MOL0     H20612  10.888  10.972   0.556  1.1555  1.9875 -1.3127
  153MOL0     H20613  10.977  11.186   0.724 -0.1808  2.4649 -0.0927
  153MOL0     H20614  10.892  11.257   0.577  1.1699  0.4047 -1.7414
  153MOL0     H20615  11.235  11.102   0.386 -2.0993 -0.9928  2.0779
  153MOL0     H20616  11.426  11.240   0.322 -0.8547 -5.6389  2.7926
  153MOL0     H20617  11.682  11.530   0.603 -1.3115 -0.9384 -0.3596
  153MOL0     H20618  11.914  11.625   0.642 -0.2070  0.6924  0.7157
  153MOL0     H20619  12.237  11.532   0.500 -0.8584 -2.5186 -1.0434
  153MOL0     H20620  12.148  11.501   0.367 -0.6153 -0.9705  1.1451
  153MOL0     H20621  12.380  11.606   0.327  2.1501  1.9926 -0.2808
  153MOL0     H20622  12.256  11.715   0.254  0.0004 -0.9686 -0.0599
  153MOL0     H20623  12.421  11.857   0.360 -0.0132  1.3656  2.0015
  153MOL0     H20624  12.278  11.863   0.446 -0.2091  0.2737 -1.1902
  153MOL0     H20625  12.517  11.685   0.516  0.8173 -0.9106  0.1349
  153MOL0     H20626  12.370  11.690   0.613  0.9312 -1.1876 -0.0581
  153MOL0     H20627  12.394  11.943   0.624  0.8660  0.3045 -1.1774
  153MOL0     H20628  12.545  11.932   0.546 -2.0471 -1.6418 -3.3567
  153MOL0     H20629  12.603  11.951   0.769 -0.7975  0.4044  1.0090
  153MOL0     H20630  12.473  11.841   0.833 -0.3074 -2.7209 -0.4313
  153MOL0     H20631  12.695  11.722   0.668 -1.1351  0.8363 -0.8221
  153MOL0     H20632  12.557  11.658   0.762 -3.5835  3.7643  0.8165
  153MOL0     H20633  12.758  11.636   0.900  0.7456  0.2174 -1.2494
  153MOL0     H20634  12.784  11.808   0.905  0.4577 -0.8027 -2.8879
  153MOL0     H20635  11.981  11.619   0.225  1.6605  0.4036  0.5315
  153MOL0     H20636  11.758  11.530   0.177 -0.9380  2.4649  0.0818
  153MOL0     H20637  11.242  11.574   0.537  0.7646  0.0033  0.8008
  153MOL0     H20638  11.068  11.430   0.598 -0.1983 -2.1006 -0.6794
  153MOL0     H20639   9.265  10.611   0.850  3.1407  2.1136 -0.1299
  153MOL0     H20640   9.082  10.514   0.717  0.1797 -0.3018  1.6982
  153MOL0     H20641   8.930  10.583   0.260  0.3805 -1.3781  1.2972
  153MOL0     H20642   8.762  10.564   0.096  0.1145  1.0221  1.3346
  153MOL0     H20643   8.722  10.247  -0.044 -0.5643 -0.3680 -1.4599
  153MOL0     H20644   8.599  10.315  -0.145  0.0522  1.6282  1.2058
  153MOL0     H20645   8.588  10.076   0.044 -2.2086 -1.1229  1.3526
  153MOL0     H20646   8.536  10.104  -0.121 -1.9495 -0.9198 -0.1742
  153MOL0     H20647   8.341  10.256  -0.018 -0.7125  0.4915  0.6734
  153MOL0     H20648   8.382  10.166   0.128 -0.0116  0.7549  0.9423
  153MOL0     H20649   8.301  10.068  -0.143 -0.4695 -2.0730 -0.2848
  153MOL0     H20650   8.343   9.962  -0.013  1.4635  0.8502  1.2844
  153MOL0     H20651   7.989  10.152   0.147  1.9072  0.1459  3.1776
  153MOL0     H20652   8.599  10.210   0.254 -0.9417 -0.4555  3.7973
  153MOL0     H20653   8.699  10.111   0.462  0.1118 -0.4890 -1.4928
  153MOL0     H20654   8.879  10.128   0.465  0.2504  0.1564  2.6542
  153MOL0     H20655   8.774  10.223   0.572  0.4302  0.8006 -0.6326
  154MOL0     O20656   1.480   4.370   7.057  0.1025 -0.0908  0.4453
  154MOL0     C20657   1.379   4.430   7.040  0.4546 -0.2274  1.1050
  154MOL0     O20658   1.336   4.548   7.099 -0.0515 -0.4936  0.1881
  154MOL0     C20659   1.410   4.596   7.204 -0.0426 -0.7448 -0.0698
  154MOL0     C20660   1.472   4.526   7.300 -0.3459  0.4542 -0.7855
  154MOL0     C20661   1.546   4.582   7.412  0.5593 -0.2447  0.6643
  154MOL0     C20662   1.558   4.716   7.417  0.5381 -0.6810  0.1967
  154MOL0     O20663   1.631   4.778   7.522  0.1610 -0.4420  0.3219
  154MOL0     C20664   1.777   4.774   7.514  0.1664  0.0269 -0.1605
  154MOL0     C20665   1.823   4.899   7.585 -0.4063 -0.3282 -1.0605
  154MOL0     C20666   1.969   4.943   7.580  0.6894 -0.7600  0.0236
  154MOL0     C20667   2.051   4.842   7.640  0.0923 -0.3070 -0.4635
  154MOL0     C20668   2.202   4.886   7.649  0.6950 -0.2040  0.0847
  154MOL0     C20669   2.257   4.886   7.507  0.2178 -0.1106 -0.2322
  154MOL0     C20670   2.409   4.894   7.500  0.5419  0.0787  0.0492
  154MOL0     C20671   2.464   4.754   7.479  0.2005  0.2126  0.4544
  154MOL0     N20672   2.612   4.756   7.501  0.6978  1.1123  0.6071
  154MOL0     C20673   2.699   4.816   7.425  0.4331 -0.5596 -0.7062
  154MOL0     C20674   2.817   4.774   7.473 -0.5696  0.1875  0.8802
  154MOL0     C20675   2.952   4.821   7.419 -0.7101  0.1283  0.4590
  154MOL0     C20676   3.046   4.697   7.411  0.2292  0.1065 -0.2146
  154MOL0     C20677   3.174   4.736   7.337  0.0656 -0.5613 -0.0667
  154MOL0     C20678   3.283   4.648   7.399 -0.6053  0.4942 -0.6763
  154MOL0     O20679   3.405   4.674   7.321 -0.0455 -0.4804  0.2002
  154MOL0     C20680   3.524   4.620   7.346 -0.5455  0.7262 -0.0086
  154MOL0     C20681   3.547   4.526   7.450  0.7464  0.1375  0.1033
  154MOL0     C20682   3.663   4.456   7.465 -0.4526  0.9236  0.2278
  154MOL0     C20683   3.771   4.480   7.375 -0.4880  0.0728  0.9760
  154MOL0     C20684   3.897   4.406   7.372  0.8236  0.2860 -0.7928
  154MOL0     O20685   3.966   4.401   7.256  0.1361 -0.0480 -0.4337
  154MOL0     C20686   4.088   4.348   7.254 -0.1066 -0.0153  0.6414
  154MOL0     C20687   4.188   4.353   7.350  0.6707  0.3114 -0.1714
  154MOL0     C20688   4.317   4.309   7.327 -0.4574 -0.2446 -0.1758
  154MOL0     C20689   4.361   4.268   7.200  0.6794  0.5281  0.1068
  154MOL0     O20690   4.494   4.242   7.164 -0.3587 -0.1114  0.0461
  154MOL0     C20691   4.566   4.142   7.249  1.8115 -0.3393 -0.1160
  154MOL0     C20692   4.672   4.062   7.171 -0.0022  0.2781 -0.4298
  154MOL0     C20693   4.628   4.047   7.023  0.3801 -0.4187  0.9657
  154MOL0     C20694   4.727   3.962   6.953 -0.3546  0.6483  0.0015
  154MOL0     C20695   4.683   3.960   6.813 -0.2039 -0.0936  0.2164
  154MOL0     C20696   4.794   3.884   6.741  0.4957 -0.5096  0.6997
  154MOL0     C20697   4.782   3.883   6.590 -0.0785  0.3449  1.0236
  154MOL0     C20698   4.688   3.773   6.530  0.5908 -0.0412 -0.2095
  154MOL0    Cl20699   4.529   3.808   6.568 -0.0214  0.4274  0.0584
  154MOL0     C20700   4.266   4.262   7.103  0.3060 -0.7087  0.2422
  154MOL0     C20701   4.131   4.295   7.124  0.0895 -0.3083  0.5590
  154MOL0     O20702   3.922   4.346   7.476 -0.2632 -0.3134  0.4514
  154MOL0     C20703   3.750   4.567   7.267  0.4610 -0.0882  0.2462
  154MOL0     C20704   3.633   4.633   7.252  0.9459 -0.2190  0.0706
  154MOL0     N20705   2.803   4.661   7.557  0.1808 -0.0433 -0.8149
  154MOL0     N20706   2.677   4.664   7.580 -0.1625  0.4513  0.7005
  154MOL0     C20707   1.492   4.796   7.322  0.9927  0.0264 -0.0611
  154MOL0     C20708   1.423   4.739   7.215  0.6029 -0.0314 -0.2568
  154MOL0     C20709   1.274   4.354   6.958 -0.9452  0.7280 -0.6463
  154MOL0     C20710   1.150   4.413   6.953  0.3892 -0.2448  0.4302
  154MOL0     C20711   1.059   4.377   6.855 -0.1008 -0.3519  0.1023
  154MOL0     C20712   1.086   4.265   6.776  0.1204 -0.5678  0.4238
  154MOL0     O20713   0.999   4.224   6.680 -0.2135  0.4093  0.6409
  154MOL0     C20714   0.878   4.304   6.659 -0.7023 -0.1152 -0.2994
  154MOL0     C20715   0.784   4.255   6.552  0.4495 -0.2090  1.0100
  154MOL0     C20716   0.850   4.201   6.426  0.1131  0.5797 -0.8210
  154MOL0     C20717   0.752   4.159   6.321 -0.0708  0.6321  0.9189
  154MOL0     C20718   0.822   4.108   6.211 -0.8162  0.1481 -0.7347
  154MOL0     C20719   0.883   4.060   6.118  1.4244 -0.2254 -0.2195
  154MOL0     C20720   1.208   4.200   6.789  0.4719  0.6442 -0.0530
  154MOL0     C20721   1.303   4.235   6.881  0.1983 -0.8844 -0.3170
  154MOL0     C20722   1.432   4.161   6.879 -0.6943  0.5358 -0.7818
  154MOL0     H20723   1.467   4.417   7.296 -1.1247  0.3842  1.1590
  154MOL0     H20724   1.589   4.512   7.482 -1.5487 -0.4834  1.8270
  154MOL0     H20725   1.816   4.687   7.568 -2.6841 -1.6581 -0.6038
  154MOL0     H20726   1.807   4.786   7.410  3.6509  2.2268  0.9514
  154MOL0     H20727   1.789   4.904   7.689  0.7942  2.3044 -0.7170
  154MOL0     H20728   1.760   4.980   7.547 -0.4371 -1.5723 -3.8656
  154MOL0     H20729   1.977   5.031   7.644 -3.7945 -0.6934  0.8194
  154MOL0     H20730   1.994   4.956   7.474  1.4556  0.3510  0.3218
  154MOL0     H20731   2.007   4.803   7.733  2.6586 -3.1183 -0.2726
  154MOL0     H20732   2.047   4.755   7.573  1.5463  0.6812 -1.9233
  154MOL0     H20733   2.218   4.979   7.703  1.8025  0.1088 -0.7553
  154MOL0     H20734   2.260   4.817   7.710  1.3697  1.1761  1.0426
  154MOL0     H20735   2.226   4.798   7.449  2.4691 -0.4168 -1.0846
  154MOL0     H20736   2.206   4.963   7.449  0.2919 -0.8177 -1.2738
  154MOL0     H20737   2.446   4.932   7.595 -0.3659  0.7231  0.1510
  154MOL0     H20738   2.448   4.960   7.423  3.2857 -1.0789  0.3167
  154MOL0     H20739   2.424   4.688   7.556 -0.7868  2.7538  2.2402
  154MOL0     H20740   2.449   4.715   7.378  2.7729 -1.9948  0.7933
  154MOL0     H20741   2.677   4.890   7.349  2.3478  1.0560  0.2251
  154MOL0     H20742   2.945   4.861   7.317 -0.5859 -3.0425 -0.9243
  154MOL0     H20743   2.994   4.898   7.484  2.9593 -1.0661 -0.2668
  154MOL0     H20744   3.073   4.667   7.512  1.1268 -1.0774 -0.7790
  154MOL0     H20745   3.003   4.615   7.352 -1.4938  0.4996  0.4223
  154MOL0     H20746   3.188   4.844   7.349 -0.6520 -0.7196  3.3646
  154MOL0     H20747   3.172   4.717   7.229  1.4418 -2.6472  0.2280
  154MOL0     H20748   3.265   4.541   7.390  2.4993 -0.0375 -1.7379
  154MOL0     H20749   3.302   4.671   7.504  1.3560  3.9949 -1.6213
  154MOL0     H20750   3.479   4.508   7.532 -1.2466  0.6065 -1.3846
  154MOL0     H20751   3.665   4.381   7.543 -4.8814 -1.0508 -1.2162
  154MOL0     H20752   4.160   4.392   7.448  0.4795 -0.5137  0.1175
  154MOL0     H20753   4.393   4.311   7.405  1.1286 -0.6054 -1.6375
  154MOL0     H20754   4.613   4.193   7.334  1.7507  0.2562 -0.4410
  154MOL0     H20755   4.491   4.073   7.288 -0.7800  2.6372  0.5494
  154MOL0     H20756   4.773   4.105   7.179  0.7283 -1.5294  0.5436
  154MOL0     H20757   4.677   3.967   7.225  0.4794  0.2859 -0.4568
  154MOL0     H20758   4.531   4.001   7.003 -0.1148  0.6368  0.8787
  154MOL0     H20759   4.613   4.145   6.976  1.0336 -0.1198  1.3643
  154MOL0     H20760   4.715   3.865   7.004 -1.9886 -0.6867 -2.6744
  154MOL0     H20761   4.830   3.994   6.968 -0.6923  0.8472  2.2876
  154MOL0     H20762   4.654   4.052   6.763 -0.3858 -1.2616 -1.9409
  154MOL0     H20763   4.591   3.900   6.809 -2.4198  2.9343  1.9318
  154MOL0     H20764   4.892   3.931   6.745 -0.6583  2.2630 -0.8930
  154MOL0     H20765   4.800   3.781   6.779  1.5536 -1.5874 -2.1656
  154MOL0     H20766   4.878   3.888   6.538 -1.4974 -0.3013 -1.8781
  154MOL0     H20767   4.747   3.984   6.569  1.1451  0.6267  0.2079
  154MOL0     H20768   4.695   3.777   6.421 -1.9754 -0.4228 -0.4451
  154MOL0     H20769   4.722   3.673   6.560 -0.3872 -0.4033 -0.2710
  154MOL0     H20770   4.306   4.238   7.005  2.6912  1.7558  0.5007
  154MOL0     H20771   4.074   4.290   7.032  4.0735 -0.1422 -2.1296
  154MOL0     H20772   3.826   4.586   7.191 -1.7748  2.7126 -1.5059
  154MOL0     H20773   3.617   4.709   7.176 -2.5677 -0.8058  0.0802
  154MOL0     H20774   1.528   4.898   7.327  5.2659 -1.3093  1.2355
  154MOL0     H20775   1.371   4.798   7.140 -1.9798 -1.9168 -0.1056
  154MOL0     H20776   1.120   4.484   7.030 -0.3655 -1.6755  1.5087
  154MOL0     H20777   0.962   4.426   6.859 -0.2312 -0.2888 -2.4608
  154MOL0     H20778   0.910   4.405   6.630 -0.8454  0.2573  0.8173
  154MOL0     H20779   0.817   4.315   6.749 -0.2667  0.8345 -0.1083
  154MOL0     H20780   0.718   4.339   6.531  1.0351  0.7714  2.8969
  154MOL0     H20781   0.716   4.181   6.595  0.4203 -1.6953 -1.4016
  154MOL0     H20782   0.919   4.122   6.457 -0.7514  0.1574  0.0854
  154MOL0     H20783   0.910   4.289   6.400  2.0875 -0.7639 -1.0448
  154MOL0     H20784   0.688   4.076   6.354  0.8113 -0.5505 -0.2306
  154MOL0     H20785   0.685   4.242   6.298 -0.3907  0.7815  2.3031
  154MOL0     H20786   0.935   4.027   6.031  2.0200  3.8447 -1.6089
  154MOL0     H20787   1.229   4.112   6.728 -1.7567  0.2757 -0.3792
  154MOL0     H20788   1.513   4.227   6.848  0.1866  1.0781  2.3296
  154MOL0     H20789   1.458   4.136   6.982  2.5825  2.2637 -1.0843
  154MOL0     H20790   1.432   4.074   6.813 -0.7270  1.0098 -1.4196
  155MOL0     O20791   7.136   6.040   3.230 -0.0858 -0.2123 -0.3584
  155MOL0     C20792   7.041   6.006   3.305 -0.1663 -0.4342 -0.3609
  155MOL0     O20793   7.054   5.952   3.432  0.6086 -0.1637 -0.1020
  155MOL0     C20794   7.172   5.908   3.482 -0.8574 -0.9725 -0.4907
  155MOL0     C20795   7.166   5.884   3.619  0.1786  1.0814 -0.9132
  155MOL0     C20796   7.271   5.807   3.686  1.1627 -0.0760  0.7392
  155MOL0     C20797   7.390   5.781   3.619 -0.5045  0.2162  0.6221
  155MOL0     O20798   7.487   5.716   3.685 -0.0018  0.0860  0.9491
  155MOL0     C20799   7.597   5.652   3.621 -0.9779  0.2183 -0.1962
  155MOL0     C20800   7.706   5.635   3.726  0.3822  0.7252  0.2117
  155MOL0     C20801   7.794   5.771   3.740  0.6604 -0.2993  0.8205
  155MOL0     C20802   7.945   5.749   3.760  0.4637  0.1643 -0.1186
  155MOL0     C20803   8.019   5.885   3.775  0.7583 -0.1140  0.3964
  155MOL0     C20804   8.168   5.877   3.820 -0.7216 -0.2211 -0.1342
  155MOL0     C20805   8.247   5.813   3.707  0.1022 -0.0366 -1.0600
  155MOL0     C20806   8.399   5.820   3.741 -0.3453 -1.1968 -0.4256
  155MOL0     N20807   8.446   5.761   3.870  0.0293  0.1576 -0.1849
  155MOL0     C20808   8.534   5.829   3.960  0.0610 -0.6480 -1.0692
  155MOL0     C20809   8.586   5.736   4.042  0.1050 -0.3284  0.3363
  155MOL0     C20810   8.697   5.749   4.149  0.3485 -0.1263 -0.7024
  155MOL0     C20811   8.676   5.884   4.226 -1.0842  0.4064  0.4501
  155MOL0     C20812   8.567   5.882   4.329  0.7558  0.2224 -0.3480
  155MOL0     C20813   8.444   5.809   4.294  0.0151 -0.1449 -0.3906
  155MOL0     O20814   8.349   5.821   4.398 -0.4324 -0.2128  0.2681
  155MOL0     C20815   8.222   5.834   4.365  0.4911 -0.1958 -0.6675
  155MOL0     C20816   8.141   5.905   4.460  0.3666  0.0464  0.4633
  155MOL0     C20817   8.004   5.921   4.434  0.1736 -0.3536  0.0922
  155MOL0     C20818   7.943   5.871   4.312  0.1973 -1.2492 -0.2612
  155MOL0     C20819   7.802   5.902   4.296  0.4067  0.1699  0.0600
  155MOL0     O20820   7.751   5.920   4.163 -0.0052 -0.6173 -0.4951
  155MOL0     C20821   7.620   5.931   4.148 -0.0782  0.7387  1.7896
  155MOL0     C20822   7.561   5.847   4.054  0.0317  0.1416 -0.9537
  155MOL0     C20823   7.423   5.848   4.036 -0.5241 -0.2823  0.0257
  155MOL0     C20824   7.341   5.932   4.102 -0.6224  0.1847 -1.2671
  155MOL0     O20825   7.206   5.924   4.080 -0.5363  0.2807  0.3337
  155MOL0     C20826   7.124   5.914   4.198 -0.5661 -0.6823  0.7002
  155MOL0     C20827   6.980   5.935   4.172 -0.8601 -0.0462  1.0450
  155MOL0     C20828   6.899   5.931   4.302 -0.9659 -0.0471 -0.0987
  155MOL0     C20829   6.763   5.977   4.278 -0.6621 -0.1249  0.1103
  155MOL0     C20830   6.671   5.953   4.403  0.5568  0.5068  0.4725
  155MOL0     C20831   6.528   5.976   4.369  0.1359 -0.4552 -1.0031
  155MOL0     C20832   6.434   5.915   4.472 -0.4123  0.0692 -0.2123
  155MOL0     C20833   6.286   5.958   4.456 -0.1366 -0.4977 -0.2831
  155MOL0    Cl20834   6.273   6.124   4.512  0.0764  0.0211  0.0900
  155MOL0     C20835   7.395   6.021   4.180 -0.0496 -0.4373 -0.7575
  155MOL0     C20836   7.536   6.026   4.212 -0.1775  0.4790 -0.2416
  155MOL0     O20837   7.737   5.905   4.399  0.3414 -0.2896 -0.0178
  155MOL0     C20838   8.026   5.805   4.219 -0.1696  0.9297 -1.0014
  155MOL0     C20839   8.163   5.782   4.246 -0.6362 -0.7723  0.2397
  155MOL0     N20840   8.525   5.616   4.000  0.4396 -0.3767  1.0635
  155MOL0     N20841   8.450   5.632   3.890 -0.7222 -0.7198  0.9704
  155MOL0     C20842   7.404   5.817   3.482  0.5059  0.4849  0.5001
  155MOL0     C20843   7.295   5.877   3.418  0.0765 -0.2382 -0.3333
  155MOL0     C20844   6.896   6.052   3.262 -0.2720 -0.4011  1.1245
  155MOL0     C20845   6.792   5.982   3.311  0.7316  0.1123 -0.2953
  155MOL0     C20846   6.661   5.999   3.269  0.0648 -0.5738  0.6483
  155MOL0     C20847   6.632   6.092   3.165  0.7357  0.3958 -0.5011
  155MOL0     O20848   6.513   6.115   3.105  0.4746 -0.7027 -0.0859
  155MOL0     C20849   6.390   6.089   3.182  0.6188 -0.5240  0.1953
  155MOL0     C20850   6.336   5.946   3.198  0.1236  0.1270  0.7390
  155MOL0     C20851   6.190   5.918   3.187  0.0790 -0.1042  0.0755
  155MOL0     C20852   6.135   5.944   3.050 -0.3230 -0.1111  0.5300
  155MOL0     C20853   6.013   5.876   3.033  0.3652 -0.8324 -1.0377
  155MOL0     C20854   5.912   5.816   3.046 -0.3780 -0.8164 -0.4254
  155MOL0     C20855   6.737   6.168   3.117 -0.1924 -0.0900  0.0237
  155MOL0     C20856   6.871   6.155   3.162 -1.0978  0.7730 -0.1477
  155MOL0     C20857   6.978   6.256   3.111 -0.9490  0.3347  0.9176
  155MOL0     H20858   7.070   5.897   3.667 -1.1011 -1.9982 -2.3859
  155MOL0     H20859   7.270   5.775   3.790  2.5196 -0.6542  0.6013
  155MOL0     H20860   7.579   5.555   3.575 -1.9702  0.1727  0.2555
  155MOL0     H20861   7.653   5.712   3.549 -0.8631  1.9991  1.3019
  155MOL0     H20862   7.766   5.548   3.699 -0.6314  0.6335 -1.9426
  155MOL0     H20863   7.652   5.607   3.818 -0.9551 -1.4671 -1.1387
  155MOL0     H20864   7.747   5.822   3.824 -1.2001 -1.9760  0.8919
  155MOL0     H20865   7.786   5.829   3.648  0.6070 -1.7586 -0.1343
  155MOL0     H20866   7.963   5.694   3.854 -1.0533 -0.3218 -0.0858
  155MOL0     H20867   7.989   5.686   3.682 -1.1256 -0.0018 -0.9046
  155MOL0     H20868   8.015   5.949   3.686  1.2392  1.0611  1.1973
  155MOL0     H20869   7.976   5.942   3.857  0.9078  1.8669 -0.8345
  155MOL0     H20870   8.205   5.979   3.835  1.4019 -0.3891 -3.3099
  155MOL0     H20871   8.181   5.814   3.909 -0.0425  1.2578  0.8634
  155MOL0     H20872   8.229   5.857   3.608  1.1112  2.6238 -0.1452
  155MOL0     H20873   8.215   5.709   3.700 -0.8326  0.3259 -2.7789
  155MOL0     H20874   8.452   5.772   3.658 -0.3459 -2.0058  0.0259
  155MOL0     H20875   8.427   5.926   3.744  0.4930 -1.4111 -0.2717
  155MOL0     H20876   8.565   5.933   3.949 -1.3655 -0.4087 -3.9433
  155MOL0     H20877   8.686   5.664   4.217 -0.0357  1.7613  1.7476
  155MOL0     H20878   8.792   5.758   4.096  0.4847 -1.5491 -0.7538
  155MOL0     H20879   8.771   5.916   4.271  0.2515  0.3076 -2.0770
  155MOL0     H20880   8.652   5.969   4.161  1.0650  1.9891  1.5930
  155MOL0     H20881   8.548   5.990   4.333 -0.5760  0.0888 -1.7269
  155MOL0     H20882   8.595   5.846   4.428 -0.0072  0.5444  0.0015
  155MOL0     H20883   8.461   5.702   4.284 -0.6734 -0.3337  0.3750
  155MOL0     H20884   8.399   5.840   4.199 -0.4654 -1.7589 -0.7106
  155MOL0     H20885   8.182   5.952   4.549 -1.2958 -0.4708  1.5359
  155MOL0     H20886   7.941   5.984   4.496 -1.5639  0.2603 -2.1520
  155MOL0     H20887   7.622   5.776   3.999 -0.9843 -1.6602  0.1437
  155MOL0     H20888   7.378   5.776   3.969 -0.9846  1.6603 -1.8442
  155MOL0     H20889   7.135   5.818   4.249 -0.3639 -2.1738 -1.9866
  155MOL0     H20890   7.167   5.998   4.253  1.4529  0.2423 -2.0446
  155MOL0     H20891   6.976   6.036   4.130  4.0672 -0.1628 -0.3237
  155MOL0     H20892   6.940   5.868   4.095 -5.0140 -0.5976  3.3794
  155MOL0     H20893   6.905   5.835   4.355  0.8516  0.2405  0.2705
  155MOL0     H20894   6.942   6.009   4.365 -2.8503  0.2740  0.8910
  155MOL0     H20895   6.726   5.927   4.189 -0.9741 -0.5483  0.4714
  155MOL0     H20896   6.766   6.083   4.253 -1.4532  0.3621  1.9112
  155MOL0     H20897   6.701   6.017   4.486 -0.9815  3.8293 -1.3076
  155MOL0     H20898   6.665   5.848   4.434  0.0517 -0.2199 -1.8568
  155MOL0     H20899   6.514   6.084   4.363  3.5850  0.1475 -0.8179
  155MOL0     H20900   6.508   5.943   4.267 -2.4249  1.9566 -1.4109
  155MOL0     H20901   6.474   5.939   4.571  2.0408 -1.5038 -0.7322
  155MOL0     H20902   6.439   5.806   4.457  0.7769  0.2358 -1.1503
  155MOL0     H20903   6.255   5.950   4.351  3.0933  0.2203 -1.4091
  155MOL0     H20904   6.223   5.895   4.520 -2.5742  0.2129 -1.8107
  155MOL0     H20905   7.335   6.104   4.216 -0.6413 -0.8952 -0.6908
  155MOL0     H20906   7.565   6.097   4.289  0.1878 -0.3026  0.3563
  155MOL0     H20907   7.993   5.766   4.123 -0.7169 -2.6755  0.4916
  155MOL0     H20908   8.226   5.733   4.172 -1.1929  0.1018 -0.8460
  155MOL0     H20909   7.494   5.795   3.425 -0.4815 -2.1840 -0.1701
  155MOL0     H20910   7.295   5.906   3.313 -0.2824  0.8889 -0.0356
  155MOL0     H20911   6.812   5.906   3.386 -0.5420 -0.3774 -0.4145
  155MOL0     H20912   6.586   5.941   3.322  0.3163 -0.0968  1.5560
  155MOL0     H20913   6.311   6.132   3.120 -0.4539 -2.1319  0.3944
  155MOL0     H20914   6.383   6.138   3.280  2.7528  0.5966 -0.1351
  155MOL0     H20915   6.372   5.894   3.288  1.1318 -0.1697  0.1866
  155MOL0     H20916   6.380   5.886   3.117 -2.2327  1.1286 -1.3978
  155MOL0     H20917   6.132   5.968   3.266 -2.1814 -1.1430 -0.8485
  155MOL0     H20918   6.178   5.811   3.201  2.8982 -0.3088  1.7619
  155MOL0     H20919   6.114   6.051   3.043  0.8377  0.1648  1.1070
  155MOL0     H20920   6.210   5.912   2.977 -0.6726  2.0610 -0.8640
  155MOL0     H20921   5.818   5.768   3.063  0.1889 -1.3819  1.2659
  155MOL0     H20922   6.706   6.243   3.045 -2.5773  0.8556  1.8898
  155MOL0     H20923   6.923   6.336   3.059 -0.7015 -0.7964 -1.1907
  155MOL0     H20924   7.039   6.287   3.196  3.1642 -3.0137 -0.4910
  155MOL0     H20925   7.037   6.205   3.034 -2.1713  1.1601 -0.6367
  156MOL0     O20926   5.054   4.921   0.267  0.8337  0.3914 -0.4236
  156MOL0     C20927   4.994   4.817   0.235  0.4192  0.2433  0.2215
  156MOL0     O20928   5.058   4.690   0.232  0.3528 -0.3160  0.8798
  156MOL0     C20929   5.188   4.675   0.280  0.6085 -0.3908  0.1475
  156MOL0     C20930   5.225   4.725   0.399  0.7897 -0.2894 -0.3184
  156MOL0     C20931   5.354   4.706   0.446 -0.2405  0.1836  0.2086
  156MOL0     C20932   5.454   4.643   0.366 -0.4615  0.2046 -0.0042
  156MOL0     O20933   5.578   4.652   0.422 -0.1196  0.1861  0.1380
  156MOL0     C20934   5.673   4.561   0.359 -0.5377  0.1201 -0.3115
  156MOL0     C20935   5.814   4.578   0.416  0.3439  0.2093  0.0102
  156MOL0     C20936   5.846   4.723   0.435 -0.4384 -0.6455 -0.2059
  156MOL0     C20937   5.992   4.730   0.487  0.2330  0.0373 -0.2595
  156MOL0     C20938   6.029   4.869   0.531 -0.3215 -0.6807  1.0802
  156MOL0     C20939   5.989   4.920   0.667  0.5571  0.8148 -0.8802
  156MOL0     C20940   6.028   5.065   0.687  0.0160  0.4789 -0.0555
  156MOL0     C20941   6.007   5.123   0.831 -0.0578 -0.6999 -0.5568
  156MOL0     N20942   6.051   5.039   0.944 -0.4288 -0.9693  0.1494
  156MOL0     C20943   5.959   4.943   0.998 -0.6018  0.2269 -0.7422
  156MOL0     C20944   6.038   4.866   1.081  0.1829 -0.2787 -0.2289
  156MOL0     C20945   5.990   4.762   1.183 -0.2569 -0.1210  0.3879
  156MOL0     C20946   6.089   4.649   1.219  0.4278 -0.6595 -0.1570
  156MOL0     C20947   6.189   4.700   1.325 -0.1979  0.3717  0.2912
  156MOL0     C20948   6.286   4.592   1.364 -0.7443  0.4704 -0.0051
  156MOL0     O20949   6.355   4.620   1.483 -0.2177 -0.1242 -0.0830
  156MOL0     C20950   6.475   4.688   1.483  0.8921 -1.0631  0.3927
  156MOL0     C20951   6.552   4.673   1.601  0.5000  0.4637 -0.6952
  156MOL0     C20952   6.683   4.720   1.616 -0.4357  0.3541  0.3613
  156MOL0     C20953   6.738   4.794   1.512  0.2943 -0.4514 -0.1275
  156MOL0     C20954   6.886   4.828   1.518  0.0965 -0.0967  0.2398
  156MOL0     O20955   6.947   4.805   1.639  0.2024 -0.2018  0.3556
  156MOL0     C20956   7.081   4.819   1.653 -0.2428 -0.5553  0.9016
  156MOL0     C20957   7.171   4.763   1.561  0.0112 -0.2479 -0.5245
  156MOL0     C20958   7.316   4.750   1.590  0.3227  0.0300 -0.3452
  156MOL0     C20959   7.367   4.810   1.707  1.2707 -0.4443 -0.5447
  156MOL0     O20960   7.504   4.805   1.722 -0.2009  0.2220  0.7848
  156MOL0     C20961   7.578   4.908   1.793  1.3069  1.1446 -0.3335
  156MOL0     C20962   7.569   5.030   1.711 -0.4266 -0.9066  0.9461
  156MOL0     C20963   7.685   5.124   1.735 -1.2889  0.2923  0.2459
  156MOL0     C20964   7.699   5.165   1.882  0.4547 -0.6844  0.3484
  156MOL0     C20965   7.840   5.232   1.886 -0.4338  0.6263 -1.4721
  156MOL0     C20966   7.921   5.130   1.966  1.0500  0.0750  0.1123
  156MOL0     C20967   8.073   5.167   1.960  0.2699 -0.1417 -0.4751
  156MOL0     C20968   8.142   5.094   2.076  0.6661 -0.0536  0.8179
  156MOL0    Cl20969   8.311   5.137   2.056 -0.0315  0.0767 -0.2711
  156MOL0     C20970   7.273   4.863   1.800  0.2106  0.1642  0.6297
  156MOL0     C20971   7.132   4.868   1.769 -0.1231 -0.6029 -0.5578
  156MOL0     O20972   6.936   4.885   1.424 -0.3495  0.3081  0.1096
  156MOL0     C20973   6.663   4.814   1.394 -0.6826  0.6140  0.0069
  156MOL0     C20974   6.531   4.760   1.379  0.2199  0.2531  0.5704
  156MOL0     N20975   6.167   4.913   1.074 -0.5953 -0.2474  0.1688
  156MOL0     N20976   6.177   5.023   0.992  0.4093 -1.0407 -0.1635
  156MOL0     C20977   5.423   4.596   0.243  0.1789 -0.1741  0.9285
  156MOL0     C20978   5.290   4.624   0.195 -0.2461 -0.6183 -0.4941
  156MOL0     C20979   4.847   4.828   0.218  0.1022 -0.8414  0.3842
  156MOL0     C20980   4.774   4.714   0.225  0.6314  0.3755  0.8572
  156MOL0     C20981   4.642   4.706   0.187  0.7172 -0.0379  0.7408
  156MOL0     C20982   4.573   4.819   0.147  0.0663  0.1747 -0.5800
  156MOL0     O20983   4.440   4.821   0.119  0.7000  0.1617 -0.4605
  156MOL0     C20984   4.392   4.698   0.056 -0.6290 -1.4755 -0.2653
  156MOL0     C20985   4.311   4.745  -0.054  0.1585 -0.1105  0.1882
  156MOL0     C20986   4.166   4.786  -0.006  0.0408  0.8287 -0.6524
  156MOL0     C20987   4.085   4.869  -0.111 -0.7253  0.4770  0.1821
  156MOL0     C20988   4.135   5.009  -0.142  0.1741 -1.6871  0.2376
  156MOL0     C20989   4.156   5.133  -0.147  0.1079 -0.4646 -0.8843
  156MOL0     C20990   4.638   4.945   0.150 -0.5377 -0.6124 -0.7285
  156MOL0     C20991   4.775   4.950   0.175 -0.5325 -0.0568 -0.3043
  156MOL0     C20992   4.848   5.086   0.163  0.1144 -0.8269  0.8554
  156MOL0     H20993   5.155   4.766   0.471  0.4991  0.4133 -0.9867
  156MOL0     H20994   5.372   4.729   0.551 -1.4916  0.0491  0.4685
  156MOL0     H20995   5.651   4.455   0.377 -0.4056  0.4890  2.4555
  156MOL0     H20996   5.696   4.578   0.254  0.0300 -1.8635 -0.5511
  156MOL0     H20997   5.882   4.538   0.340 -0.3464  0.1522 -0.5890
  156MOL0     H20998   5.825   4.518   0.507  0.9849  0.3031 -0.0060
  156MOL0     H20999   5.788   4.773   0.514  1.9587  1.5410  0.3171
  156MOL0     H21000   5.831   4.776   0.341 -3.7558 -0.7620  0.1346
  156MOL0     H21001   5.991   4.662   0.573 -4.6103  0.4937  0.3183
  156MOL0     H21002   6.054   4.701   0.401  2.5128  0.6548  1.0976
  156MOL0     H21003   6.138   4.869   0.524 -0.4100 -0.2936 -4.2893
  156MOL0     H21004   5.988   4.938   0.457 -1.4503 -2.5810 -0.1507
  156MOL0     H21005   5.881   4.924   0.680  0.2452  3.6571 -3.3379
  156MOL0     H21006   6.030   4.853   0.744 -1.0055 -1.4080 -1.8919
  156MOL0     H21007   5.954   5.123   0.631 -3.3534 -1.0734  2.3606
  156MOL0     H21008   6.125   5.088   0.644  0.5511  0.9112  1.3344
  156MOL0     H21009   6.075   5.208   0.841 -1.4982  0.2146  2.6085
  156MOL0     H21010   5.901   5.148   0.837 -0.4681 -2.5129  0.3246
  156MOL0     H21011   5.852   4.956   1.014 -0.6398  2.3830 -2.3028
  156MOL0     H21012   5.961   4.821   1.271 -0.1509  2.1810 -1.0305
  156MOL0     H21013   5.895   4.725   1.145 -0.8449  2.1389 -0.5135
  156MOL0     H21014   6.038   4.555   1.239 -0.2598 -0.7350 -2.0904
  156MOL0     H21015   6.156   4.629   1.135  4.9484 -1.3500  3.1661
  156MOL0     H21016   6.123   4.720   1.410 -0.6650  0.8049 -0.1637
  156MOL0     H21017   6.234   4.794   1.293 -0.4627  0.2709 -0.4123
  156MOL0     H21018   6.352   4.568   1.280 -1.7231  2.8212 -1.5485
  156MOL0     H21019   6.221   4.505   1.374 -1.1922  0.6439 -1.1977
  156MOL0     H21020   6.512   4.609   1.679 -0.0510 -0.3150 -1.5899
  156MOL0     H21021   6.736   4.696   1.708 -0.4980  0.0589  0.3209
  156MOL0     H21022   7.141   4.708   1.473 -1.3154  0.2987 -0.4275
  156MOL0     H21023   7.385   4.688   1.535  1.8388 -1.9413  3.4325
  156MOL0     H21024   7.541   4.928   1.894  0.8013  0.9102 -0.4704
  156MOL0     H21025   7.679   4.867   1.801  0.3234 -1.1140  1.4034
  156MOL0     H21026   7.573   5.010   1.603  3.0521  4.3586 -0.2540
  156MOL0     H21027   7.470   5.074   1.723 -0.8392 -1.3295 -0.6895
  156MOL0     H21028   7.767   5.065   1.691 -0.5350  2.1911 -1.0105
  156MOL0     H21029   7.674   5.212   1.671  0.0873 -1.1523 -2.1404
  156MOL0     H21030   7.694   5.077   1.945  0.2873 -1.9562 -1.3624
  156MOL0     H21031   7.621   5.236   1.911  0.8527  0.2576 -0.7949
  156MOL0     H21032   7.837   5.323   1.947  0.6233 -1.0141  1.2199
  156MOL0     H21033   7.889   5.255   1.791 -3.3186  0.7310 -3.0420
  156MOL0     H21034   7.895   5.130   2.072 -0.4328  0.8532 -0.2322
  156MOL0     H21035   7.913   5.027   1.929  2.2179  0.0712 -0.1740
  156MOL0     H21036   8.097   5.272   1.980  4.7982 -1.0362 -0.1535
  156MOL0     H21037   8.114   5.141   1.862 -2.1953 -0.0072 -1.6095
  156MOL0     H21038   8.110   5.136   2.172  2.2036  4.0418 -0.2473
  156MOL0     H21039   8.106   4.991   2.064 -1.1234  0.7142 -1.0659
  156MOL0     H21040   7.301   4.922   1.886 -2.1029  0.8792  0.9799
  156MOL0     H21041   7.068   4.914   1.844 -0.1039 -1.4863  0.0167
  156MOL0     H21042   6.712   4.865   1.312 -0.0640 -2.8859 -2.0326
  156MOL0     H21043   6.476   4.786   1.289  0.1513  2.3696  1.1590
  156MOL0     H21044   5.495   4.545   0.178  0.1527  0.8338  0.0815
  156MOL0     H21045   5.265   4.603   0.091 -1.3194 -2.3909  0.0588
  156MOL0     H21046   4.827   4.620   0.238  0.9306  0.3069 -0.6885
  156MOL0     H21047   4.589   4.611   0.191 -2.7920  1.7694  0.6881
  156MOL0     H21048   4.343   4.631   0.127 -0.3832 -0.3410  1.0220
  156MOL0     H21049   4.470   4.645   0.001  1.2134  2.6268 -2.0751
  156MOL0     H21050   4.305   4.663  -0.125  1.2729  1.4245 -1.7780
  156MOL0     H21051   4.359   4.832  -0.100 -0.6728  1.2859  1.8590
  156MOL0     H21052   4.178   4.850   0.081  1.1393  1.3800 -1.1838
  156MOL0     H21053   4.108   4.699   0.024 -0.8145  1.6380  0.1055
  156MOL0     H21054   4.080   4.815  -0.206 -1.0082  1.3478 -0.3203
  156MOL0     H21055   3.984   4.879  -0.069 -0.4498  0.0491  0.9509
  156MOL0     H21056   4.189   5.234  -0.136  1.3202 -1.0436  1.2854
  156MOL0     H21057   4.583   5.037   0.132  0.2283 -0.1951 -0.9949
  156MOL0     H21058   4.788   5.132   0.083  0.5029  0.5399  1.3176
  156MOL0     H21059   4.840   5.148   0.253 -2.1198 -0.8960  0.7654
  156MOL0     H21060   4.949   5.073   0.121 -0.0334  0.9412 -0.1377
  157MOL0     O21061   6.012   5.164   8.875 -0.0391  0.2862  0.4806
  157MOL0     C21062   5.961   5.167   8.986 -0.2179 -0.8679  0.2271
  157MOL0     O21063   6.025   5.188   9.105 -0.0394 -0.2684  0.4933
  157MOL0     C21064   6.165   5.178   9.091 -0.4763  0.1851  0.1083
  157MOL0     C21065   6.251   5.279   9.130  0.8010 -0.7242  0.3089
  157MOL0     C21066   6.389   5.270   9.112  0.1150  0.3778  0.0432
  157MOL0     C21067   6.452   5.153   9.089 -0.3790  1.0352 -0.0208
  157MOL0     O21068   6.586   5.135   9.124 -0.0018 -0.1830  0.3377
  157MOL0     C21069   6.639   4.996   9.132  0.3980 -0.1345  0.6846
  157MOL0     C21070   6.765   5.007   9.211 -0.6480 -0.0423  0.5285
  157MOL0     C21071   6.873   5.082   9.140  0.0329 -0.9656  0.5124
  157MOL0     C21072   6.960   5.142   9.249  1.2792  0.7840  0.3385
  157MOL0     C21073   7.094   5.198   9.180  1.0652  0.1454  0.2123
  157MOL0     C21074   7.199   5.259   9.268  0.4749 -0.8027  0.3756
  157MOL0     C21075   7.334   5.256   9.200 -0.0894 -1.0550 -0.6750
  157MOL0     C21076   7.345   5.364   9.092 -0.3989  0.2334 -0.3243
  157MOL0     N21077   7.484   5.396   9.050  0.4251 -0.0166  1.1517
  157MOL0     C21078   7.536   5.343   8.936  0.5946 -0.4825  0.3392
  157MOL0     C21079   7.667   5.383   8.942  0.3501 -0.2235  0.2933
  157MOL0     C21080   7.780   5.353   8.846 -0.4828  0.1591  0.1528
  157MOL0     C21081   7.886   5.465   8.824  0.2064  0.2363  0.9575
  157MOL0     C21082   7.952   5.446   8.686  0.4622 -0.7042  0.7249
  157MOL0     C21083   8.065   5.552   8.673 -0.5846  0.6561  0.4050
  157MOL0     O21084   8.148   5.558   8.789 -0.1443  0.3690 -0.5541
  157MOL0     C21085   8.249   5.652   8.785  0.0123 -0.4945  0.4847
  157MOL0     C21086   8.269   5.741   8.674  0.4262  0.6069 -0.4955
  157MOL0     C21087   8.365   5.839   8.665  0.2791 -0.0644 -0.5820
  157MOL0     C21088   8.445   5.857   8.780 -0.1991 -0.3550  1.3526
  157MOL0     C21089   8.538   5.971   8.792  0.0461  0.1337 -0.3228
  157MOL0     O21090   8.637   5.970   8.891 -0.0308  0.4512 -0.1953
  157MOL0     C21091   8.725   6.066   8.882  1.1624  1.0445 -0.3181
  157MOL0     C21092   8.814   6.085   8.781 -0.4669 -0.2212 -0.9113
  157MOL0     C21093   8.925   6.178   8.788  0.1525  0.1900  1.3254
  157MOL0     C21094   8.944   6.244   8.907  0.2674 -0.4607 -0.3301
  157MOL0     O21095   9.055   6.326   8.922  0.1339 -0.1949  0.0688
  157MOL0     C21096   9.047   6.446   8.849 -0.1470  0.4542  0.1164
  157MOL0     C21097   9.129   6.566   8.915  0.1008 -0.5532  1.0494
  157MOL0     C21098   9.285   6.535   8.921  1.0236  0.1758 -0.0592
  157MOL0     C21099   9.357   6.666   8.942 -0.8054  0.0058  0.4085
  157MOL0     C21100   9.508   6.646   8.948  0.3691  0.1175 -0.0155
  157MOL0     C21101   9.567   6.578   9.075 -1.2015 -0.3370  0.9243
  157MOL0     C21102   9.547   6.664   9.199  0.8090  0.2392  0.5012
  157MOL0     C21103   9.641   6.621   9.308 -0.2363  1.1244  0.0457
  157MOL0    Cl21104   9.676   6.443   9.321  0.0662  0.0153  0.5529
  157MOL0     C21105   8.856   6.226   9.013  0.0050 -0.2099 -0.7263
  157MOL0     C21106   8.757   6.130   9.005  0.1975 -0.2060  0.2459
  157MOL0     O21107   8.522   6.058   8.707 -0.0886  0.2831  0.0090
  157MOL0     C21108   8.438   5.770   8.887 -0.0254  0.3703 -0.1872
  157MOL0     C21109   8.337   5.667   8.890 -0.1516  0.2599  0.1543
  157MOL0     N21110   7.690   5.471   9.047  0.1175  0.2317 -0.1521
  157MOL0     N21111   7.572   5.478   9.112 -0.5726 -0.6533  0.5415
  157MOL0     C21112   6.368   5.052   9.051 -0.1979  1.0176 -0.0988
  157MOL0     C21113   6.229   5.066   9.036  0.5596 -0.2618 -0.1441
  157MOL0     C21114   5.816   5.191   8.988 -0.6749  0.0175  0.3174
  157MOL0     C21115   5.770   5.268   9.094 -0.4319 -0.0026 -0.1733
  157MOL0     C21116   5.628   5.290   9.122 -0.4436  0.5437  0.5490
  157MOL0     C21117   5.534   5.225   9.037  0.3322 -0.0130 -0.4168
  157MOL0     O21118   5.395   5.235   9.059  0.8315  0.1476 -0.5419
  157MOL0     C21119   5.342   5.315   9.166  0.2590 -0.3133  0.2988
  157MOL0     C21120   5.197   5.265   9.170 -0.3239  0.2354 -0.4740
  157MOL0     C21121   5.109   5.324   9.059  0.2075  0.2982 -0.0336
  157MOL0     C21122   4.965   5.347   9.112 -0.4963  0.2605 -0.3557
  157MOL0     C21123   4.897   5.218   9.157  0.3416 -0.8463  0.5793
  157MOL0     C21124   4.835   5.125   9.193  0.0722  0.4012  0.4081
  157MOL0     C21125   5.576   5.151   8.927 -0.2647 -0.0715  0.2178
  157MOL0     C21126   5.717   5.135   8.897  0.0867  0.1150 -0.3088
  157MOL0     C21127   5.762   5.050   8.778 -0.5126 -0.2392 -0.3444
  157MOL0     H21128   6.197   5.372   9.146 -0.6607 -1.7058  1.3534
  157MOL0     H21129   6.456   5.349   9.143  0.3672  0.9287 -1.7599
  157MOL0     H21130   6.567   4.928   9.176  0.2851 -1.6861 -1.6986
  157MOL0     H21131   6.674   4.960   9.035  0.0039 -4.3171  1.9112
  157MOL0     H21132   6.792   4.910   9.254 -2.1481 -0.0104  1.6337
  157MOL0     H21133   6.736   5.073   9.294  0.3011  1.2325 -0.1209
  157MOL0     H21134   6.827   5.154   9.072 -1.8006 -2.1130  0.4838
  157MOL0     H21135   6.935   5.019   9.076  1.9480 -0.2727  1.6064
  157MOL0     H21136   6.901   5.215   9.304  0.5972 -0.2827  1.0530
  157MOL0     H21137   6.991   5.058   9.312 -0.0120  0.5366  0.6801
  157MOL0     H21138   7.134   5.112   9.125  1.2811  0.4840 -0.1670
  157MOL0     H21139   7.066   5.272   9.105  0.6363 -1.8636 -1.7159
  157MOL0     H21140   7.166   5.360   9.293  1.7585 -1.0484  3.4849
  157MOL0     H21141   7.203   5.201   9.361 -1.1469 -0.3688  0.7603
  157MOL0     H21142   7.361   5.158   9.160  2.0095 -0.9093  0.2595
  157MOL0     H21143   7.406   5.277   9.280 -2.7584  0.9574  1.4277
  157MOL0     H21144   7.284   5.338   9.005 -1.5358 -1.6650  0.9573
  157MOL0     H21145   7.304   5.460   9.126  2.9512  0.8243  2.6204
  157MOL0     H21146   7.501   5.281   8.854 -1.5450  0.3823  0.5414
  157MOL0     H21147   7.823   5.262   8.888 -2.6446 -0.3688  1.3744
  157MOL0     H21148   7.737   5.337   8.747 -0.4124  3.4544 -0.5413
  157MOL0     H21149   7.837   5.562   8.832 -0.0224  0.2497 -0.4168
  157MOL0     H21150   7.958   5.452   8.906  2.7011  0.4134 -1.0813
  157MOL0     H21151   7.887   5.469   8.601  1.6996  1.8198  0.3981
  157MOL0     H21152   7.998   5.346   8.677  3.4509  0.6416 -0.2559
  157MOL0     H21153   8.022   5.651   8.653  1.0557  1.2050 -0.6111
  157MOL0     H21154   8.127   5.524   8.588 -0.6508  0.2524  0.4870
  157MOL0     H21155   8.222   5.714   8.580  0.3418 -1.2317  0.0380
  157MOL0     H21156   8.392   5.898   8.577  1.8756  2.3453  1.3824
  157MOL0     H21157   8.794   6.026   8.692 -1.5410  0.7873 -1.3670
  157MOL0     H21158   8.978   6.175   8.694 -0.2539 -0.8181  1.1211
  157MOL0     H21159   9.092   6.415   8.754  0.8533  1.3959  0.2717
  157MOL0     H21160   8.944   6.475   8.830  0.9631  2.8107 -3.2177
  157MOL0     H21161   9.123   6.643   8.838  0.2070 -2.6114 -1.1240
  157MOL0     H21162   9.087   6.594   9.012 -0.3170  2.7517  0.0376
  157MOL0     H21163   9.311   6.466   9.001  1.0347 -1.2958 -1.2915
  157MOL0     H21164   9.306   6.486   8.826  1.4324 -0.2393  0.2408
  157MOL0     H21165   9.328   6.727   9.028 -1.2159  1.2257 -0.5663
  157MOL0     H21166   9.338   6.732   8.857  2.4761  2.7240  1.5723
  157MOL0     H21167   9.549   6.743   8.921  0.4050 -0.4201 -2.0751
  157MOL0     H21168   9.525   6.580   8.862 -0.2651  0.3118 -0.2926
  157MOL0     H21169   9.512   6.485   9.093 -0.8303 -0.2107  2.9792
  157MOL0     H21170   9.670   6.541   9.061 -1.5406 -1.1545  0.4642
  157MOL0     H21171   9.444   6.656   9.235  0.4367  2.0802 -0.0414
  157MOL0     H21172   9.562   6.770   9.174 -1.4263  1.0423  2.1905
  157MOL0     H21173   9.732   6.676   9.280  0.4080  0.6684  1.1737
  157MOL0     H21174   9.610   6.660   9.405  0.0293 -2.7597  1.8582
  157MOL0     H21175   8.873   6.291   9.098 -1.9646 -1.2634  0.5379
  157MOL0     H21176   8.682   6.120   9.083 -1.9453  3.3635 -1.0704
  157MOL0     H21177   8.502   5.779   8.974  2.7874  1.0257 -2.1760
  157MOL0     H21178   8.309   5.606   8.975  1.1281  1.1913  1.2919
  157MOL0     H21179   6.415   4.960   9.016  0.8202  0.9994  1.2066
  157MOL0     H21180   6.177   4.983   8.989 -0.4893  1.4376 -2.1608
  157MOL0     H21181   5.843   5.322   9.152  1.4856 -0.6496 -1.8731
  157MOL0     H21182   5.592   5.360   9.198  1.1152  2.0722 -0.0546
  157MOL0     H21183   5.357   5.419   9.135 -1.0828  0.5736  2.4031
  157MOL0     H21184   5.392   5.288   9.260 -0.1362  0.2331  0.6763
  157MOL0     H21185   5.159   5.294   9.268 -2.0984  1.0507 -1.3542
  157MOL0     H21186   5.184   5.156   9.172 -0.3833  0.1758  3.0506
  157MOL0     H21187   5.114   5.265   8.967  3.5740 -0.1159  0.2881
  157MOL0     H21188   5.150   5.418   9.022  0.5206 -0.2261 -1.0592
  157MOL0     H21189   4.978   5.397   9.209  1.2805 -0.3161 -0.2482
  157MOL0     H21190   4.901   5.402   9.044 -0.3075 -2.2924 -2.7881
  157MOL0     H21191   4.790   5.028   9.200  1.7768 -0.4703 -0.1947
  157MOL0     H21192   5.502   5.103   8.864  0.8751 -2.7097  0.7559
  157MOL0     H21193   5.702   4.960   8.759  0.6781 -0.9869 -0.6608
  157MOL0     H21194   5.770   5.112   8.688 -2.4888 -1.5854 -1.5477
  157MOL0     H21195   5.862   5.010   8.797  0.3335  0.8262 -2.2345
  158MOL0     O21196   8.421   8.905   5.153 -0.7309  0.2716  0.3149
  158MOL0     C21197   8.367   8.898   5.043 -0.3062 -0.0342 -0.5336
  158MOL0     O21198   8.432   8.914   4.924 -0.9995 -0.8372  0.5050
  158MOL0     C21199   8.570   8.955   4.923  0.4232  0.2052 -0.0130
  158MOL0     C21200   8.645   8.898   4.826 -0.1748  0.1039  0.7396
  158MOL0     C21201   8.781   8.939   4.802  0.4520 -0.1144  0.2592
  158MOL0     C21202   8.829   9.051   4.865  0.3233  0.3191 -0.0605
  158MOL0     O21203   8.944   9.117   4.829 -0.4953  0.0839 -0.7346
  158MOL0     C21204   9.050   9.040   4.777  0.3382  0.2215  0.2804
  158MOL0     C21205   9.188   9.115   4.742  0.4241  0.2900  0.2872
  158MOL0     C21206   9.243   9.187   4.870 -0.5881  0.8342 -1.2802
  158MOL0     C21207   9.304   9.075   4.962 -0.4427  0.1237 -0.4631
  158MOL0     C21208   9.345   9.135   5.095  0.1780 -0.0139 -1.5706
  158MOL0     C21209   9.386   9.029   5.205  0.4389  0.4794  0.1908
  158MOL0     C21210   9.418   9.105   5.335 -0.6772  1.3541  0.3928
  158MOL0     C21211   9.293   9.155   5.406 -0.5098  0.9007  0.3271
  158MOL0     N21212   9.191   9.055   5.456 -0.8281 -0.0431 -0.6236
  158MOL0     C21213   9.224   8.937   5.509  0.2869  0.2443  0.3535
  158MOL0     C21214   9.110   8.887   5.557  0.7805  0.1036 -0.0736
  158MOL0     C21215   9.090   8.759   5.625 -0.1359 -0.0336  0.3184
  158MOL0     C21216   9.071   8.782   5.781 -0.0604  0.3379  0.8847
  158MOL0     C21217   9.071   8.645   5.857  1.1808 -0.9633  0.0440
  158MOL0     C21218   8.972   8.547   5.794  0.3208  0.3519  0.3145
  158MOL0     O21219   8.839   8.608   5.786 -0.9300 -0.1914 -0.1251
  158MOL0     C21220   8.736   8.558   5.725 -0.8175 -0.2643 -0.1244
  158MOL0     C21221   8.738   8.502   5.594 -0.3906 -0.1362 -0.3615
  158MOL0     C21222   8.617   8.455   5.540 -0.4909 -0.5385 -0.6883
  158MOL0     C21223   8.492   8.467   5.606  0.1536  0.2389 -0.2538
  158MOL0     C21224   8.369   8.437   5.535  0.6599  0.2747  0.4160
  158MOL0     O21225   8.262   8.494   5.591  0.4262  0.0414  0.6784
  158MOL0     C21226   8.138   8.470   5.541  0.0745 -0.0821 -0.2172
  158MOL0     C21227   8.085   8.346   5.572  0.7345  0.1443  0.0900
  158MOL0     C21228   7.952   8.315   5.546 -0.5463  0.1919 -0.3725
  158MOL0     C21229   7.871   8.416   5.493 -0.5239 -0.3102 -0.4262
  158MOL0     O21230   7.748   8.382   5.455 -0.0060 -0.5573 -0.2460
  158MOL0     C21231   7.667   8.481   5.381 -0.0430  0.6157 -0.3496
  158MOL0     C21232   7.536   8.407   5.373 -0.1710 -0.8230  0.0313
  158MOL0     C21233   7.429   8.491   5.291  0.3605  0.3423  0.9689
  158MOL0     C21234   7.371   8.609   5.372 -0.0198 -1.4153 -0.4836
  158MOL0     C21235   7.286   8.706   5.289  0.2663  0.5743  0.9900
  158MOL0     C21236   7.216   8.807   5.383 -0.6331  0.6845 -0.1794
  158MOL0     C21237   7.137   8.757   5.501  0.1001 -0.3569  0.5504
  158MOL0     C21238   7.036   8.853   5.549  0.1420 -0.5814 -0.3981
  158MOL0    Cl21239   7.124   9.005   5.603 -0.1322  0.0094  0.0861
  158MOL0     C21240   7.920   8.542   5.468 -0.1457 -0.1308  0.1574
  158MOL0     C21241   8.051   8.568   5.489 -0.6185 -0.3126  0.1411
  158MOL0     O21242   8.354   8.350   5.440 -1.3575 -0.0896  0.1511
  158MOL0     C21243   8.492   8.519   5.742 -0.3272 -0.1946 -0.0964
  158MOL0     C21244   8.617   8.555   5.800 -1.1304 -0.9446  0.6460
  158MOL0     N21245   9.006   8.985   5.534 -0.2818  0.0932  0.2025
  158MOL0     N21246   9.061   9.085   5.472  0.5305 -0.3886  0.1895
  158MOL0     C21247   8.747   9.111   4.958  0.4037 -0.2291 -0.0348
  158MOL0     C21248   8.616   9.062   4.989 -0.1020 -0.1251 -0.3250
  158MOL0     C21249   8.224   8.849   5.033  0.6326  0.5450 -0.0509
  158MOL0     C21250   8.183   8.811   4.906  0.6764  0.7861 -0.2775
  158MOL0     C21251   8.045   8.774   4.886 -0.4000 -0.1651  1.0267
  158MOL0     C21252   7.955   8.778   4.986 -0.3332 -0.3654  0.2264
  158MOL0     O21253   7.819   8.758   4.970  0.6445  0.0644  0.0382
  158MOL0     C21254   7.766   8.688   4.857 -0.0294  0.2945 -0.0519
  158MOL0     C21255   7.616   8.646   4.889 -0.1662  0.7307  0.0310
  158MOL0     C21256   7.524   8.770   4.918 -0.2192 -0.4463 -0.1121
  158MOL0     C21257   7.376   8.743   4.897  0.3372 -1.1158  0.3523
  158MOL0     C21258   7.326   8.618   4.957  0.3291 -0.0212  0.3588
  158MOL0     C21259   7.310   8.505   4.998  0.2152 -0.7451  0.6250
  158MOL0     C21260   7.995   8.823   5.112 -0.8482  0.7245 -0.4865
  158MOL0     C21261   8.129   8.853   5.137  0.0551 -0.1370 -0.0912
  158MOL0     C21262   8.163   8.884   5.281  0.2602  0.5004  1.3008
  158MOL0     H21263   8.609   8.819   4.760  1.0957 -1.1883  1.5193
  158MOL0     H21264   8.841   8.887   4.729  1.5927 -0.3118  1.3028
  158MOL0     H21265   9.080   8.971   4.856  0.0424  2.2866  2.2993
  158MOL0     H21266   9.026   8.977   4.691 -0.7044 -0.9007  1.3551
  158MOL0     H21267   9.163   9.192   4.668 -4.2415 -2.2816 -1.2543
  158MOL0     H21268   9.251   9.036   4.700 -1.8892 -1.2666 -0.4535
  158MOL0     H21269   9.158   9.241   4.913  0.1881  2.0139 -1.1934
  158MOL0     H21270   9.322   9.261   4.858  0.3263  0.2636  0.9133
  158MOL0     H21271   9.236   8.991   4.980  0.9551 -0.6566  1.4470
  158MOL0     H21272   9.392   9.041   4.908 -0.9068  2.1714 -2.7119
  158MOL0     H21273   9.436   9.193   5.082  1.8645 -1.8412  1.1550
  158MOL0     H21274   9.269   9.206   5.127  1.9836  1.6206 -0.7167
  158MOL0     H21275   9.300   8.963   5.218 -0.5424  1.5348 -0.6982
  158MOL0     H21276   9.474   8.975   5.167 -0.8735 -2.6826  1.2612
  158MOL0     H21277   9.485   9.188   5.310  0.8891 -0.0756 -0.2710
  158MOL0     H21278   9.481   9.042   5.398  1.2388  0.0781 -2.5803
  158MOL0     H21279   9.323   9.212   5.495  1.2978 -0.6556  0.7848
  158MOL0     H21280   9.236   9.224   5.343 -2.6360 -0.3034  0.8630
  158MOL0     H21281   9.314   8.876   5.511 -0.1738 -0.7722 -3.2218
  158MOL0     H21282   9.005   8.711   5.575  1.3435 -1.8198 -0.5797
  158MOL0     H21283   9.183   8.706   5.607 -0.6011 -0.9233  0.4571
  158MOL0     H21284   9.149   8.847   5.823  1.8075  0.0729 -1.8638
  158MOL0     H21285   8.972   8.824   5.798 -0.1786  0.6301 -0.3710
  158MOL0     H21286   9.043   8.664   5.961  0.7756  0.9999 -0.3917
  158MOL0     H21287   9.176   8.616   5.851  1.0047 -1.8171  0.8572
  158MOL0     H21288   8.963   8.454   5.849 -2.0208  1.1018  1.3218
  158MOL0     H21289   9.005   8.526   5.691 -0.6357  1.7918 -0.3223
  158MOL0     H21290   8.829   8.508   5.536  1.0831 -4.0569  1.2266
  158MOL0     H21291   8.620   8.421   5.437  0.9064  0.9166 -1.1797
  158MOL0     H21292   8.148   8.273   5.622 -2.1407 -1.9112  1.0139
  158MOL0     H21293   7.920   8.214   5.571  2.5275 -1.6073 -2.9960
  158MOL0     H21294   7.644   8.574   5.435  0.0428  1.1023 -1.1337
  158MOL0     H21295   7.710   8.503   5.283  0.5539 -0.6817 -0.3992
  158MOL0     H21296   7.548   8.300   5.353  0.0234 -0.8403  0.2378
  158MOL0     H21297   7.496   8.401   5.474  4.0216  1.9154  2.1307
  158MOL0     H21298   7.476   8.531   5.201 -2.5824  0.1162 -0.7964
  158MOL0     H21299   7.359   8.414   5.258  1.0179 -0.8840  2.3719
  158MOL0     H21300   7.455   8.669   5.408 -0.0766 -1.7297  0.1963
  158MOL0     H21301   7.316   8.556   5.451  2.3976 -2.8234  0.3644
  158MOL0     H21302   7.210   8.657   5.228  1.5715  0.5838 -0.7023
  158MOL0     H21303   7.350   8.758   5.218 -2.5956  2.2446 -0.5359
  158MOL0     H21304   7.298   8.865   5.427 -1.6676  1.7167  0.4217
  158MOL0     H21305   7.155   8.869   5.317  1.9481  0.6115 -2.8364
  158MOL0     H21306   7.202   8.736   5.587 -1.9904 -3.1799  1.6272
  158MOL0     H21307   7.086   8.663   5.475  1.0650 -1.3703  2.1220
  158MOL0     H21308   6.969   8.875   5.466 -1.5560  0.1687  1.1098
  158MOL0     H21309   6.978   8.821   5.636  1.3504  1.4352  1.2631
  158MOL0     H21310   7.866   8.620   5.414  1.7145 -0.6275 -2.6170
  158MOL0     H21311   8.083   8.671   5.480 -0.8673 -0.1158  1.3499
  158MOL0     H21312   8.399   8.531   5.798  0.8319  5.6184  1.3032
  158MOL0     H21313   8.615   8.608   5.894 -1.4929  1.1714 -0.4785
  158MOL0     H21314   8.788   9.199   5.006  0.3308 -0.4958  0.5179
  158MOL0     H21315   8.569   9.129   5.060 -0.8333  0.1684 -1.0723
  158MOL0     H21316   8.250   8.822   4.821  0.8779 -1.2993 -0.4416
  158MOL0     H21317   8.011   8.742   4.788 -0.7115  0.5834  0.8850
  158MOL0     H21318   7.832   8.605   4.830  0.7566  0.7757  0.3187
  158MOL0     H21319   7.762   8.767   4.781 -1.0549  1.0650  0.7754
  158MOL0     H21320   7.613   8.580   4.977 -1.1939 -0.1811 -0.6644
  158MOL0     H21321   7.568   8.585   4.812  0.2787 -0.5679  0.7321
  158MOL0     H21322   7.548   8.849   4.846 -0.2665 -1.4992 -1.3188
  158MOL0     H21323   7.548   8.798   5.021  1.7163  0.3046 -0.7267
  158MOL0     H21324   7.323   8.824   4.948  0.8071  0.1046 -1.0126
  158MOL0     H21325   7.342   8.750   4.793  0.7753 -0.0488  0.2681
  158MOL0     H21326   7.308   8.401   5.023  0.8650 -0.7373  0.7269
  158MOL0     H21327   7.922   8.839   5.190 -1.2478  0.3101 -0.7672
  158MOL0     H21328   8.076   8.854   5.340 -1.4811  0.0176 -1.3295
  158MOL0     H21329   8.248   8.828   5.320 -1.0923  0.4349  4.4961
  158MOL0     H21330   8.181   8.989   5.306 -4.8997  1.0057  4.3016
  159MOL0     O21331   2.732  11.181   3.270  0.2133 -0.0330  0.2176
  159MOL0     C21332   2.755  11.309   3.256  0.2096 -0.2828 -0.3045
  159MOL0     O21333   2.667  11.408   3.299  0.2603 -0.2628  0.2405
  159MOL0     C21334   2.562  11.377   3.379 -0.7581 -0.3744  0.0667
  159MOL0     C21335   2.445  11.452   3.363  0.0035 -0.0717  0.4086
  159MOL0     C21336   2.336  11.448   3.452 -0.1428  0.2497  0.8723
  159MOL0     C21337   2.340  11.358   3.553  1.2103  0.1209  0.6158
  159MOL0     O21338   2.232  11.331   3.635  0.3441  0.3962 -0.5232
  159MOL0     C21339   2.167  11.447   3.701  1.0302  0.5081 -0.2870
  159MOL0     C21340   2.191  11.451   3.850 -0.5298  0.2976  0.4807
  159MOL0     C21341   2.112  11.560   3.926  0.3338 -0.5572 -0.5244
  159MOL0     C21342   2.113  11.546   4.079 -0.0531  0.6413  0.4239
  159MOL0     C21343   2.033  11.650   4.165  0.1178 -0.5553 -0.0631
  159MOL0     C21344   1.900  11.702   4.099  0.1185  0.5623 -0.4215
  159MOL0     C21345   1.786  11.598   4.084 -0.2608  1.1508  0.8917
  159MOL0     C21346   1.657  11.667   4.017 -0.4821  0.1018  0.6327
  159MOL0     N21347   1.552  11.706   4.107  0.3406  0.1117 -0.5873
  159MOL0     C21348   1.551  11.816   4.196 -0.6675 -0.2029  0.4928
  159MOL0     C21349   1.435  11.811   4.261  0.1537 -0.1410 -0.4014
  159MOL0     C21350   1.389  11.897   4.370 -0.6977  0.5324 -0.7075
  159MOL0     C21351   1.396  11.813   4.504 -0.0113 -0.7960  0.3117
  159MOL0     C21352   1.543  11.772   4.537  0.3786 -1.1702 -0.1013
  159MOL0     C21353   1.644  11.886   4.535 -1.0304 -0.7178 -0.7401
  159MOL0     O21354   1.759  11.842   4.616 -0.8113  0.1984 -0.0577
  159MOL0     C21355   1.875  11.818   4.556  0.6863 -0.3412  0.7225
  159MOL0     C21356   1.935  11.697   4.599 -0.2815  0.3878  0.2621
  159MOL0     C21357   2.069  11.672   4.558  0.3748 -0.2405  1.4030
  159MOL0     C21358   2.136  11.762   4.481  0.8234  0.0167  0.5978
  159MOL0     C21359   2.277  11.735   4.445  0.2199 -0.0815 -0.2973
  159MOL0     O21360   2.325  11.606   4.472 -0.1170  0.2752  0.6169
  159MOL0     C21361   2.451  11.585   4.440  0.2710  0.2022  0.2305
  159MOL0     C21362   2.557  11.646   4.511  0.2883 -0.0621 -0.1726
  159MOL0     C21363   2.690  11.612   4.483 -0.3183  0.3791  0.1887
  159MOL0     C21364   2.716  11.506   4.389  0.3929  0.4683  0.2233
  159MOL0     O21365   2.840  11.448   4.363  0.6958 -0.5759 -0.1306
  159MOL0     C21366   2.928  11.458   4.480 -0.3177  0.2114  0.2480
  159MOL0     C21367   3.044  11.358   4.457  0.4459 -0.1488  0.3955
  159MOL0     C21368   3.163  11.397   4.546  0.9353 -1.3221  0.5060
  159MOL0     C21369   3.284  11.315   4.511  0.7946  0.3119 -0.6102
  159MOL0     C21370   3.411  11.351   4.594  0.3672  0.1283  0.3812
  159MOL0     C21371   3.546  11.308   4.535  0.4541 -0.0188  0.0883
  159MOL0     C21372   3.661  11.385   4.594  0.3396  0.3105 -0.4673
  159MOL0     C21373   3.796  11.357   4.523  0.2125  0.0524  0.2717
  159MOL0    Cl21374   3.921  11.335   4.647 -0.1873 -0.3693 -0.0436
  159MOL0     C21375   2.613  11.450   4.317 -0.3320 -0.0549  0.3431
  159MOL0     C21376   2.479  11.489   4.348 -0.6541 -0.5222  0.2079
  159MOL0     O21377   2.345  11.818   4.384 -0.0510 -0.4786  0.1856
  159MOL0     C21378   2.072  11.888   4.448  0.0273 -0.0001  0.1601
  159MOL0     C21379   1.937  11.908   4.476 -0.4385 -0.1861  0.8520
  159MOL0     N21380   1.365  11.709   4.202 -0.6355  0.1539 -0.5519
  159MOL0     N21381   1.431  11.643   4.115  0.7313 -0.4719  0.7989
  159MOL0     C21382   2.452  11.289   3.573  0.1260 -0.3247  0.2003
  159MOL0     C21383   2.569  11.301   3.492 -0.1164 -0.7836 -0.4413
  159MOL0     C21384   2.896  11.354   3.208  0.3037 -0.8519  0.1672
  159MOL0     C21385   2.922  11.491   3.212  0.8454 -0.5262  0.2810
  159MOL0     C21386   3.044  11.545   3.175  0.1961  0.0405 -0.7925
  159MOL0     C21387   3.150  11.469   3.151 -0.9695 -0.2271 -1.1614
  159MOL0     O21388   3.270  11.532   3.122 -0.5443  0.6209 -0.0907
  159MOL0     C21389   3.398  11.464   3.105 -0.4268  0.3922  0.0053
  159MOL0     C21390   3.458  11.467   3.251 -0.0866  0.2437 -0.9435
  159MOL0     C21391   3.575  11.375   3.272 -0.1457 -0.4088  0.2820
  159MOL0     C21392   3.687  11.372   3.163 -0.3141 -0.2127  0.6247
  159MOL0     C21393   3.755  11.497   3.146 -0.1480 -0.4832 -0.1634
  159MOL0     C21394   3.822  11.600   3.131 -0.6941 -0.1830 -0.8564
  159MOL0     C21395   3.129  11.328   3.141  0.1172  0.1369 -0.5551
  159MOL0     C21396   3.004  11.272   3.172  0.7046  0.3112  0.5861
  159MOL0     C21397   2.987  11.128   3.142 -0.1408  0.7361 -0.5822
  159MOL0     H21398   2.450  11.523   3.281  1.1026 -1.8516 -1.1400
  159MOL0     H21399   2.247  11.504   3.426 -1.2282 -2.2123 -1.0668
  159MOL0     H21400   2.201  11.542   3.657  0.4513  1.2527  0.8276
  159MOL0     H21401   2.059  11.429   3.702  0.1891  3.3088 -5.1677
  159MOL0     H21402   2.299  11.466   3.857 -0.4986  1.0581 -1.1419
  159MOL0     H21403   2.165  11.352   3.890 -0.4415 -1.0534 -2.4932
  159MOL0     H21404   2.010  11.561   3.886  0.5516 -0.1044 -1.0789
  159MOL0     H21405   2.150  11.657   3.892  0.8804 -1.2197 -1.8711
  159MOL0     H21406   2.075  11.448   4.108 -1.7139  1.1525  0.0805
  159MOL0     H21407   2.218  11.556   4.108  0.4551  1.6852 -1.5893
  159MOL0     H21408   2.008  11.596   4.257  1.2114 -2.8714 -1.0241
  159MOL0     H21409   2.099  11.735   4.182 -1.9681  1.4609 -1.4653
  159MOL0     H21410   1.861  11.781   4.164 -0.2444  0.1328 -0.1071
  159MOL0     H21411   1.922  11.745   4.001  0.8775 -1.5218 -1.2153
  159MOL0     H21412   1.754  11.562   4.182 -1.4605  2.2978  0.9609
  159MOL0     H21413   1.812  11.512   4.022 -0.6113  1.7953 -0.1791
  159MOL0     H21414   1.686  11.745   3.946  0.6958  1.3960  2.4408
  159MOL0     H21415   1.613  11.585   3.961 -1.9919  1.0548  0.3692
  159MOL0     H21416   1.630  11.886   4.220 -0.8963 -0.4744  2.1710
  159MOL0     H21417   1.452  11.987   4.369  0.9521 -0.5310 -3.8173
  159MOL0     H21418   1.286  11.921   4.340 -0.6505  0.2105 -1.1212
  159MOL0     H21419   1.367  11.874   4.591  1.0023 -1.6074  1.2490
  159MOL0     H21420   1.347  11.719   4.478  1.3001 -1.1040 -1.2100
  159MOL0     H21421   1.571  11.697   4.463 -2.1897 -3.2380  0.8496
  159MOL0     H21422   1.545  11.726   4.636 -0.3370  2.0535  1.5549
  159MOL0     H21423   1.598  11.974   4.580  0.1424 -0.2318 -0.4676
  159MOL0     H21424   1.664  11.922   4.434 -1.6364 -0.7798 -0.8855
  159MOL0     H21425   1.877  11.639   4.671  0.5994  0.4768  1.0665
  159MOL0     H21426   2.129  11.591   4.600  0.6448 -1.7093 -1.5508
  159MOL0     H21427   2.518  11.713   4.587  0.3817 -1.3220  1.0211
  159MOL0     H21428   2.772  11.659   4.536 -1.2338  0.8050  1.2700
  159MOL0     H21429   2.972  11.559   4.473  1.2668 -0.4791 -0.2685
  159MOL0     H21430   2.877  11.439   4.575 -0.8653 -1.4389 -0.3433
  159MOL0     H21431   3.013  11.255   4.474  2.0516 -0.8622 -0.8173
  159MOL0     H21432   3.074  11.373   4.353 -2.4077  1.1717 -0.3453
  159MOL0     H21433   3.176  11.505   4.538 -0.4458 -1.2920 -2.2940
  159MOL0     H21434   3.144  11.378   4.652 -1.8559 -0.9194  0.1424
  159MOL0     H21435   3.305  11.331   4.404  0.6701  1.6469 -0.4577
  159MOL0     H21436   3.253  11.213   4.536  1.0748 -0.0511 -1.6831
  159MOL0     H21437   3.409  11.293   4.687  2.0485 -2.8872 -1.2958
  159MOL0     H21438   3.422  11.457   4.619 -0.3144  0.2025  0.3860
  159MOL0     H21439   3.550  11.200   4.555 -1.3136 -0.4336 -1.4456
  159MOL0     H21440   3.541  11.334   4.429  0.2247 -0.2053  0.0515
  159MOL0     H21441   3.673  11.359   4.700  2.2747  0.4615 -0.5970
  159MOL0     H21442   3.640  11.492   4.599 -0.5979  0.0736  1.6876
  159MOL0     H21443   3.802  11.269   4.458  1.2872  1.9143 -2.3088
  159MOL0     H21444   3.811  11.448   4.464 -0.0165 -0.3111 -0.3614
  159MOL0     H21445   2.628  11.382   4.234 -0.8552  1.2902 -0.8920
  159MOL0     H21446   2.394  11.459   4.288 -0.9355  3.1960 -1.5323
  159MOL0     H21447   2.122  11.965   4.390 -0.3023  0.5967  0.6539
  159MOL0     H21448   1.895  12.002   4.442 -1.4328 -1.5488 -2.0638
  159MOL0     H21449   2.463  11.221   3.657  0.7694  1.7038  1.8304
  159MOL0     H21450   2.659  11.248   3.521  1.1877  0.8495 -1.3129
  159MOL0     H21451   2.847  11.566   3.237 -0.2089 -1.9747  1.7245
  159MOL0     H21452   3.050  11.653   3.181  0.2840 -0.0001 -0.1271
  159MOL0     H21453   3.469  11.512   3.038  1.4927 -3.6900 -1.1755
  159MOL0     H21454   3.379  11.360   3.077  0.8312 -0.3157  1.6076
  159MOL0     H21455   3.382  11.445   3.326  1.8231 -1.0086  0.7007
  159MOL0     H21456   3.501  11.564   3.278 -0.0924  0.8861 -3.0603
  159MOL0     H21457   3.542  11.271   3.281 -2.7800  0.3127 -0.1876
  159MOL0     H21458   3.615  11.398   3.371  0.6078 -1.4393  0.2276
  159MOL0     H21459   3.765  11.306   3.203  0.3146  1.6215  2.6286
  159MOL0     H21460   3.649  11.329   3.070  2.1408 -0.5132 -0.3087
  159MOL0     H21461   3.900  11.673   3.115  2.6579 -2.7355  2.2331
  159MOL0     H21462   3.198  11.259   3.093  1.2427  1.8914 -1.5337
  159MOL0     H21463   2.888  11.098   3.110  0.7678 -2.2166 -0.9013
  159MOL0     H21464   3.063  11.099   3.068 -1.8123 -2.0053 -1.3485
  159MOL0     H21465   3.005  11.067   3.231  2.1097  0.1154 -1.3954
  160MOL0     O21466   1.294   4.389   1.617  0.3944 -0.7141 -0.3746
  160MOL0     C21467   1.325   4.436   1.509 -0.1674  0.6365 -0.0557
  160MOL0     O21468   1.376   4.366   1.406 -0.4450 -0.0187 -0.3567
  160MOL0     C21469   1.405   4.234   1.397 -0.7493  0.0039  0.1881
  160MOL0     C21470   1.357   4.142   1.487 -0.0333 -0.4846 -0.9821
  160MOL0     C21471   1.392   4.004   1.469  0.4080  0.3771  0.0206
  160MOL0     C21472   1.480   3.963   1.365 -0.2271  0.6687 -0.3205
  160MOL0     O21473   1.499   3.827   1.365  1.0610  0.2053  0.2455
  160MOL0     C21474   1.587   3.757   1.282 -0.0896 -0.6352 -0.5528
  160MOL0     C21475   1.647   3.623   1.336 -0.2543 -0.2384  0.4875
  160MOL0     C21476   1.716   3.548   1.225  0.5162  0.4598  0.7401
  160MOL0     C21477   1.809   3.442   1.285  0.0559 -0.6432  0.5166
  160MOL0     C21478   1.900   3.378   1.176 -0.3904  0.3232  0.1963
  160MOL0     C21479   1.833   3.325   1.051 -1.1721  0.0815  0.9756
  160MOL0     C21480   1.948   3.265   0.961 -0.3763  0.3783  0.3677
  160MOL0     C21481   1.894   3.192   0.832 -0.1101  1.3737  0.3838
  160MOL0     N21482   2.003   3.136   0.756  0.5773 -0.3406  0.3690
  160MOL0     C21483   2.054   3.012   0.769  0.2961  0.4080 -0.4231
  160MOL0     C21484   2.139   2.990   0.664  0.2193 -0.0626  0.4782
  160MOL0     C21485   2.206   2.855   0.632 -0.5465  0.0798  0.2305
  160MOL0     C21486   2.361   2.881   0.641  0.3204 -0.3348 -0.3565
  160MOL0     C21487   2.444   2.752   0.615  0.1836  0.1925  0.1546
  160MOL0     C21488   2.595   2.784   0.604 -0.2237 -0.2086 -0.7610
  160MOL0     O21489   2.681   2.683   0.655  0.2523  0.8479 -0.1598
  160MOL0     C21490   2.817   2.704   0.644  0.1813 -0.2788 -0.5544
  160MOL0     C21491   2.878   2.834   0.647  0.3602  0.2217 -0.4237
  160MOL0     C21492   3.017   2.844   0.672 -1.2877  0.1234 -0.0113
  160MOL0     C21493   3.092   2.720   0.680 -0.0185 -0.1039 -0.4678
  160MOL0     C21494   3.248   2.722   0.703  0.8648 -0.3141 -0.7063
  160MOL0     O21495   3.286   2.841   0.763  0.4300  0.0951 -0.0408
  160MOL0     C21496   3.415   2.851   0.805  0.8570  0.6800 -0.3675
  160MOL0     C21497   3.453   2.810   0.928  0.5072 -0.4037 -0.1556
  160MOL0     C21498   3.589   2.801   0.963  0.7983  0.2569 -0.2454
  160MOL0     C21499   3.684   2.824   0.870  0.3355  0.6887  0.9031
  160MOL0     O21500   3.812   2.815   0.909 -0.9564  0.4129 -0.3239
  160MOL0     C21501   3.917   2.834   0.821 -0.1261  0.9565  0.0338
  160MOL0     C21502   3.939   2.979   0.801  0.3354  0.1681 -0.0336
  160MOL0     C21503   4.030   3.045   0.896 -0.3118  0.0245 -0.1106
  160MOL0     C21504   4.028   3.203   0.891 -0.0513 -0.0865  0.6877
  160MOL0     C21505   4.134   3.263   0.979 -0.4690  0.1555  1.2219
  160MOL0     C21506   4.087   3.273   1.126  0.4802  0.0016  0.3495
  160MOL0     C21507   4.199   3.305   1.217 -0.9292 -0.2381 -0.6008
  160MOL0     C21508   4.272   3.435   1.183  0.6278  0.3528  0.5910
  160MOL0    Cl21509   4.162   3.575   1.204 -0.2301  0.1615  0.0654
  160MOL0     C21510   3.648   2.862   0.737 -0.6706  0.1138 -0.6089
  160MOL0     C21511   3.508   2.881   0.711 -0.0051  0.3026  0.3558
  160MOL0     O21512   3.321   2.626   0.674 -0.0638  0.3722 -0.1303
  160MOL0     C21513   3.025   2.596   0.649  0.2858 -0.0690 -0.4045
  160MOL0     C21514   2.887   2.587   0.644 -0.1160  0.6003 -0.7540
  160MOL0     N21515   2.128   3.106   0.587  0.3847  0.0524 -0.2905
  160MOL0     N21516   2.050   3.190   0.642  0.9557 -0.7403  0.6931
  160MOL0     C21517   1.540   4.058   1.281  0.6625  0.3082  1.2448
  160MOL0     C21518   1.496   4.190   1.297  0.0427 -0.0856 -0.6658
  160MOL0     C21519   1.282   4.579   1.477  1.2276 -0.4082 -0.6903
  160MOL0     C21520   1.232   4.608   1.342 -0.5129 -0.3587 -0.2399
  160MOL0     C21521   1.189   4.734   1.302 -0.7116  0.3235 -0.1257
  160MOL0     C21522   1.200   4.845   1.394 -0.3760 -0.2242 -0.0409
  160MOL0     O21523   1.159   4.974   1.353 -0.2722  0.1413 -0.7977
  160MOL0     C21524   1.130   4.986   1.210  0.2262 -1.0045 -0.4514
  160MOL0     C21525   1.121   5.140   1.170 -0.6997  0.3794 -0.3608
  160MOL0     C21526   1.219   5.226   1.248  0.0368 -0.4073 -0.8330
  160MOL0     C21527   1.367   5.189   1.228 -0.0146 -0.4231 -0.6998
  160MOL0     C21528   1.410   5.215   1.090 -0.2486  0.3299 -0.7221
  160MOL0     C21529   1.448   5.250   0.982  0.0792 -0.1013  0.1169
  160MOL0     C21530   1.246   4.813   1.523  0.6776  0.6831  0.7631
  160MOL0     C21531   1.283   4.684   1.569  0.2629 -0.2722 -0.0359
  160MOL0     C21532   1.314   4.674   1.716  1.3713  0.0965 -0.7135
  160MOL0     H21533   1.294   4.162   1.572 -0.4539  2.3084 -1.8465
  160MOL0     H21534   1.363   3.929   1.543  2.8670  0.4407  1.1432
  160MOL0     H21535   1.533   3.742   1.188  2.6085 -0.0135 -2.2952
  160MOL0     H21536   1.678   3.816   1.273 -0.8994  0.3981 -2.4664
  160MOL0     H21537   1.572   3.562   1.389 -0.0888 -1.1469 -0.2954
  160MOL0     H21538   1.718   3.643   1.417 -0.9217 -0.2915  1.1005
  160MOL0     H21539   1.772   3.614   1.159  1.7016 -2.4659 -1.3948
  160MOL0     H21540   1.640   3.497   1.166  1.0196 -0.0442  0.5210
  160MOL0     H21541   1.875   3.491   1.357  0.8500 -1.2654  0.2350
  160MOL0     H21542   1.745   3.369   1.336 -1.6736  1.2687  1.2337
  160MOL0     H21543   1.970   3.459   1.154 -1.4793  1.4994  0.9129
  160MOL0     H21544   1.959   3.299   1.223  0.7130 -0.3670 -2.2129
  160MOL0     H21545   1.763   3.247   1.083  0.7685 -2.4381 -0.5021
  160MOL0     H21546   1.771   3.401   1.003 -1.3197 -1.1014 -0.8184
  160MOL0     H21547   2.022   3.208   1.017  0.2020  2.3831  1.7995
  160MOL0     H21548   2.007   3.353   0.932  3.4961 -1.4127  2.1268
  160MOL0     H21549   1.827   3.111   0.862 -0.2041  2.0483  2.0916
  160MOL0     H21550   1.847   3.265   0.766 -0.7121  1.2105  0.6301
  160MOL0     H21551   2.036   2.941   0.850  0.5820  1.1189  0.2772
  160MOL0     H21552   2.178   2.775   0.700 -0.5459  0.2872  0.4772
  160MOL0     H21553   2.185   2.828   0.528 -2.0380  1.1261  0.2224
  160MOL0     H21554   2.393   2.958   0.571  0.4375 -1.2798 -1.3737
  160MOL0     H21555   2.394   2.913   0.740  0.6843  2.6990 -1.3515
  160MOL0     H21556   2.404   2.689   0.535  0.6902  0.0295  0.0198
  160MOL0     H21557   2.435   2.695   0.708  0.4927 -2.1594 -1.1623
  160MOL0     H21558   2.606   2.880   0.655 -2.9548 -0.2228  0.0479
  160MOL0     H21559   2.601   2.782   0.495 -1.4844 -1.3739 -0.8355
  160MOL0     H21560   2.819   2.924   0.638  1.6072  1.1063  0.0166
  160MOL0     H21561   3.074   2.937   0.680 -1.0125  0.0749 -1.1559
  160MOL0     H21562   3.378   2.771   0.996 -0.1381 -0.2614 -0.7716
  160MOL0     H21563   3.614   2.788   1.068  2.2077  2.9195 -0.1758
  160MOL0     H21564   4.007   2.791   0.868  1.0834  1.0565 -2.0569
  160MOL0     H21565   3.906   2.782   0.725 -3.1064  3.8443 -1.3595
  160MOL0     H21566   3.985   2.988   0.703  4.4193 -0.0040  1.6580
  160MOL0     H21567   3.846   3.038   0.801  2.3815  3.6706 -0.4701
  160MOL0     H21568   4.017   3.007   0.997  0.4871  1.3537  0.5243
  160MOL0     H21569   4.130   3.015   0.862 -1.7179 -1.8427 -2.9398
  160MOL0     H21570   3.928   3.240   0.919 -0.0379 -0.1076  0.7650
  160MOL0     H21571   4.058   3.225   0.789  0.0739  3.0597  1.2798
  160MOL0     H21572   4.157   3.366   0.950  1.6160 -0.3723  0.8698
  160MOL0     H21573   4.223   3.200   0.981 -0.5722 -0.1854 -1.4412
  160MOL0     H21574   4.013   3.348   1.151  1.1271 -0.0337  2.5786
  160MOL0     H21575   4.053   3.175   1.160  0.3419 -0.1810 -0.3035
  160MOL0     H21576   4.281   3.233   1.221  1.3440  2.1054 -1.5691
  160MOL0     H21577   4.158   3.300   1.318 -0.0103  1.0314 -0.1319
  160MOL0     H21578   4.363   3.448   1.242  2.4440  2.9868 -2.4344
  160MOL0     H21579   4.316   3.434   1.083 -0.1634 -0.7223  0.2370
  160MOL0     H21580   3.730   2.895   0.674 -0.2328  1.6850  0.6906
  160MOL0     H21581   3.482   2.900   0.608  1.1547 -0.3761 -0.0775
  160MOL0     H21582   3.082   2.504   0.645 -0.8763 -0.7806 -0.9173
  160MOL0     H21583   2.844   2.488   0.650  0.8659  0.1450 -1.0788
  160MOL0     H21584   1.610   4.035   1.201 -0.4188  3.1211 -0.6670
  160MOL0     H21585   1.555   4.257   1.234 -0.6493 -1.3954 -2.8097
  160MOL0     H21586   1.235   4.535   1.262  0.7191 -1.4075  0.7112
  160MOL0     H21587   1.155   4.742   1.200 -2.4345 -0.0818  0.3877
  160MOL0     H21588   1.037   4.930   1.198 -0.1394 -1.1655  2.3978
  160MOL0     H21589   1.201   4.937   1.142 -0.2623 -0.5101 -1.3317
  160MOL0     H21590   1.018   5.172   1.188 -0.6467 -0.2369  1.2311
  160MOL0     H21591   1.149   5.143   1.065  0.5456 -2.1459 -0.1748
  160MOL0     H21592   1.186   5.225   1.353 -0.1150  2.6515 -0.7471
  160MOL0     H21593   1.206   5.333   1.229 -1.2114 -0.5405 -0.8109
  160MOL0     H21594   1.432   5.244   1.297 -1.0913  0.3111 -0.2409
  160MOL0     H21595   1.378   5.082   1.252 -1.2779 -0.8558 -1.9330
  160MOL0     H21596   1.490   5.292   0.893 -1.0209 -0.0121 -0.3770
  160MOL0     H21597   1.244   4.885   1.605  1.1623  0.8422  0.6389
  160MOL0     H21598   1.372   4.759   1.754 -0.4002  0.2715  1.8845
  160MOL0     H21599   1.218   4.694   1.765  1.9379  0.6986  0.1856
  160MOL0     H21600   1.356   4.576   1.738 -1.3481 -0.6239  2.0496
  161MOL0     O21601   8.235   1.991   4.483  0.5005 -1.3087 -0.9337
  161MOL0     C21602   8.222   2.047   4.371  0.0272  0.5315 -0.8518
  161MOL0     O21603   8.316   2.131   4.328  0.6333 -0.5065  0.5275
  161MOL0     C21604   8.412   2.174   4.415  0.6466  0.0640  0.2055
  161MOL0     C21605   8.541   2.161   4.381  0.0697  0.2190 -0.3716
  161MOL0     C21606   8.647   2.211   4.455 -0.5405 -0.2091 -0.0096
  161MOL0     C21607   8.621   2.276   4.582  0.5562  0.2847 -1.1896
  161MOL0     O21608   8.718   2.318   4.669 -0.6000  0.1399 -0.5453
  161MOL0     C21609   8.827   2.393   4.616  0.2261 -1.1805 -0.7050
  161MOL0     C21610   8.790   2.546   4.579  0.2114  0.2957  0.6180
  161MOL0     C21611   8.816   2.641   4.693 -0.5472 -0.1707  0.0644
  161MOL0     C21612   8.969   2.642   4.725  0.5099  0.2922 -0.5945
  161MOL0     C21613   8.988   2.704   4.858  1.3127  0.5221  1.0052
  161MOL0     C21614   9.135   2.706   4.893  0.0626 -0.1230 -1.2801
  161MOL0     C21615   9.236   2.763   4.789  0.0869  0.3091  0.1487
  161MOL0     C21616   9.374   2.758   4.838 -0.8135 -0.3612 -0.9341
  161MOL0     N21617   9.411   2.855   4.941 -0.0383 -0.0541  0.0514
  161MOL0     C21618   9.454   2.985   4.919 -0.0484 -0.7215 -0.1515
  161MOL0     C21619   9.468   3.039   5.043 -0.6292  0.0748  0.6004
  161MOL0     C21620   9.500   3.182   5.065  0.0414 -0.5279  0.3727
  161MOL0     C21621   9.652   3.208   5.092 -0.1975  0.0894  0.0021
  161MOL0     C21622   9.742   3.193   4.968  0.3043 -0.0912 -0.2569
  161MOL0     C21623   9.893   3.211   4.988 -0.5149  0.6405 -0.6508
  161MOL0     O21624   9.948   3.088   5.040  0.2421 -0.1390 -0.8002
  161MOL0     C21625  10.086   3.081   5.055 -0.5397  0.5233 -0.4582
  161MOL0     C21626  10.139   2.952   5.086  1.3663  0.4516  1.0659
  161MOL0     C21627  10.274   2.925   5.114 -0.5821  0.0601 -0.4555
  161MOL0     C21628  10.366   3.030   5.103  1.0554  0.2400 -0.5198
  161MOL0     C21629  10.511   3.004   5.132  0.5070 -0.1149 -0.1792
  161MOL0     O21630  10.596   3.113   5.140  0.0994  0.0329  0.1305
  161MOL0     C21631  10.724   3.071   5.146 -0.7522  0.3035  0.8138
  161MOL0     C21632  10.789   3.014   5.038  0.0128  0.4777 -0.8417
  161MOL0     C21633  10.922   2.985   5.053  0.1265 -0.2688  0.3922
  161MOL0     C21634  10.994   3.035   5.163  0.7990  0.3360 -0.9946
  161MOL0     O21635  11.125   3.004   5.173  0.3198 -0.2800  0.4757
  161MOL0     C21636  11.208   3.016   5.054 -0.0742 -0.3544  0.2076
  161MOL0     C21637  11.353   3.028   5.102  0.1310 -0.2874  0.0904
  161MOL0     C21638  11.359   3.153   5.185 -0.8414 -0.1168  0.2346
  161MOL0     C21639  11.499   3.225   5.160  1.0308  0.4810  0.0771
  161MOL0     C21640  11.517   3.341   5.254 -0.5514  0.5481  0.4170
  161MOL0     C21641  11.539   3.307   5.405  0.1367  0.4960 -0.5554
  161MOL0     C21642  11.652   3.210   5.418  0.1323  0.3121 -0.3891
  161MOL0     C21643  11.676   3.187   5.569 -0.4473  0.7522  0.0987
  161MOL0    Cl21644  11.836   3.102   5.576  0.3573 -0.3722 -0.1762
  161MOL0     C21645  10.933   3.096   5.272  0.0250  0.1202 -0.7076
  161MOL0     C21646  10.796   3.114   5.261 -0.7354  0.1881  0.6025
  161MOL0     O21647  10.542   2.890   5.157  0.1981 -0.4337 -0.3399
  161MOL0     C21648  10.325   3.153   5.065 -0.6140  0.5507 -0.5037
  161MOL0     C21649  10.182   3.179   5.039 -0.2013 -0.2363 -0.4018
  161MOL0     N21650   9.428   2.946   5.137 -0.3995 -0.5666  0.8239
  161MOL0     N21651   9.386   2.841   5.074  0.4495 -0.5221  0.3402
  161MOL0     C21652   8.487   2.281   4.625 -0.0372 -0.0796 -0.0927
  161MOL0     C21653   8.385   2.230   4.540 -0.6267 -0.2919  0.2575
  161MOL0     C21654   8.113   1.996   4.282  0.8531  0.3024 -0.4618
  161MOL0     C21655   8.064   2.082   4.189  0.0172 -0.4057  0.9478
  161MOL0     C21656   7.954   2.054   4.102 -0.0831  0.1362  0.2223
  161MOL0     C21657   7.893   1.929   4.105 -0.5711 -1.0889  0.0531
  161MOL0     O21658   7.789   1.887   4.030 -0.0205  0.0364  0.2119
  161MOL0     C21659   7.762   1.949   3.903 -0.1331 -0.2200  0.6436
  161MOL0     C21660   7.664   2.071   3.915 -0.1174 -0.5073 -0.0679
  161MOL0     C21661   7.512   2.046   3.945  0.0217  0.3444  0.5474
  161MOL0     C21662   7.477   2.022   4.092  0.7675  0.9947  0.4580
  161MOL0     C21663   7.516   1.888   4.141 -0.2002 -0.8897  0.2242
  161MOL0     C21664   7.549   1.788   4.195 -0.0698  0.6295 -1.7910
  161MOL0     C21665   7.949   1.837   4.202  0.8452 -0.9772  0.0234
  161MOL0     C21666   8.049   1.867   4.300 -0.7770 -0.4094 -0.3176
  161MOL0     C21667   8.093   1.756   4.397  0.7641 -1.1983  1.2619
  161MOL0     H21668   8.558   2.120   4.282  0.0595  3.7409 -1.9943
  161MOL0     H21669   8.747   2.201   4.413 -0.4382 -0.8057  0.3762
  161MOL0     H21670   8.900   2.372   4.694 -1.0697 -1.6961  0.4133
  161MOL0     H21671   8.867   2.330   4.535  1.9194 -2.0440  0.7383
  161MOL0     H21672   8.688   2.536   4.541  0.0639  0.2724  1.0198
  161MOL0     H21673   8.857   2.576   4.498  1.1492  2.0084  1.9481
  161MOL0     H21674   8.752   2.613   4.778 -0.2539  0.0954  0.3760
  161MOL0     H21675   8.787   2.744   4.673  0.3940  0.5717  2.2660
  161MOL0     H21676   9.000   2.537   4.736 -3.1293 -0.8982 -0.5097
  161MOL0     H21677   9.009   2.690   4.635 -0.1418 -2.0948 -2.2791
  161MOL0     H21678   8.955   2.808   4.858 -0.5599 -0.0071 -0.6236
  161MOL0     H21679   8.927   2.650   4.931 -2.7918  3.2161 -0.1100
  161MOL0     H21680   9.145   2.763   4.986  0.5845  0.1573 -1.5004
  161MOL0     H21681   9.169   2.603   4.912  3.8179  1.2553  0.5394
  161MOL0     H21682   9.210   2.867   4.766 -2.2912  0.9388  4.6759
  161MOL0     H21683   9.239   2.704   4.697  1.0578 -1.3208  1.1858
  161MOL0     H21684   9.397   2.657   4.876 -1.7603 -0.6864 -1.1902
  161MOL0     H21685   9.427   2.771   4.743  0.1641  1.9982 -0.1292
  161MOL0     H21686   9.460   3.022   4.817 -0.1243  0.4187  0.2415
  161MOL0     H21687   9.470   3.239   4.976 -0.0559 -1.1600 -0.0068
  161MOL0     H21688   9.438   3.223   5.145  2.3426  0.6704  1.6523
  161MOL0     H21689   9.660   3.313   5.122  0.4961  0.3591 -1.0536
  161MOL0     H21690   9.700   3.128   5.150  2.3077 -0.1465 -2.1540
  161MOL0     H21691   9.712   3.273   4.900 -0.7520 -0.7785 -0.6327
  161MOL0     H21692   9.715   3.098   4.919 -0.2497 -1.4389  2.4441
  161MOL0     H21693   9.913   3.292   5.059  1.5397  0.5208 -1.0242
  161MOL0     H21694   9.941   3.253   4.899 -1.1060  2.1028 -0.3024
  161MOL0     H21695  10.067   2.871   5.087  0.7517  0.9669  0.1620
  161MOL0     H21696  10.310   2.827   5.145  2.4926  0.0956 -3.3897
  161MOL0     H21697  10.729   2.980   4.955 -2.4519  1.9292  0.2399
  161MOL0     H21698  10.969   2.928   4.973 -2.0194 -1.6614  0.0478
  161MOL0     H21699  11.205   2.921   4.999  2.2265 -1.0676  1.1925
  161MOL0     H21700  11.180   3.099   4.988 -2.5731 -1.6238 -0.4655
  161MOL0     H21701  11.360   2.935   5.160 -3.2115  0.2164  1.5107
  161MOL0     H21702  11.419   3.033   5.014 -1.3960  0.4586 -1.0626
  161MOL0     H21703  11.284   3.228   5.158  0.7673  0.8035 -2.0180
  161MOL0     H21704  11.347   3.123   5.289  0.1903  0.0505  0.4099
  161MOL0     H21705  11.500   3.253   5.054  0.6292 -0.5253 -0.2111
  161MOL0     H21706  11.584   3.157   5.170  0.4169 -0.7327 -2.1725
  161MOL0     H21707  11.429   3.406   5.243 -1.2059 -0.5581 -1.2156
  161MOL0     H21708  11.607   3.394   5.222  0.3732 -2.8275 -3.2494
  161MOL0     H21709  11.568   3.405   5.445  0.1792  0.3816 -0.3050
  161MOL0     H21710  11.446   3.264   5.443  1.2006 -3.1209 -1.6357
  161MOL0     H21711  11.742   3.249   5.368  0.4032 -2.3719 -2.2071
  161MOL0     H21712  11.636   3.116   5.364  1.4383 -1.5593  2.2424
  161MOL0     H21713  11.692   3.277   5.629  1.0311  0.9773 -0.5903
  161MOL0     H21714  11.594   3.132   5.615  1.1115  0.8179  3.2630
  161MOL0     H21715  10.994   3.134   5.354  2.5602 -1.8846 -1.5502
  161MOL0     H21716  10.756   3.169   5.346 -0.4432  0.6209  0.4615
  161MOL0     H21717  10.393   3.235   5.041 -0.9510  0.9283 -0.1895
  161MOL0     H21718  10.160   3.283   5.017  0.3375 -0.4210 -1.9150
  161MOL0     H21719   8.470   2.314   4.727  1.2439 -1.4421  0.6081
  161MOL0     H21720   8.284   2.249   4.575  0.5530  3.0021  2.3701
  161MOL0     H21721   8.104   2.183   4.181 -1.5131  0.0953 -1.5775
  161MOL0     H21722   7.916   2.137   4.043 -2.4713 -0.8675  0.2529
  161MOL0     H21723   7.730   1.874   3.830 -1.0347  1.8264 -1.1708
  161MOL0     H21724   7.857   1.977   3.857 -0.8522 -0.1921 -0.8566
  161MOL0     H21725   7.678   2.128   3.823 -1.6604 -2.5945 -1.6949
  161MOL0     H21726   7.698   2.135   3.997 -0.6783 -0.6249  0.2626
  161MOL0     H21727   7.482   1.960   3.883 -3.4608  2.3523 -0.8524
  161MOL0     H21728   7.451   2.129   3.909 -2.1355 -1.6816 -0.8452
  161MOL0     H21729   7.509   2.102   4.159 -1.4205  3.2166 -0.9449
  161MOL0     H21730   7.369   2.033   4.109  0.8949 -0.8342  2.9029
  161MOL0     H21731   7.578   1.692   4.234 -1.2529  1.1312  0.5098
  161MOL0     H21732   7.906   1.738   4.187 -2.2513 -0.0792  1.9289
  161MOL0     H21733   8.112   1.777   4.503  2.0471 -0.5062  0.9200
  161MOL0     H21734   8.001   1.696   4.394 -1.2692  1.7133  0.7639
  161MOL0     H21735   8.178   1.701   4.357  0.6866  0.2787 -1.1976
  162MOL0     O21736   5.834   8.417   6.364 -0.0585 -0.2500  0.8079
  162MOL0     C21737   5.776   8.401   6.464  1.2753  0.0178  0.2668
  162MOL0     O21738   5.832   8.368   6.580  0.2241  1.0597 -0.2790
  162MOL0     C21739   5.966   8.350   6.605  0.1074  0.1099  0.0420
  162MOL0     C21740   5.995   8.334   6.740 -0.3365 -0.5503  0.1740
  162MOL0     C21741   6.125   8.306   6.771 -0.7138 -0.0061  0.3458
  162MOL0     C21742   6.229   8.291   6.677 -0.2676 -1.2326 -0.0902
  162MOL0     O21743   6.346   8.296   6.729 -0.1518 -0.3352 -0.1572
  162MOL0     C21744   6.466   8.309   6.655  0.0439 -0.0653 -0.2769
  162MOL0     C21745   6.589   8.331   6.758  0.4354 -0.0330 -0.0517
  162MOL0     C21746   6.634   8.200   6.818  0.6298  0.5214  0.7328
  162MOL0     C21747   6.766   8.211   6.885  0.5771  0.3220  0.2044
  162MOL0     C21748   6.811   8.082   6.943  0.6513  0.5181  0.2362
  162MOL0     C21749   6.940   8.094   7.022 -0.6990  0.7701 -0.4918
  162MOL0     C21750   7.010   7.952   7.046  0.4271  0.0188  0.3594
  162MOL0     C21751   6.921   7.856   7.139  0.4007 -0.1963 -0.4310
  162MOL0     N21752   6.934   7.908   7.281  0.0717  0.5368  0.5167
  162MOL0     C21753   7.040   7.889   7.366  0.4506  0.8541 -0.4288
  162MOL0     C21754   7.015   7.958   7.475  0.2699  0.1988  0.3544
  162MOL0     C21755   7.121   7.960   7.574  0.8715  0.3448 -0.9418
  162MOL0     C21756   7.231   8.074   7.555  0.2111  0.1656  0.9466
  162MOL0     C21757   7.184   8.221   7.551  0.3365 -0.9812  0.8088
  162MOL0     C21758   7.093   8.261   7.661  0.4166  0.4537 -0.1735
  162MOL0     O21759   7.143   8.274   7.796  0.9789 -0.4004  0.3003
  162MOL0     C21760   7.254   8.349   7.805 -0.6736  1.0761  1.4041
  162MOL0     C21761   7.365   8.284   7.865 -0.1515 -0.2225 -0.0064
  162MOL0     C21762   7.490   8.345   7.880 -0.2261 -0.6501 -0.4406
  162MOL0     C21763   7.498   8.477   7.830 -0.0247  0.0569  0.5380
  162MOL0     C21764   7.630   8.548   7.837  0.6652  0.2246 -0.4516
  162MOL0     O21765   7.648   8.653   7.750 -0.3286  0.8585 -0.6353
  162MOL0     C21766   7.773   8.708   7.750 -0.5931  0.2492 -0.5678
  162MOL0     C21767   7.880   8.651   7.679  0.9785  0.7213 -0.5408
  162MOL0     C21768   8.006   8.707   7.689 -0.1743  0.6828  0.0016
  162MOL0     C21769   8.025   8.822   7.769  0.8196  0.0941  0.3071
  162MOL0     O21770   8.149   8.887   7.783  0.0799  0.3452 -0.3084
  162MOL0     C21771   8.187   8.955   7.656  0.4705  0.8087  0.4077
  162MOL0     C21772   8.333   8.971   7.660  0.1046  0.4167  0.4845
  162MOL0     C21773   8.421   8.851   7.644 -0.5351  0.7088  0.7024
  162MOL0     C21774   8.556   8.876   7.598 -0.4298  0.3741  0.1729
  162MOL0     C21775   8.637   8.745   7.585 -0.8050  0.3426 -0.7038
  162MOL0     C21776   8.654   8.661   7.716 -0.6510 -0.1813 -0.3095
  162MOL0     C21777   8.741   8.537   7.688 -0.3922  0.6175  0.1790
  162MOL0     C21778   8.772   8.464   7.821  0.6161  0.5537 -0.4546
  162MOL0    Cl21779   8.911   8.362   7.792  0.2100 -0.1630  0.3595
  162MOL0     C21780   7.915   8.877   7.843  0.8427  0.1485  0.3810
  162MOL0     C21781   7.783   8.818   7.823 -0.0119  0.0464 -0.1059
  162MOL0     O21782   7.718   8.506   7.909  0.3373  0.6411  0.1807
  162MOL0     C21783   7.388   8.544   7.764 -0.9932 -0.2680 -0.3131
  162MOL0     C21784   7.263   8.481   7.761 -0.3242 -0.3480 -0.0860
  162MOL0     N21785   6.902   8.032   7.456  0.4970 -0.2962 -0.2129
  162MOL0     N21786   6.857   8.001   7.334 -0.5454 -0.1071  0.6229
  162MOL0     C21787   6.203   8.299   6.542  0.3698  1.2588  0.4878
  162MOL0     C21788   6.066   8.329   6.504 -0.1127  0.0687 -0.0418
  162MOL0     C21789   5.627   8.434   6.475 -0.9419 -0.5757  0.2253
  162MOL0     C21790   5.567   8.488   6.361  0.1411 -0.3891  0.3097
  162MOL0     C21791   5.428   8.517   6.361  0.0414  0.4720 -0.5046
  162MOL0     C21792   5.352   8.483   6.470 -0.4371 -1.4439  0.6255
  162MOL0     O21793   5.213   8.497   6.475  1.3028 -0.7492 -0.1157
  162MOL0     C21794   5.141   8.548   6.368 -0.0362 -0.2108 -0.3310
  162MOL0     C21795   4.994   8.590   6.393  0.3847  0.2977 -1.2053
  162MOL0     C21796   4.890   8.605   6.279 -0.4718 -0.7861 -1.1140
  162MOL0     C21797   4.880   8.745   6.209 -0.1151  0.6804  0.1054
  162MOL0     C21798   5.009   8.777   6.147 -0.5399 -0.5013  0.0387
  162MOL0     C21799   5.101   8.834   6.094  0.1517 -0.6005  1.0901
  162MOL0     C21800   5.414   8.428   6.576  0.1361  0.6502  0.4215
  162MOL0     C21801   5.550   8.406   6.586  0.5332 -0.4953 -0.1506
  162MOL0     C21802   5.588   8.342   6.717  0.1155  0.0769 -1.0495
  162MOL0     H21803   5.915   8.333   6.813 -0.3920 -0.7664  0.1126
  162MOL0     H21804   6.165   8.321   6.871 -3.9584  1.0061  1.6234
  162MOL0     H21805   6.464   8.215   6.598 -1.0803 -1.6084  2.1434
  162MOL0     H21806   6.451   8.395   6.589  0.5616  0.3189  0.1013
  162MOL0     H21807   6.566   8.398   6.842 -0.1817  2.5370 -2.1180
  162MOL0     H21808   6.675   8.369   6.702  1.3645 -1.5514  0.3034
  162MOL0     H21809   6.656   8.132   6.736 -1.7716 -1.1068  1.3204
  162MOL0     H21810   6.557   8.164   6.887  1.1856 -1.3558  0.4301
  162MOL0     H21811   6.841   8.246   6.814  0.3362 -2.3507 -1.5438
  162MOL0     H21812   6.763   8.280   6.969  4.3972 -1.1075  1.7545
  162MOL0     H21813   6.736   8.050   7.016 -0.1589  1.0386 -0.3451
  162MOL0     H21814   6.829   8.009   6.863  1.1768  2.1985 -1.2527
  162MOL0     H21815   7.017   8.148   6.965  0.0320 -2.2050 -2.6109
  162MOL0     H21816   6.928   8.138   7.121 -0.4428  0.4032 -0.2957
  162MOL0     H21817   7.102   7.965   7.103 -0.7061  3.3774  1.6760
  162MOL0     H21818   7.027   7.907   6.948 -2.1591  1.6414 -0.9352
  162MOL0     H21819   6.820   7.853   7.099  1.1604  0.7256 -2.5152
  162MOL0     H21820   6.960   7.755   7.121 -1.5248 -0.6118 -2.7208
  162MOL0     H21821   7.127   7.830   7.339  2.7639  2.2572  3.1735
  162MOL0     H21822   7.078   7.962   7.674  0.5726 -1.2335 -1.0022
  162MOL0     H21823   7.174   7.864   7.574 -2.3515 -1.6086 -0.3155
  162MOL0     H21824   7.312   8.062   7.628  2.6301  1.5414 -1.3420
  162MOL0     H21825   7.284   8.063   7.460 -0.6085  1.8526  0.2595
  162MOL0     H21826   7.119   8.240   7.465 -1.5072 -0.5245  2.2619
  162MOL0     H21827   7.272   8.285   7.538 -1.2754  0.7942 -2.7682
  162MOL0     H21828   7.005   8.197   7.670  0.1284  1.0796  1.7953
  162MOL0     H21829   7.052   8.358   7.629 -0.6538 -0.5368 -2.0152
  162MOL0     H21830   7.349   8.193   7.922 -2.0269  2.2680  3.9279
  162MOL0     H21831   7.571   8.296   7.932 -2.6984 -1.2299  3.2867
  162MOL0     H21832   7.853   8.565   7.618 -4.6822  3.3015 -2.3730
  162MOL0     H21833   8.097   8.671   7.642 -0.8490 -2.8020  1.0672
  162MOL0     H21834   8.160   8.887   7.574 -2.1596  0.7648  1.2277
  162MOL0     H21835   8.131   9.049   7.646  1.5180  1.2939 -1.4142
  162MOL0     H21836   8.368   9.039   7.581  1.9596 -0.2788  0.6433
  162MOL0     H21837   8.360   9.029   7.749  0.4131  0.0211  0.6494
  162MOL0     H21838   8.424   8.808   7.744 -2.3803 -2.1571 -0.3422
  162MOL0     H21839   8.365   8.783   7.578 -1.5497  0.0200  2.2157
  162MOL0     H21840   8.607   8.943   7.668  0.6155 -0.2482  0.0380
  162MOL0     H21841   8.555   8.928   7.502  2.6904 -0.0312 -0.1912
  162MOL0     H21842   8.731   8.785   7.548 -1.7959  1.9557 -1.5579
  162MOL0     H21843   8.602   8.673   7.510 -0.2052 -2.5999  1.6145
  162MOL0     H21844   8.708   8.717   7.792  2.1587 -1.3982 -1.2445
  162MOL0     H21845   8.558   8.630   7.758 -1.3089  0.4163 -1.3081
  162MOL0     H21846   8.832   8.568   7.635 -0.0858  0.5168  0.6455
  162MOL0     H21847   8.683   8.471   7.623 -0.4328  0.9024 -0.0801
  162MOL0     H21848   8.794   8.527   7.908  0.7735  0.2694 -0.2857
  162MOL0     H21849   8.694   8.393   7.848  0.4490  1.5783  2.0474
  162MOL0     H21850   7.930   8.963   7.907  0.7797 -0.8904  1.8441
  162MOL0     H21851   7.706   8.854   7.892  1.5803  0.7630  1.3901
  162MOL0     H21852   7.400   8.642   7.717  1.0148 -0.4417 -0.2739
  162MOL0     H21853   7.184   8.536   7.710  0.4582  0.7145 -0.2030
  162MOL0     H21854   6.281   8.286   6.468 -0.0659  1.1383  0.0436
  162MOL0     H21855   6.045   8.326   6.398 -0.4584 -1.1489  0.0459
  162MOL0     H21856   5.619   8.518   6.271 -2.1540  0.3418 -0.8545
  162MOL0     H21857   5.377   8.554   6.273  0.7637  1.7393 -0.4288
  162MOL0     H21858   5.143   8.487   6.277 -3.3239 -2.1003  0.6794
  162MOL0     H21859   5.188   8.640   6.332  1.2736 -1.5835 -2.3470
  162MOL0     H21860   4.999   8.690   6.438  0.2578 -0.5560  0.8263
  162MOL0     H21861   4.950   8.525   6.469  2.9018 -1.2989 -0.9755
  162MOL0     H21862   4.795   8.595   6.332 -0.2523 -0.4124 -0.6370
  162MOL0     H21863   4.891   8.518   6.214  0.8350 -1.0564 -0.7583
  162MOL0     H21864   4.803   8.728   6.133 -0.3739 -0.9523  0.6668
  162MOL0     H21865   4.843   8.820   6.279 -1.6614  1.9288 -1.9383
  162MOL0     H21866   5.180   8.893   6.052 -0.1588 -0.5675  0.5333
  162MOL0     H21867   5.344   8.406   6.656  0.4148  1.5012  0.9083
  162MOL0     H21868   5.631   8.245   6.691  2.7964  1.7075 -3.2033
  162MOL0     H21869   5.661   8.410   6.760 -0.6410 -0.1120  0.6229
  162MOL0     H21870   5.496   8.331   6.776  0.5396  0.5830 -0.2805
  163MOL0     O21871   7.648   9.758   3.769  0.0406 -0.4633 -0.8497
  163MOL0     C21872   7.587   9.699   3.681  0.5413  0.8026 -0.9019
  163MOL0     O21873   7.636   9.656   3.564  0.3075  0.2767  0.0679
  163MOL0     C21874   7.772   9.670   3.539  0.3788  0.4029 -0.0862
  163MOL0     C21875   7.822   9.771   3.467 -0.5557 -0.3090 -0.5329
  163MOL0     C21876   7.961   9.779   3.446  0.5192  0.2741  0.3372
  163MOL0     C21877   8.044   9.686   3.500  0.7924 -0.3848 -0.4368
  163MOL0     O21878   8.174   9.702   3.465  0.4851  0.0744  0.7044
  163MOL0     C21879   8.244   9.578   3.454 -0.8766  0.1711 -0.1228
  163MOL0     C21880   8.377   9.613   3.390 -1.2753 -0.6044 -0.4732
  163MOL0     C21881   8.481   9.698   3.469  0.4805  0.4672  0.4341
  163MOL0     C21882   8.620   9.689   3.413  0.0011  0.2960 -0.2074
  163MOL0     C21883   8.721   9.760   3.495 -0.5359  0.4923 -0.0218
  163MOL0     C21884   8.701   9.912   3.508  0.1949 -0.5219 -0.1078
  163MOL0     C21885   8.824   9.977   3.558 -0.4657 -0.0923 -0.5628
  163MOL0     C21886   8.947   9.979   3.468 -0.0926 -0.5564 -0.4114
  163MOL0     N21887   9.065   9.899   3.514  0.4005  0.1034  0.2482
  163MOL0     C21888   9.145   9.947   3.606 -0.0312 -0.6231 -0.1392
  163MOL0     C21889   9.244   9.861   3.607  0.5471 -0.0363  0.4699
  163MOL0     C21890   9.367   9.864   3.698  0.4270 -0.3763  0.2074
  163MOL0     C21891   9.494   9.825   3.632 -0.2515  0.0433  0.8061
  163MOL0     C21892   9.534   9.909   3.508  0.3782  0.5207 -0.1192
  163MOL0     C21893   9.688   9.892   3.482 -0.0783 -1.1071 -0.2142
  163MOL0     O21894   9.768   9.893   3.608 -0.0140  0.1681  0.0231
  163MOL0     C21895   9.907   9.897   3.600  0.0330 -0.3008  0.5563
  163MOL0     C21896   9.987   9.907   3.484  0.6208 -0.0529 -0.2561
  163MOL0     C21897  10.122   9.897   3.494 -0.8446  0.1506  0.7385
  163MOL0     C21898  10.188   9.858   3.611  0.3978 -0.2921  0.0114
  163MOL0     C21899  10.333   9.834   3.624 -0.4470 -0.0239  0.8292
  163MOL0     O21900  10.389   9.805   3.751  0.0850 -0.2405 -0.3662
  163MOL0     C21901  10.528   9.813   3.773  0.6711 -0.0014  1.2103
  163MOL0     C21902  10.625   9.888   3.703 -0.0095  0.7122  0.1604
  163MOL0     C21903  10.763   9.861   3.727 -0.3924  0.4055  1.0107
  163MOL0     C21904  10.802   9.763   3.816 -0.5278  0.2330 -0.3310
  163MOL0     O21905  10.941   9.742   3.801  0.8807 -0.0220 -0.2704
  163MOL0     C21906  10.996   9.642   3.879 -0.1732  0.4484  0.2054
  163MOL0     C21907  11.149   9.653   3.879  0.1407  0.4748 -0.5860
  163MOL0     C21908  11.211   9.525   3.929 -0.7088 -0.9198 -0.5455
  163MOL0     C21909  11.365   9.509   3.916  0.2954 -0.6933  0.3217
  163MOL0     C21910  11.419   9.386   3.981 -0.0715  0.0346 -0.2716
  163MOL0     C21911  11.558   9.395   4.030 -0.1606 -0.0898 -0.8834
  163MOL0     C21912  11.659   9.366   3.918 -0.1474  0.5950 -0.3780
  163MOL0     C21913  11.720   9.229   3.930 -0.4493  1.2465  0.4647
  163MOL0    Cl21914  11.812   9.210   4.090 -0.5369  0.1096  0.0510
  163MOL0     C21915  10.707   9.696   3.892 -0.2472 -0.9086 -0.1281
  163MOL0     C21916  10.570   9.719   3.871 -1.2625 -0.5135  0.4799
  163MOL0     O21917  10.402   9.859   3.524  0.3628 -0.2501  0.5296
  163MOL0     C21918  10.108   9.845   3.727  0.0887 -0.4474  0.0054
  163MOL0     C21919   9.970   9.870   3.715 -0.7633 -0.1714 -0.9943
  163MOL0     N21920   9.218   9.766   3.505 -0.1452 -0.3103 -0.3542
  163MOL0     N21921   9.105   9.787   3.449  0.1034  0.2014 -0.9243
  163MOL0     C21922   7.988   9.588   3.578 -0.0945 -0.1017  0.6033
  163MOL0     C21923   7.852   9.582   3.604 -0.0725  0.6126  0.0128
  163MOL0     C21924   7.445   9.649   3.700 -0.9682 -0.8491  0.3778
  163MOL0     C21925   7.400   9.532   3.628  0.1879  0.4834  0.0055
  163MOL0     C21926   7.273   9.475   3.649 -0.0997  0.1890 -0.9596
  163MOL0     C21927   7.187   9.524   3.749  0.6745 -0.8067  0.0291
  163MOL0     O21928   7.068   9.476   3.784  0.4619  0.2744 -0.0144
  163MOL0     C21929   7.044   9.344   3.742 -1.4814  1.1971  0.3550
  163MOL0     C21930   6.913   9.299   3.803 -0.1732  0.0118  0.1364
  163MOL0     C21931   6.928   9.306   3.959 -0.6022  0.1149 -0.1564
  163MOL0     C21932   6.799   9.308   4.032 -0.4518  0.5885  0.2999
  163MOL0     C21933   6.715   9.187   4.002  0.1141  0.8079 -0.1953
  163MOL0     C21934   6.647   9.090   3.979 -0.1677 -0.8564 -0.1947
  163MOL0     C21935   7.227   9.641   3.813 -0.0386  0.3075  1.0321
  163MOL0     C21936   7.355   9.703   3.796 -0.6339  0.0962  0.6177
  163MOL0     C21937   7.358   9.832   3.875  0.5153 -0.0000 -0.3418
  163MOL0     H21938   7.751   9.848   3.440  0.1457  1.3169  1.9210
  163MOL0     H21939   7.999   9.857   3.379 -1.2029  0.2055 -0.7876
  163MOL0     H21940   8.269   9.529   3.548  1.2509 -2.4456 -1.8772
  163MOL0     H21941   8.197   9.502   3.391  0.4736 -1.6879  1.0283
  163MOL0     H21942   8.351   9.663   3.296 -1.4388  1.1906  0.4943
  163MOL0     H21943   8.420   9.514   3.369 -0.0245 -0.1856 -0.0039
  163MOL0     H21944   8.482   9.654   3.569  3.2372 -1.8756 -0.5070
  163MOL0     H21945   8.447   9.802   3.472 -0.4270  0.1825  0.2931
  163MOL0     H21946   8.646   9.585   3.392  2.5336  0.8272 -0.0494
  163MOL0     H21947   8.610   9.740   3.317  1.9084  0.1789 -0.5158
  163MOL0     H21948   8.709   9.716   3.595 -2.3991 -0.0026 -0.4415
  163MOL0     H21949   8.820   9.728   3.461 -0.6876  0.2674 -0.2522
  163MOL0     H21950   8.667   9.951   3.412 -0.7072  0.7203  0.6696
  163MOL0     H21951   8.616   9.929   3.576 -0.2082  3.6530 -1.3303
  163MOL0     H21952   8.856   9.914   3.642 -0.0493 -1.1911 -1.5222
  163MOL0     H21953   8.787  10.074   3.592  1.4484  0.3169  0.4768
  163MOL0     H21954   8.916   9.947   3.368 -3.4751 -1.6309  0.8539
  163MOL0     H21955   8.980  10.083   3.464 -3.8484  0.8476  0.9961
  163MOL0     H21956   9.133  10.036   3.667 -2.3021 -0.6865 -0.4259
  163MOL0     H21957   9.395   9.964   3.733  2.6301 -1.2142  1.0335
  163MOL0     H21958   9.346   9.811   3.792  0.8269  1.4371  1.3696
  163MOL0     H21959   9.576   9.813   3.703  0.5732 -1.7637 -0.3412
  163MOL0     H21960   9.472   9.723   3.598 -0.2051  0.5691 -0.9382
  163MOL0     H21961   9.515  10.011   3.543 -2.0570 -0.2048  0.8942
  163MOL0     H21962   9.485   9.885   3.413 -0.5551  0.8521  0.2634
  163MOL0     H21963   9.722   9.985   3.437  1.7092 -1.0727  1.0919
  163MOL0     H21964   9.705   9.810   3.412 -0.3831  0.6809 -2.5061
  163MOL0     H21965   9.931   9.909   3.392  0.9213  2.7208 -0.4700
  163MOL0     H21966  10.179   9.899   3.402  1.0029 -1.0015  1.7996
  163MOL0     H21967  10.607   9.969   3.632 -0.7512  0.6766  0.3013
  163MOL0     H21968  10.845   9.916   3.682 -1.3178 -0.3728 -1.8024
  163MOL0     H21969  10.972   9.648   3.985  3.6905  1.3946  1.1751
  163MOL0     H21970  10.963   9.544   3.842 -0.3940  0.2062  1.0204
  163MOL0     H21971  11.191   9.680   3.782  1.4407 -0.9922 -0.4726
  163MOL0     H21972  11.183   9.739   3.937  1.2068 -0.5355  0.3363
  163MOL0     H21973  11.199   9.530   4.038  1.5657  0.9849 -0.3026
  163MOL0     H21974  11.149   9.445   3.888 -1.0656 -1.4170  0.9149
  163MOL0     H21975  11.413   9.600   3.956  0.1541 -0.0555 -0.8960
  163MOL0     H21976  11.405   9.504   3.814  1.3844  1.4511  0.5886
  163MOL0     H21977  11.408   9.295   3.921  2.5221 -0.0843 -0.7055
  163MOL0     H21978  11.349   9.375   4.065 -0.2111  2.6535  0.0246
  163MOL0     H21979  11.570   9.492   4.078 -0.9491 -0.1299 -0.5851
  163MOL0     H21980  11.558   9.318   4.108 -2.5935  0.8714  0.1843
  163MOL0     H21981  11.730   9.449   3.915 -2.8575  3.0752 -2.4011
  163MOL0     H21982  11.610   9.382   3.821 -0.5225  1.1863 -0.1003
  163MOL0     H21983  11.645   9.149   3.930 -0.2817  1.0844  0.0460
  163MOL0     H21984  11.785   9.203   3.846 -1.8351 -3.1771  0.5180
  163MOL0     H21985  10.740   9.608   3.946 -0.9966 -1.0301  0.1465
  163MOL0     H21986  10.501   9.654   3.924 -1.2417  0.3974  1.6724
  163MOL0     H21987  10.163   9.821   3.818  2.3145  1.3138 -0.7694
  163MOL0     H21988   9.908   9.853   3.803 -1.3595 -0.7898 -1.5271
  163MOL0     H21989   8.056   9.521   3.630  0.0792  0.5021  1.1658
  163MOL0     H21990   7.811   9.511   3.675 -0.1879  2.0481  1.4537
  163MOL0     H21991   7.463   9.478   3.559  0.0334  0.7725 -0.3691
  163MOL0     H21992   7.244   9.394   3.584 -3.2459 -0.2557  0.8167
  163MOL0     H21993   7.124   9.282   3.784  0.8500  2.3312 -2.2002
  163MOL0     H21994   7.053   9.328   3.634  2.2043  3.0694  0.2379
  163MOL0     H21995   6.889   9.196   3.774  1.8862 -0.6699  0.6575
  163MOL0     H21996   6.831   9.362   3.768  0.7565  1.9875  1.3406
  163MOL0     H21997   6.993   9.388   3.991 -0.4003 -0.6578  1.4929
  163MOL0     H21998   6.976   9.210   3.979 -0.3154  0.5541  1.3911
  163MOL0     H21999   6.809   9.315   4.141 -2.1381  0.1728  0.5155
  163MOL0     H22000   6.749   9.399   3.997 -1.8175 -0.6874 -1.1993
  163MOL0     H22001   6.592   9.002   3.955  1.0211 -2.3818  2.2628
  163MOL0     H22002   7.152   9.677   3.883  1.0779  1.7652  1.5293
  163MOL0     H22003   7.462   9.862   3.889  0.4591 -0.6366  1.7602
  163MOL0     H22004   7.299   9.913   3.831  1.8428  0.8167 -0.6508
  163MOL0     H22005   7.316   9.805   3.973  2.2654  0.7989  0.6746
  164MOL0     O22006   0.908   6.018   1.230  0.0574 -0.6808 -0.0839
  164MOL0     C22007   0.900   6.014   1.108 -0.2646 -0.3017  0.2097
  164MOL0     O22008   0.966   6.093   1.023  0.5059  0.6205 -0.2253
  164MOL0     C22009   1.094   6.137   1.042  0.0895  1.0984 -0.1341
  164MOL0     C22010   1.152   6.210   0.937 -0.5323  0.7210 -0.6827
  164MOL0     C22011   1.274   6.265   0.955 -0.6381  0.1442  0.1774
  164MOL0     C22012   1.351   6.235   1.079  0.0527 -1.0590  1.2006
  164MOL0     O22013   1.476   6.291   1.101 -0.6065 -0.3051 -0.4087
  164MOL0     C22014   1.514   6.411   1.023 -0.2636 -0.1230  0.1106
  164MOL0     C22015   1.431   6.536   1.066  0.3961  0.5602 -0.1262
  164MOL0     C22016   1.528   6.654   1.085  0.2012  0.5294 -0.3445
  164MOL0     C22017   1.461   6.784   1.139  0.5146  0.0637 -0.0512
  164MOL0     C22018   1.566   6.896   1.181 -0.3194 -0.4903 -0.3858
  164MOL0     C22019   1.629   6.971   1.064  0.5946  0.5791 -0.7052
  164MOL0     C22020   1.757   7.051   1.096 -1.5790 -0.1440  0.4492
  164MOL0     C22021   1.845   7.120   0.986  0.3328 -0.0337 -0.3062
  164MOL0     N22022   1.768   7.238   0.931 -0.8339 -0.1554  0.0145
  164MOL0     C22023   1.783   7.367   0.972  0.1158  0.0319  0.4107
  164MOL0     C22024   1.733   7.441   0.865  1.1934 -0.2317 -0.0830
  164MOL0     C22025   1.726   7.589   0.870  0.5598 -0.0460  0.7557
  164MOL0     C22026   1.645   7.647   0.981  0.4222  0.3843 -0.8671
  164MOL0     C22027   1.492   7.664   0.954 -0.3559 -0.0961  0.2415
  164MOL0     C22028   1.412   7.533   0.945 -0.1340  0.0810 -1.4188
  164MOL0     O22029   1.407   7.486   1.080  0.3772  0.0966 -0.2349
  164MOL0     C22030   1.336   7.371   1.104  0.3421 -0.4355 -0.3732
  164MOL0     C22031   1.359   7.260   1.030  0.1876  0.4162 -0.0400
  164MOL0     C22032   1.283   7.147   1.050  0.3874  0.3954 -0.1696
  164MOL0     C22033   1.179   7.145   1.151  0.6863  0.1370  0.2423
  164MOL0     C22034   1.092   7.026   1.190 -0.2334  0.1069 -0.3349
  164MOL0     O22035   1.086   6.918   1.100 -0.1514  0.2393 -0.7707
  164MOL0     C22036   1.009   6.812   1.130  1.5936  0.2184 -0.6545
  164MOL0     C22037   1.054   6.685   1.107 -0.5010  0.2863 -1.1223
  164MOL0     C22038   0.981   6.568   1.141 -0.2405  0.3714 -0.4714
  164MOL0     C22039   0.853   6.580   1.195 -0.8541  0.4012  0.6441
  164MOL0     O22040   0.771   6.478   1.225  0.2022  0.0670 -1.0221
  164MOL0     C22041   0.782   6.362   1.145  0.4282 -0.0464  0.5086
  164MOL0     C22042   0.649   6.290   1.124 -0.1350  0.0129  0.2484
  164MOL0     C22043   0.598   6.220   1.248 -0.5019 -0.2797  0.4705
  164MOL0     C22044   0.480   6.131   1.202  0.1451 -0.2630 -0.7931
  164MOL0     C22045   0.425   6.050   1.326 -0.1148 -0.5228 -0.1239
  164MOL0     C22046   0.333   5.941   1.273 -0.0388 -0.4183 -0.0656
  164MOL0     C22047   0.242   5.887   1.377 -0.0528 -0.1726 -0.6087
  164MOL0     C22048   0.151   5.787   1.314 -0.4753  0.0660  1.1387
  164MOL0    Cl22049   0.237   5.643   1.241  0.0650  0.0228 -0.4120
  164MOL0     C22050   0.800   6.705   1.215  0.8451  0.1724  0.6500
  164MOL0     C22051   0.871   6.817   1.189 -0.3040 -0.6795  0.6449
  164MOL0     O22052   1.027   7.027   1.300 -0.1167  0.1473 -0.3809
  164MOL0     C22053   1.167   7.262   1.225  0.8735  0.1964 -0.3936
  164MOL0     C22054   1.239   7.374   1.204  0.1172 -0.7445 -0.2683
  164MOL0     N22055   1.695   7.362   0.759  0.2534 -0.2209 -0.1155
  164MOL0     N22056   1.719   7.237   0.803  0.2461 -0.2189 -0.7862
  164MOL0     C22057   1.301   6.154   1.173  0.3975  0.4852  0.3115
  164MOL0     C22058   1.172   6.096   1.152 -0.2318 -0.9848  0.0708
  164MOL0     C22059   0.794   5.932   1.041 -0.0564  0.5111  0.8737
  164MOL0     C22060   0.733   5.827   1.112  0.2950  0.5960  0.2593
  164MOL0     C22061   0.626   5.749   1.060  0.2807  0.3796 -0.0482
  164MOL0     C22062   0.590   5.767   0.933  0.7549 -0.3663  1.2363
  164MOL0     O22063   0.502   5.677   0.882  0.0285 -0.7036 -0.0148
  164MOL0     C22064   0.433   5.702   0.763  0.1386 -0.3408 -0.3479
  164MOL0     C22065   0.350   5.586   0.724 -0.8125 -0.1797 -0.1909
  164MOL0     C22066   0.260   5.525   0.839  0.1179  0.3108 -0.4363
  164MOL0     C22067   0.166   5.631   0.892 -0.5137  0.4097 -0.3287
  164MOL0     C22068   0.046   5.597   0.966 -0.4991  0.3130 -0.8193
  164MOL0     C22069  -0.066   5.564   1.006  0.2695  0.0618  1.1427
  164MOL0     C22070   0.647   5.875   0.856 -0.0424  0.3743  0.1091
  164MOL0     C22071   0.748   5.953   0.902  0.1147 -0.1339  0.1042
  164MOL0     C22072   0.811   6.054   0.800 -0.4504  0.5568  0.3592
  164MOL0     H22073   1.098   6.236   0.846 -3.0588 -1.5205  0.0318
  164MOL0     H22074   1.305   6.325   0.870 -0.3351  1.8209  1.4303
  164MOL0     H22075   1.618   6.438   1.041 -0.0831  1.5081 -2.8073
  164MOL0     H22076   1.501   6.386   0.917 -2.5085  0.5632  0.1701
  164MOL0     H22077   1.382   6.512   1.161  1.9193 -0.0870  0.5394
  164MOL0     H22078   1.355   6.573   0.998  2.0889  2.0146 -1.3110
  164MOL0     H22079   1.569   6.687   0.989  1.2137  1.1600  0.2985
  164MOL0     H22080   1.599   6.629   1.164 -1.4911 -0.0918  1.0740
  164MOL0     H22081   1.400   6.825   1.058 -1.9324 -1.7993  0.7199
  164MOL0     H22082   1.397   6.766   1.226  1.7802 -1.1319  0.6702
  164MOL0     H22083   1.512   6.962   1.250 -0.4809  0.8258 -1.7108
  164MOL0     H22084   1.644   6.848   1.241 -1.5447 -1.3821  0.5342
  164MOL0     H22085   1.649   6.897   0.986  0.3251  1.9559 -2.1247
  164MOL0     H22086   1.550   7.030   1.017  2.6988  4.1286 -0.0994
  164MOL0     H22087   1.830   6.999   1.159  1.7891  4.2534  0.7282
  164MOL0     H22088   1.725   7.143   1.146  0.1597  0.8711 -0.2197
  164MOL0     H22089   1.936   7.152   1.037 -0.9032 -0.8911  2.6775
  164MOL0     H22090   1.863   7.055   0.899 -0.6837  1.0050 -1.3247
  164MOL0     H22091   1.825   7.393   1.068  2.5238 -0.9988 -0.3040
  164MOL0     H22092   1.829   7.626   0.864  1.3644 -2.3752 -1.9999
  164MOL0     H22093   1.697   7.634   0.774  0.5900  1.0976  1.2637
  164MOL0     H22094   1.643   7.583   1.070 -1.7336  1.9771  0.3470
  164MOL0     H22095   1.687   7.745   1.004  0.4135 -0.0142  1.0718
  164MOL0     H22096   1.489   7.719   0.859 -0.4454 -3.5908 -1.9489
  164MOL0     H22097   1.449   7.719   1.038 -0.3681  1.2032 -0.5840
  164MOL0     H22098   1.448   7.456   0.876  1.1949 -1.5909  0.9771
  164MOL0     H22099   1.311   7.568   0.921 -1.2498  1.1143  3.5447
  164MOL0     H22100   1.436   7.255   0.953 -0.1441 -1.3199 -0.2827
  164MOL0     H22101   1.296   7.056   0.992 -0.7723  0.1309 -0.0309
  164MOL0     H22102   1.156   6.661   1.078 -0.2278 -2.3861  1.4785
  164MOL0     H22103   1.024   6.469   1.134  1.8919  1.0222  1.8237
  164MOL0     H22104   0.815   6.384   1.043 -0.6832 -1.8297 -0.2806
  164MOL0     H22105   0.852   6.286   1.181  2.2881  1.5845  0.5290
  164MOL0     H22106   0.577   6.367   1.094 -0.0040 -0.9686 -3.0027
  164MOL0     H22107   0.654   6.216   1.044 -1.6654  1.9478 -1.7700
  164MOL0     H22108   0.686   6.166   1.286 -0.8275 -0.1031  1.4789
  164MOL0     H22109   0.567   6.293   1.322 -1.0033  1.2207 -1.1504
  164MOL0     H22110   0.509   6.044   1.143  3.8980 -1.0811  1.9306
  164MOL0     H22111   0.403   6.194   1.156 -0.3379 -1.5739 -1.8252
  164MOL0     H22112   0.382   6.122   1.395 -0.6924 -2.9564  2.1983
  164MOL0     H22113   0.504   5.999   1.383 -0.0694 -0.6250 -0.2765
  164MOL0     H22114   0.285   5.971   1.179 -0.8536  1.0998  0.7945
  164MOL0     H22115   0.400   5.861   1.241  2.4801  1.3993  0.3855
  164MOL0     H22116   0.183   5.970   1.416 -0.2309  1.2668 -3.5923
  164MOL0     H22117   0.301   5.831   1.449  1.5458  0.4563 -1.3621
  164MOL0     H22118   0.070   5.768   1.385  0.0468 -0.4608  1.6093
  164MOL0     H22119   0.116   5.838   1.224 -0.0427 -0.0479  0.9031
  164MOL0     H22120   0.700   6.696   1.256  0.1778 -3.0457 -1.3152
  164MOL0     H22121   0.823   6.913   1.200 -0.8059 -0.7747 -0.4999
  164MOL0     H22122   1.095   7.271   1.306  1.0629  0.9025 -0.2995
  164MOL0     H22123   1.238   7.473   1.249 -0.9641 -0.4235 -0.9542
  164MOL0     H22124   1.351   6.124   1.265  1.2104  1.2660  0.1382
  164MOL0     H22125   1.140   6.021   1.224 -0.0506 -1.5247 -0.4031
  164MOL0     H22126   0.760   5.809   1.215  0.8158  2.8047  0.5439
  164MOL0     H22127   0.602   5.665   1.124  1.2243  0.4007  0.3494
  164MOL0     H22128   0.500   5.712   0.677  1.7993  2.2651  1.1272
  164MOL0     H22129   0.380   5.797   0.769 -0.8342 -0.9384  1.3798
  164MOL0     H22130   0.419   5.506   0.696 -1.1499 -0.9714  1.1247
  164MOL0     H22131   0.283   5.619   0.645 -1.8957  2.5045  1.7105
  164MOL0     H22132   0.323   5.488   0.920 -1.3322 -2.4288 -0.4496
  164MOL0     H22133   0.198   5.442   0.802 -0.5109  0.4684  0.2419
  164MOL0     H22134   0.224   5.697   0.957 -2.2830  0.0203  1.7686
  164MOL0     H22135   0.135   5.698   0.812 -1.9238 -1.3710 -1.3336
  164MOL0     H22136  -0.165   5.535   1.035 -1.1376  0.1588 -2.8813
  164MOL0     H22137   0.602   5.875   0.757 -2.1495 -4.9070  0.7477
  164MOL0     H22138   0.739   6.052   0.718 -1.4266 -0.9706  1.1867
  164MOL0     H22139   0.812   6.158   0.832 -0.4060  0.1676  1.6922
  164MOL0     H22140   0.910   6.013   0.781 -0.9605 -0.5895  0.0389
  165MOL0     O22141   0.413   0.746   2.168 -0.9692 -0.7755 -0.6040
  165MOL0     C22142   0.503   0.665   2.140  0.3511  0.0100  0.0388
  165MOL0     O22143   0.640   0.689   2.142  0.1104 -0.1776  0.4700
  165MOL0     C22144   0.689   0.820   2.162  0.2452  0.3599 -0.5323
  165MOL0     C22145   0.694   0.868   2.293  0.0056 -0.5407  0.4071
  165MOL0     C22146   0.744   0.997   2.314  0.3979  0.3083  0.1024
  165MOL0     C22147   0.793   1.075   2.212  0.3878  0.0994 -0.1841
  165MOL0     O22148   0.847   1.200   2.225 -0.4139 -0.1996 -0.3074
  165MOL0     C22149   0.826   1.280   2.341 -0.3956  0.3040  0.2794
  165MOL0     C22150   0.951   1.367   2.345  0.5562 -0.1442  0.1543
  165MOL0     C22151   0.949   1.488   2.247 -0.4547 -0.5144 -0.1775
  165MOL0     C22152   1.090   1.554   2.246  0.0652  0.0191  0.9107
  165MOL0     C22153   1.098   1.690   2.175 -0.2395  0.5010 -0.1900
  165MOL0     C22154   1.245   1.727   2.140 -0.2668  0.5380  0.1830
  165MOL0     C22155   1.342   1.751   2.265 -0.1770  0.1096  0.3356
  165MOL0     C22156   1.399   1.612   2.303  0.1425 -0.3620 -1.0084
  165MOL0     N22157   1.518   1.613   2.391  0.2089 -0.0961  1.0308
  165MOL0     C22158   1.623   1.681   2.355  0.6382 -0.1378  0.1271
  165MOL0     C22159   1.719   1.631   2.445 -0.2342 -0.1953 -0.4486
  165MOL0     C22160   1.853   1.695   2.470  0.1864  0.2808  0.0399
  165MOL0     C22161   1.852   1.844   2.482  1.2501 -0.0372 -0.0701
  165MOL0     C22162   1.993   1.912   2.503 -0.8358 -0.5494 -0.1820
  165MOL0     C22163   1.978   2.061   2.477 -0.2910  0.3172 -0.7484
  165MOL0     O22164   2.101   2.123   2.495 -0.1622  0.0158  0.1392
  165MOL0     C22165   2.179   2.125   2.380  0.4680  0.2173  0.7752
  165MOL0     C22166   2.159   2.081   2.246 -0.1367 -0.6521  0.0636
  165MOL0     C22167   2.240   2.107   2.132  0.2976  0.4844 -0.0531
  165MOL0     C22168   2.358   2.173   2.153 -0.0178 -0.5849  0.1664
  165MOL0     C22169   2.452   2.206   2.042 -0.2086 -0.5697 -0.0036
  165MOL0     O22170   2.417   2.157   1.923 -0.3892  0.1713  0.4171
  165MOL0     C22171   2.504   2.159   1.813 -0.2053  0.9353 -0.4497
  165MOL0     C22172   2.443   2.160   1.685  0.1459 -0.1292 -0.2368
  165MOL0     C22173   2.518   2.138   1.576 -0.3446  0.2304 -0.0270
  165MOL0     C22174   2.659   2.120   1.576  0.1628 -0.0154 -0.4788
  165MOL0     O22175   2.725   2.104   1.457 -0.3447 -0.5152  0.1784
  165MOL0     C22176   2.864   2.115   1.442 -0.3399 -0.2198  0.4288
  165MOL0     C22177   2.933   1.978   1.458  0.6317 -0.2793 -0.0727
  165MOL0     C22178   3.066   1.973   1.379 -0.1735  0.2861  0.2689
  165MOL0     C22179   3.156   1.852   1.402  0.8401  0.5522 -0.3254
  165MOL0     C22180   3.275   1.846   1.298  0.8588 -0.3222  0.1032
  165MOL0     C22181   3.364   1.725   1.307  0.3542 -0.0891  0.1071
  165MOL0     C22182   3.508   1.738   1.255  0.0880 -0.1124  0.6476
  165MOL0     C22183   3.582   1.602   1.262 -0.4726 -0.3873  0.1594
  165MOL0    Cl22184   3.757   1.622   1.222  0.5900 -0.2881 -0.0416
  165MOL0     C22185   2.721   2.139   1.702 -0.1177 -0.1401  0.8398
  165MOL0     C22186   2.650   2.145   1.820 -0.5798 -0.0651  0.0631
  165MOL0     O22187   2.559   2.269   2.068  0.4440  0.3275  0.1969
  165MOL0     C22188   2.393   2.215   2.289  0.3392  0.5465 -0.6241
  165MOL0     C22189   2.305   2.187   2.396  0.3434  0.5022 -0.1027
  165MOL0     N22190   1.668   1.530   2.521 -0.5747  0.3826  0.1075
  165MOL0     N22191   1.546   1.519   2.483  0.0280  0.0173 -0.3812
  165MOL0     C22192   0.811   1.014   2.084  0.6686 -0.7703  0.1281
  165MOL0     C22193   0.752   0.894   2.058 -0.9930  0.1327 -0.2133
  165MOL0     C22194   0.462   0.521   2.105  0.2693  0.6400 -0.1573
  165MOL0     C22195   0.534   0.422   2.152  0.0962 -0.6678 -0.1098
  165MOL0     C22196   0.508   0.289   2.128  0.3672  0.6686  0.5263
  165MOL0     C22197   0.399   0.248   2.048  0.2848 -0.1591  0.2703
  165MOL0     O22198   0.394   0.112   2.024  0.1063  0.0140  0.5118
  165MOL0     C22199   0.287   0.057   1.943 -0.7870 -1.0320 -0.2776
  165MOL0     C22200   0.283  -0.097   1.962  0.6316 -0.1053  0.0423
  165MOL0     C22201   0.408  -0.166   1.912 -1.1107 -1.0945  0.1843
  165MOL0     C22202   0.409  -0.320   1.897  1.0669  0.1645 -0.0638
  165MOL0     C22203   0.531  -0.379   1.858 -0.5209 -0.1988  0.1179
  165MOL0     C22204   0.649  -0.398   1.828  0.1880 -0.0371  0.1240
  165MOL0     C22205   0.323   0.352   1.996  0.4921  0.3552  0.2751
  165MOL0     C22206   0.344   0.484   2.026 -0.7093 -0.0172 -0.0463
  165MOL0     C22207   0.288   0.597   1.945 -0.8132 -0.3679 -0.6873
  165MOL0     H22208   0.663   0.810   2.379 -5.4702  1.6826  0.3135
  165MOL0     H22209   0.734   1.039   2.413 -1.5809  1.1978 -0.4179
  165MOL0     H22210   0.736   1.341   2.329 -0.0528  0.7741  0.0583
  165MOL0     H22211   0.839   1.231   2.438  2.5331  1.4164  0.5451
  165MOL0     H22212   1.037   1.302   2.325  0.8148 -0.7401  2.8472
  165MOL0     H22213   0.970   1.397   2.449 -0.1310  1.2010 -0.0874
  165MOL0     H22214   0.880   1.569   2.274  0.9302  0.4674  0.5328
  165MOL0     H22215   0.912   1.461   2.148 -1.7411  1.4796 -0.3002
  165MOL0     H22216   1.139   1.559   2.344  3.8178  2.3430 -0.8769
  165MOL0     H22217   1.154   1.482   2.193 -0.6916  0.1540 -0.2327
  165MOL0     H22218   1.046   1.685   2.079 -0.0639  2.2416 -0.4053
  165MOL0     H22219   1.066   1.774   2.237  1.7707  0.8203  0.4963
  165MOL0     H22220   1.279   1.642   2.079  2.3290  0.8253  1.1170
  165MOL0     H22221   1.245   1.815   2.075  3.3018  1.0292  0.6655
  165MOL0     H22222   1.295   1.804   2.348 -2.2500  3.4661 -2.6933
  165MOL0     H22223   1.419   1.822   2.232 -4.4000  4.0374 -2.2495
  165MOL0     H22224   1.331   1.548   2.359  1.7186 -1.3912 -0.2014
  165MOL0     H22225   1.426   1.560   2.211 -1.4968 -2.4300 -0.3881
  165MOL0     H22226   1.638   1.761   2.283  0.5942 -0.2179  0.0291
  165MOL0     H22227   1.894   1.658   2.564 -0.4470 -0.9933 -0.1596
  165MOL0     H22228   1.929   1.665   2.397  0.0351  1.3428 -0.5690
  165MOL0     H22229   1.806   1.878   2.389 -1.7981 -3.8043 -0.1933
  165MOL0     H22230   1.789   1.859   2.571  1.0854 -1.4971  0.0952
  165MOL0     H22231   2.063   1.868   2.432 -1.5551 -1.8382 -0.1408
  165MOL0     H22232   2.032   1.899   2.605  1.3128  2.2177 -0.5463
  165MOL0     H22233   1.917   2.109   2.555  0.6942 -2.5871  2.0255
  165MOL0     H22234   1.934   2.081   2.379  1.2792 -2.1551 -2.0331
  165MOL0     H22235   2.071   2.022   2.222 -0.9738  0.1316  1.1036
  165MOL0     H22236   2.208   2.090   2.030 -0.6527 -2.8963  0.6955
  165MOL0     H22237   2.335   2.171   1.678  0.1999 -0.6275 -3.2995
  165MOL0     H22238   2.468   2.141   1.480  0.6655  0.9432 -0.5555
  165MOL0     H22239   2.875   2.152   1.340 -0.3210 -1.9742 -0.2362
  165MOL0     H22240   2.911   2.183   1.515  0.3903 -1.6682  1.3677
  165MOL0     H22241   2.953   1.977   1.565  1.3514 -1.1063 -0.2035
  165MOL0     H22242   2.865   1.898   1.430  1.0300 -1.0545  1.1509
  165MOL0     H22243   3.042   1.953   1.275  1.6657 -0.4889 -0.0583
  165MOL0     H22244   3.123   2.065   1.394 -0.2620  0.1106  1.9700
  165MOL0     H22245   3.092   1.763   1.392 -0.1051  1.4822 -4.8498
  165MOL0     H22246   3.206   1.856   1.499 -1.7376  0.1449  1.1180
  165MOL0     H22247   3.343   1.927   1.326  1.7764 -1.6840  2.0067
  165MOL0     H22248   3.237   1.856   1.195  0.3878 -1.5048  0.1446
  165MOL0     H22249   3.361   1.687   1.410  1.3667 -0.2616  0.0780
  165MOL0     H22250   3.322   1.634   1.266 -0.7520 -0.5694  2.1461
  165MOL0     H22251   3.558   1.817   1.310 -2.2605  0.4254  2.1826
  165MOL0     H22252   3.502   1.764   1.149 -0.3547  4.1035  1.5332
  165MOL0     H22253   3.587   1.562   1.364 -0.3583  2.1002  1.2101
  165MOL0     H22254   3.533   1.528   1.199  0.7406 -0.5029 -0.6864
  165MOL0     H22255   2.825   2.111   1.710  0.0624  1.0960  6.3255
  165MOL0     H22256   2.684   2.151   1.923 -0.4037  2.0642 -0.0778
  165MOL0     H22257   2.472   2.284   2.318 -1.6455  2.0474  1.5151
  165MOL0     H22258   2.328   2.225   2.495 -1.0865 -0.4662  0.6348
  165MOL0     H22259   0.872   1.057   2.005  0.3991 -1.2559 -0.3485
  165MOL0     H22260   0.764   0.856   1.957 -1.8514 -0.0225 -0.2631
  165MOL0     H22261   0.620   0.434   2.218 -0.9063  1.2598  0.9250
  165MOL0     H22262   0.581   0.215   2.159  0.6675  0.8311  0.2055
  165MOL0     H22263   0.305   0.068   1.836 -0.6179 -0.2240 -0.1763
  165MOL0     H22264   0.193   0.111   1.959  0.4536  1.4848 -1.0066
  165MOL0     H22265   0.197  -0.136   1.907 -0.5173  1.8797  0.3222
  165MOL0     H22266   0.271  -0.124   2.067  1.4502 -0.3733  0.0744
  165MOL0     H22267   0.490  -0.139   1.979 -1.9345  2.4592 -0.0752
  165MOL0     H22268   0.432  -0.115   1.818 -2.5426 -0.1677  0.2953
  165MOL0     H22269   0.375  -0.363   1.992 -2.3067  1.8013 -0.3635
  165MOL0     H22270   0.327  -0.351   1.831  2.9584 -3.6986 -0.8958
  165MOL0     H22271   0.748  -0.435   1.811 -0.2586 -1.8546  1.2820
  165MOL0     H22272   0.234   0.337   1.935 -1.1859 -0.9237  2.8551
  165MOL0     H22273   0.209   0.650   1.999 -0.5764  0.5928 -1.2604
  165MOL0     H22274   0.366   0.670   1.924  0.5497 -1.5698 -0.0014
  165MOL0     H22275   0.253   0.550   1.852  0.1461 -0.3367 -1.0785
  166MOL0     O22276   3.855   6.319   2.471  0.0792  0.1870  0.5506
  166MOL0     C22277   3.745   6.355   2.426 -0.8837  0.8977 -0.4084
  166MOL0     O22278   3.727   6.449   2.344 -0.1673 -0.0380  0.4687
  166MOL0     C22279   3.838   6.520   2.296 -0.0135  0.5753  0.0646
  166MOL0     C22280   3.817   6.662   2.311 -0.7180  0.2312 -0.1878
  166MOL0     C22281   3.910   6.751   2.256  0.3881 -0.5785  0.4241
  166MOL0     C22282   4.029   6.707   2.199  0.0208 -0.1315 -0.4430
  166MOL0     O22283   4.124   6.790   2.145 -0.6399 -0.6800  0.4221
  166MOL0     C22284   4.087   6.903   2.066  0.5664  1.3512  0.3656
  166MOL0     C22285   4.177   6.937   1.950 -0.1708  0.0899 -0.8278
  166MOL0     C22286   4.317   6.988   2.006 -0.4584  0.6192  0.5801
  166MOL0     C22287   4.420   7.002   1.894  0.0908 -0.0333 -0.0826
  166MOL0     C22288   4.559   6.989   1.951  0.0693 -0.6856 -0.2544
  166MOL0     C22289   4.668   6.969   1.845  0.4403 -0.9303  0.0991
  166MOL0     C22290   4.816   6.960   1.900  1.2538 -0.4648  0.8697
  166MOL0     C22291   4.910   6.979   1.782 -0.0357  0.4107 -0.4856
  166MOL0     N22292   5.052   6.975   1.828  0.2482 -0.9093 -0.6925
  166MOL0     C22293   5.131   7.085   1.850 -0.0479 -0.6235 -0.2075
  166MOL0     C22294   5.247   7.034   1.900 -0.0453  0.5281  0.1966
  166MOL0     C22295   5.359   7.120   1.959  0.1608  0.3058 -1.2742
  166MOL0     C22296   5.498   7.048   1.937  0.6613  0.5370 -0.1259
  166MOL0     C22297   5.610   7.145   1.960  0.7071  0.1543 -0.2649
  166MOL0     C22298   5.747   7.080   1.943 -0.8445 -0.2719 -0.0310
  166MOL0     O22299   5.821   7.189   1.883  0.1986  0.5838  0.1720
  166MOL0     C22300   5.953   7.203   1.913 -0.7501  0.0897 -0.0413
  166MOL0     C22301   6.036   7.092   1.955 -1.1141 -0.0469  0.4173
  166MOL0     C22302   6.171   7.115   1.992 -0.8565 -0.1057  0.6643
  166MOL0     C22303   6.225   7.241   1.984  0.3234 -0.4809 -0.5052
  166MOL0     C22304   6.366   7.260   2.020  0.3085 -0.0789 -0.3581
  166MOL0     O22305   6.406   7.386   2.056 -0.0999 -0.8988 -0.0570
  166MOL0     C22306   6.532   7.410   2.074  0.8261  0.4686  0.0538
  166MOL0     C22307   6.621   7.405   1.963 -0.6570 -0.1921  0.4148
  166MOL0     C22308   6.757   7.412   1.989 -0.1182  0.0903 -0.2836
  166MOL0     C22309   6.803   7.440   2.117  0.8655  0.3257 -0.3348
  166MOL0     O22310   6.935   7.469   2.145  0.9570 -0.1875  0.3226
  166MOL0     C22311   7.043   7.390   2.089 -0.2191  0.7223  1.0066
  166MOL0     C22312   7.138   7.362   2.200 -0.1552  0.7805  0.0875
  166MOL0     C22313   7.251   7.463   2.212  0.3443 -0.1386  0.1761
  166MOL0     C22314   7.344   7.426   2.327  0.4946  0.2199 -0.2598
  166MOL0     C22315   7.437   7.543   2.366  0.5419  0.5010  0.0847
  166MOL0     C22316   7.547   7.565   2.250  0.9139  0.4342 -0.5757
  166MOL0     C22317   7.621   7.696   2.281 -0.6769  0.5752  0.5125
  166MOL0     C22318   7.749   7.694   2.179 -0.8010 -0.1493 -0.5181
  166MOL0    Cl22319   7.854   7.548   2.221 -0.6111  0.0930  0.0546
  166MOL0     C22320   6.711   7.460   2.220  0.8200 -0.1059 -0.1227
  166MOL0     C22321   6.571   7.443   2.200 -0.2040 -0.9515  0.5766
  166MOL0     O22322   6.429   7.154   2.028 -0.4319 -0.2780  0.0107
  166MOL0     C22323   6.144   7.344   1.947  0.9346  0.9494 -1.2960
  166MOL0     C22324   6.019   7.325   1.909  0.2012 -0.2348  0.0189
  166MOL0     N22325   5.233   6.898   1.915 -0.1113 -0.3728  0.2074
  166MOL0     N22326   5.120   6.863   1.876  0.4004  0.8504  1.4293
  166MOL0     C22327   4.054   6.575   2.203 -0.4560 -0.6092 -0.1635
  166MOL0     C22328   3.966   6.478   2.251  0.2185 -0.7219  1.3186
  166MOL0     C22329   3.624   6.279   2.482 -0.8733 -0.4634 -0.0541
  166MOL0     C22330   3.496   6.319   2.439 -0.3582  0.0516  0.4297
  166MOL0     C22331   3.380   6.262   2.472 -0.2455 -0.7749 -0.3069
  166MOL0     C22332   3.382   6.159   2.564 -0.7455  0.3431  0.4987
  166MOL0     O22333   3.276   6.102   2.622 -0.0589  0.3198 -0.2140
  166MOL0     C22334   3.163   6.093   2.544  0.8017  0.0463  1.1321
  166MOL0     C22335   3.088   5.979   2.592 -0.4841  0.7909  0.7595
  166MOL0     C22336   2.967   5.942   2.494 -0.0570 -0.1523 -1.2291
  166MOL0     C22337   2.819   5.975   2.547 -0.4690 -0.4852  0.0374
  166MOL0     C22338   2.757   5.857   2.600  0.3380 -0.1400  0.1902
  166MOL0     C22339   2.702   5.759   2.649 -0.8492  0.3104 -0.3826
  166MOL0     C22340   3.505   6.113   2.610 -0.2278  0.7798 -0.2668
  166MOL0     C22341   3.630   6.166   2.569  0.0480 -0.7457  0.7242
  166MOL0     C22342   3.750   6.101   2.618 -0.6798 -0.9344 -0.0115
  166MOL0     H22343   3.729   6.700   2.363 -1.6282 -1.7178 -0.2289
  166MOL0     H22344   3.884   6.856   2.257  0.3539 -0.5712 -0.5821
  166MOL0     H22345   3.991   6.875   2.021  0.1969  0.1974  1.7695
  166MOL0     H22346   4.068   6.994   2.123  0.9583  1.2197  0.7152
  166MOL0     H22347   4.137   7.019   1.889 -1.2726 -0.8692 -1.4420
  166MOL0     H22348   4.181   6.850   1.883  1.2980  0.1240 -0.8156
  166MOL0     H22349   4.354   6.912   2.075  2.2421  1.2552 -0.0552
  166MOL0     H22350   4.294   7.085   2.052  1.9235  3.1404 -2.9610
  166MOL0     H22351   4.411   6.918   1.825 -4.8091  0.0060  0.1919
  166MOL0     H22352   4.408   7.102   1.851 -2.2865  0.4174  1.4581
  166MOL0     H22353   4.575   7.073   2.020 -4.2623  0.0030  0.1710
  166MOL0     H22354   4.561   6.895   2.006 -2.3133 -0.8853 -0.4412
  166MOL0     H22355   4.650   6.878   1.787  1.1147 -0.5703 -0.6867
  166MOL0     H22356   4.657   7.053   1.776 -0.0970 -1.6365 -0.6935
  166MOL0     H22357   4.829   6.861   1.944 -2.9955 -1.5279  0.2009
  166MOL0     H22358   4.841   7.034   1.976 -0.8979  0.7188  0.5275
  166MOL0     H22359   4.912   6.912   1.696  2.3888  2.3746 -2.1419
  166MOL0     H22360   4.887   7.079   1.743 -3.6156  0.2531  0.8936
  166MOL0     H22361   5.109   7.182   1.808 -0.7067 -0.6751  0.0004
  166MOL0     H22362   5.369   7.213   1.901 -2.3890 -0.2224 -2.7103
  166MOL0     H22363   5.350   7.143   2.065 -2.0629 -4.7332 -0.0800
  166MOL0     H22364   5.509   6.975   2.018  1.9852  0.3724 -0.4367
  166MOL0     H22365   5.506   7.001   1.839  0.0034  1.9850 -0.9095
  166MOL0     H22366   5.598   7.174   2.064 -2.0841  1.9446 -0.9711
  166MOL0     H22367   5.591   7.223   1.885 -0.1044 -1.0878 -1.4048
  166MOL0     H22368   5.743   6.990   1.880 -0.0748 -0.0385 -0.4236
  166MOL0     H22369   5.791   7.055   2.040  0.6145  0.6731 -0.4261
  166MOL0     H22370   5.992   6.993   1.963 -1.2931 -0.1540 -1.5327
  166MOL0     H22371   6.226   7.029   2.030 -0.9210 -0.4563 -0.0212
  166MOL0     H22372   6.597   7.373   1.862 -1.4578  0.2052  0.4702
  166MOL0     H22373   6.825   7.382   1.910 -1.6718  1.1836 -2.1635
  166MOL0     H22374   7.014   7.304   2.027  0.6833 -1.1256  2.9987
  166MOL0     H22375   7.096   7.453   2.017 -1.2383 -0.6955 -1.0871
  166MOL0     H22376   7.076   7.352   2.290 -1.3464  2.6740 -0.4544
  166MOL0     H22377   7.188   7.266   2.186 -3.3127 -0.9592 -0.1592
  166MOL0     H22378   7.307   7.467   2.119  2.0523 -0.2188  1.1699
  166MOL0     H22379   7.217   7.566   2.224  0.4080 -0.3144  2.2587
  166MOL0     H22380   7.409   7.346   2.292 -0.7512 -1.9692  2.1036
  166MOL0     H22381   7.288   7.391   2.413  1.3439 -0.1128  0.1690
  166MOL0     H22382   7.487   7.533   2.463 -0.1522 -2.9210  0.2207
  166MOL0     H22383   7.373   7.630   2.376  1.0353  0.8592  0.1616
  166MOL0     H22384   7.614   7.479   2.254  0.3815  0.0776  1.7157
  166MOL0     H22385   7.502   7.575   2.150  2.6995 -0.2874 -1.4953
  166MOL0     H22386   7.651   7.699   2.386 -2.0023 -3.5386  1.1862
  166MOL0     H22387   7.561   7.786   2.263  0.5520  1.4320  0.5759
  166MOL0     H22388   7.716   7.694   2.075  1.6966  3.4324 -1.5348
  166MOL0     H22389   7.803   7.788   2.197 -1.4557 -0.1453  1.7003
  166MOL0     H22390   6.746   7.491   2.318 -1.6776 -0.4052  0.9249
  166MOL0     H22391   6.503   7.459   2.283 -0.4093  0.1257  0.2115
  166MOL0     H22392   6.183   7.445   1.953  1.0555  0.8358  0.3327
  166MOL0     H22393   5.969   7.417   1.879 -1.3269 -0.3380  2.0098
  166MOL0     H22394   4.146   6.556   2.148 -1.8697 -0.7158 -2.6078
  166MOL0     H22395   3.997   6.374   2.254 -0.4651 -1.1046 -1.8999
  166MOL0     H22396   3.494   6.406   2.374 -0.0936  1.2349  1.9533
  166MOL0     H22397   3.289   6.311   2.438 -2.3865 -2.8370  2.0892
  166MOL0     H22398   3.188   6.079   2.438 -0.5433 -1.0860  0.9375
  166MOL0     H22399   3.107   6.186   2.556  1.5512  0.3283  2.6108
  166MOL0     H22400   3.040   6.006   2.686 -0.9483  3.4645 -0.1504
  166MOL0     H22401   3.153   5.893   2.607  0.5698  1.8198  2.3979
  166MOL0     H22402   2.967   5.836   2.467  2.1032 -0.8657  1.2749
  166MOL0     H22403   2.985   6.005   2.406  4.1869  1.1787  0.3731
  166MOL0     H22404   2.819   6.057   2.619 -3.7733  0.7312 -1.1741
  166MOL0     H22405   2.763   6.008   2.460 -3.2531 -0.1253  1.8476
  166MOL0     H22406   2.652   5.681   2.704 -0.0898  0.2144  0.1979
  166MOL0     H22407   3.500   6.040   2.691  1.5071  2.0888  1.1006
  166MOL0     H22408   3.806   6.160   2.692  0.3722 -0.2940 -1.2893
  166MOL0     H22409   3.737   6.005   2.669 -1.0351 -1.7496 -1.5778
  166MOL0     H22410   3.810   6.071   2.532  1.5487 -0.0451  1.1336
  167MOL0     O22411   0.316   4.746   9.765 -0.3232  0.6640  0.1749
  167MOL0     C22412   0.303   4.847   9.830  0.5286  0.0225  1.0189
  167MOL0     O22413   0.396   4.940   9.851 -0.7873  0.0973 -0.1962
  167MOL0     C22414   0.521   4.895   9.849  0.7148  0.5091 -1.2678
  167MOL0     C22415   0.563   4.798   9.948  0.5969 -0.3098  0.1616
  167MOL0     C22416   0.698   4.765   9.969 -0.0380 -0.2622  0.3230
  167MOL0     C22417   0.787   4.841   9.901 -0.0484 -1.1165  0.0520
  167MOL0     O22418   0.917   4.811   9.931 -0.1090  0.0765  0.6274
  167MOL0     C22419   1.007   4.914   9.965 -0.7074 -0.0679 -0.2817
  167MOL0     C22420   1.134   4.852  10.018 -0.1569 -0.3528  0.0629
  167MOL0     C22421   1.244   4.806   9.922  0.2215  0.3591 -0.0794
  167MOL0     C22422   1.361   4.738  10.000  0.5809  0.9343  0.0089
  167MOL0     C22423   1.444   4.834  10.089 -0.9557  0.2985  0.3072
  167MOL0     C22424   1.548   4.747  10.167  0.6043 -0.5445 -1.3523
  167MOL0     C22425   1.593   4.815  10.297  0.0423  0.0353  0.6916
  167MOL0     C22426   1.700   4.734  10.361 -1.0659 -0.5759  0.2307
  167MOL0     N22427   1.825   4.735  10.285 -0.2861 -0.1275  0.2427
  167MOL0     C22428   1.863   4.653  10.188  0.0180  0.0942  0.5770
  167MOL0     C22429   1.983   4.709  10.146 -0.0294  0.3465 -0.7772
  167MOL0     C22430   2.062   4.641  10.033 -0.2726 -1.4117 -0.0223
  167MOL0     C22431   2.161   4.533  10.072 -0.2808  0.1837  0.7843
  167MOL0     C22432   2.218   4.484   9.933  0.7682  0.1627 -0.6077
  167MOL0     C22433   2.276   4.339   9.937  0.0143  0.6885 -0.2156
  167MOL0     O22434   2.411   4.342  10.005 -0.2224  0.1748 -0.7209
  167MOL0     C22435   2.517   4.392   9.929 -0.5426 -0.0417  0.6978
  167MOL0     C22436   2.646   4.397   9.988  0.0988  0.0796 -0.2005
  167MOL0     C22437   2.763   4.422   9.915 -0.1882  0.0707 -0.5517
  167MOL0     C22438   2.761   4.438   9.780  0.5282  0.0371  0.5107
  167MOL0     C22439   2.874   4.469   9.699  0.8715 -0.1881 -0.0780
  167MOL0     O22440   2.985   4.414   9.740 -0.0000  0.5623 -0.1832
  167MOL0     C22441   3.103   4.464   9.677 -0.4448 -0.0874 -0.2835
  167MOL0     C22442   3.133   4.426   9.550  0.2839  0.0500  0.6973
  167MOL0     C22443   3.251   4.468   9.493  0.1073  0.0625  0.0824
  167MOL0     C22444   3.345   4.543   9.561  0.7946 -0.2811 -0.1670
  167MOL0     O22445   3.460   4.565   9.493  0.2594 -0.9702  0.1497
  167MOL0     C22446   3.551   4.667   9.546 -0.1723 -0.3356  1.1116
  167MOL0     C22447   3.649   4.598   9.641 -0.1577 -0.2930  0.3162
  167MOL0     C22448   3.757   4.703   9.681  0.0846  0.1681 -0.6320
  167MOL0     C22449   3.851   4.639   9.791  0.9518 -0.0537 -0.7743
  167MOL0     C22450   3.973   4.725   9.820  0.1056 -0.1915  0.6257
  167MOL0     C22451   4.033   4.690   9.958  0.1747  0.3215 -0.1470
  167MOL0     C22452   4.172   4.747   9.985 -0.5655 -0.4606 -0.5897
  167MOL0     C22453   4.215   4.694  10.118  0.7954  0.2913  0.8308
  167MOL0    Cl22454   4.377   4.753  10.135  0.2822  0.0071 -0.3555
  167MOL0     C22455   3.312   4.605   9.681 -0.0086 -0.4291 -0.8046
  167MOL0     C22456   3.191   4.558   9.743 -0.7176  1.2417 -0.1625
  167MOL0     O22457   2.861   4.515   9.585 -0.2602  0.2861  0.5526
  167MOL0     C22458   2.627   4.452   9.721  0.8071  0.0129  0.1494
  167MOL0     C22459   2.512   4.417   9.790  0.0044  0.3951 -0.4150
  167MOL0     N22460   2.006   4.827  10.216  0.5134  0.3526 -0.4783
  167MOL0     N22461   1.907   4.844  10.289  0.1744  0.8360  0.1592
  167MOL0     C22462   0.757   4.936   9.805  0.7993  0.7080 -0.2079
  167MOL0     C22463   0.626   4.966   9.782  0.7167 -0.1718 -0.2560
  167MOL0     C22464   0.168   4.870   9.872  0.6443 -0.4201 -0.3835
  167MOL0     C22465   0.147   4.895  10.009  0.3756  0.2591  0.0760
  167MOL0     C22466   0.026   4.915  10.065  0.5930  0.5295 -0.3794
  167MOL0     C22467  -0.087   4.916   9.984  0.2945 -0.2142  1.2110
  167MOL0     O22468  -0.211   4.935  10.031 -0.5212  0.1432 -0.4372
  167MOL0     C22469  -0.301   5.023   9.966  0.3879 -1.1009  0.3501
  167MOL0     C22470  -0.341   5.151  10.047 -0.0734 -0.1128  0.0619
  167MOL0     C22471  -0.218   5.233  10.086  0.1418  0.7761  0.0070
  167MOL0     C22472  -0.161   5.197  10.225 -0.1498 -0.5888  0.5754
  167MOL0     C22473  -0.070   5.309  10.253  0.2587  0.0039 -0.2668
  167MOL0     C22474   0.016   5.390  10.293 -0.8858  0.1263 -0.6649
  167MOL0     C22475  -0.075   4.897   9.842 -0.9630  0.1809  0.3852
  167MOL0     C22476   0.053   4.865   9.791  0.3787 -0.8925 -0.0920
  167MOL0     C22477   0.042   4.825   9.642 -1.0043  0.8690  0.6974
  167MOL0     H22478   0.493   4.754  10.018  0.2670  0.5731  0.4020
  167MOL0     H22479   0.723   4.696  10.049 -0.0966 -1.3564 -0.5632
  167MOL0     H22480   1.029   4.975   9.877 -2.3208 -1.0144 -1.4058
  167MOL0     H22481   0.959   4.965  10.049 -0.1624 -2.0989  1.3439
  167MOL0     H22482   1.104   4.766  10.080 -1.9344 -2.4616 -3.4235
  167MOL0     H22483   1.182   4.923  10.087  0.1176 -1.2931  0.8599
  167MOL0     H22484   1.284   4.888   9.862  1.0096  0.4279  0.5299
  167MOL0     H22485   1.202   4.729   9.856  1.6393 -1.0455  0.5876
  167MOL0     H22486   1.325   4.664  10.072  1.7801  1.7600  1.5308
  167MOL0     H22487   1.423   4.686   9.926  2.6368  2.5087  0.5419
  167MOL0     H22488   1.497   4.905  10.024 -3.0799  1.2769 -0.4429
  167MOL0     H22489   1.383   4.885  10.164 -1.2166 -1.5705  1.4263
  167MOL0     H22490   1.498   4.655  10.200 -0.6794  1.0592  1.4656
  167MOL0     H22491   1.632   4.719  10.103  0.6619 -0.6818 -1.2197
  167MOL0     H22492   1.511   4.829  10.368 -2.1567 -2.3449 -1.1371
  167MOL0     H22493   1.631   4.915  10.274 -0.7341  0.1457 -0.1968
  167MOL0     H22494   1.707   4.777  10.461 -1.5266 -2.5461  1.1613
  167MOL0     H22495   1.666   4.631  10.379 -1.4595 -0.6730 -0.9477
  167MOL0     H22496   1.816   4.557  10.170  1.1751 -0.7904  2.0673
  167MOL0     H22497   1.995   4.609   9.953 -1.8886  2.7091 -0.6035
  167MOL0     H22498   2.124   4.724   9.997 -1.0383  0.1044  1.9436
  167MOL0     H22499   2.241   4.573  10.135  0.7390 -2.0451  1.0066
  167MOL0     H22500   2.107   4.451  10.119 -2.8559  1.2671 -0.0773
  167MOL0     H22501   2.290   4.551   9.884  1.9342 -1.0032 -0.5734
  167MOL0     H22502   2.134   4.467   9.865  0.5740  2.0318 -0.8831
  167MOL0     H22503   2.290   4.280   9.847 -0.6864 -1.3198  0.9291
  167MOL0     H22504   2.202   4.279   9.991  1.3866 -1.4090 -0.5828
  167MOL0     H22505   2.648   4.374  10.094 -0.6538 -0.4974 -0.3005
  167MOL0     H22506   2.861   4.415   9.959  1.4808 -1.3502 -4.0616
  167MOL0     H22507   3.067   4.356   9.500 -2.5158  1.9871  1.4020
  167MOL0     H22508   3.288   4.434   9.397  0.5735  3.1806 -0.9551
  167MOL0     H22509   3.616   4.719   9.476 -0.0432 -0.1069  1.3999
  167MOL0     H22510   3.497   4.749   9.594 -1.4008  0.4489 -1.4204
  167MOL0     H22511   3.601   4.568   9.735 -2.3373  0.2170 -0.5619
  167MOL0     H22512   3.680   4.515   9.577 -5.7523 -1.1947 -1.7838
  167MOL0     H22513   3.821   4.728   9.595 -0.6920 -1.4058 -1.7064
  167MOL0     H22514   3.712   4.799   9.710  2.0620  0.7380  0.7552
  167MOL0     H22515   3.883   4.538   9.762  1.2138 -0.5075  0.9813
  167MOL0     H22516   3.788   4.638   9.881 -0.3016 -1.8170 -1.5914
  167MOL0     H22517   3.936   4.828   9.815  0.0103 -0.2799 -2.6936
  167MOL0     H22518   4.057   4.714   9.751 -1.8082 -1.3998 -1.6686
  167MOL0     H22519   3.969   4.731  10.036  1.8764  2.0348  0.3985
  167MOL0     H22520   4.047   4.582   9.968 -0.2576  0.0381 -2.0934
  167MOL0     H22521   4.182   4.855   9.981  0.7267 -0.5848 -1.2863
  167MOL0     H22522   4.235   4.697   9.910 -0.0589 -1.2013  0.3167
  167MOL0     H22523   4.147   4.728  10.196 -0.0181 -1.1686  0.8039
  167MOL0     H22524   4.215   4.585  10.110 -0.4317  0.4052 -1.4738
  167MOL0     H22525   3.386   4.661   9.738  2.3205 -2.3073 -1.7815
  167MOL0     H22526   3.156   4.578   9.844 -0.5628  0.5708  0.0305
  167MOL0     H22527   2.617   4.457   9.613 -1.4863 -2.5442  0.1311
  167MOL0     H22528   2.419   4.416   9.735 -0.0545  0.1381 -0.3147
  167MOL0     H22529   0.835   4.999   9.766  2.6148 -0.7329  0.9017
  167MOL0     H22530   0.608   5.049   9.713 -0.3820 -0.1905  0.0028
  167MOL0     H22531   0.234   4.887  10.074  0.2036 -0.0981  0.2619
  167MOL0     H22532   0.014   4.936  10.171  1.0796  1.6292 -0.5324
  167MOL0     H22533  -0.396   4.972   9.948 -1.2766  1.0526  2.3758
  167MOL0     H22534  -0.260   5.046   9.867 -0.0935  1.4743  0.6693
  167MOL0     H22535  -0.402   5.125  10.134 -0.4252 -0.3740 -0.2564
  167MOL0     H22536  -0.402   5.220   9.988 -0.0214 -0.1810 -0.0738
  167MOL0     H22537  -0.239   5.340  10.096  2.8887  1.3435  0.7876
  167MOL0     H22538  -0.139   5.217  10.012 -0.1826  1.6493 -0.5406
  167MOL0     H22539  -0.237   5.202  10.303  1.1745 -0.5363  1.9016
  167MOL0     H22540  -0.114   5.098  10.225 -1.0137 -1.1061 -2.6696
  167MOL0     H22541   0.093   5.452  10.334 -0.3507  0.5519 -2.2320
  167MOL0     H22542  -0.156   4.909   9.770 -0.6741  1.2261  0.2217
  167MOL0     H22543   0.133   4.836   9.582 -1.4076  2.5331  0.3342
  167MOL0     H22544  -0.003   4.726   9.638  0.6347  0.1091 -0.0682
  167MOL0     H22545  -0.035   4.882   9.590 -3.3302 -1.0651  1.8450
  168MOL0     O22546  10.077   5.753  11.201 -0.2717  0.1526 -0.6929
  168MOL0     C22547  10.021   5.796  11.307 -0.0455  0.0520 -0.0823
  168MOL0     O22548  10.058   5.905  11.371  0.3790 -0.2158 -0.2418
  168MOL0     C22549  10.169   5.975  11.335  0.6406 -1.3075  0.6885
  168MOL0     C22550  10.161   6.102  11.282 -0.6117 -0.1012  1.0085
  168MOL0     C22551  10.275   6.180  11.254  0.5309 -0.0263 -0.0449
  168MOL0     C22552  10.401   6.137  11.294  0.6342  0.5006 -0.6622
  168MOL0     O22553  10.512   6.219  11.282 -0.2874  0.0955  0.0338
  168MOL0     C22554  10.522   6.329  11.370 -0.6463 -0.2128  0.9731
  168MOL0     C22555  10.647   6.404  11.308  1.1426  0.0715  0.3308
  168MOL0     C22556  10.729   6.461  11.424  0.2365 -0.3193 -0.2924
  168MOL0     C22557  10.857   6.511  11.373 -0.3452  0.1067 -0.4943
  168MOL0     C22558  10.912   6.602  11.484  0.5499 -0.6122 -0.1938
  168MOL0     C22559  11.049   6.662  11.452 -0.2001  0.4149  0.2556
  168MOL0     C22560  11.130   6.685  11.585 -0.1399 -0.2474 -0.3917
  168MOL0     C22561  11.270   6.725  11.553 -0.0291 -0.1715 -0.1353
  168MOL0     N22562  11.362   6.706  11.666  0.1036 -0.0976  0.0137
  168MOL0     C22563  11.483   6.651  11.658 -0.6426  0.1652 -0.4112
  168MOL0     C22564  11.513   6.643  11.791 -0.4642  0.5455 -0.0033
  168MOL0     C22565  11.636   6.572  11.862 -0.3957 -0.4114  0.5510
  168MOL0     C22566  11.739   6.683  11.873 -0.4953  0.2338 -0.2522
  168MOL0     C22567  11.878   6.623  11.901 -0.1703  0.4402  0.0355
  168MOL0     C22568  11.987   6.732  11.901 -0.2566 -0.0881 -0.5824
  168MOL0     O22569  11.961   6.821  12.012  0.6914 -0.5513 -0.3669
  168MOL0     C22570  12.067   6.910  12.035  0.4302  0.3727 -0.6363
  168MOL0     C22571  12.125   6.945  12.156 -0.2712 -1.0688  0.0121
  168MOL0     C22572  12.227   7.046  12.172 -0.3041 -0.3617  0.0584
  168MOL0     C22573  12.266   7.118  12.056 -0.5954 -0.1903  0.0134
  168MOL0     C22574  12.385   7.202  12.066 -0.3226 -0.5969  0.3417
  168MOL0     O22575  12.439   7.240  11.948  0.1719  1.2338 -0.0777
  168MOL0     C22576  12.549   7.316  11.939  0.1603 -0.2899  0.2944
  168MOL0     C22577  12.685   7.272  11.957 -0.2021 -0.0072 -0.4043
  168MOL0     C22578  12.784   7.368  11.941 -0.0593 -0.3219  0.0929
  168MOL0     C22579  12.756   7.508  11.923 -0.6522  0.3829  0.2021
  168MOL0     O22580  12.855   7.606  11.924  0.0960  0.7380  0.8096
  168MOL0     C22581  12.809   7.741  11.895  0.4413 -1.1039  0.3598
  168MOL0     C22582  12.911   7.848  11.946  0.3559  0.5933  0.1921
  168MOL0     C22583  12.865   7.992  11.931 -0.4230  0.8398 -0.4588
  168MOL0     C22584  12.955   8.074  11.827  0.4761 -0.4697  0.5163
  168MOL0     C22585  12.882   8.120  11.692  0.1421 -0.3694  0.2761
  168MOL0     C22586  12.967   8.188  11.583  0.3945 -0.0509 -0.1247
  168MOL0     C22587  12.884   8.221  11.461  0.5890  0.5405  0.3219
  168MOL0     C22588  12.951   8.311  11.353 -0.1014  0.7721 -0.0391
  168MOL0    Cl22589  13.072   8.203  11.282 -0.0414 -0.0728 -0.2408
  168MOL0     C22590  12.621   7.535  11.896 -0.1370 -0.6075 -0.2958
  168MOL0     C22591  12.514   7.445  11.911 -0.1283 -0.1534  0.2330
  168MOL0     O22592  12.442   7.211  12.174  0.0810 -0.0214  0.1430
  168MOL0     C22593  12.209   7.088  11.934  0.5872 -0.8284  0.2453
  168MOL0     C22594  12.111   6.988  11.928  0.3514 -0.3212 -0.1041
  168MOL0     N22595  11.418   6.698  11.868 -0.6288  0.4268 -0.4488
  168MOL0     N22596  11.324   6.725  11.790 -0.0628  0.4947 -0.0383
  168MOL0     C22597  10.403   6.013  11.363  0.3220  1.1230  0.3584
  168MOL0     C22598  10.296   5.927  11.371  0.5805  0.0966 -0.6384
  168MOL0     C22599   9.899   5.725  11.336 -0.1858 -0.0249 -0.2099
  168MOL0     C22600   9.793   5.725  11.249 -0.6791 -0.0293  0.1695
  168MOL0     C22601   9.676   5.661  11.271  0.8167 -0.4476 -1.4048
  168MOL0     C22602   9.643   5.599  11.387 -0.0404 -0.1542  0.1388
  168MOL0     O22603   9.515   5.549  11.391 -0.1908  0.6115 -0.3846
  168MOL0     C22604   9.477   5.480  11.505 -0.5104 -0.0161 -0.1126
  168MOL0     C22605   9.336   5.425  11.496  0.0920 -0.8305 -1.2690
  168MOL0     C22606   9.244   5.524  11.409  0.2674  1.3503 -0.0772
  168MOL0     C22607   9.101   5.460  11.390  1.3900 -0.3337 -0.0097
  168MOL0     C22608   9.101   5.322  11.343  0.1099  0.2928  0.5457
  168MOL0     C22609   9.100   5.205  11.304  0.2234  0.1420 -0.0087
  168MOL0     C22610   9.749   5.590  11.483 -0.0443  0.4163  0.4760
  168MOL0     C22611   9.871   5.660  11.464  1.1837 -0.4360  0.1338
  168MOL0     C22612   9.960   5.661  11.581 -0.5001 -0.5296 -0.4941
  168MOL0     H22613  10.063   6.131  11.246 -1.5109 -3.1812  0.7113
  168MOL0     H22614  10.272   6.284  11.224 -0.2872  0.4642  1.6240
  168MOL0     H22615  10.442   6.403  11.360  0.3061  1.3100  3.5370
  168MOL0     H22616  10.534   6.301  11.475 -2.7996  1.6168  1.7948
  168MOL0     H22617  10.616   6.472  11.229 -0.3780 -1.8988 -0.8630
  168MOL0     H22618  10.705   6.328  11.255  0.6876 -0.1866  0.2036
  168MOL0     H22619  10.749   6.383  11.499 -0.3509 -2.9053 -2.6742
  168MOL0     H22620  10.678   6.543  11.475  1.1478  1.3186 -1.9093
  168MOL0     H22621  10.919   6.423  11.350  0.0824 -0.4678  2.4483
  168MOL0     H22622  10.840   6.568  11.282 -5.5494 -2.2960 -1.3454
  168MOL0     H22623  10.841   6.682  11.509  0.4276 -0.4871 -0.9225
  168MOL0     H22624  10.915   6.536  11.571 -0.9159 -0.5421 -0.0608
  168MOL0     H22625  11.102   6.585  11.395 -3.8811 -3.9013  2.0095
  168MOL0     H22626  11.030   6.752  11.393 -2.4948 -1.8490 -2.8507
  168MOL0     H22627  11.122   6.596  11.649  0.6556  0.6266  0.9877
  168MOL0     H22628  11.081   6.771  11.631  0.3007  0.2214 -0.8015
  168MOL0     H22629  11.300   6.672  11.462  0.6078  0.4011 -0.2648
  168MOL0     H22630  11.261   6.830  11.526  0.9777  0.7102  2.6536
  168MOL0     H22631  11.539   6.627  11.569 -1.0421  2.5415 -1.3838
  168MOL0     H22632  11.601   6.531  11.957 -1.3311 -0.6855  0.0982
  168MOL0     H22633  11.680   6.492  11.802 -1.7641  0.9595 -2.5507
  168MOL0     H22634  11.749   6.738  11.780  1.9443 -1.6587 -1.2285
  168MOL0     H22635  11.725   6.753  11.956 -0.3182  0.2365 -0.2222
  168MOL0     H22636  11.904   6.556  11.819 -1.5777 -0.0245 -0.0715
  168MOL0     H22637  11.875   6.570  11.996 -0.1476  1.7606  0.7921
  168MOL0     H22638  11.990   6.780  11.803  1.2333  3.3685  1.0124
  168MOL0     H22639  12.089   6.691  11.904 -0.7535 -1.3751 -0.4627
  168MOL0     H22640  12.105   6.893  12.249  1.2561 -2.1929 -0.2486
  168MOL0     H22641  12.273   7.065  12.268 -1.0152 -0.7741  0.4939
  168MOL0     H22642  12.717   7.169  11.961  3.7286  1.0349 -0.6983
  168MOL0     H22643  12.889   7.340  11.946  0.0923  0.4319  2.1603
  168MOL0     H22644  12.794   7.762  11.789  0.2087  0.7526  0.7281
  168MOL0     H22645  12.728   7.777  11.959  3.0561  4.1582  1.2951
  168MOL0     H22646  12.935   7.828  12.051 -1.2699  6.8738  2.1764
  168MOL0     H22647  12.999   7.824  11.886 -0.0989 -0.7678  0.0218
  168MOL0     H22648  12.763   8.007  11.892 -0.9676 -0.3921  0.4231
  168MOL0     H22649  12.872   8.034  12.032  1.0745  0.4224 -0.3651
  168MOL0     H22650  13.056   8.036  11.804  0.1960  0.9615 -4.0684
  168MOL0     H22651  12.970   8.173  11.871 -0.8669  1.0881 -2.2887
  168MOL0     H22652  12.809   8.198  11.717  1.9244  1.7810 -0.7566
  168MOL0     H22653  12.836   8.026  11.662 -2.4368  0.9085 -0.1287
  168MOL0     H22654  13.013   8.284  11.611 -0.8804  1.3610 -2.5700
  168MOL0     H22655  13.053   8.124  11.559  0.6650  0.2684 -0.0155
  168MOL0     H22656  12.795   8.276  11.494 -1.6096 -1.1445 -2.2653
  168MOL0     H22657  12.850   8.128  11.414  0.9773  0.4659  0.1860
  168MOL0     H22658  12.891   8.360  11.276  1.0769  1.9651 -0.2402
  168MOL0     H22659  13.001   8.389  11.412 -0.9830  2.1358 -1.0377
  168MOL0     H22660  12.581   7.636  11.896 -2.9370 -1.4964 -4.2432
  168MOL0     H22661  12.408   7.466  11.899 -0.1161 -0.0682  0.2703
  168MOL0     H22662  12.232   7.145  11.845  2.4445 -1.7866  0.0738
  168MOL0     H22663  12.065   6.981  11.830 -0.9888  4.2367 -0.0363
  168MOL0     H22664  10.501   5.978  11.397 -0.1195 -3.5158 -2.3404
  168MOL0     H22665  10.310   5.829  11.415 -0.8708 -0.5142 -1.4598
  168MOL0     H22666   9.811   5.770  11.151 -0.9638  1.4370  0.7676
  168MOL0     H22667   9.602   5.665  11.192 -0.1849  2.9650 -0.4431
  168MOL0     H22668   9.481   5.550  11.589  0.1371 -0.6175  0.3669
  168MOL0     H22669   9.548   5.397  11.514  3.1629  2.7834 -0.5973
  168MOL0     H22670   9.280   5.416  11.589 -1.3650  0.6785 -1.9548
  168MOL0     H22671   9.341   5.322  11.461 -2.7630 -1.8393  0.8789
  168MOL0     H22672   9.293   5.533  11.312  3.1871 -0.1221  1.1654
  168MOL0     H22673   9.232   5.624  11.453 -3.8125  2.5252 -3.1870
  168MOL0     H22674   9.040   5.464  11.480  0.0013 -0.9221 -0.8749
  168MOL0     H22675   9.036   5.520  11.326  2.1201 -1.5992 -2.0496
  168MOL0     H22676   9.112   5.104  11.271  0.7978 -0.6110  2.3080
  168MOL0     H22677   9.742   5.547  11.582  2.5658  1.7097  1.3207
  168MOL0     H22678   9.939   5.565  11.630 -0.1731 -0.4303 -0.1507
  168MOL0     H22679  10.066   5.671  11.554 -0.5475  0.6414 -0.2993
  168MOL0     H22680   9.930   5.740  11.650 -0.5785  0.6003 -1.7909
  169MOL0     O22681   2.526   5.565   2.381  0.5194  0.5861  0.5835
  169MOL0     C22682   2.531   5.509   2.494 -0.4502  0.8537  0.0050
  169MOL0     O22683   2.617   5.407   2.519 -0.4413 -0.1598  0.0094
  169MOL0     C22684   2.745   5.406   2.464 -0.2345  0.6771 -0.5513
  169MOL0     C22685   2.820   5.515   2.410  0.1376 -0.5909 -0.2315
  169MOL0     C22686   2.951   5.496   2.376 -0.3891 -0.0716  0.4147
  169MOL0     C22687   3.015   5.370   2.384 -1.2402 -0.6539  0.8741
  169MOL0     O22688   3.140   5.353   2.344  0.0571  0.0394  0.0108
  169MOL0     C22689   3.234   5.334   2.455  0.2553 -0.6557 -0.0711
  169MOL0     C22690   3.370   5.313   2.383 -0.2549 -0.1313  1.0638
  169MOL0     C22691   3.487   5.292   2.483  0.1875 -0.0990 -0.2622
  169MOL0     C22692   3.621   5.310   2.407  0.9323 -0.6293 -0.0194
  169MOL0     C22693   3.747   5.317   2.494  0.1482  0.3341  0.9378
  169MOL0     C22694   3.765   5.196   2.588 -1.0782  0.6084 -0.6515
  169MOL0     C22695   3.762   5.059   2.507 -0.2988  0.0744 -0.6877
  169MOL0     C22696   3.858   5.045   2.390 -0.3748  0.1849 -1.1340
  169MOL0     N22697   4.006   5.053   2.427  0.7314 -0.3187 -0.7205
  169MOL0     C22698   4.067   5.154   2.495 -0.6155  0.2674  0.5559
  169MOL0     C22699   4.189   5.095   2.532 -0.4094 -0.4844  0.2193
  169MOL0     C22700   4.301   5.157   2.615 -0.3655 -0.8615 -0.7784
  169MOL0     C22701   4.364   5.244   2.514 -0.5994  0.0987 -0.7840
  169MOL0     C22702   4.490   5.317   2.566 -1.1666 -0.1307 -0.3925
  169MOL0     C22703   4.603   5.219   2.597 -1.3173 -0.5100 -0.5756
  169MOL0     O22704   4.655   5.158   2.478 -0.4850  0.1076 -0.6083
  169MOL0     C22705   4.783   5.110   2.492  0.4189  1.1910  0.8843
  169MOL0     C22706   4.885   5.138   2.400 -0.0648 -1.2921 -0.3102
  169MOL0     C22707   5.019   5.085   2.408  0.4457  1.0796  0.6878
  169MOL0     C22708   5.050   4.993   2.507 -0.1849 -0.4549  0.3480
  169MOL0     C22709   5.182   4.942   2.524  0.2553 -0.7241 -0.0287
  169MOL0     O22710   5.275   4.989   2.426  0.1316  0.8060  0.1186
  169MOL0     C22711   5.399   4.957   2.454 -0.7414 -0.2498  0.2596
  169MOL0     C22712   5.495   5.040   2.518 -0.5512 -0.3464  0.1649
  169MOL0     C22713   5.626   4.989   2.537 -0.5839  1.0128 -0.1409
  169MOL0     C22714   5.655   4.853   2.502 -0.6210  0.3079 -0.3591
  169MOL0     O22715   5.785   4.826   2.530 -0.2033  0.1968 -0.3520
  169MOL0     C22716   5.845   4.705   2.464 -0.0086 -0.4771  0.7946
  169MOL0     C22717   5.987   4.745   2.422  0.6178  0.3967 -0.0112
  169MOL0     C22718   6.085   4.770   2.542  0.4036  0.7033 -0.3516
  169MOL0     C22719   6.228   4.779   2.489 -0.2050 -0.8216 -0.3790
  169MOL0     C22720   6.327   4.776   2.605 -0.5334 -0.7866 -0.3978
  169MOL0     C22721   6.475   4.779   2.563  0.1189  0.3613  0.0966
  169MOL0     C22722   6.519   4.855   2.444  0.2215 -0.1936  0.6768
  169MOL0     C22723   6.655   4.822   2.387  0.8027  0.5207  0.0869
  169MOL0    Cl22724   6.774   4.851   2.524  0.0173  0.3762  0.0884
  169MOL0     C22725   5.558   4.777   2.455  0.3570 -0.1989  0.0897
  169MOL0     C22726   5.428   4.824   2.425  0.9242 -0.3158  0.1168
  169MOL0     O22727   5.207   4.863   2.612 -0.4981 -0.4374 -0.1637
  169MOL0     C22728   4.952   4.967   2.604  0.0352 -0.3906  0.1496
  169MOL0     C22729   4.818   5.016   2.586  0.3210  0.8723 -0.5787
  169MOL0     N22730   4.198   4.971   2.476  0.0067  0.3914 -0.6257
  169MOL0     N22731   4.090   4.947   2.417 -0.4529  0.0951 -0.5650
  169MOL0     C22732   2.944   5.262   2.425 -0.3559 -0.7955 -0.0819
  169MOL0     C22733   2.807   5.282   2.465 -0.1039 -0.1847  0.6797
  169MOL0     C22734   2.420   5.528   2.587  0.3769  0.7569  0.5376
  169MOL0     C22735   2.385   5.435   2.680  0.0679  0.0233  0.4492
  169MOL0     C22736   2.297   5.473   2.787  0.8579 -0.6985  0.0861
  169MOL0     C22737   2.237   5.598   2.801 -0.5651  0.3093 -0.6300
  169MOL0     O22738   2.166   5.639   2.907 -0.0883 -0.0401  0.1706
  169MOL0     C22739   2.146   5.561   3.026  0.8180  0.1460 -0.4828
  169MOL0     C22740   2.024   5.476   2.996  0.9093  0.2838  0.0616
  169MOL0     C22741   1.896   5.569   2.980 -0.9173  0.6024 -0.3459
  169MOL0     C22742   1.767   5.502   3.016 -0.0305 -0.5308 -0.5602
  169MOL0     C22743   1.741   5.392   2.920 -0.3538  0.0606  0.2967
  169MOL0     C22744   1.702   5.300   2.840  0.3474 -0.2294 -0.1720
  169MOL0     C22745   2.262   5.685   2.693  0.1301 -0.2945 -0.1848
  169MOL0     C22746   2.343   5.650   2.585 -0.7308  0.7628 -0.9588
  169MOL0     C22747   2.359   5.764   2.486 -0.4196 -0.3911  0.8221
  169MOL0     H22748   2.783   5.615   2.387  3.2551  0.1780 -2.6195
  169MOL0     H22749   3.002   5.591   2.359 -1.8814  1.0181  1.7294
  169MOL0     H22750   3.234   5.417   2.527  0.5890 -3.4936  3.5389
  169MOL0     H22751   3.203   5.245   2.511  0.1294 -0.7521 -0.2948
  169MOL0     H22752   3.389   5.407   2.331  0.5886  0.3136  2.1373
  169MOL0     H22753   3.362   5.238   2.304 -2.8931 -0.6670  1.7255
  169MOL0     H22754   3.483   5.192   2.527 -2.3270 -0.7497 -1.8041
  169MOL0     H22755   3.483   5.357   2.572  1.2358  0.7124 -0.7845
  169MOL0     H22756   3.630   5.236   2.326 -2.9680 -0.4467 -0.8084
  169MOL0     H22757   3.624   5.405   2.352  0.0081  1.0974  2.7286
  169MOL0     H22758   3.818   5.325   2.411  1.0912  1.5017  1.8257
  169MOL0     H22759   3.764   5.412   2.545  1.1299  1.8135 -1.9092
  169MOL0     H22760   3.860   5.203   2.641 -1.2878  0.3067 -0.2299
  169MOL0     H22761   3.690   5.207   2.667 -0.4772 -0.6485  0.1296
  169MOL0     H22762   3.659   5.055   2.468 -0.4326  0.9797 -0.4536
  169MOL0     H22763   3.791   4.982   2.578  2.1164  1.5068 -0.0283
  169MOL0     H22764   3.844   4.943   2.352 -1.4994  0.8046 -2.4885
  169MOL0     H22765   3.835   5.105   2.301 -2.0989  1.6676  0.2527
  169MOL0     H22766   4.034   5.256   2.513  1.9912  1.1155  1.0787
  169MOL0     H22767   4.242   5.203   2.694 -0.9940 -1.4308 -0.9023
  169MOL0     H22768   4.370   5.091   2.668 -0.4840  1.4527  2.5550
  169MOL0     H22769   4.397   5.179   2.433  1.5847  0.9668 -0.6644
  169MOL0     H22770   4.289   5.316   2.479  0.6798  1.4493 -0.8588
  169MOL0     H22771   4.473   5.382   2.651  0.7527 -1.6232  1.2450
  169MOL0     H22772   4.531   5.383   2.489  1.6836  1.0264  1.9586
  169MOL0     H22773   4.569   5.145   2.671 -1.8208  0.2769 -0.0024
  169MOL0     H22774   4.689   5.274   2.637  0.3411  0.3173 -4.7840
  169MOL0     H22775   4.865   5.210   2.321  3.1205  0.3254  0.1874
  169MOL0     H22776   5.087   5.116   2.328  1.7520 -3.1084 -0.0410
  169MOL0     H22777   5.487   5.148   2.531 -0.2045 -0.3609  0.4967
  169MOL0     H22778   5.705   5.055   2.570 -0.6793  0.9257  0.2799
  169MOL0     H22779   5.858   4.622   2.534 -0.7915 -2.3417 -1.1539
  169MOL0     H22780   5.805   4.669   2.369  2.6261 -0.5096 -0.3853
  169MOL0     H22781   6.030   4.669   2.355  0.8182  1.6396 -1.3428
  169MOL0     H22782   5.978   4.841   2.371 -1.8905 -0.2840 -1.0024
  169MOL0     H22783   6.056   4.864   2.590 -0.5816  0.9380 -1.3600
  169MOL0     H22784   6.073   4.691   2.618 -1.4021  1.6967  0.4579
  169MOL0     H22785   6.242   4.868   2.426  2.4474 -1.0169 -0.1513
  169MOL0     H22786   6.253   4.691   2.430  0.3468 -2.1723  1.7385
  169MOL0     H22787   6.310   4.698   2.680  0.2591  1.0679  1.8477
  169MOL0     H22788   6.303   4.863   2.667 -1.1660 -1.0884 -0.2028
  169MOL0     H22789   6.525   4.827   2.647 -2.5853  0.6242  1.6743
  169MOL0     H22790   6.522   4.681   2.549 -0.2991 -0.0375  1.3539
  169MOL0     H22791   6.505   4.962   2.464 -1.7549 -0.0802 -0.9697
  169MOL0     H22792   6.445   4.844   2.364 -1.0546 -0.1596  1.8230
  169MOL0     H22793   6.656   4.716   2.361 -0.8754  0.8801 -1.6456
  169MOL0     H22794   6.667   4.883   2.298 -2.0278  0.4421 -0.4251
  169MOL0     H22795   5.582   4.674   2.428  1.4386  0.2316 -0.6602
  169MOL0     H22796   5.348   4.758   2.391 -0.4402  1.4451 -0.2654
  169MOL0     H22797   4.975   4.905   2.691  0.7829  0.7833  0.8119
  169MOL0     H22798   4.744   4.992   2.662  1.0989 -2.5049 -0.7415
  169MOL0     H22799   2.975   5.158   2.416  2.4430 -0.2239  1.7260
  169MOL0     H22800   2.745   5.195   2.487  1.0090 -0.8800  1.1780
  169MOL0     H22801   2.419   5.332   2.676  1.9748  0.6690 -2.0320
  169MOL0     H22802   2.294   5.394   2.862  2.1038 -0.0385  0.8569
  169MOL0     H22803   2.121   5.635   3.103  0.4960 -1.4214  0.9841
  169MOL0     H22804   2.235   5.503   3.050  0.6441 -1.0917 -2.5684
  169MOL0     H22805   2.001   5.417   3.085 -0.5206  2.2548  1.0774
  169MOL0     H22806   2.046   5.419   2.906  0.7121 -0.2017  0.3190
  169MOL0     H22807   1.901   5.589   2.872  2.2261  0.4767 -0.3443
  169MOL0     H22808   1.901   5.662   3.036 -0.5545  1.6595 -2.0524
  169MOL0     H22809   1.758   5.468   3.119 -4.3142 -0.2051 -0.6752
  169MOL0     H22810   1.698   5.583   2.990 -1.1387 -0.4039  2.4125
  169MOL0     H22811   1.685   5.227   2.763 -0.3316 -1.5513  1.1779
  169MOL0     H22812   2.218   5.784   2.702  1.4854  0.1644  2.7412
  169MOL0     H22813   2.447   5.828   2.492 -0.9178  0.4370 -0.2692
  169MOL0     H22814   2.356   5.723   2.384  2.0715  1.8582 -0.2721
  169MOL0     H22815   2.279   5.837   2.493  0.4195  0.4222  2.3994
  170MOL0     O22816  11.184   6.276   8.654  0.1752  0.2801  0.4452
  170MOL0     C22817  11.129   6.236   8.757 -0.5963  0.8609  0.4695
  170MOL0     O22818  11.001   6.198   8.771  0.2657 -0.2627 -0.3207
  170MOL0     C22819  10.913   6.186   8.665 -0.2748  0.9513 -0.5319
  170MOL0     C22820  10.848   6.295   8.605  0.5046  0.2157 -0.8185
  170MOL0     C22821  10.755   6.270   8.505 -0.1315  0.2151 -0.3325
  170MOL0     C22822  10.720   6.144   8.462 -0.3724 -0.0403  0.1811
  170MOL0     O22823  10.634   6.142   8.360 -1.0102  0.2178  0.6637
  170MOL0     C22824  10.556   6.028   8.341  0.1371  0.4410 -0.2228
  170MOL0     C22825  10.447   6.055   8.233  0.5219  0.2842  0.2036
  170MOL0     C22826  10.508   6.075   8.090 -0.0777  1.2146 -1.0056
  170MOL0     C22827  10.603   5.957   8.060 -0.2069  0.1974  0.8814
  170MOL0     C22828  10.668   5.952   7.918  0.7100 -0.3087  0.5382
  170MOL0     C22829  10.793   6.035   7.920  0.3556 -0.9658  0.3545
  170MOL0     C22830  10.876   6.008   7.789  0.1445  0.3933  0.2558
  170MOL0     C22831  10.825   6.076   7.658  0.5360  0.1608 -0.2960
  170MOL0     N22832  10.943   6.122   7.582  0.4519 -0.2650 -0.3422
  170MOL0     C22833  11.051   6.046   7.545  0.0521 -0.5940 -0.1632
  170MOL0     C22834  11.118   6.109   7.448  0.9982 -1.0113  0.0916
  170MOL0     C22835  11.239   6.055   7.376  0.6452  0.3956  0.5475
  170MOL0     C22836  11.367   6.048   7.459  1.0051  0.4128 -0.3379
  170MOL0     C22837  11.503   6.032   7.379  0.1293  0.3034 -0.0291
  170MOL0     C22838  11.623   6.030   7.469 -0.3268  0.2234 -0.4489
  170MOL0     O22839  11.745   5.998   7.393 -0.0535 -1.0218 -0.4990
  170MOL0     C22840  11.836   6.087   7.434 -0.2549  0.5888 -0.2383
  170MOL0     C22841  11.961   6.029   7.456 -0.5860 -0.4267 -0.0582
  170MOL0     C22842  12.075   6.103   7.487 -0.3346 -0.3053 -0.0179
  170MOL0     C22843  12.063   6.243   7.475  0.0215  0.6723 -0.2688
  170MOL0     C22844  12.182   6.333   7.514 -0.8512  0.4867 -0.9791
  170MOL0     O22845  12.166   6.467   7.471 -0.8752 -0.3508 -0.4864
  170MOL0     C22846  12.283   6.537   7.482  1.2726  0.4070 -0.9302
  170MOL0     C22847  12.406   6.502   7.419 -1.0342 -0.1288  0.1593
  170MOL0     C22848  12.516   6.585   7.440 -0.7336 -0.0661 -0.4363
  170MOL0     C22849  12.515   6.682   7.544  0.1167  0.7028 -0.6023
  170MOL0     O22850  12.628   6.739   7.602 -0.6179  0.5070  0.6219
  170MOL0     C22851  12.757   6.716   7.542 -1.2205  0.1933 -0.2931
  170MOL0     C22852  12.862   6.763   7.640 -1.1089 -0.4058 -1.2252
  170MOL0     C22853  13.001   6.725   7.602  0.1558  0.1781  0.8012
  170MOL0     C22854  13.096   6.775   7.708 -0.4306 -0.1900 -0.2279
  170MOL0     C22855  13.242   6.722   7.679  0.4643  0.1755  0.8211
  170MOL0     C22856  13.286   6.792   7.550 -0.4067  0.0867 -0.6019
  170MOL0     C22857  13.442   6.791   7.532  0.2530 -0.4171 -0.8412
  170MOL0     C22858  13.498   6.876   7.418  0.2616 -0.1027 -0.8599
  170MOL0    Cl22859  13.410   7.029   7.389  0.1118 -0.2644  0.3367
  170MOL0     C22860  12.395   6.711   7.601  0.9306 -0.2516 -0.0725
  170MOL0     C22861  12.277   6.644   7.577 -0.0352  1.6956  0.4963
  170MOL0     O22862  12.279   6.280   7.572  0.1371 -0.0465 -0.4750
  170MOL0     C22863  11.937   6.301   7.453  1.0107 -0.1805 -0.1086
  170MOL0     C22864  11.826   6.220   7.422  0.3762 -0.7004 -0.4332
  170MOL0     N22865  11.054   6.232   7.432  0.2437  1.2065  0.2135
  170MOL0     N22866  10.958   6.240   7.517 -0.3521 -0.5175 -0.3042
  170MOL0     C22867  10.798   6.036   8.517  0.5283 -0.1489  0.6394
  170MOL0     C22868  10.896   6.058   8.616 -0.4817 -0.3759  0.3229
  170MOL0     C22869  11.205   6.235   8.886 -0.6194  0.0728 -0.4931
  170MOL0     C22870  11.153   6.154   8.999  0.6796  0.3065 -0.0183
  170MOL0     C22871  11.209   6.148   9.125  0.1828 -1.6621 -0.2874
  170MOL0     C22872  11.330   6.218   9.145  0.3590 -0.0847 -0.5785
  170MOL0     O22873  11.405   6.228   9.259 -0.3611 -0.3972 -0.4326
  170MOL0     C22874  11.365   6.155   9.374 -0.0309  0.4085  0.0009
  170MOL0     C22875  11.436   6.015   9.364  0.2449 -0.2641  0.5621
  170MOL0     C22876  11.571   6.012   9.441  0.5450  0.1191  0.3796
  170MOL0     C22877  11.663   5.893   9.411  0.1118  0.3296 -0.7092
  170MOL0     C22878  11.770   5.870   9.514  0.4634 -0.3659 -0.6691
  170MOL0     C22879  11.870   5.859   9.577  0.4168 -0.3295 -0.1621
  170MOL0     C22880  11.389   6.285   9.037 -0.8228 -0.6500 -0.3467
  170MOL0     C22881  11.324   6.304   8.914 -0.4598  0.1247 -0.0905
  170MOL0     C22882  11.389   6.397   8.809  0.4562 -0.2469 -0.5251
  170MOL0     H22883  10.864   6.394   8.645 -0.4655 -0.3289  1.0290
  170MOL0     H22884  10.704   6.353   8.460 -1.4453  0.0006  0.6993
  170MOL0     H22885  10.620   5.942   8.321  4.7364  2.7959  2.6409
  170MOL0     H22886  10.519   5.998   8.439  3.3862 -1.1007  0.6520
  170MOL0     H22887  10.391   6.141   8.271 -0.3954 -0.8534  1.5345
  170MOL0     H22888  10.384   5.966   8.237  0.6870  0.2012  3.0387
  170MOL0     H22889  10.563   6.169   8.095 -2.0204  2.3453  2.2872
  170MOL0     H22890  10.424   6.093   8.021  1.1973  0.8009 -2.7452
  170MOL0     H22891  10.688   5.963   8.128 -0.3949  2.2683  1.0033
  170MOL0     H22892  10.542   5.867   8.065  0.1080 -0.3680 -2.6889
  170MOL0     H22893  10.696   5.849   7.893 -0.6057 -0.4499 -0.4471
  170MOL0     H22894  10.593   5.987   7.847 -3.4631 -4.8034  2.1710
  170MOL0     H22895  10.778   6.142   7.936 -3.5135 -1.3995  0.6440
  170MOL0     H22896  10.854   5.992   8.001  3.7536  1.9959 -0.3848
  170MOL0     H22897  10.871   5.903   7.762  1.1432  0.6790 -1.1611
  170MOL0     H22898  10.981   6.033   7.803  0.6629 -1.5297  0.0621
  170MOL0     H22899  10.760   6.009   7.601 -1.5446  0.1305  1.9325
  170MOL0     H22900  10.771   6.162   7.700  1.9821  0.7488  0.4022
  170MOL0     H22901  11.073   5.944   7.577  0.7973 -1.4270 -3.0993
  170MOL0     H22902  11.223   5.950   7.348 -0.5902  0.3098  1.5101
  170MOL0     H22903  11.262   6.110   7.284  0.5111 -1.6936 -0.8065
  170MOL0     H22904  11.368   6.148   7.502 -1.8043  0.5024 -0.2965
  170MOL0     H22905  11.369   5.982   7.547 -1.1541  1.1388  0.3243
  170MOL0     H22906  11.521   6.109   7.303  0.3317 -1.4231 -1.8086
  170MOL0     H22907  11.491   5.937   7.327 -0.3129 -0.9023  2.1834
  170MOL0     H22908  11.616   5.952   7.545  2.0328 -1.9756 -2.3261
  170MOL0     H22909  11.615   6.131   7.512 -1.7142 -0.3274  0.6723
  170MOL0     H22910  11.973   5.922   7.448  0.0797 -0.2529 -1.7481
  170MOL0     H22911  12.175   6.065   7.505  0.3904  1.7998  0.7994
  170MOL0     H22912  12.422   6.419   7.351  0.3802 -0.0462  0.3549
  170MOL0     H22913  12.611   6.559   7.393 -0.4249  0.0813  0.0946
  170MOL0     H22914  12.773   6.608   7.536 -1.6481  0.2134 -3.0849
  170MOL0     H22915  12.765   6.760   7.442  0.3371 -1.5697 -1.0017
  170MOL0     H22916  12.866   6.871   7.653  0.4620 -0.5616 -0.2443
  170MOL0     H22917  12.839   6.720   7.738 -0.9847 -1.3633 -1.6076
  170MOL0     H22918  13.003   6.617   7.587  0.3407 -0.0007  1.9868
  170MOL0     H22919  13.020   6.774   7.506  2.3474 -2.4343 -0.2432
  170MOL0     H22920  13.073   6.741   7.809  0.3415 -0.2333 -0.0594
  170MOL0     H22921  13.089   6.884   7.713 -0.1246 -0.0712 -1.8870
  170MOL0     H22922  13.238   6.613   7.669 -3.7574  0.3266 -1.8729
  170MOL0     H22923  13.303   6.749   7.766  4.0063 -0.4440 -1.2605
  170MOL0     H22924  13.253   6.740   7.460  2.2587 -0.5883 -1.2941
  170MOL0     H22925  13.246   6.894   7.550  0.2853  0.4450  2.2469
  170MOL0     H22926  13.484   6.690   7.536  0.1096 -0.5166 -1.5800
  170MOL0     H22927  13.491   6.830   7.621 -0.7299  1.2751 -1.0122
  170MOL0     H22928  13.607   6.878   7.427  0.2114  1.3473 -0.4506
  170MOL0     H22929  13.485   6.814   7.328  1.3849  1.4192 -2.1254
  170MOL0     H22930  12.397   6.800   7.664 -1.5385 -0.3957  0.3266
  170MOL0     H22931  12.179   6.655   7.624  1.0283  1.8877  2.8132
  170MOL0     H22932  11.923   6.408   7.451  0.5343 -0.1935  1.3805
  170MOL0     H22933  11.735   6.265   7.383  1.4097 -1.1996 -3.7460
  170MOL0     H22934  10.766   5.937   8.488 -3.8018  0.9289  0.9982
  170MOL0     H22935  10.962   5.982   8.658 -1.3239 -1.5171 -0.3659
  170MOL0     H22936  11.063   6.094   8.994  0.2018  1.0395 -0.3089
  170MOL0     H22937  11.161   6.091   9.203 -0.0567  0.5014  1.2268
  170MOL0     H22938  11.257   6.138   9.376  0.0017  0.2625  0.7662
  170MOL0     H22939  11.393   6.216   9.459  1.1184  0.3812 -0.3423
  170MOL0     H22940  11.433   5.984   9.259 -0.4195 -2.5894  1.1996
  170MOL0     H22941  11.375   5.937   9.410 -1.1693  0.4355 -0.0641
  170MOL0     H22942  11.546   6.003   9.547  3.1188 -2.1624  0.9017
  170MOL0     H22943  11.633   6.101   9.429  4.6473 -2.3447  1.1787
  170MOL0     H22944  11.603   5.801   9.403 -0.3496  0.4182  1.1807
  170MOL0     H22945  11.720   5.913   9.319  0.1514 -0.3452 -0.8365
  170MOL0     H22946  11.954   5.844   9.641  0.9614 -3.3954 -1.4133
  170MOL0     H22947  11.487   6.331   9.052 -0.7623 -0.3722 -1.5110
  170MOL0     H22948  11.320   6.482   8.811 -0.4999 -0.9037  3.5352
  170MOL0     H22949  11.491   6.417   8.841  0.6148  1.7175 -2.0695
  170MOL0     H22950  11.398   6.369   8.704 -1.9308  2.1813 -1.5095
  171MOL0     O22951   9.562   1.193   0.949 -0.0669 -0.3334  0.2420
  171MOL0     C22952   9.549   1.301   1.009 -0.1684  0.1376 -0.3996
  171MOL0     O22953   9.635   1.349   1.104 -0.5346 -0.4197  0.2752
  171MOL0     C22954   9.763   1.291   1.110 -0.2000 -0.0920 -0.7813
  171MOL0     C22955   9.868   1.321   1.013  0.3307  0.0421 -0.5177
  171MOL0     C22956   9.993   1.262   1.021 -0.5136 -0.7354  0.2650
  171MOL0     C22957  10.015   1.157   1.102  0.0410  0.5457  0.0196
  171MOL0     O22958  10.140   1.093   1.099  0.3375  0.1203 -0.3039
  171MOL0     C22959  10.171   1.009   1.216 -0.1782 -0.2944  0.4323
  171MOL0     C22960  10.318   0.958   1.209 -0.2113  0.0987 -0.0605
  171MOL0     C22961  10.428   1.058   1.169  0.0778  0.2179  0.5911
  171MOL0     C22962  10.564   0.988   1.147 -0.0275  0.2293 -0.0945
  171MOL0     C22963  10.673   1.099   1.106  0.4656  0.5783  0.3065
  171MOL0     C22964  10.808   1.041   1.069 -0.7426  0.6872 -0.2944
  171MOL0     C22965  10.903   1.143   1.016  0.2735 -0.0429  0.2455
  171MOL0     C22966  10.973   1.228   1.122  0.3545 -0.0253  0.0478
  171MOL0     N22967  11.100   1.277   1.065  0.9310  0.0574  1.2326
  171MOL0     C22968  11.114   1.382   0.978  0.1200  1.1749 -0.5329
  171MOL0     C22969  11.240   1.382   0.944 -0.0608 -0.4107 -0.5132
  171MOL0     C22970  11.292   1.462   0.835  0.2216 -0.0160  0.3831
  171MOL0     C22971  11.443   1.463   0.818 -0.2480 -0.5009  0.0959
  171MOL0     C22972  11.502   1.572   0.901  0.4269 -0.3305  0.0917
  171MOL0     C22973  11.653   1.593   0.864 -0.3037 -0.1813  1.4605
  171MOL0     O22974  11.665   1.695   0.768  0.2113  0.3895  0.0298
  171MOL0     C22975  11.792   1.716   0.739 -0.0903 -0.1857 -0.3662
  171MOL0     C22976  11.862   1.637   0.650 -0.1772  0.2667 -0.6626
  171MOL0     C22977  11.998   1.660   0.624  0.7137 -0.3127 -0.3756
  171MOL0     C22978  12.062   1.771   0.676  0.4425 -0.8755 -0.0448
  171MOL0     C22979  12.200   1.797   0.636 -1.0079  0.1066 -0.2321
  171MOL0     O22980  12.253   1.730   0.527  0.0499  0.4082 -0.9800
  171MOL0     C22981  12.384   1.740   0.498 -0.0433 -0.2176  0.2425
  171MOL0     C22982  12.408   1.731   0.362  0.5443 -0.0328 -0.0237
  171MOL0     C22983  12.534   1.728   0.314 -0.3507 -0.0082  0.2564
  171MOL0     C22984  12.646   1.735   0.393  0.8415  0.1044 -0.2079
  171MOL0     O22985  12.766   1.725   0.324 -0.0526 -0.2169 -0.3198
  171MOL0     C22986  12.878   1.686   0.406  0.2828  0.4723 -0.3370
  171MOL0     C22987  12.994   1.649   0.303  0.4492 -0.1431 -0.0857
  171MOL0     C22988  13.114   1.582   0.376 -0.0585 -0.7384  0.4239
  171MOL0     C22989  13.186   1.481   0.280  0.7249  0.7412  0.0874
  171MOL0     C22990  13.268   1.372   0.352 -1.6767  1.5705 -0.1760
  171MOL0     C22991  13.391   1.432   0.423 -0.6604 -0.4913 -0.3986
  171MOL0     C22992  13.483   1.327   0.494  0.5943 -1.1900  0.3729
  171MOL0     C22993  13.601   1.401   0.559 -1.2595  0.0726  0.5906
  171MOL0    Cl22994  13.706   1.491   0.435 -0.3550 -0.0684  0.0204
  171MOL0     C22995  12.626   1.736   0.535 -0.1385  0.0180 -0.1249
  171MOL0     C22996  12.492   1.743   0.589 -0.2218  0.5457  0.1545
  171MOL0     O22997  12.267   1.874   0.709 -0.3677  0.5234  0.1930
  171MOL0     C22998  11.994   1.856   0.763 -0.4004 -0.1089 -0.5365
  171MOL0     C22999  11.866   1.825   0.806 -0.9211  0.1368 -0.6442
  171MOL0     N23000  11.301   1.295   1.024  0.1755  0.7320 -0.0980
  171MOL0     N23001  11.220   1.224   1.091 -0.1179  0.0782  0.1204
  171MOL0     C23002   9.917   1.121   1.199  0.8506 -0.2729 -0.0613
  171MOL0     C23003   9.794   1.188   1.205 -0.1928 -1.2947  0.7245
  171MOL0     C23004   9.427   1.375   0.978  0.1320 -0.0800 -0.1938
  171MOL0     C23005   9.382   1.385   0.848  0.6060 -0.5662 -0.1269
  171MOL0     C23006   9.273   1.472   0.814 -0.0970  0.6706 -0.1481
  171MOL0     C23007   9.207   1.539   0.920  0.0470 -0.6017 -0.4839
  171MOL0     O23008   9.113   1.630   0.878  0.7841  0.5887 -0.5902
  171MOL0     C23009   8.986   1.622   0.952  0.6694 -0.3040 -0.4981
  171MOL0     C23010   8.889   1.516   0.898  0.5147 -0.4610 -0.4227
  171MOL0     C23011   8.843   1.530   0.759  0.2182 -0.6164 -0.4767
  171MOL0     C23012   8.803   1.401   0.677  0.7141  0.1950 -0.7792
  171MOL0     C23013   8.710   1.338   0.768  0.9173 -0.0984  0.2063
  171MOL0     C23014   8.619   1.290   0.842  0.2501  0.0715  0.5855
  171MOL0     C23015   9.259   1.530   1.044  1.0639 -0.3087  0.1378
  171MOL0     C23016   9.358   1.445   1.088  0.5872  0.3935 -0.5193
  171MOL0     C23017   9.377   1.435   1.235  0.6728  0.9840  1.2421
  171MOL0     H23018   9.831   1.395   0.942 -1.2890 -0.0359  0.2126
  171MOL0     H23019  10.067   1.284   0.945 -0.9475 -0.1069  0.0170
  171MOL0     H23020  10.155   1.073   1.303 -2.4983 -0.5504  0.2599
  171MOL0     H23021  10.100   0.926   1.212 -0.6733  0.0736  1.3539
  171MOL0     H23022  10.315   0.863   1.155  2.0049 -0.4883  0.7337
  171MOL0     H23023  10.327   0.939   1.316 -0.6155  1.1112  0.1661
  171MOL0     H23024  10.444   1.133   1.247  0.9788 -2.1954  2.8933
  171MOL0     H23025  10.404   1.111   1.077 -1.3587 -0.4449  0.5444
  171MOL0     H23026  10.600   0.951   1.244  0.6664  2.4753  0.5728
  171MOL0     H23027  10.577   0.910   1.071  2.8518  0.3715  0.1224
  171MOL0     H23028  10.632   1.160   1.025  0.8554  0.6990  0.1971
  171MOL0     H23029  10.683   1.170   1.189 -0.5807  0.3409  0.6412
  171MOL0     H23030  10.858   0.984   1.149 -1.4464  0.1231 -0.2424
  171MOL0     H23031  10.787   0.963   0.995 -3.7329  0.5240  0.5826
  171MOL0     H23032  10.851   1.214   0.951 -0.1664  0.1814  0.8357
  171MOL0     H23033  10.979   1.087   0.961  1.4561  2.2460 -0.5893
  171MOL0     H23034  10.913   1.317   1.141  1.2057  0.2981  1.3883
  171MOL0     H23035  10.996   1.179   1.217 -0.2934  4.2774  2.6984
  171MOL0     H23036  11.037   1.447   0.937  0.2816  0.5696 -1.8558
  171MOL0     H23037  11.247   1.417   0.746 -0.2622 -1.6646  1.4223
  171MOL0     H23038  11.249   1.562   0.841 -1.2484 -0.6393  0.5738
  171MOL0     H23039  11.486   1.363   0.831 -1.6028 -1.3404 -1.4189
  171MOL0     H23040  11.462   1.480   0.712 -0.8551  0.7379  0.1766
  171MOL0     H23041  11.507   1.533   1.003  0.0428 -2.8288 -0.7658
  171MOL0     H23042  11.446   1.665   0.897  2.0070  0.6351 -0.1548
  171MOL0     H23043  11.697   1.500   0.827 -0.4716 -0.7098  2.5270
  171MOL0     H23044  11.703   1.620   0.958  2.5155  2.0021 -0.5077
  171MOL0     H23045  11.829   1.543   0.606 -0.6015 -0.7001  1.5680
  171MOL0     H23046  12.051   1.597   0.553  1.1097 -1.8259  1.1654
  171MOL0     H23047  12.328   1.733   0.287  1.5675 -2.0006 -1.2552
  171MOL0     H23048  12.548   1.722   0.206  1.5136 -2.3556  0.5360
  171MOL0     H23049  12.913   1.765   0.472  2.0765  0.7068 -1.4902
  171MOL0     H23050  12.854   1.594   0.460 -3.1411  0.7046 -1.2555
  171MOL0     H23051  12.955   1.584   0.224  0.8273  1.0430 -1.2806
  171MOL0     H23052  13.023   1.746   0.262 -0.1001  1.4016  2.9129
  171MOL0     H23053  13.181   1.657   0.417 -1.6733  0.7552  0.4551
  171MOL0     H23054  13.086   1.514   0.458  2.0059 -0.6371  1.2794
  171MOL0     H23055  13.253   1.535   0.212  0.6294  0.4498 -0.2413
  171MOL0     H23056  13.116   1.427   0.215  0.7318  0.4554  0.3145
  171MOL0     H23057  13.297   1.305   0.270  0.1496 -0.9363  2.3106
  171MOL0     H23058  13.211   1.302   0.414 -0.6505 -2.0713 -2.9825
  171MOL0     H23059  13.450   1.488   0.350  0.9257 -2.8445 -1.0611
  171MOL0     H23060  13.347   1.493   0.502 -1.6152 -2.7229  0.8879
  171MOL0     H23061  13.521   1.256   0.421  1.2736 -1.4741  0.9888
  171MOL0     H23062  13.436   1.273   0.577 -0.8925  0.3375  0.5863
  171MOL0     H23063  13.561   1.451   0.648 -5.0965 -0.4771 -0.6281
  171MOL0     H23064  13.674   1.324   0.585  1.7757  2.2081 -0.9445
  171MOL0     H23065  12.710   1.720   0.602  1.5006 -0.9741 -2.2786
  171MOL0     H23066  12.491   1.727   0.697 -2.3399 -2.6666 -0.1945
  171MOL0     H23067  12.053   1.934   0.812  0.0024 -1.6611  1.6111
  171MOL0     H23068  11.812   1.877   0.884 -3.0786 -0.2231 -1.8194
  171MOL0     H23069   9.928   1.041   1.271 -0.8381  0.0373  0.5787
  171MOL0     H23070   9.721   1.169   1.283 -2.4178  0.3910 -0.8005
  171MOL0     H23071   9.424   1.317   0.775 -2.4123 -1.2911 -1.3610
  171MOL0     H23072   9.229   1.488   0.716  0.7593 -0.2685 -0.6902
  171MOL0     H23073   8.933   1.717   0.944 -1.4295 -1.4854 -1.2567
  171MOL0     H23074   9.009   1.608   1.058  0.2055 -0.6906 -0.4464
  171MOL0     H23075   8.802   1.498   0.963  1.0150  0.6405  0.5969
  171MOL0     H23076   8.943   1.420   0.905  1.8777  0.2567 -0.7188
  171MOL0     H23077   8.928   1.577   0.710 -0.8972  0.7420 -1.1710
  171MOL0     H23078   8.763   1.604   0.758  1.6535  1.1053  1.7427
  171MOL0     H23079   8.762   1.431   0.580 -0.7783 -0.4147 -0.3614
  171MOL0     H23080   8.891   1.340   0.656  1.8222  1.9788 -1.5528
  171MOL0     H23081   8.543   1.252   0.908  0.5267 -0.1633  0.7728
  171MOL0     H23082   9.215   1.574   1.133  1.7921  1.4864 -0.3361
  171MOL0     H23083   9.403   1.532   1.278  3.2871  0.8264  0.1986
  171MOL0     H23084   9.287   1.400   1.287  1.3768 -1.1345  1.1296
  171MOL0     H23085   9.445   1.353   1.257  1.5368  1.4451  0.3538
  172MOL0     O23086   3.730  10.723   9.494 -0.8053 -0.0259 -0.0586
  172MOL0     C23087   3.731  10.767   9.375  0.0371 -0.6081 -0.5882
  172MOL0     O23088   3.664  10.707   9.278  0.1613 -0.1369 -0.0298
  172MOL0     C23089   3.584  10.594   9.290 -0.1485  0.2442 -0.3812
  172MOL0     C23090   3.446  10.601   9.302  0.0769  0.0592  0.3109
  172MOL0     C23091   3.363  10.494   9.333 -0.7998  0.8648  0.3901
  172MOL0     C23092   3.415  10.371   9.354  0.0976  0.8490 -0.7549
  172MOL0     O23093   3.333  10.256   9.384 -0.0872 -0.8163 -0.4442
  172MOL0     C23094   3.284  10.255   9.517  0.0264 -0.4379  0.1244
  172MOL0     C23095   3.168  10.160   9.524  1.1220 -0.6247  0.7780
  172MOL0     C23096   3.048  10.203   9.432 -0.8825 -0.0794 -0.9891
  172MOL0     C23097   2.936  10.105   9.452  0.5551  0.1223 -0.2247
  172MOL0     C23098   2.898  10.032   9.312 -0.0344 -0.0878 -0.5226
  172MOL0     C23099   2.791   9.924   9.337 -0.0112  0.0163  0.2338
  172MOL0     C23100   2.743   9.862   9.205  0.0432 -0.5408  0.7852
  172MOL0     C23101   2.667   9.733   9.224 -0.3610  0.9084 -0.1625
  172MOL0     N23102   2.752   9.628   9.285  0.0260  0.2309  0.1000
  172MOL0     C23103   2.865   9.566   9.227  0.0524 -0.6638  0.4782
  172MOL0     C23104   2.916   9.498   9.334 -0.6115 -0.4069  0.3739
  172MOL0     C23105   3.044   9.407   9.340  0.7982  0.7456 -0.5585
  172MOL0     C23106   3.159   9.486   9.294  0.4300  0.1381  0.3724
  172MOL0     C23107   3.283   9.400   9.294  0.2618 -0.2707 -0.1666
  172MOL0     C23108   3.409   9.476   9.265 -0.3736 -0.9891 -0.3746
  172MOL0     O23109   3.408   9.545   9.138 -0.0655 -0.1204  1.0766
  172MOL0     C23110   3.522   9.598   9.090  0.0743 -0.1176 -0.9466
  172MOL0     C23111   3.652   9.591   9.151  0.0870  0.0482 -0.0572
  172MOL0     C23112   3.767   9.652   9.086 -0.6542  0.3610 -0.0907
  172MOL0     C23113   3.746   9.729   8.973 -0.3668  0.1683 -0.2470
  172MOL0     C23114   3.857   9.808   8.907  0.2015 -0.3031  0.0348
  172MOL0     O23115   3.991   9.780   8.954  0.4754  0.4285  0.5756
  172MOL0     C23116   4.092   9.832   8.883  0.3177 -1.0931  1.0622
  172MOL0     C23117   4.176   9.741   8.817  0.2962  0.9272 -0.5610
  172MOL0     C23118   4.292   9.787   8.745 -0.1811 -0.6346 -0.1527
  172MOL0     C23119   4.324   9.928   8.738  0.0687  0.3745 -0.3485
  172MOL0     O23120   4.430   9.989   8.676 -0.2496 -0.2478  0.6824
  172MOL0     C23121   4.537   9.901   8.634  0.3674 -0.3251  0.0824
  172MOL0     C23122   4.649   9.980   8.561 -0.5360 -0.3697  0.1365
  172MOL0     C23123   4.729  10.063   8.663  0.1485  1.1499 -0.2019
  172MOL0     C23124   4.820  10.162   8.596  0.0777  0.7420  0.1236
  172MOL0     C23125   4.904  10.226   8.701 -0.1520  0.3445  0.3174
  172MOL0     C23126   4.996  10.337   8.658 -0.4019 -0.9690  0.4646
  172MOL0     C23127   5.088  10.292   8.546  0.3092 -0.3819  0.3440
  172MOL0     C23128   5.210  10.217   8.593  0.2500  0.8201 -0.4221
  172MOL0    Cl23129   5.324  10.326   8.679  0.0270 -0.4513 -0.1328
  172MOL0     C23130   4.234  10.008   8.802 -0.2401 -1.2860 -0.0809
  172MOL0     C23131   4.111   9.966   8.867 -0.6295  0.1584 -0.1694
  172MOL0     O23132   3.832   9.881   8.815  0.0036  0.0241  0.4135
  172MOL0     C23133   3.616   9.752   8.928  0.7123  0.6574  0.7431
  172MOL0     C23134   3.508   9.689   8.978 -0.4398 -0.8655 -0.0995
  172MOL0     N23135   2.836   9.520   9.450  0.4160 -0.4312  0.6045
  172MOL0     N23136   2.738   9.598   9.415 -0.3094 -0.0077  0.1606
  172MOL0     C23137   3.553  10.358   9.336 -0.5360  0.3163 -0.4154
  172MOL0     C23138   3.642  10.465   9.302  0.5093 -0.3467  0.0224
  172MOL0     C23139   3.816  10.879   9.340 -0.4240 -0.1107  0.0720
  172MOL0     C23140   3.789  10.931   9.215 -0.6245  0.1791  0.1722
  172MOL0     C23141   3.856  11.042   9.157  0.8077  0.8619  0.2556
  172MOL0     C23142   3.953  11.100   9.232  0.3733 -0.3766 -0.4091
  172MOL0     O23143   4.011  11.210   9.185  0.5917  0.5975 -0.4462
  172MOL0     C23144   4.107  11.190   9.080  1.0216  0.3425  0.2268
  172MOL0     C23145   4.223  11.288   9.099  0.4105 -0.1561  0.9053
  172MOL0     C23146   4.293  11.260   9.226  0.1469 -0.4600 -0.1217
  172MOL0     C23147   4.433  11.332   9.222 -0.2875 -0.1168  1.3831
  172MOL0     C23148   4.504  11.315   9.342 -0.0067  0.7188  0.0994
  172MOL0     C23149   4.558  11.288   9.450  0.2302 -0.2581  0.1522
  172MOL0     C23150   3.974  11.062   9.364  0.6809  0.0807 -0.0149
  172MOL0     C23151   3.921  10.941   9.418 -0.1484 -1.1053  0.1438
  172MOL0     C23152   3.962  10.890   9.557 -0.1077 -0.2303 -0.3143
  172MOL0     H23153   3.405  10.699   9.282 -1.2496 -1.1195 -3.5478
  172MOL0     H23154   3.256  10.510   9.344 -1.2536  0.4998 -2.5576
  172MOL0     H23155   3.360  10.209   9.581 -1.5895 -2.6872  0.5525
  172MOL0     H23156   3.249  10.351   9.558  2.2970  0.4545  0.1325
  172MOL0     H23157   3.131  10.162   9.627  0.0813 -0.5741  0.4138
  172MOL0     H23158   3.202  10.057   9.512  1.1620 -0.4242 -1.2063
  172MOL0     H23159   3.095  10.205   9.333  1.5350  1.5048  0.0787
  172MOL0     H23160   3.018  10.307   9.452  2.1249  0.6866  0.0288
  172MOL0     H23161   2.974  10.026   9.518  2.8320  1.3098  0.0015
  172MOL0     H23162   2.846  10.154   9.489  1.1426  0.5165  0.7236
  172MOL0     H23163   2.869  10.109   9.240  1.5978 -2.5207 -4.0695
  172MOL0     H23164   2.993   9.991   9.279  0.4531  0.9702 -0.4809
  172MOL0     H23165   2.830   9.851   9.408 -3.9315 -0.9095  1.7102
  172MOL0     H23166   2.715   9.978   9.395  0.6219 -1.1489  2.2290
  172MOL0     H23167   2.826   9.848   9.135 -0.1414 -0.8823  0.6297
  172MOL0     H23168   2.676   9.934   9.158 -0.0485 -1.3392 -0.3341
  172MOL0     H23169   2.576   9.755   9.280 -2.7241 -2.8561 -2.0756
  172MOL0     H23170   2.628   9.697   9.127  0.6095  0.3039 -0.3401
  172MOL0     H23171   2.903   9.566   9.126  0.5664  1.6851  0.6219
  172MOL0     H23172   3.044   9.368   9.442 -0.2342 -0.7517 -1.0833
  172MOL0     H23173   3.046   9.313   9.284  0.8352  0.4933 -0.1342
  172MOL0     H23174   3.151   9.522   9.192 -2.7571  1.7278  1.0678
  172MOL0     H23175   3.170   9.567   9.366  0.2908 -1.0645  1.8098
  172MOL0     H23176   3.265   9.328   9.214 -2.1469  0.7903 -0.6632
  172MOL0     H23177   3.285   9.344   9.388  0.2896  0.1533  0.0895
  172MOL0     H23178   3.490   9.409   9.297 -0.4754  0.2123  2.7897
  172MOL0     H23179   3.422   9.551   9.344  1.1972 -2.0694  0.4362
  172MOL0     H23180   3.670   9.554   9.251  2.4334  2.4567  0.5199
  172MOL0     H23181   3.864   9.645   9.134 -1.2126  1.0550  1.1860
  172MOL0     H23182   4.160   9.634   8.818 -2.6685  1.2685 -1.9175
  172MOL0     H23183   4.354   9.713   8.695  2.9563  1.0567  0.9788
  172MOL0     H23184   4.580   9.850   8.721 -1.1784 -1.7680  0.0596
  172MOL0     H23185   4.493   9.829   8.565  0.7959  0.3199 -0.8770
  172MOL0     H23186   4.725   9.920   8.510  0.9958  2.3654 -0.9654
  172MOL0     H23187   4.603  10.036   8.480  0.0498  1.1659  0.8327
  172MOL0     H23188   4.656  10.128   8.712 -2.4510 -1.3277 -0.4960
  172MOL0     H23189   4.770   9.997   8.740  1.2598  0.2365 -1.5292
  172MOL0     H23190   4.763  10.236   8.539  1.5618  0.2273 -2.1408
  172MOL0     H23191   4.872  10.100   8.524 -1.6982 -1.7289  0.8250
  172MOL0     H23192   4.969  10.148   8.741  1.3930 -1.9409 -5.6003
  172MOL0     H23193   4.841  10.269   8.780 -1.4557 -2.7729  1.1084
  172MOL0     H23194   4.939  10.424   8.623  3.0786  0.4903 -2.0739
  172MOL0     H23195   5.053  10.357   8.749  0.7871 -2.0919 -0.0138
  172MOL0     H23196   5.121  10.385   8.500 -3.2215  0.7021 -0.3414
  172MOL0     H23197   5.032  10.255   8.460  0.6997  0.6196 -0.3545
  172MOL0     H23198   5.172  10.139   8.660 -2.6909  1.8077 -0.7914
  172MOL0     H23199   5.249  10.166   8.505 -4.3718 -4.0624 -0.1207
  172MOL0     H23200   4.252  10.115   8.798  0.6374 -1.3612  1.2483
  172MOL0     H23201   4.052  10.044   8.914 -0.7310  0.2307 -0.4118
  172MOL0     H23202   3.596   9.817   8.843 -2.9168 -3.3259 -1.8359
  172MOL0     H23203   3.412   9.722   8.940  0.6488  4.0509  0.7284
  172MOL0     H23204   3.590  10.260   9.362 -2.1893 -0.3159 -0.3196
  172MOL0     H23205   3.748  10.453   9.284  1.1867  2.9637  1.1586
  172MOL0     H23206   3.713  10.883   9.154 -0.0196 -1.4949  0.6759
  172MOL0     H23207   3.830  11.072   9.056 -0.2504 -1.7604 -0.3333
  172MOL0     H23208   4.049  11.200   8.987  0.2408 -0.0894  0.6542
  172MOL0     H23209   4.146  11.088   9.070  0.3558 -0.0158  1.1481
  172MOL0     H23210   4.178  11.386   9.113 -1.8102 -0.8819 -0.5598
  172MOL0     H23211   4.298  11.280   9.020 -0.5654  0.9691 -0.1685
  172MOL0     H23212   4.305  11.154   9.252  2.2949  0.2891  2.4144
  172MOL0     H23213   4.233  11.306   9.306 -1.1761  0.7429 -1.7456
  172MOL0     H23214   4.496  11.283   9.147  0.4659 -0.5522  2.2761
  172MOL0     H23215   4.407  11.436   9.204 -1.6105 -0.6565  0.0226
  172MOL0     H23216   4.594  11.256   9.545  0.8294 -1.3808 -0.4259
  172MOL0     H23217   4.047  11.118   9.422  1.1108 -1.2437  0.7421
  172MOL0     H23218   4.041  10.952   9.601 -1.7536  0.5143  1.7660
  172MOL0     H23219   3.875  10.912   9.621  1.4379  2.7916  0.9430
  172MOL0     H23220   3.989  10.785   9.542 -0.6529 -0.3556 -0.4361
  173MOL0     O23221   6.048   3.901  10.351  0.7324  0.1557 -0.2379
  173MOL0     C23222   6.062   3.808  10.432 -0.6815 -0.8009 -0.1517
  173MOL0     O23223   5.973   3.711  10.458  0.4580  0.3161  0.2065
  173MOL0     C23224   5.857   3.729  10.384 -0.0245 -0.1698 -0.0590
  173MOL0     C23225   5.763   3.826  10.428 -0.4370 -0.0474  0.1196
  173MOL0     C23226   5.658   3.859  10.350  0.5023  0.0512  1.0503
  173MOL0     C23227   5.652   3.799  10.222 -0.0764 -0.0293 -0.3060
  173MOL0     O23228   5.562   3.834  10.124  0.0805 -0.0209 -0.0856
  173MOL0     C23229   5.443   3.909  10.158 -0.0181  1.0451  0.1878
  173MOL0     C23230   5.355   3.929  10.036 -0.4996  0.4490  0.6995
  173MOL0     C23231   5.213   3.981  10.074 -0.1646 -0.2048  0.7362
  173MOL0     C23232   5.100   3.893  10.009  0.1991  0.1433  0.1819
  173MOL0     C23233   4.957   3.922  10.064  0.1155  0.6585 -0.5598
  173MOL0     C23234   4.882   4.052  10.045 -1.5880 -0.2029  0.0368
  173MOL0     C23235   4.922   4.126   9.924  0.4665 -0.3383  0.5043
  173MOL0     C23236   4.835   4.080   9.808 -0.2653  0.0062  0.5527
  173MOL0     N23237   4.861   4.153   9.679 -0.2599  0.8447 -0.6172
  173MOL0     C23238   4.959   4.109   9.595  0.5602 -0.0231  0.6995
  173MOL0     C23239   4.980   4.205   9.494 -0.1885  0.3361  0.3258
  173MOL0     C23240   5.057   4.202   9.364  0.2059  0.7430  0.0710
  173MOL0     C23241   5.009   4.095   9.256 -0.5218 -0.1536 -0.1957
  173MOL0     C23242   5.042   4.117   9.111  0.6291  0.0597  0.6977
  173MOL0     C23243   5.195   4.125   9.086 -0.3514 -0.3347  0.0985
  173MOL0     O23244   5.259   4.007   9.128 -0.0573  0.3775  0.5175
  173MOL0     C23245   5.393   4.007   9.110 -0.2214 -0.4028  0.2628
  173MOL0     C23246   5.478   4.051   9.211 -0.7369  0.8060 -0.7292
  173MOL0     C23247   5.621   4.020   9.196  0.4696  0.4292  0.6643
  173MOL0     C23248   5.671   3.958   9.079  0.1368  0.2682  0.3332
  173MOL0     C23249   5.822   3.937   9.056  0.1848 -0.7885 -0.8664
  173MOL0     O23250   5.857   3.907   8.925  0.2553  0.0207  0.0452
  173MOL0     C23251   5.981   3.861   8.900  0.4141 -0.2822 -0.5154
  173MOL0     C23252   6.003   3.732   8.858  0.0991 -0.6117  0.7303
  173MOL0     C23253   6.134   3.684   8.847 -0.1822  0.4671  0.0294
  173MOL0     C23254   6.240   3.772   8.872 -0.6551  0.4086 -0.2405
  173MOL0     O23255   6.367   3.725   8.865  0.1488  0.4777  0.7981
  173MOL0     C23256   6.390   3.635   8.746 -0.2400 -0.9868 -0.5983
  173MOL0     C23257   6.396   3.716   8.612  0.6913 -0.1720 -1.3737
  173MOL0     C23258   6.496   3.836   8.632 -0.1561  1.0397  0.2695
  173MOL0     C23259   6.590   3.849   8.515 -0.3886 -1.9208 -1.2703
  173MOL0     C23260   6.715   3.933   8.534  0.4468 -0.5713  0.5343
  173MOL0     C23261   6.803   3.942   8.412  0.0470  1.0278 -0.8743
  173MOL0     C23262   6.753   4.039   8.310  0.9439  0.3741  0.0225
  173MOL0     C23263   6.825   4.014   8.182  0.2839  0.8580  0.0011
  173MOL0    Cl23264   6.997   4.080   8.174  0.3698 -0.2542 -0.2978
  173MOL0     C23265   6.222   3.896   8.907  0.3747 -0.5469 -0.1086
  173MOL0     C23266   6.094   3.940   8.920 -0.4254 -0.0645  0.5168
  173MOL0     O23267   5.895   3.943   9.157 -0.6878 -0.0599  0.1598
  173MOL0     C23268   5.577   3.926   8.979  0.1538  0.5088 -1.1844
  173MOL0     C23269   5.443   3.944   8.999  0.4669 -0.0730 -0.0393
  173MOL0     N23270   4.904   4.307   9.528 -0.2120 -0.0918 -0.0526
  173MOL0     N23271   4.826   4.279   9.631  0.3420 -0.4637 -0.0055
  173MOL0     C23272   5.740   3.702  10.182  0.8641 -1.0313  0.4836
  173MOL0     C23273   5.838   3.654  10.270 -0.1149 -0.3158 -0.3453
  173MOL0     C23274   6.176   3.816  10.528  0.6509  0.1305 -0.6795
  173MOL0     C23275   6.203   3.944  10.588 -0.4345 -0.2669 -0.0836
  173MOL0     C23276   6.318   3.955  10.657 -0.3688 -0.2039 -0.0255
  173MOL0     C23277   6.406   3.845  10.681  0.9463 -0.4515 -0.2165
  173MOL0     O23278   6.528   3.862  10.742  0.5807 -0.6577 -0.0124
  173MOL0     C23279   6.608   3.985  10.728 -0.6594  0.5496 -1.3121
  173MOL0     C23280   6.759   3.959  10.744  0.7124 -0.2596  0.5586
  173MOL0     C23281   6.810   3.888  10.622  0.4604  0.1767 -0.0754
  173MOL0     C23282   6.951   3.824  10.659  0.2071  0.3001  0.8195
  173MOL0     C23283   7.056   3.926  10.692  0.1211  0.3185 -0.2307
  173MOL0     C23284   7.143   4.004  10.707  0.1700 -0.3388 -0.7639
  173MOL0     C23285   6.376   3.726  10.626 -0.5151  0.0781 -0.8800
  173MOL0     C23286   6.257   3.703  10.560  0.9173 -0.2609  0.5990
  173MOL0     C23287   6.238   3.558  10.504 -0.0264 -0.0794 -0.5109
  173MOL0     H23288   5.775   3.887  10.518  0.7792  2.1776 -1.4392
  173MOL0     H23289   5.599   3.946  10.379 -0.9392 -1.2335  2.1269
  173MOL0     H23290   5.397   3.862  10.245  0.4851  0.3102  0.0628
  173MOL0     H23291   5.477   4.006  10.197  1.9375  1.1316 -1.5425
  173MOL0     H23292   5.344   3.831   9.988 -2.0651  0.5642  0.7774
  173MOL0     H23293   5.399   3.998   9.963 -4.3494 -0.6133 -2.9892
  173MOL0     H23294   5.192   4.085  10.046 -1.2703 -0.2906  1.2163
  173MOL0     H23295   5.206   3.973  10.183 -1.1369  1.7328  0.8474
  173MOL0     H23296   5.095   3.917   9.902 -3.7003  2.1375  0.6272
  173MOL0     H23297   5.114   3.785  10.022  0.3604  0.0212 -0.8808
  173MOL0     H23298   4.899   3.839  10.024  1.2187 -0.9573  0.9973
  173MOL0     H23299   4.952   3.895  10.170  0.9034 -2.1245 -1.1481
  173MOL0     H23300   4.775   4.036  10.058 -1.7106  1.1302  0.9167
  173MOL0     H23301   4.916   4.115  10.128 -5.0487  1.0774  0.6401
  173MOL0     H23302   5.030   4.128   9.908  0.4001  2.4846 -0.0426
  173MOL0     H23303   4.899   4.232   9.941  2.8378  0.1133  1.2701
  173MOL0     H23304   4.850   3.971   9.803 -3.0990 -0.6480  2.9833
  173MOL0     H23305   4.731   4.082   9.840 -0.0213 -1.2119  1.5318
  173MOL0     H23306   5.009   4.013   9.608 -1.2095 -0.9957  0.6128
  173MOL0     H23307   5.064   4.290   9.299  1.6911  0.4699 -0.1938
  173MOL0     H23308   5.163   4.187   9.386  1.2623 -1.6573 -5.0608
  173MOL0     H23309   5.050   3.997   9.282  2.9628  1.2722  0.1674
  173MOL0     H23310   4.901   4.099   9.272 -0.5856  3.6456 -0.7390
  173MOL0     H23311   4.995   4.207   9.069  1.9540 -0.1716 -1.4844
  173MOL0     H23312   4.994   4.035   9.056 -0.1892  1.0582 -0.1196
  173MOL0     H23313   5.236   4.213   9.137 -2.9224  0.4914  0.8924
  173MOL0     H23314   5.213   4.129   8.978 -0.7012 -0.3220  0.0388
  173MOL0     H23315   5.439   4.097   9.301 -3.4140 -2.4973  0.0009
  173MOL0     H23316   5.688   4.043   9.278  0.7345  1.4389  0.1815
  173MOL0     H23317   5.919   3.665   8.846  0.9311 -1.1624 -3.4445
  173MOL0     H23318   6.156   3.580   8.826  0.7601  1.0405 -2.1057
  173MOL0     H23319   6.488   3.590   8.764 -0.6373 -1.4042  0.6378
  173MOL0     H23320   6.325   3.548   8.729  2.4377 -3.0587 -0.8636
  173MOL0     H23321   6.425   3.646   8.533  4.2231  0.5352 -0.8652
  173MOL0     H23322   6.297   3.757   8.592  0.5614 -0.2911 -0.9757
  173MOL0     H23323   6.444   3.932   8.643  1.5871  2.2187 -1.3028
  173MOL0     H23324   6.556   3.834   8.723  1.6112  1.5046 -0.8535
  173MOL0     H23325   6.535   3.902   8.436  0.4857  2.6319  0.8521
  173MOL0     H23326   6.618   3.754   8.467 -0.1217 -0.5004 -4.1734
  173MOL0     H23327   6.773   3.890   8.617  2.4688 -0.7995 -0.9299
  173MOL0     H23328   6.680   4.032   8.565  0.1451 -0.2744 -0.7215
  173MOL0     H23329   6.907   3.970   8.432 -0.2330  0.8709  0.9809
  173MOL0     H23330   6.806   3.845   8.362 -2.0120 -0.0874  0.9720
  173MOL0     H23331   6.758   4.145   8.338  0.1387  0.4730 -0.1811
  173MOL0     H23332   6.647   4.015   8.295  1.0585 -0.9469  1.1204
  173MOL0     H23333   6.834   3.908   8.160 -0.7407  0.9783 -1.1039
  173MOL0     H23334   6.762   4.056   8.103 -2.4496 -0.6812  1.2205
  173MOL0     H23335   6.305   3.960   8.937  1.8159 -3.7909  3.8570
  173MOL0     H23336   6.086   4.042   8.955 -0.8818  0.4263 -0.9217
  173MOL0     H23337   5.610   3.892   8.881 -1.5678 -0.7761 -1.3698
  173MOL0     H23338   5.379   3.912   8.917  2.5104 -2.6005 -0.7966
  173MOL0     H23339   5.722   3.667  10.081  2.2800 -0.5868  0.0578
  173MOL0     H23340   5.906   3.579  10.230 -0.4091 -0.7901  0.0315
  173MOL0     H23341   6.151   4.031  10.551 -1.6187 -0.7285  0.4654
  173MOL0     H23342   6.337   4.043  10.718 -2.0174 -1.8431  3.0552
  173MOL0     H23343   6.574   4.044  10.814 -1.7522 -1.0770 -0.5862
  173MOL0     H23344   6.598   4.036  10.632 -0.6053 -0.2235 -1.7341
  173MOL0     H23345   6.763   3.905  10.839  0.2848  1.1267  1.3851
  173MOL0     H23346   6.795   4.060  10.763 -2.6034  1.0215  0.6880
  173MOL0     H23347   6.829   3.956  10.539 -0.3175 -0.6783 -0.9786
  173MOL0     H23348   6.740   3.821  10.572  2.4202  0.2706 -3.2001
  173MOL0     H23349   6.937   3.759  10.746 -1.0094 -1.7441 -0.8089
  173MOL0     H23350   6.978   3.760  10.574  2.0873 -1.6048  2.7187
  173MOL0     H23351   7.224   4.074  10.718 -0.4235  0.1178  0.9490
  173MOL0     H23352   6.451   3.649  10.643 -0.6730  0.6873  3.7632
  173MOL0     H23353   6.284   3.497  10.582 -1.1289 -1.5665 -0.9578
  173MOL0     H23354   6.140   3.516  10.476 -0.3589  0.8160 -0.7379
  173MOL0     H23355   6.290   3.556  10.408 -1.5218 -0.6873 -1.3592
  174MOL0     O23356   2.152  10.251  10.670  0.6851  0.5741  0.6665
  174MOL0     C23357   2.100  10.292  10.774 -0.6939 -0.8555 -0.5694
  174MOL0     O23358   2.167  10.333  10.884 -0.1259  0.7673  0.0673
  174MOL0     C23359   2.279  10.262  10.918 -0.6437  0.3116 -0.0966
  174MOL0     C23360   2.270  10.152  11.004  0.7281 -0.3290  0.5670
  174MOL0     C23361   2.377  10.069  11.028  0.0008 -0.3991 -0.8408
  174MOL0     C23362   2.493  10.079  10.962 -0.1006 -0.2749 -0.5174
  174MOL0     O23363   2.591   9.992  11.004  0.9584 -0.2065  0.9033
  174MOL0     C23364   2.701   9.962  10.920  0.8423  0.5514  0.1889
  174MOL0     C23365   2.760   9.827  10.966 -0.9886 -0.9843 -0.3920
  174MOL0     C23366   2.875   9.772  10.877 -0.3462  0.5922 -0.4599
  174MOL0     C23367   2.836   9.747  10.728 -0.0663  0.0196  0.0482
  174MOL0     C23368   2.953   9.671  10.656  0.2598  0.3674 -0.3479
  174MOL0     C23369   2.987   9.538  10.725  0.0904 -0.0186  0.7062
  174MOL0     C23370   3.091   9.466  10.641 -0.4296 -0.2797  0.6838
  174MOL0     C23371   3.120   9.325  10.688 -0.1322  0.5785 -0.8083
  174MOL0     N23372   3.203   9.267  10.582 -0.6253 -0.0268 -0.4868
  174MOL0     C23373   3.165   9.160  10.507 -0.1897 -0.1576 -0.6906
  174MOL0     C23374   3.279   9.106  10.457  0.4239  0.6222  0.2072
  174MOL0     C23375   3.264   8.981  10.364 -0.7173  0.5988 -0.1546
  174MOL0     C23376   3.324   8.857  10.429 -0.0829  0.0510 -0.0269
  174MOL0     C23377   3.254   8.810  10.566 -0.6506 -0.4041  0.9310
  174MOL0     C23378   3.118   8.737  10.540 -0.1846 -1.4016 -0.4566
  174MOL0     O23379   3.012   8.820  10.488  0.2806 -0.1509 -0.8459
  174MOL0     C23380   2.890   8.769  10.455  0.9050 -0.8699 -0.0955
  174MOL0     C23381   2.851   8.634  10.454 -0.5350  0.3038  0.4818
  174MOL0     C23382   2.714   8.588  10.446 -0.3662  0.1992 -0.0793
  174MOL0     C23383   2.618   8.690  10.431  0.4591  0.4970 -0.7270
  174MOL0     C23384   2.476   8.650  10.432  0.2354 -0.2279 -0.3423
  174MOL0     O23385   2.444   8.519  10.460 -0.1589  0.0697  0.0850
  174MOL0     C23386   2.320   8.465  10.461  0.2414  0.5099  0.5934
  174MOL0     C23387   2.299   8.348  10.523  0.0788  0.2091 -0.1262
  174MOL0     C23388   2.170   8.290  10.543 -0.6615 -0.4916  0.1233
  174MOL0     C23389   2.062   8.342  10.488  0.6419 -0.1072  0.7435
  174MOL0     O23390   1.938   8.282  10.502 -0.9415 -0.1131  0.0412
  174MOL0     C23391   1.830   8.302  10.414  0.4512 -0.8637 -0.0188
  174MOL0     C23392   1.723   8.193  10.439 -0.2588  0.2792 -0.0841
  174MOL0     C23393   1.694   8.179  10.588  0.0027 -0.7170 -0.9998
  174MOL0     C23394   1.547   8.122  10.615  0.0808 -0.4445 -0.1599
  174MOL0     C23395   1.528   8.094  10.757 -0.7325  0.9525  0.0793
  174MOL0     C23396   1.520   8.227  10.827 -0.0318 -0.7800 -0.7180
  174MOL0     C23397   1.441   8.224  10.963  0.6820  0.4142  0.4596
  174MOL0     C23398   1.386   8.355  11.009 -0.0267  0.2952  1.1013
  174MOL0    Cl23399   1.259   8.410  10.905 -0.4387  0.4813  0.2072
  174MOL0     C23400   2.083   8.457  10.411 -0.6465  0.0705  0.2369
  174MOL0     C23401   2.205   8.520  10.401 -0.2611 -0.0636 -0.4038
  174MOL0     O23402   2.398   8.739  10.395 -0.4128 -0.0805 -0.3855
  174MOL0     C23403   2.658   8.821  10.430 -0.1158  0.2498  0.1091
  174MOL0     C23404   2.790   8.866  10.441  0.1493 -0.2081 -0.7808
  174MOL0     N23405   3.384   9.183  10.492 -0.1697  1.0219  0.0993
  174MOL0     N23406   3.340   9.273  10.567  0.1094 -0.2635  0.5865
  174MOL0     C23407   2.513  10.186  10.875  0.7013  0.6010  0.1463
  174MOL0     C23408   2.406  10.275  10.856  0.8685 -0.3063 -0.1416
  174MOL0     C23409   1.955  10.319  10.760  0.2587 -0.0363  0.0079
  174MOL0     C23410   1.873  10.330  10.878  0.2996 -0.4779 -0.5548
  174MOL0     C23411   1.736  10.347  10.882 -0.1333 -0.3092  0.8105
  174MOL0     C23412   1.667  10.355  10.754 -0.2681  0.2410 -0.3879
  174MOL0     O23413   1.535  10.370  10.728  0.0703  0.0915 -0.1526
  174MOL0     C23414   1.448  10.358  10.843 -0.0816 -0.8285 -0.9342
  174MOL0     C23415   1.302  10.333  10.798  0.6050 -0.6719  0.1570
  174MOL0     C23416   1.266  10.435  10.692 -0.7880  1.0432 -0.4952
  174MOL0     C23417   1.127  10.430  10.644 -0.4367 -0.2079  0.1552
  174MOL0     C23418   1.087  10.538  10.548  0.1542  0.0870  0.0102
  174MOL0     C23419   1.048  10.615  10.466  0.3798 -0.0401  0.2046
  174MOL0     C23420   1.744  10.363  10.639 -0.2288  0.0035  0.4341
  174MOL0     C23421   1.886  10.328  10.633 -0.1144  0.3449 -1.0994
  174MOL0     C23422   1.963  10.348  10.498 -0.3124 -0.4307 -0.4312
  174MOL0     H23423   2.171  10.143  11.048  0.3769 -0.5171 -0.2519
  174MOL0     H23424   2.375   9.985  11.098  1.6245 -2.2655 -2.8985
  174MOL0     H23425   2.672   9.960  10.815  0.8270  0.3547  0.1958
  174MOL0     H23426   2.775  10.042  10.929 -0.8445  2.0495  1.1650
  174MOL0     H23427   2.683   9.751  10.980  0.3600 -1.8342  3.7354
  174MOL0     H23428   2.805   9.854  11.062 -0.5706 -0.0301 -0.8330
  174MOL0     H23429   2.907   9.680  10.929 -1.5027  0.4346 -0.0030
  174MOL0     H23430   2.959   9.840  10.893  1.2283 -1.1446 -0.8952
  174MOL0     H23431   2.736   9.703  10.740  0.1674 -0.6857 -0.5442
  174MOL0     H23432   2.817   9.841  10.675  1.4952  0.4591  0.2235
  174MOL0     H23433   2.924   9.655  10.551 -0.9551  0.0994  0.0105
  174MOL0     H23434   3.042   9.734  10.661 -0.2999  1.1035  0.6879
  174MOL0     H23435   3.023   9.543  10.828  1.3722 -0.7047  0.3222
  174MOL0     H23436   2.901   9.472  10.711 -1.4878  2.1685 -0.6147
  174MOL0     H23437   3.183   9.524  10.638 -0.8638  0.3944 -0.7432
  174MOL0     H23438   3.049   9.466  10.540  1.4780  0.2969 -0.1427
  174MOL0     H23439   3.174   9.330  10.783 -1.0560  0.5178 -0.2690
  174MOL0     H23440   3.029   9.270  10.715  1.6118 -0.8157  2.9522
  174MOL0     H23441   3.068   9.117  10.483 -0.4794 -0.0046  0.1832
  174MOL0     H23442   3.157   8.963  10.354 -0.5669 -0.1732 -0.3979
  174MOL0     H23443   3.311   8.994  10.266 -0.6814 -2.2314 -0.5857
  174MOL0     H23444   3.314   8.765  10.370  0.7968  1.1000 -1.9216
  174MOL0     H23445   3.429   8.880  10.449 -0.8090  0.9606  3.3670
  174MOL0     H23446   3.238   8.901  10.625 -2.6079 -0.3237  0.3518
  174MOL0     H23447   3.313   8.744  10.630 -1.2123 -0.8266  1.0149
  174MOL0     H23448   3.082   8.717  10.642  1.5112  6.6820  2.4681
  174MOL0     H23449   3.131   8.653  10.471 -1.9385 -0.7800 -1.5907
  174MOL0     H23450   2.930   8.561  10.463 -1.7424 -1.0226  0.6500
  174MOL0     H23451   2.695   8.481  10.444  0.6985 -0.0247  1.1014
  174MOL0     H23452   2.385   8.306  10.573  1.4788  2.4827 -0.4860
  174MOL0     H23453   2.167   8.201  10.606  0.8621 -0.2828  0.5284
  174MOL0     H23454   1.784   8.401  10.420 -1.4808 -1.6890 -0.4613
  174MOL0     H23455   1.879   8.290  10.317  2.8195  1.5232  0.7359
  174MOL0     H23456   1.633   8.234  10.392  0.1994  1.9608  0.4145
  174MOL0     H23457   1.752   8.099  10.391 -4.1144 -1.4774  0.6741
  174MOL0     H23458   1.770   8.122  10.644 -0.9917 -0.6686  0.4570
  174MOL0     H23459   1.692   8.281  10.628 -3.8262 -1.5000  1.3216
  174MOL0     H23460   1.530   8.024  10.570  2.0440 -0.1053 -1.8031
  174MOL0     H23461   1.463   8.185  10.581 -0.0246 -1.8962 -2.8071
  174MOL0     H23462   1.616   8.035  10.782  0.4437  1.1649 -3.1215
  174MOL0     H23463   1.439   8.034  10.777  1.2500 -1.7925  1.1740
  174MOL0     H23464   1.623   8.252  10.852 -0.6892 -0.4268  1.9587
  174MOL0     H23465   1.478   8.306  10.764 -2.1010 -1.2149  0.0204
  174MOL0     H23466   1.528   8.196  11.023  1.8882  0.7311 -1.0838
  174MOL0     H23467   1.367   8.144  10.969  2.0207 -0.8710  0.4714
  174MOL0     H23468   1.341   8.338  11.108 -1.0062  0.4826  0.7014
  174MOL0     H23469   1.470   8.425  11.005 -0.7592  1.1270 -1.6973
  174MOL0     H23470   2.002   8.509  10.363 -0.6887 -1.2617 -1.2098
  174MOL0     H23471   2.211   8.622  10.363  0.2112  0.9536  2.1917
  174MOL0     H23472   2.593   8.908  10.436 -0.1383  0.3463 -1.2900
  174MOL0     H23473   2.810   8.972  10.454  0.7276 -0.5775  1.8492
  174MOL0     H23474   2.596  10.219  10.814 -0.2683  1.2997 -0.8386
  174MOL0     H23475   2.410  10.345  10.773 -0.9574 -3.5004 -3.1499
  174MOL0     H23476   1.912  10.309  10.977 -1.9442  0.8782  0.7150
  174MOL0     H23477   1.679  10.338  10.974  2.3461 -0.4231  2.4203
  174MOL0     H23478   1.463  10.453  10.895 -1.1779 -1.4307  0.5466
  174MOL0     H23479   1.471  10.273  10.907  3.1613 -0.4072 -1.3607
  174MOL0     H23480   1.234  10.329  10.884 -0.6472 -3.8886 -0.8517
  174MOL0     H23481   1.294  10.238  10.745  0.9780  1.0320 -3.2426
  174MOL0     H23482   1.330  10.418  10.605 -3.2046 -2.1221 -1.8305
  174MOL0     H23483   1.287  10.530  10.742 -2.9599  1.5717 -0.5114
  174MOL0     H23484   1.108  10.332  10.599 -0.5139  1.0497 -2.8160
  174MOL0     H23485   1.064  10.439  10.733 -0.5180 -1.1925  0.2027
  174MOL0     H23486   0.993  10.654  10.383 -1.6007 -2.9587 -0.0284
  174MOL0     H23487   1.701  10.381  10.541 -1.1693  1.3921  1.0704
  174MOL0     H23488   1.888  10.385  10.428 -0.6278 -0.2028  0.0208
  174MOL0     H23489   2.046  10.418  10.510  0.2974 -1.4709  2.0999
  174MOL0     H23490   1.983  10.250  10.455 -1.1602 -1.0090  0.4367
  175MOL0     O23491   0.701   9.024   4.661 -0.1758  0.0675  0.1541
  175MOL0     C23492   0.665   9.104   4.747  0.1697  0.3597 -0.7069
  175MOL0     O23493   0.741   9.156   4.843  0.3277  0.2853  0.2098
  175MOL0     C23494   0.876   9.128   4.849  0.5133  0.3839  0.2249
  175MOL0     C23495   0.941   9.045   4.942  0.1312  0.8097 -0.2390
  175MOL0     C23496   1.084   9.027   4.942  0.0134 -0.4115  0.6146
  175MOL0     C23497   1.162   9.104   4.859 -0.0451 -0.4088  0.5046
  175MOL0     O23498   1.299   9.096   4.871  0.5097 -0.1637  0.0210
  175MOL0     C23499   1.377   9.222   4.863  0.2849  0.3573  0.6653
  175MOL0     C23500   1.525   9.211   4.887 -0.1131 -0.4614 -0.2914
  175MOL0     C23501   1.603   9.337   4.912 -0.3495  0.2212  0.0834
  175MOL0     C23502   1.743   9.305   4.955 -0.3462  0.4795 -0.4308
  175MOL0     C23503   1.848   9.416   4.934  1.3318 -0.8257  0.0177
  175MOL0     C23504   1.883   9.426   4.781  0.6146 -0.2904  0.4665
  175MOL0     C23505   1.982   9.536   4.751  0.0194 -0.2211  0.6375
  175MOL0     C23506   2.131   9.498   4.764  0.2997 -0.5861  0.6476
  175MOL0     N23507   2.226   9.600   4.718  0.1179 -0.5821 -0.0209
  175MOL0     C23508   2.308   9.590   4.608 -0.2517  0.0043  0.0659
  175MOL0     C23509   2.376   9.719   4.591 -0.3102 -0.1130 -0.5075
  175MOL0     C23510   2.466   9.747   4.472  0.6272  0.1894 -1.0550
  175MOL0     C23511   2.606   9.678   4.485 -0.3151 -0.1675 -0.3158
  175MOL0     C23512   2.691   9.689   4.362 -0.2073 -0.0995 -0.4108
  175MOL0     C23513   2.821   9.609   4.376  0.7014 -0.2596 -0.3694
  175MOL0     O23514   2.853   9.558   4.233  0.6593 -0.3874 -0.1853
  175MOL0     C23515   2.984   9.525   4.201 -0.5220  0.7469  0.2838
  175MOL0     C23516   3.077   9.482   4.303  0.3367  0.2113 -0.1742
  175MOL0     C23517   3.208   9.461   4.267  0.1325  0.1171 -0.4628
  175MOL0     C23518   3.254   9.473   4.137  0.4442 -0.1356 -0.2821
  175MOL0     C23519   3.400   9.451   4.105 -0.0195  0.4401  0.8794
  175MOL0     O23520   3.433   9.496   3.990 -0.0586 -0.4321  0.0418
  175MOL0     C23521   3.571   9.497   3.951 -0.8991 -0.1113  0.3597
  175MOL0     C23522   3.662   9.389   3.960  0.1359 -0.0722  0.2328
  175MOL0     C23523   3.794   9.388   3.914 -0.0661  0.0011  0.2053
  175MOL0     C23524   3.840   9.500   3.851 -0.5236  0.2319 -0.2509
  175MOL0     O23525   3.967   9.508   3.800 -0.2854 -0.5476 -0.1621
  175MOL0     C23526   3.981   9.489   3.662  0.5705  0.0317 -0.0775
  175MOL0     C23527   4.082   9.586   3.614  0.0301 -0.5926 -0.0609
  175MOL0     C23528   4.058   9.730   3.655  0.5358 -0.0161 -0.1738
  175MOL0     C23529   4.178   9.818   3.607 -0.2712  0.2909 -0.2368
  175MOL0     C23530   4.293   9.818   3.712 -1.0526  0.2337  0.8178
  175MOL0     C23531   4.417   9.893   3.662 -0.0009 -0.2933 -0.2698
  175MOL0     C23532   4.415  10.040   3.720 -0.3640 -0.2553  0.4572
  175MOL0     C23533   4.507  10.134   3.641  0.5818 -1.3053 -0.4869
  175MOL0    Cl23534   4.676  10.072   3.656  0.1517  0.3514 -0.3021
  175MOL0     C23535   3.758   9.616   3.842 -0.3346  0.4286 -0.2476
  175MOL0     C23536   3.619   9.608   3.874 -1.1444  0.4363  0.2300
  175MOL0     O23537   3.472   9.409   4.188 -0.1182 -0.6063  0.3903
  175MOL0     C23538   3.158   9.500   4.033 -0.2467 -0.5590  0.7061
  175MOL0     C23539   3.032   9.528   4.071  0.2138 -0.6537  0.6724
  175MOL0     N23540   2.338   9.792   4.699  0.9474 -0.6077  0.3717
  175MOL0     N23541   2.245   9.729   4.769 -1.1831  0.0677  0.2379
  175MOL0     C23542   1.098   9.195   4.772  0.0687  0.3840 -0.0843
  175MOL0     C23543   0.956   9.196   4.766 -0.2263 -0.7277  0.5381
  175MOL0     C23544   0.519   9.104   4.774 -0.0885 -0.7145  0.3339
  175MOL0     C23545   0.472   9.107   4.910 -0.1649  0.4330  0.0794
  175MOL0     C23546   0.331   9.094   4.933 -0.1209 -0.2123  1.1900
  175MOL0     C23547   0.242   9.066   4.830 -0.2224  0.4808  0.3668
  175MOL0     O23548   0.103   9.040   4.856  0.0661 -0.4643 -0.1972
  175MOL0     C23549   0.014   9.152   4.878 -0.2589  0.3771 -0.3189
  175MOL0     C23550   0.003   9.167   5.036  0.4616  0.4128  0.0165
  175MOL0     C23551  -0.069   9.046   5.094  0.3022 -0.2800  0.4990
  175MOL0     C23552  -0.081   9.068   5.250  0.0031 -0.0436  0.1065
  175MOL0     C23553   0.046   9.058   5.317  0.3942  0.7784  0.2614
  175MOL0     C23554   0.149   9.057   5.378 -0.1671 -0.2250 -0.2374
  175MOL0     C23555   0.285   9.054   4.698  0.0572 -0.2818 -0.0763
  175MOL0     C23556   0.422   9.082   4.668  0.4114  0.2806 -0.1093
  175MOL0     C23557   0.450   9.076   4.521  0.1934 -0.0048  0.3924
  175MOL0     H23558   0.897   8.972   5.009  3.2327  2.2228  3.7112
  175MOL0     H23559   1.130   8.954   5.007 -0.5629  0.7425  2.4150
  175MOL0     H23560   1.359   9.269   4.766  1.1131 -2.9285 -1.2515
  175MOL0     H23561   1.337   9.286   4.942  0.7897  1.6759 -0.1091
  175MOL0     H23562   1.568   9.156   4.802  2.0963 -0.7823  0.9490
  175MOL0     H23563   1.542   9.150   4.977  4.2999  0.1472 -0.4912
  175MOL0     H23564   1.558   9.390   4.996  2.5845 -0.6698  2.4097
  175MOL0     H23565   1.604   9.401   4.824  0.7366  1.8067  1.2044
  175MOL0     H23566   1.737   9.273   5.059 -0.2025 -0.6689 -0.7637
  175MOL0     H23567   1.781   9.222   4.895 -0.7123 -0.2853  0.3843
  175MOL0     H23568   1.803   9.506   4.977 -1.7542 -1.5483 -1.3790
  175MOL0     H23569   1.933   9.394   4.998 -0.6155 -1.1023  2.6548
  175MOL0     H23570   1.922   9.330   4.745 -3.1827 -0.9983 -2.3232
  175MOL0     H23571   1.793   9.436   4.720  1.7540 -0.6190 -1.3382
  175MOL0     H23572   1.953   9.626   4.805 -2.9802 -0.0044 -1.1403
  175MOL0     H23573   1.959   9.549   4.645 -3.6223  0.0577  1.3354
  175MOL0     H23574   2.151   9.478   4.869 -2.5485  2.6938  2.0022
  175MOL0     H23575   2.138   9.403   4.710  0.5067 -0.4065  0.3534
  175MOL0     H23576   2.312   9.511   4.534  0.7553  0.4498 -0.3754
  175MOL0     H23577   2.414   9.715   4.382 -1.3560 -2.3066  0.8348
  175MOL0     H23578   2.493   9.852   4.457 -1.7223  1.0879  0.4491
  175MOL0     H23579   2.677   9.728   4.551  0.1538 -0.7785 -0.3458
  175MOL0     H23580   2.594   9.572   4.510 -2.1954 -0.8671 -3.5558
  175MOL0     H23581   2.721   9.791   4.336 -0.1485 -0.0730 -0.2415
  175MOL0     H23582   2.637   9.645   4.278 -2.8811 -1.1583  1.7415
  175MOL0     H23583   2.813   9.524   4.444 -0.3637  0.6574  0.6909
  175MOL0     H23584   2.900   9.669   4.423 -1.0263 -0.1129  2.5293
  175MOL0     H23585   3.047   9.463   4.406  0.9789  0.7832  0.1214
  175MOL0     H23586   3.270   9.434   4.352 -3.0978 -0.5025  1.9072
  175MOL0     H23587   3.613   9.299   3.996 -4.4983  1.9883 -0.2161
  175MOL0     H23588   3.864   9.315   3.952 -2.2732 -1.0938  2.4585
  175MOL0     H23589   4.009   9.387   3.633  0.9141 -0.4997  1.9288
  175MOL0     H23590   3.883   9.492   3.614  1.4353  0.6881 -1.8725
  175MOL0     H23591   4.184   9.558   3.641  2.2057  5.1528 -1.0505
  175MOL0     H23592   4.070   9.575   3.506 -2.5048  0.8430  0.0031
  175MOL0     H23593   3.965   9.761   3.607  1.0078  0.1031 -1.0478
  175MOL0     H23594   4.043   9.733   3.763  0.6648 -0.3678 -0.1444
  175MOL0     H23595   4.146   9.922   3.591 -1.7390 -0.1610 -0.4219
  175MOL0     H23596   4.214   9.788   3.508  3.1756  2.3155  0.2475
  175MOL0     H23597   4.322   9.713   3.720 -0.4870  0.2122 -1.0930
  175MOL0     H23598   4.256   9.850   3.810  1.2642 -1.4564  2.3323
  175MOL0     H23599   4.513   9.843   3.680 -1.0098 -1.9128  0.7298
  175MOL0     H23600   4.408   9.899   3.553  2.4847  3.2931 -0.4633
  175MOL0     H23601   4.452  10.030   3.822  0.4470 -3.0165 -0.0151
  175MOL0     H23602   4.313  10.079   3.722 -0.7103 -0.9515 -1.5884
  175MOL0     H23603   4.475  10.127   3.537 -0.1468 -2.3388 -0.2095
  175MOL0     H23604   4.485  10.238   3.667  0.7510 -0.9362 -1.7527
  175MOL0     H23605   3.802   9.701   3.791  1.1815 -1.9782 -3.2807
  175MOL0     H23606   3.543   9.683   3.857 -2.0079 -0.8528 -2.1922
  175MOL0     H23607   3.205   9.508   3.936  3.5715  0.7064  2.4823
  175MOL0     H23608   2.964   9.552   3.990  1.0058 -1.4115 -0.2265
  175MOL0     H23609   1.157   9.243   4.695 -1.9412 -0.6870 -2.4446
  175MOL0     H23610   0.907   9.249   4.685 -0.5985 -0.5896  0.8465
  175MOL0     H23611   0.532   9.098   5.000  1.4656  2.5018 -0.7099
  175MOL0     H23612   0.302   9.095   5.038 -1.9468 -1.6365  0.7459
  175MOL0     H23613  -0.085   9.142   4.832 -2.1167  2.1593  2.8851
  175MOL0     H23614   0.072   9.238   4.843  2.6196 -1.8474 -1.3856
  175MOL0     H23615  -0.043   9.262   5.066 -1.2611 -0.6911  1.0180
  175MOL0     H23616   0.106   9.168   5.073 -0.0599 -0.8155  1.6057
  175MOL0     H23617  -0.026   8.948   5.073 -0.3718 -0.1987 -1.3876
  175MOL0     H23618  -0.173   9.048   5.058  1.0348  2.1326 -1.7952
  175MOL0     H23619  -0.135   9.162   5.265 -0.2279  0.0440 -1.1216
  175MOL0     H23620  -0.145   8.989   5.288 -1.7117  1.0596 -0.3761
  175MOL0     H23621   0.234   9.050   5.443 -0.3488  3.6891  0.6898
  175MOL0     H23622   0.221   9.028   4.614 -0.8072 -1.2768  0.8726
  175MOL0     H23623   0.556   9.094   4.501  0.3993  0.8593  2.0950
  175MOL0     H23624   0.410   8.984   4.477 -1.3628  1.6862 -2.0119
  175MOL0     H23625   0.384   9.152   4.476  0.1767 -0.0906  0.2719
  176MOL0     O23626   0.145   7.012   7.192 -0.2764  0.2947  0.2023
  176MOL0     C23627   0.143   7.030   7.317 -0.5366 -0.6462  0.0419
  176MOL0     O23628   0.251   7.004   7.397  0.4039  0.1100 -0.5795
  176MOL0     C23629   0.365   7.061   7.349 -0.0829 -0.4776 -0.1829
  176MOL0     C23630   0.366   7.189   7.283  0.0192  0.6351  0.1552
  176MOL0     C23631   0.489   7.238   7.246 -0.1521  0.6493 -0.7663
  176MOL0     C23632   0.604   7.175   7.262 -0.2291  0.7695  0.0988
  176MOL0     O23633   0.719   7.242   7.209 -0.1770 -0.3415  0.0590
  176MOL0     C23634   0.824   7.262   7.294 -0.2637 -0.3309  0.4227
  176MOL0     C23635   0.795   7.376   7.393  0.5534  0.0033  0.2651
  176MOL0     C23636   0.912   7.415   7.478 -0.1078  0.3860 -0.8727
  176MOL0     C23637   0.989   7.534   7.415  0.3253  0.3179  0.0772
  176MOL0     C23638   1.118   7.562   7.497  0.6531 -0.0123  0.0035
  176MOL0     C23639   1.095   7.634   7.632 -0.4385 -0.2587 -0.0395
  176MOL0     C23640   1.233   7.645   7.707 -0.1395  0.5800 -0.9244
  176MOL0     C23641   1.213   7.718   7.841  0.0149 -0.3392  0.6489
  176MOL0     N23642   1.347   7.711   7.912  0.4674 -0.4296 -0.4050
  176MOL0     C23643   1.462   7.778   7.882 -0.8284 -0.0449  0.9737
  176MOL0     C23644   1.546   7.753   7.985 -0.0565 -0.0693 -0.3726
  176MOL0     C23645   1.682   7.814   8.012  0.1023  0.1804  0.3962
  176MOL0     C23646   1.775   7.751   8.124 -0.7217 -0.0365  0.2837
  176MOL0     C23647   1.754   7.795   8.268 -0.4776 -0.5812 -1.2423
  176MOL0     C23648   1.846   7.723   8.366 -0.4471  0.2532 -0.1940
  176MOL0     O23649   1.981   7.722   8.313  1.3206  0.6145 -0.4060
  176MOL0     C23650   2.060   7.646   8.396  0.9593 -0.3781  0.8278
  176MOL0     C23651   2.035   7.605   8.527 -0.3897  0.1672 -0.2182
  176MOL0     C23652   2.143   7.551   8.599 -0.1829  0.2082 -0.8308
  176MOL0     C23653   2.277   7.540   8.551  0.2426  0.4083  0.4969
  176MOL0     C23654   2.382   7.472   8.629 -0.2660  0.1419 -0.5446
  176MOL0     O23655   2.491   7.435   8.567 -0.2236  0.2736  0.2652
  176MOL0     C23656   2.606   7.379   8.628  0.3573 -0.9657  0.3940
  176MOL0     C23657   2.653   7.251   8.587  0.0718  0.3534  0.0059
  176MOL0     C23658   2.783   7.209   8.629  0.6825  0.1979  0.3361
  176MOL0     C23659   2.859   7.293   8.711  1.2053 -0.0601 -0.0916
  176MOL0     O23660   2.975   7.239   8.766  0.2947  0.2494  0.0155
  176MOL0     C23661   3.016   7.268   8.900 -0.1809  0.3428 -0.3281
  176MOL0     C23662   3.133   7.363   8.922  0.4869 -0.0647 -0.1728
  176MOL0     C23663   3.154   7.394   9.070  0.2206  0.8061  0.2896
  176MOL0     C23664   3.083   7.517   9.116  0.7799 -0.1894  0.2451
  176MOL0     C23665   3.099   7.553   9.265  0.9328 -0.8644  0.1583
  176MOL0     C23666   3.237   7.605   9.290 -0.3665 -0.1289 -1.3112
  176MOL0     C23667   3.259   7.623   9.447 -0.5420 -0.2711 -0.2887
  176MOL0     C23668   3.391   7.698   9.469  0.0395 -0.8316  0.1286
  176MOL0    Cl23669   3.523   7.607   9.421 -0.0982  0.3917  0.3689
  176MOL0     C23670   2.809   7.418   8.752 -0.2169  0.4744  0.2841
  176MOL0     C23671   2.686   7.460   8.711  0.4245 -0.1863 -0.1017
  176MOL0     O23672   2.362   7.461   8.751 -0.0755 -0.0250  0.0648
  176MOL0     C23673   2.294   7.582   8.415  0.0779 -0.6148  0.4099
  176MOL0     C23674   2.188   7.636   8.347  0.2758  0.2230 -0.2333
  176MOL0     N23675   1.492   7.660   8.066 -0.4574 -0.0213 -0.8312
  176MOL0     N23676   1.373   7.634   8.023 -0.1810  0.3175  0.1540
  176MOL0     C23677   0.607   7.050   7.324  0.6863  0.1696 -0.5122
  176MOL0     C23678   0.487   6.985   7.367 -0.0896  0.0422  0.3007
  176MOL0     C23679   0.022   7.087   7.376 -0.2242 -0.1513 -0.0028
  176MOL0     C23680  -0.054   7.176   7.298  0.4772 -0.0470 -0.3123
  176MOL0     C23681  -0.177   7.222   7.351  0.5440  0.3701  0.2810
  176MOL0     C23682  -0.225   7.197   7.480 -0.1802 -0.6894  1.1582
  176MOL0     O23683  -0.334   7.270   7.531 -0.5719 -0.0939 -0.6074
  176MOL0     C23684  -0.355   7.266   7.670  0.0475  0.5353  0.0155
  176MOL0     C23685  -0.499   7.330   7.680 -0.3306  0.5968  0.6381
  176MOL0     C23686  -0.604   7.225   7.628  0.5151 -0.6423 -0.1723
  176MOL0     C23687  -0.745   7.293   7.614  0.1223  0.2883 -0.4361
  176MOL0     C23688  -0.859   7.202   7.622 -0.2264  1.5019  0.8730
  176MOL0     C23689  -0.948   7.113   7.622 -0.0802 -0.3976  0.5369
  176MOL0     C23690  -0.144   7.112   7.558  1.0996 -0.9013  0.3777
  176MOL0     C23691  -0.018   7.067   7.508 -0.2646 -0.6762 -0.1818
  176MOL0     C23692   0.066   6.995   7.607 -0.0991  0.2648 -0.0272
  176MOL0     H23693   0.269   7.236   7.273 -0.3905 -0.2697 -0.2623
  176MOL0     H23694   0.503   7.334   7.196  4.7559 -1.3109 -3.8786
  176MOL0     H23695   0.856   7.170   7.343 -1.4072  0.1281  2.1173
  176MOL0     H23696   0.909   7.296   7.234 -0.3231  3.5579  2.2347
  176MOL0     H23697   0.723   7.339   7.466  4.0559 -2.5311  2.7393
  176MOL0     H23698   0.747   7.458   7.339 -0.9674 -0.5448  0.7469
  176MOL0     H23699   0.976   7.330   7.503  1.6988  2.1892  1.0278
  176MOL0     H23700   0.872   7.449   7.574 -1.7868  2.9637 -2.3672
  176MOL0     H23701   1.014   7.502   7.313 -0.0894  0.5239 -0.0901
  176MOL0     H23702   0.929   7.625   7.411 -1.5338 -0.8910 -2.6215
  176MOL0     H23703   1.162   7.464   7.517 -0.1018 -0.6823 -1.4220
  176MOL0     H23704   1.181   7.615   7.426  0.9135  2.8347  2.1827
  176MOL0     H23705   1.064   7.736   7.608  2.2515  0.9303  1.1600
  176MOL0     H23706   1.010   7.593   7.688  0.7895 -2.0103  0.6446
  176MOL0     H23707   1.310   7.693   7.646  1.3431 -1.5704 -0.8599
  176MOL0     H23708   1.264   7.542   7.729 -2.3005  0.4874  2.4409
  176MOL0     H23709   1.180   7.822   7.830  1.5721  0.1914  0.7657
  176MOL0     H23710   1.148   7.664   7.910  1.7306 -1.7058  1.2610
  176MOL0     H23711   1.478   7.853   7.806  0.2187 -0.7465  0.4866
  176MOL0     H23712   1.740   7.795   7.921 -0.0093 -0.0760  0.3791
  176MOL0     H23713   1.676   7.923   8.020 -1.7473  0.0085  2.3417
  176MOL0     H23714   1.769   7.642   8.120 -0.7319 -0.1360  1.9439
  176MOL0     H23715   1.879   7.781   8.113 -0.3539 -0.7949  1.4240
  176MOL0     H23716   1.654   7.761   8.296 -0.0915 -0.5877  0.2067
  176MOL0     H23717   1.770   7.899   8.299 -0.1106 -1.0474  0.1828
  176MOL0     H23718   1.815   7.619   8.372  0.1441  0.0639 -0.3613
  176MOL0     H23719   1.850   7.769   8.466  1.8796 -2.2955  1.0031
  176MOL0     H23720   1.933   7.604   8.563 -0.4107 -5.8302  0.6095
  176MOL0     H23721   2.119   7.505   8.694  1.7869 -1.7044 -1.1858
  176MOL0     H23722   2.594   7.189   8.521  0.2718  2.6756 -2.5115
  176MOL0     H23723   2.819   7.111   8.603  0.9099 -0.0088  1.3767
  176MOL0     H23724   2.924   7.297   8.951 -1.4201 -0.7559 -1.8573
  176MOL0     H23725   3.044   7.177   8.953  0.2279 -0.2856 -1.5783
  176MOL0     H23726   3.219   7.306   8.885  1.2282  1.4491 -0.8401
  176MOL0     H23727   3.121   7.447   8.854 -1.5841  1.2303  1.6592
  176MOL0     H23728   3.122   7.308   9.129 -0.9074 -0.4456 -2.0135
  176MOL0     H23729   3.262   7.403   9.081  0.4805 -2.1556  0.7973
  176MOL0     H23730   2.975   7.506   9.101  1.2283 -1.5106 -2.9208
  176MOL0     H23731   3.118   7.592   9.045  0.0917 -0.7130 -0.6787
  176MOL0     H23732   3.075   7.476   9.338 -0.2343  2.2345  3.3371
  176MOL0     H23733   3.028   7.634   9.287  1.2224 -0.0722 -1.6305
  176MOL0     H23734   3.312   7.536   9.251 -0.0317 -0.6023  0.0841
  176MOL0     H23735   3.256   7.697   9.233  1.1791  0.8752  0.6796
  176MOL0     H23736   3.264   7.523   9.490 -6.3878  0.0228  1.9811
  176MOL0     H23737   3.173   7.677   9.489 -0.9872 -3.2522  3.1079
  176MOL0     H23738   3.385   7.796   9.421 -1.2588 -0.0076  1.8568
  176MOL0     H23739   3.398   7.720   9.576 -1.5387 -1.5439  0.4116
  176MOL0     H23740   2.882   7.472   8.810  2.0986 -3.0184  0.9605
  176MOL0     H23741   2.644   7.555   8.742  2.7885  0.9282 -0.1116
  176MOL0     H23742   2.386   7.574   8.358 -0.5887  0.5504 -0.8878
  176MOL0     H23743   2.211   7.685   8.252  0.6416  0.4254 -0.0413
  176MOL0     H23744   0.696   6.994   7.349 -0.9644 -2.3826  0.0221
  176MOL0     H23745   0.490   6.890   7.417 -0.3911  0.5605  1.3224
  176MOL0     H23746  -0.017   7.210   7.201  0.8890 -0.5424 -0.3312
  176MOL0     H23747  -0.233   7.276   7.276  3.5516 -0.2919 -2.6839
  176MOL0     H23748  -0.282   7.327   7.725  0.1208 -1.1234  1.8736
  176MOL0     H23749  -0.362   7.167   7.716  3.1892  0.6671  1.0189
  176MOL0     H23750  -0.503   7.420   7.619  2.1143  0.0413 -0.4975
  176MOL0     H23751  -0.524   7.357   7.783  0.2096 -0.9780  1.2173
  176MOL0     H23752  -0.619   7.150   7.707  1.1986  0.4731  1.0693
  176MOL0     H23753  -0.563   7.179   7.538  2.7443  1.4793 -0.3618
  176MOL0     H23754  -0.758   7.366   7.694 -1.0177  0.3795 -0.6906
  176MOL0     H23755  -0.749   7.353   7.522 -0.6052  3.6290  1.5999
  176MOL0     H23756  -1.015   7.035   7.650 -0.7104 -0.1318 -0.1812
  176MOL0     H23757  -0.166   7.107   7.664  1.5246 -0.2624  0.5064
  176MOL0     H23758   0.170   7.031   7.608 -0.2115  0.6537  1.9907
  176MOL0     H23759   0.035   7.018   7.710  0.4503  1.7108 -0.1668
  176MOL0     H23760   0.066   6.886   7.594  2.0177 -0.0858  2.1602
  177MOL0     O23761   2.190   2.293   9.770  0.2074  0.3157 -0.3137
  177MOL0     C23762   2.199   2.290   9.893  0.4193 -0.1905 -0.3296
  177MOL0     O23763   2.307   2.249   9.960  0.4390 -0.1357  0.4009
  177MOL0     C23764   2.420   2.202   9.900  0.0142 -0.1916 -0.2806
  177MOL0     C23765   2.485   2.272   9.797 -0.3741  0.6708  0.1003
  177MOL0     C23766   2.605   2.229   9.744  0.6255  0.0074 -1.1112
  177MOL0     C23767   2.662   2.113   9.787  0.4441  0.4067 -0.8315
  177MOL0     O23768   2.779   2.064   9.745  0.3905 -0.3243 -0.3288
  177MOL0     C23769   2.888   2.163   9.727  0.4413  0.3104  0.0805
  177MOL0     C23770   3.019   2.113   9.759  0.1212  0.0167 -0.4966
  177MOL0     C23771   3.034   2.072   9.913  0.5846  0.6583  0.2184
  177MOL0     C23772   3.077   2.192   9.998  0.1843  0.6303 -0.3016
  177MOL0     C23773   3.060   2.152  10.147  0.1126 -0.6009  0.2800
  177MOL0     C23774   3.089   2.270  10.237  0.9714 -0.4252 -0.9124
  177MOL0     C23775   3.056   2.231  10.384 -0.4877  0.1133  0.5270
  177MOL0     C23776   2.935   2.298  10.445  0.3358 -0.1896 -1.0664
  177MOL0     N23777   2.961   2.319  10.591 -0.0399  0.6112  0.7937
  177MOL0     C23778   3.038   2.431  10.646 -0.3908  0.1432 -0.1967
  177MOL0     C23779   3.035   2.395  10.779 -0.1285 -0.6031  0.8157
  177MOL0     C23780   3.105   2.476  10.885  0.6637  0.2718 -0.0549
  177MOL0     C23781   3.245   2.419  10.932  0.4834 -0.2970  0.1963
  177MOL0     C23782   3.350   2.485  10.846  0.3627  0.1256 -0.4003
  177MOL0     C23783   3.487   2.493  10.909 -0.3964 -0.6626 -0.4604
  177MOL0     O23784   3.568   2.549  10.809 -0.0333  0.2430  0.5106
  177MOL0     C23785   3.694   2.562  10.844  0.1724 -0.3071  0.2149
  177MOL0     C23786   3.746   2.535  10.975 -0.8095  0.6767 -0.1981
  177MOL0     C23787   3.882   2.540  10.997  0.1960  0.0619  0.1835
  177MOL0     C23788   3.971   2.593  10.903 -0.8087  0.0823 -0.0916
  177MOL0     C23789   4.126   2.602  10.922  0.1666  0.2035  0.0537
  177MOL0     O23790   4.198   2.648  10.817 -0.3136 -0.2736 -0.5826
  177MOL0     C23791   4.329   2.650  10.813 -1.0986  0.3863  0.0998
  177MOL0     C23792   4.387   2.749  10.730  0.8261 -0.5067  0.0803
  177MOL0     C23793   4.525   2.765  10.730  0.4015  0.4535  0.3411
  177MOL0     C23794   4.601   2.677  10.801  0.5159 -0.8618  0.4762
  177MOL0     O23795   4.741   2.692  10.798  0.6466  0.1750  0.1632
  177MOL0     C23796   4.794   2.711  10.930 -0.1888  0.5993  0.7985
  177MOL0     C23797   4.938   2.761  10.911  0.7007 -0.1911 -0.3392
  177MOL0     C23798   4.947   2.884  10.828 -1.4216  0.4740 -0.0143
  177MOL0     C23799   5.085   2.963  10.835 -0.1966  0.3251 -0.9106
  177MOL0     C23800   5.207   2.888  10.786  0.3882 -0.4194 -0.9333
  177MOL0     C23801   5.337   2.959  10.830  0.1998 -0.4039 -0.3818
  177MOL0     C23802   5.459   2.904  10.759 -0.6069 -0.0251  0.7021
  177MOL0     C23803   5.591   2.958  10.816 -0.0293  0.5092  0.3308
  177MOL0    Cl23804   5.592   3.125  10.860 -0.6263 -0.0268 -0.1359
  177MOL0     C23805   4.543   2.570  10.869 -0.5642  0.0384  1.1003
  177MOL0     C23806   4.407   2.558  10.888  0.0239 -0.7252  0.3289
  177MOL0     O23807   4.170   2.574  11.035  0.1211  0.0550  0.2087
  177MOL0     C23808   3.915   2.619  10.776 -0.6097  0.2065  0.5150
  177MOL0     C23809   3.776   2.606  10.749 -0.2922 -0.3984  0.1482
  177MOL0     N23810   2.966   2.272  10.801  0.3237 -0.0518  0.3637
  177MOL0     N23811   2.923   2.229  10.682 -0.3295  0.6267 -0.7216
  177MOL0     C23812   2.600   2.039   9.899  0.4290  0.0490 -0.4558
  177MOL0     C23813   2.483   2.094   9.955 -0.6787  0.0354  0.0931
  177MOL0     C23814   2.090   2.344   9.972  0.1020 -0.6834 -0.4052
  177MOL0     C23815   2.101   2.369  10.110 -0.6618  0.6993  0.6555
  177MOL0     C23816   2.007   2.434  10.193  0.5589  0.5614  0.1639
  177MOL0     C23817   1.895   2.491  10.135  0.4150 -0.4419  0.0498
  177MOL0     O23818   1.822   2.578  10.218  0.2188 -0.0594  0.6881
  177MOL0     C23819   1.785   2.697  10.151  0.1046 -0.3754  0.1491
  177MOL0     C23820   1.792   2.823  10.243 -0.2476 -0.2085  0.8562
  177MOL0     C23821   1.722   2.793  10.372 -0.0110 -0.3787  0.4082
  177MOL0     C23822   1.702   2.927  10.440 -0.0374 -1.5421  0.5021
  177MOL0     C23823   1.630   2.914  10.564  0.6881 -1.1709  0.8092
  177MOL0     C23824   1.578   2.883  10.668  0.6320  0.0816  0.4225
  177MOL0     C23825   1.871   2.465  10.003  0.6671  0.5701 -0.9116
  177MOL0     C23826   1.962   2.399   9.921 -0.0527  1.2863 -0.0056
  177MOL0     C23827   1.917   2.381   9.784 -0.3395  0.2345  0.1283
  177MOL0     H23828   2.447   2.363   9.753 -0.8752  0.6921  0.5690
  177MOL0     H23829   2.655   2.278   9.661  1.0567  2.6903  0.6107
  177MOL0     H23830   2.886   2.187   9.620  0.1418 -0.9822 -0.2126
  177MOL0     H23831   2.873   2.259   9.778  0.2746  1.3203 -1.7844
  177MOL0     H23832   3.090   2.194   9.741 -0.1310  0.5629  0.8370
  177MOL0     H23833   3.052   2.024   9.704  1.6180 -0.4240  1.0281
  177MOL0     H23834   3.108   1.994   9.931  0.6105  0.6671  0.1519
  177MOL0     H23835   2.942   2.027   9.953 -1.0941  1.1586 -2.7573
  177MOL0     H23836   3.181   2.225   9.984  0.3996  0.0286 -0.1749
  177MOL0     H23837   3.014   2.276   9.969 -1.0669  0.7358  2.4167
  177MOL0     H23838   2.958   2.112  10.146 -0.6456  1.2316 -0.0499
  177MOL0     H23839   3.136   2.077  10.170 -0.1911 -0.3561  2.2005
  177MOL0     H23840   3.194   2.300  10.227  1.5177 -0.8198  2.3802
  177MOL0     H23841   3.021   2.348  10.202 -1.3139 -2.0702 -0.4285
  177MOL0     H23842   3.148   2.253  10.440  1.0179 -0.5184 -1.5591
  177MOL0     H23843   3.045   2.122  10.375  1.9217 -0.0988 -0.7023
  177MOL0     H23844   2.924   2.393  10.393  0.3882  0.4542  0.0677
  177MOL0     H23845   2.845   2.242  10.419 -1.3794  2.2993 -0.7349
  177MOL0     H23846   3.057   2.534  10.617 -0.4515  0.1110 -0.3471
  177MOL0     H23847   3.123   2.582  10.867  2.2198 -0.0442 -0.4449
  177MOL0     H23848   3.051   2.470  10.981  2.8407  2.2213  1.4089
  177MOL0     H23849   3.249   2.442  11.039  1.9464 -0.8591  0.2783
  177MOL0     H23850   3.256   2.311  10.917 -1.1337 -0.3047 -1.3401
  177MOL0     H23851   3.320   2.588  10.822  0.6483  0.7700  1.8472
  177MOL0     H23852   3.358   2.430  10.752  0.9662 -0.9193  0.2476
  177MOL0     H23853   3.516   2.391  10.937  0.3375 -0.0798  1.0446
  177MOL0     H23854   3.492   2.555  10.999  1.7707 -2.9585  1.1286
  177MOL0     H23855   3.689   2.493  11.057 -1.4897 -3.7053 -2.6204
  177MOL0     H23856   3.922   2.505  11.091 -2.1865  1.0509  1.6625
  177MOL0     H23857   4.318   2.809  10.673  0.8832  0.2294  0.7568
  177MOL0     H23858   4.558   2.852  10.674 -2.8456  1.7561  0.2312
  177MOL0     H23859   4.726   2.777  10.984 -1.3942 -0.9417  1.2328
  177MOL0     H23860   4.797   2.621  10.992  1.8753  0.8494  1.1379
  177MOL0     H23861   4.976   2.786  11.011 -0.1393 -2.7225  0.7112
  177MOL0     H23862   5.004   2.676  10.891  1.7210  0.0484  1.7556
  177MOL0     H23863   4.930   2.857  10.723 -0.1880 -0.6331  0.0402
  177MOL0     H23864   4.864   2.951  10.852 -0.9906  0.3875  1.9235
  177MOL0     H23865   5.093   3.005  10.936 -1.9511  1.0722 -1.0472
  177MOL0     H23866   5.081   3.043  10.760 -1.8416 -1.1006 -2.4361
  177MOL0     H23867   5.210   2.876  10.677  0.6847  3.7066 -1.5191
  177MOL0     H23868   5.203   2.790  10.834  0.0318  0.2327  0.4143
  177MOL0     H23869   5.333   3.066  10.805  3.3313 -0.3264 -0.8564
  177MOL0     H23870   5.357   2.947  10.937  0.7682 -0.8633 -0.5365
  177MOL0     H23871   5.437   2.932  10.655 -0.1945 -0.3349  0.5266
  177MOL0     H23872   5.456   2.795  10.770  0.3956 -0.1144  0.1919
  177MOL0     H23873   5.616   2.897  10.904 -0.6243 -0.9217 -0.4612
  177MOL0     H23874   5.677   2.941  10.751  0.9457  2.1225  1.1341
  177MOL0     H23875   4.609   2.501  10.921 -1.6368 -0.4152  1.9125
  177MOL0     H23876   4.357   2.479  10.944  0.0597 -2.2650 -1.7138
  177MOL0     H23877   3.969   2.668  10.696 -0.4485  0.3516  0.7113
  177MOL0     H23878   3.721   2.635  10.660 -1.6559  2.7121  1.8466
  177MOL0     H23879   2.662   1.959   9.939  2.0770  2.7958  3.0496
  177MOL0     H23880   2.450   2.054  10.050 -1.7380 -0.3294 -0.4094
  177MOL0     H23881   2.196   2.341  10.156  0.9003  4.7452  0.3562
  177MOL0     H23882   2.037   2.432  10.297  0.8737  1.2417  0.0924
  177MOL0     H23883   1.685   2.696  10.107 -0.0320 -1.7361  0.4255
  177MOL0     H23884   1.849   2.732  10.069 -2.3676  1.8861 -0.9566
  177MOL0     H23885   1.747   2.913  10.201  1.8653 -0.0513 -1.2484
  177MOL0     H23886   1.898   2.841  10.261 -0.2056 -0.8869  1.3464
  177MOL0     H23887   1.799   2.739  10.428  0.1572 -2.1935 -1.4240
  177MOL0     H23888   1.627   2.740  10.366 -0.8307  1.0775  0.2767
  177MOL0     H23889   1.795   2.981  10.462 -0.2243 -1.3629  0.8666
  177MOL0     H23890   1.645   3.000  10.383 -1.2800  2.1563  5.6915
  177MOL0     H23891   1.544   2.845  10.762  2.0442  0.1399  0.9775
  177MOL0     H23892   1.772   2.495   9.970  0.4961 -0.5721 -1.4803
  177MOL0     H23893   1.816   2.420   9.766 -0.8044 -1.7579 -2.1190
  177MOL0     H23894   1.980   2.426   9.707 -2.9632 -0.3426 -2.5107
  177MOL0     H23895   1.904   2.276   9.754 -2.8236  0.4916  0.0632
  178MOL0     O23896  11.249  10.606  10.412 -0.1471  0.6464  0.3589
  178MOL0     C23897  11.192  10.507  10.446  0.6117 -0.0994  0.1051
  178MOL0     O23898  11.251  10.384  10.471 -0.3749  0.0454  0.2505
  178MOL0     C23899  11.391  10.385  10.447  0.9720 -0.0367 -0.6392
  178MOL0     C23900  11.440  10.301  10.347 -0.1940 -0.2853  0.1065
  178MOL0     C23901  11.575  10.299  10.313  0.1980 -0.2639 -0.4695
  178MOL0     C23902  11.660  10.383  10.380 -0.5022 -0.7729  0.0992
  178MOL0     O23903  11.790  10.381  10.332 -0.1942 -1.0600 -0.0650
  178MOL0     C23904  11.897  10.465  10.387 -0.7647  0.2349  0.6636
  178MOL0     C23905  11.908  10.594  10.318  0.1085  0.1265  0.5004
  178MOL0     C23906  12.026  10.687  10.348 -0.0362 -0.4541  0.5976
  178MOL0     C23907  12.026  10.803  10.259  0.0311 -0.3420  0.2511
  178MOL0     C23908  12.124  10.904  10.306 -0.3060 -0.5761  0.1536
  178MOL0     C23909  12.145  11.003  10.194  0.4828 -0.1864 -0.2404
  178MOL0     C23910  12.275  11.081  10.189 -1.3639  0.5473 -0.5187
  178MOL0     C23911  12.282  11.186  10.301 -0.1560 -0.0867 -0.8960
  178MOL0     N23912  12.394  11.273  10.296 -0.0498 -0.4145  0.5356
  178MOL0     C23913  12.529  11.243  10.297  0.4635 -0.2187  0.1522
  178MOL0     C23914  12.584  11.364  10.290 -0.7620 -0.6818 -0.2361
  178MOL0     C23915  12.734  11.402  10.297  0.2026  0.5115 -0.7446
  178MOL0     C23916  12.824  11.315  10.377  1.0682  0.1759  0.4618
  178MOL0     C23917  12.961  11.365  10.366  0.1183 -0.3553  1.0047
  178MOL0     C23918  13.052  11.309  10.476  0.7186  0.1411 -1.1348
  178MOL0     O23919  13.117  11.197  10.423 -0.0756  0.0942  0.6158
  178MOL0     C23920  13.255  11.191  10.439 -0.1082 -0.0774 -0.2274
  178MOL0     C23921  13.336  11.128  10.343 -0.6927 -0.2466  0.2706
  178MOL0     C23922  13.478  11.123  10.357 -0.7622 -0.1116 -0.6624
  178MOL0     C23923  13.541  11.167  10.473 -0.1998 -0.9211  0.4707
  178MOL0     C23924  13.689  11.166  10.480 -0.1703  0.4508 -0.3074
  178MOL0     O23925  13.744  11.182  10.606  0.1535  1.0485 -0.4326
  178MOL0     C23926  13.877  11.208  10.636  0.4335 -0.2806  0.6815
  178MOL0     C23927  13.910  11.180  10.764 -0.4641  0.0540 -1.1932
  178MOL0     C23928  14.046  11.212  10.800 -0.3911  0.3073 -1.6560
  178MOL0     C23929  14.140  11.259  10.707 -0.9824  0.1394 -0.2861
  178MOL0     O23930  14.263  11.272  10.759 -0.3420  0.2701  0.5605
  178MOL0     C23931  14.379  11.312  10.670  0.6459  0.0164 -0.6108
  178MOL0     C23932  14.512  11.299  10.755 -0.0923 -0.2344  0.8877
  178MOL0     C23933  14.625  11.341  10.670 -0.7950 -0.4632  0.2478
  178MOL0     C23934  14.753  11.349  10.748  0.0072  0.1997 -0.9301
  178MOL0     C23935  14.864  11.366  10.651 -0.5914  0.1118 -0.2747
  178MOL0     C23936  15.000  11.355  10.719 -0.4054  0.5545  0.1206
  178MOL0     C23937  15.049  11.467  10.814  0.8240  0.0584 -0.4823
  178MOL0     C23938  15.041  11.599  10.739 -0.1499  0.2439 -0.2865
  178MOL0    Cl23939  15.169  11.708  10.793 -0.1923  0.2374  0.1193
  178MOL0     C23940  14.109  11.285  10.579  0.3573  0.2505  0.0121
  178MOL0     C23941  13.964  11.257  10.546  0.1507 -0.9209 -0.4414
  178MOL0     O23942  13.752  11.151  10.377 -0.0722 -0.1535 -0.8206
  178MOL0     C23943  13.462  11.218  10.576  0.1408  0.7728 -0.2749
  178MOL0     C23944  13.316  11.225  10.564  0.1720  0.2016  0.9756
  178MOL0     N23945  12.489  11.461  10.294 -0.7871 -0.2910  0.0529
  178MOL0     N23946  12.368  11.407  10.298 -0.7025 -0.1960 -0.1809
  178MOL0     C23947  11.610  10.465  10.482  1.0595 -0.6567 -0.0109
  178MOL0     C23948  11.476  10.461  10.527  0.7507 -0.2092  0.1451
  178MOL0     C23949  11.039  10.511  10.446 -0.6367 -0.4809  0.0233
  178MOL0     C23950  10.967  10.390  10.436 -0.4437 -0.1082  0.0058
  178MOL0     C23951  10.826  10.390  10.443 -0.7219 -0.2063  0.4183
  178MOL0     C23952  10.752  10.509  10.455 -0.6440 -0.3523 -0.0641
  178MOL0     O23953  10.620  10.495  10.467  0.0462 -0.4850  0.9681
  178MOL0     C23954  10.534  10.602  10.469  0.3994 -1.2317 -0.0072
  178MOL0     C23955  10.385  10.567  10.492 -0.2017 -0.3126 -0.3409
  178MOL0     C23956  10.294  10.695  10.497 -0.2325  0.5594  0.4404
  178MOL0     C23957  10.157  10.663  10.439  0.1833  0.4522  0.1577
  178MOL0     C23958  10.062  10.768  10.464 -0.5284 -0.3024  0.2434
  178MOL0     C23959   9.983  10.848  10.511 -0.0346 -0.2166  0.1254
  178MOL0     C23960  10.830  10.618  10.487 -0.1584  0.1945  0.4201
  178MOL0     C23961  10.971  10.628  10.473  0.1609 -0.1424 -0.2608
  178MOL0     C23962  11.032  10.765  10.484 -0.5832 -0.0454  0.7790
  178MOL0     H23963  11.374  10.241  10.285  0.4435 -1.0964  0.1890
  178MOL0     H23964  11.608  10.231  10.235 -1.3068 -1.2409 -0.2866
  178MOL0     H23965  11.868  10.479  10.492 -1.9964 -2.1459  0.7209
  178MOL0     H23966  11.985  10.400  10.387 -3.4963 -3.8819  1.0709
  178MOL0     H23967  11.808  10.637  10.326 -0.7756 -1.9655  1.3781
  178MOL0     H23968  11.920  10.574  10.211 -2.5420  0.5937  0.0427
  178MOL0     H23969  12.119  10.632  10.331 -0.9986 -1.9991  0.0895
  178MOL0     H23970  12.022  10.737  10.445 -1.6617  0.1260  0.2561
  178MOL0     H23971  12.047  10.768  10.157 -0.3684 -1.8870  0.6826
  178MOL0     H23972  11.925  10.842  10.247 -1.0479 -1.6781  3.8834
  178MOL0     H23973  12.092  10.956  10.396  0.3716  0.8165 -0.3775
  178MOL0     H23974  12.214  10.852  10.339  0.0361  0.1718  0.4098
  178MOL0     H23975  12.139  10.953  10.096 -1.9997 -1.3663  0.4361
  178MOL0     H23976  12.056  11.066  10.189 -1.0282 -1.9151  2.4078
  178MOL0     H23977  12.283  11.136  10.094 -1.6203 -0.3405 -1.0649
  178MOL0     H23978  12.358  11.014  10.213 -2.3357 -0.3845  0.3202
  178MOL0     H23979  12.193  11.248  10.293 -1.2536 -1.4941 -0.1976
  178MOL0     H23980  12.275  11.140  10.400 -2.6848 -1.2157 -1.5275
  178MOL0     H23981  12.579  11.147  10.309 -0.7395 -0.7240  1.4449
  178MOL0     H23982  12.775  11.401  10.196 -0.2451 -0.2380 -0.9271
  178MOL0     H23983  12.731  11.505  10.336 -2.9229  1.4811 -3.1451
  178MOL0     H23984  12.774  11.317  10.474  0.8267  3.3909  0.3935
  178MOL0     H23985  12.820  11.216  10.331 -0.7862  1.0551 -1.4378
  178MOL0     H23986  12.956  11.474  10.376 -0.7837  0.0343 -2.5463
  178MOL0     H23987  13.005  11.343  10.269  1.6856  0.4406  1.4911
  178MOL0     H23988  13.000  11.268  10.563 -1.1357 -0.3966 -2.4377
  178MOL0     H23989  13.112  11.389  10.520 -1.7721  1.0173  0.9069
  178MOL0     H23990  13.288  11.088  10.254 -1.9275  1.7715 -0.0372
  178MOL0     H23991  13.541  11.088  10.275  2.2701  0.3832  1.2877
  178MOL0     H23992  13.841  11.138  10.836  1.3011 -0.7978  0.1007
  178MOL0     H23993  14.073  11.191  10.903 -2.4775  2.0866 -0.6767
  178MOL0     H23994  14.391  11.236  10.592  0.5169 -0.7349  0.0962
  178MOL0     H23995  14.353  11.407  10.622 -2.1563 -1.5346 -2.4465
  178MOL0     H23996  14.497  11.370  10.838  0.8982  0.3060  0.6201
  178MOL0     H23997  14.528  11.202  10.802  2.0494  0.3803  1.5589
  178MOL0     H23998  14.648  11.270  10.590 -1.0504 -0.7504  0.4256
  178MOL0     H23999  14.606  11.439  10.625  1.3847  0.9520  2.1698
  178MOL0     H24000  14.765  11.260  10.810  2.5204  0.9137 -0.3056
  178MOL0     H24001  14.754  11.435  10.816  1.5406 -0.7488  0.3182
  178MOL0     H24002  14.852  11.462  10.602 -0.4838  0.0227 -0.4764
  178MOL0     H24003  14.867  11.292  10.570 -0.0670 -0.7398  0.4916
  178MOL0     H24004  15.009  11.265  10.781  1.8893 -1.2575 -2.5984
  178MOL0     H24005  15.071  11.349  10.636 -2.0973  2.9781 -1.6588
  178MOL0     H24006  15.154  11.453  10.840  1.4932  1.5395 -2.1963
  178MOL0     H24007  14.986  11.465  10.904  3.2852 -1.3216  1.3402
  178MOL0     H24008  15.055  11.593  10.630 -1.9129  1.3024 -0.6062
  178MOL0     H24009  14.944  11.647  10.749 -0.1957 -0.1691  1.5943
  178MOL0     H24010  14.168  11.350  10.515 -0.7981  0.8869 -0.4378
  178MOL0     H24011  13.938  11.290  10.446 -0.3431  1.0984  0.2948
  178MOL0     H24012  13.511  11.266  10.661 -1.0265  2.1435 -0.3354
  178MOL0     H24013  13.244  11.261  10.637 -1.5940 -2.6691  0.7895
  178MOL0     H24014  11.671  10.546  10.521  1.2408 -0.4482 -0.7100
  178MOL0     H24015  11.441  10.532  10.601 -0.9870 -0.9452  0.0826
  178MOL0     H24016  11.024  10.299  10.425  2.8766  1.4479  2.4934
  178MOL0     H24017  10.774  10.295  10.437 -0.0593 -0.5359 -0.1535
  178MOL0     H24018  10.536  10.658  10.375 -2.3947 -0.4568  0.3084
  178MOL0     H24019  10.557  10.671  10.551 -0.5190  0.6069 -1.2405
  178MOL0     H24020  10.366  10.507  10.582  1.2675 -0.4169 -0.0804
  178MOL0     H24021  10.359  10.503  10.408  0.2682  0.1798 -0.8661
  178MOL0     H24022  10.338  10.781  10.445 -3.8638  1.1504 -1.9815
  178MOL0     H24023  10.274  10.727  10.600  0.7855  1.0939  0.4833
  178MOL0     H24024  10.177  10.649  10.332 -4.1402  1.2684 -0.9173
  178MOL0     H24025  10.118  10.570  10.481 -0.1397  0.3010 -0.4620
  178MOL0     H24026   9.915  10.923  10.547 -1.0486 -0.8550 -0.4417
  178MOL0     H24027  10.773  10.707  10.513 -2.5894 -0.1094 -3.1838
  178MOL0     H24028  10.950  10.837  10.484 -0.1327  0.4690 -0.2184
  178MOL0     H24029  11.093  10.778  10.574  0.0202  1.3881  0.1815
  178MOL0     H24030  11.097  10.782  10.399  0.1169 -2.3158  0.7949
  179MOL0     O24031   2.083   9.601   4.350 -0.8347 -0.4764 -0.4933
  179MOL0     C24032   2.002   9.565   4.264  0.7897 -0.1699 -0.0181
  179MOL0     O24033   1.970   9.624   4.153 -0.0374  0.2294  0.3642
  179MOL0     C24034   2.030   9.735   4.099  0.0589 -0.8487  0.2804
  179MOL0     C24035   2.166   9.783   4.139  0.1890 -0.3310 -0.3875
  179MOL0     C24036   2.214   9.910   4.097 -0.0135  1.2563  0.4052
  179MOL0     C24037   2.141   9.990   4.006 -0.3911  0.0143 -0.6750
  179MOL0     O24038   2.181  10.118   3.969 -0.1509  0.0994  1.0155
  179MOL0     C24039   2.300  10.172   4.025  0.8400  0.7137  0.5065
  179MOL0     C24040   2.330  10.286   3.927  1.2327 -0.1068  0.5840
  179MOL0     C24041   2.469  10.342   3.958 -0.0208  0.0561  0.3108
  179MOL0     C24042   2.446  10.484   3.995  0.1586 -0.8088 -0.2955
  179MOL0     C24043   2.570  10.561   3.997 -0.0598  1.1099  0.6404
  179MOL0     C24044   2.638  10.546   4.130  0.0659  0.1188  0.0125
  179MOL0     C24045   2.782  10.596   4.136 -0.0439  0.7720  0.6367
  179MOL0     C24046   2.875  10.523   4.044 -0.5083 -0.0591  0.3015
  179MOL0     N24047   3.022  10.544   4.069 -0.2682 -0.3515  0.1479
  179MOL0     C24048   3.084  10.544   4.189  0.8895 -0.6645 -0.0246
  179MOL0     C24049   3.213  10.565   4.159 -0.6581 -0.0885  0.9072
  179MOL0     C24050   3.325  10.546   4.261  0.7473  0.1279 -0.6455
  179MOL0     C24051   3.467  10.557   4.196  0.3403 -0.1472 -0.8339
  179MOL0     C24052   3.567  10.508   4.297  0.3296 -0.6628  0.4532
  179MOL0     C24053   3.709  10.495   4.240 -0.0979 -0.3841  1.4788
  179MOL0     O24054   3.725  10.618   4.160  0.3567  0.2415 -0.1156
  179MOL0     C24055   3.826  10.605   4.076 -0.8023  0.1089  0.5200
  179MOL0     C24056   3.953  10.633   4.120 -0.5223 -0.3596 -0.6554
  179MOL0     C24057   4.069  10.608   4.038 -0.8886 -1.5709  0.8110
  179MOL0     C24058   4.051  10.558   3.911  0.4346 -1.0155  0.4852
  179MOL0     C24059   4.161  10.516   3.830 -0.1106  0.6870  0.2917
  179MOL0     O24060   4.139  10.479   3.703 -0.7774 -0.2692 -0.1538
  179MOL0     C24061   4.247  10.478   3.610  0.2857 -0.1792 -0.0174
  179MOL0     C24062   4.230  10.375   3.512  0.0686 -0.7079  0.5641
  179MOL0     C24063   4.330  10.351   3.420  0.1524  0.0203 -0.0036
  179MOL0     C24064   4.449  10.420   3.428 -0.1583  0.6842  0.4446
  179MOL0     O24065   4.557  10.380   3.349  0.0969 -0.0705 -0.2884
  179MOL0     C24066   4.676  10.463   3.340  0.9067 -0.0785 -0.0095
  179MOL0     C24067   4.786  10.400   3.240 -0.8980 -0.8534  0.3130
  179MOL0     C24068   4.902  10.503   3.238 -0.1715 -0.5462 -0.8187
  179MOL0     C24069   4.989  10.498   3.117 -0.2313  0.5545 -0.3514
  179MOL0     C24070   5.041  10.355   3.096 -0.6392 -0.0847  0.3257
  179MOL0     C24071   5.148  10.318   3.194 -0.2171 -0.3576 -0.1062
  179MOL0     C24072   5.226  10.194   3.163  0.1907  0.2117  0.3222
  179MOL0     C24073   5.326  10.168   3.272 -0.4594 -0.0537  0.1635
  179MOL0    Cl24074   5.457  10.287   3.253 -0.2747  0.3894  0.1469
  179MOL0     C24075   4.463  10.526   3.521  0.3696  0.0845 -0.2864
  179MOL0     C24076   4.357  10.560   3.606 -0.5999 -0.5047 -0.4205
  179MOL0     O24077   4.270  10.507   3.886 -0.3259  0.2073 -0.5380
  179MOL0     C24078   3.917  10.546   3.856  0.0908  0.2011 -0.2283
  179MOL0     C24079   3.809  10.566   3.945  0.0578 -0.3745 -0.4691
  179MOL0     N24080   3.224  10.593   4.025 -0.6314  0.4870 -0.0646
  179MOL0     N24081   3.110  10.567   3.968  0.8840  0.4654  0.5751
  179MOL0     C24082   2.015   9.944   3.971 -0.6185 -0.3184  0.3962
  179MOL0     C24083   1.960   9.818   4.000 -0.9272  0.2794  0.0664
  179MOL0     C24084   1.929   9.442   4.298 -0.2378  0.0947 -1.1527
  179MOL0     C24085   1.988   9.349   4.396 -0.1695  0.1370 -0.5375
  179MOL0     C24086   1.910   9.235   4.435 -0.2077 -0.5850  0.1637
  179MOL0     C24087   1.775   9.217   4.390 -1.0886  0.4112 -0.7284
  179MOL0     O24088   1.712   9.101   4.430 -0.3361  0.1707 -0.2659
  179MOL0     C24089   1.576   9.131   4.483 -0.6810  0.3238  0.7069
  179MOL0     C24090   1.465   9.061   4.394  0.5344 -0.4603 -0.0572
  179MOL0     C24091   1.332   9.034   4.477  0.1288 -0.0608 -0.0851
  179MOL0     C24092   1.225   8.974   4.385 -0.2096  0.2410 -0.3205
  179MOL0     C24093   1.104   8.942   4.462  0.2210 -0.1145  0.4207
  179MOL0     C24094   0.996   8.911   4.518  0.1951  0.3428 -0.3996
  179MOL0     C24095   1.723   9.306   4.300 -1.4294 -0.7547  0.6339
  179MOL0     C24096   1.795   9.415   4.248  0.9101 -0.1375 -0.9982
  179MOL0     C24097   1.721   9.501   4.149  0.4641  0.4237  0.2128
  179MOL0     H24098   2.223   9.715   4.202  1.1988  1.8358  1.1624
  179MOL0     H24099   2.306   9.943   4.145  1.7867  0.2872 -2.1710
  179MOL0     H24100   2.287  10.206   4.128 -0.1885  0.5694  0.4296
  179MOL0     H24101   2.384  10.103   4.009 -0.1354 -0.7959  1.5777
  179MOL0     H24102   2.252  10.363   3.938  0.9198 -0.5049  1.2064
  179MOL0     H24103   2.327  10.264   3.820  2.8640  2.0737  0.0251
  179MOL0     H24104   2.530  10.339   3.867  0.9718 -1.7083  0.9848
  179MOL0     H24105   2.522  10.280   4.030  0.2566  1.0370  0.9587
  179MOL0     H24106   2.381  10.528   3.919  0.0958 -0.8408 -0.2602
  179MOL0     H24107   2.394  10.488   4.091 -2.3449  4.8177 -1.4796
  179MOL0     H24108   2.634  10.517   3.919 -1.1328  0.7087 -0.0298
  179MOL0     H24109   2.562  10.665   3.963  2.3688  1.3840  0.7052
  179MOL0     H24110   2.582  10.599   4.207 -1.7962 -2.3455  0.4990
  179MOL0     H24111   2.644  10.441   4.162 -0.1993  0.4500  1.1788
  179MOL0     H24112   2.821  10.589   4.238  0.8012  0.9045  0.3364
  179MOL0     H24113   2.784  10.703   4.115 -2.1180  0.6866 -0.2420
  179MOL0     H24114   2.857  10.415   4.044  2.5799 -0.6646 -0.5244
  179MOL0     H24115   2.854  10.547   3.940 -3.0687 -0.6347  0.6200
  179MOL0     H24116   3.039  10.515   4.283  1.0812  0.3645  0.3976
  179MOL0     H24117   3.314  10.624   4.337  1.6159  1.9722 -2.3162
  179MOL0     H24118   3.319  10.446   4.304  0.3153 -0.1054 -1.2424
  179MOL0     H24119   3.468  10.488   4.110  4.8354 -1.9750  0.3768
  179MOL0     H24120   3.474  10.658   4.155 -1.2840 -0.4347 -1.8910
  179MOL0     H24121   3.526  10.414   4.335 -3.4229  1.1174  1.3399
  179MOL0     H24122   3.569  10.584   4.376 -2.6195 -0.2461  0.2374
  179MOL0     H24123   3.716  10.406   4.177 -0.8246  2.0095 -2.3851
  179MOL0     H24124   3.782  10.494   4.321  1.4680 -2.5150  0.1272
  179MOL0     H24125   3.961  10.680   4.217  0.4125 -2.5194  0.3642
  179MOL0     H24126   4.166  10.630   4.081 -0.2404  0.1595 -1.3556
  179MOL0     H24127   4.148  10.306   3.525  1.1680 -2.3105 -0.5646
  179MOL0     H24128   4.321  10.278   3.341  3.3034  1.2395 -1.6758
  179MOL0     H24129   4.655  10.564   3.305  0.8768  0.1286  0.6147
  179MOL0     H24130   4.721  10.478   3.438  0.1392 -2.7219  0.8301
  179MOL0     H24131   4.811  10.301   3.279 -0.9005 -1.3035 -0.7906
  179MOL0     H24132   4.750  10.381   3.138  0.3683 -1.7941  0.0289
  179MOL0     H24133   4.866  10.606   3.246  0.1487 -0.4185 -1.0218
  179MOL0     H24134   4.972  10.477   3.318 -0.7261 -1.0288 -0.4795
  179MOL0     H24135   5.068  10.572   3.130 -2.4085  2.6936  1.4515
  179MOL0     H24136   4.937  10.534   3.028  0.5334  0.2650 -0.9306
  179MOL0     H24137   5.081  10.342   2.995 -1.9116 -1.2499 -0.0615
  179MOL0     H24138   4.957  10.284   3.099 -1.4039  0.6083 -2.2721
  179MOL0     H24139   5.226  10.393   3.212 -0.4355 -0.3032  0.6410
  179MOL0     H24140   5.090  10.304   3.285 -0.9963  1.0420 -0.3575
  179MOL0     H24141   5.277  10.198   3.066  0.6201 -0.5661  0.5012
  179MOL0     H24142   5.148  10.117   3.160 -3.4604  3.4259  3.3574
  179MOL0     H24143   5.277  10.184   3.369  0.9743  0.5955  0.8146
  179MOL0     H24144   5.366  10.068   3.255 -1.5818  0.0219 -3.7409
  179MOL0     H24145   4.555  10.583   3.534  1.0589 -1.3215  1.4077
  179MOL0     H24146   4.369  10.652   3.663  2.6575  0.2318 -2.0531
  179MOL0     H24147   3.916  10.514   3.752  3.9853  0.6998 -0.5679
  179MOL0     H24148   3.707  10.552   3.911 -0.8828  1.6358  1.2852
  179MOL0     H24149   1.959  10.011   3.907  1.1777 -0.1735 -1.1342
  179MOL0     H24150   1.860   9.784   3.976 -1.9090  2.6791  0.4615
  179MOL0     H24151   2.093   9.361   4.421 -0.0337 -0.3421 -0.8691
  179MOL0     H24152   1.956   9.163   4.502  2.9358  0.0887 -1.0998
  179MOL0     H24153   1.551   9.237   4.484 -3.2124 -0.0558 -2.6071
  179MOL0     H24154   1.567   9.085   4.582 -2.0980 -2.1205 -0.4744
  179MOL0     H24155   1.503   8.965   4.356 -3.4110 -2.3244  0.1457
  179MOL0     H24156   1.436   9.124   4.310 -0.3725 -1.3573 -0.4478
  179MOL0     H24157   1.300   9.130   4.517 -0.5917 -0.5378  0.4950
  179MOL0     H24158   1.355   8.960   4.554  1.4731  1.4458  1.0276
  179MOL0     H24159   1.208   9.044   4.303  0.0138  0.1765 -0.4246
  179MOL0     H24160   1.271   8.879   4.354 -1.7163 -1.7337  2.9899
  179MOL0     H24161   0.906   8.872   4.559  0.3194  1.5748  1.1141
  179MOL0     H24162   1.619   9.296   4.270 -1.4230 -0.5033  0.5256
  179MOL0     H24163   1.785   9.524   4.063 -0.1603  2.7366  0.2988
  179MOL0     H24164   1.632   9.449   4.112 -0.8444  1.3404  1.9339
  179MOL0     H24165   1.688   9.591   4.202 -1.5410 -0.5985  0.8032
  180MOL0     O24166   4.032   8.800   7.630  0.0689  0.3926 -0.1446
  180MOL0     C24167   3.935   8.718   7.632 -0.1231  0.1521 -0.1581
  180MOL0     O24168   3.941   8.587   7.587 -0.0128 -0.5460 -0.0635
  180MOL0     C24169   4.060   8.525   7.573  0.0827  0.1856  0.0352
  180MOL0     C24170   4.148   8.513   7.689  0.6151  0.4274  0.2526
  180MOL0     C24171   4.263   8.444   7.682 -0.1998  0.5229 -0.5002
  180MOL0     C24172   4.310   8.389   7.565 -0.2812 -0.0526  0.0748
  180MOL0     O24173   4.436   8.331   7.563 -0.5564  0.4893  0.6242
  180MOL0     C24174   4.476   8.246   7.456  0.8226 -0.4951  0.0570
  180MOL0     C24175   4.616   8.202   7.439  0.4089  0.2388  0.1469
  180MOL0     C24176   4.711   8.309   7.391 -0.5983 -0.5014 -0.2249
  180MOL0     C24177   4.854   8.267   7.436  0.2763  0.2292 -0.2147
  180MOL0     C24178   4.948   8.390   7.413  0.1121 -0.1200 -0.9024
  180MOL0     C24179   5.070   8.365   7.492  1.1942  0.7413 -0.8448
  180MOL0     C24180   5.163   8.488   7.497  0.5976  0.1098  0.6855
  180MOL0     C24181   5.302   8.473   7.540 -0.0905 -0.1552  0.0786
  180MOL0     N24182   5.371   8.609   7.524  0.3190  0.5206 -1.1719
  180MOL0     C24183   5.429   8.662   7.410 -0.9586 -0.0269  0.2424
  180MOL0     C24184   5.462   8.787   7.454 -0.1873 -0.9157  1.2202
  180MOL0     C24185   5.522   8.897   7.375 -0.3658  0.5211  0.8767
  180MOL0     C24186   5.677   8.876   7.353 -0.4472 -0.1747 -0.7336
  180MOL0     C24187   5.717   8.976   7.238  0.1406 -0.4390 -0.3421
  180MOL0     C24188   5.862   8.961   7.197  0.8365 -0.3385  0.2748
  180MOL0     O24189   5.878   9.045   7.079 -0.5430  0.4923 -0.5829
  180MOL0     C24190   6.005   9.075   7.041 -1.2283  0.8471 -0.3335
  180MOL0     C24191   6.040   9.183   6.962  0.4367  0.8999  0.1284
  180MOL0     C24192   6.169   9.214   6.909  0.5763 -0.1286 -0.0691
  180MOL0     C24193   6.283   9.137   6.953  0.5739  0.1526  0.2796
  180MOL0     C24194   6.404   9.148   6.883  0.4552 -0.7244  0.6892
  180MOL0     O24195   6.412   9.231   6.771  0.5606 -0.6901 -0.3128
  180MOL0     C24196   6.530   9.232   6.701 -0.4830  0.1129 -0.5272
  180MOL0     C24197   6.536   9.218   6.564  0.9846  1.0053  0.2347
  180MOL0     C24198   6.663   9.220   6.491 -0.3930 -0.6406 -0.6035
  180MOL0     C24199   6.784   9.233   6.568  0.1823 -0.8431 -0.0932
  180MOL0     O24200   6.908   9.251   6.512  0.0798 -0.2665  0.5842
  180MOL0     C24201   6.925   9.253   6.371 -0.2009 -0.6347  0.1772
  180MOL0     C24202   6.904   9.398   6.324  0.0267  0.9163 -0.7174
  180MOL0     C24203   7.030   9.483   6.332  0.6828 -0.1896 -0.2152
  180MOL0     C24204   6.991   9.628   6.285  0.6493  0.7756 -0.7184
  180MOL0     C24205   7.101   9.717   6.233 -0.3431 -0.4982  0.4208
  180MOL0     C24206   7.198   9.772   6.342  1.3761 -0.3147 -0.2341
  180MOL0     C24207   7.126   9.819   6.465  0.1654 -0.2846  0.6019
  180MOL0     C24208   7.022   9.940   6.441 -0.1981  0.5844  1.1094
  180MOL0    Cl24209   7.081  10.082   6.342  0.4883  0.4593  0.1687
  180MOL0     C24210   6.773   9.249   6.708  0.1681 -0.2175  0.0762
  180MOL0     C24211   6.650   9.259   6.767 -0.8351 -0.5331 -0.1162
  180MOL0     O24212   6.497   9.091   6.929 -0.6742  0.1123  0.1240
  180MOL0     C24213   6.257   9.028   7.045  1.5760  0.5004 -0.1251
  180MOL0     C24214   6.120   9.002   7.086 -0.2506 -0.9585 -0.1748
  180MOL0     N24215   5.421   8.809   7.588  0.9928  0.2103  0.3874
  180MOL0     N24216   5.376   8.699   7.623  0.0719 -0.6438 -0.7275
  180MOL0     C24217   4.229   8.402   7.450  0.2214 -0.3202  0.3140
  180MOL0     C24218   4.099   8.463   7.459 -0.0341 -0.3500  0.4167
  180MOL0     C24219   3.806   8.786   7.672  0.4000 -0.4140 -0.5801
  180MOL0     C24220   3.795   8.926   7.670  0.4078 -0.4932 -0.0401
  180MOL0     C24221   3.676   8.991   7.716  0.0586 -0.3097 -0.2659
  180MOL0     C24222   3.560   8.925   7.751  0.3172 -0.2129 -0.8466
  180MOL0     O24223   3.435   8.977   7.798 -0.3659 -0.0848  0.4497
  180MOL0     C24224   3.407   9.110   7.843  0.0432  0.1352  0.6209
  180MOL0     C24225   3.261   9.107   7.895 -0.8003 -0.8669 -0.4607
  180MOL0     C24226   3.195   9.246   7.909  0.3086 -0.6629  0.1293
  180MOL0     C24227   3.050   9.229   7.952 -0.3774 -0.3422  0.1461
  180MOL0     C24228   2.958   9.156   7.864 -0.4911 -0.7460 -0.0581
  180MOL0     C24229   2.881   9.100   7.788 -0.2434 -1.4984 -0.0574
  180MOL0     C24230   3.566   8.785   7.738 -0.8406 -0.8883  0.0208
  180MOL0     C24231   3.681   8.714   7.700 -0.4973  0.1103  0.2910
  180MOL0     C24232   3.671   8.565   7.702  0.0943  0.7895  0.1786
  180MOL0     H24233   4.120   8.565   7.781 -4.0790  2.7680 -2.1101
  180MOL0     H24234   4.327   8.441   7.769 -0.3586  1.1973 -0.3511
  180MOL0     H24235   4.421   8.152   7.463  2.0069 -1.7850 -4.4897
  180MOL0     H24236   4.451   8.293   7.361  2.4276 -1.1962 -0.7548
  180MOL0     H24237   4.611   8.114   7.374  3.0835 -0.6676  1.0066
  180MOL0     H24238   4.649   8.158   7.534  0.7526 -2.0422 -0.9703
  180MOL0     H24239   4.682   8.411   7.420 -2.5979 -1.3954  1.0982
  180MOL0     H24240   4.709   8.300   7.282 -3.4174 -0.3723 -0.2482
  180MOL0     H24241   4.852   8.248   7.544  2.0636  0.8303 -0.0499
  180MOL0     H24242   4.895   8.174   7.396  1.1273 -0.3321  1.7954
  180MOL0     H24243   4.979   8.407   7.309  2.2015  0.1241 -0.2915
  180MOL0     H24244   4.887   8.471   7.453 -0.9069 -1.5489  0.5133
  180MOL0     H24245   5.034   8.355   7.594  0.8566  0.9999 -0.9384
  180MOL0     H24246   5.118   8.276   7.449 -0.2850 -0.8841  0.6967
  180MOL0     H24247   5.109   8.568   7.547 -0.3050 -0.7023  1.0356
  180MOL0     H24248   5.168   8.524   7.394 -1.8420 -2.2382 -0.3753
  180MOL0     H24249   5.312   8.438   7.643  2.3428 -0.1600 -0.0871
  180MOL0     H24250   5.354   8.397   7.481 -1.0930 -0.4933 -0.3970
  180MOL0     H24251   5.441   8.633   7.306 -0.4952  1.2615 -0.0876
  180MOL0     H24252   5.473   8.890   7.277  0.8092  1.7752  0.1610
  180MOL0     H24253   5.507   8.998   7.416 -0.4094  0.0862  1.9713
  180MOL0     H24254   5.728   8.913   7.442  1.0944  2.6940 -2.6536
  180MOL0     H24255   5.714   8.777   7.323  2.3717  0.7108 -0.4663
  180MOL0     H24256   5.697   9.080   7.263  2.1502 -0.4936  1.9454
  180MOL0     H24257   5.655   8.933   7.158 -1.6847 -0.1810  0.8730
  180MOL0     H24258   5.893   8.861   7.167  2.2179  0.4237 -0.9607
  180MOL0     H24259   5.920   9.004   7.279  1.5471 -0.8420  0.0373
  180MOL0     H24260   5.959   9.245   6.923 -1.1318 -0.4465  1.1169
  180MOL0     H24261   6.186   9.298   6.843  2.9062  1.8859  2.8260
  180MOL0     H24262   6.437   9.210   6.520 -0.2335 -1.2419  2.9973
  180MOL0     H24263   6.664   9.205   6.383 -3.9316 -3.2479 -0.4370
  180MOL0     H24264   7.025   9.217   6.345  0.1183 -0.4964  1.1692
  180MOL0     H24265   6.858   9.187   6.315 -0.0335  1.6176 -2.9372
  180MOL0     H24266   6.882   9.379   6.218 -2.3365 -1.3588  0.0858
  180MOL0     H24267   6.815   9.444   6.368 -0.8689 -0.3772 -1.1230
  180MOL0     H24268   7.082   9.489   6.429  1.7018  0.1745 -0.7690
  180MOL0     H24269   7.099   9.439   6.260  0.3801 -1.8933  0.4894
  180MOL0     H24270   6.929   9.668   6.366 -0.6294 -0.4363 -1.0768
  180MOL0     H24271   6.930   9.619   6.195  0.3504  1.5555 -0.6014
  180MOL0     H24272   7.056   9.813   6.205  0.8460  0.9027  2.9516
  180MOL0     H24273   7.144   9.676   6.142  1.0832  0.9994  0.3833
  180MOL0     H24274   7.263   9.686   6.359  0.3605 -1.0510  0.0367
  180MOL0     H24275   7.256   9.849   6.289 -0.6921 -0.1013 -2.3857
  180MOL0     H24276   7.197   9.862   6.536 -0.0173 -1.4122  1.5011
  180MOL0     H24277   7.076   9.731   6.506 -1.5902 -1.6472 -3.8553
  180MOL0     H24278   6.937   9.901   6.384 -0.4528 -0.8437  2.4272
  180MOL0     H24279   6.984   9.977   6.537 -0.8639  1.3591  0.5675
  180MOL0     H24280   6.866   9.267   6.762 -0.4942  0.7656  0.9421
  180MOL0     H24281   6.657   9.299   6.868  3.4435  0.4905 -0.6411
  180MOL0     H24282   6.340   8.971   7.085  1.7023  0.9935  0.3273
  180MOL0     H24283   6.101   8.932   7.166 -1.0034 -1.4125 -0.7416
  180MOL0     H24284   4.259   8.368   7.352  0.4162 -0.5458  0.4501
  180MOL0     H24285   4.036   8.462   7.371  1.1456  2.3973 -0.5729
  180MOL0     H24286   3.879   8.987   7.639  0.1875 -0.8177 -1.3072
  180MOL0     H24287   3.664   9.099   7.718 -0.9687 -0.4236  0.9797
  180MOL0     H24288   3.416   9.180   7.760 -0.3127  0.0034  0.4681
  180MOL0     H24289   3.488   9.146   7.907  0.6412  0.7131 -0.4494
  180MOL0     H24290   3.262   9.054   7.990 -1.0234  3.3025  2.1364
  180MOL0     H24291   3.203   9.055   7.818 -1.2564 -3.9929  1.8236
  180MOL0     H24292   3.203   9.308   7.819  1.2419  0.5001  0.9910
  180MOL0     H24293   3.249   9.304   7.984 -0.5275  1.4160 -0.7880
  180MOL0     H24294   3.047   9.174   8.046  0.0169 -1.3064 -0.3928
  180MOL0     H24295   3.010   9.329   7.972 -0.2600  0.4195 -2.9478
  180MOL0     H24296   2.814   9.056   7.718 -2.5159 -1.3673  1.9084
  180MOL0     H24297   3.481   8.718   7.733  0.0112 -2.0063  0.2825
  180MOL0     H24298   3.570   8.534   7.731 -0.1096  0.1430 -1.1698
  180MOL0     H24299   3.688   8.513   7.607 -1.7946 -1.0251  0.7518
  180MOL0     H24300   3.738   8.534   7.783 -0.8352 -0.8760  0.3402
  181MOL0     O24301   8.659   5.128   4.276  0.0202  0.9534 -0.3086
  181MOL0     C24302   8.579   5.112   4.364 -0.2087  0.1078 -0.6547
  181MOL0     O24303   8.599   5.049   4.474 -0.0987  0.0022  0.4470
  181MOL0     C24304   8.728   5.005   4.513  1.1378  0.0196  0.4560
  181MOL0     C24305   8.730   4.895   4.601 -0.4002 -0.8308 -0.6508
  181MOL0     C24306   8.854   4.847   4.648 -0.0834  0.1341  0.0145
  181MOL0     C24307   8.976   4.886   4.601 -0.6753  0.0860 -0.4955
  181MOL0     O24308   9.092   4.826   4.665  0.4220 -0.2176  0.3110
  181MOL0     C24309   9.216   4.892   4.637  0.5504  0.4294  0.3074
  181MOL0     C24310   9.324   4.855   4.747  0.6632  0.1245  0.8569
  181MOL0     C24311   9.266   4.889   4.884  0.4972  0.2095 -0.7004
  181MOL0     C24312   9.368   4.862   4.993  0.5752  0.3741  0.5115
  181MOL0     C24313   9.302   4.844   5.130  0.0461  0.6817 -0.4770
  181MOL0     C24314   9.392   4.750   5.227 -0.4420 -0.1208  0.5160
  181MOL0     C24315   9.521   4.826   5.234  0.3503 -0.2759  0.4333
  181MOL0     C24316   9.600   4.791   5.357 -0.1708 -0.5968 -0.0611
  181MOL0     N24317   9.638   4.654   5.359 -0.0567  0.1976 -1.7175
  181MOL0     C24318   9.556   4.567   5.434  1.0279  0.7317 -0.4956
  181MOL0     C24319   9.632   4.459   5.463  0.6515 -0.0058  0.3963
  181MOL0     C24320   9.592   4.327   5.524  0.0813 -0.6368 -0.3306
  181MOL0     C24321   9.632   4.331   5.665 -0.3122 -0.9395 -0.1185
  181MOL0     C24322   9.669   4.191   5.710  0.6348  0.0617  0.2467
  181MOL0     C24323   9.829   4.167   5.709  0.0979 -0.0073  0.1492
  181MOL0     O24324   9.881   4.162   5.572 -0.6351 -0.2338 -0.6348
  181MOL0     C24325  10.018   4.170   5.564 -0.9814 -0.2121  0.1128
  181MOL0     C24326  10.108   4.126   5.664  0.1147 -0.0006 -0.1666
  181MOL0     C24327  10.246   4.125   5.640  0.0916 -0.7361 -0.0131
  181MOL0     C24328  10.299   4.178   5.515 -0.1292  0.6849  0.7775
  181MOL0     C24329  10.442   4.161   5.477 -0.3423 -0.2419  0.3338
  181MOL0     O24330  10.527   4.169   5.589  0.3746  0.2722 -0.1475
  181MOL0     C24331  10.673   4.162   5.588  0.5689 -0.6423  0.5904
  181MOL0     C24332  10.733   4.052   5.638  0.3677 -0.0099 -0.1540
  181MOL0     C24333  10.871   4.039   5.641 -0.6177 -0.3103 -0.3191
  181MOL0     C24334  10.949   4.139   5.575  0.7086  0.1284  0.3637
  181MOL0     O24335  11.081   4.127   5.563 -0.5183 -0.1994 -0.3369
  181MOL0     C24336  11.158   4.041   5.652 -0.2727 -0.4233  0.0462
  181MOL0     C24337  11.301   4.045   5.635  0.5093  0.3500 -0.0774
  181MOL0     C24338  11.370   3.945   5.531 -0.0820 -0.3449 -0.2094
  181MOL0     C24339  11.323   3.959   5.392 -0.2390 -0.5985 -0.5373
  181MOL0     C24340  11.420   3.879   5.298  0.1929 -0.2825 -0.1606
  181MOL0     C24341  11.411   3.937   5.158 -0.1521  0.2206 -0.4184
  181MOL0     C24342  11.491   3.853   5.054  0.1487 -0.1815  0.6091
  181MOL0     C24343  11.443   3.707   5.022  0.2680  0.3621 -0.3440
  181MOL0    Cl24344  11.274   3.717   4.955 -0.3903  0.2171  0.1037
  181MOL0     C24345  10.885   4.241   5.510 -0.4056 -0.4677 -0.0191
  181MOL0     C24346  10.746   4.248   5.512 -0.3769  0.0027 -1.3966
  181MOL0     O24347  10.479   4.162   5.365  0.0732 -0.5613  0.6905
  181MOL0     C24348  10.208   4.227   5.417 -0.3127 -0.0339  0.1289
  181MOL0     C24349  10.071   4.230   5.446  0.4699 -1.1460  0.1158
  181MOL0     N24350   9.758   4.485   5.404 -0.1029  0.4393  0.8250
  181MOL0     N24351   9.764   4.600   5.341  0.1124 -0.8121  0.6411
  181MOL0     C24352   8.971   4.994   4.508 -0.5528  0.2885 -0.4666
  181MOL0     C24353   8.855   5.049   4.464  0.2198 -0.6878 -0.1642
  181MOL0     C24354   8.442   5.170   4.354  0.8043 -0.8887  0.5204
  181MOL0     C24355   8.427   5.297   4.283 -0.9634  0.0247 -0.8059
  181MOL0     C24356   8.308   5.365   4.281  0.1529 -0.1799  0.4920
  181MOL0     C24357   8.195   5.305   4.338  0.4021  1.1612 -0.2377
  181MOL0     O24358   8.069   5.353   4.321  0.0154  0.1365  0.3524
  181MOL0     C24359   8.044   5.468   4.400 -0.3202 -0.4945 -0.2163
  181MOL0     C24360   7.893   5.477   4.417 -0.3011  0.0288 -0.1658
  181MOL0     C24361   7.822   5.473   4.280  0.2876 -0.0850 -0.7420
  181MOL0     C24362   7.676   5.528   4.295  0.1779  0.1544 -0.1014
  181MOL0     C24363   7.584   5.458   4.390 -0.8272  0.9660 -0.1158
  181MOL0     C24364   7.512   5.395   4.461 -0.0280  0.6737  0.2238
  181MOL0     C24365   8.204   5.186   4.406  0.5973 -0.6251 -0.2226
  181MOL0     C24366   8.323   5.118   4.415 -1.0669 -0.5932  0.3587
  181MOL0     C24367   8.326   4.987   4.489 -0.4589 -0.1478  0.1972
  181MOL0     H24368   8.643   4.853   4.649  2.2832 -2.0667  3.6978
  181MOL0     H24369   8.854   4.763   4.717  2.7980  0.3139  0.3313
  181MOL0     H24370   9.251   4.850   4.542  0.4586 -0.5358  0.6893
  181MOL0     H24371   9.214   4.999   4.617  0.0706 -0.2305 -4.2322
  181MOL0     H24372   9.411   4.918   4.725  0.3318 -0.2000 -1.7682
  181MOL0     H24373   9.354   4.750   4.742 -3.3252 -1.2447  1.9605
  181MOL0     H24374   9.183   4.823   4.911  1.0305 -0.5053 -0.7390
  181MOL0     H24375   9.231   4.992   4.884 -1.5312 -0.4283  0.3378
  181MOL0     H24376   9.408   4.765   4.961 -3.1336 -0.8050 -1.0732
  181MOL0     H24377   9.444   4.940   4.990 -0.7444  1.6912  0.0158
  181MOL0     H24378   9.279   4.940   5.177  0.6093  1.2212 -1.2879
  181MOL0     H24379   9.203   4.797   5.123 -0.9306  2.2547  1.4571
  181MOL0     H24380   9.348   4.730   5.325 -0.1251 -0.9184  0.4992
  181MOL0     H24381   9.409   4.651   5.186 -4.3033 -1.2995  1.3249
  181MOL0     H24382   9.497   4.933   5.242 -1.5305 -0.5544 -0.8383
  181MOL0     H24383   9.586   4.818   5.147 -1.3176  2.6243 -1.2586
  181MOL0     H24384   9.694   4.847   5.350 -2.2935  3.3250 -0.2372
  181MOL0     H24385   9.547   4.815   5.450 -0.5624 -1.8022  0.0356
  181MOL0     H24386   9.455   4.587   5.467  1.2579 -0.6606  1.1814
  181MOL0     H24387   9.484   4.311   5.516 -0.1818  0.7096  0.2781
  181MOL0     H24388   9.648   4.249   5.472  0.5163 -0.6658  0.1662
  181MOL0     H24389   9.708   4.406   5.690 -1.2800  0.6455 -1.7219
  181MOL0     H24390   9.547   4.364   5.724 -1.3009 -2.6397 -0.5126
  181MOL0     H24391   9.626   4.116   5.643  1.1015  0.7531 -0.8617
  181MOL0     H24392   9.626   4.164   5.807 -2.9885 -4.6292 -2.2134
  181MOL0     H24393   9.845   4.070   5.757 -2.0939 -0.8820 -0.7319
  181MOL0     H24394   9.872   4.238   5.780 -1.4993  1.0316  0.1317
  181MOL0     H24395  10.088   4.073   5.757  0.0352  1.0013  0.3936
  181MOL0     H24396  10.311   4.082   5.716 -0.0840 -2.9586 -1.0684
  181MOL0     H24397  10.678   3.979   5.697  0.3357  2.4062  3.0544
  181MOL0     H24398  10.926   3.955   5.682 -0.6555  1.0410  2.7843
  181MOL0     H24399  11.148   4.072   5.757  0.5048  1.5995 -0.4378
  181MOL0     H24400  11.122   3.940   5.635  1.4932 -1.0147 -0.4225
  181MOL0     H24401  11.319   4.148   5.604 -2.3838  0.4576 -1.8031
  181MOL0     H24402  11.347   4.033   5.734  0.5332  2.7469  0.2742
  181MOL0     H24403  11.477   3.965   5.525 -0.3585  0.7539 -3.0413
  181MOL0     H24404  11.359   3.845   5.573  3.5129 -1.1625 -0.8991
  181MOL0     H24405  11.338   4.064   5.367  1.0591 -0.6763 -0.1226
  181MOL0     H24406  11.218   3.929   5.379 -1.3303  3.1092 -1.2814
  181MOL0     H24407  11.391   3.774   5.307  1.7339 -0.9044 -1.8423
  181MOL0     H24408  11.525   3.901   5.319  0.8146 -1.8281 -1.4911
  181MOL0     H24409  11.306   3.940   5.127  0.2476  0.0243 -1.8781
  181MOL0     H24410  11.460   4.032   5.179  2.2684 -1.3490  1.6769
  181MOL0     H24411  11.591   3.826   5.090 -0.4829 -1.3956  1.5003
  181MOL0     H24412  11.504   3.923   4.971 -2.2834  0.0034  0.3108
  181MOL0     H24413  11.517   3.660   4.956  1.0311  0.4454  0.4313
  181MOL0     H24414  11.439   3.643   5.111  1.2288  0.3758 -0.2795
  181MOL0     H24415  10.938   4.311   5.446 -1.0219 -0.4225 -0.4837
  181MOL0     H24416  10.701   4.320   5.443  2.4232  2.4089 -0.9007
  181MOL0     H24417  10.255   4.262   5.326 -0.0753  0.0388  0.2765
  181MOL0     H24418   9.986   4.272   5.394 -0.8754  3.7998  5.3094
  181MOL0     H24419   9.060   5.037   4.463 -0.8805 -0.7685 -2.2372
  181MOL0     H24420   8.871   5.131   4.395  1.4928  0.0787  0.9829
  181MOL0     H24421   8.516   5.334   4.233 -0.0418  0.6766  1.2134
  181MOL0     H24422   8.291   5.456   4.224 -3.5684 -2.5533 -2.7643
  181MOL0     H24423   8.066   5.563   4.351 -1.9627 -0.9773 -2.0338
  181MOL0     H24424   8.089   5.459   4.499 -0.9852  1.3389  0.3074
  181MOL0     H24425   7.863   5.569   4.468 -1.7070  1.6907 -3.6299
  181MOL0     H24426   7.864   5.389   4.475  0.1185 -0.8059 -1.1985
  181MOL0     H24427   7.822   5.369   4.244 -0.9588  0.5525 -2.7362
  181MOL0     H24428   7.873   5.541   4.212 -1.2087  4.3949  2.2147
  181MOL0     H24429   7.669   5.635   4.313 -2.4596  0.1188 -0.5874
  181MOL0     H24430   7.636   5.518   4.194 -1.4486  1.0362  0.4247
  181MOL0     H24431   7.446   5.332   4.517  0.6089 -0.0342  0.2029
  181MOL0     H24432   8.110   5.146   4.443  2.2950 -1.6490  3.4467
  181MOL0     H24433   8.224   4.956   4.512 -1.1650 -0.8523 -3.2597
  181MOL0     H24434   8.369   4.912   4.421  1.5535  0.9688  0.1523
  181MOL0     H24435   8.395   4.998   4.573  1.1853  2.4590 -1.3643
  182MOL0     O24436   0.956   0.222   5.684  0.7419 -0.4715 -1.1156
  182MOL0     C24437   0.892   0.143   5.748 -0.4103  0.8090 -0.7389
  182MOL0     O24438   0.945   0.020   5.803 -0.4156  0.0180 -0.1864
  182MOL0     C24439   1.073  -0.013   5.762  0.2033  0.3534 -0.9242
  182MOL0     C24440   1.180   0.065   5.810 -0.1617  0.5694 -0.3623
  182MOL0     C24441   1.310   0.035   5.769 -0.6916  0.3702  0.7119
  182MOL0     C24442   1.330  -0.062   5.670 -0.3236  0.0317  0.3271
  182MOL0     O24443   1.456  -0.092   5.621  0.2069 -0.4900  0.3970
  182MOL0     C24444   1.565   0.001   5.659  0.8217 -0.2804 -0.0541
  182MOL0     C24445   1.694  -0.023   5.579 -0.5164 -0.1816  0.5824
  182MOL0     C24446   1.812   0.060   5.630  0.3343 -0.7066  1.2536
  182MOL0     C24447   1.914   0.049   5.525 -0.2469 -0.3296  1.2010
  182MOL0     C24448   2.046   0.113   5.579 -0.5168  0.4088  0.7948
  182MOL0     C24449   2.159   0.111   5.470  0.2448 -0.2559 -0.1711
  182MOL0     C24450   2.297   0.134   5.541  0.2236 -1.1461  0.0245
  182MOL0     C24451   2.398   0.124   5.430  0.8010 -0.4744 -0.4097
  182MOL0     N24452   2.535   0.132   5.471 -1.1160 -0.3704  0.3399
  182MOL0     C24453   2.601   0.037   5.537  1.1847 -0.2322 -0.7936
  182MOL0     C24454   2.724   0.079   5.558 -0.1716  0.2619  0.1275
  182MOL0     C24455   2.826   0.018   5.651  0.3096  0.3470 -0.5173
  182MOL0     C24456   2.853  -0.120   5.596 -0.0481 -0.4433  0.2923
  182MOL0     C24457   2.979  -0.177   5.656 -0.1166 -0.4711  0.1123
  182MOL0     C24458   3.097  -0.167   5.569  0.3935  0.4181  0.9315
  182MOL0     O24459   3.190  -0.248   5.636 -0.0170  0.1386 -0.6062
  182MOL0     C24460   3.320  -0.242   5.586 -0.2007  0.0780 -0.6210
  182MOL0     C24461   3.422  -0.283   5.678  0.1220  1.2848  0.7244
  182MOL0     C24462   3.555  -0.292   5.635  0.1241  0.0229 -0.3866
  182MOL0     C24463   3.590  -0.256   5.502  0.4508 -0.8480  0.3249
  182MOL0     C24464   3.740  -0.252   5.464 -0.0945 -0.2061  0.1709
  182MOL0     O24465   3.815  -0.340   5.532 -0.3248  0.1343  0.3296
  182MOL0     C24466   3.952  -0.326   5.509  0.0062 -0.1977  0.2307
  182MOL0     C24467   4.026  -0.419   5.441  0.2868  0.8284  0.8891
  182MOL0     C24468   4.158  -0.401   5.402  0.3290 -0.2497 -0.1036
  182MOL0     C24469   4.231  -0.289   5.451 -0.5782 -0.0970 -0.3071
  182MOL0     O24470   4.358  -0.253   5.415  0.1335 -0.1138  0.0152
  182MOL0     C24471   4.399  -0.302   5.285  0.0680  0.0518  0.2330
  182MOL0     C24472   4.539  -0.257   5.261 -0.1896  0.8089 -0.2211
  182MOL0     C24473   4.575  -0.296   5.120 -0.7760 -0.5820 -0.7675
  182MOL0     C24474   4.721  -0.244   5.075 -0.1209  0.1206  0.1944
  182MOL0     C24475   4.848  -0.323   5.130  0.7241 -0.3157 -0.2117
  182MOL0     C24476   4.896  -0.423   5.026 -0.3941  0.3325 -1.0567
  182MOL0     C24477   5.011  -0.510   5.089  0.0874  0.1410  0.2601
  182MOL0     C24478   5.075  -0.616   4.998 -1.0302  0.1814  0.0051
  182MOL0    Cl24479   4.964  -0.750   4.956 -0.2029 -0.3275  0.2622
  182MOL0     C24480   4.160  -0.199   5.527  0.5502  0.7300  0.1278
  182MOL0     C24481   4.028  -0.215   5.549 -0.1829  0.4029 -0.4362
  182MOL0     O24482   3.777  -0.184   5.370  0.4370 -0.0570 -0.6360
  182MOL0     C24483   3.493  -0.214   5.415 -0.0118  0.3639  0.5083
  182MOL0     C24484   3.360  -0.213   5.459 -0.1724 -0.0764 -0.1563
  182MOL0     N24485   2.734   0.212   5.512  0.1571 -0.2795  0.6074
  182MOL0     N24486   2.620   0.245   5.461  0.5958  0.8538  0.6809
  182MOL0     C24487   1.225  -0.140   5.622 -0.2256  0.1856 -0.2020
  182MOL0     C24488   1.100  -0.117   5.669  0.6691 -0.1342  0.5291
  182MOL0     C24489   0.745   0.172   5.773 -0.1622 -0.3449  0.5743
  182MOL0     C24490   0.675   0.085   5.862 -0.8269 -0.3447  0.0295
  182MOL0     C24491   0.546   0.111   5.900  0.9610 -0.1583  0.4361
  182MOL0     C24492   0.476   0.216   5.847  0.0219 -0.0059 -0.0117
  182MOL0     O24493   0.355   0.258   5.895  0.1727 -0.9882 -0.3340
  182MOL0     C24494   0.261   0.162   5.934 -0.4354 -0.3490 -0.9161
  182MOL0     C24495   0.125   0.216   5.907 -0.3217  0.4735  0.3893
  182MOL0     C24496   0.021   0.144   5.983  0.7386  0.4077 -0.1715
  182MOL0     C24497  -0.114   0.146   5.912 -0.1169 -0.3728  0.3153
  182MOL0     C24498  -0.128   0.039   5.811  0.5024 -1.0585 -0.0334
  182MOL0     C24499  -0.143  -0.047   5.732  0.3249  0.5248  0.1160
  182MOL0     C24500   0.544   0.304   5.754  0.4111  0.2929 -0.7808
  182MOL0     C24501   0.674   0.285   5.719 -1.0677  0.7520 -0.6844
  182MOL0     C24502   0.725   0.367   5.605 -0.1574 -0.5291  0.0549
  182MOL0     H24503   1.170   0.147   5.881  3.1195  0.4147  0.4406
  182MOL0     H24504   1.395   0.090   5.807  0.0348  0.8315 -1.4904
  182MOL0     H24505   1.536   0.103   5.633 -4.1737 -0.9059  1.9463
  182MOL0     H24506   1.567   0.007   5.768 -2.6836  2.3244  0.0404
  182MOL0     H24507   1.659   0.009   5.480 -2.7345  2.2597  2.0310
  182MOL0     H24508   1.711  -0.131   5.588  0.7523 -0.0046  0.5587
  182MOL0     H24509   1.858   0.012   5.716  3.1894  3.7884  2.6212
  182MOL0     H24510   1.791   0.166   5.648  0.9895 -0.7362  2.2570
  182MOL0     H24511   1.943  -0.051   5.490  0.9797  0.0482  1.0915
  182MOL0     H24512   1.888   0.108   5.437 -0.0763 -0.6907  0.9010
  182MOL0     H24513   2.022   0.211   5.622 -1.6490 -0.8584  3.2333
  182MOL0     H24514   2.087   0.051   5.659  2.0514  0.3129 -0.4815
  182MOL0     H24515   2.163   0.016   5.415  2.2937 -0.3560  0.0842
  182MOL0     H24516   2.146   0.188   5.394  2.3727 -0.3241 -0.6593
  182MOL0     H24517   2.317   0.058   5.617  0.1027 -0.6004  0.6149
  182MOL0     H24518   2.297   0.238   5.574 -0.7082 -0.2088 -2.6905
  182MOL0     H24519   2.389   0.032   5.373 -4.2187 -0.2788 -0.4047
  182MOL0     H24520   2.376   0.207   5.363  0.9412 -0.0586  0.0484
  182MOL0     H24521   2.557  -0.059   5.562  1.1559  0.5125  2.3836
  182MOL0     H24522   2.919   0.076   5.659  0.4204  0.2044 -0.7655
  182MOL0     H24523   2.772   0.017   5.746 -0.9491  0.7393 -1.2043
  182MOL0     H24524   2.766  -0.176   5.631  0.4986 -1.2079  0.4496
  182MOL0     H24525   2.857  -0.128   5.487 -1.2089 -0.5267  0.2441
  182MOL0     H24526   2.949  -0.278   5.684 -2.0755  0.8368  3.1815
  182MOL0     H24527   3.000  -0.124   5.749  1.3751 -0.6180 -0.1119
  182MOL0     H24528   3.123  -0.062   5.555 -0.6403  1.0130  2.9577
  182MOL0     H24529   3.069  -0.205   5.470 -0.5442  1.9810  0.5601
  182MOL0     H24530   3.393  -0.292   5.782 -2.1160  2.9696  0.3395
  182MOL0     H24531   3.639  -0.311   5.702  0.8216  0.9784 -0.9654
  182MOL0     H24532   3.987  -0.518   5.420  1.0697  0.8281 -0.6654
  182MOL0     H24533   4.209  -0.480   5.349  0.3733 -0.4903  0.2880
  182MOL0     H24534   4.399  -0.410   5.269  3.3802  0.4415 -4.4773
  182MOL0     H24535   4.324  -0.265   5.213 -1.1905 -1.3249  0.7796
  182MOL0     H24536   4.545  -0.149   5.271  0.4955  0.8018 -0.5225
  182MOL0     H24537   4.619  -0.298   5.324  0.5776  1.3147 -0.8493
  182MOL0     H24538   4.564  -0.405   5.113 -1.4378 -0.5415 -0.3711
  182MOL0     H24539   4.505  -0.247   5.052 -1.9421 -2.3305 -0.9071
  182MOL0     H24540   4.705  -0.139   5.100 -3.1975 -0.4983  1.3316
  182MOL0     H24541   4.727  -0.227   4.967  1.7890  3.7970  0.7146
  182MOL0     H24542   4.810  -0.377   5.217  0.4781 -0.9443 -0.6988
  182MOL0     H24543   4.925  -0.254   5.165  1.0042 -0.9521  0.4363
  182MOL0     H24544   4.813  -0.482   4.988 -1.3724  1.2857 -0.4672
  182MOL0     H24545   4.946  -0.365   4.948 -0.9580 -0.1124 -1.7518
  182MOL0     H24546   4.983  -0.559   5.182 -3.0255 -0.8402 -1.0709
  182MOL0     H24547   5.089  -0.435   5.105  1.5763 -0.4732 -3.2031
  182MOL0     H24548   5.106  -0.563   4.907  2.0274  1.7021  1.7776
  182MOL0     H24549   5.168  -0.651   5.044 -1.3279  0.6499  0.9860
  182MOL0     H24550   4.210  -0.113   5.570  1.8483 -0.7454  1.7354
  182MOL0     H24551   3.975  -0.136   5.600 -0.7720  0.1274 -0.6197
  182MOL0     H24552   3.513  -0.189   5.311 -1.8669  0.2021  0.0896
  182MOL0     H24553   3.279  -0.185   5.393  0.8496  1.6245 -0.7436
  182MOL0     H24554   1.240  -0.226   5.557  1.2531  0.3724 -0.1352
  182MOL0     H24555   1.014  -0.164   5.622 -0.2178  1.7388  0.2048
  182MOL0     H24556   0.723   0.005   5.917 -2.3276 -0.0799  1.7908
  182MOL0     H24557   0.507   0.046   5.977 -0.1135  1.1364  1.0093
  182MOL0     H24558   0.269   0.125   6.037 -0.3676  0.1091 -0.7528
  182MOL0     H24559   0.278   0.071   5.875  0.2608 -0.5164 -0.4729
  182MOL0     H24560   0.108   0.197   5.801  1.2642 -1.8300  0.4612
  182MOL0     H24561   0.126   0.323   5.932 -1.4124  0.0627  2.4149
  182MOL0     H24562   0.016   0.189   6.083  1.4647  0.3648 -0.1107
  182MOL0     H24563   0.048   0.040   6.004 -2.6979 -0.3182  1.2009
  182MOL0     H24564  -0.187   0.131   5.992 -0.7413  0.8197 -0.0012
  182MOL0     H24565  -0.143   0.242   5.867 -1.5922 -0.0675  1.8340
  182MOL0     H24566  -0.159  -0.123   5.658 -0.8747  0.9170 -0.0460
  182MOL0     H24567   0.480   0.385   5.720 -1.2021  0.6015  2.5757
  182MOL0     H24568   0.652   0.437   5.564 -1.4112 -2.6541 -1.5278
  182MOL0     H24569   0.820   0.418   5.626  0.2138 -1.6114  1.1073
  182MOL0     H24570   0.748   0.291   5.530 -0.4291 -0.8777  0.3257
  183MOL0     O24571   3.010   5.680   0.411  0.2328 -0.0841  0.0427
  183MOL0     C24572   3.092   5.612   0.353 -0.7924  0.1213 -0.0795
  183MOL0     O24573   3.109   5.471   0.347  0.1439  0.2789  0.1113
  183MOL0     C24574   3.006   5.392   0.393 -0.4816  0.5063  0.1208
  183MOL0     C24575   2.973   5.272   0.320 -0.7077  0.6701 -0.5175
  183MOL0     C24576   2.891   5.178   0.382  0.0556  0.8127  0.1149
  183MOL0     C24577   2.830   5.201   0.506  1.1158  0.1198 -0.6069
  183MOL0     O24578   2.740   5.127   0.576  0.3491 -0.2756 -0.8918
  183MOL0     C24579   2.729   4.993   0.539  0.4606  0.3452 -0.0797
  183MOL0     C24580   2.643   4.921   0.655 -0.2302 -0.1495 -0.6895
  183MOL0     C24581   2.626   4.776   0.624  0.5198  1.2389  0.7579
  183MOL0     C24582   2.515   4.719   0.707  0.5419  0.7856  0.1499
  183MOL0     C24583   2.530   4.566   0.689  0.2150 -0.0937 -0.6724
  183MOL0     C24584   2.424   4.493   0.767  0.2624  0.1625  0.4200
  183MOL0     C24585   2.461   4.348   0.764  0.6072 -0.2880  0.5795
  183MOL0     C24586   2.337   4.258   0.796 -0.7941  0.5708 -0.3432
  183MOL0     N24587   2.370   4.112   0.808 -1.2531 -0.4218 -1.0910
  183MOL0     C24588   2.449   4.050   0.713 -0.4302  1.1408 -0.0104
  183MOL0     C24589   2.416   3.921   0.737 -0.7755  0.4427  0.1996
  183MOL0     C24590   2.477   3.799   0.670 -0.4090  0.1989  0.2032
  183MOL0     C24591   2.625   3.778   0.716  0.4532 -0.3917  0.5013
  183MOL0     C24592   2.658   3.621   0.705  0.6841 -0.0806  0.1964
  183MOL0     C24593   2.747   3.576   0.818  0.2835 -0.7447  0.2058
  183MOL0     O24594   2.676   3.592   0.942 -0.8547 -0.3299  1.0483
  183MOL0     C24595   2.746   3.573   1.061 -0.3148  0.4507  0.4380
  183MOL0     C24596   2.855   3.487   1.078 -0.2083 -0.4466 -0.1383
  183MOL0     C24597   2.932   3.498   1.193 -0.2755 -0.8448  0.4562
  183MOL0     C24598   2.897   3.570   1.307  0.4817  0.4945 -0.1260
  183MOL0     C24599   2.990   3.577   1.417  0.3893  0.2562 -0.4097
  183MOL0     O24600   3.090   3.491   1.423 -0.5756  0.9686  0.5814
  183MOL0     C24601   3.196   3.490   1.502 -0.7722 -0.3216  0.5384
  183MOL0     C24602   3.257   3.369   1.493 -0.1375 -0.0065  0.1787
  183MOL0     C24603   3.374   3.345   1.562  1.1246 -0.5589  1.0282
  183MOL0     C24604   3.438   3.452   1.634 -0.5061  0.7457 -0.0188
  183MOL0     O24605   3.557   3.419   1.696  0.3698 -0.2691 -0.7705
  183MOL0     C24606   3.626   3.525   1.769 -0.2025 -0.1730  0.5602
  183MOL0     C24607   3.758   3.459   1.814 -0.5827 -0.5578 -0.2036
  183MOL0     C24608   3.802   3.529   1.936 -0.1342 -0.2040  0.1764
  183MOL0     C24609   3.941   3.457   1.964 -0.0289 -0.1445 -0.1126
  183MOL0     C24610   3.982   3.463   2.113 -0.1529 -0.6801 -1.4323
  183MOL0     C24611   4.117   3.390   2.120 -0.0602  0.1102 -0.0978
  183MOL0     C24612   4.184   3.412   2.258 -0.8092  0.2064  0.5929
  183MOL0     C24613   4.287   3.301   2.280  0.4364 -0.0521  0.0147
  183MOL0    Cl24614   4.414   3.306   2.152  0.0603 -0.1865  0.1739
  183MOL0     C24615   3.379   3.573   1.637  0.1287 -0.6074  0.9278
  183MOL0     C24616   3.252   3.599   1.572  0.5108  0.5514  0.0702
  183MOL0     O24617   2.959   3.650   1.511 -0.6780  0.4396 -0.3012
  183MOL0     C24618   2.784   3.654   1.294 -0.1849 -0.2484  0.7609
  183MOL0     C24619   2.716   3.654   1.173 -0.1115 -0.6303  0.6029
  183MOL0     N24620   2.337   3.914   0.845  0.0916 -0.4423 -0.2885
  183MOL0     N24621   2.315   4.029   0.891 -0.4409  0.1561  0.3957
  183MOL0     C24622   2.877   5.311   0.580 -0.0301 -1.1710  0.0127
  183MOL0     C24623   2.960   5.411   0.518  0.8085  0.2106 -0.3386
  183MOL0     C24624   3.209   5.681   0.294  0.1772  0.4984  0.3486
  183MOL0     C24625   3.339   5.626   0.309 -0.1497 -0.4223  0.0766
  183MOL0     C24626   3.457   5.702   0.266  0.3992 -0.7077 -0.8769
  183MOL0     C24627   3.444   5.828   0.202 -0.0400  0.6020 -0.1078
  183MOL0     O24628   3.548   5.904   0.180 -0.3688 -0.1143 -0.2361
  183MOL0     C24629   3.679   5.848   0.169  0.1334  0.0031  0.0628
  183MOL0     C24630   3.775   5.945   0.116 -0.2637 -0.6140 -0.9291
  183MOL0     C24631   3.912   5.894   0.145 -0.5237  0.6566 -0.3178
  183MOL0     C24632   4.032   5.952   0.070 -0.2706  0.0338  0.4053
  183MOL0     C24633   4.080   6.084   0.113  0.1107  0.2473  0.2240
  183MOL0     C24634   4.121   6.185   0.154 -0.4763 -0.7441  0.2402
  183MOL0     C24635   3.322   5.876   0.190 -0.4590 -0.3672 -0.3608
  183MOL0     C24636   3.207   5.809   0.227  0.4430 -0.6883 -0.4688
  183MOL0     C24637   3.085   5.888   0.215 -0.0994 -0.6335 -0.5932
  183MOL0     H24638   3.030   5.264   0.228  1.4629  0.9765  0.7148
  183MOL0     H24639   2.868   5.084   0.335  0.9732  0.1656  0.9120
  183MOL0     H24640   2.681   4.972   0.444  2.2162  0.6419 -1.0729
  183MOL0     H24641   2.829   4.951   0.526  0.5771  0.1659  1.2103
  183MOL0     H24642   2.552   4.981   0.662  0.5450  1.3842 -2.7268
  183MOL0     H24643   2.702   4.925   0.748 -0.9816 -1.5149 -0.1261
  183MOL0     H24644   2.716   4.718   0.645  0.0662  0.3528  0.2894
  183MOL0     H24645   2.596   4.767   0.519  1.0199  2.7669  0.4475
  183MOL0     H24646   2.538   4.753   0.808  1.6937  0.9156 -0.1428
  183MOL0     H24647   2.415   4.753   0.676 -0.1831 -1.3967 -0.0972
  183MOL0     H24648   2.520   4.551   0.581  0.2743  0.6514 -0.7891
  183MOL0     H24649   2.631   4.544   0.725  1.6549  1.9734 -3.1357
  183MOL0     H24650   2.408   4.534   0.867 -1.0726 -4.0197  2.1714
  183MOL0     H24651   2.329   4.506   0.714  0.4122  0.4305  0.2161
  183MOL0     H24652   2.540   4.312   0.830  0.6825 -1.1690  0.0266
  183MOL0     H24653   2.499   4.327   0.663  2.0409  2.4183  0.4420
  183MOL0     H24654   2.279   4.295   0.881 -0.4157  0.0120  0.1653
  183MOL0     H24655   2.276   4.266   0.706 -2.2450 -1.6817  0.3447
  183MOL0     H24656   2.515   4.105   0.647  0.3846 -0.7774 -0.8453
  183MOL0     H24657   2.418   3.711   0.697  0.7187 -0.5194  0.3673
  183MOL0     H24658   2.473   3.805   0.561 -1.7408  1.7909  0.2977
  183MOL0     H24659   2.684   3.823   0.636  0.3061 -1.9589 -0.5501
  183MOL0     H24660   2.640   3.824   0.814  0.4089 -1.5936  1.1035
  183MOL0     H24661   2.707   3.607   0.609 -2.0601  0.8153 -1.4466
  183MOL0     H24662   2.569   3.558   0.712  0.6479 -0.3462 -2.0630
  183MOL0     H24663   2.832   3.645   0.825 -2.4684  2.9122  0.3961
  183MOL0     H24664   2.788   3.475   0.806  3.7622  0.4781  0.6186
  183MOL0     H24665   2.895   3.443   0.988 -0.4511  0.0518 -0.4957
  183MOL0     H24666   3.026   3.444   1.195 -1.1476 -2.3816  1.8177
  183MOL0     H24667   3.212   3.289   1.436  0.3957  0.5946 -1.1133
  183MOL0     H24668   3.400   3.240   1.564 -1.1648 -1.8107 -5.7523
  183MOL0     H24669   3.644   3.604   1.696 -0.3018  0.4496  1.1922
  183MOL0     H24670   3.573   3.551   1.861  1.3933  1.0928  1.1650
  183MOL0     H24671   3.748   3.351   1.830 -1.0741 -0.6072 -0.8041
  183MOL0     H24672   3.829   3.474   1.732  1.1784 -2.2695  0.9370
  183MOL0     H24673   3.802   3.638   1.938 -1.6140 -0.0987 -2.0104
  183MOL0     H24674   3.737   3.514   2.024  0.5167  2.9071  1.2973
  183MOL0     H24675   4.027   3.490   1.905 -1.5387  0.0920 -2.2884
  183MOL0     H24676   3.932   3.353   1.932  1.1296  0.2149 -1.7495
  183MOL0     H24677   3.901   3.433   2.178 -1.8949  1.6383 -2.3917
  183MOL0     H24678   3.997   3.568   2.139 -5.4669 -0.4928  2.1543
  183MOL0     H24679   4.101   3.283   2.104 -1.4305  0.4846 -1.5792
  183MOL0     H24680   4.181   3.435   2.044  0.0938  3.0637  1.6038
  183MOL0     H24681   4.121   3.429   2.345 -1.5050 -0.9814  0.3465
  183MOL0     H24682   4.234   3.507   2.239  0.7526 -0.2952  1.9665
  183MOL0     H24683   4.324   3.308   2.383 -1.5686 -1.4861  0.8955
  183MOL0     H24684   4.240   3.203   2.275  2.1264 -0.8348 -2.3863
  183MOL0     H24685   3.415   3.640   1.714  1.6696 -0.3973  0.0493
  183MOL0     H24686   3.197   3.690   1.593 -0.6928 -0.2874  0.6690
  183MOL0     H24687   2.761   3.727   1.370 -2.7712 -0.4709  0.2728
  183MOL0     H24688   2.624   3.711   1.163  0.9761  0.9112 -1.6479
  183MOL0     H24689   2.839   5.332   0.679  2.8938  0.3979  0.9289
  183MOL0     H24690   2.988   5.499   0.575 -0.5148  1.4032 -1.4555
  183MOL0     H24691   3.354   5.529   0.357 -2.5079 -1.2889 -0.7893
  183MOL0     H24692   3.554   5.655   0.276  0.9551  0.2427 -1.5808
  183MOL0     H24693   3.682   5.751   0.118 -2.9710  0.9653 -2.2376
  183MOL0     H24694   3.716   5.841   0.272  1.6563 -0.4129 -0.4849
  183MOL0     H24695   3.778   6.031   0.184 -0.8494 -1.2856 -0.0424
  183MOL0     H24696   3.758   5.976   0.012 -2.5481  0.8471 -0.1940
  183MOL0     H24697   3.907   5.787   0.124 -1.6473  0.5556  0.3554
  183MOL0     H24698   3.932   5.899   0.252 -3.5723 -0.4271  0.4039
  183MOL0     H24699   4.112   5.878   0.069  0.2718  0.5575 -1.9732
  183MOL0     H24700   4.016   5.959  -0.038  1.7597 -2.1079 -0.0954
  183MOL0     H24701   4.161   6.279   0.186 -0.4781 -0.8161  0.4552
  183MOL0     H24702   3.309   5.977   0.154 -1.1510  0.3071  1.6773
  183MOL0     H24703   3.106   5.988   0.178 -0.8217 -0.5908 -0.9204
  183MOL0     H24704   3.012   5.831   0.156 -0.1735 -0.8595 -0.2864
  183MOL0     H24705   3.040   5.906   0.313 -0.4301  0.4694 -0.9365
  184MOL0     O24706   9.446   8.757   1.235 -0.2460 -0.4951 -0.2849
  184MOL0     C24707   9.328   8.724   1.214  0.7725  0.5978  0.2375
  184MOL0     O24708   9.285   8.594   1.218 -1.1193  0.1911 -0.0358
  184MOL0     C24709   9.388   8.495   1.230  0.1863  0.0261 -0.1741
  184MOL0     C24710   9.458   8.461   1.119  0.0997  0.6497  0.0824
  184MOL0     C24711   9.563   8.363   1.134  0.9502  0.4114 -0.4708
  184MOL0     C24712   9.580   8.282   1.245  0.1170 -0.0851 -0.6941
  184MOL0     O24713   9.659   8.169   1.249  0.1032 -0.2187 -0.1399
  184MOL0     C24714   9.803   8.177   1.265 -0.1174  0.1209 -0.5135
  184MOL0     C24715   9.838   8.242   1.402 -0.2464  0.5793  0.6314
  184MOL0     C24716   9.802   8.141   1.522  0.3884  0.4177 -0.2841
  184MOL0     C24717   9.830   8.206   1.651  0.0731  0.6017 -0.1069
  184MOL0     C24718   9.849   8.119   1.769  0.3438  0.0837 -0.8267
  184MOL0     C24719   9.883   8.188   1.910 -0.3063  0.5936  0.6828
  184MOL0     C24720   9.909   8.087   2.025  0.1652  0.2451  0.2883
  184MOL0     C24721   9.865   8.134   2.171  0.0113  0.2300  0.2607
  184MOL0     N24722   9.914   8.281   2.192 -0.8736  0.1307  0.2858
  184MOL0     C24723  10.033   8.320   2.242  0.2370  0.7303 -0.5725
  184MOL0     C24724  10.031   8.450   2.252 -0.3962 -0.5000 -0.7058
  184MOL0     C24725  10.141   8.534   2.309 -0.1609  0.5690  0.1695
  184MOL0     C24726  10.184   8.653   2.204  0.4036 -0.6384 -0.3588
  184MOL0     C24727  10.291   8.760   2.250 -0.3130 -0.1533 -0.2460
  184MOL0     C24728  10.435   8.716   2.290  0.3056 -0.3224  0.4569
  184MOL0     O24729  10.536   8.822   2.291  0.1022 -0.8428 -0.1771
  184MOL0     C24730  10.663   8.782   2.318 -0.2749  0.3672  0.4234
  184MOL0     C24731  10.711   8.649   2.319  0.1168  0.8738 -0.3073
  184MOL0     C24732  10.845   8.622   2.342  0.1144  0.2580 -0.0049
  184MOL0     C24733  10.929   8.736   2.348  0.1641 -0.0733 -0.9072
  184MOL0     C24734  11.075   8.702   2.370 -0.1322  0.6743 -0.0352
  184MOL0     O24735  11.155   8.805   2.352 -0.0554  0.8291  0.0808
  184MOL0     C24736  11.293   8.797   2.376 -0.4012 -0.0446 -0.3030
  184MOL0     C24737  11.365   8.921   2.372 -0.6339 -1.0638  0.4389
  184MOL0     C24738  11.511   8.929   2.396  0.3669 -0.0062  0.7106
  184MOL0     C24739  11.583   8.804   2.416 -0.9126  0.1968  0.8467
  184MOL0     O24740  11.710   8.794   2.451 -0.3173 -0.0694 -0.4970
  184MOL0     C24741  11.796   8.864   2.354 -0.9550  1.1074 -0.6907
  184MOL0     C24742  11.936   8.802   2.351 -0.1831  0.5445  0.1196
  184MOL0     C24743  11.924   8.660   2.325  1.4517 -0.0805  0.0292
  184MOL0     C24744  12.060   8.574   2.315 -0.3090 -0.2073  0.3140
  184MOL0     C24745  12.029   8.430   2.277 -0.0341 -0.1193 -0.0476
  184MOL0     C24746  11.919   8.370   2.364  0.0584 -0.0057  0.0522
  184MOL0     C24747  11.928   8.219   2.377  0.4346 -0.3994  0.3291
  184MOL0     C24748  11.802   8.168   2.459  0.8842 -0.5011  0.5123
  184MOL0    Cl24749  11.783   8.222   2.630  0.1168  0.1274  0.1277
  184MOL0     C24750  11.508   8.681   2.417 -0.5805  0.1644 -0.9228
  184MOL0     C24751  11.370   8.684   2.409  0.1070  0.4692 -0.0668
  184MOL0     O24752  11.102   8.585   2.403 -0.5204 -0.0184 -0.0362
  184MOL0     C24753  10.886   8.871   2.345 -1.0171  0.1692 -0.7611
  184MOL0     C24754  10.757   8.890   2.327 -0.3240  0.1313 -0.1436
  184MOL0     N24755   9.913   8.495   2.198  0.5734 -0.5898 -0.0440
  184MOL0     N24756   9.838   8.394   2.169  0.4846  0.0143 -0.1949
  184MOL0     C24757   9.503   8.319   1.352  0.6260 -0.0845  0.7353
  184MOL0     C24758   9.409   8.422   1.352 -0.7254 -0.6237  0.1510
  184MOL0     C24759   9.220   8.829   1.189 -0.1383  0.5870  0.4588
  184MOL0     C24760   9.227   8.916   1.074 -0.0206 -0.0875  0.0654
  184MOL0     C24761   9.116   8.989   1.040  0.7691 -0.5403 -0.2364
  184MOL0     C24762   8.998   8.988   1.109 -0.1128 -0.2519 -1.0849
  184MOL0     O24763   8.878   9.050   1.077 -0.3655  0.5628  0.0866
  184MOL0     C24764   8.886   9.184   1.030 -0.0476 -0.0990 -0.1344
  184MOL0     C24765   8.877   9.271   1.154  0.1750 -0.4165  0.6614
  184MOL0     C24766   8.902   9.422   1.123  0.3727  0.4012  0.3468
  184MOL0     C24767   8.914   9.511   1.244 -0.7915 -0.1565 -0.9368
  184MOL0     C24768   9.044   9.576   1.228 -1.1267 -0.1450 -0.6086
  184MOL0     C24769   9.160   9.607   1.204 -0.1857 -0.9847  0.0468
  184MOL0     C24770   8.992   8.905   1.223 -0.6959 -0.1496  0.5219
  184MOL0     C24771   9.097   8.823   1.254 -0.1849  0.5254  0.0970
  184MOL0     C24772   9.067   8.717   1.359  0.3595 -0.3001 -0.7440
  184MOL0     H24773   9.438   8.520   1.030  1.9549 -2.7975 -2.9181
  184MOL0     H24774   9.621   8.343   1.044 -0.4446 -3.2096 -0.7046
  184MOL0     H24775   9.838   8.075   1.250 -0.3147  0.3111 -2.6355
  184MOL0     H24776   9.845   8.241   1.187  0.7894  1.7453  1.2262
  184MOL0     H24777   9.779   8.332   1.418 -3.3929 -1.4369  1.3306
  184MOL0     H24778   9.945   8.261   1.409  0.1313 -1.2342  0.3396
  184MOL0     H24779   9.857   8.047   1.530 -4.6008 -2.9099 -0.5154
  184MOL0     H24780   9.699   8.104   1.523 -0.0732  1.5583  2.0036
  184MOL0     H24781   9.915   8.275   1.644  3.8110 -3.7196 -2.6320
  184MOL0     H24782   9.736   8.260   1.667 -0.3975 -0.2877  0.2295
  184MOL0     H24783   9.755   8.068   1.790  0.1513  0.8911  0.4101
  184MOL0     H24784   9.926   8.045   1.748  1.4198  0.3549  1.7375
  184MOL0     H24785   9.961   8.262   1.889 -0.7355  0.8598  0.0059
  184MOL0     H24786   9.794   8.244   1.940 -0.1575  1.0798  0.2280
  184MOL0     H24787  10.011   8.050   2.011 -0.3269 -0.6581 -1.1797
  184MOL0     H24788   9.852   7.998   1.997  3.5161 -1.8189 -0.5003
  184MOL0     H24789   9.758   8.122   2.190 -0.3504 -1.5184 -2.3707
  184MOL0     H24790   9.916   8.065   2.239 -1.4049 -1.0091  0.1183
  184MOL0     H24791  10.109   8.249   2.272  0.7599  1.1085 -1.0030
  184MOL0     H24792  10.128   8.558   2.415  1.9670  0.2615  0.5452
  184MOL0     H24793  10.217   8.455   2.320 -0.1581 -0.1698 -3.6962
  184MOL0     H24794  10.224   8.610   2.112  0.6486 -3.6392  1.0493
  184MOL0     H24795  10.090   8.700   2.174 -1.0174 -1.5617  2.3336
  184MOL0     H24796  10.257   8.813   2.339  1.0273  0.3351 -0.0114
  184MOL0     H24797  10.300   8.837   2.174  0.2599  2.4573  2.2998
  184MOL0     H24798  10.466   8.641   2.217  2.4494  0.8617  0.0632
  184MOL0     H24799  10.429   8.660   2.383 -3.1078 -0.0901  0.4784
  184MOL0     H24800  10.646   8.563   2.307  2.5116 -0.9678 -1.0806
  184MOL0     H24801  10.877   8.520   2.361 -1.3121  0.3661  3.8743
  184MOL0     H24802  11.316   9.016   2.354  1.0809 -0.1872  0.2395
  184MOL0     H24803  11.560   9.023   2.373  1.7224 -0.2824  2.3054
  184MOL0     H24804  11.756   8.852   2.252  0.4969 -0.9685 -1.0800
  184MOL0     H24805  11.801   8.971   2.375  0.0456  1.4576 -2.4537
  184MOL0     H24806  11.997   8.832   2.266 -2.5718 -3.2757 -3.3034
  184MOL0     H24807  11.981   8.820   2.450 -2.6786 -1.0807  1.6735
  184MOL0     H24808  11.857   8.615   2.399  1.7447 -1.4675 -0.5228
  184MOL0     H24809  11.871   8.640   2.232  0.4353  1.7498  0.1742
  184MOL0     H24810  12.115   8.585   2.409 -2.2533 -0.2434  1.5101
  184MOL0     H24811  12.127   8.614   2.238 -0.9776  1.0947  0.3895
  184MOL0     H24812  12.117   8.367   2.288  1.7076  1.6521 -2.6046
  184MOL0     H24813  11.996   8.433   2.172  0.5726  1.0828 -0.2322
  184MOL0     H24814  11.930   8.410   2.466  2.4446 -2.5593  0.8996
  184MOL0     H24815  11.824   8.397   2.317  0.8474  2.7439 -0.1780
  184MOL0     H24816  12.021   8.191   2.428  0.6984  1.3084  0.8552
  184MOL0     H24817  11.930   8.176   2.277  2.1083 -3.9937  1.7457
  184MOL0     H24818  11.708   8.195   2.410  1.0561  1.2953  1.1126
  184MOL0     H24819  11.799   8.059   2.463 -0.7281 -0.5488 -0.8372
  184MOL0     H24820  11.556   8.587   2.443 -1.7885 -0.6493 -1.5774
  184MOL0     H24821  11.326   8.585   2.405 -0.2871  0.6604 -0.4556
  184MOL0     H24822  10.958   8.952   2.361 -1.5956  0.6694 -0.6607
  184MOL0     H24823  10.716   8.990   2.317  0.5142  0.8518  2.7090
  184MOL0     H24824   9.511   8.265   1.446 -3.4298  0.2708  1.4667
  184MOL0     H24825   9.356   8.471   1.433 -0.4864 -0.4322  0.1931
  184MOL0     H24826   9.319   8.919   1.016 -0.7144 -0.0203 -1.0650
  184MOL0     H24827   9.130   9.049   0.950 -2.1398 -1.0354 -1.1099
  184MOL0     H24828   8.803   9.209   0.963  0.5743  0.3870 -0.7325
  184MOL0     H24829   8.983   9.216   0.990 -0.1866  2.2082  1.1755
  184MOL0     H24830   8.959   9.237   1.217 -2.6470 -2.6054  3.4413
  184MOL0     H24831   8.778   9.265   1.202  0.1986  3.1314  1.4314
  184MOL0     H24832   8.813   9.462   1.074 -1.0843 -0.6026  2.0168
  184MOL0     H24833   8.992   9.430   1.062  1.3457  4.1309  1.9914
  184MOL0     H24834   8.834   9.584   1.256  0.2113  0.8325 -0.1723
  184MOL0     H24835   8.904   9.457   1.338 -0.2736  0.8244 -0.3044
  184MOL0     H24836   9.260   9.624   1.172 -0.1145 -0.7009  0.4172
  184MOL0     H24837   8.895   8.902   1.271 -0.9008  3.6541  0.7050
  184MOL0     H24838   9.163   8.695   1.405  1.7793  0.3023 -3.2518
  184MOL0     H24839   8.991   8.747   1.432  2.3894  2.3735  0.4339
  184MOL0     H24840   9.034   8.620   1.321 -2.1005  1.2131 -2.8919
  185MOL0     O24841   4.508   2.552   9.544 -0.4708 -0.5108  0.3010
  185MOL0     C24842   4.546   2.444   9.502 -0.8147  0.2079  0.3335
  185MOL0     O24843   4.667   2.392   9.529  0.2203  0.3200  0.1231
  185MOL0     C24844   4.758   2.481   9.572 -0.5567 -0.6679  0.0961
  185MOL0     C24845   4.813   2.580   9.481 -0.2209 -0.5808  0.6133
  185MOL0     C24846   4.924   2.657   9.520 -0.2212 -0.4613 -0.5233
  185MOL0     C24847   4.967   2.656   9.656  0.2844  0.1903 -0.3023
  185MOL0     O24848   5.082   2.716   9.698  0.4370 -0.2670 -0.2332
  185MOL0     C24849   5.157   2.795   9.606 -0.1981 -0.6991 -0.7410
  185MOL0     C24850   5.270   2.852   9.704 -0.1759  0.1281 -0.2506
  185MOL0     C24851   5.354   2.751   9.789 -0.2134  0.7909  0.7112
  185MOL0     C24852   5.476   2.813   9.857  0.2230 -0.0222  0.0445
  185MOL0     C24853   5.531   2.728   9.976  0.2383  0.5747  0.2044
  185MOL0     C24854   5.664   2.776  10.036 -0.0438  0.1542  0.4655
  185MOL0     C24855   5.661   2.917  10.092  0.2291  0.3197 -0.0761
  185MOL0     C24856   5.721   3.025  10.000  0.7080 -0.5600 -0.0074
  185MOL0     N24857   5.693   3.169  10.037 -0.3716 -0.4917 -0.0494
  185MOL0     C24858   5.564   3.219  10.071 -0.0872  0.0959  0.4110
  185MOL0     C24859   5.583   3.353  10.074  0.1567  0.2211 -0.3431
  185MOL0     C24860   5.482   3.461  10.126  0.1822  0.1194  0.3835
  185MOL0     C24861   5.332   3.414  10.122  0.1282  0.2254 -0.2052
  185MOL0     C24862   5.228   3.524  10.126  0.6272 -1.0119 -0.0978
  185MOL0     C24863   5.095   3.465  10.154 -0.2893  0.1445  0.8418
  185MOL0     O24864   4.996   3.546  10.094 -0.0349  0.5843  0.6591
  185MOL0     C24865   4.867   3.487  10.066 -0.0401  0.3176  0.6809
  185MOL0     C24866   4.797   3.523   9.954 -0.2826  0.1492 -0.5104
  185MOL0     C24867   4.670   3.477   9.921 -0.5421  0.2570 -0.2269
  185MOL0     C24868   4.619   3.380  10.017 -0.1725  0.4979  0.0305
  185MOL0     C24869   4.486   3.324  10.009 -0.2667  0.9453 -0.2072
  185MOL0     O24870   4.442   3.232  10.111  0.6791  0.4340  0.1722
  185MOL0     C24871   4.323   3.158  10.081 -0.5792  0.9507 -0.9294
  185MOL0     C24872   4.208   3.226  10.053 -0.7321  0.3964 -1.3160
  185MOL0     C24873   4.107   3.151   9.999  0.1178 -0.7442  0.3358
  185MOL0     C24874   4.111   3.017   9.983 -0.0046  0.6817  0.2849
  185MOL0     O24875   4.002   2.945   9.935 -0.1275  0.4684 -0.1523
  185MOL0     C24876   3.927   2.995   9.831  0.6941  0.3008  0.8411
  185MOL0     C24877   3.828   2.880   9.802  0.2929 -0.2101 -0.2718
  185MOL0     C24878   3.746   2.825   9.925 -0.6876 -0.2214  0.6874
  185MOL0     C24879   3.686   2.692   9.883 -0.2394  0.5273  0.0258
  185MOL0     C24880   3.595   2.640   9.999  0.6638 -0.8737 -0.3479
  185MOL0     C24881   3.543   2.501   9.971  0.2662 -0.4822  0.1584
  185MOL0     C24882   3.412   2.477  10.053  0.1900  0.6639  0.0897
  185MOL0     C24883   3.289   2.537   9.974  0.0345  0.3509 -0.1491
  185MOL0    Cl24884   3.255   2.452   9.816  0.0175  0.2302  0.4144
  185MOL0     C24885   4.225   2.948  10.023  0.4629  0.3265 -0.4334
  185MOL0     C24886   4.334   3.017  10.075 -0.3897 -0.2288  1.0781
  185MOL0     O24887   4.424   3.340   9.904 -0.3229  0.1281 -0.0191
  185MOL0     C24888   4.694   3.332  10.123  0.3793  0.0179 -0.6972
  185MOL0     C24889   4.824   3.378  10.134  0.4170 -0.2674 -0.1102
  185MOL0     N24890   5.713   3.379  10.028  1.2647 -0.1316  0.5195
  185MOL0     N24891   5.777   3.273  10.008 -0.3774 -0.0192  0.8248
  185MOL0     C24892   4.904   2.560   9.743 -0.5576  0.2269  0.2998
  185MOL0     C24893   4.797   2.479   9.699 -0.2463  0.1959  0.2974
  185MOL0     C24894   4.441   2.363   9.429  0.7578  0.0343 -0.0672
  185MOL0     C24895   4.314   2.409   9.449  0.3885  0.0894 -0.0226
  185MOL0     C24896   4.204   2.341   9.389 -0.1696 -0.9105 -0.5150
  185MOL0     C24897   4.226   2.222   9.306 -1.6852 -0.6037 -0.6697
  185MOL0     O24898   4.128   2.135   9.256 -0.2187 -0.7821  0.0866
  185MOL0     C24899   4.007   2.128   9.324 -0.1975  0.5317 -0.3686
  185MOL0     C24900   3.913   2.021   9.270  0.5066  0.0156  0.1616
  185MOL0     C24901   3.787   2.006   9.357  1.7348  0.3329 -0.1534
  185MOL0     C24902   3.672   1.942   9.287  0.1546  0.9141 -0.0673
  185MOL0     C24903   3.699   1.814   9.228  0.5645  1.0793  0.0125
  185MOL0     C24904   3.713   1.706   9.171 -0.4232  0.5174  0.1923
  185MOL0     C24905   4.355   2.186   9.279 -0.2924 -0.0288  0.4749
  185MOL0     C24906   4.461   2.250   9.347  0.1233  0.2703  0.8590
  185MOL0     C24907   4.606   2.194   9.328 -0.6399 -0.2704  1.1257
  185MOL0     H24908   4.774   2.575   9.380  1.2297 -1.7202  0.0594
  185MOL0     H24909   4.968   2.714   9.439 -1.1602 -1.5740 -1.8779
  185MOL0     H24910   5.208   2.724   9.540 -1.9873 -0.2655 -2.6990
  185MOL0     H24911   5.105   2.874   9.550  0.2688  0.7040  0.7228
  185MOL0     H24912   5.221   2.912   9.780  2.1579  2.6027 -0.5491
  185MOL0     H24913   5.335   2.929   9.661 -1.7553  0.1495 -2.8216
  185MOL0     H24914   5.376   2.665   9.726 -4.7294 -2.1289  2.5249
  185MOL0     H24915   5.286   2.711   9.866 -0.3445 -0.1789  0.1092
  185MOL0     H24916   5.560   2.818   9.787  0.8198  0.7338  0.7852
  185MOL0     H24917   5.455   2.916   9.886  0.1858  0.5399 -1.8702
  185MOL0     H24918   5.467   2.726  10.065 -1.5166 -1.8950 -0.9811
  185MOL0     H24919   5.543   2.625   9.941  0.1364  0.5094  0.3620
  185MOL0     H24920   5.702   2.706  10.110 -2.3742 -1.4346  0.2850
  185MOL0     H24921   5.737   2.772   9.955 -1.1851 -3.2435 -0.5437
  185MOL0     H24922   5.728   2.933  10.177 -1.2632 -0.2803  1.2671
  185MOL0     H24923   5.563   2.958  10.117 -0.5670 -1.9624  0.7563
  185MOL0     H24924   5.830   3.016   9.995  0.9620  1.3283  1.0031
  185MOL0     H24925   5.672   3.013   9.903 -3.3958  4.0842  1.1134
  185MOL0     H24926   5.472   3.177  10.110 -1.5484  1.5134 -1.3687
  185MOL0     H24927   5.516   3.487  10.226  1.9281  2.1947 -0.6577
  185MOL0     H24928   5.503   3.550  10.066 -3.0252 -0.4204 -1.7849
  185MOL0     H24929   5.308   3.360  10.030 -3.1073 -1.2149  1.2989
  185MOL0     H24930   5.315   3.347  10.207 -1.7468 -1.3289 -1.7052
  185MOL0     H24931   5.218   3.573  10.028 -2.5027  0.6348  0.9101
  185MOL0     H24932   5.238   3.593  10.210  0.0071 -2.2418  1.0293
  185MOL0     H24933   5.086   3.443  10.261 -0.5680  3.3630  1.5851
  185MOL0     H24934   5.096   3.369  10.102 -3.4249  0.5657 -0.2497
  185MOL0     H24935   4.837   3.605   9.896  0.2923  0.9620  0.9812
  185MOL0     H24936   4.622   3.524   9.836 -0.6954  0.3917 -0.0674
  185MOL0     H24937   4.193   3.330  10.079  1.1677 -0.0739  2.1643
  185MOL0     H24938   4.012   3.189   9.965  0.4451  0.3106  0.5534
  185MOL0     H24939   3.876   3.088   9.857  1.6269  1.3968 -1.0113
  185MOL0     H24940   3.986   3.018   9.742 -0.6130 -0.2789 -0.2112
  185MOL0     H24941   3.760   2.917   9.724  0.7185 -0.6459 -0.8621
  185MOL0     H24942   3.896   2.803   9.765 -1.5740 -2.3050  0.4222
  185MOL0     H24943   3.812   2.807  10.011  1.0981 -0.6744 -0.6987
  185MOL0     H24944   3.670   2.891   9.965 -3.1984 -3.1774  1.1976
  185MOL0     H24945   3.770   2.625   9.865  0.7181  2.1621 -2.0588
  185MOL0     H24946   3.622   2.708   9.796 -2.2150  0.2084  1.3631
  185MOL0     H24947   3.507   2.704  10.011  1.2510  0.0069 -0.6416
  185MOL0     H24948   3.652   2.643  10.093 -2.2435  2.8727  1.6022
  185MOL0     H24949   3.525   2.502   9.863  0.1438  2.0411  0.1299
  185MOL0     H24950   3.615   2.421   9.986  0.5204  0.1635  2.9676
  185MOL0     H24951   3.413   2.518  10.154 -0.4325 -1.3323  0.9688
  185MOL0     H24952   3.411   2.369  10.073  1.9222  0.5536 -0.2286
  185MOL0     H24953   3.208   2.504  10.041  1.2918 -2.5974  0.0704
  185MOL0     H24954   3.297   2.645   9.961 -2.6715  0.5871 -0.4827
  185MOL0     H24955   4.235   2.840  10.024  0.1088  0.2172 -2.9327
  185MOL0     H24956   4.420   2.967  10.117  0.5651 -0.4027 -0.9335
  185MOL0     H24957   4.661   3.259  10.197  2.3495  1.3030  1.5848
  185MOL0     H24958   4.877   3.332  10.217  0.6322  1.3748  0.7142
  185MOL0     H24959   4.933   2.555   9.848  2.4791  1.1563 -0.4048
  185MOL0     H24960   4.745   2.410   9.765 -0.8894  0.3367 -0.0521
  185MOL0     H24961   4.292   2.501   9.502 -1.2990 -0.5082  0.3714
  185MOL0     H24962   4.109   2.380   9.425  0.9094  2.7609 -1.1843
  185MOL0     H24963   3.964   2.229   9.331 -2.4240 -0.4554  1.4892
  185MOL0     H24964   4.028   2.099   9.427  0.8645 -0.4672 -0.8448
  185MOL0     H24965   3.959   1.922   9.270 -0.1713 -0.3216 -1.1815
  185MOL0     H24966   3.885   2.037   9.166 -1.6092  3.4464  1.0969
  185MOL0     H24967   3.756   2.107   9.383 -1.9676 -0.7257  0.0145
  185MOL0     H24968   3.823   1.946   9.442 -0.0827  0.5734  0.8202
  185MOL0     H24969   3.590   1.941   9.359  1.6874  2.4766  1.8206
  185MOL0     H24970   3.638   2.014   9.212  0.8087  0.8974 -0.3885
  185MOL0     H24971   3.753   1.611   9.142  2.1044  1.0756  1.5669
  185MOL0     H24972   4.363   2.101   9.212  0.1637  0.6072 -0.3055
  185MOL0     H24973   4.656   2.185   9.425 -2.4473  5.0737  2.9001
  185MOL0     H24974   4.605   2.105   9.265 -1.5132  1.1732 -0.9941
  185MOL0     H24975   4.651   2.280   9.276 -1.0939 -1.1176 -0.7555
  186MOL0     O24976   7.690   0.540   7.853  0.6139 -0.2365  0.9286
  186MOL0     C24977   7.616   0.483   7.768 -0.9631 -0.7662 -0.2393
  186MOL0     O24978   7.635   0.488   7.638 -0.4645  0.2734  0.2585
  186MOL0     C24979   7.744   0.524   7.573  0.4306 -0.2993 -0.3327
  186MOL0     C24980   7.873   0.489   7.604 -0.3110  0.0113 -0.4365
  186MOL0     C24981   7.985   0.527   7.521 -0.5058 -0.9954  0.4212
  186MOL0     C24982   7.976   0.618   7.411 -0.1956  0.4671  0.2244
  186MOL0     O24983   8.091   0.661   7.348  0.5429  0.5033  0.1517
  186MOL0     C24984   8.090   0.719   7.212 -0.8408  0.3297  0.3720
  186MOL0     C24985   8.212   0.698   7.126 -0.9875 -0.3883 -0.1589
  186MOL0     C24986   8.347   0.752   7.188 -0.7518 -0.1315  0.0993
  186MOL0     C24987   8.348   0.900   7.160 -0.1658  0.3457 -0.1084
  186MOL0     C24988   8.479   0.976   7.213 -0.9391 -0.8663  0.2633
  186MOL0     C24989   8.604   0.944   7.118 -0.4144  0.2529 -0.6225
  186MOL0     C24990   8.730   1.025   7.173 -0.2078  0.1590  0.3401
  186MOL0     C24991   8.812   0.966   7.286 -0.0896  0.2502  0.8696
  186MOL0     N24992   8.922   1.051   7.328  0.6331 -0.6641 -0.4373
  186MOL0     C24993   8.937   1.107   7.455  0.1313 -0.2456  0.0773
  186MOL0     C24994   9.051   1.176   7.444  0.0198 -0.2293  0.1178
  186MOL0     C24995   9.118   1.239   7.564 -0.1965 -0.7332  0.5362
  186MOL0     C24996   9.252   1.182   7.598  0.4245  0.0076  0.6313
  186MOL0     C24997   9.289   1.196   7.750  0.2576 -0.4878  0.0260
  186MOL0     C24998   9.438   1.183   7.777  0.5008  1.0617 -0.8965
  186MOL0     O24999   9.520   1.285   7.722 -0.4748 -0.7513 -0.0620
  186MOL0     C25000   9.655   1.290   7.756  0.2498 -0.3241 -0.2954
  186MOL0     C25001   9.731   1.177   7.797  0.5596  1.0083  0.5504
  186MOL0     C25002   9.865   1.183   7.799 -0.3772  0.6328  0.4897
  186MOL0     C25003   9.931   1.300   7.781 -0.6280 -0.3456 -0.2516
  186MOL0     C25004  10.079   1.305   7.777  0.1615  0.2177  0.0125
  186MOL0     O25005  10.154   1.190   7.797 -0.2070  0.6479 -0.0443
  186MOL0     C25006  10.287   1.190   7.828 -0.5027 -0.9173  0.7902
  186MOL0     C25007  10.354   1.157   7.945 -1.3146  0.0678 -0.4682
  186MOL0     C25008  10.498   1.172   7.964  0.1783  0.1154 -0.1504
  186MOL0     C25009  10.580   1.209   7.855  0.7878 -0.6746 -0.7304
  186MOL0     O25010  10.711   1.239   7.892 -0.1257  0.2773 -0.8608
  186MOL0     C25011  10.795   1.306   7.789  0.0484 -0.7223 -0.4010
  186MOL0     C25012  10.909   1.372   7.864  0.1771 -0.6691  0.1272
  186MOL0     C25013  10.917   1.522   7.854  0.7369 -0.4722  0.7936
  186MOL0     C25014  11.045   1.564   7.928 -0.3210  0.4083  0.8605
  186MOL0     C25015  11.051   1.716   7.975  0.6293 -0.5936 -0.2320
  186MOL0     C25016  11.196   1.748   8.020  0.0152  0.2262 -0.6881
  186MOL0     C25017  11.208   1.878   8.104  0.2940 -0.1486  0.3308
  186MOL0     C25018  11.354   1.892   8.148  0.1489 -0.2778  0.0131
  186MOL0    Cl25019  11.379   1.750   8.250  0.0487  0.2334 -0.0645
  186MOL0     C25020  10.520   1.240   7.737 -0.0143  0.1403 -0.3393
  186MOL0     C25021  10.380   1.223   7.721 -0.2305 -0.3701  0.0180
  186MOL0     O25022  10.131   1.412   7.765  1.1897 -0.3406 -0.0983
  186MOL0     C25023   9.859   1.416   7.744 -0.3609  0.1633 -0.1991
  186MOL0     C25024   9.720   1.408   7.732 -0.2904 -0.3943  0.2395
  186MOL0     N25025   9.105   1.160   7.320 -0.2745  0.0323 -0.2173
  186MOL0     N25026   9.028   1.089   7.251  0.6811 -0.4494  0.2268
  186MOL0     C25027   7.846   0.650   7.383  0.4679 -1.1609  0.5874
  186MOL0     C25028   7.729   0.606   7.453 -0.3995 -0.1946 -1.2592
  186MOL0     C25029   7.516   0.398   7.828 -0.0498 -0.9879  0.3028
  186MOL0     C25030   7.539   0.367   7.963 -0.1626  0.5568 -0.0538
  186MOL0     C25031   7.462   0.262   8.019 -0.3989  0.0653 -0.7494
  186MOL0     C25032   7.350   0.213   7.952 -0.4750  0.4350 -0.2548
  186MOL0     O25033   7.280   0.111   8.015  0.0856 -0.6962 -0.1197
  186MOL0     C25034   7.140   0.128   8.033 -0.4299 -0.4529 -0.3513
  186MOL0     C25035   7.085  -0.008   8.069 -0.5515 -0.2332 -0.1897
  186MOL0     C25036   6.939  -0.037   8.039 -0.4387  0.0387  0.2738
  186MOL0     C25037   6.890  -0.144   8.134  0.4433  0.5816 -0.7385
  186MOL0     C25038   6.743  -0.165   8.117 -0.4213  0.4757  1.0414
  186MOL0     C25039   6.627  -0.158   8.117  0.3562 -0.6434 -0.2117
  186MOL0     C25040   7.327   0.245   7.824  0.2235 -0.0594  0.1215
  186MOL0     C25041   7.406   0.349   7.761  0.4388  0.1248  0.7120
  186MOL0     C25042   7.351   0.384   7.624 -0.2743 -0.6024 -1.0669
  186MOL0     H25043   7.889   0.422   7.688  1.9030  0.3825 -0.4843
  186MOL0     H25044   8.087   0.498   7.541  0.6867  1.0622 -2.0460
  186MOL0     H25045   8.008   0.683   7.150 -1.6780  0.4855  1.3443
  186MOL0     H25046   8.075   0.827   7.222 -0.8246  0.6069 -2.0251
  186MOL0     H25047   8.198   0.740   7.026  1.5846  0.4251 -0.2562
  186MOL0     H25048   8.230   0.591   7.115 -0.8943 -0.6602  2.0505
  186MOL0     H25049   8.433   0.704   7.141 -1.1426  0.0909 -0.8661
  186MOL0     H25050   8.359   0.731   7.295  0.0391  1.6006  0.4018
  186MOL0     H25051   8.341   0.901   7.051 -2.8414 -0.9503 -0.0347
  186MOL0     H25052   8.258   0.947   7.201  0.5303  0.8258  0.9265
  186MOL0     H25053   8.467   1.085   7.221  0.6935 -0.7993  3.6126
  186MOL0     H25054   8.493   0.934   7.313 -1.2521 -1.6660 -0.0245
  186MOL0     H25055   8.614   0.836   7.102 -2.6277 -0.3041  1.2877
  186MOL0     H25056   8.571   0.983   7.021 -0.0213 -0.7248 -1.1594
  186MOL0     H25057   8.696   1.124   7.206  0.9280  0.5546  0.3724
  186MOL0     H25058   8.789   1.053   7.086 -2.9866 -0.2059 -1.8153
  186MOL0     H25059   8.743   0.943   7.368 -0.3841  3.2019  1.5660
  186MOL0     H25060   8.855   0.869   7.261 -0.6959  0.0442  0.6140
  186MOL0     H25061   8.878   1.083   7.543 -1.8710  2.7615 -0.2931
  186MOL0     H25062   9.141   1.334   7.515  1.1019 -2.7927 -3.2724
  186MOL0     H25063   9.066   1.244   7.660  0.0828  0.8308  0.6330
  186MOL0     H25064   9.263   1.075   7.577  1.6058  0.1219  0.5786
  186MOL0     H25065   9.319   1.237   7.532  0.5183  0.6677  1.2671
  186MOL0     H25066   9.228   1.125   7.805 -0.6748  0.1344 -0.1839
  186MOL0     H25067   9.249   1.292   7.784 -1.2858 -1.0618 -0.1052
  186MOL0     H25068   9.475   1.089   7.734  3.2624  1.0163  1.2470
  186MOL0     H25069   9.449   1.178   7.886 -2.0890 -2.6522 -0.6359
  186MOL0     H25070   9.677   1.091   7.835  0.9601  0.5708  0.1404
  186MOL0     H25071   9.917   1.090   7.816 -2.5631 -0.4127  1.8930
  186MOL0     H25072  10.289   1.124   8.025 -0.9767  2.1996  0.7512
  186MOL0     H25073  10.547   1.148   8.059 -0.8250  1.2249  0.6755
  186MOL0     H25074  10.824   1.240   7.707  0.8089 -0.6144 -0.2308
  186MOL0     H25075  10.737   1.390   7.748  0.3370 -1.0771 -1.5601
  186MOL0     H25076  10.897   1.351   7.970 -0.2670 -1.6753 -0.1124
  186MOL0     H25077  11.004   1.335   7.825 -0.2098 -0.0329 -1.5344
  186MOL0     H25078  10.916   1.571   7.756  1.1367  1.1711  1.5894
  186MOL0     H25079  10.831   1.566   7.904  2.8153  3.1622  1.4783
  186MOL0     H25080  11.129   1.540   7.862  2.3145  0.1963  4.0378
  186MOL0     H25081  11.067   1.507   8.018  0.6299 -0.9318 -0.1960
  186MOL0     H25082  10.981   1.732   8.058  2.8946  1.4400  1.4132
  186MOL0     H25083  11.003   1.778   7.899 -1.6705  0.6384  2.0374
  186MOL0     H25084  11.233   1.659   8.071 -1.6040  1.5445  3.1467
  186MOL0     H25085  11.253   1.768   7.929  1.7737  0.6742  0.4523
  186MOL0     H25086  11.142   1.873   8.191  0.6153 -1.0001  0.5295
  186MOL0     H25087  11.179   1.964   8.043  0.1909 -1.1436 -1.0583
  186MOL0     H25088  11.421   1.895   8.061  2.0953 -1.6464  1.4062
  186MOL0     H25089  11.377   1.979   8.211  2.8817 -0.3602 -0.7212
  186MOL0     H25090  10.584   1.269   7.655  0.1480 -0.1124 -0.3042
  186MOL0     H25091  10.333   1.250   7.627 -0.8083 -1.2029  0.0595
  186MOL0     H25092   9.910   1.508   7.721  2.0834 -0.6221  1.6167
  186MOL0     H25093   9.679   1.503   7.701  0.4756 -0.6466 -1.6863
  186MOL0     H25094   7.842   0.726   7.305 -2.0398 -0.5790  1.2043
  186MOL0     H25095   7.635   0.647   7.417  0.3876  2.5290 -0.5027
  186MOL0     H25096   7.615   0.417   8.023 -2.8639  1.7778  2.6498
  186MOL0     H25097   7.483   0.212   8.113  0.7666  1.6912 -0.0810
  186MOL0     H25098   7.097   0.158   7.937 -1.3487 -0.7091 -0.0352
  186MOL0     H25099   7.118   0.192   8.119  0.5311 -0.9729  0.3011
  186MOL0     H25100   7.093  -0.016   8.178 -1.5111  0.7004 -0.0267
  186MOL0     H25101   7.151  -0.084   8.026 -0.6219 -1.8844  2.4317
  186MOL0     H25102   6.930  -0.077   7.937 -2.3958 -1.4996  0.9895
  186MOL0     H25103   6.871   0.047   8.053 -1.9534 -1.3779  1.9172
  186MOL0     H25104   6.940  -0.239   8.113  1.6472  1.1668 -0.5407
  186MOL0     H25105   6.910  -0.115   8.237  0.0654  2.0976 -1.0630
  186MOL0     H25106   6.525  -0.176   8.143 -0.1861 -1.6660 -2.7770
  186MOL0     H25107   7.249   0.206   7.760  0.7654  0.7667 -1.0702
  186MOL0     H25108   7.427   0.358   7.549 -0.2818  1.2689 -1.7607
  186MOL0     H25109   7.256   0.333   7.608  0.4000 -2.0867 -0.5440
  186MOL0     H25110   7.334   0.492   7.617 -2.2402 -0.7963  0.0393
  187MOL0     O25111   9.586   3.065   9.266  0.1988 -0.1153  0.5574
  187MOL0     C25112   9.552   2.947   9.246 -0.5024 -0.0610 -1.1035
  187MOL0     O25113   9.624   2.862   9.174 -0.1397 -0.2425 -0.8981
  187MOL0     C25114   9.755   2.888   9.148  0.3342 -0.7744  0.6647
  187MOL0     C25115   9.858   2.929   9.236 -0.3019 -0.4306  0.3901
  187MOL0     C25116   9.991   2.946   9.197 -0.2740  0.3993 -0.1446
  187MOL0     C25117  10.027   2.941   9.062 -0.1606 -0.0814  0.4620
  187MOL0     O25118  10.162   2.954   9.025 -0.0933  0.5220 -0.5540
  187MOL0     C25119  10.194   3.065   8.947  0.1210 -0.2425 -0.5078
  187MOL0     C25120  10.320   3.141   8.989  0.4724 -0.4955 -0.9394
  187MOL0     C25121  10.332   3.182   9.133  0.5206 -0.6184 -0.9541
  187MOL0     C25122  10.414   3.310   9.163 -0.8667 -0.3096 -0.2774
  187MOL0     C25123  10.558   3.278   9.126 -0.7395 -1.3194 -0.3884
  187MOL0     C25124  10.640   3.407   9.131  0.1855 -0.5331 -0.2605
  187MOL0     C25125  10.786   3.379   9.101  0.2291  0.3256  0.4495
  187MOL0     C25126  10.884   3.493   9.138  0.6937  0.8724 -0.1267
  187MOL0     N25127  11.025   3.450   9.126 -0.2257  0.2337  0.3242
  187MOL0     C25128  11.107   3.408   9.220 -1.2810 -0.0977 -0.5872
  187MOL0     C25129  11.221   3.375   9.153  0.0141  0.7999 -0.7185
  187MOL0     C25130  11.350   3.334   9.198  0.1180 -0.1059  0.2035
  187MOL0     C25131  11.446   3.454   9.214 -0.0748  0.2000 -0.4123
  187MOL0     C25132  11.594   3.396   9.247 -0.6378 -0.2420 -0.0449
  187MOL0     C25133  11.708   3.505   9.229 -0.0748  0.5997 -0.3283
  187MOL0     O25134  11.711   3.555   9.099 -0.6607  0.3306  0.5084
  187MOL0     C25135  11.786   3.666   9.064 -0.1965 -0.3745 -0.3672
  187MOL0     C25136  11.858   3.756   9.142 -0.3177 -1.3585  0.4070
  187MOL0     C25137  11.942   3.856   9.085 -0.7732 -0.2621 -0.1339
  187MOL0     C25138  11.970   3.854   8.951  0.4420 -0.0398  0.6056
  187MOL0     C25139  12.056   3.955   8.885  0.1353 -0.0728 -0.3776
  187MOL0     O25140  12.097   4.067   8.959  0.2174  0.7519 -0.2039
  187MOL0     C25141  12.206   4.139   8.919  0.2290 -0.7743  1.7892
  187MOL0     C25142  12.218   4.264   8.977  0.2390 -0.2997  0.4035
  187MOL0     C25143  12.322   4.350   8.947  0.1472  0.1302 -0.1074
  187MOL0     C25144  12.428   4.310   8.867 -0.4264 -0.1429 -1.0760
  187MOL0     O25145  12.534   4.385   8.835  0.2742  0.4198 -0.1101
  187MOL0     C25146  12.552   4.512   8.907  0.5039 -0.7709  0.6741
  187MOL0     C25147  12.663   4.580   8.834 -0.6775  0.7222 -0.9253
  187MOL0     C25148  12.802   4.514   8.868 -0.3759  0.2315  0.1840
  187MOL0     C25149  12.914   4.597   8.803  0.1647 -0.2998  0.9757
  187MOL0     C25150  13.058   4.570   8.842  0.0588 -0.0562 -0.9523
  187MOL0     C25151  13.081   4.570   8.996  0.6440  0.1512  1.1850
  187MOL0     C25152  13.043   4.688   9.084  0.1177  0.7390 -0.0662
  187MOL0     C25153  13.144   4.799   9.085 -0.7188 -1.5178 -0.2947
  187MOL0    Cl25154  13.158   4.868   8.920 -0.0777 -0.5852 -0.0280
  187MOL0     C25155  12.416   4.187   8.805 -0.7754 -0.4625  0.3021
  187MOL0     C25156  12.311   4.103   8.830  0.5367 -0.4739  0.3235
  187MOL0     O25157  12.085   3.923   8.770  0.9567  0.0562 -0.3436
  187MOL0     C25158  11.904   3.754   8.870  0.5517 -0.2141 -0.6182
  187MOL0     C25159  11.806   3.673   8.931  0.6116 -0.1892 -0.1439
  187MOL0     N25160  11.203   3.398   9.022 -0.0631  0.4225 -0.5110
  187MOL0     N25161  11.084   3.435   9.010  0.1164 -0.2276  0.0107
  187MOL0     C25162   9.932   2.887   8.973 -0.2350  0.3224  0.2065
  187MOL0     C25163   9.794   2.867   9.012  0.4520  0.0910 -0.5725
  187MOL0     C25164   9.412   2.926   9.295  0.3751 -0.2789  0.5768
  187MOL0     C25165   9.337   2.834   9.223 -0.5787 -0.8287  0.4250
  187MOL0     C25166   9.205   2.807   9.262 -0.6620  0.1795 -0.3195
  187MOL0     C25167   9.142   2.875   9.368 -0.5908  0.8663 -1.0502
  187MOL0     O25168   9.011   2.854   9.417  0.2799  1.0206  0.2196
  187MOL0     C25169   8.950   2.737   9.371 -0.0056  0.5755  0.1352
  187MOL0     C25170   8.814   2.719   9.442  0.3025 -0.0916  0.4803
  187MOL0     C25171   8.736   2.600   9.384 -0.1584  0.0546 -0.2789
  187MOL0     C25172   8.585   2.599   9.420  0.3212 -0.2670  0.3068
  187MOL0     C25173   8.507   2.701   9.346  0.3475  1.2559 -0.3300
  187MOL0     C25174   8.441   2.755   9.260 -0.4111 -0.8523  0.7812
  187MOL0     C25175   9.216   2.970   9.436  0.1493 -0.6866 -0.4013
  187MOL0     C25176   9.351   2.993   9.407  0.5209 -0.3338 -0.4258
  187MOL0     C25177   9.431   3.083   9.497  0.7024 -0.0069 -0.2173
  187MOL0     H25178   9.829   2.943   9.340 -0.3447  0.1972  0.2932
  187MOL0     H25179  10.073   2.961   9.267  0.5506 -0.6052 -0.8540
  187MOL0     H25180  10.201   3.027   8.845 -1.4094  0.9268 -1.0936
  187MOL0     H25181  10.110   3.135   8.940  0.2717 -0.0154 -0.1050
  187MOL0     H25182  10.324   3.230   8.926 -2.0369 -0.9724 -1.8833
  187MOL0     H25183  10.407   3.082   8.958  0.7598  0.7283 -2.5955
  187MOL0     H25184  10.383   3.097   9.180 -1.4333 -1.5105 -0.3519
  187MOL0     H25185  10.232   3.194   9.176  0.9828  2.1024 -0.4476
  187MOL0     H25186  10.368   3.395   9.112 -0.9285 -0.8022 -1.0645
  187MOL0     H25187  10.420   3.325   9.271  0.8326  0.4616 -0.4444
  187MOL0     H25188  10.602   3.201   9.190 -0.5689 -0.7370  0.2109
  187MOL0     H25189  10.567   3.240   9.024 -0.4414 -0.6134 -0.6292
  187MOL0     H25190  10.603   3.480   9.059 -1.9774 -0.3708  0.9447
  187MOL0     H25191  10.629   3.449   9.232 -1.4073 -0.4088 -0.4593
  187MOL0     H25192  10.790   3.357   8.994  1.1494 -0.6133  0.6558
  187MOL0     H25193  10.807   3.287   9.158  0.5897  0.4139  0.4653
  187MOL0     H25194  10.869   3.587   9.085 -0.6370  1.9780  2.1104
  187MOL0     H25195  10.877   3.507   9.246  1.4051 -2.7479  0.5433
  187MOL0     H25196  11.101   3.404   9.329  1.4164 -1.8425 -0.4192
  187MOL0     H25197  11.341   3.283   9.294 -0.1208  0.9443  0.7515
  187MOL0     H25198  11.376   3.250   9.133  0.3457 -1.7874  2.3375
  187MOL0     H25199  11.436   3.525   9.131 -3.9665 -2.4471 -2.4976
  187MOL0     H25200  11.414   3.504   9.306 -0.9238 -1.4881  0.2502
  187MOL0     H25201  11.614   3.315   9.177 -1.2017 -1.2997  0.9800
  187MOL0     H25202  11.606   3.363   9.351 -0.6873 -1.9274 -0.5560
  187MOL0     H25203  11.799   3.447   9.248 -1.2415 -0.9900  0.6593
  187MOL0     H25204  11.699   3.584   9.303 -0.4481  1.4153 -1.2155
  187MOL0     H25205  11.858   3.759   9.251  3.2448 -2.5410  0.5842
  187MOL0     H25206  11.994   3.922   9.153  0.7698 -1.0178 -0.5349
  187MOL0     H25207  12.148   4.301   9.051  0.2707 -0.2331  0.4004
  187MOL0     H25208  12.321   4.444   9.001  0.3184  0.4190 -0.6005
  187MOL0     H25209  12.460   4.569   8.894  0.8138 -0.4707 -0.2938
  187MOL0     H25210  12.571   4.487   9.011  2.0334 -2.0508  0.1308
  187MOL0     H25211  12.661   4.576   8.725  3.2837 -0.3070 -1.1225
  187MOL0     H25212  12.663   4.686   8.863  0.6044  0.8803 -1.4055
  187MOL0     H25213  12.815   4.519   8.976  0.2182 -0.9115  0.1789
  187MOL0     H25214  12.815   4.410   8.840  3.5467  0.9910 -1.4324
  187MOL0     H25215  12.897   4.705   8.793  2.1932 -0.2061 -4.3358
  187MOL0     H25216  12.908   4.565   8.698  4.0354 -3.9982  1.5959
  187MOL0     H25217  13.127   4.637   8.791  0.4686 -1.9130 -2.9936
  187MOL0     H25218  13.084   4.468   8.813 -0.4750 -0.0006 -1.6603
  187MOL0     H25219  13.031   4.481   9.035 -0.1460  1.1047  2.4388
  187MOL0     H25220  13.188   4.555   9.010  0.1327 -3.7684  2.0579
  187MOL0     H25221  13.037   4.663   9.191 -0.0594  0.6938 -0.0869
  187MOL0     H25222  12.952   4.731   9.042  0.1668  1.3478  0.4381
  187MOL0     H25223  13.114   4.884   9.146  3.3004  1.3427 -1.9405
  187MOL0     H25224  13.241   4.761   9.117 -0.6633 -1.4531 -0.3896
  187MOL0     H25225  12.495   4.153   8.739 -1.3180  0.7149 -1.0096
  187MOL0     H25226  12.319   4.003   8.788  0.0636 -0.2803 -0.2372
  187MOL0     H25227  11.924   3.758   8.763 -0.0641 -1.1521 -0.7786
  187MOL0     H25228  11.745   3.613   8.864  0.7561 -3.5699  2.4138
  187MOL0     H25229   9.966   2.869   8.872 -1.8429  2.0559 -0.7168
  187MOL0     H25230   9.714   2.842   8.943  1.4332 -2.5078 -0.9048
  187MOL0     H25231   9.382   2.795   9.133 -0.6475  1.9809 -0.9383
  187MOL0     H25232   9.163   2.730   9.197 -2.5040  1.7645 -1.1039
  187MOL0     H25233   9.013   2.653   9.401  0.9264  1.3437  0.3617
  187MOL0     H25234   8.943   2.747   9.262 -0.0851 -0.9922 -0.0238
  187MOL0     H25235   8.762   2.814   9.426  1.0746  0.1674 -0.5881
  187MOL0     H25236   8.831   2.690   9.546 -0.4280 -1.7007  0.1681
  187MOL0     H25237   8.775   2.520   9.447 -1.5359  1.9221  3.2585
  187MOL0     H25238   8.764   2.578   9.281 -1.0423 -4.9252  0.2837
  187MOL0     H25239   8.552   2.496   9.407  0.0245 -0.2616  0.9862
  187MOL0     H25240   8.580   2.615   9.528 -0.0206 -1.8678  0.5503
  187MOL0     H25241   8.377   2.806   9.190  0.0326 -0.9269  0.3186
  187MOL0     H25242   9.173   3.018   9.523 -1.7709  0.0623 -1.6735
  187MOL0     H25243   9.412   3.190   9.480 -1.5467 -0.5373 -1.4007
  187MOL0     H25244   9.410   3.055   9.601  4.0411  0.5895  0.7112
  187MOL0     H25245   9.539   3.068   9.494  0.6084 -0.8926  0.4236
  188MOL0     O25246   9.047   4.965  10.998  0.6117  0.0202  0.1481
  188MOL0     C25247   8.939   4.951  10.933 -0.0871 -0.1227  0.7582
  188MOL0     O25248   8.858   5.060  10.889 -0.3292  0.2313 -0.6238
  188MOL0     C25249   8.902   5.188  10.929  0.3984 -0.0222 -0.1916
  188MOL0     C25250   8.805   5.269  10.997  0.8647  0.0174  0.5665
  188MOL0     C25251   8.833   5.399  11.048  0.6046 -0.2536  0.7231
  188MOL0     C25252   8.953   5.455  11.018 -0.6838  0.6222  0.1134
  188MOL0     O25253   8.968   5.584  11.074  0.8743 -0.4239  0.1813
  188MOL0     C25254   9.086   5.664  11.055  0.9793  0.0055 -0.3894
  188MOL0     C25255   9.050   5.806  11.079  0.1077  0.1826 -0.2186
  188MOL0     C25256   9.166   5.900  11.061  1.2025  0.2422 -0.1914
  188MOL0     C25257   9.272   5.902  11.172 -0.6632 -0.3329 -0.0642
  188MOL0     C25258   9.221   5.951  11.313 -1.2190 -0.3202  0.5113
  188MOL0     C25259   9.155   6.088  11.305 -0.4495  0.7747 -1.5595
  188MOL0     C25260   9.086   6.120  11.444  1.1026 -0.0590  0.1624
  188MOL0     C25261   9.031   6.268  11.454  0.1643  0.7923  0.5537
  188MOL0     N25262   9.139   6.359  11.425 -0.8935 -0.0276  0.0422
  188MOL0     C25263   9.239   6.392  11.510 -0.9245  0.4100 -0.3077
  188MOL0     C25264   9.314   6.479  11.442 -0.2546 -0.3223 -0.6249
  188MOL0     C25265   9.446   6.552  11.490  0.9381  0.0950  0.4519
  188MOL0     C25266   9.562   6.525  11.385 -0.2872  0.5284 -0.4243
  188MOL0     C25267   9.680   6.622  11.403 -0.7039  0.1295 -0.4360
  188MOL0     C25268   9.790   6.581  11.309  0.8703  0.1529  0.2670
  188MOL0     O25269   9.859   6.462  11.362  0.7386  0.2519  0.1653
  188MOL0     C25270   9.967   6.476  11.450 -0.4692 -0.2106  0.2050
  188MOL0     C25271  10.023   6.355  11.496 -0.6999  0.0933 -0.6586
  188MOL0     C25272  10.141   6.349  11.570 -0.4951  0.0067 -0.1722
  188MOL0     C25273  10.200   6.465  11.618 -0.1430 -0.3119 -0.0473
  188MOL0     C25274  10.321   6.472  11.699 -0.1034  0.3956  0.0061
  188MOL0     O25275  10.370   6.602  11.711  0.2511 -0.3924  0.1748
  188MOL0     C25276  10.489   6.632  11.772  0.0905  0.7333  0.3397
  188MOL0     C25277  10.542   6.752  11.720 -1.1258  0.0985  0.0747
  188MOL0     C25278  10.672   6.790  11.761 -0.5599 -0.3376 -0.1462
  188MOL0     C25279  10.749   6.723  11.857 -0.0662  0.7031 -0.3353
  188MOL0     O25280  10.869   6.778  11.895  0.1784 -0.2057  0.0691
  188MOL0     C25281  10.873   6.915  11.941 -0.1186 -0.5019  0.4074
  188MOL0     C25282  11.015   6.953  11.949  0.3174  0.7020 -0.2620
  188MOL0     C25283  11.092   6.873  12.052 -0.1081 -0.0668  0.3783
  188MOL0     C25284  11.234   6.926  12.065 -0.3945 -0.5228 -0.1113
  188MOL0     C25285  11.329   6.838  12.147  0.3436 -0.0862 -0.5390
  188MOL0     C25286  11.475   6.894  12.153 -0.0575 -0.0415 -0.6089
  188MOL0     C25287  11.556   6.813  12.247  0.2074  0.2625 -0.3237
  188MOL0     C25288  11.680   6.899  12.277  0.0196  0.4320  0.7088
  188MOL0    Cl25289  11.776   6.826  12.412  0.0285 -0.1151  0.3607
  188MOL0     C25290  10.686   6.614  11.914 -0.6067 -0.2978 -0.8986
  188MOL0     C25291  10.559   6.570  11.873  0.3963  0.1819  0.3918
  188MOL0     O25292  10.378   6.375  11.737 -0.9330 -0.3215 -0.4545
  188MOL0     C25293  10.138   6.589  11.574 -0.6927  0.2418 -0.9378
  188MOL0     C25294  10.025   6.592  11.501 -0.3193  0.8985  1.2758
  188MOL0     N25295   9.263   6.488  11.314 -0.2861  0.2969  0.4713
  188MOL0     N25296   9.158   6.422  11.306 -0.4031 -0.1482 -0.3054
  188MOL0     C25297   9.054   5.386  10.943 -0.2199 -0.1009  0.3535
  188MOL0     C25298   9.029   5.252  10.900 -0.5291  1.1292  0.1699
  188MOL0     C25299   8.879   4.814  10.918 -0.1859 -0.4270  0.9890
  188MOL0     C25300   8.943   4.711  10.990  0.7237 -0.3280 -0.2496
  188MOL0     C25301   8.890   4.574  10.984 -0.8081  0.0248  0.2866
  188MOL0     C25302   8.786   4.538  10.904  0.6409 -0.6001 -0.2787
  188MOL0     O25303   8.741   4.409  10.917  0.2913 -0.0161  0.2438
  188MOL0     C25304   8.603   4.389  10.944  0.0740 -0.1044  0.2641
  188MOL0     C25305   8.574   4.255  11.004 -0.1344 -1.0977  0.3762
  188MOL0     C25306   8.635   4.136  10.917 -0.4721  0.1589  0.3284
  188MOL0     C25307   8.565   3.997  10.947 -0.0804 -0.0348 -0.6692
  188MOL0     C25308   8.645   3.893  10.876  0.4139  0.1818  0.7646
  188MOL0     C25309   8.708   3.808  10.813 -0.8825  0.3385  0.1555
  188MOL0     C25310   8.735   4.643  10.823  0.6471  0.5003 -0.2754
  188MOL0     C25311   8.767   4.776  10.841 -0.5894 -0.5222  0.4665
  188MOL0     C25312   8.705   4.874  10.744  0.2901  0.2732  0.8351
  188MOL0     H25313   8.705   5.227  11.006  0.3356  1.3831  1.3499
  188MOL0     H25314   8.769   5.455  11.116  0.4298  1.2082 -0.5999
  188MOL0     H25315   9.161   5.625  11.124  0.7211  3.1415  1.8607
  188MOL0     H25316   9.116   5.656  10.950  0.9874  4.4566 -0.8850
  188MOL0     H25317   9.016   5.814  11.183 -2.0823  0.9293 -0.9315
  188MOL0     H25318   8.968   5.828  11.010  0.1835  2.1384  0.2556
  188MOL0     H25319   9.124   5.999  11.045  0.7524  0.0687 -0.1219
  188MOL0     H25320   9.206   5.860  10.968 -1.4842 -0.6291 -1.0776
  188MOL0     H25321   9.318   5.804  11.187 -0.8496 -0.4056  0.0362
  188MOL0     H25322   9.356   5.966  11.145 -0.1665 -1.7938 -2.2702
  188MOL0     H25323   9.151   5.882  11.362 -1.1959 -0.9405 -0.3032
  188MOL0     H25324   9.302   5.966  11.385 -0.6219  0.2250 -0.2608
  188MOL0     H25325   9.224   6.171  11.287  0.9065 -0.0643 -0.4256
  188MOL0     H25326   9.070   6.095  11.236 -1.5491  1.2671 -0.2066
  188MOL0     H25327   9.153   6.102  11.528 -0.9230  1.0959  2.1053
  188MOL0     H25328   8.994   6.061  11.451 -0.3314  1.8662 -1.3557
  188MOL0     H25329   8.947   6.281  11.384 -0.5140  0.2922  1.2558
  188MOL0     H25330   8.986   6.288  11.552  1.2600 -0.1767  1.2762
  188MOL0     H25331   9.257   6.369  11.615 -3.2584  0.7053  0.1983
  188MOL0     H25332   9.433   6.660  11.500 -1.9095 -0.3897  3.8947
  188MOL0     H25333   9.483   6.525  11.589  0.7348  1.3049  0.8727
  188MOL0     H25334   9.594   6.422  11.400 -0.7758  0.7276  2.5395
  188MOL0     H25335   9.516   6.543  11.287 -1.6951  0.2674  0.1567
  188MOL0     H25336   9.726   6.618  11.502  0.1592  0.3168 -0.8266
  188MOL0     H25337   9.658   6.727  11.385  0.5301  0.4440 -0.2031
  188MOL0     H25338   9.857   6.666  11.291 -2.1724  2.8284  0.5933
  188MOL0     H25339   9.738   6.555  11.216  1.6590 -1.3042  0.2011
  188MOL0     H25340   9.969   6.265  11.469 -3.1649  0.8551  1.3994
  188MOL0     H25341  10.181   6.253  11.602  2.6272  1.2590  0.0538
  188MOL0     H25342  10.487   6.803  11.641 -0.5403  1.8671  0.7625
  188MOL0     H25343  10.714   6.880  11.717 -2.0850  1.1556  1.2862
  188MOL0     H25344  10.815   6.980  11.875 -1.6736 -3.3625 -1.2410
  188MOL0     H25345  10.826   6.919  12.040 -2.2893 -0.6147 -0.5628
  188MOL0     H25346  11.060   6.941  11.850 -1.4847  3.0761 -1.4842
  188MOL0     H25347  11.016   7.060  11.973  0.2702  0.6415  0.0184
  188MOL0     H25348  11.051   6.885  12.152  0.7551  2.1119  0.5147
  188MOL0     H25349  11.086   6.769  12.017 -3.6229  0.9869 -2.8620
  188MOL0     H25350  11.236   7.026  12.109  2.3599  0.3432 -1.9179
  188MOL0     H25351  11.277   6.942  11.965  1.5705 -1.6742  0.5016
  188MOL0     H25352  11.335   6.737  12.106 -0.0894  0.0770 -1.0092
  188MOL0     H25353  11.298   6.833  12.252  0.5426  1.4088 -0.3930
  188MOL0     H25354  11.519   6.892  12.053 -0.1448  0.3148 -0.6572
  188MOL0     H25355  11.481   7.001  12.176  2.2984 -0.4670  1.0915
  188MOL0     H25356  11.579   6.717  12.200  0.7140  0.3947 -0.3520
  188MOL0     H25357  11.505   6.808  12.344  0.4492  2.5534 -0.0058
  188MOL0     H25358  11.745   6.888  12.189  0.4017  2.1345  0.7489
  188MOL0     H25359  11.647   7.000  12.303 -3.8623 -0.6264  0.4609
  188MOL0     H25360  10.744   6.568  11.993  0.0240 -0.7782 -1.6298
  188MOL0     H25361  10.514   6.480  11.916 -0.2100 -0.8572 -2.2488
  188MOL0     H25362  10.185   6.682  11.604 -1.9565  1.3847 -2.3112
  188MOL0     H25363   9.991   6.689  11.467 -2.6092 -0.5350 -0.8378
  188MOL0     H25364   9.151   5.431  10.926  0.9246 -2.5327  0.0754
  188MOL0     H25365   9.110   5.204  10.847 -0.0701  2.2287 -0.1582
  188MOL0     H25366   9.022   4.715  11.064 -0.8040 -2.1249  1.6261
  188MOL0     H25367   8.925   4.492  11.045 -1.9720 -0.3976  0.4111
  188MOL0     H25368   8.533   4.400  10.860 -0.6636  1.2446  1.0091
  188MOL0     H25369   8.568   4.457  11.022 -1.4383  0.1556 -0.5933
  188MOL0     H25370   8.466   4.241  11.015 -0.3653 -1.1399 -1.5783
  188MOL0     H25371   8.634   4.243  11.095  1.1375  0.5931 -0.1874
  188MOL0     H25372   8.739   4.133  10.951 -0.3744 -3.1325  0.0553
  188MOL0     H25373   8.643   4.169  10.813  0.4860 -0.9151  0.0316
  188MOL0     H25374   8.561   3.975  11.054 -0.3274  1.4811 -0.3354
  188MOL0     H25375   8.457   3.999  10.930 -0.6216 -0.6408  2.1592
  188MOL0     H25376   8.745   3.735  10.744  0.4027  0.0172  1.1443
  188MOL0     H25377   8.660   4.621  10.748  2.0543  2.6879 -2.4514
  188MOL0     H25378   8.610   4.844  10.699 -0.5144  3.4898  0.0975
  188MOL0     H25379   8.676   4.972  10.784 -0.3651  1.6769 -2.6788
  188MOL0     H25380   8.779   4.891  10.666 -0.2505 -1.6850 -0.1658
  189MOL0     O25381   6.606   1.317  11.040 -0.0899 -0.4544  0.4714
  189MOL0     C25382   6.614   1.433  11.073 -0.4511  1.2918  0.4891
  189MOL0     O25383   6.723   1.482  11.128  0.0141  0.4111 -0.4803
  189MOL0     C25384   6.847   1.427  11.132  0.3257 -0.5546  0.8668
  189MOL0     C25385   6.949   1.506  11.184  0.4161 -0.4336 -0.2547
  189MOL0     C25386   7.080   1.462  11.199  0.9954 -0.1747 -0.5292
  189MOL0     C25387   7.110   1.331  11.167  0.5782 -0.1362 -0.1738
  189MOL0     O25388   7.232   1.260  11.177  0.7772 -0.4598 -0.0443
  189MOL0     C25389   7.336   1.329  11.240 -0.5597 -0.3239  0.0450
  189MOL0     C25390   7.457   1.236  11.275 -0.5886  0.6702 -0.0289
  189MOL0     C25391   7.555   1.323  11.358  0.0449 -0.4605  0.7446
  189MOL0     C25392   7.654   1.234  11.440 -0.2799  0.7128  0.8573
  189MOL0     C25393   7.776   1.192  11.363  0.8141  0.9855 -0.1280
  189MOL0     C25394   7.879   1.125  11.450  0.1570  0.0718 -0.7110
  189MOL0     C25395   7.997   1.062  11.372 -0.3065 -0.3863 -0.0543
  189MOL0     C25396   8.127   1.038  11.455 -0.5398 -0.2212 -1.1541
  189MOL0     N25397   8.236   0.998  11.371 -0.1554  0.9253  0.1388
  189MOL0     C25398   8.248   0.888  11.284 -0.7726  0.3519 -0.3305
  189MOL0     C25399   8.365   0.906  11.217 -1.1829  0.0199  0.0455
  189MOL0     C25400   8.432   0.798  11.134  0.7399  0.1306 -0.3064
  189MOL0     C25401   8.345   0.694  11.063  0.1722 -0.2666  0.4229
  189MOL0     C25402   8.414   0.564  11.019  0.4129  0.4446 -0.0717
  189MOL0     C25403   8.551   0.583  10.965  0.3830 -0.6654 -0.3364
  189MOL0     O25404   8.601   0.460  10.917 -0.2137 -0.0886 -0.5867
  189MOL0     C25405   8.720   0.451  10.852  0.1583 -0.3730  0.6511
  189MOL0     C25406   8.734   0.347  10.767 -0.0134 -0.4449  0.6694
  189MOL0     C25407   8.852   0.331  10.695 -0.2906 -0.6348  0.9400
  189MOL0     C25408   8.956   0.418  10.691 -0.3873  0.1430 -0.2150
  189MOL0     C25409   9.089   0.390  10.612 -0.1202  0.6670 -0.1946
  189MOL0     O25410   9.171   0.492  10.591 -0.4223 -0.3673 -0.2311
  189MOL0     C25411   9.273   0.494  10.496  0.5330  0.3795 -0.1360
  189MOL0     C25412   9.405   0.472  10.544 -0.5036  0.6391  0.0615
  189MOL0     C25413   9.522   0.468  10.462 -0.2046 -0.4386  0.3213
  189MOL0     C25414   9.509   0.471  10.320  0.8582 -0.6493 -0.4335
  189MOL0     O25415   9.605   0.465  10.230  0.9174  1.2017  0.7970
  189MOL0     C25416   9.727   0.405  10.244  1.1840  0.0586  0.5283
  189MOL0     C25417   9.798   0.407  10.103  0.3465 -0.2077  0.8968
  189MOL0     C25418   9.937   0.389  10.113  1.3094 -0.7401  0.3374
  189MOL0     C25419  10.012   0.393   9.980  0.6259 -0.2582  0.6643
  189MOL0     C25420  10.164   0.404   9.993 -0.3406 -0.7979  0.6914
  189MOL0     C25421  10.216   0.267  10.036  0.7457  0.8057  0.2822
  189MOL0     C25422  10.363   0.264  10.049 -0.0482 -1.1488  0.0690
  189MOL0     C25423  10.404   0.130  10.108  0.0002  0.0218 -0.2165
  189MOL0    Cl25424  10.587   0.116  10.108  0.5413  0.3503  0.2269
  189MOL0     C25425   9.375   0.497  10.266 -0.0668  0.1840  0.6538
  189MOL0     C25426   9.263   0.498  10.348  0.0724 -0.1252  0.5302
  189MOL0     O25427   9.104   0.278  10.572  0.2014 -0.4346 -0.3792
  189MOL0     C25428   8.945   0.529  10.782 -0.5333  0.5719 -0.2562
  189MOL0     C25429   8.820   0.552  10.858  1.0517  0.2687 -0.0232
  189MOL0     N25430   8.429   1.023  11.260  0.4717 -0.6161 -0.5942
  189MOL0     N25431   8.345   1.076  11.354  0.0258  0.6693 -0.2326
  189MOL0     C25432   7.006   1.257  11.106 -0.4186  0.5941 -0.2080
  189MOL0     C25433   6.878   1.296  11.087 -0.3178  0.3931 -0.5503
  189MOL0     C25434   6.499   1.529  11.062 -1.0382 -0.1895 -0.2506
  189MOL0     C25435   6.514   1.660  11.120  0.1633 -0.2204  1.0828
  189MOL0     C25436   6.410   1.748  11.128  0.1080  0.3844 -0.4072
  189MOL0     C25437   6.288   1.715  11.084  0.2109 -0.3256  0.5568
  189MOL0     O25438   6.206   1.823  11.086 -0.5370  0.5251 -0.1397
  189MOL0     C25439   6.215   1.909  10.973  0.4718  0.3658 -0.3171
  189MOL0     C25440   6.101   2.016  10.975 -0.5423 -0.0238  0.1074
  189MOL0     C25441   5.962   1.957  11.001 -0.7224 -0.2196  0.2648
  189MOL0     C25442   5.868   2.043  10.916 -0.5412 -0.1468  0.3042
  189MOL0     C25443   5.738   1.978  10.931  0.5801 -0.4361  1.1735
  189MOL0     C25444   5.625   1.937  10.921 -0.3741 -0.2737 -0.2257
  189MOL0     C25445   6.270   1.605  11.012 -0.4475  0.2014 -0.7808
  189MOL0     C25446   6.377   1.508  11.000 -0.4261  0.2741  0.3736
  189MOL0     C25447   6.345   1.388  10.920  0.6937  0.4561 -0.1012
  189MOL0     H25448   6.920   1.603  11.223 -0.3843 -1.1466  0.9764
  189MOL0     H25449   7.157   1.530  11.234 -0.1686  0.1573  1.5531
  189MOL0     H25450   7.377   1.409  11.178 -1.2285 -0.5841 -0.7396
  189MOL0     H25451   7.299   1.374  11.332 -3.4103 -0.9014 -0.7449
  189MOL0     H25452   7.503   1.199  11.182 -0.1425 -0.1737  0.5135
  189MOL0     H25453   7.418   1.156  11.338  0.3011 -0.0403 -0.3529
  189MOL0     H25454   7.498   1.385  11.428  1.8269  1.2206  0.7845
  189MOL0     H25455   7.600   1.394  11.288 -1.1578  1.8004  2.1223
  189MOL0     H25456   7.674   1.299  11.526  0.3892  3.6359 -1.3456
  189MOL0     H25457   7.605   1.145  11.481 -1.0584  1.1259  0.8460
  189MOL0     H25458   7.748   1.117  11.289 -1.0280  2.2526 -0.7946
  189MOL0     H25459   7.816   1.274  11.303  2.8402  0.4149  0.3799
  189MOL0     H25460   7.911   1.204  11.519  4.0925 -2.0727  0.1654
  189MOL0     H25461   7.833   1.042  11.504  0.4018 -1.7235 -3.0994
  189MOL0     H25462   8.025   1.133  11.293 -2.0885  2.5849  1.7719
  189MOL0     H25463   7.954   0.971  11.330  0.0881 -1.0259  0.8754
  189MOL0     H25464   8.154   1.132  11.504  0.0857  0.4253 -2.6850
  189MOL0     H25465   8.102   0.959  11.526 -1.5991  0.2806 -0.9481
  189MOL0     H25466   8.192   0.795  11.287  0.3770 -0.4333 -1.8345
  189MOL0     H25467   8.507   0.847  11.071 -0.0793  2.7206  0.5920
  189MOL0     H25468   8.488   0.735  11.203 -1.6437 -2.0084 -0.1604
  189MOL0     H25469   8.260   0.662  11.124  1.0044 -2.1189  0.7101
  189MOL0     H25470   8.311   0.741  10.971  1.5261  0.2393  0.1620
  189MOL0     H25471   8.361   0.521  10.933  1.5191  1.0945 -1.1169
  189MOL0     H25472   8.404   0.489  11.098 -1.5154  1.6570  0.9054
  189MOL0     H25473   8.622   0.621  11.039 -2.4013 -0.7122  2.6080
  189MOL0     H25474   8.552   0.652  10.880  1.4455 -1.4978 -1.0296
  189MOL0     H25475   8.658   0.270  10.758 -1.7424  1.0509  2.0382
  189MOL0     H25476   8.877   0.242  10.638 -2.3412  0.4930 -1.9380
  189MOL0     H25477   9.422   0.461  10.650  2.2755 -4.0239 -0.6036
  189MOL0     H25478   9.620   0.451  10.506  0.2129  0.2976 -0.2967
  189MOL0     H25479   9.788   0.453  10.321  0.9924  0.4568  0.4330
  189MOL0     H25480   9.705   0.301  10.271 -0.6337  0.4303  0.5993
  189MOL0     H25481   9.767   0.323  10.040 -1.8504  1.4816 -0.3989
  189MOL0     H25482   9.774   0.498  10.049 -3.4100 -2.3736 -1.5033
  189MOL0     H25483   9.977   0.467  10.179  1.0998 -0.7072  0.4230
  189MOL0     H25484   9.961   0.294  10.162  1.0849 -0.2000  1.5230
  189MOL0     H25485   9.974   0.482   9.929  4.2441 -0.8433 -3.6246
  189MOL0     H25486   9.966   0.313   9.922 -2.5517  0.6425  1.7041
  189MOL0     H25487  10.191   0.483  10.064 -1.2854 -0.9788  1.2782
  189MOL0     H25488  10.209   0.418   9.895 -0.8939 -0.2149  0.5149
  189MOL0     H25489  10.163   0.241  10.128  0.9761 -2.2190 -0.3404
  189MOL0     H25490  10.188   0.190   9.963  1.3286  1.7875 -1.0321
  189MOL0     H25491  10.389   0.353  10.106 -1.3634 -1.3289  0.9955
  189MOL0     H25492  10.407   0.259   9.949 -1.3221  1.4743 -0.6899
  189MOL0     H25493  10.349   0.119  10.201  0.0714 -0.2115 -0.2028
  189MOL0     H25494  10.368   0.060  10.033 -0.0939  2.2872 -2.4554
  189MOL0     H25495   9.375   0.514  10.159  0.7452 -2.2148  0.1931
  189MOL0     H25496   9.174   0.525  10.292 -0.5142 -4.6914 -1.1847
  189MOL0     H25497   9.030   0.596  10.787 -0.1644  0.0785  0.1823
  189MOL0     H25498   8.792   0.635  10.923  0.4717  0.4763 -0.5268
  189MOL0     H25499   7.027   1.157  11.070 -1.3404  1.0198 -2.0449
  189MOL0     H25500   6.808   1.225  11.046  0.2459 -1.2170  1.1443
  189MOL0     H25501   6.607   1.698  11.160  1.1221  0.3433 -1.5109
  189MOL0     H25502   6.433   1.849  11.161 -2.3162  0.3164  1.8291
  189MOL0     H25503   6.195   1.860  10.878 -1.2116  1.2863 -0.4628
  189MOL0     H25504   6.312   1.960  10.971  0.4646  0.5337  1.6291
  189MOL0     H25505   6.100   2.079  10.885 -4.5811 -0.8742 -0.6435
  189MOL0     H25506   6.125   2.084  11.058 -4.4264  3.5262 -1.2717
  189MOL0     H25507   5.942   1.972  11.107 -2.6547  0.6808 -0.1809
  189MOL0     H25508   5.959   1.852  10.969 -0.7905 -1.0299  2.7139
  189MOL0     H25509   5.868   2.150  10.942  3.2412  0.8696 -2.9243
  189MOL0     H25510   5.894   2.033  10.810  0.5130 -1.6855  0.6813
  189MOL0     H25511   5.521   1.937  10.894 -1.1547  3.3469  2.0069
  189MOL0     H25512   6.176   1.583  10.963 -1.3753  0.2520  0.9049
  189MOL0     H25513   6.239   1.382  10.892  0.6550 -1.5394  0.3438
  189MOL0     H25514   6.399   1.405  10.827  3.3186 -0.1142  1.2172
  189MOL0     H25515   6.378   1.289  10.953 -1.8049 -1.3710 -2.6299
  190MOL0     O25516   4.257   4.082   5.692 -0.8617  0.0605  0.0860
  190MOL0     C25517   4.343   4.000   5.699 -0.2757  0.8128 -0.2568
  190MOL0     O25518   4.326   3.865   5.745  0.0005 -0.3739  0.9604
  190MOL0     C25519   4.209   3.827   5.806  0.4980 -0.4668  0.1099
  190MOL0     C25520   4.149   3.714   5.747  0.4058 -0.1839  0.1255
  190MOL0     C25521   4.027   3.673   5.795 -0.4910 -0.4901  1.1583
  190MOL0     C25522   3.983   3.734   5.915 -0.5974  0.0781 -0.2724
  190MOL0     O25523   3.868   3.682   5.971 -0.3518 -0.2882 -0.7110
  190MOL0     C25524   3.756   3.643   5.890  0.0384  0.5835 -0.0134
  190MOL0     C25525   3.624   3.625   5.968  0.9059  0.1200  0.4442
  190MOL0     C25526   3.528   3.578   5.858 -0.7991  0.4931  0.2724
  190MOL0     C25527   3.387   3.578   5.922  0.1663 -0.1151  0.1429
  190MOL0     C25528   3.356   3.461   6.011 -0.2518  0.2920  0.0250
  190MOL0     C25529   3.354   3.323   5.936 -0.1694 -0.8307  0.2359
  190MOL0     C25530   3.290   3.214   6.019 -0.8139  0.0273 -0.0800
  190MOL0     C25531   3.348   3.179   6.154 -0.8421 -0.9671 -0.1512
  190MOL0     N25532   3.493   3.164   6.151  0.3979  0.1716  0.3642
  190MOL0     C25533   3.586   3.259   6.186  0.3292  0.4291 -0.7275
  190MOL0     C25534   3.708   3.207   6.178 -0.2891 -0.3411 -0.0917
  190MOL0     C25535   3.833   3.291   6.214 -0.2375 -0.1895 -0.2267
  190MOL0     C25536   3.915   3.309   6.086 -0.2641  0.0035 -0.6218
  190MOL0     C25537   4.051   3.367   6.126 -0.5024  0.6210 -1.0058
  190MOL0     C25538   4.156   3.325   6.028  0.5392 -0.0402 -0.5555
  190MOL0     O25539   4.277   3.383   6.069 -0.4070  0.2988 -0.1389
  190MOL0     C25540   4.371   3.414   5.981 -0.0108 -0.3229  0.2763
  190MOL0     C25541   4.466   3.503   6.027  1.1504  0.3123 -0.5218
  190MOL0     C25542   4.573   3.553   5.949  0.0688 -0.2991  0.6100
  190MOL0     C25543   4.588   3.516   5.818  0.0468  0.8355  0.4165
  190MOL0     C25544   4.692   3.585   5.741 -0.1185  1.0270 -0.8342
  190MOL0     O25545   4.680   3.574   5.607  0.1240  0.5304 -0.3243
  190MOL0     C25546   4.790   3.593   5.521  1.3474 -1.1002 -0.8665
  190MOL0     C25547   4.926   3.574   5.560 -0.5305 -0.3055  0.4859
  190MOL0     C25548   5.039   3.606   5.473 -0.3787 -1.2297 -0.5528
  190MOL0     C25549   5.004   3.631   5.336  0.7815 -0.2885 -0.8809
  190MOL0     O25550   5.110   3.643   5.254  0.1221 -0.1967 -0.0300
  190MOL0     C25551   5.079   3.632   5.118  0.2097 -0.7631  0.2256
  190MOL0     C25552   5.210   3.630   5.044  0.4748  0.1882  0.2184
  190MOL0     C25553   5.286   3.767   5.051 -0.3306  0.0426 -0.5112
  190MOL0     C25554   5.427   3.766   4.981  0.0250  0.6625 -0.2792
  190MOL0     C25555   5.512   3.886   5.006 -1.1210  0.7774 -0.4316
  190MOL0     C25556   5.587   3.890   5.141  0.1684  0.6365  0.1171
  190MOL0     C25557   5.681   4.006   5.155  0.4089  0.0323 -0.7665
  190MOL0     C25558   5.609   4.138   5.177 -0.0667 -0.4896  0.0070
  190MOL0    Cl25559   5.721   4.269   5.187 -0.5179 -0.0258 -0.1313
  190MOL0     C25560   4.866   3.647   5.302 -0.0536 -0.2701 -0.0171
  190MOL0     C25561   4.755   3.631   5.398  0.1570 -0.0374  0.4382
  190MOL0     O25562   4.768   3.657   5.801 -0.1534 -0.3044  0.9734
  190MOL0     C25563   4.497   3.418   5.772  0.5312 -0.1290 -0.5047
  190MOL0     C25564   4.388   3.367   5.852  0.5828  0.1154  0.3724
  190MOL0     N25565   3.691   3.074   6.131 -0.1082 -0.5231 -0.7498
  190MOL0     N25566   3.571   3.061   6.099  0.9141  0.5474  0.0609
  190MOL0     C25567   4.050   3.838   5.984 -0.3741 -0.4649 -0.3979
  190MOL0     C25568   4.157   3.899   5.916  0.7869  0.3862  0.2146
  190MOL0     C25569   4.476   4.027   5.628 -0.8557  0.2404 -0.2353
  190MOL0     C25570   4.568   3.918   5.610 -0.5085  0.1550 -0.2733
  190MOL0     C25571   4.699   3.932   5.576  0.1258 -0.3574  0.9105
  190MOL0     C25572   4.747   4.058   5.531  0.4273  0.5804  0.4162
  190MOL0     O25573   4.879   4.080   5.490  0.3396 -1.0549 -0.2456
  190MOL0     C25574   4.965   3.969   5.461  0.4138  0.0005  0.1313
  190MOL0     C25575   5.097   4.020   5.417 -0.6224  0.7145  0.0824
  190MOL0     C25576   5.084   4.123   5.306  0.7736 -0.3564  0.0169
  190MOL0     C25577   5.219   4.173   5.252  0.4775  0.1869  0.4463
  190MOL0     C25578   5.212   4.264   5.133 -0.4272 -0.1370 -0.0788
  190MOL0     C25579   5.201   4.323   5.027  0.3662  0.0672 -0.5989
  190MOL0     C25580   4.657   4.163   5.534  0.0654 -0.3687 -0.3165
  190MOL0     C25581   4.522   4.154   5.588 -0.2094  0.4623  0.6136
  190MOL0     C25582   4.441   4.280   5.595  0.3857 -0.4439  0.8178
  190MOL0     H25583   4.188   3.650   5.668  0.1540 -0.9999  0.6478
  190MOL0     H25584   3.978   3.580   5.766  2.7036 -2.4214  1.4255
  190MOL0     H25585   3.745   3.701   5.798 -0.2556 -3.5594 -2.8786
  190MOL0     H25586   3.789   3.545   5.853 -1.2520 -0.1461  0.6695
  190MOL0     H25587   3.589   3.716   6.017 -0.9338 -0.7913  0.9174
  190MOL0     H25588   3.641   3.547   6.043  0.3628 -0.9054 -0.4756
  190MOL0     H25589   3.552   3.477   5.821  0.9912  0.3069  1.8182
  190MOL0     H25590   3.539   3.646   5.773 -0.4744  1.8733  1.3862
  190MOL0     H25591   3.368   3.670   5.976 -0.7416 -1.6349  2.5524
  190MOL0     H25592   3.311   3.571   5.844  1.2655  1.0801 -1.0896
  190MOL0     H25593   3.440   3.470   6.081  1.4461 -0.4996 -1.8237
  190MOL0     H25594   3.261   3.460   6.065 -0.7062  0.1756 -0.7657
  190MOL0     H25595   3.287   3.348   5.853  3.0023  1.7607 -1.8245
  190MOL0     H25596   3.448   3.289   5.891  1.0643  1.3053  1.0479
  190MOL0     H25597   3.309   3.116   5.974  2.9545  1.0753 -1.1950
  190MOL0     H25598   3.183   3.231   6.026 -0.7475  0.0001  1.1577
  190MOL0     H25599   3.331   3.264   6.221  3.8260  1.2464 -1.3585
  190MOL0     H25600   3.305   3.089   6.198 -0.3028 -0.7793  0.7908
  190MOL0     H25601   3.562   3.355   6.230  1.5445 -0.0386  1.0666
  190MOL0     H25602   3.803   3.391   6.247 -2.1115 -0.1681 -1.8215
  190MOL0     H25603   3.887   3.249   6.299  2.6170  2.5351 -0.5116
  190MOL0     H25604   3.923   3.211   6.037 -0.4659 -0.0886 -0.4707
  190MOL0     H25605   3.871   3.376   6.012  0.5909  1.1116 -0.1625
  190MOL0     H25606   4.084   3.334   6.225  1.2014  4.5994 -0.0474
  190MOL0     H25607   4.053   3.476   6.137  0.7487  0.6105 -0.9921
  190MOL0     H25608   4.130   3.357   5.927 -1.0213 -1.4456 -0.6329
  190MOL0     H25609   4.161   3.216   6.030 -2.8530 -0.2814  0.6348
  190MOL0     H25610   4.453   3.531   6.131 -0.5848  2.8134 -1.3143
  190MOL0     H25611   4.638   3.622   6.001 -0.3034  1.3606 -1.0241
  190MOL0     H25612   4.951   3.533   5.658  1.1035 -0.6015 -0.0328
  190MOL0     H25613   5.138   3.598   5.517 -0.2220  1.7996 -0.1770
  190MOL0     H25614   5.017   3.542   5.104  1.2902 -1.4027 -0.5529
  190MOL0     H25615   5.021   3.723   5.100  2.3902  0.7765  0.6592
  190MOL0     H25616   5.271   3.551   5.089 -0.4782 -1.0425 -0.5618
  190MOL0     H25617   5.189   3.615   4.938 -0.3171  1.8720  0.1048
  190MOL0     H25618   5.230   3.842   4.995 -2.5585 -2.3118 -1.6808
  190MOL0     H25619   5.298   3.799   5.155 -1.1968 -0.0083 -0.3836
  190MOL0     H25620   5.407   3.749   4.875  1.0120 -1.1861 -0.2135
  190MOL0     H25621   5.484   3.679   5.015 -0.3236 -0.4795 -2.4707
  190MOL0     H25622   5.444   3.971   4.997 -1.3665  0.4657 -1.7843
  190MOL0     H25623   5.583   3.899   4.923 -0.1894  1.2064  0.4067
  190MOL0     H25624   5.508   3.895   5.216  1.4296  4.5309  1.4518
  190MOL0     H25625   5.648   3.801   5.158  1.4646  1.3773 -0.5021
  190MOL0     H25626   5.753   4.004   5.072  0.6344 -0.2728 -0.5627
  190MOL0     H25627   5.735   4.001   5.250  0.4798  1.4052 -0.7066
  190MOL0     H25628   5.543   4.157   5.092  0.7577 -1.8998 -1.0175
  190MOL0     H25629   5.540   4.134   5.262 -0.6145 -1.2926 -0.4541
  190MOL0     H25630   4.831   3.668   5.202  1.5318  0.3270 -0.4634
  190MOL0     H25631   4.651   3.647   5.374  0.1625 -0.0138  0.4309
  190MOL0     H25632   4.524   3.381   5.674  2.5326  3.0626 -1.2877
  190MOL0     H25633   4.341   3.292   5.790  1.7419  1.0719 -1.8014
  190MOL0     H25634   4.010   3.863   6.082  1.3704 -0.8819  0.4533
  190MOL0     H25635   4.193   3.996   5.948 -1.3940  0.0099  4.6230
  190MOL0     H25636   4.528   3.822   5.644 -0.0362  0.0358 -0.0504
  190MOL0     H25637   4.772   3.852   5.576 -0.0471 -0.6458 -2.1669
  190MOL0     H25638   4.922   3.913   5.378  0.0913 -1.1703  1.0707
  190MOL0     H25639   4.987   3.914   5.553 -0.8737 -0.9860 -0.1300
  190MOL0     H25640   5.154   3.933   5.385 -1.1184 -0.4284  2.1119
  190MOL0     H25641   5.140   4.065   5.508  3.5480 -0.7733 -0.9175
  190MOL0     H25642   5.042   4.209   5.359 -0.8144 -0.2438 -1.3676
  190MOL0     H25643   5.011   4.096   5.230  0.6634 -3.4831  1.1051
  190MOL0     H25644   5.264   4.225   5.337 -1.1275 -3.3591  3.7768
  190MOL0     H25645   5.288   4.090   5.230  1.1065  1.5610 -3.4892
  190MOL0     H25646   5.209   4.395   4.947  1.6973  1.3552  0.6209
  190MOL0     H25647   4.692   4.256   5.490 -1.1237  0.8446  1.1905
  190MOL0     H25648   4.410   4.291   5.699 -2.5130 -0.7480  0.0825
  190MOL0     H25649   4.507   4.364   5.573 -1.9623  2.0766  2.8022
  190MOL0     H25650   4.348   4.279   5.537 -0.1407  2.1262  1.5263
  191MOL0     O25651   6.625   7.947   4.818 -0.0998 -0.1846 -0.0515
  191MOL0     C25652   6.554   7.917   4.723  0.3906  0.5715 -1.0266
  191MOL0     O25653   6.592   7.902   4.598  0.2281 -0.4262 -0.3727
  191MOL0     C25654   6.723   7.907   4.559 -0.1677  0.7735 -0.8087
  191MOL0     C25655   6.772   7.975   4.456 -0.5619 -0.4134  0.4450
  191MOL0     C25656   6.903   7.966   4.410  0.2975 -0.7896  0.3719
  191MOL0     C25657   7.004   7.898   4.475  0.1616  0.2911 -0.5924
  191MOL0     O25658   7.138   7.889   4.432 -0.7606  0.5014  0.0244
  191MOL0     C25659   7.195   7.997   4.362 -0.1385 -0.5501  0.0520
  191MOL0     C25660   7.348   8.000   4.380 -0.3125  0.3048 -0.8833
  191MOL0     C25661   7.394   8.086   4.499  0.9373  0.5402 -0.8435
  191MOL0     C25662   7.546   8.100   4.496  0.2375  0.0342 -0.2505
  191MOL0     C25663   7.617   7.974   4.537 -0.2754  0.3758  0.2577
  191MOL0     C25664   7.775   8.006   4.547  0.2293 -0.5709 -0.3068
  191MOL0     C25665   7.865   7.909   4.628  1.1612 -0.4212 -0.5730
  191MOL0     C25666   8.014   7.930   4.625 -1.4746 -0.5037 -0.4504
  191MOL0     N25667   8.072   7.902   4.488  0.4029 -0.2139  0.9098
  191MOL0     C25668   8.115   8.001   4.400 -0.1654 -0.0142  0.5732
  191MOL0     C25669   8.136   7.932   4.284  0.1815 -0.5930  0.1030
  191MOL0     C25670   8.203   7.987   4.161 -0.0834 -0.1175 -0.2708
  191MOL0     C25671   8.350   7.942   4.166  0.1484 -0.0936 -0.4234
  191MOL0     C25672   8.419   7.989   4.290 -0.5905 -0.9279  0.1711
  191MOL0     C25673   8.566   7.964   4.285 -0.0206  0.0022 -0.2831
  191MOL0     O25674   8.607   7.835   4.244 -0.0176  0.8473  0.5097
  191MOL0     C25675   8.734   7.799   4.265  0.6400 -0.6636 -0.1081
  191MOL0     C25676   8.843   7.874   4.314  0.0203  0.2798  0.6883
  191MOL0     C25677   8.971   7.832   4.306 -0.1890 -0.1141  0.0835
  191MOL0     C25678   8.994   7.707   4.245 -0.1533  0.1939  0.3528
  191MOL0     C25679   9.135   7.665   4.219  0.3996 -0.1069 -0.0492
  191MOL0     O25680   9.231   7.760   4.247 -1.2204 -0.1213  0.6825
  191MOL0     C25681   9.352   7.755   4.186  0.2104  0.2539 -1.0246
  191MOL0     C25682   9.383   7.771   4.053 -0.3163  0.4309  0.4781
  191MOL0     C25683   9.515   7.787   4.009 -0.4236  0.5189  0.0191
  191MOL0     C25684   9.625   7.779   4.102  0.8022  0.3555 -0.0940
  191MOL0     O25685   9.749   7.819   4.074  0.1957 -0.3777  0.3483
  191MOL0     C25686   9.822   7.895   4.179 -0.3857  0.3450  0.0473
  191MOL0     C25687   9.957   7.936   4.120  0.3248 -0.4484  0.0117
  191MOL0     C25688  10.025   8.043   4.204  0.1294  0.5705  0.7649
  191MOL0     C25689  10.000   8.189   4.147  0.3469 -0.3682  0.9722
  191MOL0     C25690  10.064   8.284   4.247  0.6235 -0.0443  0.6615
  191MOL0     C25691  10.068   8.442   4.204  0.3791  0.0200  0.0058
  191MOL0     C25692   9.932   8.492   4.134 -0.3365 -0.3515  0.3255
  191MOL0     C25693   9.939   8.646   4.123  0.1085 -0.4576 -0.0431
  191MOL0    Cl25694   9.787   8.696   4.051  0.3199 -0.0910  0.4488
  191MOL0     C25695   9.589   7.743   4.234 -0.6985  0.1527  0.4855
  191MOL0     C25696   9.457   7.727   4.280 -0.2816 -0.5342  0.9757
  191MOL0     O25697   9.163   7.554   4.178  0.8327  0.1334  0.2255
  191MOL0     C25698   8.889   7.623   4.204  0.1156  0.9861  0.2441
  191MOL0     C25699   8.761   7.673   4.217 -0.6048 -0.4653  0.9543
  191MOL0     N25700   8.089   7.800   4.310  0.7442 -0.0532  0.3017
  191MOL0     N25701   8.048   7.786   4.430  0.0123 -0.0176 -0.6800
  191MOL0     C25702   6.965   7.822   4.586 -0.2062 -1.1395 -1.3864
  191MOL0     C25703   6.825   7.829   4.628 -1.1824  0.6657  1.0383
  191MOL0     C25704   6.410   7.911   4.743 -0.1145 -0.7102  0.5685
  191MOL0     C25705   6.327   7.906   4.625 -0.5950  0.2891 -0.2958
  191MOL0     C25706   6.194   7.898   4.638 -0.2094  0.4938  0.5842
  191MOL0     C25707   6.129   7.892   4.764 -0.4369 -0.3197  0.8682
  191MOL0     O25708   5.994   7.873   4.763 -0.5432 -0.2873 -0.4014
  191MOL0     C25709   5.926   7.848   4.891  0.7451 -0.2308  0.9201
  191MOL0     C25710   5.777   7.826   4.872 -0.8206  0.0268 -0.9111
  191MOL0     C25711   5.697   7.947   4.819  0.9593  0.2345  0.2410
  191MOL0     C25712   5.547   7.910   4.799  0.1858  0.6296 -0.0459
  191MOL0     C25713   5.531   7.822   4.689  0.4452 -0.1289  0.1514
  191MOL0     C25714   5.514   7.740   4.603  0.5419  0.0284  0.7816
  191MOL0     C25715   6.212   7.902   4.878 -0.3376 -0.3072 -0.4318
  191MOL0     C25716   6.350   7.915   4.870 -0.7252  0.3363 -0.5288
  191MOL0     C25717   6.426   7.901   5.004  0.9506  0.5335  0.2047
  191MOL0     H25718   6.704   8.047   4.413 -0.1553 -0.0226  0.4503
  191MOL0     H25719   6.928   7.994   4.308 -1.5066 -2.7222 -0.6780
  191MOL0     H25720   7.169   7.993   4.256 -0.0590  0.7011 -0.0326
  191MOL0     H25721   7.156   8.092   4.401 -0.7777 -1.0155  0.5735
  191MOL0     H25722   7.399   8.034   4.290  2.1031 -1.1752 -0.1768
  191MOL0     H25723   7.375   7.895   4.400  2.9298  1.4955  2.1213
  191MOL0     H25724   7.372   8.045   4.598 -0.3105  2.8023 -0.0985
  191MOL0     H25725   7.348   8.185   4.506 -2.3152 -0.8821 -0.1845
  191MOL0     H25726   7.573   8.118   4.392  1.1795 -1.5729 -0.3207
  191MOL0     H25727   7.582   8.176   4.566  0.5439  0.8673 -1.2958
  191MOL0     H25728   7.582   7.934   4.633  1.9325  0.0447  1.0064
  191MOL0     H25729   7.610   7.895   4.461 -0.6464 -0.8189  1.4827
  191MOL0     H25730   7.823   7.995   4.450 -1.3578 -4.4717 -0.8292
  191MOL0     H25731   7.800   8.107   4.583  1.2291 -1.6817  2.3404
  191MOL0     H25732   7.844   7.809   4.588 -0.5732  0.1913 -1.3059
  191MOL0     H25733   7.830   7.917   4.731 -0.4132 -1.3352 -0.9902
  191MOL0     H25734   8.045   8.026   4.668 -3.2455 -1.3107  2.9759
  191MOL0     H25735   8.067   7.868   4.698 -0.7252 -1.0135 -1.3975
  191MOL0     H25736   8.134   8.106   4.422 -3.8618  1.0048 -0.3772
  191MOL0     H25737   8.137   7.950   4.081 -0.2252  0.7381 -0.5617
  191MOL0     H25738   8.209   8.096   4.155 -1.0773  0.0034  0.5934
  191MOL0     H25739   8.345   7.833   4.158  0.6912  0.0120 -3.2211
  191MOL0     H25740   8.394   7.980   4.073  1.9534 -1.7750 -0.3241
  191MOL0     H25741   8.375   7.937   4.376  1.8125 -0.5627  1.7016
  191MOL0     H25742   8.399   8.095   4.308  1.4110  0.1202 -2.9471
  191MOL0     H25743   8.603   7.977   4.388 -2.7283 -3.8067  1.4191
  191MOL0     H25744   8.621   8.034   4.221  0.6944 -3.1854 -3.4674
  191MOL0     H25745   8.829   7.973   4.355  3.6358  0.9588  0.6644
  191MOL0     H25746   9.048   7.889   4.357  0.3836 -0.6699 -0.1524
  191MOL0     H25747   9.303   7.782   3.981 -0.4463 -1.9638  0.1662
  191MOL0     H25748   9.532   7.817   3.906 -2.0075 -0.0337 -0.4272
  191MOL0     H25749   9.758   7.979   4.208 -0.5742  0.1617  0.1701
  191MOL0     H25750   9.851   7.835   4.266  0.2224  0.3761 -0.1327
  191MOL0     H25751  10.015   7.843   4.126 -1.2094 -1.3963  1.3086
  191MOL0     H25752   9.959   7.953   4.012  2.0469 -1.7948 -0.2073
  191MOL0     H25753   9.977   8.040   4.302 -0.7759 -1.3087  0.3219
  191MOL0     H25754  10.133   8.027   4.213  0.3751  0.9668 -0.9937
  191MOL0     H25755   9.893   8.214   4.143  0.9245  2.2667  0.1807
  191MOL0     H25756  10.043   8.197   4.047  1.5427  1.6992  1.5812
  191MOL0     H25757  10.167   8.259   4.275  0.8962 -0.3498 -0.5535
  191MOL0     H25758  10.004   8.265   4.336 -2.3841 -3.3569 -1.7914
  191MOL0     H25759  10.081   8.512   4.287  0.1910 -0.3989  0.3983
  191MOL0     H25760  10.152   8.477   4.144 -0.8347  0.3643 -1.5364
  191MOL0     H25761   9.850   8.466   4.202 -1.5162  1.7080 -0.2020
  191MOL0     H25762   9.915   8.436   4.041 -0.4032 -2.0066  1.2916
  191MOL0     H25763   9.951   8.686   4.224 -0.4291  1.4654 -0.6882
  191MOL0     H25764  10.024   8.677   4.062  0.5898 -1.9918 -0.1881
  191MOL0     H25765   9.662   7.747   4.314  0.2343 -1.2523 -0.2529
  191MOL0     H25766   9.434   7.700   4.382 -0.9150 -0.4939  0.8459
  191MOL0     H25767   8.907   7.532   4.148 -1.2736  1.3089 -0.8113
  191MOL0     H25768   8.683   7.613   4.172 -0.2516  0.6201 -1.2357
  191MOL0     H25769   7.024   7.762   4.654 -3.4100 -1.4577  1.3477
  191MOL0     H25770   6.801   7.775   4.719  1.8477 -0.6986  1.1379
  191MOL0     H25771   6.363   7.898   4.523 -0.5346 -0.7725 -0.2028
  191MOL0     H25772   6.135   7.887   4.547 -0.3004  2.5757  0.3513
  191MOL0     H25773   5.940   7.931   4.960 -0.8023  0.2534  0.7026
  191MOL0     H25774   5.958   7.757   4.942 -1.3684 -0.7674  1.4140
  191MOL0     H25775   5.747   7.795   4.973  0.2190  0.3923 -0.4789
  191MOL0     H25776   5.753   7.734   4.818 -0.9984  0.6067 -1.8383
  191MOL0     H25777   5.746   7.996   4.735 -2.4799  0.4340 -1.8581
  191MOL0     H25778   5.688   8.021   4.899 -0.8915 -0.2425  0.5392
  191MOL0     H25779   5.518   7.849   4.885  2.3437 -0.5926 -0.1039
  191MOL0     H25780   5.489   8.002   4.792  0.0605  0.6612  1.1604
  191MOL0     H25781   5.505   7.649   4.548 -0.1124  0.0370  0.8630
  191MOL0     H25782   6.173   7.898   4.979 -1.5141 -0.8692 -0.8847
  191MOL0     H25783   6.511   7.835   4.983  0.7884 -0.0950  1.4474
  191MOL0     H25784   6.467   7.995   5.043 -0.7126  0.0668  3.4343
  191MOL0     H25785   6.369   7.857   5.086  2.3142 -2.3414 -0.2604
  192MOL0     O25786   5.113   0.312   0.110 -0.5663 -0.1602 -0.3819
  192MOL0     C25787   5.051   0.403   0.158  0.0574  0.5440  0.9224
  192MOL0     O25788   5.088   0.533   0.175 -0.0985  0.6383 -0.4691
  192MOL0     C25789   5.207   0.581   0.132  0.0213  0.8065  0.2835
  192MOL0     C25790   5.323   0.524   0.194 -0.2932  0.6543 -0.3694
  192MOL0     C25791   5.451   0.568   0.151 -0.5847  0.3506  0.8979
  192MOL0     C25792   5.461   0.673   0.054 -0.1525  0.3853 -0.3064
  192MOL0     O25793   5.582   0.712   0.008  0.1297 -0.3934  0.2928
  192MOL0     C25794   5.677   0.753   0.108 -0.6645 -0.2142 -0.3546
  192MOL0     C25795   5.816   0.718   0.055 -0.2515 -0.1900  0.1710
  192MOL0     C25796   5.857   0.791  -0.074  0.0677  0.4072 -0.1323
  192MOL0     C25797   5.997   0.757  -0.123  0.1658 -0.1257  0.3121
  192MOL0     C25798   6.091   0.840  -0.040  0.3680  0.8069  0.2541
  192MOL0     C25799   6.240   0.812  -0.054 -0.1309  0.0371 -0.0866
  192MOL0     C25800   6.290   0.679   0.022  0.2329 -0.9377  1.0516
  192MOL0     C25801   6.427   0.685   0.082  0.2388 -0.8381 -0.9702
  192MOL0     N25802   6.534   0.702  -0.010 -0.6683  1.1285  0.1995
  192MOL0     C25803   6.578   0.811  -0.068 -0.3659 -0.3288 -0.0613
  192MOL0     C25804   6.661   0.772  -0.168 -0.1615 -0.4423  0.0267
  192MOL0     C25805   6.732   0.866  -0.256 -1.1785 -1.0402  1.0023
  192MOL0     C25806   6.884   0.832  -0.278 -0.4337  0.4606 -0.2702
  192MOL0     C25807   6.903   0.718  -0.375 -0.0377  0.6995  0.7176
  192MOL0     C25808   7.046   0.704  -0.418 -0.1470 -0.7382 -0.4261
  192MOL0     O25809   7.063   0.629  -0.539  0.6145  0.8280 -0.3650
  192MOL0     C25810   7.183   0.630  -0.609  0.2421 -0.4402  0.2646
  192MOL0     C25811   7.291   0.714  -0.583 -0.0004 -0.0672 -0.6452
  192MOL0     C25812   7.401   0.715  -0.670  0.3105  0.2604 -0.0389
  192MOL0     C25813   7.410   0.631  -0.783  0.0152  0.3734  0.0234
  192MOL0     C25814   7.534   0.627  -0.866  0.7945  0.0696 -0.6863
  192MOL0     O25815   7.628   0.715  -0.829 -0.6027 -0.2448 -0.0797
  192MOL0     C25816   7.736   0.751  -0.910  0.8263  0.2267  0.6713
  192MOL0     C25817   7.732   0.766  -1.054 -1.0025  0.0299  0.3968
  192MOL0     C25818   7.850   0.811  -1.126  0.3049  0.3168  1.0235
  192MOL0     C25819   7.971   0.833  -1.061 -0.3031  0.1589  0.5298
  192MOL0     O25820   8.087   0.891  -1.120  0.8711  0.9580 -0.1374
  192MOL0     C25821   8.086   0.923  -1.261 -0.1244  1.3256 -0.1409
  192MOL0     C25822   8.212   0.987  -1.317 -0.7031  0.0666 -0.2083
  192MOL0     C25823   8.345   0.904  -1.315  1.0281  0.0208 -0.2735
  192MOL0     C25824   8.331   0.756  -1.367 -0.2017  0.1851  0.0986
  192MOL0     C25825   8.445   0.669  -1.324  0.4144  0.3512 -0.1035
  192MOL0     C25826   8.463   0.546  -1.399 -0.0850 -0.0048  0.0526
  192MOL0     C25827   8.561   0.459  -1.312  0.3813  0.3293 -0.0506
  192MOL0     C25828   8.596   0.318  -1.367 -0.0942  0.8573  0.0477
  192MOL0    Cl25829   8.679   0.330  -1.518  0.2203 -0.1710 -0.0629
  192MOL0     C25830   7.970   0.819  -0.919 -0.0493 -0.2959  0.8506
  192MOL0     C25831   7.853   0.778  -0.849  0.2364 -0.1501 -0.5097
  192MOL0     O25832   7.537   0.560  -0.965  0.2636  0.2263  0.1014
  192MOL0     C25833   7.297   0.542  -0.808 -0.4132 -0.0665  0.9356
  192MOL0     C25834   7.180   0.550  -0.723  0.1118  0.1331 -1.0353
  192MOL0     N25835   6.681   0.637  -0.146 -0.1752 -0.3299 -0.4829
  192MOL0     N25836   6.607   0.595  -0.054 -0.0533  0.5069 -0.4420
  192MOL0     C25837   5.343   0.728   0.008  0.1609  0.1922  0.5940
  192MOL0     C25838   5.225   0.688   0.049  0.0129 -0.2454  0.3622
  192MOL0     C25839   4.917   0.368   0.207 -0.5271  0.7302 -0.2779
  192MOL0     C25840   4.863   0.442   0.309 -0.4877  0.1331 -0.7398
  192MOL0     C25841   4.739   0.407   0.360 -0.1452 -0.7543 -0.2718
  192MOL0     C25842   4.672   0.290   0.317 -0.4112 -0.3963  0.4876
  192MOL0     O25843   4.554   0.256   0.369 -0.3674  0.5167  0.1982
  192MOL0     C25844   4.471   0.345   0.451  0.0096  0.2746 -0.3576
  192MOL0     C25845   4.377   0.263   0.537  0.3525 -1.0670  0.1643
  192MOL0     C25846   4.324   0.361   0.642 -0.8516  0.2934 -0.8333
  192MOL0     C25847   4.178   0.406   0.616  0.5771  0.2301  0.2894
  192MOL0     C25848   4.079   0.292   0.615  0.3394 -0.2022  0.7044
  192MOL0     C25849   4.003   0.197   0.620  0.4340 -0.4505  0.9135
  192MOL0     C25850   4.724   0.219   0.215 -0.4637  0.1014 -1.0680
  192MOL0     C25851   4.846   0.256   0.155 -0.0882  0.4898 -0.3748
  192MOL0     C25852   4.887   0.163   0.043 -0.4794  0.0582 -0.1671
  192MOL0     H25853   5.322   0.449   0.272 -2.5172  0.0383 -0.9221
  192MOL0     H25854   5.536   0.528   0.205  0.3500  2.1193  0.8246
  192MOL0     H25855   5.690   0.862   0.106 -1.9319 -0.0494 -2.0251
  192MOL0     H25856   5.657   0.715   0.208  0.4445 -1.1117 -0.4505
  192MOL0     H25857   5.834   0.611   0.043  2.2793  0.2259 -0.4581
  192MOL0     H25858   5.887   0.749   0.132 -1.2382  1.4947  0.4409
  192MOL0     H25859   5.850   0.899  -0.058  1.3741  0.1942  2.5535
  192MOL0     H25860   5.780   0.768  -0.148 -0.2398 -0.3865  0.4287
  192MOL0     H25861   6.019   0.651  -0.111  0.2646 -0.1234  0.1486
  192MOL0     H25862   5.996   0.779  -0.230  1.1171  0.4494  0.4116
  192MOL0     H25863   6.075   0.943  -0.073  2.5199  0.8260 -0.8804
  192MOL0     H25864   6.076   0.838   0.069  1.1799  4.4901  0.5443
  192MOL0     H25865   6.275   0.808  -0.157  2.4293 -2.0325  0.7594
  192MOL0     H25866   6.281   0.909  -0.025 -0.2387  0.5947 -1.6888
  192MOL0     H25867   6.284   0.591  -0.043  1.0804 -2.0020  2.3544
  192MOL0     H25868   6.221   0.667   0.106  1.7180  1.6819  2.7826
  192MOL0     H25869   6.430   0.771   0.148  1.4232  0.7016 -2.9233
  192MOL0     H25870   6.439   0.590   0.135  0.5355 -1.9092 -2.8619
  192MOL0     H25871   6.555   0.913  -0.040  0.6289 -0.4110  1.1057
  192MOL0     H25872   6.693   0.866  -0.358  0.3075  0.4859  0.3860
  192MOL0     H25873   6.738   0.970  -0.221  1.8243  0.1998 -2.5174
  192MOL0     H25874   6.928   0.917  -0.330 -2.6763  1.6238 -0.3673
  192MOL0     H25875   6.933   0.803  -0.184  0.5657  0.2552 -0.8380
  192MOL0     H25876   6.831   0.720  -0.457 -1.1054 -0.9904  1.5429
  192MOL0     H25877   6.881   0.622  -0.327  0.9327  1.2561  2.3755
  192MOL0     H25878   7.109   0.664  -0.338 -0.7372 -3.4244 -1.1860
  192MOL0     H25879   7.084   0.804  -0.442  2.3706 -1.1784  1.2950
  192MOL0     H25880   7.283   0.783  -0.499 -4.0374  1.0358 -1.7253
  192MOL0     H25881   7.479   0.788  -0.648 -1.5706  1.5630  3.0061
  192MOL0     H25882   7.637   0.757  -1.105  0.1275  0.2301 -1.8706
  192MOL0     H25883   7.837   0.824  -1.233  1.1137  0.5222  0.9443
  192MOL0     H25884   8.059   0.843  -1.330  3.1557  2.4385 -2.9795
  192MOL0     H25885   8.009   1.000  -1.277  1.1775  2.6560 -0.2265
  192MOL0     H25886   8.207   0.999  -1.425  0.9642 -0.6941 -0.4140
  192MOL0     H25887   8.226   1.084  -1.269 -2.2623 -1.5637  4.0631
  192MOL0     H25888   8.426   0.962  -1.360  1.3351  0.0143  0.2683
  192MOL0     H25889   8.368   0.893  -1.209 -1.3972 -0.8327  0.2410
  192MOL0     H25890   8.314   0.774  -1.473  0.7884  1.8663  0.2012
  192MOL0     H25891   8.237   0.720  -1.324  0.2614  1.2870  2.1858
  192MOL0     H25892   8.425   0.646  -1.219 -0.5241  3.4708  0.5048
  192MOL0     H25893   8.540   0.722  -1.330 -0.3441  1.6753 -0.8947
  192MOL0     H25894   8.373   0.486  -1.414  0.7221 -1.1804 -0.2327
  192MOL0     H25895   8.508   0.567  -1.496  0.6921  2.1778  0.8299
  192MOL0     H25896   8.512   0.442  -1.216  0.2535 -0.7420 -0.2966
  192MOL0     H25897   8.659   0.505  -1.295  0.2908  0.4361  0.1897
  192MOL0     H25898   8.674   0.269  -1.308 -0.2991 -0.8282 -1.0302
  192MOL0     H25899   8.516   0.246  -1.384  1.3651 -0.2488 -2.8250
  192MOL0     H25900   8.063   0.839  -0.868  1.4784  2.2713 -2.5863
  192MOL0     H25901   7.855   0.765  -0.741 -0.9770 -0.3649 -0.4971
  192MOL0     H25902   7.297   0.482  -0.899  0.9033  0.2081  0.7279
  192MOL0     H25903   7.092   0.494  -0.752  0.3729  0.0403 -1.6863
  192MOL0     H25904   5.342   0.808  -0.065 -0.3485  1.4185  1.9183
  192MOL0     H25905   5.132   0.736   0.020 -0.7120 -0.5482  2.0800
  192MOL0     H25906   4.915   0.528   0.350 -2.0278  0.0994  1.4431
  192MOL0     H25907   4.709   0.452   0.454  1.7455  0.0764 -0.0268
  192MOL0     H25908   4.431   0.423   0.386 -0.4422  2.0479  1.8871
  192MOL0     H25909   4.532   0.403   0.522 -1.7001 -0.4836  1.8269
  192MOL0     H25910   4.435   0.196   0.601 -0.6407  0.1287  2.4130
  192MOL0     H25911   4.294   0.220   0.480 -1.2127 -0.0398  1.5850
  192MOL0     H25912   4.393   0.445   0.656 -0.9174  0.1048  0.8864
  192MOL0     H25913   4.319   0.315   0.742 -1.9954  1.4947 -0.3130
  192MOL0     H25914   4.143   0.478   0.691 -2.4140  0.8357 -1.5026
  192MOL0     H25915   4.171   0.459   0.520 -1.5227  2.8674  1.7476
  192MOL0     H25916   3.926   0.129   0.650 -1.0596  0.7998  0.0913
  192MOL0     H25917   4.663   0.138   0.178 -1.2949  1.0965 -1.9489
  192MOL0     H25918   4.817   0.083   0.015 -0.1223  0.3211 -1.9450
  192MOL0     H25919   4.913   0.215  -0.049  0.7737  2.1394  1.2833
  192MOL0     H25920   4.983   0.115   0.064 -0.1572  0.5553 -0.4915
  193MOL0     O25921   7.875   5.150   7.243 -0.0866  0.1292 -0.4829
  193MOL0     C25922   7.875   5.031   7.272 -0.6158 -0.4778  0.6129
  193MOL0     O25923   7.881   4.925   7.183  0.9257 -0.7451 -0.5427
  193MOL0     C25924   7.880   4.970   7.054  0.3837 -0.1056  0.0161
  193MOL0     C25925   7.763   5.026   6.990  0.2082  0.1727 -0.1990
  193MOL0     C25926   7.769   5.057   6.854  0.2674 -0.0785  0.5195
  193MOL0     C25927   7.880   5.033   6.783  1.3657  0.2913 -0.7452
  193MOL0     O25928   7.873   5.061   6.656 -0.9180  0.5842 -0.5071
  193MOL0     C25929   7.936   4.952   6.580 -0.1553 -0.3146  0.0117
  193MOL0     C25930   7.942   4.976   6.434  0.3652  0.5011 -0.5346
  193MOL0     C25931   8.031   5.091   6.393 -0.2047  0.4209  1.0951
  193MOL0     C25932   8.056   5.089   6.238  0.0961  1.2788  0.1794
  193MOL0     C25933   8.123   5.222   6.204  0.2529  0.1336  0.2695
  193MOL0     C25934   8.187   5.225   6.068 -0.0511 -0.1595 -0.3736
  193MOL0     C25935   8.208   5.371   6.024  0.1111 -0.0601 -0.3355
  193MOL0     C25936   8.325   5.438   6.100 -0.4480  0.4277 -0.1091
  193MOL0     N25937   8.372   5.569   6.052  0.4785 -0.0848 -0.7255
  193MOL0     C25938   8.312   5.687   6.079 -0.0493 -0.6769 -0.3864
  193MOL0     C25939   8.410   5.776   6.067 -0.2900 -0.0254  0.3790
  193MOL0     C25940   8.399   5.922   6.087  0.8329 -0.3616  0.2500
  193MOL0     C25941   8.400   5.994   5.949 -0.2797  0.2644 -1.0761
  193MOL0     C25942   8.431   6.142   5.960  0.3007 -0.0295  0.5970
  193MOL0     C25943   8.436   6.218   5.827 -0.2500  0.1863 -0.1041
  193MOL0     O25944   8.535   6.165   5.733  0.4446 -0.1537  0.0460
  193MOL0     C25945   8.659   6.217   5.762 -0.2323 -0.8921  0.1242
  193MOL0     C25946   8.755   6.117   5.792 -0.3761 -0.6543 -0.6280
  193MOL0     C25947   8.892   6.160   5.822 -0.2552 -0.7213 -0.3857
  193MOL0     C25948   8.927   6.293   5.815 -0.4473 -0.5587 -0.8392
  193MOL0     C25949   9.070   6.332   5.842  0.4381  0.0261  0.2467
  193MOL0     O25950   9.161   6.240   5.879 -0.7263  0.1798  0.3019
  193MOL0     C25951   9.288   6.287   5.916 -0.4419 -0.9067  0.7014
  193MOL0     C25952   9.310   6.332   6.048 -0.4155  0.3773  0.0220
  193MOL0     C25953   9.446   6.363   6.089 -0.0409  0.1096 -0.1660
  193MOL0     C25954   9.550   6.367   5.985 -0.4502  0.8463  0.0976
  193MOL0     O25955   9.685   6.386   6.015 -0.8293 -0.0524  0.3228
  193MOL0     C25956   9.738   6.348   6.142  1.0791  0.3849  0.1591
  193MOL0     C25957   9.871   6.421   6.147 -1.1119 -0.7704  0.3036
  193MOL0     C25958   9.959   6.352   6.043 -0.1705 -0.5254  0.5547
  193MOL0     C25959  10.107   6.400   6.046 -1.1483  0.3213 -0.2667
  193MOL0     C25960  10.179   6.372   5.911 -0.1573 -0.4817 -0.0901
  193MOL0     C25961  10.309   6.456   5.894 -0.5474 -0.6026  0.5224
  193MOL0     C25962  10.388   6.399   5.781 -0.1453  0.0891 -1.1330
  193MOL0     C25963  10.483   6.288   5.822 -0.6609 -0.0432  0.1241
  193MOL0    Cl25964  10.589   6.251   5.672  0.0357  0.0190  0.3824
  193MOL0     C25965   9.522   6.326   5.855  0.1277  1.1278  0.3436
  193MOL0     C25966   9.394   6.278   5.823 -0.6266  0.3142  0.0867
  193MOL0     O25967   9.096   6.455   5.825 -0.2294  0.3160 -0.0633
  193MOL0     C25968   8.831   6.392   5.775  0.5190  0.9741  1.0827
  193MOL0     C25969   8.701   6.347   5.742  0.6443 -0.6139  0.7206
  193MOL0     N25970   8.523   5.715   6.031 -0.4702 -0.5027  0.1528
  193MOL0     N25971   8.504   5.591   6.017  0.5474  0.1506  0.0432
  193MOL0     C25972   7.988   5.000   6.848  0.0838  1.2116 -0.9735
  193MOL0     C25973   7.990   4.948   6.980 -0.8991 -0.2899 -0.3341
  193MOL0     C25974   7.862   5.014   7.411 -0.6668  0.9346 -0.6991
  193MOL0     C25975   7.748   5.065   7.471 -0.6275  0.2851  0.1126
  193MOL0     C25976   7.735   5.044   7.606  0.6202  0.4570 -0.1361
  193MOL0     C25977   7.835   4.968   7.681  0.7320 -0.2696 -0.3917
  193MOL0     O25978   7.833   4.949   7.818 -0.3174  0.0845 -0.2582
  193MOL0     C25979   7.722   4.987   7.887  0.0675 -0.0276  0.0347
  193MOL0     C25980   7.753   4.960   8.028  0.1807 -0.6571  0.6175
  193MOL0     C25981   7.831   5.083   8.105  0.0550  0.3512 -0.7327
  193MOL0     C25982   7.982   5.085   8.066  0.6828  0.0303  0.1521
  193MOL0     C25983   8.030   5.209   8.128  0.7359 -0.1058 -0.5773
  193MOL0     C25984   8.056   5.313   8.173 -0.0036 -0.1040  0.2524
  193MOL0     C25985   7.950   4.924   7.614  0.2609  0.3699 -0.3727
  193MOL0     C25986   7.967   4.948   7.478  0.9374  0.7012 -0.9151
  193MOL0     C25987   8.088   4.895   7.402 -0.1556 -0.2050 -0.2601
  193MOL0     H25988   7.670   5.031   7.045  0.3189  0.5022 -0.0403
  193MOL0     H25989   7.675   5.099   6.820 -0.5222 -1.8490  0.4115
  193MOL0     H25990   8.040   4.933   6.607 -0.8659 -1.0417  2.5423
  193MOL0     H25991   7.878   4.860   6.594  2.3138 -1.9451  0.0796
  193MOL0     H25992   7.843   5.011   6.402  0.3008  1.8147  0.9946
  193MOL0     H25993   7.963   4.881   6.383  1.1302  0.2671  0.2011
  193MOL0     H25994   8.127   5.090   6.445 -0.6289  3.3812  2.1006
  193MOL0     H25995   7.970   5.180   6.412  0.8972  1.4631 -0.0839
  193MOL0     H25996   8.123   5.005   6.215  0.1112  1.2544  0.3104
  193MOL0     H25997   7.967   5.067   6.179 -1.6817 -2.7228  3.7570
  193MOL0     H25998   8.054   5.304   6.223 -3.3405 -3.1217  2.8702
  193MOL0     H25999   8.197   5.248   6.280 -1.3301 -0.0743  1.9447
  193MOL0     H26000   8.284   5.175   6.067 -0.4981 -1.0367 -0.9530
  193MOL0     H26001   8.130   5.182   5.985  0.0249  1.2765 -1.2247
  193MOL0     H26002   8.124   5.438   6.047  1.5104  1.2488  1.2177
  193MOL0     H26003   8.227   5.370   5.916 -0.2119  0.0352 -0.3943
  193MOL0     H26004   8.303   5.436   6.207 -2.0649  1.4871 -0.3930
  193MOL0     H26005   8.409   5.369   6.091 -0.9182 -0.1011 -0.5557
  193MOL0     H26006   8.216   5.720   6.118  0.2752  3.0487 -2.3028
  193MOL0     H26007   8.302   5.936   6.136  0.8263 -1.7173  0.6740
  193MOL0     H26008   8.479   5.966   6.147  0.1213  1.1633  0.1037
  193MOL0     H26009   8.467   5.946   5.878  0.4894 -0.5582  0.1752
  193MOL0     H26010   8.300   5.986   5.906  0.0839  0.5833 -2.0003
  193MOL0     H26011   8.530   6.156   6.004  0.8482 -0.2777 -0.5188
  193MOL0     H26012   8.354   6.185   6.024  2.5109  1.6245  2.2728
  193MOL0     H26013   8.456   6.325   5.837 -0.8499  0.2988 -0.0825
  193MOL0     H26014   8.335   6.204   5.788 -0.7806 -0.0872  1.3196
  193MOL0     H26015   8.721   6.015   5.808 -2.1300  0.2032  1.7424
  193MOL0     H26016   8.975   6.094   5.842  1.2253  0.4852 -2.2880
  193MOL0     H26017   9.222   6.337   6.112 -0.4019 -3.4885  0.5928
  193MOL0     H26018   9.482   6.372   6.191  2.1181 -3.4996 -0.4389
  193MOL0     H26019   9.670   6.390   6.217  1.1601 -1.0148  1.0477
  193MOL0     H26020   9.734   6.239   6.141 -0.9452  0.4188  0.2532
  193MOL0     H26021   9.868   6.528   6.126 -0.3267 -0.3305  2.1442
  193MOL0     H26022   9.921   6.405   6.243 -0.0205 -0.7422 -0.2480
  193MOL0     H26023   9.960   6.243   6.051  0.9626 -0.6298 -0.6167
  193MOL0     H26024   9.923   6.379   5.943  1.8405  1.0349  0.1857
  193MOL0     H26025  10.163   6.343   6.121 -0.1050  1.0913 -0.4413
  193MOL0     H26026  10.119   6.505   6.071 -0.9194 -0.0776  1.4283
  193MOL0     H26027  10.109   6.403   5.834  1.3178 -1.5977 -2.0066
  193MOL0     H26028  10.201   6.265   5.902  0.1456 -1.0176  4.6009
  193MOL0     H26029  10.271   6.558   5.887 -0.2729 -0.3953  1.8157
  193MOL0     H26030  10.369   6.459   5.986  5.4840  0.5130 -2.9279
  193MOL0     H26031  10.446   6.482   5.740  2.2345 -2.2560 -2.8920
  193MOL0     H26032  10.328   6.367   5.695  0.9891 -2.4565 -1.0636
  193MOL0     H26033  10.540   6.321   5.909  1.4486 -3.2733  0.1455
  193MOL0     H26034  10.423   6.202   5.853  0.9598 -1.8495 -1.4175
  193MOL0     H26035   9.595   6.314   5.776 -2.0416 -0.0539 -1.6224
  193MOL0     H26036   9.382   6.229   5.727 -2.1594 -0.3461  0.5720
  193MOL0     H26037   8.865   6.488   5.737  0.5886 -0.6740 -3.6943
  193MOL0     H26038   8.629   6.413   5.694  0.1015 -1.4124  0.4212
  193MOL0     H26039   8.087   4.974   6.811  0.4144 -1.5217  1.4279
  193MOL0     H26040   8.078   4.903   7.025 -2.2429 -0.5611  2.2080
  193MOL0     H26041   7.682   5.119   7.405 -1.2593 -1.4544 -0.7422
  193MOL0     H26042   7.642   5.075   7.651  1.3361  0.8214  1.1269
  193MOL0     H26043   7.632   4.926   7.872 -0.6399  0.2032  2.7525
  193MOL0     H26044   7.684   5.088   7.868  0.2184 -0.1605 -0.9917
  193MOL0     H26045   7.828   4.880   8.034  1.9489  0.9454  0.5775
  193MOL0     H26046   7.667   4.939   8.091 -0.6951 -0.9709 -0.6392
  193MOL0     H26047   7.834   5.061   8.212  0.8304  2.0800 -0.3735
  193MOL0     H26048   7.763   5.167   8.085 -0.4573  0.3098  0.7084
  193MOL0     H26049   8.025   4.993   8.106  1.6313  0.0207 -0.8455
  193MOL0     H26050   7.984   5.100   7.958 -1.4399 -0.2604  0.0343
  193MOL0     H26051   8.078   5.410   8.212 -3.3256  0.1944  1.7453
  193MOL0     H26052   8.017   4.860   7.670 -1.7140 -1.8667 -0.3752
  193MOL0     H26053   8.169   4.890   7.475  1.4130 -1.4481 -1.9732
  193MOL0     H26054   8.074   4.791   7.370  2.5178 -0.3995 -1.0620
  193MOL0     H26055   8.113   4.955   7.313  3.3731 -1.4241 -0.2568
  194MOL0     O26056   2.394  10.157   7.945 -0.3890  0.7930  0.2906
  194MOL0     C26057   2.367  10.150   7.821 -0.0296  0.2155 -0.8587
  194MOL0     O26058   2.310  10.246   7.744  0.0001 -0.0646 -0.3241
  194MOL0     C26059   2.310  10.367   7.810 -0.9355 -0.2867  0.5319
  194MOL0     C26060   2.226  10.390   7.921  0.1966 -0.1533 -0.0380
  194MOL0     C26061   2.244  10.500   8.005  0.6113 -0.6963 -0.3324
  194MOL0     C26062   2.355  10.589   7.987  0.1347  0.4263 -0.3966
  194MOL0     O26063   2.367  10.690   8.078  0.1073 -0.1017  0.2225
  194MOL0     C26064   2.468  10.791   8.062 -0.3585 -0.1147 -0.1296
  194MOL0     C26065   2.419  10.892   7.962 -0.0044 -0.7256  0.6146
  194MOL0     C26066   2.538  10.957   7.888  0.1465  0.3329  0.1013
  194MOL0     C26067   2.493  11.042   7.775  1.2073 -0.4781  0.4710
  194MOL0     C26068   2.608  11.130   7.734  0.0412 -0.3677  0.2603
  194MOL0     C26069   2.673  11.230   7.831 -0.3003 -0.0826  0.1495
  194MOL0     C26070   2.787  11.308   7.774 -0.0036 -0.0098 -0.2867
  194MOL0     C26071   2.771  11.459   7.801  0.3103 -0.6811  0.1618
  194MOL0     N26072   2.879  11.548   7.768 -0.3651 -0.0045 -0.2759
  194MOL0     C26073   3.007  11.545   7.818  0.9646 -0.0507  0.7530
  194MOL0     C26074   3.078  11.602   7.725  0.1762  0.5467 -0.2283
  194MOL0     C26075   3.219  11.575   7.707 -0.1073 -0.1483  0.3028
  194MOL0     C26076   3.249  11.429   7.672  0.3891 -0.1578 -0.1679
  194MOL0     C26077   3.192  11.365   7.541  0.7898 -0.3642  0.5581
  194MOL0     C26078   3.212  11.453   7.416  0.1420 -0.4245 -0.0770
  194MOL0     O26079   3.359  11.452   7.389 -0.3987 -0.0609 -0.6295
  194MOL0     C26080   3.412  11.352   7.314 -0.1348 -0.2299 -0.0961
  194MOL0     C26081   3.337  11.273   7.219 -0.1202 -0.1033 -0.0336
  194MOL0     C26082   3.403  11.174   7.148 -0.0831 -0.2668  0.4043
  194MOL0     C26083   3.539  11.151   7.164  0.2588  0.1362 -0.6173
  194MOL0     C26084   3.596  11.025   7.109  0.9462 -0.4865 -0.3173
  194MOL0     O26085   3.675  10.950   7.191 -0.4215 -0.6060 -0.4238
  194MOL0     C26086   3.774  10.868   7.138  0.7661 -1.5265 -0.2147
  194MOL0     C26087   3.838  10.897   7.012  1.3947 -0.0303  0.0971
  194MOL0     C26088   3.945  10.816   6.969  0.2670 -0.9115  0.2077
  194MOL0     C26089   3.983  10.708   7.042 -0.3202  0.1647 -0.2676
  194MOL0     O26090   4.087  10.639   6.985  0.1666 -0.2398 -0.0979
  194MOL0     C26091   4.150  10.540   7.062 -0.4108 -0.0591 -0.1917
  194MOL0     C26092   4.242  10.452   6.984 -0.5236  0.1579 -0.1333
  194MOL0     C26093   4.353  10.376   7.060  1.1062 -0.5643 -0.1877
  194MOL0     C26094   4.443  10.299   6.965  0.6702  0.4321  0.0509
  194MOL0     C26095   4.507  10.175   7.027 -0.3247 -0.3045  0.2522
  194MOL0     C26096   4.594  10.211   7.139 -0.1647  0.5680 -0.9966
  194MOL0     C26097   4.666  10.087   7.202  0.9291  0.3837 -0.3644
  194MOL0     C26098   4.740  10.133   7.329  0.2663 -0.0118 -0.2298
  194MOL0    Cl26099   4.828  10.284   7.305  0.3544 -0.2196 -0.3702
  194MOL0     C26100   3.925  10.680   7.167  0.4915 -0.1363  0.3176
  194MOL0     C26101   3.831  10.771   7.224 -0.4903 -0.3723  0.0099
  194MOL0     O26102   3.571  11.009   6.991  0.2756 -0.2738  0.3926
  194MOL0     C26103   3.613  11.215   7.267 -0.6417 -0.4489  0.1263
  194MOL0     C26104   3.547  11.322   7.343 -0.4899  0.2998 -0.3273
  194MOL0     N26105   3.001  11.650   7.623 -0.2684  0.0894  0.1265
  194MOL0     N26106   2.883  11.608   7.644 -0.5965 -0.8577 -0.4342
  194MOL0     C26107   2.435  10.566   7.871  0.2781  0.0241  0.0862
  194MOL0     C26108   2.411  10.456   7.783 -0.7504 -0.1997 -0.1222
  194MOL0     C26109   2.392  10.022   7.752 -0.2247  0.6155 -0.5599
  194MOL0     C26110   2.416  10.012   7.609  0.1532  0.9108  0.0805
  194MOL0     C26111   2.428   9.894   7.538 -0.8571 -0.2233  0.1279
  194MOL0     C26112   2.407   9.770   7.607  0.5757  0.0440 -0.7335
  194MOL0     O26113   2.396   9.650   7.548  0.4762 -0.2965 -0.4862
  194MOL0     C26114   2.370   9.634   7.410 -0.1164  0.4785  0.0483
  194MOL0     C26115   2.232   9.674   7.369  0.3814 -0.1533  0.5123
  194MOL0     C26116   2.124   9.582   7.420  0.0760  1.2171  0.7266
  194MOL0     C26117   2.107   9.452   7.333  0.4256 -0.1784 -0.0847
  194MOL0     C26118   1.993   9.372   7.381  0.0657  0.0199 -0.6307
  194MOL0     C26119   1.892   9.306   7.412  0.3260 -0.0657 -0.2972
  194MOL0     C26120   2.392   9.768   7.749 -0.2235 -0.1053 -0.1952
  194MOL0     C26121   2.393   9.890   7.825 -0.0352 -0.4859  0.2110
  194MOL0     C26122   2.373   9.877   7.972  0.0731  0.4378 -1.0090
  194MOL0     H26123   2.136  10.335   7.947 -0.5563  1.6185  1.3351
  194MOL0     H26124   2.169  10.502   8.083 -0.5645  1.2851 -1.4392
  194MOL0     H26125   2.474  10.845   8.157 -1.0454 -2.4606  1.3473
  194MOL0     H26126   2.566  10.752   8.033 -0.7659 -2.5574  1.5141
  194MOL0     H26127   2.355  10.969   8.007  1.3260  0.5326  0.4280
  194MOL0     H26128   2.365  10.834   7.887  0.6435  1.2570 -1.4794
  194MOL0     H26129   2.599  10.876   7.848 -0.1832  0.0591  0.1469
  194MOL0     H26130   2.599  11.015   7.957  0.1022 -1.2690  1.5450
  194MOL0     H26131   2.462  10.980   7.690 -1.3195  0.7235  0.4151
  194MOL0     H26132   2.406  11.100   7.807  0.1432 -1.8081  0.1052
  194MOL0     H26133   2.688  11.065   7.698  0.0455 -2.4723  3.6485
  194MOL0     H26134   2.559  11.179   7.649  1.2255  0.1404 -0.1570
  194MOL0     H26135   2.593  11.296   7.865  0.0700  1.2128 -1.3995
  194MOL0     H26136   2.722  11.168   7.907 -2.3572 -2.1731 -0.1089
  194MOL0     H26137   2.791  11.302   7.665 -0.1965 -1.2601 -0.2376
  194MOL0     H26138   2.880  11.263   7.809  0.3045  0.0767 -0.9929
  194MOL0     H26139   2.683  11.497   7.748  0.4004  3.0350  2.3302
  194MOL0     H26140   2.742  11.470   7.906 -1.7665  2.4943 -0.6071
  194MOL0     H26141   3.053  11.490   7.900  2.4266 -1.8236 -1.1478
  194MOL0     H26142   3.260  11.637   7.627  1.4729 -0.7246  0.6257
  194MOL0     H26143   3.265  11.589   7.806  2.6239  0.5096 -0.9619
  194MOL0     H26144   3.358  11.426   7.674  0.3960 -1.8054  2.5721
  194MOL0     H26145   3.221  11.370   7.760  2.9738 -0.8327  0.2961
  194MOL0     H26146   3.089  11.328   7.548 -0.1910  1.7800 -1.2526
  194MOL0     H26147   3.255  11.278   7.518  3.3590  0.8191  2.7445
  194MOL0     H26148   3.174  11.554   7.429  0.4822 -0.0448 -1.7335
  194MOL0     H26149   3.149  11.412   7.336 -0.1882 -1.4689  0.6976
  194MOL0     H26150   3.235  11.302   7.197 -1.5071 -2.3560  2.7769
  194MOL0     H26151   3.344  11.102   7.090 -0.7153 -0.2498  1.0095
  194MOL0     H26152   3.815  10.990   6.960 -0.0044 -0.2880  0.2167
  194MOL0     H26153   3.984  10.853   6.875 -0.4436  2.5436  1.1625
  194MOL0     H26154   4.203  10.587   7.146 -0.9417 -0.8240  0.5891
  194MOL0     H26155   4.086  10.465   7.109  0.3212 -1.8722 -1.9371
  194MOL0     H26156   4.175  10.384   6.931  1.1626 -1.8368  0.1950
  194MOL0     H26157   4.278  10.519   6.905 -3.3475  3.3756  1.0325
  194MOL0     H26158   4.410  10.449   7.117 -0.4321 -0.0258  0.7098
  194MOL0     H26159   4.304  10.305   7.128 -2.0239 -0.5266 -2.1833
  194MOL0     H26160   4.509  10.371   6.916 -1.1984  0.3791 -2.8120
  194MOL0     H26161   4.384  10.256   6.883 -0.4773 -3.3647  2.6093
  194MOL0     H26162   4.560  10.133   6.940  0.0155  2.4721 -0.9779
  194MOL0     H26163   4.425  10.107   7.053 -3.8744  3.2728 -0.5630
  194MOL0     H26164   4.668  10.288   7.113  0.3953  0.6126  0.5571
  194MOL0     H26165   4.535  10.254   7.220  1.4093 -1.3270  1.3199
  194MOL0     H26166   4.721  10.026   7.129 -2.1280 -3.0473 -0.0413
  194MOL0     H26167   4.599  10.007   7.234  1.2973  1.1679  2.6364
  194MOL0     H26168   4.669  10.141   7.412 -0.0731  1.5402 -0.6338
  194MOL0     H26169   4.805  10.054   7.366 -0.1825  0.2100  1.1278
  194MOL0     H26170   3.962  10.606   7.236 -3.7422 -1.9907  0.8876
  194MOL0     H26171   3.796  10.742   7.322 -0.8322 -0.0660 -0.0220
  194MOL0     H26172   3.716  11.183   7.278  0.0582  0.0912 -3.5079
  194MOL0     H26173   3.597  11.379   7.421  0.5459 -1.3112  0.2321
  194MOL0     H26174   2.505  10.645   7.843  0.2450 -0.0199 -0.1252
  194MOL0     H26175   2.472  10.431   7.697 -1.1124 -0.4827 -0.2982
  194MOL0     H26176   2.433  10.105   7.556  1.0620  0.6363 -0.1241
  194MOL0     H26177   2.459   9.894   7.434 -0.6258  1.5052  0.1782
  194MOL0     H26178   2.382   9.530   7.377  1.5181  0.4999  0.4760
  194MOL0     H26179   2.439   9.692   7.348  1.7781 -0.2283  1.3862
  194MOL0     H26180   2.226   9.692   7.261  1.1553  3.3683  0.9500
  194MOL0     H26181   2.223   9.778   7.400  1.4627  0.5500 -1.3649
  194MOL0     H26182   2.028   9.634   7.414 -1.2227 -1.1963 -1.2383
  194MOL0     H26183   2.132   9.542   7.521 -2.7308 -0.7916  0.2596
  194MOL0     H26184   2.086   9.479   7.229  0.7866  1.8220  0.3137
  194MOL0     H26185   2.194   9.388   7.345 -0.1377 -0.5836  2.5827
  194MOL0     H26186   1.805   9.253   7.443 -0.4483  1.7795  0.8697
  194MOL0     H26187   2.377   9.676   7.806  0.1857 -0.6239 -0.9086
  194MOL0     H26188   2.454   9.922   8.029 -1.4389  0.2700  1.3862
  194MOL0     H26189   2.285   9.935   8.001 -0.6671 -1.5783  1.0891
  194MOL0     H26190   2.372   9.775   8.013  4.4306  1.0163  1.0859
  195MOL0     O26191   1.195   2.550   4.624 -0.2821 -0.6405 -1.2435
  195MOL0     C26192   1.317   2.549   4.602  0.8389  0.6533  0.1360
  195MOL0     O26193   1.376   2.483   4.500 -0.1792  1.1874  0.3410
  195MOL0     C26194   1.317   2.385   4.420 -0.2752 -0.7359 -0.1431
  195MOL0     C26195   1.195   2.318   4.454  0.3245 -0.1455  0.2526
  195MOL0     C26196   1.126   2.250   4.356  0.1389 -0.8873 -0.1503
  195MOL0     C26197   1.193   2.195   4.240 -0.4626 -0.5384  0.0552
  195MOL0     O26198   1.142   2.103   4.148 -0.0113 -0.7932 -0.0410
  195MOL0     C26199   1.000   2.076   4.152  0.0688 -0.2342  0.0635
  195MOL0     C26200   0.978   2.004   4.024 -0.6036 -0.5895 -0.0785
  195MOL0     C26201   0.830   1.963   4.022 -0.2840 -0.2002 -0.0100
  195MOL0     C26202   0.816   1.878   3.892  0.2901  0.3695 -0.5273
  195MOL0     C26203   0.674   1.862   3.837  1.0542 -0.7741  0.5454
  195MOL0     C26204   0.572   1.808   3.930  0.7247  1.0252 -0.1655
  195MOL0     C26205   0.458   1.738   3.858  0.5649  0.2920  0.6132
  195MOL0     C26206   0.347   1.713   3.959 -0.3018  0.0312  0.3861
  195MOL0     N26207   0.248   1.622   3.911 -0.8139  0.0411 -0.3748
  195MOL0     C26208   0.142   1.665   3.829 -0.0847  0.7883  0.2107
  195MOL0     C26209   0.045   1.564   3.842  0.1569  0.4274  0.9928
  195MOL0     C26210  -0.088   1.555   3.771 -0.9949  0.1463  0.5689
  195MOL0     C26211  -0.108   1.685   3.703  0.2403 -0.0053 -0.0240
  195MOL0     C26212  -0.248   1.684   3.634 -0.5670 -0.2829 -0.0410
  195MOL0     C26213  -0.245   1.592   3.505  0.1669  0.0382  0.2408
  195MOL0     O26214  -0.140   1.615   3.423 -0.8600  0.5030  0.6502
  195MOL0     C26215  -0.130   1.532   3.317 -0.2252  0.8621  0.8995
  195MOL0     C26216  -0.001   1.472   3.288  0.8399 -1.3112 -0.0275
  195MOL0     C26217   0.016   1.385   3.177  0.7913  1.3253  0.5456
  195MOL0     C26218  -0.098   1.347   3.100 -0.0886  0.4181  0.4625
  195MOL0     C26219  -0.086   1.255   2.986 -1.0751  0.6534 -0.1193
  195MOL0     O26220   0.046   1.210   2.953  0.6089 -0.2062  0.4426
  195MOL0     C26221   0.064   1.117   2.857 -0.2989  0.3768 -0.3215
  195MOL0     C26222   0.122   0.994   2.900  0.2925 -0.5414  0.7373
  195MOL0     C26223   0.169   0.907   2.804  0.7147 -1.1309  0.2985
  195MOL0     C26224   0.166   0.939   2.663 -0.2430  0.1301 -0.2312
  195MOL0     O26225   0.205   0.856   2.561 -0.4075 -0.1989 -0.1389
  195MOL0     C26226   0.323   0.779   2.581  0.3859  0.4922 -0.1088
  195MOL0     C26227   0.454   0.857   2.546 -0.0530 -0.3014  0.7931
  195MOL0     C26228   0.502   0.964   2.648  0.5535 -0.1278  0.3676
  195MOL0     C26229   0.533   0.903   2.785 -0.2087  0.6467  0.2800
  195MOL0     C26230   0.613   1.002   2.868 -0.1875  0.3981  0.7831
  195MOL0     C26231   0.511   1.115   2.915 -1.0705 -0.2295 -0.0854
  195MOL0     C26232   0.585   1.229   2.984  0.2047 -0.0297 -0.1450
  195MOL0     C26233   0.485   1.318   3.046  0.8610 -0.0406 -0.1812
  195MOL0    Cl26234   0.573   1.470   3.075 -0.1708 -0.0775 -0.2026
  195MOL0     C26235   0.111   1.056   2.627  0.4656 -0.0163  0.3111
  195MOL0     C26236   0.056   1.143   2.722 -0.8623  0.1404 -0.0737
  195MOL0     O26237  -0.185   1.241   2.913  0.3794  0.0211 -0.5479
  195MOL0     C26238  -0.218   1.426   3.117  0.0045 -0.5511  0.3656
  195MOL0     C26239  -0.229   1.522   3.225  0.5830 -0.0628  0.2817
  195MOL0     N26240   0.099   1.465   3.925  0.4631 -0.6628  0.0332
  195MOL0     N26241   0.215   1.504   3.967  0.9567 -0.0312  0.0209
  195MOL0     C26242   1.317   2.256   4.209  0.0506 -0.1034  0.1434
  195MOL0     C26243   1.367   2.355   4.293 -0.8762 -0.5427  0.1666
  195MOL0     C26244   1.411   2.627   4.688  0.7777 -0.3247 -0.0859
  195MOL0     C26245   1.547   2.624   4.668  0.1702  0.7287  0.7621
  195MOL0     C26246   1.645   2.699   4.724  0.1321 -0.1002 -0.3681
  195MOL0     C26247   1.619   2.779   4.837  0.3010  0.3705  0.3466
  195MOL0     O26248   1.721   2.848   4.905 -0.4695  0.0318 -0.0584
  195MOL0     C26249   1.692   2.918   5.028  0.0539 -0.7157 -0.4552
  195MOL0     C26250   1.775   3.046   5.010 -0.9585  0.2883 -0.6721
  195MOL0     C26251   1.824   3.107   5.138  0.8892 -0.3540 -0.4558
  195MOL0     C26252   1.950   3.049   5.203 -0.3389  0.7672  1.3719
  195MOL0     C26253   2.008   3.144   5.293  0.7808 -0.3931  0.0533
  195MOL0     C26254   2.051   3.234   5.357 -0.2102  0.1069 -0.0633
  195MOL0     C26255   1.479   2.774   4.874 -0.3579  0.2265  0.1056
  195MOL0     C26256   1.380   2.712   4.799  1.0951  1.1525  0.5280
  195MOL0     C26257   1.238   2.724   4.847  0.3605  0.0939  0.7656
  195MOL0     H26258   1.131   2.332   4.540 -3.8866  1.4851 -2.8176
  195MOL0     H26259   1.025   2.216   4.376 -0.5755  1.3530  0.3306
  195MOL0     H26260   0.976   2.012   4.236 -2.1374 -0.1873 -0.4649
  195MOL0     H26261   0.945   2.171   4.153  0.5811  0.0692 -0.2708
  195MOL0     H26262   1.040   1.914   4.025  1.2971  0.5730  3.0465
  195MOL0     H26263   1.011   2.069   3.942 -1.6863  1.6279  1.1424
  195MOL0     H26264   0.757   2.043   4.033 -1.0092 -0.6540 -1.2898
  195MOL0     H26265   0.811   1.895   4.106  2.9957 -1.0885  0.1361
  195MOL0     H26266   0.886   1.911   3.815  0.9554  2.7897  1.0056
  195MOL0     H26267   0.848   1.776   3.914 -2.0937 -0.0651  1.4092
  195MOL0     H26268   0.642   1.963   3.809 -1.8309 -2.2009 -1.8565
  195MOL0     H26269   0.683   1.798   3.749  4.1176 -4.9784  3.5458
  195MOL0     H26270   0.627   1.730   3.985  2.6845  2.1975 -0.3889
  195MOL0     H26271   0.542   1.888   3.999  0.9264 -0.0679  1.2537
  195MOL0     H26272   0.499   1.643   3.823 -2.0356 -0.6926  0.0298
  195MOL0     H26273   0.422   1.799   3.774 -0.9889 -0.7826  0.4656
  195MOL0     H26274   0.391   1.668   4.049  2.1730  1.8860  0.1977
  195MOL0     H26275   0.295   1.804   3.989  1.9088  1.1893  0.9196
  195MOL0     H26276   0.138   1.753   3.765  3.3325  1.0691  0.1863
  195MOL0     H26277  -0.087   1.470   3.703  1.6724 -0.8906  1.7644
  195MOL0     H26278  -0.162   1.541   3.851 -1.7373  1.8812  0.2467
  195MOL0     H26279  -0.115   1.773   3.768  0.8262 -1.2893  1.8607
  195MOL0     H26280  -0.028   1.697   3.628  0.7642 -1.1740  0.3326
  195MOL0     H26281  -0.277   1.782   3.595  0.5812 -0.3445 -1.1003
  195MOL0     H26282  -0.318   1.638   3.706  2.7178 -0.7364  3.1471
  195MOL0     H26283  -0.339   1.618   3.456  0.7131 -3.3601 -3.0486
  195MOL0     H26284  -0.251   1.489   3.540  1.6722  0.6436  2.5033
  195MOL0     H26285   0.087   1.492   3.348  1.8607 -1.4538 -1.4371
  195MOL0     H26286   0.109   1.335   3.152 -1.3911 -2.2684 -1.1901
  195MOL0     H26287   0.143   0.983   3.006 -0.0150 -0.4270  0.8130
  195MOL0     H26288   0.201   0.811   2.843 -0.8229 -0.7698  2.6602
  195MOL0     H26289   0.313   0.731   2.678 -2.9318  2.3954  0.6447
  195MOL0     H26290   0.323   0.695   2.510 -0.4543 -1.2430  1.8573
  195MOL0     H26291   0.535   0.783   2.542 -0.8998 -1.3584 -4.0698
  195MOL0     H26292   0.437   0.899   2.446  0.0887  1.1744  1.3664
  195MOL0     H26293   0.592   1.019   2.618  1.0340 -0.8671  0.4144
  195MOL0     H26294   0.426   1.042   2.654  1.3577  0.5517  2.9944
  195MOL0     H26295   0.594   0.815   2.764  1.3396  1.8471 -0.4103
  195MOL0     H26296   0.440   0.870   2.832  0.5176 -2.5751 -0.3077
  195MOL0     H26297   0.699   1.039   2.812 -1.8732  0.8905 -1.6153
  195MOL0     H26298   0.641   0.944   2.956 -0.5462 -0.8945  0.0655
  195MOL0     H26299   0.449   1.152   2.833 -4.0506 -0.4892  1.8806
  195MOL0     H26300   0.441   1.078   2.990 -0.4458  1.4936  1.4227
  195MOL0     H26301   0.647   1.287   2.915 -0.5437  1.0633  0.0782
  195MOL0     H26302   0.647   1.192   3.066 -2.7748 -1.2558  1.7242
  195MOL0     H26303   0.396   1.323   2.983 -0.0978 -0.9002  1.0480
  195MOL0     H26304   0.463   1.283   3.148  2.6703 -0.7505  0.0100
  195MOL0     H26305   0.112   1.073   2.520  1.3951 -1.7648 -0.0001
  195MOL0     H26306   0.010   1.237   2.693 -1.3398 -0.4641 -1.3447
  195MOL0     H26307  -0.311   1.426   3.060 -0.3563  1.8173  0.8656
  195MOL0     H26308  -0.325   1.571   3.238 -0.9129 -3.2133  2.3559
  195MOL0     H26309   1.367   2.231   4.115 -2.0865  1.7991 -1.6343
  195MOL0     H26310   1.457   2.407   4.262 -1.8414  0.4335 -1.1162
  195MOL0     H26311   1.572   2.552   4.590 -1.3238 -0.2507  1.1653
  195MOL0     H26312   1.750   2.682   4.704 -0.2481 -1.0171 -1.7336
  195MOL0     H26313   1.717   2.857   5.116  1.0591  0.7465  0.3278
  195MOL0     H26314   1.587   2.941   5.046  0.3943 -0.4897  1.4756
  195MOL0     H26315   1.709   3.120   4.964 -2.9395 -0.5535  0.6661
  195MOL0     H26316   1.854   3.049   4.934  0.3056  0.6728  0.6056
  195MOL0     H26317   1.737   3.095   5.203 -1.5758  3.6201 -2.5802
  195MOL0     H26318   1.837   3.213   5.111  3.2921 -0.5979 -0.4608
  195MOL0     H26319   1.927   2.955   5.254 -1.2337 -1.5433 -2.8480
  195MOL0     H26320   2.032   3.031   5.133  0.5860  1.5844  2.2231
  195MOL0     H26321   2.093   3.298   5.432 -1.4207  0.2097  0.5464
  195MOL0     H26322   1.441   2.832   4.957 -1.6004 -0.2409 -0.1187
  195MOL0     H26323   1.168   2.763   4.773  3.3507  4.8910  0.0641
  195MOL0     H26324   1.198   2.631   4.890 -1.9632 -0.1833 -1.6943
  195MOL0     H26325   1.243   2.803   4.923  0.2428  1.4023 -0.5580
  196MOL0     O26326   6.468   7.649   9.912 -0.6228  0.2449  0.2281
  196MOL0     C26327   6.451   7.526   9.897 -0.2544 -0.1908  0.9801
  196MOL0     O26328   6.547   7.436   9.868 -0.0671 -0.2071 -0.7510
  196MOL0     C26329   6.680   7.470   9.896 -0.5031 -0.2607  0.6222
  196MOL0     C26330   6.784   7.399   9.827  0.3617  0.4638  0.2419
  196MOL0     C26331   6.919   7.415   9.864  0.9264 -0.1323  0.2710
  196MOL0     C26332   6.956   7.496   9.971 -0.4268 -0.3138  0.3083
  196MOL0     O26333   7.091   7.498  10.003 -0.3117 -0.6460  0.4099
  196MOL0     C26334   7.146   7.595  10.100 -0.1639  0.6294  0.1849
  196MOL0     C26335   7.281   7.631  10.049 -0.2984 -0.1342  0.5340
  196MOL0     C26336   7.271   7.698   9.910 -0.2104  0.3257 -0.3203
  196MOL0     C26337   7.405   7.765   9.875  0.6522  0.0815  0.1285
  196MOL0     C26338   7.521   7.672   9.834  0.5259 -0.1026  0.7070
  196MOL0     C26339   7.662   7.718   9.874  1.2176 -0.2318 -0.0901
  196MOL0     C26340   7.729   7.801   9.776 -0.3845  0.0104  0.8400
  196MOL0     C26341   7.864   7.851   9.830  0.1676 -0.7914  0.2709
  196MOL0     N26342   7.954   7.922   9.742  0.4514 -0.4189  0.6568
  196MOL0     C26343   7.958   7.913   9.601  0.1363  0.3096  0.5347
  196MOL0     C26344   8.025   8.023   9.553  0.4214 -0.3804  0.3033
  196MOL0     C26345   8.043   8.072   9.401 -0.8127  0.1698  0.1051
  196MOL0     C26346   8.137   7.971   9.333 -0.3806 -0.0769 -0.2357
  196MOL0     C26347   8.206   8.023   9.211 -0.1692  0.1996  0.6604
  196MOL0     C26348   8.327   7.947   9.160  0.0095  0.3150 -0.4407
  196MOL0     O26349   8.435   7.938   9.256 -0.3090 -0.0433  0.2718
  196MOL0     C26350   8.566   7.952   9.232 -0.1643 -0.2424  0.4477
  196MOL0     C26351   8.621   7.969   9.105 -0.3882  1.0563 -0.1487
  196MOL0     C26352   8.758   7.998   9.095  0.4808 -0.2496  0.0699
  196MOL0     C26353   8.850   7.984   9.203  1.0095 -0.2288  0.6025
  196MOL0     C26354   9.001   7.995   9.185  0.3701 -1.0855 -0.3752
  196MOL0     O26355   9.049   7.987   9.046  0.2404  0.0676 -0.2793
  196MOL0     C26356   9.178   7.955   9.033 -0.2218  0.0655  0.0968
  196MOL0     C26357   9.269   8.058   9.015  1.1213 -0.3645 -0.5114
  196MOL0     C26358   9.406   8.032   9.012  0.2854 -0.8449 -0.0685
  196MOL0     C26359   9.458   7.903   9.020 -0.0172 -0.2491  0.2777
  196MOL0     O26360   9.592   7.878   9.020 -0.6059 -0.6679 -0.1279
  196MOL0     C26361   9.677   7.951   8.923 -0.2721  0.5221 -0.5932
  196MOL0     C26362   9.814   7.879   8.914 -0.7390  0.5836  0.0832
  196MOL0     C26363   9.877   7.931   8.780 -0.0321 -0.7365  0.4405
  196MOL0     C26364  10.024   7.954   8.814  0.2905 -0.0536 -0.8259
  196MOL0     C26365  10.100   7.988   8.687 -0.3159  1.0874  0.9327
  196MOL0     C26366  10.252   8.011   8.714  1.1992 -0.0015  0.6431
  196MOL0     C26367  10.337   7.884   8.702 -0.4672  0.4262 -0.0255
  196MOL0     C26368  10.466   7.932   8.632 -0.0499  0.1618  0.2808
  196MOL0    Cl26369  10.550   7.780   8.577 -0.2111  0.2708 -0.3507
  196MOL0     C26370   9.368   7.800   9.031  0.2400  0.0031 -0.8687
  196MOL0     C26371   9.228   7.820   9.042 -0.6234  0.2449  0.2584
  196MOL0     O26372   9.073   7.989   9.276  0.5615 -0.6536 -1.0101
  196MOL0     C26373   8.792   7.971   9.331  0.2299  0.3217  0.0675
  196MOL0     C26374   8.653   7.960   9.341  0.5043  0.2334  0.0118
  196MOL0     N26375   8.060   8.093   9.671 -1.2686  0.2304  0.4523
  196MOL0     N26376   8.021   8.037   9.778  0.9206 -0.4267 -0.2979
  196MOL0     C26377   6.858   7.566  10.052 -0.4184 -0.0298  0.0546
  196MOL0     C26378   6.720   7.553  10.017  0.3284  0.9074 -1.0338
  196MOL0     C26379   6.309   7.486   9.907  0.9317  0.6503 -0.4210
  196MOL0     C26380   6.210   7.585   9.923  0.0422  0.2502 -0.6027
  196MOL0     C26381   6.075   7.562   9.954  0.3314 -0.0518  0.0716
  196MOL0     C26382   6.026   7.426   9.970  0.4741  0.2468 -0.2171
  196MOL0     O26383   5.899   7.390   9.991 -0.1926 -0.1831  0.2555
  196MOL0     C26384   5.811   7.498  10.037  0.1931 -0.5808  0.3593
  196MOL0     C26385   5.679   7.435  10.095  0.5033 -0.0612  0.5392
  196MOL0     C26386   5.577   7.402   9.987 -0.2395 -0.4170  0.0417
  196MOL0     C26387   5.447   7.358  10.045  0.0967 -0.0530  0.3337
  196MOL0     C26388   5.368   7.475  10.107 -0.7640 -0.1047  0.3775
  196MOL0     C26389   5.324   7.571  10.165 -0.0732 -0.2135  0.1049
  196MOL0     C26390   6.116   7.325   9.946 -0.1600 -0.0608 -0.3329
  196MOL0     C26391   6.252   7.354   9.922 -0.0435 -0.0685  0.3159
  196MOL0     C26392   6.333   7.231   9.905 -0.0353  0.2464  0.1507
  196MOL0     H26393   6.759   7.331   9.747 -3.3518  0.5171  1.1859
  196MOL0     H26394   6.991   7.356   9.808 -1.0210  0.8196 -3.6547
  196MOL0     H26395   7.085   7.684  10.114  0.1741  1.1479 -1.4969
  196MOL0     H26396   7.163   7.547  10.197 -1.6295  1.5153  0.9287
  196MOL0     H26397   7.342   7.540  10.045 -0.7339 -0.3898 -1.1299
  196MOL0     H26398   7.322   7.700  10.123 -2.1625  0.1385  1.3558
  196MOL0     H26399   7.197   7.774   9.935 -2.3336 -2.5557  3.2319
  196MOL0     H26400   7.242   7.629   9.831  1.3854 -1.0035  0.1989
  196MOL0     H26401   7.378   7.819   9.784  0.1745 -0.3498  0.0088
  196MOL0     H26402   7.428   7.835   9.956 -1.6719  0.0214  0.9053
  196MOL0     H26403   7.508   7.571   9.873 -0.9654 -0.9338 -1.7102
  196MOL0     H26404   7.502   7.655   9.727  2.9798  2.5544 -0.2848
  196MOL0     H26405   7.658   7.776   9.967 -3.4687 -0.3244  0.0072
  196MOL0     H26406   7.718   7.626   9.895  0.4819 -0.1112  2.8721
  196MOL0     H26407   7.673   7.891   9.749 -1.8613 -0.4271  2.3219
  196MOL0     H26408   7.745   7.744   9.684 -0.6599  1.8231 -0.3895
  196MOL0     H26409   7.833   7.913   9.915 -0.8613 -1.6001  0.5074
  196MOL0     H26410   7.911   7.763   9.875  1.6504 -2.0021 -3.2686
  196MOL0     H26411   7.897   7.844   9.544 -0.8440  2.2388 -0.8668
  196MOL0     H26412   7.948   8.070   9.347 -1.1485 -0.5096  0.7031
  196MOL0     H26413   8.087   8.171   9.387  0.6665 -0.3678  0.6958
  196MOL0     H26414   8.208   7.936   9.409  0.6943  1.4854 -0.4681
  196MOL0     H26415   8.083   7.880   9.304  2.6236 -1.6606 -1.2981
  196MOL0     H26416   8.247   8.121   9.237  1.6614  0.7426 -3.5303
  196MOL0     H26417   8.128   8.034   9.135 -0.0599 -0.2258  0.4856
  196MOL0     H26418   8.355   8.001   9.069 -2.0423 -0.8430 -1.8526
  196MOL0     H26419   8.298   7.847   9.128 -2.5864  1.5071 -2.1945
  196MOL0     H26420   8.558   7.960   9.017 -2.1834 -1.9570  1.2730
  196MOL0     H26421   8.798   8.013   8.996  0.8459 -0.7616  0.1362
  196MOL0     H26422   9.236   8.161   9.021  1.7677 -0.1876  0.1571
  196MOL0     H26423   9.473   8.117   9.011 -0.3196 -0.2984 -2.7266
  196MOL0     H26424   9.631   7.944   8.824 -2.2824 -1.4427  0.4006
  196MOL0     H26425   9.676   8.052   8.965  2.1269  0.3738 -0.0577
  196MOL0     H26426   9.869   7.902   9.005  0.4219 -2.3759  0.2311
  196MOL0     H26427   9.799   7.771   8.917 -0.4457  0.5149 -0.7463
  196MOL0     H26428   9.864   7.856   8.701 -0.2996 -0.6096  0.3620
  196MOL0     H26429   9.842   8.028   8.742 -0.8163 -2.8912 -5.5494
  196MOL0     H26430  10.062   7.864   8.865  2.9073  1.5033  0.1601
  196MOL0     H26431  10.038   8.039   8.881 -0.5478 -1.0911  0.7383
  196MOL0     H26432  10.056   8.077   8.641 -0.6324  0.2154 -0.5344
  196MOL0     H26433  10.086   7.913   8.608 -3.6847  3.8490 -1.4277
  196MOL0     H26434  10.293   8.088   8.649  1.1971 -0.0853  0.5435
  196MOL0     H26435  10.262   8.046   8.817 -2.2010 -0.3872  1.2251
  196MOL0     H26436  10.293   7.803   8.643 -1.7071  1.2092 -0.2085
  196MOL0     H26437  10.360   7.856   8.806 -0.4094 -1.2213 -0.4446
  196MOL0     H26438  10.442   7.997   8.547  1.4940 -2.1259 -2.0476
  196MOL0     H26439  10.528   7.978   8.710 -0.8375 -3.0815  3.0547
  196MOL0     H26440   9.417   7.703   9.031 -0.3152 -0.2825 -0.5424
  196MOL0     H26441   9.155   7.740   9.057 -1.1864  0.7753  0.3807
  196MOL0     H26442   8.863   7.966   9.413 -0.2654  0.8357  0.5393
  196MOL0     H26443   8.596   7.948   9.432 -0.1962  0.6559 -0.3661
  196MOL0     H26444   6.886   7.630  10.135  0.5264 -1.5962  0.9970
  196MOL0     H26445   6.648   7.611  10.074  1.0904  1.0442 -0.2111
  196MOL0     H26446   6.246   7.688   9.924 -0.0848  0.2972  0.7841
  196MOL0     H26447   6.020   7.655   9.963  2.5320  1.2863  0.1913
  196MOL0     H26448   5.779   7.569   9.960 -3.0880 -2.0101  0.2231
  196MOL0     H26449   5.858   7.549  10.122 -1.6747  0.8919  0.5810
  196MOL0     H26450   5.635   7.497  10.174  0.0376  0.8910 -0.4430
  196MOL0     H26451   5.700   7.341  10.147 -1.6636 -2.1356 -2.0917
  196MOL0     H26452   5.610   7.317   9.926 -0.7361 -1.8024  1.6153
  196MOL0     H26453   5.558   7.491   9.927  0.2728  0.3989  1.0500
  196MOL0     H26454   5.394   7.315   9.959 -0.5556 -0.0567  0.7348
  196MOL0     H26455   5.465   7.280  10.120 -0.9636  1.2712  2.0374
  196MOL0     H26456   5.276   7.653  10.215  0.1560 -0.0066 -0.0146
  196MOL0     H26457   6.078   7.224   9.958  1.3141 -0.4747  1.2737
  196MOL0     H26458   6.279   7.146   9.947  0.3120  1.2106  2.7038
  196MOL0     H26459   6.347   7.205   9.799  1.4502 -0.9839  0.6095
  196MOL0     H26460   6.428   7.232   9.959  1.2486 -2.6588 -1.7924
  197MOL0     O26461   7.973  11.049   3.477 -0.1811 -0.0705  0.7675
  197MOL0     C26462   8.028  10.952   3.426  0.4102 -0.3180  0.0975
  197MOL0     O26463   8.155  10.916   3.448  0.7153  0.5478  0.2203
  197MOL0     C26464   8.263  10.989   3.510  0.0835  0.4532  0.2602
  197MOL0     C26465   8.250  11.105   3.589 -0.4402 -0.2660  0.1281
  197MOL0     C26466   8.367  11.161   3.643 -0.6142  0.1330 -0.0610
  197MOL0     C26467   8.495  11.101   3.630  0.5858 -0.8003  0.1711
  197MOL0     O26468   8.601  11.167   3.701  0.4478  0.2458  0.2510
  197MOL0     C26469   8.730  11.107   3.720  0.3337 -0.3749 -0.3478
  197MOL0     C26470   8.808  11.183   3.820 -0.5464 -0.5909 -0.0233
  197MOL0     C26471   8.941  11.125   3.850 -0.1578  0.0819  0.1364
  197MOL0     C26472   9.046  11.155   3.742  0.0059  0.5969 -0.1380
  197MOL0     C26473   9.187  11.105   3.793  0.3895 -0.5845 -0.7113
  197MOL0     C26474   9.291  11.135   3.692  0.3900  0.9833 -0.0699
  197MOL0     C26475   9.426  11.062   3.694  1.1282 -0.4018 -0.2654
  197MOL0     C26476   9.526  11.105   3.587 -0.4936 -0.0654  0.5843
  197MOL0     N26477   9.633  11.004   3.559  1.0033  0.5520  0.4269
  197MOL0     C26478   9.717  11.005   3.449 -0.3400  0.2477 -0.1091
  197MOL0     C26479   9.780  10.884   3.456 -0.0849  0.0394  0.0524
  197MOL0     C26480   9.885  10.848   3.361 -1.0278  1.0592 -0.2210
  197MOL0     C26481   9.991  10.754   3.417  0.1009  0.4634 -0.6849
  197MOL0     C26482  10.107  10.822   3.487 -1.1744  1.3510 -0.6757
  197MOL0     C26483  10.195  10.718   3.565  0.1273  0.0952 -0.2035
  197MOL0     O26484  10.277  10.642   3.471  0.1847  0.5008 -0.2804
  197MOL0     C26485  10.408  10.636   3.511 -0.2164 -0.0271  0.2971
  197MOL0     C26486  10.510  10.654   3.417 -0.1880 -0.5090 -0.0483
  197MOL0     C26487  10.644  10.673   3.453  0.5730  0.6565 -0.7011
  197MOL0     C26488  10.685  10.650   3.586  0.8395 -0.0655 -1.3507
  197MOL0     C26489  10.832  10.661   3.619  0.4929  0.4134 -1.3585
  197MOL0     O26490  10.901  10.645   3.502  0.1247 -0.1884 -1.3297
  197MOL0     C26491  11.031  10.639   3.506  0.6331  0.0836  0.4806
  197MOL0     C26492  11.095  10.524   3.544  0.0560  0.3087 -0.1748
  197MOL0     C26493  11.238  10.523   3.540 -0.0197 -0.3570 -0.5892
  197MOL0     C26494  11.305  10.644   3.509  0.0021 -0.3117  0.4499
  197MOL0     O26495  11.444  10.658   3.503  0.9887  0.3819 -0.9417
  197MOL0     C26496  11.508  10.764   3.580 -0.4150  0.4729  0.3656
  197MOL0     C26497  11.580  10.697   3.698  0.1817  0.1240  0.0761
  197MOL0     C26498  11.703  10.627   3.646 -1.1674  0.3214 -1.5805
  197MOL0     C26499  11.822  10.713   3.626  0.4800  0.8627  0.1492
  197MOL0     C26500  11.949  10.630   3.602  0.4507 -0.1976  0.2891
  197MOL0     C26501  12.055  10.704   3.532 -0.1152  0.0362  0.4543
  197MOL0     C26502  12.179  10.620   3.525 -0.5598 -0.6595 -0.4213
  197MOL0     C26503  12.293  10.692   3.461  0.3210 -0.6587 -0.1635
  197MOL0    Cl26504  12.438  10.588   3.478  0.2128  0.1882  0.0182
  197MOL0     C26505  11.231  10.755   3.462  0.0509 -0.2135 -0.6261
  197MOL0     C26506  11.094  10.747   3.456 -1.0449  0.2059  1.2853
  197MOL0     O26507  10.874  10.657   3.732 -0.3530 -0.1148  1.1802
  197MOL0     C26508  10.580  10.625   3.679 -0.2302  1.7187  1.1031
  197MOL0     C26509  10.446  10.623   3.647 -0.1469  0.3866 -0.0001
  197MOL0     N26510   9.739  10.818   3.568 -0.2267  0.5800  0.0977
  197MOL0     N26511   9.648  10.889   3.630  0.5704  0.3015  1.2354
  197MOL0     C26512   8.500  10.986   3.557 -0.3592  0.4206  0.5176
  197MOL0     C26513   8.389  10.934   3.500  0.0970 -0.1253  1.4660
  197MOL0     C26514   7.954  10.860   3.342  0.3601  0.9147  0.2522
  197MOL0     C26515   7.989  10.722   3.335  0.4427 -0.3536  0.0421
  197MOL0     C26516   7.915  10.631   3.253  0.6367 -0.8508 -0.4328
  197MOL0     C26517   7.801  10.675   3.193  0.1276 -0.0848  0.6230
  197MOL0     O26518   7.731  10.583   3.120 -0.0844  0.6857  0.4299
  197MOL0     C26519   7.591  10.609   3.083 -0.8006  0.5057  0.4109
  197MOL0     C26520   7.555  10.475   3.025 -0.1752 -0.1403 -0.5900
  197MOL0     C26521   7.455  10.399   3.121  0.5387  0.0570  0.2760
  197MOL0     C26522   7.311  10.458   3.136  0.9951  0.6344  0.2687
  197MOL0     C26523   7.221  10.352   3.190 -0.4350  0.2032 -1.2416
  197MOL0     C26524   7.173  10.242   3.226  1.0406  0.0926  0.7881
  197MOL0     C26525   7.756  10.809   3.212 -0.4884 -0.2243 -0.2175
  197MOL0     C26526   7.840  10.897   3.278  0.2685 -0.4827  0.3122
  197MOL0     C26527   7.803  11.045   3.262  0.2931 -0.0101 -0.1244
  197MOL0     H26528   8.153  11.145   3.617  0.0504  0.7633  0.3873
  197MOL0     H26529   8.382  11.249   3.704  3.5696 -1.9978  2.4791
  197MOL0     H26530   8.726  11.004   3.758  2.7276  0.6124  3.1365
  197MOL0     H26531   8.778  11.119   3.622 -2.0005 -0.5246 -1.5847
  197MOL0     H26532   8.758  11.207   3.914  1.5642  1.2080  0.7492
  197MOL0     H26533   8.818  11.287   3.787 -2.7026  0.2377  1.7045
  197MOL0     H26534   8.912  11.020   3.859 -3.6882  1.0578  1.9191
  197MOL0     H26535   8.978  11.161   3.947  0.4128 -1.1551  0.4012
  197MOL0     H26536   9.023  11.120   3.641 -3.2299  1.1615  0.3138
  197MOL0     H26537   9.055  11.264   3.740 -0.3080  0.7281  2.1247
  197MOL0     H26538   9.204  11.150   3.891  2.2777 -1.6988 -0.4962
  197MOL0     H26539   9.185  10.998   3.816  1.1031 -1.1496 -3.0001
  197MOL0     H26540   9.250  11.116   3.592 -3.2735 -0.0199  1.4576
  197MOL0     H26541   9.304  11.244   3.684 -0.0563  0.9202 -2.4805
  197MOL0     H26542   9.422  10.954   3.683  0.8655 -0.6041  1.4963
  197MOL0     H26543   9.479  11.086   3.787  2.2990 -0.4729 -0.8998
  197MOL0     H26544   9.456  11.094   3.504  2.1573 -2.8426 -1.5104
  197MOL0     H26545   9.569  11.206   3.588  0.8663 -0.6236  0.7447
  197MOL0     H26546   9.715  11.076   3.366 -3.0919 -2.3916 -2.5290
  197MOL0     H26547   9.848  10.802   3.269 -0.8513  1.3570 -0.4427
  197MOL0     H26548   9.940  10.937   3.329  2.3426 -0.3448  1.2132
  197MOL0     H26549   9.946  10.677   3.480  1.2353 -0.1056 -0.5469
  197MOL0     H26550  10.019  10.696   3.328 -0.0010 -1.1271  0.2888
  197MOL0     H26551  10.077  10.891   3.566  0.1525 -1.2278  2.2957
  197MOL0     H26552  10.170  10.880   3.420 -0.6234  2.8065  1.0442
  197MOL0     H26553  10.138  10.646   3.624  0.3906 -1.6718 -1.9739
  197MOL0     H26554  10.253  10.774   3.638  0.1657  1.6900 -1.3942
  197MOL0     H26555  10.476  10.662   3.315 -0.3617  0.3131  0.0630
  197MOL0     H26556  10.701  10.703   3.365 -0.2918  1.6398 -0.9589
  197MOL0     H26557  11.022  10.447   3.568 -1.5531  1.1596 -2.0736
  197MOL0     H26558  11.293  10.438   3.579 -2.6294 -1.1400  1.6351
  197MOL0     H26559  11.579  10.819   3.518 -1.4058 -0.1362 -1.3981
  197MOL0     H26560  11.427  10.830   3.612 -1.0187 -1.4143  3.1035
  197MOL0     H26561  11.605  10.782   3.762 -2.2393  1.3212 -0.4618
  197MOL0     H26562  11.509  10.631   3.749 -0.0462 -1.0926 -1.7204
  197MOL0     H26563  11.724  10.544   3.713 -0.8052  1.3764 -0.3593
  197MOL0     H26564  11.687  10.568   3.555  3.5759 -4.6019  0.2443
  197MOL0     H26565  11.831  10.782   3.711 -2.6459 -0.1960  1.4783
  197MOL0     H26566  11.809  10.768   3.532  1.2152  1.2755  0.2784
  197MOL0     H26567  11.920  10.542   3.543 -1.5748 -1.0368  2.3777
  197MOL0     H26568  11.985  10.584   3.694 -0.0765 -2.1014 -0.3891
  197MOL0     H26569  12.030  10.727   3.428 -1.2682 -0.2306  0.6639
  197MOL0     H26570  12.091  10.796   3.578  4.9304 -1.2116 -0.2947
  197MOL0     H26571  12.161  10.531   3.464  1.5303 -0.4497 -1.4214
  197MOL0     H26572  12.214  10.595   3.625  0.7036 -1.4248 -1.0362
  197MOL0     H26573  12.265  10.707   3.357 -0.3891 -2.1736 -0.2142
  197MOL0     H26574  12.312  10.788   3.511 -0.2982  0.4199 -1.9012
  197MOL0     H26575  11.276  10.851   3.439 -0.1502  0.8813  2.9901
  197MOL0     H26576  11.045  10.834   3.415 -0.4821 -0.4381 -0.9134
  197MOL0     H26577  10.606  10.615   3.784 -0.0491  1.0685  1.0000
  197MOL0     H26578  10.366  10.599   3.716  0.2910 -1.8112 -0.2015
  197MOL0     H26579   8.596  10.938   3.544  1.0222  3.2899 -0.5992
  197MOL0     H26580   8.391  10.848   3.433 -0.3186  3.6241 -4.0158
  197MOL0     H26581   8.079  10.680   3.379  2.1817  1.3156 -1.7163
  197MOL0     H26582   7.937  10.525   3.243  3.3568 -0.3658 -0.3290
  197MOL0     H26583   7.583  10.693   3.014  1.3344  1.6695  1.4995
  197MOL0     H26584   7.536  10.638   3.173 -0.7056  0.4061  0.5026
  197MOL0     H26585   7.636  10.404   3.006 -0.3484  0.0120 -1.9925
  197MOL0     H26586   7.509  10.485   2.926 -1.1403  1.1782 -0.0355
  197MOL0     H26587   7.506  10.377   3.215 -1.1656 -2.0818  0.7884
  197MOL0     H26588   7.454  10.297   3.081  2.0539 -0.7014  2.0562
  197MOL0     H26589   7.297  10.548   3.196 -0.5992  0.1857  0.6278
  197MOL0     H26590   7.272  10.480   3.036 -1.9862 -1.3878  0.8379
  197MOL0     H26591   7.113  10.156   3.249  1.2161  0.4429  2.7423
  197MOL0     H26592   7.664  10.847   3.169 -0.9407 -0.8805  0.1348
  197MOL0     H26593   7.741  11.055   3.173 -0.9509 -3.5843  0.1792
  197MOL0     H26594   7.749  11.084   3.349 -0.6702 -1.1934 -0.1771
  197MOL0     H26595   7.902  11.089   3.246  0.9027 -1.6001 -0.9493
  198MOL0     O26596   0.265   3.959   6.145  0.1909  0.3502 -0.6108
  198MOL0     C26597   0.195   3.901   6.224 -0.0418  0.9198 -0.8687
  198MOL0     O26598   0.239   3.835   6.336 -0.0127  0.0318 -0.9986
  198MOL0     C26599   0.368   3.839   6.376  0.8269 -0.7138 -0.0530
  198MOL0     C26600   0.473   3.788   6.302 -0.3834  1.4114  0.0218
  198MOL0     C26601   0.608   3.791   6.346  0.0367 -0.4021  0.4064
  198MOL0     C26602   0.634   3.862   6.464 -0.0216 -0.0694  0.4700
  198MOL0     O26603   0.755   3.881   6.522 -0.4902 -0.8829  0.4236
  198MOL0     C26604   0.867   3.805   6.472  0.8733 -0.3537  0.0842
  198MOL0     C26605   0.969   3.836   6.579 -0.1051 -0.5396 -0.1481
  198MOL0     C26606   1.112   3.771   6.539  0.3751 -0.6167  1.0143
  198MOL0     C26607   1.223   3.799   6.636  0.1564  0.6163 -0.0173
  198MOL0     C26608   1.364   3.777   6.566  0.3953  0.1591  0.2721
  198MOL0     C26609   1.451   3.686   6.648 -0.8418 -0.3646  0.2855
  198MOL0     C26610   1.582   3.641   6.576 -0.2337  0.1951  0.0178
  198MOL0     C26611   1.651   3.547   6.671  0.2897 -0.8213  0.2858
  198MOL0     N26612   1.771   3.468   6.623  0.4865 -0.1300  0.3869
  198MOL0     C26613   1.895   3.523   6.616  0.2675 -0.1400 -0.9909
  198MOL0     C26614   1.973   3.418   6.583  0.7320 -0.2681  0.6327
  198MOL0     C26615   2.122   3.427   6.571 -0.7212 -0.2742  0.6084
  198MOL0     C26616   2.180   3.353   6.705 -0.1119 -0.6095  0.2321
  198MOL0     C26617   2.343   3.352   6.679  0.5917 -0.0466  0.0365
  198MOL0     C26618   2.420   3.276   6.788 -0.6659  0.0481 -0.5507
  198MOL0     O26619   2.474   3.357   6.890  0.2919  1.0862 -0.4091
  198MOL0     C26620   2.571   3.452   6.865 -0.4239  0.1182 -0.1713
  198MOL0     C26621   2.628   3.494   6.739  0.3820 -0.0714 -0.1057
  198MOL0     C26622   2.721   3.595   6.739 -0.0361  0.1316 -0.6794
  198MOL0     C26623   2.759   3.660   6.861  1.1028  0.3787  0.6258
  198MOL0     C26624   2.851   3.775   6.850  0.9721  0.9794 -0.0690
  198MOL0     O26625   2.919   3.783   6.738 -0.4016 -0.3722  0.2632
  198MOL0     C26626   3.037   3.852   6.726  0.1326 -0.4433  0.0496
  198MOL0     C26627   3.151   3.787   6.699  0.1485  0.8368  0.5448
  198MOL0     C26628   3.272   3.861   6.700 -0.0331  0.2673  0.2690
  198MOL0     C26629   3.272   3.996   6.738 -0.3538 -0.0186  0.3404
  198MOL0     O26630   3.389   4.071   6.755  0.3514  0.6375  0.2842
  198MOL0     C26631   3.514   4.016   6.690 -0.6506 -0.1627  1.2522
  198MOL0     C26632   3.614   4.127   6.662  0.8992  0.0178 -0.3705
  198MOL0     C26633   3.748   4.067   6.640 -0.4541 -0.2634  0.5765
  198MOL0     C26634   3.859   4.162   6.609  0.4851 -0.3395  0.5106
  198MOL0     C26635   3.986   4.083   6.579 -0.2210  0.3501  0.5472
  198MOL0     C26636   4.099   4.186   6.544  0.2230 -0.5576  0.3976
  198MOL0     C26637   4.244   4.138   6.524 -0.9012 -0.2296 -0.3172
  198MOL0     C26638   4.316   4.080   6.645 -0.8322  0.2475 -0.6461
  198MOL0    Cl26639   4.377   4.208   6.755 -0.3328 -0.3104 -0.6107
  198MOL0     C26640   3.156   4.061   6.755  0.9758  0.2527 -0.4186
  198MOL0     C26641   3.035   3.987   6.749  0.1082  0.0994  0.1206
  198MOL0     O26642   2.857   3.853   6.945 -0.2576 -0.1804 -0.7080
  198MOL0     C26643   2.688   3.630   6.976  0.4539 -0.2879 -0.3856
  198MOL0     C26644   2.600   3.521   6.984  0.5861  1.0688  0.2671
  198MOL0     N26645   1.888   3.313   6.551 -0.0730  0.9881 -0.0433
  198MOL0     N26646   1.772   3.340   6.599 -0.0436  0.0384 -0.8864
  198MOL0     C26647   0.531   3.933   6.524 -0.6899 -0.2394 -0.8407
  198MOL0     C26648   0.395   3.917   6.484 -0.2459  0.9594 -0.0932
  198MOL0     C26649   0.043   3.894   6.215 -0.3350 -0.2128 -0.5023
  198MOL0     C26650  -0.032   3.810   6.302 -0.4811 -0.3082 -0.5973
  198MOL0     C26651  -0.171   3.804   6.295  0.1833 -0.4912  0.0243
  198MOL0     C26652  -0.247   3.872   6.198  0.0892  0.0862  0.2094
  198MOL0     O26653  -0.393   3.863   6.202 -0.0450 -0.4887  0.1204
  198MOL0     C26654  -0.468   3.925   6.096 -0.6363  0.7432  0.3644
  198MOL0     C26655  -0.610   3.886   6.106  0.2373  1.1085  0.8729
  198MOL0     C26656  -0.693   3.942   5.987  0.4537 -0.7874 -0.8090
  198MOL0     C26657  -0.838   3.954   6.013 -0.7013  0.3898  0.1529
  198MOL0     C26658  -0.894   3.817   6.039 -0.2581  0.1289  0.3219
  198MOL0     C26659  -0.958   3.714   6.054  0.3662  0.6494 -0.2867
  198MOL0     C26660  -0.171   3.954   6.108 -0.3215  0.4204 -0.2616
  198MOL0     C26661  -0.036   3.958   6.111 -0.2948 -0.3341 -0.2320
  198MOL0     C26662   0.024   4.055   6.009  0.5247  0.3492  0.5216
  198MOL0     H26663   0.453   3.728   6.214 -0.2859  1.8146 -0.2754
  198MOL0     H26664   0.689   3.750   6.286  1.6568  0.9856  1.5443
  198MOL0     H26665   0.838   3.700   6.470 -1.0257  0.1234 -2.8673
  198MOL0     H26666   0.902   3.842   6.375  1.0050  0.3774  0.3995
  198MOL0     H26667   0.926   3.798   6.673  1.8971  0.6970  1.3635
  198MOL0     H26668   0.990   3.943   6.592  0.0449 -0.5226 -0.5237
  198MOL0     H26669   1.132   3.815   6.440 -1.7617  3.4185  2.1560
  198MOL0     H26670   1.100   3.662   6.536 -1.0042 -0.4659 -0.3253
  198MOL0     H26671   1.207   3.896   6.683  0.2079 -0.3168  2.0502
  198MOL0     H26672   1.219   3.735   6.725  0.0357 -1.0246 -1.1452
  198MOL0     H26673   1.349   3.736   6.466 -1.8893  1.0805  0.1654
  198MOL0     H26674   1.417   3.873   6.562  0.5372  0.1252  1.1929
  198MOL0     H26675   1.478   3.737   6.740 -0.1272  1.7623 -1.0391
  198MOL0     H26676   1.391   3.605   6.690  0.3510 -1.4721 -0.0614
  198MOL0     H26677   1.643   3.725   6.543 -0.3857 -0.6969 -2.8142
  198MOL0     H26678   1.558   3.587   6.484  0.8354  1.9404 -1.3671
  198MOL0     H26679   1.689   3.614   6.749  1.4545 -0.8762 -0.2127
  198MOL0     H26680   1.572   3.482   6.710 -2.1599  2.5754  1.5374
  198MOL0     H26681   1.930   3.624   6.634  1.8693 -0.8090 -0.0958
  198MOL0     H26682   2.148   3.371   6.481  0.9151 -2.1092  2.1326
  198MOL0     H26683   2.167   3.526   6.570 -0.0923 -0.5572  0.0361
  198MOL0     H26684   2.146   3.415   6.789 -1.4635 -0.5974 -0.2905
  198MOL0     H26685   2.150   3.249   6.715  1.5236 -1.0115  1.3102
  198MOL0     H26686   2.394   3.449   6.683  0.7843 -0.1665  0.4668
  198MOL0     H26687   2.373   3.315   6.581  4.2753 -0.4571  1.1745
  198MOL0     H26688   2.492   3.210   6.739  0.0930  0.0498  0.5061
  198MOL0     H26689   2.353   3.203   6.835  1.7237 -1.3102  0.9882
  198MOL0     H26690   2.610   3.451   6.641  0.1035  1.3128 -0.6907
  198MOL0     H26691   2.769   3.605   6.642 -2.6249 -3.4393 -2.5772
  198MOL0     H26692   3.149   3.682   6.675 -1.8147  1.1026 -0.6771
  198MOL0     H26693   3.364   3.804   6.696 -0.1858 -0.0155  0.7380
  198MOL0     H26694   3.558   3.947   6.762  1.1227 -1.3356 -0.8126
  198MOL0     H26695   3.503   3.955   6.599  3.7385 -0.0592  0.4123
  198MOL0     H26696   3.580   4.190   6.579  0.6093  1.3955  0.7501
  198MOL0     H26697   3.619   4.188   6.753 -0.8340 -3.2129  2.0856
  198MOL0     H26698   3.772   4.013   6.732 -0.6007 -2.9928 -0.8912
  198MOL0     H26699   3.736   3.991   6.563 -0.5130 -1.9272  2.1493
  198MOL0     H26700   3.860   4.237   6.689 -0.0527  0.4478 -0.1989
  198MOL0     H26701   3.829   4.219   6.520  0.4347 -1.8441 -0.4700
  198MOL0     H26702   3.969   4.000   6.509  0.1372 -1.3471  2.3801
  198MOL0     H26703   4.012   4.018   6.663  0.2605 -1.7338 -1.1147
  198MOL0     H26704   4.070   4.237   6.451 -2.1940  1.7865  2.2815
  198MOL0     H26705   4.105   4.263   6.621 -0.7836 -2.0004  2.0093
  198MOL0     H26706   4.297   4.229   6.493 -0.1508 -0.9593 -1.2778
  198MOL0     H26707   4.258   4.076   6.435  0.5025 -0.3548 -0.0398
  198MOL0     H26708   4.251   4.006   6.693  1.4661 -1.1020  0.5558
  198MOL0     H26709   4.401   4.024   6.606  0.5024  0.5795  1.6366
  198MOL0     H26710   3.156   4.163   6.791  1.6318  1.0865 -2.6082
  198MOL0     H26711   2.946   4.033   6.793  0.9761  1.2893  0.6836
  198MOL0     H26712   2.710   3.698   7.057  1.3783 -1.6624  0.5461
  198MOL0     H26713   2.579   3.480   7.082  2.0142 -0.0734  0.1238
  198MOL0     H26714   0.550   3.999   6.608 -3.9479 -2.2375  1.6636
  198MOL0     H26715   0.322   3.977   6.538 -0.5347 -0.2201  0.8643
  198MOL0     H26716   0.013   3.758   6.386  0.0700 -0.6337 -1.0832
  198MOL0     H26717  -0.230   3.733   6.352 -0.1650 -1.5213 -1.5687
  198MOL0     H26718  -0.434   3.892   5.997 -0.0008  1.5517  0.3061
  198MOL0     H26719  -0.453   4.032   6.110  2.2019  0.2135  2.1307
  198MOL0     H26720  -0.644   3.930   6.200 -1.6571 -2.0224  1.8010
  198MOL0     H26721  -0.639   3.782   6.118 -3.0146  1.8976  0.6863
  198MOL0     H26722  -0.655   3.893   5.896  3.1820  0.6583 -0.5552
  198MOL0     H26723  -0.660   4.046   5.975  1.7908 -0.7328  2.3454
  198MOL0     H26724  -0.850   4.027   6.094 -1.3219  0.6750 -0.1945
  198MOL0     H26725  -0.878   3.978   5.914  0.4574 -1.8206 -0.9160
  198MOL0     H26726  -1.012   3.624   6.073  0.0409  0.4041 -2.2218
  198MOL0     H26727  -0.223   3.995   6.022  1.7711  2.2274 -0.7679
  198MOL0     H26728   0.103   4.118   6.049 -0.6965  0.9043  2.2007
  198MOL0     H26729   0.069   3.988   5.934 -0.2171 -0.5871  0.8893
  198MOL0     H26730  -0.050   4.108   5.949 -0.8104  0.0039  1.7961
  199MOL0     O26731   4.906   8.383   9.418  0.1668 -0.0703  0.0020
  199MOL0     C26732   4.861   8.343   9.526 -0.1125 -0.6082  0.2515
  199MOL0     O26733   4.908   8.372   9.653 -0.2723  0.5828 -0.1995
  199MOL0     C26734   4.991   8.480   9.665 -0.4806  0.0835  0.2666
  199MOL0     C26735   5.124   8.473   9.714  0.7896  0.0561 -0.0132
  199MOL0     C26736   5.207   8.588   9.714 -0.7223 -0.2037 -0.7444
  199MOL0     C26737   5.159   8.706   9.668  0.6396  0.3047 -0.7930
  199MOL0     O26738   5.243   8.818   9.686  0.0945  0.1611 -0.0978
  199MOL0     C26739   5.197   8.948   9.650 -0.2654 -0.1673  0.5412
  199MOL0     C26740   5.305   9.045   9.696 -0.0914  0.4489  0.5689
  199MOL0     C26741   5.433   9.038   9.613  0.4141  0.4767  0.1926
  199MOL0     C26742   5.404   9.103   9.479  0.3747 -0.1291  0.5898
  199MOL0     C26743   5.546   9.118   9.413  0.7735 -0.0789 -0.2525
  199MOL0     C26744   5.569   9.020   9.297 -0.1500 -0.1682  0.2792
  199MOL0     C26745   5.723   8.998   9.293  0.5143 -0.4806  0.3726
  199MOL0     C26746   5.758   8.878   9.381  0.3514 -0.6598  0.2263
  199MOL0     N26747   5.895   8.836   9.354 -0.5148 -0.0284 -0.5314
  199MOL0     C26748   6.003   8.923   9.322 -0.0747 -0.1437  0.0237
  199MOL0     C26749   6.097   8.852   9.253  0.5292  0.0044 -0.3765
  199MOL0     C26750   6.219   8.915   9.184  0.0024 -0.5756  0.7018
  199MOL0     C26751   6.333   8.956   9.268  0.0365  1.3809 -0.9109
  199MOL0     C26752   6.452   9.008   9.187 -0.1068 -0.0726 -0.2207
  199MOL0     C26753   6.561   9.085   9.266  0.1889 -0.9983  0.0934
  199MOL0     O26754   6.642   9.178   9.187  1.2604 -0.1678  0.2725
  199MOL0     C26755   6.780   9.178   9.209  0.2731  0.7982  0.0186
  199MOL0     C26756   6.842   9.058   9.196 -0.6117 -0.1790 -0.5687
  199MOL0     C26757   6.981   9.055   9.209 -0.3448  0.3290 -0.2970
  199MOL0     C26758   7.059   9.172   9.237  0.7924  0.1021  0.4102
  199MOL0     C26759   7.197   9.165   9.275 -0.0329  0.0234  0.7557
  199MOL0     O26760   7.255   9.282   9.312 -0.0515 -0.1245  0.1144
  199MOL0     C26761   7.395   9.301   9.324 -0.2474 -0.3676  0.0582
  199MOL0     C26762   7.436   9.384   9.416 -0.2918  0.7723 -0.6759
  199MOL0     C26763   7.567   9.413   9.440 -0.6378 -0.6343  0.2021
  199MOL0     C26764   7.665   9.360   9.355 -0.2614  0.3483  0.0430
  199MOL0     O26765   7.802   9.388   9.365 -0.0082  0.2095 -0.0474
  199MOL0     C26766   7.869   9.277   9.427 -0.1209 -0.8817  0.1891
  199MOL0     C26767   8.004   9.329   9.481  0.5914  0.1641 -0.1455
  199MOL0     C26768   7.988   9.428   9.610 -0.7621  0.7346  1.4269
  199MOL0     C26769   8.130   9.467   9.660  0.9412  0.4616 -0.0476
  199MOL0     C26770   8.115   9.606   9.724  0.1543 -0.6608  0.0602
  199MOL0     C26771   8.031   9.616   9.857 -0.6061  0.1724 -0.1548
  199MOL0     C26772   8.083   9.521   9.967 -0.3274  0.8639  0.2221
  199MOL0     C26773   7.974   9.471  10.048  0.1193  0.0400  0.7171
  199MOL0    Cl26774   7.877   9.599  10.119 -0.3796 -0.3905  0.0606
  199MOL0     C26775   7.627   9.278   9.254 -0.4185  0.8510 -0.4991
  199MOL0     C26776   7.495   9.240   9.246 -0.2593 -0.1859  0.8576
  199MOL0     O26777   7.250   9.051   9.278  0.7843 -0.0364  0.2971
  199MOL0     C26778   6.987   9.295   9.241  0.5187 -0.1976 -0.2292
  199MOL0     C26779   6.842   9.299   9.234 -0.6785 -0.5149  0.4832
  199MOL0     N26780   6.041   8.723   9.230  0.7954  0.2864 -0.6365
  199MOL0     N26781   5.931   8.716   9.300  0.2958  0.2491 -0.0611
  199MOL0     C26782   5.024   8.714   9.619 -0.0906 -0.2662  0.4828
  199MOL0     C26783   4.944   8.600   9.617  0.1985 -0.0247  0.1191
  199MOL0     C26784   4.747   8.247   9.524  0.2838 -0.3728 -0.9057
  199MOL0     C26785   4.677   8.229   9.642 -0.1718  0.7810 -0.2090
  199MOL0     C26786   4.571   8.133   9.654 -0.1069  0.1131  0.3793
  199MOL0     C26787   4.531   8.055   9.538 -0.6554 -0.0238 -0.9027
  199MOL0     O26788   4.417   7.981   9.551  0.5461  0.0776  0.2085
  199MOL0     C26789   4.389   7.882   9.463 -0.1427 -0.0128  0.6417
  199MOL0     C26790   4.258   7.815   9.511 -0.5155 -0.6907  0.2239
  199MOL0     C26791   4.132   7.875   9.449  0.1667 -0.6770 -0.7846
  199MOL0     C26792   4.014   7.801   9.491  0.5310 -0.0800 -0.1172
  199MOL0     C26793   3.902   7.859   9.405 -0.8336  0.2296  0.0002
  199MOL0     C26794   3.809   7.894   9.336  0.4132  0.1185 -0.2580
  199MOL0     C26795   4.611   8.067   9.426  0.4783 -0.3075 -0.8479
  199MOL0     C26796   4.706   8.166   9.414 -0.9610 -0.3043  0.5809
  199MOL0     C26797   4.785   8.165   9.280  0.0478  0.0366  0.4428
  199MOL0     H26798   5.163   8.379   9.752  0.4181  0.4953  1.5056
  199MOL0     H26799   5.310   8.586   9.748 -0.5768 -4.0389 -1.0669
  199MOL0     H26800   5.196   8.951   9.541 -0.6977  1.5947  0.5702
  199MOL0     H26801   5.101   8.966   9.700 -1.4119 -1.2644 -1.1335
  199MOL0     H26802   5.329   9.037   9.803  5.3685 -1.8059 -0.4696
  199MOL0     H26803   5.266   9.146   9.680 -3.4020 -1.1239 -2.4456
  199MOL0     H26804   5.474   8.937   9.598  3.0889  1.4313  0.6120
  199MOL0     H26805   5.502   9.084   9.683 -0.7828 -0.9436  2.4229
  199MOL0     H26806   5.340   9.046   9.411  0.1658  0.0120  0.6705
  199MOL0     H26807   5.375   9.208   9.493  0.9205 -0.2528  2.9634
  199MOL0     H26808   5.569   9.218   9.376  2.0953 -0.3933 -0.3608
  199MOL0     H26809   5.630   9.103   9.482  1.8098  0.0066 -1.4706
  199MOL0     H26810   5.517   8.924   9.296  0.3281 -0.4466 -2.3204
  199MOL0     H26811   5.533   9.076   9.210  0.9374  1.3537  0.7520
  199MOL0     H26812   5.774   9.089   9.326 -0.2524 -0.5475  1.8433
  199MOL0     H26813   5.748   8.976   9.189  2.4129  1.8629  0.2269
  199MOL0     H26814   5.762   8.909   9.486 -0.0839 -0.5295  0.2059
  199MOL0     H26815   5.685   8.800   9.362  0.0804 -0.1937 -0.7172
  199MOL0     H26816   6.011   9.031   9.336  0.7002 -0.4653  2.4146
  199MOL0     H26817   6.244   8.837   9.111 -2.2059  0.3418 -1.1412
  199MOL0     H26818   6.198   9.002   9.121  0.1820 -1.5285 -0.7175
  199MOL0     H26819   6.315   9.032   9.344 -1.2343  1.0001 -0.8169
  199MOL0     H26820   6.363   8.865   9.320 -0.5972  0.9457 -1.2872
  199MOL0     H26821   6.429   9.082   9.110  1.3111 -0.0643 -0.6597
  199MOL0     H26822   6.507   8.925   9.143  1.2447  0.5861  0.1753
  199MOL0     H26823   6.623   9.010   9.315 -0.0773 -0.3172  1.5301
  199MOL0     H26824   6.503   9.142   9.339 -3.1489 -0.9154 -2.3898
  199MOL0     H26825   6.801   8.958   9.187 -3.4464  1.0869 -3.4309
  199MOL0     H26826   7.029   8.958   9.222 -0.5566 -0.0935 -2.3142
  199MOL0     H26827   7.365   9.430   9.484 -0.4074  0.1363 -0.3618
  199MOL0     H26828   7.586   9.468   9.532 -0.8468  2.5245 -1.4818
  199MOL0     H26829   7.813   9.227   9.507  0.2260 -0.0583  0.9615
  199MOL0     H26830   7.889   9.195   9.358  2.9400  0.0068 -0.1140
  199MOL0     H26831   8.060   9.237   9.497  0.6726  0.3232  0.5272
  199MOL0     H26832   8.055   9.390   9.406  0.4556  0.0302 -0.3467
  199MOL0     H26833   7.934   9.516   9.574 -0.8154  0.1684  0.0583
  199MOL0     H26834   7.940   9.382   9.697 -1.4777  0.8531  1.1053
  199MOL0     H26835   8.208   9.475   9.584  3.0508  1.5155  2.1145
  199MOL0     H26836   8.171   9.394   9.730  1.3644  1.3979  0.7035
  199MOL0     H26837   8.071   9.672   9.649  2.6994 -1.4119 -2.2996
  199MOL0     H26838   8.212   9.653   9.747 -1.0628  1.6772  0.7333
  199MOL0     H26839   8.043   9.719   9.889  2.7940 -0.5201  1.1805
  199MOL0     H26840   7.925   9.601   9.833 -0.2737 -1.3906 -0.8332
  199MOL0     H26841   8.158   9.576  10.024  2.0934 -0.3173 -1.6474
  199MOL0     H26842   8.136   9.441   9.914 -0.6505  0.4843  0.4685
  199MOL0     H26843   7.908   9.412   9.984  0.1813 -1.2713  1.8190
  199MOL0     H26844   8.004   9.393  10.118 -3.3226 -1.7972  0.3789
  199MOL0     H26845   7.703   9.241   9.186 -0.6027 -0.2324 -0.1335
  199MOL0     H26846   7.459   9.158   9.185 -0.9526  1.6569 -1.3358
  199MOL0     H26847   7.045   9.384   9.265  2.8712 -2.1472  1.9059
  199MOL0     H26848   6.786   9.392   9.242 -1.8157 -1.0724 -0.6336
  199MOL0     H26849   4.983   8.812   9.597  2.6826  1.5023  2.4423
  199MOL0     H26850   4.839   8.610   9.594  0.3718  0.2493 -0.5521
  199MOL0     H26851   4.698   8.301   9.721  0.9582  0.3226 -0.0630
  199MOL0     H26852   4.519   8.132   9.750  0.3123  1.5767  0.6338
  199MOL0     H26853   4.466   7.804   9.461 -0.1852 -0.0535  0.5458
  199MOL0     H26854   4.376   7.899   9.356 -1.0367 -0.6308  0.6381
  199MOL0     H26855   4.265   7.805   9.620  1.2324 -2.7917 -0.0275
  199MOL0     H26856   4.254   7.710   9.483 -0.3129 -1.7773  3.7459
  199MOL0     H26857   4.135   7.876   9.340  0.7047 -1.1172 -0.7810
  199MOL0     H26858   4.114   7.977   9.485 -0.6456 -1.8231  2.3814
  199MOL0     H26859   4.019   7.697   9.458  1.5220 -0.7490  1.9245
  199MOL0     H26860   3.985   7.808   9.596 -1.3949  3.1952 -0.7429
  199MOL0     H26861   3.721   7.932   9.289  1.4723 -0.8350 -3.2436
  199MOL0     H26862   4.598   7.997   9.344 -0.1566  0.8564 -1.7811
  199MOL0     H26863   4.893   8.153   9.293  0.1719 -0.5075 -0.9364
  199MOL0     H26864   4.751   8.084   9.215 -1.1060  1.6398 -1.0223
  199MOL0     H26865   4.769   8.260   9.227  1.4430 -0.5763 -1.1482
  200MOL0     O26866   0.870  10.289   1.003 -0.6793  0.0186 -0.1510
  200MOL0     C26867   0.840  10.388   0.938  0.0106 -0.0543  1.0339
  200MOL0     O26868   0.934  10.475   0.876 -0.5366 -0.8159 -0.1208
  200MOL0     C26869   1.055  10.422   0.853 -0.7717  0.5372 -0.0365
  200MOL0     C26870   1.096  10.385   0.719 -0.1003  0.1181 -0.1522
  200MOL0     C26871   1.213  10.318   0.687  0.2742 -0.1183  0.0487
  200MOL0     C26872   1.301  10.290   0.784 -0.4201  0.3134 -0.2924
  200MOL0     O26873   1.428  10.239   0.744  0.4300  0.0993 -0.3413
  200MOL0     C26874   1.504  10.173   0.844 -0.9181 -0.3064 -0.4808
  200MOL0     C26875   1.609  10.078   0.786  0.3236  0.5115  0.2857
  200MOL0     C26876   1.726  10.061   0.880 -0.1326 -0.0518 -0.8954
  200MOL0     C26877   1.834   9.962   0.831  1.2941 -0.2855 -0.0366
  200MOL0     C26878   1.958   9.969   0.913 -0.0632 -1.1770 -0.0438
  200MOL0     C26879   2.053   9.856   0.861  0.4866 -0.1133  0.0273
  200MOL0     C26880   2.175   9.832   0.938 -0.9606 -0.3435 -0.7313
  200MOL0     C26881   2.265   9.956   0.960  0.0026 -0.5008  0.2004
  200MOL0     N26882   2.312  10.015   0.839  0.6406  0.1894  0.5346
  200MOL0     C26883   2.372   9.955   0.724  0.1437 -0.2209 -0.7756
  200MOL0     C26884   2.423  10.058   0.647  0.1844  0.1351  0.1246
  200MOL0     C26885   2.517  10.037   0.531 -0.0626  0.4682  0.2881
  200MOL0     C26886   2.661  10.033   0.570 -0.5076 -0.4376 -0.6659
  200MOL0     C26887   2.709  10.170   0.631  0.6324  0.3846  0.5700
  200MOL0     C26888   2.860  10.190   0.619 -0.1597 -0.4066 -0.1340
  200MOL0     O26889   2.894  10.178   0.478  1.2213  0.0742 -0.3199
  200MOL0     C26890   3.022  10.138   0.447 -0.0947 -0.5320 -0.5906
  200MOL0     C26891   3.046  10.085   0.321 -0.4608 -0.9802  0.8673
  200MOL0     C26892   3.169  10.055   0.268 -0.7901 -0.3245 -0.4962
  200MOL0     C26893   3.284  10.069   0.352 -0.6851 -0.1458 -0.1844
  200MOL0     C26894   3.423  10.053   0.298 -0.4533 -0.7274  0.7617
  200MOL0     O26895   3.444  10.080   0.167  0.4117 -0.1565  0.7513
  200MOL0     C26896   3.574  10.104   0.131  0.3665  0.0284  0.0117
  200MOL0     C26897   3.594  10.236   0.079  0.3303 -0.0780  0.6362
  200MOL0     C26898   3.719  10.271   0.036 -0.2541 -0.4283  0.6800
  200MOL0     C26899   3.824  10.179   0.040  0.1098 -0.4500  0.9334
  200MOL0     O26900   3.944  10.207  -0.026  0.3661 -0.4897 -0.1915
  200MOL0     C26901   3.983  10.345  -0.002  0.7663 -1.2404  0.1322
  200MOL0     C26902   4.136  10.352   0.003  0.6964  0.7272  0.2241
  200MOL0     C26903   4.165  10.493   0.049 -0.1479  0.4818 -0.5261
  200MOL0     C26904   4.320  10.495   0.079  0.1477 -0.3736 -0.3457
  200MOL0     C26905   4.380  10.618   0.159 -0.5380 -0.1917  0.5614
  200MOL0     C26906   4.296  10.647   0.285 -0.8635  0.1490  0.2796
  200MOL0     C26907   4.349  10.758   0.372 -0.0931  0.3802 -0.2072
  200MOL0     C26908   4.229  10.839   0.443 -0.6467  0.3096 -0.1667
  200MOL0    Cl26909   4.140  10.731   0.559  0.1486  0.0921 -0.1579
  200MOL0     C26910   3.805  10.051   0.094 -0.3708  0.2422 -0.6208
  200MOL0     C26911   3.683  10.010   0.137 -0.2640 -0.2664 -0.0146
  200MOL0     O26912   3.512  10.013   0.369 -1.1236  0.1811 -0.4489
  200MOL0     C26913   3.260  10.109   0.490 -0.1986  0.3118 -0.0370
  200MOL0     C26914   3.136  10.141   0.534  0.0098 -0.2787  0.2080
  200MOL0     N26915   2.402  10.165   0.725  0.5051 -0.3837 -0.0311
  200MOL0     N26916   2.327  10.146   0.825  0.3032 -0.3667  0.2035
  200MOL0     C26917   1.268  10.324   0.914  0.3687 -0.3749 -0.3308
  200MOL0     C26918   1.153  10.391   0.946  0.6354  0.1501 -0.2305
  200MOL0     C26919   0.699  10.431   0.935  0.0694  0.0109  0.1553
  200MOL0     C26920   0.655  10.562   0.903  1.1591  0.3371 -0.5413
  200MOL0     C26921   0.525  10.602   0.900 -0.1155 -0.6603 -0.3680
  200MOL0     C26922   0.422  10.516   0.929  0.9111  0.3365 -0.5733
  200MOL0     O26923   0.296  10.553   0.912  1.5621 -0.0094 -0.4242
  200MOL0     C26924   0.257  10.675   0.974 -0.7627 -0.1617  0.2980
  200MOL0     C26925   0.109  10.645   1.014  0.0687 -1.0717 -0.2463
  200MOL0     C26926   0.096  10.554   1.140  0.6949 -0.3736  0.2572
  200MOL0     C26927   0.115  10.625   1.275  0.3570  0.1424  0.2285
  200MOL0     C26928   0.010  10.733   1.282  0.8865  0.0464  0.2940
  200MOL0     C26929  -0.085  10.817   1.297  0.6045 -0.1962 -0.1883
  200MOL0     C26930   0.451  10.386   0.958  0.2158 -0.3597 -0.1893
  200MOL0     C26931   0.588  10.336   0.964  0.3815 -0.8982 -0.1463
  200MOL0     C26932   0.598  10.189   0.997  0.1070  1.2867  0.9751
  200MOL0     H26933   1.031  10.405   0.635  0.3281 -1.6589 -0.9574
  200MOL0     H26934   1.240  10.286   0.587  1.2458  2.4561 -0.5892
  200MOL0     H26935   1.556  10.250   0.902  1.3924 -1.7828 -0.4805
  200MOL0     H26936   1.440  10.119   0.915  0.0685 -0.4979  0.2955
  200MOL0     H26937   1.646  10.117   0.690 -1.1897 -0.4895 -0.7420
  200MOL0     H26938   1.568   9.980   0.762  2.6752 -0.6041  0.5212
  200MOL0     H26939   1.683  10.027   0.974  1.1387 -1.3473 -0.7590
  200MOL0     H26940   1.778  10.152   0.911 -1.0183  0.2754 -0.3194
  200MOL0     H26941   1.777   9.871   0.845 -1.5098  0.9534 -2.3414
  200MOL0     H26942   1.847   9.974   0.723 -1.9023  1.1109 -0.3814
  200MOL0     H26943   2.004  10.068   0.920 -3.7187  0.5855  4.4800
  200MOL0     H26944   1.931   9.942   1.015  0.8298 -1.3075  0.1606
  200MOL0     H26945   2.000   9.763   0.839 -1.2852  0.8106  0.2130
  200MOL0     H26946   2.085   9.897   0.765 -0.4274  1.0438  0.1924
  200MOL0     H26947   2.236   9.766   0.876 -1.4559 -2.6572  1.0765
  200MOL0     H26948   2.153   9.786   1.035  0.8375  3.1021  1.5087
  200MOL0     H26949   2.216  10.042   1.008 -1.0101 -0.3613 -1.0147
  200MOL0     H26950   2.349   9.950   1.030 -0.1486 -1.0431  0.3402
  200MOL0     H26951   2.372   9.850   0.700 -1.3240 -0.0441 -1.6326
  200MOL0     H26952   2.501   9.947   0.470 -2.2629  0.9660  0.0503
  200MOL0     H26953   2.502  10.128   0.472  0.4298  1.3833  1.5256
  200MOL0     H26954   2.687   9.959   0.646 -0.1086 -1.3867 -1.6968
  200MOL0     H26955   2.720   9.999   0.485 -0.3190  0.9002 -1.0940
  200MOL0     H26956   2.683  10.181   0.736  1.1871 -0.2368  0.7839
  200MOL0     H26957   2.669  10.254   0.573 -0.4546 -0.1173  0.5729
  200MOL0     H26958   2.913  10.109   0.671  1.5705  1.7466  1.6095
  200MOL0     H26959   2.895  10.284   0.660  2.4434 -1.2468 -0.2761
  200MOL0     H26960   2.962  10.088   0.252 -0.1525  1.4378  0.4864
  200MOL0     H26961   3.179  10.041   0.161 -0.4027  0.1588 -0.5294
  200MOL0     H26962   3.512  10.307   0.077 -1.8345 -2.2925  3.4130
  200MOL0     H26963   3.726  10.365  -0.016 -0.3863 -0.1228  1.2060
  200MOL0     H26964   3.946  10.409  -0.082  2.7283  0.0605  0.1838
  200MOL0     H26965   3.941  10.386   0.091  0.6720 -1.0629  0.0096
  200MOL0     H26966   4.176  10.283   0.077  1.8034  1.5920  0.4597
  200MOL0     H26967   4.169  10.339  -0.101  1.6811  1.1499  0.4671
  200MOL0     H26968   4.144  10.579  -0.016 -2.5980  0.8861  0.7067
  200MOL0     H26969   4.108  10.501   0.142 -1.5023 -0.7995 -1.1971
  200MOL0     H26970   4.376  10.485  -0.015  0.6636 -0.8803  0.0071
  200MOL0     H26971   4.351  10.407   0.136  5.1462  1.0780 -0.3010
  200MOL0     H26972   4.375  10.711   0.102 -3.5130 -0.4434  0.2552
  200MOL0     H26973   4.481  10.588   0.190 -0.8581 -1.3289  0.5715
  200MOL0     H26974   4.191  10.663   0.261 -0.4923 -0.4832 -2.0954
  200MOL0     H26975   4.304  10.548   0.331 -0.7194  0.1347  0.2280
  200MOL0     H26976   4.411  10.816   0.304  0.7343 -1.0380 -0.7016
  200MOL0     H26977   4.407  10.709   0.451 -0.0024  0.1868 -0.3933
  200MOL0     H26978   4.286  10.914   0.498  0.3043 -0.0175 -0.6632
  200MOL0     H26979   4.166  10.892   0.371  0.0141  1.5195  0.1139
  200MOL0     H26980   3.887   9.984   0.116  1.4164  1.9609 -1.7229
  200MOL0     H26981   3.682   9.916   0.191  0.1375 -0.2283  0.0645
  200MOL0     H26982   3.351  10.105   0.548 -0.9292 -3.1266  1.0785
  200MOL0     H26983   3.127  10.173   0.637  1.9849 -0.7655  0.5688
  200MOL0     H26984   1.343  10.311   0.991 -1.3568  1.4981  1.8242
  200MOL0     H26985   1.137  10.416   1.050  1.3101 -1.2240  0.2230
  200MOL0     H26986   0.733  10.627   0.864  1.5339 -0.3894 -1.0277
  200MOL0     H26987   0.500  10.705   0.879 -0.1330 -0.4722  0.5607
  200MOL0     H26988   0.268  10.752   0.897 -0.3831  0.1950  0.6993
  200MOL0     H26989   0.313  10.702   1.064  0.1629 -2.2627  0.3982
  200MOL0     H26990   0.063  10.597   0.928 -0.0013 -0.0770 -0.7755
  200MOL0     H26991   0.065  10.744   1.032 -1.8062 -1.8468 -0.3568
  200MOL0     H26992   0.170  10.474   1.131 -2.1683 -3.2102  0.1186
  200MOL0     H26993   0.002  10.499   1.142  1.5554 -2.2250 -3.0075
  200MOL0     H26994   0.098  10.547   1.350  0.8731  0.1209  0.3263
  200MOL0     H26995   0.218  10.662   1.268 -0.1279  1.2569 -2.1655
  200MOL0     H26996  -0.162  10.888   1.320  0.6819  0.1976 -1.0940
  200MOL0     H26997   0.364  10.322   0.967  1.5109 -2.1530  0.2111
  200MOL0     H26998   0.678  10.145   0.936  1.1960  1.2106  2.4029
  200MOL0     H26999   0.623  10.179   1.103  0.1767  0.3037  0.8702
  200MOL0     H27000   0.507  10.134   0.971  1.7260 -1.0840  0.0168
  201MOL0     O27001   2.849  10.329   4.356  0.6093  0.4031 -0.8758
  201MOL0     C27002   2.749  10.370   4.419 -0.2410 -0.2519 -0.1258
  201MOL0     O27003   2.749  10.475   4.500 -1.3324 -0.2318  0.3483
  201MOL0     C27004   2.871  10.536   4.524 -0.1135 -0.7808  0.2634
  201MOL0     C27005   2.884  10.674   4.487  0.8855  1.1970 -0.0085
  201MOL0     C27006   3.009  10.738   4.501 -0.2740  0.4197  0.0261
  201MOL0     C27007   3.126  10.675   4.558  0.5270 -0.1854  0.4878
  201MOL0     O27008   3.241  10.753   4.556 -0.7547  0.2071 -0.7971
  201MOL0     C27009   3.363  10.715   4.616  0.6717  0.1637  0.3771
  201MOL0     C27010   3.474  10.807   4.569  0.7177 -0.6719  0.1967
  201MOL0     C27011   3.591  10.808   4.659  0.3867 -0.0168 -0.0290
  201MOL0     C27012   3.713  10.841   4.577  0.6422 -0.1304  0.3672
  201MOL0     C27013   3.844  10.862   4.670  0.6080  0.1580 -0.5176
  201MOL0     C27014   3.966  10.874   4.585 -0.0653  0.0506  0.5956
  201MOL0     C27015   3.956  10.972   4.471 -0.1910  0.6521 -1.2116
  201MOL0     C27016   4.091  11.042   4.433  0.3651  0.4187 -0.3058
  201MOL0     N27017   4.190  10.930   4.401  0.3278 -0.0375 -1.1045
  201MOL0     C27018   4.283  10.874   4.483  0.2229  0.7976 -0.3783
  201MOL0     C27019   4.360  10.795   4.405  0.1568  0.7136  0.3150
  201MOL0     C27020   4.500  10.746   4.437 -0.3979  0.4692 -1.0976
  201MOL0     C27021   4.601  10.732   4.322  0.3331 -0.6961 -0.3387
  201MOL0     C27022   4.632  10.595   4.268  0.8569  0.1300  0.7125
  201MOL0     C27023   4.749  10.589   4.159  0.3230  0.2513  0.0753
  201MOL0     O27024   4.880  10.574   4.221 -0.3987  0.3441 -0.2601
  201MOL0     C27025   4.987  10.640   4.155  0.5549  1.6324 -0.6967
  201MOL0     C27026   5.017  10.771   4.175  1.0820 -0.1768  0.9018
  201MOL0     C27027   5.115  10.844   4.110 -1.3215 -0.0077  0.3150
  201MOL0     C27028   5.191  10.767   4.016  0.7004 -0.9559 -0.6683
  201MOL0     C27029   5.296  10.842   3.948  0.5304 -0.3368  0.7466
  201MOL0     O27030   5.332  10.964   4.003 -0.2601  0.4485  0.9257
  201MOL0     C27031   5.451  11.016   3.960  0.5859 -0.9146  1.1169
  201MOL0     C27032   5.459  11.153   3.926  0.6882  0.5097 -0.5062
  201MOL0     C27033   5.574  11.198   3.870 -0.4989 -0.5306 -0.2142
  201MOL0     C27034   5.689  11.128   3.843 -0.7500  0.8964  0.3083
  201MOL0     O27035   5.803  11.194   3.800  0.1207  0.8662 -1.3810
  201MOL0     C27036   5.888  11.116   3.724  0.1884  0.1123 -0.3634
  201MOL0     C27037   5.975  11.221   3.649  0.0552 -0.2042  1.1417
  201MOL0     C27038   6.077  11.163   3.552 -0.5846  0.1573 -0.0635
  201MOL0     C27039   6.199  11.263   3.552 -0.6095  0.4367  0.0522
  201MOL0     C27040   6.283  11.254   3.424  0.7043  0.7157  0.2926
  201MOL0     C27041   6.319  11.110   3.395  0.6394 -0.3659 -1.2168
  201MOL0     C27042   6.428  11.101   3.285 -0.1428  0.7356  0.8188
  201MOL0     C27043   6.545  11.194   3.277 -0.7905 -1.5781  0.8914
  201MOL0    Cl27044   6.641  11.200   3.428  0.5774  0.1606 -0.4391
  201MOL0     C27045   5.682  10.995   3.878 -0.3334  0.3191  0.1550
  201MOL0     C27046   5.570  10.938   3.937  0.1334  0.1750  0.2542
  201MOL0     O27047   5.353  10.797   3.848 -0.4548 -0.2044  0.2697
  201MOL0     C27048   5.167  10.640   3.990 -0.0386  0.6992  0.2260
  201MOL0     C27049   5.071  10.569   4.058  0.1887  0.7740  0.1664
  201MOL0     N27050   4.302  10.786   4.278  0.3838  0.6454 -0.1917
  201MOL0     N27051   4.213  10.875   4.280 -0.0482 -0.4077  0.1854
  201MOL0     C27052   3.106  10.544   4.599  0.5402 -0.8194 -0.2398
  201MOL0     C27053   2.984  10.479   4.574 -0.3004 -0.3541 -0.0743
  201MOL0     C27054   2.630  10.291   4.417 -0.3179  0.7807 -0.0646
  201MOL0     C27055   2.525  10.326   4.503  0.2268  0.4980 -0.7858
  201MOL0     C27056   2.416  10.243   4.507  0.0956  1.4046  0.5919
  201MOL0     C27057   2.400  10.130   4.422 -0.5026 -0.4616 -0.3245
  201MOL0     O27058   2.292  10.044   4.416 -0.1512  0.1593  0.0865
  201MOL0     C27059   2.183  10.059   4.509  0.2787 -0.5328 -0.0539
  201MOL0     C27060   2.065   9.955   4.477 -0.0385  0.3727  0.6327
  201MOL0     C27061   1.939   9.967   4.572 -0.8228 -0.1839  0.0885
  201MOL0     C27062   1.842   9.857   4.540 -0.2773  0.1075 -0.1085
  201MOL0     C27063   1.735   9.837   4.642  0.1533  0.5465  0.3387
  201MOL0     C27064   1.643   9.826   4.728 -0.1633  0.3371 -0.3490
  201MOL0     C27065   2.507  10.102   4.345 -0.0361  0.4566  0.5416
  201MOL0     C27066   2.619  10.175   4.333  0.7157 -0.9634  0.2420
  201MOL0     C27067   2.725  10.122   4.228  0.0819  0.0224 -0.5827
  201MOL0     H27068   2.799  10.731   4.453 -0.8406  0.0438  2.1291
  201MOL0     H27069   3.028  10.835   4.456 -1.9872  1.5270  1.5414
  201MOL0     H27070   3.352  10.707   4.724 -0.1145 -2.3235  0.1722
  201MOL0     H27071   3.393  10.619   4.573  1.7938  0.2347  0.9824
  201MOL0     H27072   3.436  10.908   4.551  1.0196 -0.6334 -0.2588
  201MOL0     H27073   3.496  10.774   4.467  0.5605  0.0501 -0.0832
  201MOL0     H27074   3.611  10.712   4.707 -0.8096 -0.7445 -0.9472
  201MOL0     H27075   3.576  10.874   4.745 -3.3403  0.3982 -0.8412
  201MOL0     H27076   3.733  10.765   4.501  3.8662  0.8454  0.0917
  201MOL0     H27077   3.695  10.934   4.524 -0.0151  0.3173  1.3590
  201MOL0     H27078   3.833  10.955   4.727  0.1641  0.2451 -0.7380
  201MOL0     H27079   3.851  10.775   4.737  1.5123  0.6172 -0.0021
  201MOL0     H27080   4.052  10.904   4.645  0.2622  1.2633 -0.4367
  201MOL0     H27081   3.973  10.777   4.535 -2.8493 -0.1195  0.3719
  201MOL0     H27082   3.900  11.060   4.505  0.2739  0.3023  0.5650
  201MOL0     H27083   3.914  10.923   4.383 -4.1047  1.0151  0.2794
  201MOL0     H27084   4.076  11.104   4.344  0.2255 -0.6446 -1.0431
  201MOL0     H27085   4.132  11.098   4.517 -0.4498  0.2455  0.2130
  201MOL0     H27086   4.318  10.890   4.584  4.3715 -0.3561 -1.4360
  201MOL0     H27087   4.540  10.809   4.517 -2.8030  0.7276 -0.0141
  201MOL0     H27088   4.487  10.646   4.478 -0.3765  0.8477 -0.1543
  201MOL0     H27089   4.560  10.800   4.246  2.0557  2.0070  1.0146
  201MOL0     H27090   4.695  10.779   4.350  0.5190 -0.6334 -1.0437
  201MOL0     H27091   4.535  10.558   4.233  1.5942 -0.4819 -0.7794
  201MOL0     H27092   4.667  10.527   4.346  0.8697  1.5250  1.9668
  201MOL0     H27093   4.749  10.675   4.091  1.3684  0.7261  0.6497
  201MOL0     H27094   4.740  10.497   4.100  2.6793 -0.0138  0.0126
  201MOL0     H27095   4.960  10.818   4.254 -0.7916 -1.3880  0.3317
  201MOL0     H27096   5.137  10.950   4.115  2.5473 -0.3621 -3.4194
  201MOL0     H27097   5.366  11.208   3.938  0.2746 -0.7503  3.0061
  201MOL0     H27098   5.556  11.302   3.845  0.7161 -0.1064  0.5653
  201MOL0     H27099   5.956  11.052   3.781  0.3380 -2.5588 -3.2683
  201MOL0     H27100   5.838  11.049   3.654  1.6887  0.4227 -1.7931
  201MOL0     H27101   5.910  11.281   3.585 -0.5497 -2.4701 -0.5004
  201MOL0     H27102   6.025  11.287   3.720  2.2801 -1.5651  0.9323
  201MOL0     H27103   6.110  11.061   3.572  1.0564  0.4174 -1.2162
  201MOL0     H27104   6.028  11.158   3.454  1.2085  0.0690 -1.0022
  201MOL0     H27105   6.261  11.239   3.639  0.9379  0.8344 -0.8985
  201MOL0     H27106   6.158  11.365   3.549 -2.0421 -0.1468 -2.0931
  201MOL0     H27107   6.369  11.321   3.428  0.6126  0.8347  0.2953
  201MOL0     H27108   6.210  11.284   3.347 -0.6317 -1.3510  0.6571
  201MOL0     H27109   6.340  11.061   3.490 -0.7386  4.0745  1.7076
  201MOL0     H27110   6.227  11.055   3.374 -1.8011  0.4565  5.0895
  201MOL0     H27111   6.376  11.122   3.191  1.1015 -1.0999 -0.3409
  201MOL0     H27112   6.469  10.999   3.281 -0.6904  0.5232  0.5286
  201MOL0     H27113   6.606  11.177   3.187  1.0060  4.8340  0.3881
  201MOL0     H27114   6.514  11.299   3.269  3.1376 -0.2607  0.5509
  201MOL0     H27115   5.775  10.939   3.873 -0.0173  0.9064 -0.9229
  201MOL0     H27116   5.575  10.836   3.974 -2.3075 -0.7680 -1.7669
  201MOL0     H27117   5.239  10.577   3.938  0.6306 -0.2048  2.1355
  201MOL0     H27118   5.075  10.461   4.049 -2.4388  0.3128  2.9971
  201MOL0     H27119   3.193  10.485   4.628 -0.2897 -1.9238  0.0773
  201MOL0     H27120   2.981  10.372   4.594 -2.5503 -0.4363 -0.6067
  201MOL0     H27121   2.532  10.426   4.546 -2.4414  0.3464  0.2435
  201MOL0     H27122   2.330  10.273   4.566 -2.0928 -2.2500 -0.4507
  201MOL0     H27123   2.139  10.159   4.501 -1.9176 -1.2576  1.6970
  201MOL0     H27124   2.229  10.051   4.608 -1.2053  2.2693  0.9883
  201MOL0     H27125   2.104   9.854   4.493 -1.1200  0.3101  3.4228
  201MOL0     H27126   2.037   9.965   4.372  0.2779  0.5502  0.5657
  201MOL0     H27127   1.897  10.067   4.563 -0.5809 -0.2876 -3.5604
  201MOL0     H27128   1.969   9.955   4.677  0.1440  2.5359  0.2171
  201MOL0     H27129   1.799   9.876   4.442  0.3759  1.3808 -0.1639
  201MOL0     H27130   1.903   9.766   4.545 -0.2950  0.1396  1.0548
  201MOL0     H27131   1.562   9.795   4.791  1.2308 -1.4964  0.6116
  201MOL0     H27132   2.501  10.004   4.299 -0.5936 -0.8027  3.1136
  201MOL0     H27133   2.762  10.199   4.160  0.2415  0.9082  0.4815
  201MOL0     H27134   2.808  10.071   4.278  0.1236 -2.0375 -2.5746
  201MOL0     H27135   2.676  10.047   4.165  0.5456 -0.4481 -0.4006
  202MOL0     O27136   2.809  10.510   6.530 -0.1060  0.2393  0.8504
  202MOL0     C27137   2.868  10.412   6.492  0.2237  0.3991 -0.5579
  202MOL0     O27138   2.850  10.345   6.370 -0.1851 -0.2816  0.0719
  202MOL0     C27139   2.737  10.359   6.303 -0.8446  0.8993  1.6117
  202MOL0     C27140   2.752  10.420   6.176  0.5596  0.0900 -0.3038
  202MOL0     C27141   2.637  10.444   6.100 -0.4092 -0.4592  0.3971
  202MOL0     C27142   2.513  10.399   6.136  0.4992 -0.3924  0.2690
  202MOL0     O27143   2.390  10.420   6.075  0.0655  0.7802  0.1636
  202MOL0     C27144   2.399  10.493   5.951 -0.0519  0.0794  0.4527
  202MOL0     C27145   2.266  10.501   5.875  0.4818  0.6287 -0.2303
  202MOL0     C27146   2.290  10.600   5.748 -0.6843 -0.2364 -0.4141
  202MOL0     C27147   2.172  10.599   5.651 -0.0166  0.0179 -0.0082
  202MOL0     C27148   2.049  10.674   5.706  0.2588  1.0780  0.7524
  202MOL0     C27149   1.943  10.574   5.765 -0.2336  0.4219  0.0278
  202MOL0     C27150   1.830  10.543   5.660 -0.2675 -0.0487 -0.2844
  202MOL0     C27151   1.762  10.415   5.705  0.4830 -0.2307  0.4737
  202MOL0     N27152   1.628  10.407   5.643  0.1739 -0.2439  0.6848
  202MOL0     C27153   1.548  10.302   5.633 -0.9221  0.4586 -0.1395
  202MOL0     C27154   1.436  10.349   5.571 -0.4775 -0.4110 -0.0420
  202MOL0     C27155   1.331  10.271   5.502  1.3155  0.3481 -0.2449
  202MOL0     C27156   1.190  10.338   5.506 -0.0771  0.4292  0.3318
  202MOL0     C27157   1.124  10.337   5.648  0.1090 -0.7975 -0.0372
  202MOL0     C27158   0.986  10.380   5.651  0.7265  0.3502  0.6120
  202MOL0     O27159   0.891  10.282   5.586  0.2503 -0.3670  0.0410
  202MOL0     C27160   0.792  10.240   5.669 -0.5363  0.0953 -0.6376
  202MOL0     C27161   0.815  10.186   5.797 -0.0715 -0.5057  0.5197
  202MOL0     C27162   0.713  10.111   5.858 -0.2814  0.5858 -0.3851
  202MOL0     C27163   0.589  10.096   5.803  0.0216 -0.2504 -0.2018
  202MOL0     C27164   0.482  10.028   5.874 -0.1976  0.2931 -0.1394
  202MOL0     O27165   0.373  10.006   5.795  0.0111 -0.9514 -0.1840
  202MOL0     C27166   0.262   9.939   5.837  0.0239  0.1729 -0.2159
  202MOL0     C27167   0.223   9.924   5.971 -0.3506  0.0915 -0.6642
  202MOL0     C27168   0.111   9.845   5.999  0.4199 -0.5008 -0.9297
  202MOL0     C27169   0.037   9.773   5.898  0.2167  0.0752  0.1035
  202MOL0     O27170  -0.066   9.699   5.947  0.8543 -0.6527  0.3295
  202MOL0     C27171  -0.181   9.671   5.862  0.1258  0.1948  0.1860
  202MOL0     C27172  -0.265   9.795   5.843  0.3920 -0.7777 -0.9680
  202MOL0     C27173  -0.357   9.812   5.974 -0.8924  0.3181 -0.0566
  202MOL0     C27174  -0.476   9.893   5.928  0.2478 -0.3793  0.3486
  202MOL0     C27175  -0.458  10.037   5.879 -0.0190  0.6601 -0.4658
  202MOL0     C27176  -0.445  10.150   5.991  0.6759 -0.2472 -0.2002
  202MOL0     C27177  -0.308  10.155   6.048 -0.2249  0.4783  0.6915
  202MOL0     C27178  -0.299  10.260   6.156  0.9183 -0.1409  0.2321
  202MOL0    Cl27179  -0.130  10.263   6.209  0.2843  0.3231 -0.2332
  202MOL0     C27180   0.075   9.804   5.765 -0.9233  0.3093 -0.6848
  202MOL0     C27181   0.195   9.871   5.730 -0.3548 -1.6907  0.4950
  202MOL0     O27182   0.500   9.989   5.988  0.0380 -0.1532 -0.3924
  202MOL0     C27183   0.561  10.168   5.683  0.0824  1.1575  0.2180
  202MOL0     C27184   0.664  10.230   5.616  0.9423  0.2441  0.2172
  202MOL0     N27185   1.441  10.486   5.564  0.6133 -0.2108  0.3312
  202MOL0     N27186   1.558  10.520   5.601 -0.2552  0.8619  0.8527
  202MOL0     C27187   2.496  10.342   6.261  0.7793 -0.4506 -0.6592
  202MOL0     C27188   2.609  10.323   6.337  0.3632  0.6042  0.7795
  202MOL0     C27189   2.951  10.334   6.586  0.1562  0.5118  1.0678
  202MOL0     C27190   2.961  10.195   6.569  0.7199  0.2763 -0.6810
  202MOL0     C27191   3.040  10.114   6.658 -0.5849 -0.1120 -0.0936
  202MOL0     C27192   3.117  10.166   6.761  0.1541  0.2911 -0.2127
  202MOL0     O27193   3.187  10.087   6.845 -0.2956  0.9052  0.2080
  202MOL0     C27194   3.287  10.144   6.929 -0.2642 -0.1181 -0.0857
  202MOL0     C27195   3.374  10.038   6.990 -0.1415  0.1563 -0.4600
  202MOL0     C27196   3.458   9.966   6.887 -0.4630 -0.0631  0.5922
  202MOL0     C27197   3.549   9.862   6.937  0.5419 -0.2831  0.2477
  202MOL0     C27198   3.604   9.763   6.833  0.1670 -0.0411  0.0434
  202MOL0     C27199   3.665   9.692   6.759 -1.4980 -0.6064 -0.2962
  202MOL0     C27200   3.112  10.307   6.775 -0.0990 -0.4888 -0.5925
  202MOL0     C27201   3.034  10.398   6.688  0.2301 -0.2151  0.3919
  202MOL0     C27202   3.044  10.542   6.718 -1.2970 -0.2656 -0.4994
  202MOL0     H27203   2.852  10.434   6.137 -0.0745  0.9844 -1.7343
  202MOL0     H27204   2.668  10.478   6.002  3.4964  2.0562  2.2061
  202MOL0     H27205   2.427  10.597   5.972  0.4540  0.5339 -2.1947
  202MOL0     H27206   2.473  10.443   5.888 -1.1204  0.2223 -0.9610
  202MOL0     H27207   2.187  10.543   5.937 -1.2337  1.8523 -3.0504
  202MOL0     H27208   2.227  10.404   5.842 -2.5147  0.8570  2.2709
  202MOL0     H27209   2.382  10.558   5.707 -0.6527  0.5416 -1.1556
  202MOL0     H27210   2.309  10.702   5.781 -1.3136 -1.0415  2.8301
  202MOL0     H27211   2.194  10.651   5.558  0.5421 -0.4558 -0.1479
  202MOL0     H27212   2.155  10.497   5.614  1.9300  0.3585 -2.1063
  202MOL0     H27213   2.084  10.756   5.768  2.1217  2.8909 -2.4049
  202MOL0     H27214   2.005  10.724   5.619  0.2402 -1.0661 -0.5353
  202MOL0     H27215   1.998  10.489   5.808  1.0733  1.3690  0.2927
  202MOL0     H27216   1.889  10.621   5.848  0.9858 -0.3443  1.3119
  202MOL0     H27217   1.883  10.531   5.565  1.6494  2.0828  0.4217
  202MOL0     H27218   1.758  10.625   5.654  1.1035  1.2092 -0.3086
  202MOL0     H27219   1.821  10.326   5.679  0.4172  0.2043 -1.3541
  202MOL0     H27220   1.754  10.421   5.813 -1.7355  2.2592  0.2695
  202MOL0     H27221   1.575  10.196   5.639  1.6794  1.0548 -0.0478
  202MOL0     H27222   1.359  10.256   5.398  3.5526 -0.5649  0.4228
  202MOL0     H27223   1.330  10.175   5.554  0.7903  1.3375  1.6861
  202MOL0     H27224   1.185  10.442   5.470 -0.7191  0.1808 -0.3194
  202MOL0     H27225   1.125  10.280   5.440 -1.0776 -1.7815  3.0672
  202MOL0     H27226   1.171  10.405   5.720 -1.8290 -1.1047  1.6072
  202MOL0     H27227   1.123  10.234   5.684 -1.2379 -0.9163 -0.3738
  202MOL0     H27228   0.982  10.483   5.614  1.6469  1.4596  3.3682
  202MOL0     H27229   0.962  10.397   5.757  4.5208  1.0436  1.4938
  202MOL0     H27230   0.910  10.182   5.849 -0.2235 -0.5413  0.7920
  202MOL0     H27231   0.738  10.073   5.956 -2.5185  2.9575  1.2216
  202MOL0     H27232   0.278   9.979   6.046 -0.1793 -0.3852 -0.4375
  202MOL0     H27233   0.091   9.826   6.104  3.2656 -0.7204 -0.3394
  202MOL0     H27234  -0.141   9.644   5.764  0.3511  2.6164 -0.4420
  202MOL0     H27235  -0.247   9.593   5.902  0.4538 -0.3587 -0.3406
  202MOL0     H27236  -0.208   9.887   5.835 -3.5876  1.9436 -0.7329
  202MOL0     H27237  -0.326   9.779   5.754  0.2940 -4.2109 -0.4477
  202MOL0     H27238  -0.388   9.712   6.002  0.1964 -0.3605 -1.1586
  202MOL0     H27239  -0.285   9.853   6.047  1.2453 -0.0257 -1.8618
  202MOL0     H27240  -0.554   9.892   6.005 -1.7375  0.4503 -1.5307
  202MOL0     H27241  -0.519   9.834   5.847  0.1044  0.6601 -0.3512
  202MOL0     H27242  -0.542  10.053   5.811 -3.3433  2.0879  3.5677
  202MOL0     H27243  -0.360  10.043   5.832  1.4993 -2.0120  2.0519
  202MOL0     H27244  -0.473  10.248   5.950 -1.6355  0.5678  2.9728
  202MOL0     H27245  -0.513  10.123   6.072  0.1348  1.2320 -0.1312
  202MOL0     H27246  -0.240  10.188   5.969 -1.7253  0.0948 -0.8251
  202MOL0     H27247  -0.275  10.061   6.093  0.1415  1.0507  1.6439
  202MOL0     H27248  -0.335  10.357   6.120 -0.5006 -0.4462  0.7445
  202MOL0     H27249  -0.364  10.231   6.239  0.6553 -5.6282 -1.4767
  202MOL0     H27250   0.031   9.749   5.683 -3.6719  2.5669 -0.9125
  202MOL0     H27251   0.233   9.871   5.629 -0.0570  0.7708  0.5496
  202MOL0     H27252   0.458  10.157   5.648 -0.3912 -0.5907  1.9363
  202MOL0     H27253   0.643  10.277   5.521  1.1549 -1.0086 -0.4785
  202MOL0     H27254   2.403  10.302   6.300  2.0669 -0.9066  2.2236
  202MOL0     H27255   2.608  10.276   6.436  1.9161 -2.9431 -0.7015
  202MOL0     H27256   2.911  10.148   6.486 -0.2306 -0.0127  0.0321
  202MOL0     H27257   3.039  10.006   6.647  0.3174 -0.0007 -1.5122
  202MOL0     H27258   3.238  10.208   7.003 -0.0896  0.7653 -0.7159
  202MOL0     H27259   3.350  10.208   6.867 -0.0605 -0.8639 -0.6704
  202MOL0     H27260   3.323   9.957   7.044  2.4933 -2.4741 -1.6462
  202MOL0     H27261   3.430  10.092   7.068  0.5767  1.3564 -1.7730
  202MOL0     H27262   3.517  10.045   6.840 -1.6062  0.7054  0.4022
  202MOL0     H27263   3.396   9.914   6.814  0.1930 -2.9716  1.9678
  202MOL0     H27264   3.630   9.923   6.977 -1.7282  3.3440 -0.2186
  202MOL0     H27265   3.499   9.804   7.016 -0.8954  1.4664  0.6950
  202MOL0     H27266   3.698   9.627   6.680  1.1946  2.7704 -2.2302
  202MOL0     H27267   3.171  10.357   6.852 -1.3643 -0.2020  0.2250
  202MOL0     H27268   3.107  10.566   6.804  1.2521 -1.3397 -1.9546
  202MOL0     H27269   3.097  10.582   6.631 -0.1932  0.3456  0.4273
  202MOL0     H27270   2.945  10.588   6.719 -1.4607 -0.5577  1.5014
  203MOL0     O27271   1.055   2.452   5.521 -0.6645 -0.0851 -1.1207
  203MOL0     C27272   0.989   2.376   5.594  0.5299  0.3218  0.3798
  203MOL0     O27273   1.038   2.310   5.710 -0.3149  0.6288  0.3546
  203MOL0     C27274   1.159   2.356   5.754 -0.2971  0.0775 -0.0610
  203MOL0     C27275   1.284   2.345   5.690  0.1722  0.4869 -0.8418
  203MOL0     C27276   1.398   2.366   5.762 -0.9298  0.4842 -0.9099
  203MOL0     C27277   1.392   2.426   5.894  0.5401  0.5337  0.4235
  203MOL0     O27278   1.507   2.466   5.953 -0.5150  0.9626  0.9200
  203MOL0     C27279   1.510   2.499   6.083 -1.4525  0.6314 -0.6149
  203MOL0     C27280   1.656   2.489   6.135 -0.7587  0.0715 -0.7323
  203MOL0     C27281   1.726   2.356   6.127  0.8664  0.0433 -0.4585
  203MOL0     C27282   1.858   2.343   6.202  0.0717  0.2112 -0.2049
  203MOL0     C27283   1.903   2.201   6.219  0.4091 -0.1013  0.7803
  203MOL0     C27284   1.937   2.138   6.084  0.2376  0.5645 -0.3637
  203MOL0     C27285   2.050   2.037   6.101  0.5808  0.0090 -0.2668
  203MOL0     C27286   2.184   2.103   6.138 -0.2370 -0.3610 -0.8892
  203MOL0     N27287   2.297   2.007   6.154 -0.3432  0.1214 -0.2307
  203MOL0     C27288   2.427   2.045   6.174  0.4457 -0.9539 -0.1627
  203MOL0     C27289   2.495   1.934   6.194  0.4904  0.4414 -0.3684
  203MOL0     C27290   2.649   1.921   6.194  0.2279  0.6600 -1.1369
  203MOL0     C27291   2.710   1.931   6.333  0.6853  0.1308 -0.4393
  203MOL0     C27292   2.857   1.935   6.336  0.7141 -0.0265 -0.5182
  203MOL0     C27293   2.942   1.835   6.250  0.3455 -0.1033 -0.4107
  203MOL0     O27294   3.080   1.881   6.239  0.5581  0.4500  0.1952
  203MOL0     C27295   3.185   1.799   6.186  0.7627  0.5613  0.5284
  203MOL0     C27296   3.311   1.853   6.201 -0.8704  0.2049  0.6919
  203MOL0     C27297   3.428   1.774   6.178  0.3998  0.4204 -0.2083
  203MOL0     C27298   3.421   1.646   6.130  0.1732  0.2161  0.1498
  203MOL0     C27299   3.543   1.562   6.101 -0.0988  0.2773  0.2335
  203MOL0     O27300   3.666   1.615   6.125  0.4533 -0.3067 -0.2099
  203MOL0     C27301   3.771   1.534   6.091  0.1881  0.2323 -1.2772
  203MOL0     C27302   3.795   1.485   5.960 -0.5032  0.3814 -0.3254
  203MOL0     C27303   3.901   1.413   5.929 -0.1180 -0.4132  0.0496
  203MOL0     C27304   3.986   1.367   6.025 -0.3274 -0.9165 -0.3867
  203MOL0     O27305   4.095   1.302   5.992 -0.2852  0.4140 -0.5612
  203MOL0     C27306   4.094   1.158   6.015 -0.3872  0.1791  0.1013
  203MOL0     C27307   4.236   1.104   6.025 -0.0850 -0.2443 -0.4548
  203MOL0     C27308   4.283   1.112   6.169  0.1151 -0.7705 -0.0750
  203MOL0     C27309   4.431   1.088   6.182 -0.0093  0.2417 -0.3849
  203MOL0     C27310   4.488   1.111   6.328  0.2309 -0.4496  0.1150
  203MOL0     C27311   4.636   1.066   6.329 -1.0079 -0.5228  0.2378
  203MOL0     C27312   4.717   1.173   6.244 -0.6759  0.1241 -0.0294
  203MOL0     C27313   4.875   1.161   6.255  0.3514  0.3215 -0.5590
  203MOL0    Cl27314   4.925   0.993   6.229  0.1844  0.2478 -0.4609
  203MOL0     C27315   3.969   1.421   6.156 -0.7556 -0.5696 -1.1488
  203MOL0     C27316   3.864   1.507   6.186 -0.5283 -1.3920  0.0557
  203MOL0     O27317   3.522   1.446   6.064  0.1095  0.0241  0.0111
  203MOL0     C27318   3.297   1.586   6.105 -0.4391  0.2307  0.2771
  203MOL0     C27319   3.176   1.661   6.135 -0.3378 -1.1747  0.8953
  203MOL0     N27320   2.415   1.827   6.171 -0.7716  0.4329 -0.0247
  203MOL0     N27321   2.293   1.870   6.152  0.0065 -0.3521  0.2614
  203MOL0     C27322   1.264   2.441   5.952  0.8615  0.3474  0.2233
  203MOL0     C27323   1.155   2.410   5.885  0.6324  0.0072  0.0109
  203MOL0     C27324   0.850   2.380   5.568 -0.2613 -0.7213 -1.1962
  203MOL0     C27325   0.773   2.404   5.684  0.9487  1.1175 -0.5249
  203MOL0     C27326   0.640   2.399   5.690  0.2335 -1.1956 -0.4220
  203MOL0     C27327   0.567   2.375   5.573 -0.5306  0.1773  1.0556
  203MOL0     O27328   0.432   2.381   5.575  0.0915 -1.2764 -0.4026
  203MOL0     C27329   0.355   2.282   5.501  0.1980  0.7337  0.4308
  203MOL0     C27330   0.234   2.334   5.415 -0.6428 -0.2377  0.2873
  203MOL0     C27331   0.119   2.374   5.506 -0.1522  0.0006 -0.7483
  203MOL0     C27332  -0.015   2.374   5.437  0.9376  0.2730  0.3425
  203MOL0     C27333  -0.124   2.426   5.507  0.5942  0.2359 -0.4336
  203MOL0     C27334  -0.207   2.471   5.588 -0.0847 -0.3767 -0.5854
  203MOL0     C27335   0.644   2.366   5.453  0.2396 -0.1138  0.1192
  203MOL0     C27336   0.783   2.365   5.441 -0.1695 -0.6679 -0.7933
  203MOL0     C27337   0.843   2.345   5.302 -0.5190 -0.3822  0.2730
  203MOL0     H27338   1.293   2.304   5.589  0.9853  0.5399 -0.7986
  203MOL0     H27339   1.486   2.343   5.702  0.5205 -0.0091  1.2989
  203MOL0     H27340   1.472   2.601   6.096 -0.6720  0.6970  1.6444
  203MOL0     H27341   1.439   2.440   6.142  3.7228 -4.5158  1.4478
  203MOL0     H27342   1.658   2.509   6.243  1.0276 -1.5213 -0.4252
  203MOL0     H27343   1.713   2.573   6.094 -0.7345  2.1317  3.0374
  203MOL0     H27344   1.735   2.322   6.023 -0.4521  1.7915 -1.2030
  203MOL0     H27345   1.651   2.287   6.167  0.1251  0.1956 -1.5285
  203MOL0     H27346   1.932   2.412   6.162 -0.1626  1.2381  1.1042
  203MOL0     H27347   1.823   2.378   6.299  1.6654 -1.3224  0.9670
  203MOL0     H27348   1.985   2.206   6.292 -0.3471  0.2884  1.6290
  203MOL0     H27349   1.823   2.150   6.274  0.1991  1.2611  1.7906
  203MOL0     H27350   1.847   2.084   6.053  1.3122 -1.7264  0.2493
  203MOL0     H27351   1.962   2.225   6.022 -1.0622  2.0869  1.1376
  203MOL0     H27352   2.049   1.979   6.008 -0.9413 -1.2577  0.5047
  203MOL0     H27353   2.026   1.960   6.175  0.9907 -1.6773 -1.8105
  203MOL0     H27354   2.216   2.176   6.063  3.4581 -1.8167 -0.9870
  203MOL0     H27355   2.185   2.152   6.235  0.0397 -0.9348 -0.5971
  203MOL0     H27356   2.447   2.151   6.162 -1.8154 -0.2303  1.6454
  203MOL0     H27357   2.681   1.828   6.147  0.6494  0.6981 -0.9244
  203MOL0     H27358   2.690   2.000   6.131  2.7900  0.4303  0.1141
  203MOL0     H27359   2.663   2.014   6.386  3.1712  0.8111  0.8591
  203MOL0     H27360   2.678   1.842   6.387  0.3880 -0.2999 -1.3037
  203MOL0     H27361   2.885   1.918   6.440  0.0911  1.3120 -0.1134
  203MOL0     H27362   2.889   2.034   6.302 -0.5160 -0.0978 -2.0059
  203MOL0     H27363   2.892   1.840   6.153 -0.2103 -1.9742 -0.2666
  203MOL0     H27364   2.925   1.736   6.294  1.5680  1.2808  3.5559
  203MOL0     H27365   3.330   1.949   6.246  1.3019  1.0487 -1.7439
  203MOL0     H27366   3.521   1.829   6.195 -1.0241  3.6246 -1.9195
  203MOL0     H27367   3.727   1.504   5.879 -0.1862 -1.6504 -1.1377
  203MOL0     H27368   3.912   1.368   5.831  0.5340  1.3789 -0.7458
  203MOL0     H27369   4.035   1.127   6.102  0.8176  0.1069  0.9110
  203MOL0     H27370   4.050   1.092   5.939 -0.7767 -1.1188  1.3897
  203MOL0     H27371   4.245   1.002   5.986 -0.1757  0.2982 -1.9491
  203MOL0     H27372   4.294   1.175   5.966 -0.7261 -0.2340 -1.0890
  203MOL0     H27373   4.265   1.211   6.212 -0.0971 -0.5945 -0.5539
  203MOL0     H27374   4.233   1.041   6.236 -1.1480  1.1788  1.1456
  203MOL0     H27375   4.482   1.149   6.106  0.3341 -1.8831 -1.9513
  203MOL0     H27376   4.451   0.989   6.140 -0.9190 -0.1918  0.1754
  203MOL0     H27377   4.430   1.047   6.395 -2.1171  1.1528 -0.2557
  203MOL0     H27378   4.470   1.213   6.363  3.5523  0.2725  0.0514
  203MOL0     H27379   4.678   1.074   6.430  0.8682 -1.7374 -0.3849
  203MOL0     H27380   4.653   0.963   6.294 -1.8508 -0.9004  0.8912
  203MOL0     H27381   4.694   1.269   6.291  0.9863  1.2456 -1.3825
  203MOL0     H27382   4.684   1.175   6.139  0.8255 -0.6555 -0.5485
  203MOL0     H27383   4.923   1.231   6.186 -0.9428 -0.1240 -1.9532
  203MOL0     H27384   4.891   1.193   6.359 -3.0842  0.5245  0.0255
  203MOL0     H27385   4.030   1.394   6.242 -0.2052  2.1803 -0.5783
  203MOL0     H27386   3.845   1.553   6.282 -1.1283  1.6043 -1.3977
  203MOL0     H27387   3.292   1.485   6.067  0.7628 -0.2303  1.2675
  203MOL0     H27388   3.078   1.616   6.125 -1.4312  1.4622 -1.8810
  203MOL0     H27389   1.247   2.489   6.048 -3.0638 -1.0850  0.4206
  203MOL0     H27390   1.061   2.436   5.932  0.4456 -2.4980  1.2118
  203MOL0     H27391   0.818   2.421   5.781 -0.3979  4.7553 -0.3819
  203MOL0     H27392   0.595   2.422   5.786 -2.9438  0.4581 -2.1161
  203MOL0     H27393   0.321   2.209   5.575 -1.8335  0.9847 -0.1729
  203MOL0     H27394   0.423   2.223   5.439 -0.6750 -2.1761  2.0576
  203MOL0     H27395   0.209   2.250   5.350  2.5530  0.5977 -2.2958
  203MOL0     H27396   0.264   2.416   5.350  1.3400 -0.7467  0.5153
  203MOL0     H27397   0.135   2.470   5.557 -1.3301  0.2795 -0.8829
  203MOL0     H27398   0.103   2.297   5.583  2.1100  1.4059  1.3002
  203MOL0     H27399  -0.022   2.423   5.339  0.8994  0.3340  0.3757
  203MOL0     H27400  -0.029   2.267   5.419  1.6059  0.6481 -2.9442
  203MOL0     H27401  -0.265   2.518   5.665  2.2877 -0.1405  1.1734
  203MOL0     H27402   0.594   2.351   5.358 -0.7211 -1.4016  0.8030
  203MOL0     H27403   0.866   2.240   5.284 -7.0510 -1.8456 -2.2542
  203MOL0     H27404   0.777   2.371   5.218 -0.3909 -1.4795 -0.1784
  203MOL0     H27405   0.935   2.405   5.297 -1.0949  0.7261  2.1255
  204MOL0     O27406   5.507   2.019   6.519  0.0516  0.3385  0.3031
  204MOL0     C27407   5.410   1.994   6.594  0.0912  0.2166  0.0511
  204MOL0     O27408   5.281   1.960   6.551 -0.9787  0.6948  0.7760
  204MOL0     C27409   5.253   1.957   6.412  0.4281 -0.3279  0.0544
  204MOL0     C27410   5.127   2.007   6.368 -0.8485 -0.1604  0.3091
  204MOL0     C27411   5.088   2.000   6.236  0.3261 -0.8496  0.7236
  204MOL0     C27412   5.179   1.941   6.142  0.5537  0.6435  0.6034
  204MOL0     O27413   5.144   1.957   6.006  0.8571 -0.3945  0.0445
  204MOL0     C27414   5.190   1.860   5.907 -0.6420 -0.7352 -0.8306
  204MOL0     C27415   5.307   1.920   5.829 -0.5670  0.2230 -0.3742
  204MOL0     C27416   5.416   1.812   5.805 -0.2689 -0.3426 -0.0167
  204MOL0     C27417   5.528   1.861   5.699  0.1809 -0.1097  0.3868
  204MOL0     C27418   5.650   1.781   5.744 -0.0410  0.3893  1.0160
  204MOL0     C27419   5.733   1.753   5.616 -0.0397  0.1902 -0.3301
  204MOL0     C27420   5.847   1.647   5.660  0.1544 -0.5241 -0.1222
  204MOL0     C27421   5.949   1.698   5.766  0.0893 -0.5106 -0.4582
  204MOL0     N27422   6.053   1.600   5.780  0.2263 -1.3079 -0.2496
  204MOL0     C27423   6.144   1.598   5.887  0.3178 -0.2078  1.0108
  204MOL0     C27424   6.245   1.514   5.843 -0.0932  0.5399 -1.3112
  204MOL0     C27425   6.371   1.467   5.919  0.8867 -0.0707 -0.4535
  204MOL0     C27426   6.488   1.410   5.838 -0.3876  0.3440 -0.1035
  204MOL0     C27427   6.613   1.374   5.927 -0.2616  0.1268  0.3943
  204MOL0     C27428   6.745   1.359   5.850 -0.1817  0.0578 -0.7199
  204MOL0     O27429   6.796   1.487   5.842 -0.3084 -0.4627 -0.2100
  204MOL0     C27430   6.933   1.498   5.824  0.9877  0.6134  0.3572
  204MOL0     C27431   6.997   1.619   5.850 -0.4865 -0.1478  0.9614
  204MOL0     C27432   7.134   1.634   5.830  0.6127 -0.1689 -0.1401
  204MOL0     C27433   7.208   1.528   5.781 -0.1081 -0.4396 -0.2859
  204MOL0     C27434   7.353   1.556   5.755 -0.1337 -0.0026 -0.4878
  204MOL0     O27435   7.421   1.476   5.669 -0.5076 -0.0206  0.1524
  204MOL0     C27436   7.519   1.548   5.597  0.5264 -0.1902  0.1720
  204MOL0     C27437   7.643   1.576   5.658 -0.7765 -0.0426  0.3492
  204MOL0     C27438   7.745   1.644   5.587 -0.1533 -0.7381  0.1601
  204MOL0     C27439   7.722   1.665   5.448 -0.9547  0.0946  0.7388
  204MOL0     O27440   7.828   1.728   5.372  0.4774  0.2562 -0.0332
  204MOL0     C27441   7.952   1.665   5.369  0.4401  0.4027  0.1726
  204MOL0     C27442   8.027   1.697   5.238  0.1716 -0.2853 -1.0449
  204MOL0     C27443   8.134   1.584   5.208 -1.6303  0.2341  0.1895
  204MOL0     C27444   8.158   1.578   5.061  0.1127 -0.3695 -0.3249
  204MOL0     C27445   8.247   1.460   5.038 -0.8215 -0.1773 -0.2714
  204MOL0     C27446   8.304   1.439   4.894 -0.1224  0.1038  0.0707
  204MOL0     C27447   8.193   1.448   4.782 -0.0917  0.4624  0.0315
  204MOL0     C27448   8.198   1.572   4.687  0.0203 -0.4404 -0.5777
  204MOL0    Cl27449   8.358   1.601   4.614 -0.3330  0.4371 -0.0108
  204MOL0     C27450   7.595   1.648   5.387  0.1322  0.3759  0.0527
  204MOL0     C27451   7.496   1.589   5.467  0.1390 -0.2527 -0.5591
  204MOL0     O27452   7.406   1.652   5.809 -0.3764  0.0359  1.3706
  204MOL0     C27453   7.151   1.399   5.758  0.5585 -0.5133  0.4028
  204MOL0     C27454   7.014   1.385   5.784 -0.1432 -0.4729 -0.4253
  204MOL0     N27455   6.220   1.482   5.709  0.1444 -0.0441  0.4452
  204MOL0     N27456   6.101   1.509   5.684  0.1911 -0.4260 -0.3618
  204MOL0     C27457   5.297   1.896   6.178 -1.4105 -1.0264 -0.6287
  204MOL0     C27458   5.337   1.902   6.315  0.0835 -0.0455  0.3193
  204MOL0     C27459   5.437   1.997   6.738 -0.5710 -0.3634 -0.0585
  204MOL0     C27460   5.567   2.017   6.775  0.4114 -0.0721 -0.5598
  204MOL0     C27461   5.602   1.998   6.909  0.6531  0.4989  0.5311
  204MOL0     C27462   5.513   1.987   7.013 -0.6332 -0.5589 -0.2787
  204MOL0     O27463   5.562   1.962   7.139  0.5363  0.4402 -0.2222
  204MOL0     C27464   5.578   2.072   7.228 -0.0142  0.6294  0.0143
  204MOL0     C27465   5.623   2.024   7.367  0.3485  0.9515  0.1681
  204MOL0     C27466   5.524   1.925   7.427 -0.5410 -0.6148 -0.1362
  204MOL0     C27467   5.555   1.906   7.573  0.0469  0.5077  0.6655
  204MOL0     C27468   5.500   2.012   7.662  0.8373  0.1831 -0.0885
  204MOL0     C27469   5.455   2.096   7.736  1.3843 -0.8633  0.7736
  204MOL0     C27470   5.381   1.991   6.983  0.5249  1.1408  1.3285
  204MOL0     C27471   5.344   1.991   6.846 -0.1420 -0.1371 -0.7581
  204MOL0     C27472   5.200   1.972   6.815 -0.1545  0.4100 -0.1918
  204MOL0     H27473   5.052   2.047   6.436 -3.2570  1.1317 -2.8420
  204MOL0     H27474   4.995   2.040   6.196  1.9234  1.0378 -1.3213
  204MOL0     H27475   5.228   1.774   5.962  0.7730  1.9867  2.7976
  204MOL0     H27476   5.110   1.829   5.838 -1.7841  1.3251 -0.5110
  204MOL0     H27477   5.358   2.009   5.868 -5.3956  2.9929  0.3403
  204MOL0     H27478   5.265   1.962   5.737  2.4789  2.8987 -0.7242
  204MOL0     H27479   5.372   1.720   5.766  0.5282  0.0135 -1.8828
  204MOL0     H27480   5.458   1.788   5.903  0.6837  2.6809  0.4271
  204MOL0     H27481   5.492   1.840   5.598  2.5320 -2.7329 -0.0349
  204MOL0     H27482   5.540   1.969   5.698  0.9101 -0.1727 -1.4570
  204MOL0     H27483   5.697   1.853   5.812  1.2305  2.0064 -1.4369
  204MOL0     H27484   5.625   1.682   5.783  0.5346  0.6924  2.1990
  204MOL0     H27485   5.668   1.717   5.536  1.8991  1.1496 -2.4361
  204MOL0     H27486   5.787   1.842   5.583  2.7038 -1.8382 -1.7055
  204MOL0     H27487   5.906   1.625   5.571  1.3180 -3.4712  1.2430
  204MOL0     H27488   5.802   1.557   5.703 -0.5308  1.3179  3.4050
  204MOL0     H27489   6.004   1.786   5.730 -0.1569  1.1844  2.9627
  204MOL0     H27490   5.901   1.732   5.857 -1.2437 -1.1058 -0.9123
  204MOL0     H27491   6.123   1.633   5.987  0.3668 -3.8020  2.4085
  204MOL0     H27492   6.408   1.557   5.969 -3.2037  0.8085  1.3777
  204MOL0     H27493   6.343   1.394   5.995  0.1067  0.7865  0.1065
  204MOL0     H27494   6.464   1.320   5.780  3.6211 -0.3610 -0.8988
  204MOL0     H27495   6.528   1.489   5.775  2.1313 -0.3296  0.5401
  204MOL0     H27496   6.592   1.276   5.970 -2.2235  0.1428 -0.4493
  204MOL0     H27497   6.627   1.444   6.010 -0.3102 -0.3676  0.8252
  204MOL0     H27498   6.731   1.319   5.749 -0.3705 -3.4454  0.5645
  204MOL0     H27499   6.810   1.293   5.908 -2.0243 -0.7262  0.5739
  204MOL0     H27500   6.934   1.702   5.880 -0.5237  0.2308 -0.1321
  204MOL0     H27501   7.197   1.723   5.835  1.7626 -1.0009  3.4315
  204MOL0     H27502   7.654   1.555   5.764 -1.1455 -0.9064  0.2258
  204MOL0     H27503   7.831   1.679   5.643  0.1629  1.6709 -1.6893
  204MOL0     H27504   8.014   1.689   5.455  2.2105  0.2426 -0.9923
  204MOL0     H27505   7.923   1.559   5.371 -3.4925  1.2669 -1.4320
  204MOL0     H27506   7.950   1.698   5.161  0.4829  0.5354 -1.3499
  204MOL0     H27507   8.074   1.795   5.244 -0.9755  0.2841 -1.1377
  204MOL0     H27508   8.222   1.615   5.265 -0.8438  3.1229 -2.3207
  204MOL0     H27509   8.095   1.489   5.245  1.0169  0.1138  3.1560
  204MOL0     H27510   8.212   1.669   5.033  1.3764 -0.9564  0.1185
  204MOL0     H27511   8.063   1.571   5.008  0.0356  0.4404 -0.3111
  204MOL0     H27512   8.207   1.368   5.082  3.9828 -1.3034  2.4620
  204MOL0     H27513   8.344   1.482   5.084  1.1625  0.1345 -4.2410
  204MOL0     H27514   8.385   1.509   4.871  0.5371 -0.4257  0.6925
  204MOL0     H27515   8.330   1.333   4.898 -3.0897 -0.7041  3.0442
  204MOL0     H27516   8.093   1.445   4.825  0.3238 -0.4770  1.0010
  204MOL0     H27517   8.202   1.355   4.724 -1.9671  0.0659  0.3107
  204MOL0     H27518   8.123   1.547   4.612 -0.4433  0.8930 -0.5779
  204MOL0     H27519   8.171   1.661   4.746  3.3143  1.7848 -2.1121
  204MOL0     H27520   7.564   1.690   5.292 -2.2174  0.1178  0.6576
  204MOL0     H27521   7.393   1.588   5.436  0.8130 -0.6467 -2.9505
  204MOL0     H27522   7.215   1.319   5.721 -3.0008 -2.4043 -2.3510
  204MOL0     H27523   6.967   1.289   5.767  2.5637 -2.5586  2.6113
  204MOL0     H27524   5.359   1.857   6.098  0.2777 -1.0437  0.6210
  204MOL0     H27525   5.435   1.861   6.339  0.7777  1.2462 -0.1914
  204MOL0     H27526   5.645   2.017   6.699 -0.0777 -0.1265 -1.0638
  204MOL0     H27527   5.711   1.999   6.919  0.5000 -0.1495  2.8534
  204MOL0     H27528   5.480   2.120   7.239 -0.9877 -0.8855 -1.5040
  204MOL0     H27529   5.636   2.154   7.185  1.3417 -0.9570 -1.2900
  204MOL0     H27530   5.637   2.115   7.426  1.6326 -0.2367  1.7850
  204MOL0     H27531   5.719   1.972   7.359 -1.3731 -2.4512  0.0483
  204MOL0     H27532   5.537   1.822   7.390  1.5322 -0.0896 -1.0375
  204MOL0     H27533   5.423   1.965   7.419 -0.0694  0.6243  0.0003
  204MOL0     H27534   5.502   1.818   7.610  3.3629 -1.6387  0.7513
  204MOL0     H27535   5.661   1.887   7.595 -0.4113 -2.5163  0.6892
  204MOL0     H27536   5.418   2.188   7.777 -1.5193 -0.9273 -1.3707
  204MOL0     H27537   5.305   1.976   7.059 -0.8811 -2.9002 -0.5524
  204MOL0     H27538   5.172   1.872   6.779 -4.6725  0.7684  1.5614
  204MOL0     H27539   5.142   1.996   6.905 -0.2272  0.3759 -0.2293
  204MOL0     H27540   5.172   2.046   6.739  1.1119  0.3899 -0.7024
  205MOL0     O27541   7.875   0.685   0.289 -0.6365 -0.1200  0.2353
  205MOL0     C27542   7.870   0.729   0.176 -0.1756  0.6282  0.1269
  205MOL0     O27543   7.969   0.742   0.083  0.0745  0.4010  0.6761
  205MOL0     C27544   8.093   0.689   0.116  0.3836 -0.0072 -0.2783
  205MOL0     C27545   8.170   0.718   0.231 -0.8387 -0.3605 -0.0302
  205MOL0     C27546   8.302   0.666   0.245 -0.1934 -0.8994  0.0451
  205MOL0     C27547   8.352   0.585   0.147  0.7101  0.2105  0.0564
  205MOL0     O27548   8.479   0.530   0.144  0.4089 -0.2326  0.6354
  205MOL0     C27549   8.581   0.611   0.204  0.3928 -0.3566 -0.5825
  205MOL0     C27550   8.712   0.573   0.141  0.5791  0.9395  0.1761
  205MOL0     C27551   8.692   0.545  -0.014 -0.1936 -0.6077  0.5395
  205MOL0     C27552   8.820   0.566  -0.091 -0.0723 -0.6481 -0.0001
  205MOL0     C27553   8.889   0.438  -0.135  0.5671  1.5106 -0.7959
  205MOL0     C27554   9.022   0.466  -0.200  0.4778  0.4427 -0.0005
  205MOL0     C27555   9.079   0.344  -0.276  0.2298  0.5148  0.6652
  205MOL0     C27556   9.178   0.273  -0.189 -0.9275  0.5208 -0.0288
  205MOL0     N27557   9.240   0.166  -0.266  0.1756 -0.4814  0.4869
  205MOL0     C27558   9.304   0.188  -0.383  0.0180  0.6139  0.2935
  205MOL0     C27559   9.326   0.061  -0.434 -0.4560 -0.7873 -0.3699
  205MOL0     C27560   9.409   0.029  -0.555  0.0585  0.4135  0.0493
  205MOL0     C27561   9.414   0.151  -0.651 -0.9139  0.1438  0.1956
  205MOL0     C27562   9.458   0.107  -0.796  0.2283  0.3906  0.2143
  205MOL0     C27563   9.603   0.047  -0.816  1.0263 -0.2068 -0.4978
  205MOL0     O27564   9.636   0.057  -0.956 -0.5253  0.1457 -0.4134
  205MOL0     C27565   9.754  -0.002  -0.997  0.0133  1.1818  0.1262
  205MOL0     C27566   9.805   0.037  -1.118  0.8773 -0.3906  0.7534
  205MOL0     C27567   9.918  -0.024  -1.177  0.1711 -1.1878 -0.2596
  205MOL0     C27568   9.989  -0.119  -1.101  0.3239 -0.2938  0.0178
  205MOL0     C27569  10.106  -0.189  -1.160 -0.3923 -0.2523  0.6919
  205MOL0     O27570  10.201  -0.242  -1.082 -0.6252  0.2369  0.6553
  205MOL0     C27571  10.302  -0.314  -1.140 -0.3809  0.0613 -0.2929
  205MOL0     C27572  10.290  -0.437  -1.188  0.5713 -0.2803  0.3259
  205MOL0     C27573  10.400  -0.516  -1.211 -0.2466  0.8002 -0.3148
  205MOL0     C27574  10.532  -0.472  -1.206  1.2376  0.2051 -0.0620
  205MOL0     O27575  10.635  -0.561  -1.242  0.1601  0.5958 -0.4346
  205MOL0     C27576  10.767  -0.508  -1.221  0.1868  0.5857  0.5339
  205MOL0     C27577  10.861  -0.626  -1.255 -0.1572  0.9849 -0.6013
  205MOL0     C27578  11.002  -0.584  -1.268 -0.6745 -0.5106  0.7920
  205MOL0     C27579  11.108  -0.699  -1.267 -0.2077  0.3652 -0.3132
  205MOL0     C27580  11.246  -0.644  -1.307 -0.5296 -0.4949  0.5033
  205MOL0     C27581  11.361  -0.750  -1.297 -0.1255 -0.2554  1.2175
  205MOL0     C27582  11.497  -0.676  -1.307 -0.3268  0.1766 -0.0728
  205MOL0     C27583  11.604  -0.777  -1.355 -0.3581 -1.2718  0.8514
  205MOL0    Cl27584  11.765  -0.689  -1.361  0.0602 -0.5344  0.0063
  205MOL0     C27585  10.542  -0.338  -1.159 -0.1601 -1.1224  0.8468
  205MOL0     C27586  10.427  -0.261  -1.131 -0.2810 -0.4605 -0.1424
  205MOL0     O27587  10.109  -0.189  -1.277 -0.1655  0.1034  0.6359
  205MOL0     C27588   9.955  -0.133  -0.963  0.0591 -1.0469 -0.1489
  205MOL0     C27589   9.838  -0.074  -0.909 -0.4549  0.5955  0.9603
  205MOL0     N27590   9.274  -0.037  -0.348  0.2559 -0.1206  0.4429
  205MOL0     N27591   9.226   0.033  -0.245 -0.4907  0.7888  0.5656
  205MOL0     C27592   8.270   0.550   0.030  0.2880  0.3527 -0.0151
  205MOL0     C27593   8.140   0.595   0.024 -0.2109  0.3211 -0.3016
  205MOL0     C27594   7.735   0.779   0.136 -0.0578  0.1461  0.3037
  205MOL0     C27595   7.695   0.777   0.000  0.4578  0.3248  0.0376
  205MOL0     C27596   7.570   0.806  -0.040 -0.6973  0.4931 -0.0748
  205MOL0     C27597   7.467   0.854   0.047 -0.4807  0.0921 -0.5195
  205MOL0     O27598   7.347   0.886  -0.012  0.0399 -0.4007 -0.0173
  205MOL0     C27599   7.242   0.938   0.071  0.2080  0.2024  0.0525
  205MOL0     C27600   7.129   0.959  -0.025 -0.6654 -0.0582 -0.4981
  205MOL0     C27601   7.030   1.060   0.028 -0.4750 -0.2196 -0.4911
  205MOL0     C27602   6.985   1.036   0.178  1.0633 -0.7188  0.0125
  205MOL0     C27603   6.890   0.917   0.172  0.6102 -0.7358 -1.4813
  205MOL0     C27604   6.811   0.825   0.187 -0.2095 -0.2075  0.9630
  205MOL0     C27605   7.509   0.875   0.182 -0.1297  0.4165 -0.1025
  205MOL0     C27606   7.634   0.831   0.229  0.8839  0.9636  0.4052
  205MOL0     C27607   7.663   0.859   0.378 -0.9249  0.9880 -0.0521
  205MOL0     H27608   8.138   0.789   0.307  0.1415  1.0646 -0.8869
  205MOL0     H27609   8.351   0.707   0.333 -2.4587 -4.7115  3.4040
  205MOL0     H27610   8.574   0.718   0.182 -0.5793  0.2101  2.1221
  205MOL0     H27611   8.578   0.598   0.312  0.5144  1.1441 -0.3806
  205MOL0     H27612   8.763   0.490   0.191 -3.8434 -2.4278 -0.2923
  205MOL0     H27613   8.777   0.660   0.153 -1.2571  2.4834 -0.4546
  205MOL0     H27614   8.631   0.623  -0.059  0.4802 -0.8848 -0.9112
  205MOL0     H27615   8.648   0.451  -0.049 -5.0966  1.0360  1.5806
  205MOL0     H27616   8.794   0.625  -0.179  1.4973  1.8690  1.1017
  205MOL0     H27617   8.887   0.629  -0.031  1.7569 -1.5266 -1.0464
  205MOL0     H27618   8.898   0.369  -0.050 -0.6969  1.3314 -0.7835
  205MOL0     H27619   8.825   0.383  -0.204  0.1616  0.0705  0.6480
  205MOL0     H27620   9.003   0.540  -0.278  0.8002 -1.0162 -1.5198
  205MOL0     H27621   9.088   0.510  -0.126 -0.3059  1.5925  0.0463
  205MOL0     H27622   9.122   0.386  -0.367 -2.5154  0.5823 -0.6906
  205MOL0     H27623   9.002   0.279  -0.318  3.0923 -1.8127 -1.4232
  205MOL0     H27624   9.259   0.338  -0.154 -0.7791 -0.8891  2.4994
  205MOL0     H27625   9.135   0.223  -0.102 -0.5634 -0.5875 -0.4578
  205MOL0     H27626   9.332   0.280  -0.433 -0.5573  0.8124  0.3267
  205MOL0     H27627   9.505  -0.016  -0.527 -0.4943 -0.0580  1.2527
  205MOL0     H27628   9.345  -0.042  -0.607 -0.6304  2.1915 -1.6433
  205MOL0     H27629   9.317   0.202  -0.652  0.3166  2.6519 -0.0651
  205MOL0     H27630   9.486   0.223  -0.611  2.4553 -1.8852 -1.6924
  205MOL0     H27631   9.443   0.187  -0.869  0.2334  1.3210  1.2167
  205MOL0     H27632   9.397   0.020  -0.824  0.4474  0.2456  0.1847
  205MOL0     H27633   9.621  -0.052  -0.774  0.6206 -0.2297 -0.3796
  205MOL0     H27634   9.672   0.106  -0.753 -1.4790 -0.2908  2.5631
  205MOL0     H27635   9.745   0.099  -1.183  0.8160 -3.4405 -2.3900
  205MOL0     H27636   9.961   0.002  -1.274  0.0117 -1.7726 -0.4884
  205MOL0     H27637  10.188  -0.475  -1.188  0.2699  0.4994 -0.4384
  205MOL0     H27638  10.377  -0.614  -1.253 -2.0449  1.4453 -0.9366
  205MOL0     H27639  10.780  -0.425  -1.291 -1.2444 -0.9863 -1.7648
  205MOL0     H27640  10.777  -0.483  -1.115 -0.1320 -0.5047  0.8414
  205MOL0     H27641  10.873  -0.709  -1.185 -0.9057  0.3465 -1.2028
  205MOL0     H27642  10.820  -0.656  -1.352 -3.8205 -0.2081  1.1064
  205MOL0     H27643  11.008  -0.541  -1.369 -0.7569 -1.0224  0.5673
  205MOL0     H27644  11.024  -0.503  -1.198  1.3378 -0.6665  0.4121
  205MOL0     H27645  11.088  -0.778  -1.341  3.5450 -0.5735 -0.5007
  205MOL0     H27646  11.098  -0.745  -1.168 -2.6992 -0.4378 -0.8571
  205MOL0     H27647  11.283  -0.565  -1.241  1.3093 -1.1890  0.3706
  205MOL0     H27648  11.232  -0.597  -1.405  0.4175 -0.7766  0.2189
  205MOL0     H27649  11.354  -0.811  -1.207  0.9262  0.9291  2.1346
  205MOL0     H27650  11.335  -0.802  -1.390 -2.8115  2.6070  0.1523
  205MOL0     H27651  11.538  -0.625  -1.220  1.0017 -1.3490  0.2559
  205MOL0     H27652  11.485  -0.608  -1.391 -5.6076 -0.9154 -0.5327
  205MOL0     H27653  11.614  -0.862  -1.287  1.0998 -1.2111  0.7397
  205MOL0     H27654  11.587  -0.805  -1.459 -1.0182  0.8425  0.3481
  205MOL0     H27655  10.639  -0.291  -1.153 -1.0673  1.3513 -1.5348
  205MOL0     H27656  10.445  -0.158  -1.101 -1.3532 -0.7206  1.4956
  205MOL0     H27657  10.036  -0.178  -0.906  0.7971 -0.1959 -0.4899
  205MOL0     H27658   9.834  -0.097  -0.803 -2.1145 -2.7247  0.3365
  205MOL0     H27659   8.317   0.482  -0.041  3.0291  1.2059  0.8561
  205MOL0     H27660   8.069   0.566  -0.053  1.0325 -3.6965 -0.1411
  205MOL0     H27661   7.761   0.745  -0.079 -0.4524  1.7937 -1.3736
  205MOL0     H27662   7.562   0.805  -0.149  2.9948 -0.5128 -0.4646
  205MOL0     H27663   7.262   1.033   0.123 -1.6840  0.2113  0.8284
  205MOL0     H27664   7.217   0.862   0.145 -0.9876 -1.2730 -1.7795
  205MOL0     H27665   7.084   0.861  -0.040  0.9732 -0.7337 -1.2099
  205MOL0     H27666   7.171   0.985  -0.122 -0.8618 -1.1168 -0.8762
  205MOL0     H27667   6.946   1.057  -0.041 -0.7084 -0.3925 -0.2015
  205MOL0     H27668   7.077   1.159   0.024  2.2314 -1.3383  0.7804
  205MOL0     H27669   7.073   1.028   0.242  1.3496 -3.1789 -0.5681
  205MOL0     H27670   6.935   1.126   0.215  0.5747 -1.6130  1.5761
  205MOL0     H27671   6.741   0.745   0.202 -2.1356  1.3599  0.8448
  205MOL0     H27672   7.435   0.911   0.253 -0.5930  1.2775 -0.9849
  205MOL0     H27673   7.628   0.958   0.411  3.4283  2.0668  2.0868
  205MOL0     H27674   7.633   0.783   0.451  3.5091  2.0534  3.3542
  205MOL0     H27675   7.769   0.874   0.399 -1.4888 -0.0741  4.9080
  206MOL0     O27676   1.314   0.827   5.476 -0.2117 -0.6680  0.0178
  206MOL0     C27677   1.199   0.807   5.441 -0.1282  0.9504  0.3904
  206MOL0     O27678   1.162   0.800   5.322  0.1088 -0.7574 -0.0032
  206MOL0     C27679   1.244   0.878   5.234  0.3919  0.1586 -0.6156
  206MOL0     C27680   1.357   0.819   5.179  0.4707  0.8478 -0.0005
  206MOL0     C27681   1.440   0.889   5.101 -0.3533 -0.2824 -1.2107
  206MOL0     C27682   1.401   1.016   5.058  0.4313 -0.7711 -1.2213
  206MOL0     O27683   1.487   1.075   4.965 -0.0950  0.2370  0.2547
  206MOL0     C27684   1.481   1.213   4.926 -0.5760  0.3710 -0.3282
  206MOL0     C27685   1.634   1.277   4.929  0.3170 -0.3655 -0.4411
  206MOL0     C27686   1.663   1.374   5.047 -0.2580 -0.9667 -0.3987
  206MOL0     C27687   1.816   1.401   5.029  0.4835  0.0003  0.1278
  206MOL0     C27688   1.878   1.487   5.138 -0.1776  0.1575  0.5313
  206MOL0     C27689   2.027   1.532   5.107  0.5448 -0.5403  0.1844
  206MOL0     C27690   2.111   1.417   5.073 -0.5507  0.6144  0.0650
  206MOL0     C27691   2.259   1.445   5.075  0.5968  0.3541 -0.0552
  206MOL0     N27692   2.326   1.516   4.966  0.3448  0.0789 -0.0492
  206MOL0     C27693   2.459   1.522   4.938 -0.5413 -0.5805  0.3950
  206MOL0     C27694   2.475   1.610   4.835 -0.1857 -0.5723 -0.1747
  206MOL0     C27695   2.605   1.656   4.787 -0.8469 -0.4597 -0.4606
  206MOL0     C27696   2.627   1.803   4.821 -0.2239 -0.6695 -0.3723
  206MOL0     C27697   2.774   1.848   4.793 -0.0679  0.8167 -0.6625
  206MOL0     C27698   2.783   1.921   4.672 -0.4132  0.4719 -0.0846
  206MOL0     O27699   2.856   1.837   4.577 -0.1929 -0.3213 -0.0586
  206MOL0     C27700   2.993   1.819   4.580 -0.9688 -0.9663 -0.4492
  206MOL0     C27701   3.081   1.882   4.670 -0.2845 -0.3419  1.0749
  206MOL0     C27702   3.216   1.871   4.645  0.0917 -0.0647 -0.3612
  206MOL0     C27703   3.269   1.794   4.537  0.0566 -0.3983  0.2331
  206MOL0     C27704   3.415   1.789   4.518  0.7470 -1.1989  0.6464
  206MOL0     O27705   3.502   1.834   4.618  0.7222 -0.1464  0.5611
  206MOL0     C27706   3.635   1.837   4.582 -0.8723 -0.0696  0.1602
  206MOL0     C27707   3.730   1.750   4.631 -0.1279  0.9775  0.3598
  206MOL0     C27708   3.868   1.760   4.593  0.4862 -0.4711 -0.4157
  206MOL0     C27709   3.910   1.848   4.492  0.0366  0.1283 -0.6473
  206MOL0     O27710   4.047   1.854   4.481 -0.1162  0.1473 -0.1522
  206MOL0     C27711   4.095   1.967   4.406 -0.3323  0.4139  0.3397
  206MOL0     C27712   4.250   1.940   4.369  0.2250  0.6274  1.4647
  206MOL0     C27713   4.347   2.059   4.379 -0.2034  0.0509 -0.2609
  206MOL0     C27714   4.370   2.097   4.522  1.4971  0.0652 -0.9040
  206MOL0     C27715   4.459   2.233   4.532 -0.3498 -0.1918 -0.3244
  206MOL0     C27716   4.504   2.255   4.673  0.2746  0.3219 -0.2286
  206MOL0     C27717   4.598   2.376   4.669  0.2276  0.2458  0.3123
  206MOL0     C27718   4.613   2.454   4.800 -1.0363  0.7537 -0.5125
  206MOL0    Cl27719   4.457   2.543   4.843 -0.6439 -0.2723 -0.6058
  206MOL0     C27720   3.804   1.923   4.433 -0.8271  1.3054  0.1954
  206MOL0     C27721   3.681   1.924   4.481  0.5212 -0.4178 -0.2932
  206MOL0     O27722   3.446   1.735   4.419 -0.6136 -0.1783  0.5715
  206MOL0     C27723   3.180   1.721   4.466 -0.0956  0.0055  0.6149
  206MOL0     C27724   3.048   1.730   4.485  0.2585  0.0927 -0.5307
  206MOL0     N27725   2.348   1.641   4.779 -0.6642 -0.6545  0.5220
  206MOL0     N27726   2.263   1.579   4.858 -0.1969  0.1396 -0.5156
  206MOL0     C27727   1.289   1.075   5.106 -0.1085 -1.0915 -0.0875
  206MOL0     C27728   1.214   1.014   5.212  0.1788  0.4401  0.4892
  206MOL0     C27729   1.101   0.778   5.543  0.5573 -0.6322  0.0678
  206MOL0     C27730   1.012   0.881   5.577  0.6467  0.4014  0.2934
  206MOL0     C27731   0.923   0.854   5.685  0.2630  0.1771 -0.6346
  206MOL0     C27732   0.921   0.731   5.754 -0.6325  0.5606 -0.0922
  206MOL0     O27733   0.839   0.690   5.854  0.1643  0.9642 -0.6268
  206MOL0     C27734   0.758   0.791   5.921 -0.1923 -0.2832  0.3620
  206MOL0     C27735   0.685   0.735   6.044 -0.5009 -0.8305 -0.0111
  206MOL0     C27736   0.559   0.653   6.020 -0.1346 -0.6143 -0.2772
  206MOL0     C27737   0.452   0.732   5.941  0.1285  0.1796  0.2262
  206MOL0     C27738   0.444   0.685   5.799 -0.4468  0.1803  0.2479
  206MOL0     C27739   0.430   0.642   5.681 -1.3742  0.4390 -1.4322
  206MOL0     C27740   1.012   0.629   5.712  0.0584 -0.6273 -0.6106
  206MOL0     C27741   1.104   0.651   5.609  0.5992  0.2382 -0.2479
  206MOL0     C27742   1.199   0.540   5.576  0.5872  0.1291  0.4076
  206MOL0     H27743   1.384   0.726   5.227 -0.9763 -0.2281 -1.1564
  206MOL0     H27744   1.528   0.842   5.061  1.6560  1.1905  1.1824
  206MOL0     H27745   1.443   1.242   4.828 -1.3713  1.0451  0.1658
  206MOL0     H27746   1.429   1.271   5.003 -1.3250  1.0462 -1.3180
  206MOL0     H27747   1.653   1.341   4.842 -0.1803  2.2011  1.2597
  206MOL0     H27748   1.705   1.193   4.927  0.1371 -0.5090 -1.0829
  206MOL0     H27749   1.637   1.326   5.141 -0.8828  0.4862  0.2024
  206MOL0     H27750   1.609   1.469   5.045 -1.1700 -1.4483  0.5511
  206MOL0     H27751   1.870   1.306   5.022 -1.0253 -0.7457 -2.3481
  206MOL0     H27752   1.831   1.460   4.939  1.7396 -0.7682 -0.1962
  206MOL0     H27753   1.816   1.577   5.143 -0.9305 -0.4240  2.0750
  206MOL0     H27754   1.884   1.428   5.229 -0.9631  0.3341  0.7061
  206MOL0     H27755   2.023   1.606   5.026  1.5434 -1.8203 -1.0789
  206MOL0     H27756   2.064   1.586   5.195 -0.7786  0.7728 -0.0176
  206MOL0     H27757   2.088   1.392   4.969  0.7218  0.9026 -0.3087
  206MOL0     H27758   2.096   1.332   5.139  1.4590  1.1108  1.2473
  206MOL0     H27759   2.281   1.502   5.166 -0.0511 -1.6021  1.3932
  206MOL0     H27760   2.320   1.354   5.070  1.7107  0.9648  1.4973
  206MOL0     H27761   2.545   1.482   4.992  0.1024 -0.5186 -0.5543
  206MOL0     H27762   2.682   1.599   4.840  0.8332  3.1147  1.3177
  206MOL0     H27763   2.590   1.637   4.681 -1.9264  0.4709 -0.5008
  206MOL0     H27764   2.562   1.872   4.766  0.0261  2.0099  2.4020
  206MOL0     H27765   2.602   1.813   4.927 -1.3445  2.3384 -0.8202
  206MOL0     H27766   2.845   1.765   4.801  0.8887  1.7623  1.1188
  206MOL0     H27767   2.796   1.916   4.875  1.0986 -0.9670  0.5714
  206MOL0     H27768   2.839   2.014   4.680 -0.1772  0.2356  1.1222
  206MOL0     H27769   2.693   1.959   4.623  1.6840  3.2597 -2.1091
  206MOL0     H27770   3.042   1.955   4.740  1.0672  3.0041 -1.4225
  206MOL0     H27771   3.280   1.926   4.714 -1.1855  0.7552  0.2046
  206MOL0     H27772   3.697   1.667   4.693  2.9363 -0.9592 -0.3551
  206MOL0     H27773   3.938   1.698   4.648 -0.4431  0.5380  2.0313
  206MOL0     H27774   4.050   1.975   4.307 -0.9741  0.2893  0.6156
  206MOL0     H27775   4.079   2.059   4.463  0.0400  1.1853 -0.7578
  206MOL0     H27776   4.290   1.849   4.415  2.1271 -0.4840 -2.0131
  206MOL0     H27777   4.243   1.912   4.263  1.2742  1.1464  1.2427
  206MOL0     H27778   4.435   2.029   4.321  0.2500 -0.4576  0.6736
  206MOL0     H27779   4.310   2.148   4.328  3.9604  2.7999  1.0867
  206MOL0     H27780   4.407   2.003   4.564  2.8780  0.8211 -0.3508
  206MOL0     H27781   4.271   2.105   4.568 -0.0554 -0.8414 -3.7773
  206MOL0     H27782   4.413   2.323   4.489  2.3978  1.6679  0.3755
  206MOL0     H27783   4.544   2.227   4.463  1.6745  1.0055  1.9183
  206MOL0     H27784   4.414   2.278   4.731  0.0912  1.0488 -0.7883
  206MOL0     H27785   4.558   2.169   4.713 -0.7044 -0.0468  0.3369
  206MOL0     H27786   4.559   2.451   4.600 -0.0207 -0.2827 -0.1293
  206MOL0     H27787   4.694   2.348   4.626 -1.3211 -1.8926 -2.0613
  206MOL0     H27788   4.637   2.386   4.882 -3.2619 -1.4990 -1.5811
  206MOL0     H27789   4.695   2.526   4.792 -0.6883  0.5027  0.6392
  206MOL0     H27790   3.833   1.997   4.358  3.9351 -0.4767 -0.0598
  206MOL0     H27791   3.613   2.000   4.443 -0.4120  0.2233  2.4492
  206MOL0     H27792   3.229   1.662   4.389  0.7004  0.4402  0.7804
  206MOL0     H27793   2.984   1.683   4.411  1.0148  0.0833 -1.1899
  206MOL0     H27794   1.257   1.176   5.083  2.4488 -0.2066  0.0040
  206MOL0     H27795   1.131   1.063   5.261 -0.1812  0.1541  0.1754
  206MOL0     H27796   1.012   0.974   5.522  0.5769 -0.8086 -1.8331
  206MOL0     H27797   0.847   0.930   5.700  0.4024  0.1971 -0.0097
  206MOL0     H27798   0.692   0.841   5.849  1.0556 -2.5822 -2.6278
  206MOL0     H27799   0.828   0.873   5.934 -2.6023  2.3021 -1.5996
  206MOL0     H27800   0.659   0.816   6.112  1.1322 -1.3608  1.3333
  206MOL0     H27801   0.759   0.669   6.091 -0.8451 -0.6820  0.7493
  206MOL0     H27802   0.530   0.645   6.125  0.5961  0.2509 -0.0087
  206MOL0     H27803   0.567   0.548   5.987 -3.8640 -1.2244  0.3320
  206MOL0     H27804   0.352   0.713   5.982  0.2083  0.2948  0.4795
  206MOL0     H27805   0.461   0.841   5.948  0.6212  0.3865 -2.4759
  206MOL0     H27806   0.428   0.600   5.583  1.8275 -1.5278 -0.8090
  206MOL0     H27807   0.991   0.531   5.752  1.2004 -0.8554 -0.5263
  206MOL0     H27808   1.286   0.547   5.642 -1.1933  0.0237  2.8868
  206MOL0     H27809   1.154   0.441   5.587  2.3427 -0.8220 -0.6059
  206MOL0     H27810   1.223   0.554   5.470 -2.6938 -0.9023 -0.6135
  207MOL0     O27811   6.511  10.880  10.264 -0.9261 -0.2838  0.6884
  207MOL0     C27812   6.412  10.955  10.255 -0.4581  0.1565  1.1004
  207MOL0     O27813   6.402  11.089  10.287 -0.7641  0.0648 -0.3261
  207MOL0     C27814   6.518  11.151  10.307  0.2172 -0.6870 -0.0669
  207MOL0     C27815   6.577  11.227  10.210 -0.0353  0.0445 -0.0869
  207MOL0     C27816   6.692  11.311  10.237  0.4911  0.8469  0.5298
  207MOL0     C27817   6.745  11.302  10.368 -0.1129 -0.0695  0.2311
  207MOL0     O27818   6.845  11.397  10.386  0.4269 -0.5918  0.0485
  207MOL0     C27819   6.886  11.442  10.522 -0.1157  0.4542  0.0194
  207MOL0     C27820   6.985  11.558  10.517 -0.2842 -0.7392 -0.4609
  207MOL0     C27821   7.138  11.521  10.491  1.0189 -0.1825  0.2072
  207MOL0     C27822   7.175  11.552  10.347 -1.1382  0.6506 -0.4929
  207MOL0     C27823   7.319  11.491  10.316 -0.0475 -0.1604  0.2211
  207MOL0     C27824   7.440  11.566  10.385  1.0906 -0.0191 -0.5577
  207MOL0     C27825   7.582  11.505  10.355 -0.4202  0.2413  0.5783
  207MOL0     C27826   7.696  11.562  10.442  0.0458 -0.1219 -0.0916
  207MOL0     N27827   7.827  11.558  10.381  0.1587  0.1388  0.0118
  207MOL0     C27828   7.859  11.638  10.283  0.4598  0.5235  0.3792
  207MOL0     C27829   7.998  11.627  10.269  0.4653  0.0396 -0.2251
  207MOL0     C27830   8.094  11.685  10.166  0.0383  0.7160  0.2557
  207MOL0     C27831   8.202  11.595  10.123  0.4661  0.1870  0.0336
  207MOL0     C27832   8.146  11.468  10.053 -0.0535 -0.8307 -0.1293
  207MOL0     C27833   8.250  11.400   9.969 -0.1771 -0.8356  0.7927
  207MOL0     O27834   8.362  11.370  10.041  0.2720  0.0181  0.3239
  207MOL0     C27835   8.468  11.334   9.961  0.0174  0.1245 -0.1025
  207MOL0     C27836   8.586  11.323  10.034 -0.6659 -0.0822  0.4783
  207MOL0     C27837   8.706  11.295   9.974  0.5914  0.0111 -0.0116
  207MOL0     C27838   8.707  11.266   9.839 -0.6054  0.1066  0.3757
  207MOL0     C27839   8.839  11.235   9.772  0.2754  0.1075 -0.5751
  207MOL0     O27840   8.833  11.221   9.637  0.6204  0.0198 -0.0155
  207MOL0     C27841   8.944  11.203   9.563 -0.1211  1.0671 -0.0557
  207MOL0     C27842   9.020  11.306   9.528  0.1167 -0.9362 -0.6390
  207MOL0     C27843   9.137  11.293   9.461 -0.8419 -0.7326 -0.4172
  207MOL0     C27844   9.195  11.169   9.428  0.0218 -0.4508 -1.0524
  207MOL0     O27845   9.313  11.174   9.359 -0.0440  0.1848  0.2673
  207MOL0     C27846   9.363  11.061   9.289  0.3156 -0.1178 -0.6171
  207MOL0     C27847   9.499  11.105   9.225  1.1514  0.0417  0.0442
  207MOL0     C27848   9.597  10.995   9.214 -0.6230  0.5709 -0.1395
  207MOL0     C27849   9.730  11.025   9.138  0.0626 -0.3566  0.2518
  207MOL0     C27850   9.824  10.905   9.125  1.1138  1.0852 -0.0217
  207MOL0     C27851   9.950  10.959   9.043  0.5740  0.4798  0.1188
  207MOL0     C27852  10.073  10.872   9.042  0.5297  0.0820 -0.4998
  207MOL0     C27853  10.178  10.934   8.950  0.2910 -0.2159  0.6146
  207MOL0    Cl27854  10.113  10.935   8.784  0.1915  0.6518 -0.3560
  207MOL0     C27855   9.122  11.059   9.472 -0.3902 -0.0501  0.1216
  207MOL0     C27856   8.992  11.079   9.536  0.5395  0.0096  0.7437
  207MOL0     O27857   8.938  11.242   9.843 -0.4561  0.0911  0.2432
  207MOL0     C27858   8.589  11.259   9.763  0.8374 -0.0204 -0.2953
  207MOL0     C27859   8.467  11.301   9.822 -0.6993 -0.5492 -0.4461
  207MOL0     N27860   8.039  11.544  10.371 -0.0784 -0.0421  0.5278
  207MOL0     N27861   7.936  11.500  10.431  0.4019 -0.1617  0.3185
  207MOL0     C27862   6.693  11.218  10.462 -0.0910 -1.0323  0.2525
  207MOL0     C27863   6.570  11.151  10.439 -0.2150 -1.0524 -0.4581
  207MOL0     C27864   6.280  10.878  10.227  0.2815 -1.2144 -0.8316
  207MOL0     C27865   6.260  10.742  10.267 -0.5233 -0.5056 -0.7504
  207MOL0     C27866   6.140  10.686  10.267 -0.1945 -0.4845 -0.6385
  207MOL0     C27867   6.038  10.742  10.198 -0.7832 -0.0704 -0.1097
  207MOL0     O27868   5.929  10.663  10.182 -0.0009 -0.6154  0.4877
  207MOL0     C27869   5.800  10.719  10.138  0.5129 -0.3936 -0.4229
  207MOL0     C27870   5.716  10.600  10.099  0.1479  0.0803  0.0857
  207MOL0     C27871   5.575  10.637  10.043 -0.2921 -0.1656 -0.7917
  207MOL0     C27872   5.476  10.525  10.037  0.0401 -0.1666  0.1476
  207MOL0     C27873   5.533  10.428   9.944  0.2343 -0.2250 -0.1098
  207MOL0     C27874   5.563  10.341   9.860 -0.7450  0.2047 -0.2344
  207MOL0     C27875   6.050  10.872  10.151  0.8265  0.2799  0.1352
  207MOL0     C27876   6.166  10.941  10.164 -0.7198  0.5543 -0.2431
  207MOL0     C27877   6.172  11.080  10.110  0.3330 -0.1320 -0.2453
  207MOL0     H27878   6.538  11.243  10.110  1.7738 -0.6829 -0.9397
  207MOL0     H27879   6.731  11.382  10.165  3.9367  0.7973  2.1478
  207MOL0     H27880   6.798  11.483  10.572 -0.7110 -1.0299  0.2368
  207MOL0     H27881   6.931  11.358  10.577  1.0393  1.3767  0.5392
  207MOL0     H27882   6.981  11.617  10.609  0.8114  2.1537 -2.1224
  207MOL0     H27883   6.956  11.640  10.450  1.1113  2.1638  2.1949
  207MOL0     H27884   7.154  11.416  10.516  1.2331  0.5751  3.8207
  207MOL0     H27885   7.194  11.586  10.560 -0.4624  0.1765  1.1245
  207MOL0     H27886   7.099  11.522  10.275 -1.3983  2.5216 -1.0500
  207MOL0     H27887   7.179  11.658  10.321 -2.5887  0.6691 -0.7060
  207MOL0     H27888   7.322  11.384  10.342  1.0130 -0.5529 -1.3840
  207MOL0     H27889   7.328  11.505  10.208  1.2455  0.4617  0.3978
  207MOL0     H27890   7.435  11.668  10.346  0.9778  0.8124  1.5140
  207MOL0     H27891   7.417  11.580  10.491  2.3269 -3.1441  0.2394
  207MOL0     H27892   7.613  11.520  10.251 -0.9588  1.3199  0.5592
  207MOL0     H27893   7.575  11.398  10.374 -3.3288  0.4685  1.2635
  207MOL0     H27894   7.673  11.669  10.451  1.4861  0.2559 -0.6771
  207MOL0     H27895   7.701  11.515  10.541  5.4693 -0.6420 -0.2987
  207MOL0     H27896   7.784  11.694  10.229  0.9416 -1.9672 -3.2375
  207MOL0     H27897   8.044  11.722  10.076 -1.0998 -1.2817  0.0035
  207MOL0     H27898   8.141  11.774  10.210 -0.2356  0.4799  1.0406
  207MOL0     H27899   8.258  11.654  10.051 -1.5945  0.9427 -1.0394
  207MOL0     H27900   8.271  11.557  10.199  1.4320 -0.9405 -1.3546
  207MOL0     H27901   8.063  11.492   9.987 -0.2953 -1.4843 -0.0630
  207MOL0     H27902   8.118  11.397  10.131  1.2030 -3.2557 -1.7498
  207MOL0     H27903   8.272  11.473   9.890  1.6893 -0.4379  1.6298
  207MOL0     H27904   8.200  11.321   9.911 -0.4428 -0.3621  0.3624
  207MOL0     H27905   8.576  11.325  10.142  2.5618  0.6741  0.8503
  207MOL0     H27906   8.793  11.275  10.037  1.2934 -0.2764 -1.0361
  207MOL0     H27907   8.992  11.410   9.546 -0.6698 -0.8280 -2.2498
  207MOL0     H27908   9.178  11.377   9.406  0.7046 -0.4583  1.0731
  207MOL0     H27909   9.371  10.984   9.367  1.0625  0.1136 -0.4644
  207MOL0     H27910   9.299  11.028   9.207  0.5895  1.4325 -1.4895
  207MOL0     H27911   9.477  11.141   9.124  2.8252 -2.6352 -1.3655
  207MOL0     H27912   9.535  11.182   9.295 -2.1215  3.6178 -1.7930
  207MOL0     H27913   9.615  10.958   9.316 -2.2243  1.1005  0.3575
  207MOL0     H27914   9.556  10.910   9.159 -0.2099 -0.4886  1.1106
  207MOL0     H27915   9.771  11.116   9.184 -1.6327  0.6316 -0.1006
  207MOL0     H27916   9.704  11.053   9.036 -1.7340  0.3868  0.8702
  207MOL0     H27917   9.775  10.818   9.081  2.3863  0.3002  0.0339
  207MOL0     H27918   9.858  10.862   9.220  0.1859 -0.6715 -0.4410
  207MOL0     H27919   9.919  10.966   8.938  1.4258 -1.8890 -0.3655
  207MOL0     H27920   9.982  11.057   9.077 -0.4271  0.5832  0.7907
  207MOL0     H27921  10.061  10.769   9.007 -0.2932  0.7224 -2.2161
  207MOL0     H27922  10.104  10.860   9.147 -2.1030  1.2273  0.5057
  207MOL0     H27923  10.222  11.029   8.983  3.0624 -0.5572 -1.6541
  207MOL0     H27924  10.264  10.866   8.941  2.0358  1.4051  3.4836
  207MOL0     H27925   9.157  10.958   9.450  1.4308  0.3484  1.0387
  207MOL0     H27926   8.927  10.997   9.562 -0.4316  0.2099 -0.9427
  207MOL0     H27927   8.587  11.224   9.661 -3.7734  1.0232 -0.7990
  207MOL0     H27928   8.374  11.299   9.767 -1.1633 -0.6603  0.3266
  207MOL0     H27929   6.740  11.213  10.560 -0.8179 -0.4016  0.6469
  207MOL0     H27930   6.521  11.099  10.520 -1.3725  1.5767  0.6360
  207MOL0     H27931   6.344  10.704  10.324 -0.8170  1.0977  0.8638
  207MOL0     H27932   6.120  10.589  10.312 -3.2646 -1.0268 -2.8748
  207MOL0     H27933   5.803  10.790  10.055 -0.1343 -0.1020 -0.2054
  207MOL0     H27934   5.753  10.760  10.228  0.3961  2.1301 -1.5352
  207MOL0     H27935   5.694  10.553  10.196 -0.3342  1.0340  0.4513
  207MOL0     H27936   5.772  10.534  10.033  3.3854  1.3116  1.3441
  207MOL0     H27937   5.596  10.677   9.943  0.4428 -0.6473 -0.8383
  207MOL0     H27938   5.528  10.709  10.110 -0.6698 -1.4246  0.3552
  207MOL0     H27939   5.471  10.482  10.138  0.3809  0.0377  0.2521
  207MOL0     H27940   5.377  10.554  10.000  0.6888  0.7061 -0.9596
  207MOL0     H27941   5.589  10.268   9.785  1.5859 -0.8718  1.4919
  207MOL0     H27942   5.973  10.918  10.090  0.8314  0.3992  0.2179
  207MOL0     H27943   6.092  11.101  10.039 -1.7724 -0.8850  1.7752
  207MOL0     H27944   6.158  11.132  10.205  1.5506 -1.7346  0.8826
  207MOL0     H27945   6.274  11.095  10.074  1.3788 -2.4132  1.5065
  208MOL0     O27946   2.432   4.089   3.425 -0.1423 -0.7153 -0.5889
  208MOL0     C27947   2.373   4.186   3.474 -0.4393  0.6888 -0.8835
  208MOL0     O27948   2.432   4.311   3.493  0.1650 -0.3549  0.1559
  208MOL0     C27949   2.567   4.336   3.469  0.7104  1.0131  0.2506
  208MOL0     C27950   2.630   4.413   3.573  0.1174  0.5044  0.0137
  208MOL0     C27951   2.761   4.459   3.559  0.3254 -0.1479  0.7588
  208MOL0     C27952   2.836   4.421   3.449  0.1160 -0.0099 -0.4222
  208MOL0     O27953   2.976   4.438   3.444 -0.1014 -0.7845 -0.1437
  208MOL0     C27954   3.045   4.519   3.533  0.2241  0.5229 -0.4681
  208MOL0     C27955   3.167   4.574   3.470 -0.2667 -0.2731 -0.5500
  208MOL0     C27956   3.289   4.481   3.448 -0.3938  0.0851  0.0419
  208MOL0     C27957   3.335   4.390   3.567 -0.7342  0.0893  0.3375
  208MOL0     C27958   3.461   4.320   3.529 -0.2346 -0.4936 -0.1928
  208MOL0     C27959   3.583   4.413   3.561 -0.0885 -1.0816  0.1028
  208MOL0     C27960   3.717   4.351   3.528  0.2964  0.4900 -0.1249
  208MOL0     C27961   3.838   4.427   3.584  0.4853  0.6030  0.2533
  208MOL0     N27962   3.845   4.463   3.726  0.3357 -0.5709  0.8458
  208MOL0     C27963   3.916   4.572   3.771 -0.4443 -0.0187 -0.5857
  208MOL0     C27964   3.936   4.543   3.906 -0.1428 -0.3287  0.0403
  208MOL0     C27965   3.992   4.645   4.007 -0.5132 -0.3007  0.8072
  208MOL0     C27966   4.142   4.633   4.025  0.2484 -0.1493  0.1360
  208MOL0     C27967   4.201   4.498   4.065  0.2519  0.4430  0.4135
  208MOL0     C27968   4.353   4.498   4.046 -0.0072  0.7968 -0.0028
  208MOL0     O27969   4.413   4.588   4.140 -0.2205 -0.0341  0.3438
  208MOL0     C27970   4.551   4.603   4.145 -0.2531 -0.3991  0.2064
  208MOL0     C27971   4.641   4.528   4.071 -0.2731  0.4637 -0.3550
  208MOL0     C27972   4.778   4.571   4.068  0.3232  0.0082  0.2444
  208MOL0     C27973   4.821   4.682   4.143 -0.0622 -0.2186  0.5655
  208MOL0     C27974   4.960   4.724   4.137 -0.6345 -0.3267  0.7836
  208MOL0     O27975   4.991   4.846   4.195  0.1705  0.3904  0.6393
  208MOL0     C27976   5.122   4.899   4.162  0.6567  1.1933  0.1402
  208MOL0     C27977   5.122   4.998   4.063  0.3720  0.1435  0.0024
  208MOL0     C27978   5.236   5.046   4.000 -0.8069 -0.3124 -0.6275
  208MOL0     C27979   5.362   4.996   4.042 -0.9268 -0.4934 -0.5449
  208MOL0     O27980   5.473   5.069   3.998 -1.2092 -0.3800  0.0924
  208MOL0     C27981   5.602   4.998   3.997 -0.5002 -0.0065 -0.3215
  208MOL0     C27982   5.718   5.060   3.912 -0.1177  0.2488 -0.6615
  208MOL0     C27983   5.861   5.052   3.964 -0.6368  0.1602  0.1393
  208MOL0     C27984   5.969   5.080   3.853  0.1755 -0.8973 -0.4437
  208MOL0     C27985   6.099   5.027   3.889 -0.6867 -1.0386 -0.1152
  208MOL0     C27986   6.214   5.037   3.791  0.3685 -0.0437  0.1767
  208MOL0     C27987   6.346   4.999   3.845 -0.9930  1.0119 -0.6437
  208MOL0     C27988   6.411   5.106   3.945 -0.9912 -0.5503  0.2778
  208MOL0    Cl27989   6.454   5.262   3.857  0.2209 -0.1254 -0.1538
  208MOL0     C27990   5.363   4.890   4.142  0.9477 -0.8192  0.1214
  208MOL0     C27991   5.245   4.836   4.198  0.4769  0.3058 -0.0016
  208MOL0     O27992   5.040   4.643   4.087  0.0101 -0.0095 -0.2351
  208MOL0     C27993   4.732   4.766   4.208  0.7762  0.9631 -1.2670
  208MOL0     C27994   4.598   4.721   4.212 -0.8610  0.0469  0.1846
  208MOL0     N27995   3.856   4.438   3.945  0.0650 -0.4389 -0.1322
  208MOL0     N27996   3.824   4.375   3.832  0.0851  0.5080  0.3265
  208MOL0     C27997   2.776   4.345   3.345 -1.0982  0.0127 -1.3661
  208MOL0     C27998   2.644   4.303   3.360 -0.5038 -0.3179  1.2062
  208MOL0     C27999   2.230   4.161   3.500 -0.7029  0.0899  0.0997
  208MOL0     C28000   2.153   4.279   3.495  0.9080 -0.0823 -0.6137
  208MOL0     C28001   2.015   4.270   3.523 -0.6294  0.2429  0.1854
  208MOL0     C28002   1.961   4.146   3.562 -0.3675  0.8993  0.7383
  208MOL0     O28003   1.824   4.124   3.574 -0.4611 -0.1385 -0.1254
  208MOL0     C28004   1.734   4.218   3.508 -0.9725  0.4531 -0.9085
  208MOL0     C28005   1.591   4.177   3.540  0.2583 -0.5649 -0.3459
  208MOL0     C28006   1.496   4.209   3.421  0.6430 -0.6453 -0.5836
  208MOL0     C28007   1.357   4.154   3.457  0.0127  0.8296 -1.3439
  208MOL0     C28008   1.257   4.199   3.362  0.7495 -0.0824  0.3724
  208MOL0     C28009   1.178   4.235   3.279 -0.1156 -0.4378 -0.1838
  208MOL0     C28010   2.043   4.031   3.561  0.2896  0.1561  0.8926
  208MOL0     C28011   2.181   4.038   3.536  1.2503  0.2862  0.6457
  208MOL0     C28012   2.254   3.903   3.543 -0.5004 -0.3002  0.5153
  208MOL0     H28013   2.585   4.432   3.669  1.5605 -1.5592  1.1773
  208MOL0     H28014   2.807   4.513   3.642  0.4933 -0.8380  1.1242
  208MOL0     H28015   2.986   4.601   3.577 -1.8397 -0.0913 -1.9619
  208MOL0     H28016   3.075   4.470   3.626  2.5796  2.6532  0.0096
  208MOL0     H28017   3.196   4.656   3.537  0.1460  1.6438 -2.9520
  208MOL0     H28018   3.135   4.613   3.374  0.6324 -0.2321 -0.8404
  208MOL0     H28019   3.372   4.550   3.436 -1.1394  1.5632  2.5306
  208MOL0     H28020   3.283   4.426   3.353  0.0072  0.5236 -0.2397
  208MOL0     H28021   3.353   4.449   3.657  0.1216  2.7119 -1.4413
  208MOL0     H28022   3.251   4.320   3.578 -1.6312  1.2458  1.1063
  208MOL0     H28023   3.477   4.234   3.594  0.1258 -0.4193 -0.1788
  208MOL0     H28024   3.467   4.280   3.428  0.7969 -1.5607  0.2729
  208MOL0     H28025   3.579   4.507   3.506  2.2502  1.4235  3.7090
  208MOL0     H28026   3.568   4.436   3.667  0.2849 -1.7108  0.2988
  208MOL0     H28027   3.735   4.348   3.420 -4.4390 -1.2186 -1.0619
  208MOL0     H28028   3.722   4.249   3.567  2.6176 -0.7422 -3.2048
  208MOL0     H28029   3.925   4.363   3.567  0.4108  0.8206 -1.0137
  208MOL0     H28030   3.862   4.518   3.527 -1.6411  1.2867  0.3503
  208MOL0     H28031   3.950   4.657   3.712 -1.3055  1.8278  1.4265
  208MOL0     H28032   3.976   4.752   3.994 -0.8652 -0.3848  0.5397
  208MOL0     H28033   3.937   4.627   4.099 -2.2491 -1.4064 -0.3896
  208MOL0     H28034   4.189   4.672   3.935 -0.8771  1.9459  0.4086
  208MOL0     H28035   4.161   4.703   4.107  1.4840 -0.3910  0.0744
  208MOL0     H28036   4.156   4.412   4.015 -4.5185  2.2649  1.0326
  208MOL0     H28037   4.181   4.489   4.172  1.3614  0.3119  0.6191
  208MOL0     H28038   4.378   4.515   3.941  2.2924 -4.5773 -0.6557
  208MOL0     H28039   4.384   4.395   4.060 -1.6578  0.6686  4.1532
  208MOL0     H28040   4.605   4.444   4.014  2.4615 -1.1397  0.0685
  208MOL0     H28041   4.855   4.525   4.007 -1.2389 -0.5350 -1.4514
  208MOL0     H28042   5.028   5.029   4.018  1.6139  1.1354 -2.0693
  208MOL0     H28043   5.230   5.126   3.927 -1.2905  1.5227  1.3240
  208MOL0     H28044   5.631   4.977   4.100 -0.6516  2.0122  0.1698
  208MOL0     H28045   5.582   4.899   3.955  1.1294  1.2547 -4.5432
  208MOL0     H28046   5.720   5.007   3.817  0.0761 -1.7484  0.3930
  208MOL0     H28047   5.698   5.166   3.897 -0.4859  0.4095  0.7465
  208MOL0     H28048   5.888   5.120   4.046  1.5477 -0.3189 -0.1309
  208MOL0     H28049   5.876   4.948   3.995 -1.7924  0.3989  1.6204
  208MOL0     H28050   5.980   5.188   3.841 -0.1542 -0.6786  0.9554
  208MOL0     H28051   5.937   5.051   3.753  0.6049  1.5405 -1.3529
  208MOL0     H28052   6.075   4.922   3.907 -2.6272 -0.5417  0.4600
  208MOL0     H28053   6.114   5.083   3.982 -0.6601  2.5780 -2.0947
  208MOL0     H28054   6.199   4.968   3.707 -1.5292  1.6402 -0.9602
  208MOL0     H28055   6.205   5.136   3.744 -2.7830 -0.1323  0.4155
  208MOL0     H28056   6.402   4.983   3.753  1.2274  2.1731  0.4236
  208MOL0     H28057   6.339   4.906   3.902  0.5396  1.2156 -0.0739
  208MOL0     H28058   6.352   5.127   4.035 -3.7162 -2.1760 -0.9793
  208MOL0     H28059   6.503   5.062   3.984 -1.3186 -1.3926  0.1144
  208MOL0     H28060   5.451   4.833   4.171  1.5145 -0.3491 -0.6312
  208MOL0     H28061   5.236   4.739   4.246 -2.7669 -0.1205 -1.2107
  208MOL0     H28062   4.755   4.856   4.264 -2.0568  0.3733  1.1218
  208MOL0     H28063   4.530   4.789   4.262 -0.2102  1.1417 -0.3921
  208MOL0     H28064   2.837   4.327   3.257  0.4985 -2.2568  0.0839
  208MOL0     H28065   2.606   4.243   3.278  1.4921  0.7097 -0.5610
  208MOL0     H28066   2.201   4.375   3.478  0.8226  0.1879  0.6258
  208MOL0     H28067   1.956   4.361   3.532 -0.3183  0.3522  1.3048
  208MOL0     H28068   1.749   4.213   3.400  2.3144  3.1408 -0.7442
  208MOL0     H28069   1.748   4.324   3.532  2.4925 -0.2028  0.5100
  208MOL0     H28070   1.566   4.223   3.636  1.5148  4.1782 -2.0418
  208MOL0     H28071   1.597   4.067   3.543  3.7294 -0.4637  0.3022
  208MOL0     H28072   1.523   4.169   3.323  0.9052 -1.4869 -0.1742
  208MOL0     H28073   1.493   4.318   3.415  3.7417 -0.5478 -2.6291
  208MOL0     H28074   1.357   4.045   3.463 -0.2737  0.7855 -1.9944
  208MOL0     H28075   1.323   4.187   3.555 -2.0898 -5.2714  0.3861
  208MOL0     H28076   1.109   4.284   3.213 -0.0809 -0.4377 -0.2201
  208MOL0     H28077   1.994   3.935   3.575 -4.1509  2.2186  1.0807
  208MOL0     H28078   2.356   3.904   3.581 -0.9087 -0.2078  1.6405
  208MOL0     H28079   2.199   3.823   3.594 -2.2280 -0.5739 -1.5974
  208MOL0     H28080   2.255   3.860   3.442  0.1855  0.7335  0.0672
  209MOL0     O28081   2.060   9.235   5.971  0.5628  0.3988 -0.5742
  209MOL0     C28082   1.958   9.236   5.891 -0.3156  1.3496 -0.4234
  209MOL0     O28083   1.974   9.230   5.760 -0.0753  0.0005  0.3166
  209MOL0     C28084   2.094   9.260   5.703  0.0455  0.8607  0.7313
  209MOL0     C28085   2.181   9.165   5.649  0.1084  0.2809  0.5449
  209MOL0     C28086   2.299   9.196   5.581 -1.2294 -0.1611  0.7829
  209MOL0     C28087   2.344   9.329   5.569 -0.1814 -0.9530 -0.6734
  209MOL0     O28088   2.462   9.348   5.515  0.2206  0.1854  0.1982
  209MOL0     C28089   2.562   9.408   5.598  1.2650 -0.2081  0.7429
  209MOL0     C28090   2.696   9.385   5.526  0.4148 -0.7495 -0.3092
  209MOL0     C28091   2.743   9.500   5.434  0.1389 -0.1106  0.0460
  209MOL0     C28092   2.839   9.461   5.333  0.1661 -0.2710 -0.7085
  209MOL0     C28093   2.875   9.572   5.228  0.5516  0.6062  0.0356
  209MOL0     C28094   2.973   9.528   5.115  0.2344 -0.3817 -0.9649
  209MOL0     C28095   3.043   9.644   5.049 -0.0223 -0.0221  0.7586
  209MOL0     C28096   3.149   9.698   5.150 -0.3755 -0.5542 -0.0274
  209MOL0     N28097   3.262   9.775   5.088  0.3362  0.2428  0.7334
  209MOL0     C28098   3.247   9.855   4.976 -0.4824 -0.5272  0.3033
  209MOL0     C28099   3.369   9.920   4.961 -0.4629 -0.1131 -0.5298
  209MOL0     C28100   3.393  10.020   4.850  0.0240  0.4314  0.9867
  209MOL0     C28101   3.281  10.129   4.836  0.5645 -0.1489 -1.1069
  209MOL0     C28102   3.274  10.225   4.958 -0.0677  0.5988  0.2749
  209MOL0     C28103   3.406  10.306   4.977  0.2186  0.3598 -0.8924
  209MOL0     O28104   3.411  10.404   4.871 -0.0581 -0.3327  1.0304
  209MOL0     C28105   3.540  10.421   4.824 -0.4820  0.5747  0.3497
  209MOL0     C28106   3.569  10.374   4.691 -1.2352  0.4626 -0.3602
  209MOL0     C28107   3.703  10.379   4.648  0.6500 -0.4725  0.1857
  209MOL0     C28108   3.794  10.453   4.717  0.0691  0.4744  0.0899
  209MOL0     C28109   3.927  10.478   4.658 -0.5680  0.8387  0.3313
  209MOL0     O28110   3.941  10.440   4.524 -0.4143  0.3990  0.4055
  209MOL0     C28111   4.064  10.425   4.460 -0.7386 -0.1303 -0.4578
  209MOL0     C28112   4.200  10.461   4.504  0.2897  0.6559 -0.1229
  209MOL0     C28113   4.310  10.434   4.427 -1.1562 -0.2223 -0.1710
  209MOL0     C28114   4.287  10.361   4.306 -1.8319  0.4515 -0.4118
  209MOL0     O28115   4.399  10.318   4.239  0.3158 -0.7142  0.4961
  209MOL0     C28116   4.390  10.233   4.124 -0.1153  0.1319 -0.3022
  209MOL0     C28117   4.527  10.244   4.075 -1.0688  1.1238  0.1494
  209MOL0     C28118   4.617  10.135   4.137  0.8884  0.0624 -0.0239
  209MOL0     C28119   4.743  10.112   4.051 -0.1947  0.5134 -0.1188
  209MOL0     C28120   4.848  10.046   4.129 -0.0216  0.2990 -0.4544
  209MOL0     C28121   4.968  10.036   4.030  0.1310  0.2478  0.4131
  209MOL0     C28122   5.085   9.953   4.077  0.2521 -0.5572  0.0931
  209MOL0     C28123   5.145  10.004   4.201 -0.4690 -0.1827 -0.1865
  209MOL0    Cl28124   5.201  10.174   4.210 -0.1269 -0.1911  0.2491
  209MOL0     C28125   4.165  10.320   4.269 -0.2014  0.2780 -1.0077
  209MOL0     C28126   4.051  10.362   4.337  0.1300 -0.2098  0.4076
  209MOL0     O28127   4.012  10.520   4.730 -0.5825 -0.2249  0.9840
  209MOL0     C28128   3.764  10.510   4.845 -0.2202 -0.2645  0.3730
  209MOL0     C28129   3.643  10.482   4.901  0.1784  0.0614 -0.1145
  209MOL0     N28130   3.444   9.887   5.069 -0.5164 -0.3826 -0.9748
  209MOL0     N28131   3.385   9.791   5.143 -0.2199  0.0415 -0.1868
  209MOL0     C28132   2.263   9.432   5.617 -0.4113  0.1993  0.2540
  209MOL0     C28133   2.136   9.394   5.677  0.4136 -0.0069 -0.3031
  209MOL0     C28134   1.832   9.191   5.951 -0.5379 -0.8582  0.6723
  209MOL0     C28135   1.816   9.155   6.083 -0.1380 -0.5721 -0.2946
  209MOL0     C28136   1.698   9.104   6.129  0.5468  0.2523  0.5894
  209MOL0     C28137   1.581   9.112   6.057 -0.4628 -0.6310  0.9705
  209MOL0     O28138   1.459   9.087   6.121  0.2815 -0.5131 -0.0246
  209MOL0     C28139   1.331   9.073   6.049 -0.1250  0.5883 -0.0789
  209MOL0     C28140   1.303   8.923   6.001 -0.8480 -0.5405  0.2074
  209MOL0     C28141   1.225   8.913   5.875  0.0664  0.5712 -0.5162
  209MOL0     C28142   1.078   8.933   5.895 -0.2935  0.0922 -0.3131
  209MOL0     C28143   1.015   8.982   5.767  0.2151 -0.4743  0.4867
  209MOL0     C28144   0.962   8.998   5.661 -0.7227 -0.1686  0.4717
  209MOL0     C28145   1.588   9.154   5.923 -0.1657  0.2250  0.0784
  209MOL0     C28146   1.713   9.188   5.869  0.5424  0.2741 -0.6036
  209MOL0     C28147   1.708   9.242   5.730  0.4873 -0.0778  0.8209
  209MOL0     H28148   2.166   9.057   5.648 -0.4154  0.3548 -0.3784
  209MOL0     H28149   2.354   9.120   5.525 -1.3263  1.1588 -1.2157
  209MOL0     H28150   2.553   9.517   5.604 -0.2775  0.0655 -3.2798
  209MOL0     H28151   2.564   9.363   5.697 -0.6094  1.7415  1.7451
  209MOL0     H28152   2.688   9.293   5.469 -2.7968 -0.0129 -1.2075
  209MOL0     H28153   2.768   9.370   5.608 -2.1819 -0.0281  2.2706
  209MOL0     H28154   2.788   9.575   5.500  1.5975 -1.1340  0.2653
  209MOL0     H28155   2.649   9.545   5.402 -2.4282 -2.3090  3.7629
  209MOL0     H28156   2.932   9.440   5.386  0.7508  2.7794 -0.3249
  209MOL0     H28157   2.798   9.381   5.272 -1.4698  0.6939 -0.9441
  209MOL0     H28158   2.776   9.612   5.204  0.8914  0.6446 -1.4203
  209MOL0     H28159   2.918   9.661   5.274  2.5262  0.7747 -1.9194
  209MOL0     H28160   3.048   9.456   5.150  0.7391  0.5690 -0.0182
  209MOL0     H28161   2.918   9.475   5.037 -0.1591  1.1058 -1.7404
  209MOL0     H28162   2.969   9.719   5.019 -3.1222 -2.3815  1.9856
  209MOL0     H28163   3.110   9.613   4.968 -0.8402 -2.8772  1.0777
  209MOL0     H28164   3.098   9.761   5.224 -0.9242  0.0428 -0.8990
  209MOL0     H28165   3.194   9.611   5.199 -0.6664 -1.3579 -1.1337
  209MOL0     H28166   3.164   9.852   4.907  1.4300 -0.4435 -2.1451
  209MOL0     H28167   3.490  10.069   4.865 -0.0812  0.9465  0.0754
  209MOL0     H28168   3.396   9.959   4.759  4.0814  0.8786  0.6335
  209MOL0     H28169   3.293  10.188   4.745 -2.1827  0.8827 -0.9054
  209MOL0     H28170   3.181  10.085   4.829  0.4152 -0.2691  1.0648
  209MOL0     H28171   3.264  10.154   5.040 -0.3852  2.4702  1.9276
  209MOL0     H28172   3.195  10.301   4.953  1.1321  1.9051  0.7428
  209MOL0     H28173   3.493  10.239   4.975 -0.6376 -0.9356  1.5797
  209MOL0     H28174   3.398  10.357   5.073  0.9081  0.0092 -0.6375
  209MOL0     H28175   3.491  10.345   4.622 -0.5630 -0.5067 -0.7302
  209MOL0     H28176   3.724  10.338   4.550 -0.8650  2.3310 -1.4529
  209MOL0     H28177   4.215  10.514   4.597 -2.3249  2.7602 -0.7389
  209MOL0     H28178   4.410  10.458   4.462 -1.1304  1.9835 -1.5510
  209MOL0     H28179   4.355  10.131   4.144 -1.2266  0.2570 -1.4347
  209MOL0     H28180   4.317  10.263   4.048 -1.4286 -0.6952  0.5983
  209MOL0     H28181   4.530  10.214   3.970  1.4901  0.9068  0.2088
  209MOL0     H28182   4.574  10.343   4.080  5.1065 -1.4334  1.1064
  209MOL0     H28183   4.641  10.165   4.240 -2.6097  0.8284  0.6703
  209MOL0     H28184   4.555  10.045   4.151  2.7093 -1.5652 -1.7368
  209MOL0     H28185   4.772  10.211   4.016  0.1803  0.5303  0.2346
  209MOL0     H28186   4.719  10.054   3.961 -0.5874  0.6083 -0.0764
  209MOL0     H28187   4.821   9.948   4.168  3.3412 -0.6269 -0.1384
  209MOL0     H28188   4.877  10.110   4.213 -1.1454 -0.2979  0.4113
  209MOL0     H28189   4.929   9.979   3.946  1.8107 -1.3263  0.6555
  209MOL0     H28190   4.989  10.134   3.986  1.2565  0.3926  1.2322
  209MOL0     H28191   5.159   9.948   3.996 -0.4970  0.1859 -0.6598
  209MOL0     H28192   5.046   9.853   4.098  2.1512 -1.3242  0.1964
  209MOL0     H28193   5.066   9.996   4.276 -0.7606 -0.0225 -0.4748
  209MOL0     H28194   5.231   9.941   4.225 -1.0408 -0.9220 -0.0554
  209MOL0     H28195   4.154  10.265   4.176  0.5522 -0.5589 -0.6223
  209MOL0     H28196   3.951  10.328   4.312  0.5865 -1.2739 -0.0496
  209MOL0     H28197   3.838  10.565   4.903  2.5125 -0.4104 -2.7011
  209MOL0     H28198   3.618  10.527   4.996  1.4463 -1.6873  1.1374
  209MOL0     H28199   2.275   9.539   5.606 -1.3322  0.3275  0.4409
  209MOL0     H28200   2.061   9.467   5.708 -1.5123 -2.4299  1.0796
  209MOL0     H28201   1.898   9.161   6.155  0.6181  3.7088 -1.2121
  209MOL0     H28202   1.684   9.074   6.232 -1.6773  2.7917  1.1292
  209MOL0     H28203   1.339   9.140   5.963  2.1545 -0.0104 -0.4007
  209MOL0     H28204   1.254   9.096   6.123  0.6068 -0.9115  1.2165
  209MOL0     H28205   1.266   8.855   6.078 -1.3934 -1.1280 -0.5499
  209MOL0     H28206   1.400   8.893   5.960 -1.5680  0.8737 -2.8526
  209MOL0     H28207   1.241   8.820   5.821  1.3820 -0.1180  0.9848
  209MOL0     H28208   1.256   8.990   5.804  0.0128 -0.9741 -2.2689
  209MOL0     H28209   1.025   8.841   5.921 -3.6961  1.4532 -1.7161
  209MOL0     H28210   1.078   9.004   5.978 -0.1562 -1.7004  1.2863
  209MOL0     H28211   0.937   9.007   5.558  1.2300 -1.8190 -0.2081
  209MOL0     H28212   1.500   9.161   5.859 -1.5657 -0.2511  1.8689
  209MOL0     H28213   1.609   9.283   5.711  0.0478 -0.6126  1.9203
  209MOL0     H28214   1.767   9.333   5.711 -3.3691  2.3869 -0.4545
  209MOL0     H28215   1.741   9.176   5.649 -0.3448  2.7154 -1.9960
  210MOL0     O28216  10.405   6.331   4.355 -0.0337 -0.1921  0.5214
  210MOL0     C28217  10.408   6.419   4.438  0.1795  0.4551 -0.5708
  210MOL0     O28218  10.518   6.498   4.470  0.2122  0.9882 -0.1349
  210MOL0     C28219  10.645   6.462   4.419 -0.1789  0.3222  0.0394
  210MOL0     C28220  10.690   6.333   4.363  0.1047 -0.1711  0.1345
  210MOL0     C28221  10.822   6.328   4.312  0.4737  0.7533  0.4461
  210MOL0     C28222  10.906   6.437   4.318  0.7683  0.7208 -0.7573
  210MOL0     O28223  11.031   6.426   4.284  0.6270  0.1172 -0.7664
  210MOL0     C28224  11.117   6.361   4.379  0.8312 -0.2128  0.1831
  210MOL0     C28225  11.126   6.208   4.340 -0.4290 -0.4326 -0.1335
  210MOL0     C28226  11.192   6.180   4.203  0.0498  0.0366  0.5158
  210MOL0     C28227  11.171   6.032   4.159 -0.2132  0.4242  0.6059
  210MOL0     C28228  11.276   5.945   4.236 -1.0027  0.3920 -0.0442
  210MOL0     C28229  11.258   5.790   4.208  0.0911  0.7956 -0.0299
  210MOL0     C28230  11.345   5.715   4.308  0.8201  0.0584  0.7985
  210MOL0     C28231  11.359   5.565   4.266 -0.5203 -0.4536 -0.3411
  210MOL0     N28232  11.421   5.548   4.132  0.1990 -0.1199 -0.0860
  210MOL0     C28233  11.547   5.582   4.097  0.1040 -0.2659 -0.1067
  210MOL0     C28234  11.571   5.546   3.969 -0.0088  0.4823 -0.7154
  210MOL0     C28235  11.688   5.569   3.882 -0.9098 -0.1900  0.1685
  210MOL0     C28236  11.827   5.531   3.942  0.0023 -0.5776  0.3776
  210MOL0     C28237  11.855   5.379   3.944 -0.0801  0.4707 -0.4871
  210MOL0     C28238  11.988   5.342   4.024  0.9618 -0.0906 -0.5144
  210MOL0     O28239  11.989   5.388   4.155  0.0656  0.3130 -0.1509
  210MOL0     C28240  11.892   5.361   4.245  0.4377  0.5125 -0.6598
  210MOL0     C28241  11.813   5.247   4.241 -0.1909  0.3426  0.2000
  210MOL0     C28242  11.699   5.242   4.327  0.4218  0.3795 -0.6023
  210MOL0     C28243  11.668   5.345   4.410 -0.4401  0.4876 -0.2546
  210MOL0     C28244  11.554   5.330   4.501 -0.3844  0.2161 -0.5495
  210MOL0     O28245  11.473   5.217   4.495 -0.3001 -0.4668  0.1556
  210MOL0     C28246  11.380   5.194   4.592 -0.2134  0.0816 -0.6704
  210MOL0     C28247  11.245   5.234   4.579 -0.0402 -0.5129  0.7510
  210MOL0     C28248  11.151   5.222   4.681 -0.5507 -0.3398 -1.0809
  210MOL0     C28249  11.198   5.150   4.794  0.1223  1.0871  0.4664
  210MOL0     O28250  11.115   5.121   4.899 -0.6696 -0.2455  0.5933
  210MOL0     C28251  10.972   5.128   4.883 -0.4188  0.4550  0.3714
  210MOL0     C28252  10.937   5.273   4.918  1.1993  0.3132 -0.5486
  210MOL0     C28253  10.817   5.333   4.840  0.2104  0.3580  0.8414
  210MOL0     C28254  10.677   5.304   4.903 -0.5594  0.0119  0.2313
  210MOL0     C28255  10.571   5.344   4.806  1.3175 -0.3959  0.4068
  210MOL0     C28256  10.431   5.328   4.867 -0.7892 -0.7706 -0.3544
  210MOL0     C28257  10.345   5.352   4.740  0.9231  0.1783 -0.0584
  210MOL0     C28258  10.202   5.370   4.786 -0.7217  0.2012 -0.0651
  210MOL0    Cl28259  10.152   5.233   4.894 -0.2989  0.2956  0.3371
  210MOL0     C28260  11.328   5.099   4.812  0.1468  1.2032 -0.0260
  210MOL0     C28261  11.423   5.123   4.711 -0.0519 -1.1777  0.2867
  210MOL0     O28262  11.532   5.421   4.579 -0.4747  0.0854  1.2858
  210MOL0     C28263  11.759   5.450   4.421  0.4825  1.0416 -0.4673
  210MOL0     C28264  11.865   5.455   4.336  0.2691  0.3129 -0.2405
  210MOL0     N28265  11.450   5.488   3.922 -0.7571 -0.1718 -0.1830
  210MOL0     N28266  11.370   5.486   4.024  0.3533 -0.6754  0.0594
  210MOL0     C28267  10.867   6.560   4.378  0.4980  0.8478 -0.2526
  210MOL0     C28268  10.734   6.566   4.418  0.7277 -1.0967 -0.5009
  210MOL0     C28269  10.284   6.455   4.523 -0.0681 -1.1197  0.4745
  210MOL0     C28270  10.305   6.537   4.634  0.0117 -0.5571 -0.2301
  210MOL0     C28271  10.201   6.578   4.714  0.8563 -0.0507 -0.6823
  210MOL0     C28272  10.073   6.523   4.698 -1.0020 -0.0350 -0.1029
  210MOL0     O28273   9.975   6.553   4.777 -0.7617 -0.3972 -1.0163
  210MOL0     C28274   9.917   6.680   4.749 -0.1579 -0.1684 -0.4010
  210MOL0     C28275   9.776   6.666   4.697  0.1324 -0.4095 -0.3793
  210MOL0     C28276   9.680   6.598   4.806  0.3653  0.0881  0.0258
  210MOL0     C28277   9.663   6.446   4.769  0.3744  0.5292  0.7891
  210MOL0     C28278   9.577   6.424   4.643  0.1486 -0.2587 -0.4915
  210MOL0     C28279   9.511   6.400   4.545  0.0834  0.0788 -0.3206
  210MOL0     C28280  10.044   6.450   4.579  0.7817  0.1557 -0.0175
  210MOL0     C28281  10.146   6.411   4.489 -0.9794  0.8770 -0.1405
  210MOL0     C28282  10.099   6.354   4.360  0.0607 -0.2443 -0.5255
  210MOL0     H28283  10.629   6.244   4.351  1.4059 -1.2201  0.9986
  210MOL0     H28284  10.857   6.250   4.244 -1.7429  1.9706 -2.3090
  210MOL0     H28285  11.211   6.417   4.379  0.0241  1.1999 -1.1254
  210MOL0     H28286  11.080   6.372   4.481  2.0130  2.5728  0.4117
  210MOL0     H28287  11.025   6.165   4.337 -0.7863  0.4501 -2.1622
  210MOL0     H28288  11.193   6.166   4.415  0.6764  3.9008  1.5938
  210MOL0     H28289  11.297   6.207   4.201 -0.8845  4.4629 -1.7243
  210MOL0     H28290  11.138   6.231   4.123 -0.2564 -0.7319  0.2226
  210MOL0     H28291  11.068   6.000   4.170 -0.0751  0.2869  1.5897
  210MOL0     H28292  11.193   6.025   4.052 -2.9706 -1.3598  0.0628
  210MOL0     H28293  11.376   5.981   4.210 -1.2365  0.0130 -1.5485
  210MOL0     H28294  11.270   5.960   4.345  0.4811  0.6610  0.0115
  210MOL0     H28295  11.154   5.767   4.234 -0.1542  2.7182  0.8181
  210MOL0     H28296  11.282   5.772   4.102 -2.8930  0.1802 -0.6938
  210MOL0     H28297  11.306   5.728   4.409  1.7973  2.1793  0.9609
  210MOL0     H28298  11.444   5.762   4.308  1.1818 -0.6433 -0.6685
  210MOL0     H28299  11.412   5.506   4.341 -1.9347 -3.4657 -1.5062
  210MOL0     H28300  11.262   5.513   4.257 -0.5256 -1.3458  3.4765
  210MOL0     H28301  11.625   5.629   4.156  0.8206 -0.5028 -0.8499
  210MOL0     H28302  11.670   5.529   3.782  0.7705  1.7306 -0.9618
  210MOL0     H28303  11.698   5.677   3.871 -0.0803 -0.3887 -1.2486
  210MOL0     H28304  11.899   5.573   3.871  0.1653 -0.9023  0.3468
  210MOL0     H28305  11.846   5.580   4.039  1.4405 -0.9893  0.3287
  210MOL0     H28306  11.860   5.348   3.839 -2.2725  6.4748 -2.7986
  210MOL0     H28307  11.770   5.325   3.988 -0.0252  1.0061  0.2901
  210MOL0     H28308  12.071   5.392   3.972  1.8216  3.2707  3.5598
  210MOL0     H28309  12.006   5.234   4.026 -1.5012 -0.7522 -4.2365
  210MOL0     H28310  11.838   5.173   4.166 -0.9255  0.2660  0.0285
  210MOL0     H28311  11.638   5.152   4.322  3.6792 -2.0098 -0.5405
  210MOL0     H28312  11.228   5.292   4.489  0.7971  0.9761  1.5065
  210MOL0     H28313  11.051   5.262   4.672  0.2323  1.4659 -2.5222
  210MOL0     H28314  10.934   5.094   4.787  0.7378 -1.7228  0.6340
  210MOL0     H28315  10.912   5.075   4.958  2.1557 -2.0840  0.8107
  210MOL0     H28316  10.917   5.271   5.025  1.5733 -4.9666 -0.3361
  210MOL0     H28317  11.021   5.342   4.904  0.1753  1.0637 -4.1369
  210MOL0     H28318  10.829   5.441   4.833  3.3672  0.0239 -0.8429
  210MOL0     H28319  10.818   5.300   4.735 -1.4476 -1.4689  1.3417
  210MOL0     H28320  10.663   5.358   4.997  1.6166 -0.5083  0.9130
  210MOL0     H28321  10.675   5.198   4.932  2.3314  0.8397  4.3745
  210MOL0     H28322  10.587   5.263   4.735  3.0548 -2.4173  2.9136
  210MOL0     H28323  10.600   5.435   4.753 -0.2586 -1.4387 -2.4304
  210MOL0     H28324  10.413   5.227   4.905  0.9177 -1.2973 -0.8699
  210MOL0     H28325  10.405   5.399   4.947 -4.6742 -0.1888 -1.9289
  210MOL0     H28326  10.345   5.264   4.675 -2.2640  2.4144 -3.4551
  210MOL0     H28327  10.368   5.441   4.681 -1.8305  1.4383  0.6311
  210MOL0     H28328  10.215   5.465   4.840  0.5753  2.1517 -3.4861
  210MOL0     H28329  10.143   5.386   4.695  3.3471 -1.1757 -3.2163
  210MOL0     H28330  11.358   5.037   4.896  0.9939 -2.3212 -2.7099
  210MOL0     H28331  11.526   5.093   4.721  0.7205  1.8755  3.2154
  210MOL0     H28332  11.737   5.530   4.491  0.7933 -2.5102  4.1587
  210MOL0     H28333  11.931   5.540   4.329  1.6794 -0.8841 -2.8094
  210MOL0     H28334  10.929   6.649   4.383 -1.5926  2.4124 -0.8125
  210MOL0     H28335  10.693   6.653   4.468 -0.8141 -1.3699 -1.2097
  210MOL0     H28336  10.402   6.578   4.659 -0.5057 -1.0302  2.9745
  210MOL0     H28337  10.215   6.646   4.797 -1.0484  2.2978 -2.1648
  210MOL0     H28338   9.973   6.739   4.674  0.9004  0.1359  0.6019
  210MOL0     H28339   9.920   6.731   4.846 -1.2421 -2.2709  0.7949
  210MOL0     H28340   9.765   6.603   4.608 -0.5824 -0.2401 -0.4196
  210MOL0     H28341   9.736   6.767   4.680 -2.3481 -0.7173  2.8390
  210MOL0     H28342   9.581   6.645   4.807 -0.3567 -1.2979 -1.6088
  210MOL0     H28343   9.724   6.598   4.906 -1.1634 -1.7097  0.7682
  210MOL0     H28344   9.764   6.413   4.744 -0.3310 -0.2086 -1.3095
  210MOL0     H28345   9.619   6.379   4.842 -3.0447  0.0172 -1.5079
  210MOL0     H28346   9.461   6.387   4.451  1.3065 -2.1617 -0.7532
  210MOL0     H28347   9.945   6.406   4.571 -0.5078  2.4627  2.0264
  210MOL0     H28348  10.042   6.436   4.315 -0.0616 -0.8981 -1.5965
  210MOL0     H28349  10.169   6.331   4.279  1.4326 -0.2301  0.6243
  210MOL0     H28350  10.046   6.261   4.381  1.8879 -0.8748  1.8179
  211MOL0     O28351   2.207   4.877   8.974  0.1348  0.0510 -0.2885
  211MOL0     C28352   2.142   4.984   8.962  0.1394  0.2039  0.4749
  211MOL0     O28353   2.137   5.057   8.850  0.0644 -0.6476  0.1411
  211MOL0     C28354   2.206   5.020   8.743  0.0644  0.3610 -0.4266
  211MOL0     C28355   2.341   4.970   8.745 -0.0397  0.2720 -0.5749
  211MOL0     C28356   2.404   4.943   8.625 -0.4898 -0.2204 -0.4793
  211MOL0     C28357   2.341   4.946   8.500  1.0705 -0.2523 -0.3553
  211MOL0     O28358   2.399   4.930   8.379 -0.2918 -0.0042  0.3552
  211MOL0     C28359   2.534   4.899   8.359  0.3262  0.9744  0.3930
  211MOL0     C28360   2.621   5.013   8.395  0.0336 -0.1079  0.5108
  211MOL0     C28361   2.765   4.974   8.425 -0.3052 -0.3058  0.8520
  211MOL0     C28362   2.840   5.101   8.430  0.0014 -0.0198  0.2115
  211MOL0     C28363   2.993   5.069   8.461  0.2318 -0.0416 -0.2805
  211MOL0     C28364   3.060   5.014   8.332 -0.4309  0.2062  0.3935
  211MOL0     C28365   3.213   4.992   8.342 -0.1718  0.2915 -0.5547
  211MOL0     C28366   3.288   5.099   8.259  0.4152 -0.1715 -0.9649
  211MOL0     N28367   3.436   5.080   8.266  0.4066  0.4898  0.4672
  211MOL0     C28368   3.516   4.960   8.241 -0.4478  0.1786  0.2379
  211MOL0     C28369   3.633   5.006   8.211 -0.9366 -0.3770 -0.6927
  211MOL0     C28370   3.756   4.919   8.186 -0.0402  0.2782 -0.8257
  211MOL0     C28371   3.750   4.867   8.042  0.4705 -0.3695 -0.5587
  211MOL0     C28372   3.865   4.764   8.012  0.2297  0.9041  0.1326
  211MOL0     C28373   4.008   4.829   8.016 -0.2491  0.4453  0.6612
  211MOL0     O28374   4.102   4.729   7.981  0.1266 -0.0725 -0.2274
  211MOL0     C28375   4.231   4.769   7.981 -0.9884  0.2167 -0.8543
  211MOL0     C28376   4.317   4.671   7.945  0.5077 -0.0392 -0.6762
  211MOL0     C28377   4.451   4.677   7.961  0.1428  0.2179  0.8783
  211MOL0     C28378   4.515   4.801   7.979  0.4827 -0.3040 -1.2037
  211MOL0     C28379   4.656   4.806   7.995  0.0428  0.1914 -0.5120
  211MOL0     O28380   4.733   4.693   7.961 -0.8970  0.3259  0.2173
  211MOL0     C28381   4.867   4.687   7.966  0.3775 -0.0762 -0.2620
  211MOL0     C28382   4.949   4.805   7.940 -0.7062 -0.5129 -0.5352
  211MOL0     C28383   5.089   4.799   7.970  1.3636  0.7456  0.5170
  211MOL0     C28384   5.143   4.678   8.009  0.4278  0.0695  0.1362
  211MOL0     O28385   5.278   4.658   8.036 -0.1909  0.2164 -0.6370
  211MOL0     C28386   5.368   4.766   8.029 -0.2351 -0.5742  0.5841
  211MOL0     C28387   5.518   4.731   8.058 -0.0096 -0.4587  0.3616
  211MOL0     C28388   5.594   4.863   8.096 -0.9471  0.0288 -0.2546
  211MOL0     C28389   5.751   4.840   8.120 -0.6694 -0.2523 -0.4047
  211MOL0     C28390   5.825   4.967   8.171  0.4270  0.4943 -0.5767
  211MOL0     C28391   5.972   4.933   8.177  0.3852  0.7353 -0.1650
  211MOL0     C28392   6.058   5.043   8.242  0.4728 -0.3938 -0.5816
  211MOL0     C28393   6.202   4.999   8.262 -0.2217 -0.7045  0.4867
  211MOL0    Cl28394   6.272   4.952   8.093 -0.4496 -0.3459 -0.0074
  211MOL0     C28395   5.071   4.566   8.025  1.2729 -0.0405 -0.0457
  211MOL0     C28396   4.926   4.571   8.008 -0.0949  0.2810  1.1298
  211MOL0     O28397   4.699   4.915   8.033  0.1665 -0.3681 -0.5913
  211MOL0     C28398   4.424   4.904   8.018 -0.2243  0.3616 -0.1526
  211MOL0     C28399   4.287   4.885   8.027 -0.7064  0.2295 -0.1355
  211MOL0     N28400   3.636   5.144   8.219 -0.0744  0.6936  0.4869
  211MOL0     N28401   3.515   5.190   8.254 -0.4546  0.7104 -0.7242
  211MOL0     C28402   2.208   4.975   8.506 -0.1818  0.4575  0.2827
  211MOL0     C28403   2.136   5.017   8.623 -0.2953  0.0584  0.5099
  211MOL0     C28404   2.055   5.023   9.075  0.0447 -0.2091 -1.1484
  211MOL0     C28405   1.958   5.123   9.054 -0.8447 -1.5314  0.3031
  211MOL0     C28406   1.883   5.174   9.154  0.0207  0.0158  0.3731
  211MOL0     C28407   1.902   5.137   9.290  0.2481 -0.1887 -0.5814
  211MOL0     O28408   1.849   5.207   9.399  0.7927  0.0402 -0.4910
  211MOL0     C28409   1.704   5.220   9.408  0.4073 -0.1424  0.2933
  211MOL0     C28410   1.638   5.081   9.417 -0.8997 -0.6531  0.8596
  211MOL0     C28411   1.687   5.002   9.546 -0.1345  0.4936 -0.2703
  211MOL0     C28412   1.621   4.868   9.582  0.1273  0.2575 -0.1875
  211MOL0     C28413   1.670   4.807   9.703 -0.5763 -0.3511 -0.1211
  211MOL0     C28414   1.731   4.767   9.805 -0.3098 -0.2089 -0.5414
  211MOL0     C28415   1.999   5.032   9.318  0.3350 -0.2803 -0.0148
  211MOL0     C28416   2.077   4.983   9.209 -0.0181 -0.1122  0.2555
  211MOL0     C28417   2.178   4.880   9.242 -0.1162 -0.0439 -0.0167
  211MOL0     H28418   2.397   4.950   8.836 -1.2516  1.0166  0.3838
  211MOL0     H28419   2.505   4.909   8.646 -0.3774  0.6048  0.3721
  211MOL0     H28420   2.553   4.809   8.418  3.6926  1.0102 -0.4176
  211MOL0     H28421   2.567   4.883   8.256  1.4248 -2.7493  1.1687
  211MOL0     H28422   2.585   5.080   8.473 -1.7184 -0.6412  0.2125
  211MOL0     H28423   2.615   5.089   8.316 -3.9882  2.4593  2.9352
  211MOL0     H28424   2.791   4.918   8.335  0.1043  0.7259  0.3089
  211MOL0     H28425   2.776   4.916   8.517  1.9881  2.4542  2.4925
  211MOL0     H28426   2.828   5.155   8.335  2.3025 -2.6717 -1.7723
  211MOL0     H28427   2.815   5.165   8.515  1.0112 -0.5374  0.9274
  211MOL0     H28428   3.029   5.166   8.496 -0.7614  0.0365  0.5526
  211MOL0     H28429   2.996   5.001   8.546 -1.3167  0.8469  0.5137
  211MOL0     H28430   3.021   4.913   8.314 -1.6646  0.8038 -0.4216
  211MOL0     H28431   3.040   5.076   8.244  2.7050 -0.1140 -0.6566
  211MOL0     H28432   3.241   4.896   8.297 -0.8267  1.8201 -4.6825
  211MOL0     H28433   3.240   4.988   8.448 -3.6755 -2.0987  0.4368
  211MOL0     H28434   3.254   5.091   8.156  1.5500 -0.5270 -1.3323
  211MOL0     H28435   3.264   5.192   8.311 -2.6134  0.5619 -3.3850
  211MOL0     H28436   3.492   4.854   8.246  2.4665 -0.8176 -2.6352
  211MOL0     H28437   3.850   4.972   8.199  0.5176 -0.2103 -2.6046
  211MOL0     H28438   3.756   4.841   8.262  0.4474 -0.2764 -1.3880
  211MOL0     H28439   3.655   4.817   8.023  1.2769 -2.0438 -0.3147
  211MOL0     H28440   3.764   4.945   7.966  0.8365 -1.1972 -1.3520
  211MOL0     H28441   3.853   4.705   7.921 -1.4912 -0.7802  1.3667
  211MOL0     H28442   3.861   4.692   8.095 -1.6855 -0.0427 -0.7330
  211MOL0     H28443   4.029   4.869   8.116 -0.9296  1.6406  0.3453
  211MOL0     H28444   4.005   4.919   7.954  0.3211 -0.1724 -0.2875
  211MOL0     H28445   4.268   4.575   7.936  0.9601 -0.6954  2.4237
  211MOL0     H28446   4.512   4.587   7.949 -1.0220 -0.7009  1.6027
  211MOL0     H28447   4.921   4.908   7.925  1.7994  0.6309  1.8153
  211MOL0     H28448   5.159   4.880   7.953  0.6829  1.4280  0.9011
  211MOL0     H28449   5.360   4.787   7.922  0.5959 -2.2766  0.1543
  211MOL0     H28450   5.342   4.853   8.091  0.5014 -0.5662  0.8922
  211MOL0     H28451   5.518   4.653   8.135  0.7305 -0.4609  0.3663
  211MOL0     H28452   5.566   4.694   7.967  0.0893 -0.6081  0.4750
  211MOL0     H28453   5.587   4.933   8.012 -0.2109  1.3139  0.7082
  211MOL0     H28454   5.553   4.914   8.183  1.8205  0.6797  0.7890
  211MOL0     H28455   5.790   4.826   8.018 -1.7958 -3.2091 -0.5268
  211MOL0     H28456   5.777   4.751   8.179 -2.3692 -1.1257 -0.8909
  211MOL0     H28457   5.798   4.993   8.274  1.5265  1.1026 -0.4320
  211MOL0     H28458   5.809   5.048   8.099  1.1901  0.4973 -0.7438
  211MOL0     H28459   5.977   4.840   8.233 -1.3748 -0.6074 -2.1230
  211MOL0     H28460   6.013   4.916   8.077 -0.5360  0.1061 -0.4419
  211MOL0     H28461   6.019   5.084   8.335  0.9897  0.0460 -0.5521
  211MOL0     H28462   6.050   5.127   8.172  0.4757  1.2802  1.3523
  211MOL0     H28463   6.248   5.088   8.306  1.0490 -0.3220 -1.4518
  211MOL0     H28464   6.212   4.910   8.324  1.2708 -1.3464 -0.6012
  211MOL0     H28465   5.114   4.471   8.054 -0.1077 -0.7268 -0.1819
  211MOL0     H28466   4.858   4.486   8.014 -2.7048  2.0893 -0.8281
  211MOL0     H28467   4.460   5.000   8.054  1.0108 -0.7165  1.6455
  211MOL0     H28468   4.220   4.967   8.047  0.8358  1.1302  1.6962
  211MOL0     H28469   2.141   4.958   8.421 -2.7324  1.1681  2.0174
  211MOL0     H28470   2.030   5.041   8.627 -0.0234  1.1346  3.1941
  211MOL0     H28471   1.965   5.178   8.961  1.6215  0.7774  1.7146
  211MOL0     H28472   1.807   5.241   9.116  0.8455 -0.5006 -2.4015
  211MOL0     H28473   1.663   5.266   9.317 -2.3322 -0.2932  1.3812
  211MOL0     H28474   1.664   5.284   9.486 -1.5093 -1.1081  0.1634
  211MOL0     H28475   1.663   5.030   9.324  2.3031  1.6514  0.2461
  211MOL0     H28476   1.531   5.096   9.432 -1.1130  2.0832 -2.3602
  211MOL0     H28477   1.664   5.071   9.627  3.0801  1.1275  0.2373
  211MOL0     H28478   1.796   4.988   9.543 -0.4243 -2.1013 -1.5404
  211MOL0     H28479   1.514   4.884   9.602 -0.1343 -2.4167  1.0389
  211MOL0     H28480   1.627   4.799   9.498 -1.0666 -0.9224  0.6521
  211MOL0     H28481   1.776   4.743   9.899 -0.6714 -1.8659 -0.7705
  211MOL0     H28482   2.010   5.008   9.423 -0.1723 -0.7324 -0.0648
  211MOL0     H28483   2.154   4.774   9.229 -3.9758  0.6800  0.1676
  211MOL0     H28484   2.279   4.897   9.204 -0.4368 -0.3711 -1.0387
  211MOL0     H28485   2.185   4.902   9.349  1.6524  1.1072 -0.3263
  212MOL0     O28486  10.809   2.404   3.658 -0.5225  0.2392 -0.4361
  212MOL0     C28487  10.782   2.526   3.673  0.3628  0.1067 -0.0797
  212MOL0     O28488  10.878   2.622   3.672  0.5340 -0.4029 -0.4972
  212MOL0     C28489  11.013   2.608   3.659 -0.2289  0.2255 -0.1322
  212MOL0     C28490  11.103   2.676   3.735 -0.3088  0.1934  0.2028
  212MOL0     C28491  11.249   2.664   3.725 -0.0532 -0.1996 -0.5653
  212MOL0     C28492  11.300   2.593   3.615  0.1552  0.0634 -0.1496
  212MOL0     O28493  11.436   2.603   3.592 -0.1674  0.2706  0.2328
  212MOL0     C28494  11.486   2.579   3.455  0.2608  0.6175 -0.2091
  212MOL0     C28495  11.546   2.442   3.446 -0.6648 -0.1741  1.2854
  212MOL0     C28496  11.652   2.414   3.552  0.4498 -0.0213 -0.1135
  212MOL0     C28497  11.717   2.274   3.546 -0.3626 -0.4968 -0.4792
  212MOL0     C28498  11.838   2.252   3.646  0.0235  1.0717 -0.3603
  212MOL0     C28499  11.792   2.284   3.791  0.2153  0.0174 -0.7028
  212MOL0     C28500  11.911   2.288   3.886 -0.2206 -0.0957 -0.9345
  212MOL0     C28501  11.880   2.353   4.015  0.5407  0.0229 -0.5273
  212MOL0     N28502  12.006   2.390   4.089  0.3636 -0.8495  0.3093
  212MOL0     C28503  12.053   2.522   4.100 -0.4281  0.7661 -0.3597
  212MOL0     C28504  12.174   2.502   4.169  0.6523  0.1254 -0.2996
  212MOL0     C28505  12.259   2.614   4.228  0.5743  0.2843 -0.6951
  212MOL0     C28506  12.247   2.633   4.378 -0.0852  0.3266  0.5987
  212MOL0     C28507  12.352   2.733   4.433  0.5785  0.0839  0.1872
  212MOL0     C28508  12.325   2.889   4.411 -0.1447  0.4089 -0.4524
  212MOL0     O28509  12.368   2.968   4.528 -0.5409  0.0264  0.3693
  212MOL0     C28510  12.502   2.990   4.543  0.6724  0.3305 -0.5475
  212MOL0     C28511  12.607   2.952   4.459  0.1899  0.7493  0.1035
  212MOL0     C28512  12.739   2.971   4.484 -0.2557 -0.5758 -0.7361
  212MOL0     C28513  12.784   3.043   4.596  0.4571  0.7560 -0.1949
  212MOL0     C28514  12.922   3.071   4.622 -0.3768  0.0955  0.3874
  212MOL0     O28515  13.015   3.051   4.522  0.5998 -0.1989  0.2301
  212MOL0     C28516  13.128   3.119   4.542 -0.5292  0.4397  0.0746
  212MOL0     C28517  13.131   3.251   4.558 -0.8567  0.6522  0.1207
  212MOL0     C28518  13.253   3.317   4.575  0.8171 -0.3612  0.4216
  212MOL0     C28519  13.375   3.241   4.583  0.1589  0.3832  0.2736
  212MOL0     O28520  13.503   3.286   4.587  0.3407  0.5069 -0.1377
  212MOL0     C28521  13.517   3.434   4.604  0.9001 -0.7009  0.3369
  212MOL0     C28522  13.658   3.484   4.597 -0.6137  0.3525  0.1931
  212MOL0     C28523  13.646   3.635   4.607 -0.1024 -1.2137  0.6452
  212MOL0     C28524  13.777   3.715   4.586 -0.1938  0.7638  0.5245
  212MOL0     C28525  13.727   3.861   4.563  0.1804  0.3767  0.5006
  212MOL0     C28526  13.819   3.954   4.502  0.3344  0.0962  0.3300
  212MOL0     C28527  13.963   3.960   4.553  0.0811  0.7839 -0.1117
  212MOL0     C28528  14.041   4.057   4.463 -0.1957  0.5570 -0.1878
  212MOL0    Cl28529  14.187   4.126   4.540 -0.2340  0.2796 -0.0339
  212MOL0     C28530  13.376   3.098   4.572  1.0730  0.2030  0.3231
  212MOL0     C28531  13.245   3.039   4.554 -0.4561 -0.4065  0.1163
  212MOL0     O28532  12.951   3.077   4.743 -0.3204  0.4396  0.0401
  212MOL0     C28533  12.676   3.091   4.678 -0.4586  0.8636  0.0072
  212MOL0     C28534  12.540   3.062   4.656  0.1380 -0.4637 -0.6096
  212MOL0     N28535  12.189   2.369   4.192 -0.2515  0.4852 -0.4420
  212MOL0     N28536  12.092   2.297   4.139 -0.8352  0.2127 -0.1429
  212MOL0     C28537  11.209   2.520   3.534 -0.5845 -0.0054 -0.0841
  212MOL0     C28538  11.070   2.530   3.555 -0.4186  0.4474 -0.8256
  212MOL0     C28539  10.647   2.574   3.671 -0.5908  0.6589  0.1822
  212MOL0     C28540  10.544   2.488   3.714  0.2298 -0.7835 -0.2194
  212MOL0     C28541  10.411   2.528   3.722 -0.2161  1.1481 -1.1187
  212MOL0     C28542  10.382   2.662   3.705  0.0297 -0.0260  0.4016
  212MOL0     O28543  10.246   2.693   3.714 -0.5594 -0.2927  0.4396
  212MOL0     C28544  10.208   2.834   3.752  0.2988  0.4097  0.1228
  212MOL0     C28545  10.135   2.835   3.892 -0.6057  0.6503  0.4087
  212MOL0     C28546  10.215   2.785   4.019 -0.1120  0.9218  0.2327
  212MOL0     C28547  10.369   2.816   4.012  0.4948  0.0560 -0.2048
  212MOL0     C28548  10.437   2.823   4.140 -0.2852 -0.0733 -0.5449
  212MOL0     C28549  10.499   2.839   4.249 -0.6092  0.4742  0.3391
  212MOL0     C28550  10.476   2.748   3.664 -1.1542 -0.4609 -0.6831
  212MOL0     C28551  10.613   2.711   3.651  0.5522 -0.1234 -0.2691
  212MOL0     C28552  10.709   2.824   3.592 -1.6791 -0.7651  0.8819
  212MOL0     H28553  11.067   2.743   3.813 -2.0915  0.5676 -0.8817
  212MOL0     H28554  11.313   2.726   3.787  2.4006  0.0871 -3.1837
  212MOL0     H28555  11.410   2.584   3.376  0.9610  2.2378 -0.8405
  212MOL0     H28556  11.562   2.653   3.428  1.1620 -0.4033 -0.5335
  212MOL0     H28557  11.594   2.438   3.348 -1.1341  1.1638  0.9783
  212MOL0     H28558  11.474   2.360   3.441  0.6548 -1.4075  1.8741
  212MOL0     H28559  11.600   2.416   3.648 -0.4995 -1.2172 -0.5777
  212MOL0     H28560  11.724   2.496   3.549 -1.9052  2.2016  0.2228
  212MOL0     H28561  11.646   2.192   3.563  0.2474 -0.7859  0.8770
  212MOL0     H28562  11.748   2.258   3.443  0.7517 -2.7353  0.1138
  212MOL0     H28563  11.869   2.147   3.646 -3.8762 -0.2119 -1.2358
  212MOL0     H28564  11.922   2.317   3.618  1.7673  1.0569  3.9334
  212MOL0     H28565  11.746   2.384   3.789 -2.2733 -1.0497 -2.5175
  212MOL0     H28566  11.724   2.208   3.831  1.2715  0.3183  1.8285
  212MOL0     H28567  11.994   2.338   3.835 -0.2152  1.3997  0.4787
  212MOL0     H28568  11.949   2.189   3.913 -0.7867  0.0485  0.4362
  212MOL0     H28569  11.821   2.444   3.997  1.5099  0.6740 -0.5332
  212MOL0     H28570  11.814   2.289   4.075 -0.0428  2.3656  1.5231
  212MOL0     H28571  12.005   2.616   4.073 -1.0553  0.7157  0.5192
  212MOL0     H28572  12.362   2.608   4.192  0.8036  1.8351 -0.3586
  212MOL0     H28573  12.225   2.712   4.195 -0.6809  1.1372  2.7196
  212MOL0     H28574  12.143   2.657   4.403 -0.6818 -1.2593 -0.2712
  212MOL0     H28575  12.258   2.530   4.412 -1.5814  0.2263  0.8573
  212MOL0     H28576  12.452   2.701   4.401  1.5705 -0.2180  3.2032
  212MOL0     H28577  12.351   2.717   4.542 -0.5654  0.1697  0.1970
  212MOL0     H28578  12.216   2.894   4.404 -0.1421  0.9813 -0.1768
  212MOL0     H28579  12.374   2.919   4.317  0.5921 -0.2094 -0.2696
  212MOL0     H28580  12.600   2.907   4.361 -1.4566  1.4953 -0.1630
  212MOL0     H28581  12.811   2.955   4.405  0.7424  2.4912 -0.5922
  212MOL0     H28582  13.039   3.309   4.564 -1.2023  0.0095  1.4592
  212MOL0     H28583  13.253   3.425   4.567 -0.2789 -0.4736 -1.5204
  212MOL0     H28584  13.471   3.485   4.518  3.5283 -1.3942 -1.6528
  212MOL0     H28585  13.473   3.463   4.699 -2.8089 -2.0549 -0.8104
  212MOL0     H28586  13.713   3.454   4.686 -0.6163 -1.1254 -0.2853
  212MOL0     H28587  13.718   3.441   4.516  0.3299  2.7193 -0.4527
  212MOL0     H28588  13.578   3.677   4.531  0.9078  0.0549  0.4075
  212MOL0     H28589  13.606   3.659   4.706  0.6502  2.5690  0.1939
  212MOL0     H28590  13.824   3.682   4.493 -1.0235 -1.0376  0.7037
  212MOL0     H28591  13.853   3.689   4.661  0.0081 -1.3759 -0.3349
  212MOL0     H28592  13.681   3.909   4.650 -0.8822  3.2433 -1.5124
  212MOL0     H28593  13.645   3.849   4.492  1.6527 -2.1423 -0.8925
  212MOL0     H28594  13.828   3.924   4.397 -1.9795  1.0721 -0.2083
  212MOL0     H28595  13.767   4.048   4.486 -0.1933 -0.2038  0.2503
  212MOL0     H28596  14.000   3.858   4.567 -1.5520 -0.0844 -1.6939
  212MOL0     H28597  13.948   4.012   4.648 -3.1849  2.9155 -1.6358
  212MOL0     H28598  14.079   4.001   4.377  1.3836 -2.1063  2.0756
  212MOL0     H28599  13.978   4.140   4.430  1.4670  2.2143  0.6150
  212MOL0     H28600  13.470   3.045   4.586  1.2087  0.9284  2.7051
  212MOL0     H28601  13.225   2.932   4.548 -2.8922  0.0030 -0.1691
  212MOL0     H28602  12.705   3.145   4.767 -1.8953  0.6485  0.6357
  212MOL0     H28603  12.457   3.100   4.714 -0.9907  1.2077 -3.1558
  212MOL0     H28604  11.229   2.450   3.453  0.5227  0.8942 -0.6172
  212MOL0     H28605  10.997   2.477   3.495  1.2655 -1.2607 -1.4628
  212MOL0     H28606  10.582   2.388   3.731  4.4134  0.4949 -0.8543
  212MOL0     H28607  10.345   2.446   3.748 -0.1871  0.7998 -2.1332
  212MOL0     H28608  10.143   2.883   3.679  0.8867  1.8624  0.5477
  212MOL0     H28609  10.294   2.901   3.761  0.5060  0.0233  1.1587
  212MOL0     H28610  10.049   2.770   3.875 -0.4056  0.3852  0.3994
  212MOL0     H28611  10.105   2.940   3.898  0.8717  1.0759  0.8588
  212MOL0     H28612  10.226   2.676   4.032 -2.9429  0.7356  1.9021
  212MOL0     H28613  10.167   2.838   4.101 -0.3293  1.5758 -0.3161
  212MOL0     H28614  10.412   2.737   3.950 -1.2215 -3.5798  2.8030
  212MOL0     H28615  10.388   2.915   3.970  0.1830 -0.4609 -1.6035
  212MOL0     H28616  10.561   2.860   4.334 -1.3577 -1.8648  1.5498
  212MOL0     H28617  10.446   2.848   3.631  1.9537  1.6640  2.2355
  212MOL0     H28618  10.797   2.839   3.657 -1.6692 -2.5019  1.3355
  212MOL0     H28619  10.744   2.789   3.494 -1.1432 -0.0553  0.8109
  212MOL0     H28620  10.661   2.920   3.573  1.5086  0.6772 -0.6260
  213MOL0     O28621   3.046   3.408   3.950 -1.3458  0.1053 -0.1685
  213MOL0     C28622   3.064   3.332   3.857 -0.8466  0.5335  0.0774
  213MOL0     O28623   2.998   3.216   3.833 -0.3753 -0.6290  0.7394
  213MOL0     C28624   2.897   3.192   3.923  0.8620  0.0891 -0.7028
  213MOL0     C28625   2.762   3.185   3.883 -0.6727  1.4750  0.2233
  213MOL0     C28626   2.673   3.146   3.977 -0.1661 -0.0642  0.5559
  213MOL0     C28627   2.705   3.121   4.110  0.7665  0.6680 -0.6122
  213MOL0     O28628   2.595   3.083   4.189 -0.6016 -0.6242 -0.4807
  213MOL0     C28629   2.615   3.012   4.314  0.1370  0.3861 -0.2279
  213MOL0     C28630   2.475   2.974   4.371  0.3011  0.5289 -0.3481
  213MOL0     C28631   2.382   2.922   4.262  0.8807 -0.2994  0.2902
  213MOL0     C28632   2.250   2.871   4.339  0.1961 -0.4684  0.1322
  213MOL0     C28633   2.155   2.818   4.236  0.3906  0.6111  0.5447
  213MOL0     C28634   2.015   2.785   4.301 -0.3655  0.1632  0.1287
  213MOL0     C28635   1.924   2.718   4.195 -0.6878 -1.0477 -0.4546
  213MOL0     C28636   1.797   2.676   4.259 -0.3125 -0.4106  0.2197
  213MOL0     N28637   1.819   2.551   4.343  0.1343  0.0522 -0.4470
  213MOL0     C28638   1.826   2.426   4.295  0.0372 -0.2829 -0.2479
  213MOL0     C28639   1.841   2.345   4.405 -1.0625  0.1882 -0.6831
  213MOL0     C28640   1.857   2.199   4.393 -0.2764 -0.4983 -1.2518
  213MOL0     C28641   1.730   2.131   4.340  0.2055 -0.2821  0.4734
  213MOL0     C28642   1.622   2.113   4.445 -0.5904 -0.6070 -0.7517
  213MOL0     C28643   1.513   2.009   4.395  0.2451 -0.4335 -0.4441
  213MOL0     O28644   1.494   2.017   4.255  0.0336  0.2737  1.3037
  213MOL0     C28645   1.404   1.919   4.215  0.2947  0.1921  0.1308
  213MOL0     C28646   1.375   1.929   4.077  0.0877 -1.1165 -0.9207
  213MOL0     C28647   1.292   1.839   4.011  0.2831  0.5730  0.4001
  213MOL0     C28648   1.223   1.740   4.087  0.6780  0.1695 -1.0062
  213MOL0     C28649   1.134   1.634   4.026  0.0199  0.0586  0.1044
  213MOL0     O28650   1.053   1.554   4.103  0.9341  0.1959  0.4289
  213MOL0     C28651   0.953   1.481   4.038 -0.1069 -0.5034  0.2029
  213MOL0     C28652   0.823   1.502   4.070 -0.0842  0.0751  0.6914
  213MOL0     C28653   0.716   1.430   4.021 -0.4742 -0.0889  0.2377
  213MOL0     C28654   0.753   1.321   3.932  0.2984 -0.7191 -0.1774
  213MOL0     O28655   0.660   1.225   3.903 -0.0966  0.7570 -0.2197
  213MOL0     C28656   0.530   1.261   3.869 -0.0719 -0.5524  0.0739
  213MOL0     C28657   0.442   1.148   3.813  0.4892 -1.1511 -0.1898
  213MOL0     C28658   0.423   1.047   3.918 -1.0606  0.9248 -0.3578
  213MOL0     C28659   0.311   0.958   3.876  0.5406  1.0758 -0.1794
  213MOL0     C28660   0.315   0.831   3.967 -0.3854  0.0784 -0.4501
  213MOL0     C28661   0.225   0.716   3.928  0.0328  0.0717  1.0335
  213MOL0     C28662   0.198   0.602   4.026 -0.1479  0.0179  0.6731
  213MOL0     C28663   0.126   0.487   3.959  0.8892 -0.0676 -0.0733
  213MOL0    Cl28664   0.238   0.370   3.907  0.0828 -0.2576  1.0071
  213MOL0     C28665   0.883   1.298   3.903  0.2182  0.4361  0.3334
  213MOL0     C28666   0.982   1.374   3.958 -0.1634 -0.4182 -0.3220
  213MOL0     O28667   1.129   1.632   3.899  0.3399 -0.7145 -0.2795
  213MOL0     C28668   1.250   1.727   4.220 -1.0567 -0.4396  0.2494
  213MOL0     C28669   1.345   1.810   4.286 -0.7054  0.3097  0.1845
  213MOL0     N28670   1.841   2.428   4.518 -0.0522 -0.0571  0.1337
  213MOL0     N28671   1.838   2.546   4.477 -0.5339 -0.4323  0.8609
  213MOL0     C28672   2.843   3.122   4.157  0.4191  1.3058  0.7143
  213MOL0     C28673   2.940   3.157   4.050 -0.2120  0.8552 -1.6046
  213MOL0     C28674   3.174   3.360   3.759 -0.8565  0.9380  0.0433
  213MOL0     C28675   3.290   3.281   3.762 -0.7636 -1.0673 -0.0135
  213MOL0     C28676   3.401   3.322   3.688  0.7251  0.8828  0.4385
  213MOL0     C28677   3.395   3.430   3.600  0.9868 -0.9319  0.9361
  213MOL0     O28678   3.492   3.459   3.507  0.5493  0.3294  0.3885
  213MOL0     C28679   3.583   3.355   3.477  0.4449 -0.5870 -0.2748
  213MOL0     C28680   3.704   3.422   3.415  0.5371  0.6262 -0.0245
  213MOL0     C28681   3.775   3.501   3.520 -0.1045 -0.1482 -0.3953
  213MOL0     C28682   3.899   3.556   3.459 -0.9789 -0.4078  0.4885
  213MOL0     C28683   3.969   3.650   3.547 -0.2807  0.0034  0.4265
  213MOL0     C28684   4.033   3.736   3.609  0.0983 -0.4289 -0.1419
  213MOL0     C28685   3.292   3.523   3.610 -1.3458 -0.0293 -0.7732
  213MOL0     C28686   3.188   3.484   3.695  0.6446  0.1082  0.0891
  213MOL0     C28687   3.063   3.574   3.688  0.2971 -0.8152  0.2893
  213MOL0     H28688   2.742   3.193   3.777  0.0006 -0.2752 -0.0719
  213MOL0     H28689   2.571   3.141   3.940 -0.1304  0.0111  0.4468
  213MOL0     H28690   2.680   2.926   4.299  0.2464  0.6266 -1.1585
  213MOL0     H28691   2.675   3.063   4.390 -0.0197 -0.0037  0.1596
  213MOL0     H28692   2.433   3.063   4.417  0.9543  0.7081 -0.0837
  213MOL0     H28693   2.488   2.890   4.440  0.0727  1.0371  0.3189
  213MOL0     H28694   2.426   2.839   4.205  2.7486  0.8551 -0.0427
  213MOL0     H28695   2.348   2.998   4.192  1.9201  2.0698  2.2319
  213MOL0     H28696   2.267   2.811   4.428 -2.4616  0.2382  1.2118
  213MOL0     H28697   2.208   2.964   4.380  0.9756 -0.6880  1.4902
  213MOL0     H28698   2.136   2.874   4.145 -0.0218 -2.0930 -1.1505
  213MOL0     H28699   2.206   2.724   4.214  0.2005  0.2882  1.4115
  213MOL0     H28700   2.015   2.733   4.398 -0.7598  0.8963  0.5321
  213MOL0     H28701   1.964   2.881   4.312  1.6801  1.5796 -1.8282
  213MOL0     H28702   1.974   2.634   4.147  2.2689 -0.3322  1.1388
  213MOL0     H28703   1.898   2.792   4.118  0.8879 -0.4290 -0.4379
  213MOL0     H28704   1.749   2.752   4.322 -0.3906 -0.4461  0.2038
  213MOL0     H28705   1.735   2.658   4.170  0.3596  5.2278 -1.7862
  213MOL0     H28706   1.807   2.394   4.193  0.0185 -2.1001  0.2922
  213MOL0     H28707   1.940   2.181   4.323  0.6569 -2.1242  0.1757
  213MOL0     H28708   1.897   2.164   4.489 -0.4475  1.1788 -0.5444
  213MOL0     H28709   1.692   2.176   4.248 -0.4141 -0.9149  0.4187
  213MOL0     H28710   1.777   2.038   4.306 -0.1145  0.7340 -3.2403
  213MOL0     H28711   1.585   2.215   4.461  0.8880  0.3311 -2.9069
  213MOL0     H28712   1.655   2.075   4.542  0.2684 -0.7256 -1.0869
  213MOL0     H28713   1.419   2.037   4.444  2.1685  0.6794  2.9040
  213MOL0     H28714   1.547   1.912   4.431  0.7147 -0.4754 -0.9776
  213MOL0     H28715   1.427   2.009   4.025  1.8916 -1.8951 -0.4203
  213MOL0     H28716   1.274   1.829   3.904 -0.4011  0.5439  0.5151
  213MOL0     H28717   0.796   1.584   4.136 -1.7042  0.1836 -0.0504
  213MOL0     H28718   0.612   1.444   4.048 -0.3460  1.4520 -0.0253
  213MOL0     H28719   0.484   1.301   3.960 -1.4454  0.5514 -1.0701
  213MOL0     H28720   0.539   1.345   3.800 -0.1622 -1.4555 -1.0541
  213MOL0     H28721   0.343   1.189   3.793 -0.3096 -2.8699  0.0391
  213MOL0     H28722   0.489   1.112   3.720 -0.2359 -1.4403 -0.4492
  213MOL0     H28723   0.517   0.992   3.908 -1.9180 -0.4369 -1.2123
  213MOL0     H28724   0.404   1.074   4.022  0.6868 -1.7826  0.7634
  213MOL0     H28725   0.332   0.931   3.772  0.7358 -1.6348  0.4944
  213MOL0     H28726   0.215   1.010   3.880  0.3977  0.7598  0.5306
  213MOL0     H28727   0.292   0.869   4.067  0.0115 -0.1957 -0.2536
  213MOL0     H28728   0.419   0.800   3.981 -0.7479  0.0065  2.8658
  213MOL0     H28729   0.138   0.764   3.883  1.6322  0.0563 -2.4062
  213MOL0     H28730   0.277   0.660   3.850 -3.7340 -2.9980  0.3718
  213MOL0     H28731   0.134   0.644   4.104  1.5751  3.0169  0.6459
  213MOL0     H28732   0.288   0.560   4.073  0.6015  1.5129  0.6451
  213MOL0     H28733   0.053   0.436   4.022 -1.2772  0.5780 -1.9428
  213MOL0     H28734   0.068   0.519   3.873  1.0211  2.3952  0.6863
  213MOL0     H28735   0.902   1.209   3.844 -0.9063 -0.3483  1.1100
  213MOL0     H28736   1.085   1.347   3.937 -0.4633 -1.0742 -0.9796
  213MOL0     H28737   1.192   1.658   4.280 -0.7636 -1.7617 -0.9189
  213MOL0     H28738   1.367   1.790   4.391 -1.1066 -0.3068  0.1593
  213MOL0     H28739   2.875   3.099   4.258  0.5711  1.9106  0.8126
  213MOL0     H28740   3.043   3.147   4.081  0.2261  3.1108 -2.2289
  213MOL0     H28741   3.295   3.193   3.825  1.5845 -0.3127  0.9552
  213MOL0     H28742   3.487   3.264   3.719 -1.5702 -1.0634  3.9417
  213MOL0     H28743   3.540   3.275   3.415  1.9445 -0.6745 -1.2467
  213MOL0     H28744   3.621   3.308   3.568 -0.7221 -1.9961 -0.4747
  213MOL0     H28745   3.679   3.481   3.327  0.8023  0.9027  0.0848
  213MOL0     H28746   3.775   3.347   3.378  2.7908  3.5870 -2.2498
  213MOL0     H28747   3.789   3.424   3.597 -0.6421  0.1825  0.0407
  213MOL0     H28748   3.711   3.579   3.561  1.8190  0.9296  0.7091
  213MOL0     H28749   3.966   3.474   3.429 -0.3046 -0.9285  3.1767
  213MOL0     H28750   3.878   3.623   3.375  0.0183  0.7501  1.1210
  213MOL0     H28751   4.097   3.819   3.629  1.1983 -1.1207 -0.6633
  213MOL0     H28752   3.290   3.618   3.558  1.6100  1.1756  1.0208
  213MOL0     H28753   3.048   3.633   3.597 -2.5332 -1.7642  0.0580
  213MOL0     H28754   2.973   3.514   3.702  1.3456 -2.0388  2.2360
  213MOL0     H28755   3.075   3.654   3.762  1.1018  0.7517 -1.4472
  214MOL0     O28756   2.116   9.761   0.512 -0.9038 -0.0801 -0.2458
  214MOL0     C28757   2.122   9.651   0.463  0.0962 -0.0088  0.2630
  214MOL0     O28758   2.217   9.559   0.484 -0.0439  0.1911  0.1414
  214MOL0     C28759   2.322   9.589   0.564 -0.0748  0.8762 -0.8860
  214MOL0     C28760   2.329   9.538   0.695 -0.0885 -0.2522 -0.4493
  214MOL0     C28761   2.442   9.549   0.779 -0.2049  0.5708 -0.1270
  214MOL0     C28762   2.553   9.617   0.728 -0.0193 -0.5632 -0.9485
  214MOL0     O28763   2.672   9.631   0.806  0.3976 -0.2015 -0.1367
  214MOL0     C28764   2.796   9.601   0.736 -0.1620 -0.0436  0.2684
  214MOL0     C28765   2.903   9.713   0.739  0.7293 -0.6632  0.1391
  214MOL0     C28766   3.032   9.685   0.656 -0.7419  0.2811  0.6930
  214MOL0     C28767   3.113   9.793   0.595 -0.3291 -0.1447 -0.0248
  214MOL0     C28768   3.243   9.748   0.533 -0.0499 -0.0910  0.4548
  214MOL0     C28769   3.235   9.680   0.395 -0.5177  0.2832  0.0795
  214MOL0     C28770   3.376   9.663   0.337  0.2863 -0.1741 -0.4494
  214MOL0     C28771   3.378   9.601   0.193  0.1249 -0.0715  0.5047
  214MOL0     N28772   3.515   9.619   0.147 -0.6711 -0.9013 -0.2314
  214MOL0     C28773   3.552   9.716   0.048  0.2570  0.4726 -1.2851
  214MOL0     C28774   3.670   9.664   0.001 -0.4630 -0.4696 -0.0922
  214MOL0     C28775   3.739   9.728  -0.111 -0.5445 -0.3370  0.2388
  214MOL0     C28776   3.698   9.670  -0.248 -0.3092  0.4060  0.1696
  214MOL0     C28777   3.771   9.540  -0.278 -0.4612  1.2428  0.4404
  214MOL0     C28778   3.917   9.548  -0.312  0.1886  0.0428 -0.3599
  214MOL0     O28779   3.925   9.619  -0.435  0.2287  0.3996  0.1731
  214MOL0     C28780   4.050   9.642  -0.491 -0.7830 -0.2955 -1.1343
  214MOL0     C28781   4.056   9.730  -0.600  0.6218 -0.3462  0.3936
  214MOL0     C28782   4.177   9.783  -0.642 -0.8207 -0.1759 -0.3206
  214MOL0     C28783   4.299   9.723  -0.586  0.4576  0.2195 -1.1101
  214MOL0     C28784   4.427   9.779  -0.628  0.2191  0.0412 -0.1873
  214MOL0     O28785   4.425   9.848  -0.751 -1.1592  1.1890 -0.1611
  214MOL0     C28786   4.534   9.925  -0.791  0.2899  0.3765 -0.1286
  214MOL0     C28787   4.670   9.925  -0.749 -1.0651  0.2332 -0.1253
  214MOL0     C28788   4.765  10.004  -0.806 -0.5122  0.5615 -0.1424
  214MOL0     C28789   4.737  10.102  -0.903  0.5381  0.1010 -0.4153
  214MOL0     O28790   4.837  10.188  -0.941 -0.3489  0.6134  0.0713
  214MOL0     C28791   4.977  10.147  -0.935  0.6865 -0.4598  0.3645
  214MOL0     C28792   5.071  10.246  -0.993 -0.1981 -0.2651  0.7222
  214MOL0     C28793   5.220  10.215  -0.968  0.5008 -0.3991 -0.6788
  214MOL0     C28794   5.318  10.305  -1.052 -0.6066 -0.4845  0.3318
  214MOL0     C28795   5.461  10.286  -1.003  0.4945 -0.0473 -0.2632
  214MOL0     C28796   5.541  10.186  -1.080 -0.3895  0.3534 -0.0768
  214MOL0     C28797   5.682  10.152  -1.016 -0.2148  0.0273 -0.2383
  214MOL0     C28798   5.686  10.068  -0.883  0.9648 -0.0814 -0.1021
  214MOL0    Cl28799   5.585   9.927  -0.891  0.0313  0.2641  0.2999
  214MOL0     C28800   4.602  10.112  -0.943 -0.1373  0.6767  0.6238
  214MOL0     C28801   4.508  10.023  -0.892 -0.2432  0.3155  0.0181
  214MOL0     O28802   4.521   9.777  -0.546 -0.0787 -0.0888  0.4210
  214MOL0     C28803   4.294   9.624  -0.486 -0.3856  0.5077  0.2759
  214MOL0     C28804   4.170   9.582  -0.442  0.3751 -0.3361  0.0950
  214MOL0     N28805   3.703   9.554   0.086 -0.1395  0.0669  0.0910
  214MOL0     N28806   3.606   9.523   0.166 -0.3681 -0.0666  0.7228
  214MOL0     C28807   2.550   9.670   0.595 -0.0885 -0.6198  0.1448
  214MOL0     C28808   2.439   9.650   0.510 -0.4320 -0.1659 -0.0577
  214MOL0     C28809   2.027   9.631   0.350 -0.0441  0.1568 -0.5187
  214MOL0     C28810   2.049   9.523   0.267  0.4827  0.8016 -0.4118
  214MOL0     C28811   1.965   9.491   0.157  0.3947 -0.2223 -0.6757
  214MOL0     C28812   1.861   9.574   0.120  0.5154 -0.6860  0.6452
  214MOL0     O28813   1.788   9.524   0.013 -0.6932  0.5583  0.0328
  214MOL0     C28814   1.714   9.622  -0.066 -0.2983 -0.8791  0.3898
  214MOL0     C28815   1.570   9.647  -0.014  0.0379 -0.4740 -0.7169
  214MOL0     C28816   1.510   9.764  -0.102  0.6732 -0.5229 -0.4690
  214MOL0     C28817   1.360   9.784  -0.057 -0.2479 -0.0960  0.3447
  214MOL0     C28818   1.307   9.902  -0.131  0.3929  0.2946  0.5414
  214MOL0     C28819   1.262  10.003  -0.191  0.4477  0.2401 -0.6545
  214MOL0     C28820   1.832   9.692   0.191 -0.2070  0.0825 -0.2647
  214MOL0     C28821   1.918   9.716   0.308  0.3177 -0.5557  0.1427
  214MOL0     C28822   1.883   9.847   0.384  0.3879 -0.7324 -0.8127
  214MOL0     H28823   2.249   9.477   0.736 -1.3328  1.9562  0.6401
  214MOL0     H28824   2.452   9.515   0.882  0.9639  1.0544 -0.0541
  214MOL0     H28825   2.834   9.518   0.796  0.3431  0.2434  0.3600
  214MOL0     H28826   2.777   9.566   0.634  0.4743  1.0403 -0.2454
  214MOL0     H28827   2.931   9.729   0.844 -0.2727  0.8756  0.1986
  214MOL0     H28828   2.858   9.805   0.701  1.7612 -0.4997 -0.7205
  214MOL0     H28829   3.015   9.613   0.575  0.6911  1.8680 -1.1176
  214MOL0     H28830   3.104   9.635   0.721 -1.2228 -0.7802  0.4351
  214MOL0     H28831   3.056   9.848   0.520 -3.0216 -1.2034  1.1336
  214MOL0     H28832   3.135   9.863   0.677 -3.6345  1.3868 -0.2957
  214MOL0     H28833   3.300   9.839   0.510  0.5250 -0.5725 -0.0893
  214MOL0     H28834   3.303   9.683   0.598  0.7355 -1.1079 -1.2190
  214MOL0     H28835   3.188   9.581   0.396 -2.2877  1.0974  0.6641
  214MOL0     H28836   3.175   9.750   0.336 -1.9525  2.8165  4.1025
  214MOL0     H28837   3.433   9.608   0.412 -1.4199 -0.3689  0.7578
  214MOL0     H28838   3.423   9.762   0.331  0.1026 -0.1335 -1.4471
  214MOL0     H28839   3.348   9.496   0.195  0.8067 -0.2566  1.9399
  214MOL0     H28840   3.310   9.653   0.125 -1.2626 -0.5249  1.4909
  214MOL0     H28841   3.483   9.796   0.023 -2.3295 -0.0597  3.0677
  214MOL0     H28842   3.716   9.834  -0.110  0.0590 -0.1402  3.4993
  214MOL0     H28843   3.846   9.718  -0.092 -0.4010  0.9619  0.2039
  214MOL0     H28844   3.591   9.648  -0.240 -0.3527  0.1065 -1.1112
  214MOL0     H28845   3.720   9.739  -0.329 -1.1445  0.7666  0.2393
  214MOL0     H28846   3.739   9.482  -0.364  1.4415  0.7003  0.0571
  214MOL0     H28847   3.763   9.479  -0.187  0.9711 -0.6715 -0.6396
  214MOL0     H28848   3.953   9.444  -0.310  1.5326  0.4950  0.1602
  214MOL0     H28849   3.977   9.608  -0.244 -2.1734  4.4971 -1.8452
  214MOL0     H28850   3.967   9.773  -0.646  1.5520  0.9395 -0.2913
  214MOL0     H28851   4.177   9.858  -0.720 -0.5417  0.2036  0.0441
  214MOL0     H28852   4.701   9.841  -0.688 -0.6218  0.2015 -0.3926
  214MOL0     H28853   4.865   9.993  -0.766  0.0960  0.3021 -1.6665
  214MOL0     H28854   5.003  10.133  -0.830  2.1909  0.7694  0.1925
  214MOL0     H28855   4.993  10.054  -0.990  0.4487 -0.3484  0.1090
  214MOL0     H28856   5.060  10.249  -1.102  0.3385  1.5270  0.6851
  214MOL0     H28857   5.055  10.339  -0.937  0.9740 -0.5922  1.6302
  214MOL0     H28858   5.229  10.241  -0.862 -2.2291  0.4468 -0.5872
  214MOL0     H28859   5.250  10.110  -0.976  3.0076  0.3143 -1.7597
  214MOL0     H28860   5.302  10.413  -1.044 -1.4450 -0.6566  1.0564
  214MOL0     H28861   5.301  10.275  -1.156  0.1306  0.2263 -0.0113
  214MOL0     H28862   5.456  10.259  -0.897 -2.7189  5.3269  1.3401
  214MOL0     H28863   5.518  10.379  -0.999  0.8376 -0.1138 -2.4660
  214MOL0     H28864   5.483  10.096  -1.103  0.2454  0.0265 -0.4290
  214MOL0     H28865   5.564  10.243  -1.170 -0.3607 -1.0686 -1.0035
  214MOL0     H28866   5.743  10.242  -1.008  0.2078  0.0277 -2.6065
  214MOL0     H28867   5.741  10.089  -1.083  0.8861  0.3448  0.4022
  214MOL0     H28868   5.790  10.041  -0.858  1.0975 -0.4699 -1.0421
  214MOL0     H28869   5.645  10.128  -0.801 -0.8768 -2.7358  1.0751
  214MOL0     H28870   4.571  10.169  -1.030 -0.3345 -1.7022 -0.9736
  214MOL0     H28871   4.407  10.038  -0.929 -1.1214 -2.1751  1.1746
  214MOL0     H28872   4.392   9.598  -0.448 -0.4492  1.4932  1.1622
  214MOL0     H28873   4.174   9.507  -0.364 -1.4692 -1.0665 -0.4582
  214MOL0     H28874   2.629   9.740   0.569 -2.4991  1.4131 -2.2035
  214MOL0     H28875   2.440   9.696   0.412 -0.7313 -0.3077 -0.1270
  214MOL0     H28876   2.135   9.460   0.286  1.3053  2.3511  1.2682
  214MOL0     H28877   1.984   9.409   0.087  0.0671  0.8370 -2.0550
  214MOL0     H28878   1.709   9.584  -0.168 -1.9198  1.8895 -0.6757
  214MOL0     H28879   1.767   9.718  -0.075  2.8898 -2.7282 -3.4926
  214MOL0     H28880   1.589   9.681   0.088  0.3758 -0.2206 -0.8596
  214MOL0     H28881   1.510   9.556  -0.012  1.5788 -1.5441  1.2648
  214MOL0     H28882   1.513   9.746  -0.210 -0.8848  0.4349 -0.7062
  214MOL0     H28883   1.567   9.855  -0.083 -0.1943  0.3368 -1.7691
  214MOL0     H28884   1.313   9.689  -0.084 -1.8655  0.4932  0.9339
  214MOL0     H28885   1.343   9.791   0.051 -0.4907 -4.7596  0.7723
  214MOL0     H28886   1.214  10.089  -0.230  1.9675  1.5071  0.1397
  214MOL0     H28887   1.762   9.769   0.161  3.9295  4.7413  0.8791
  214MOL0     H28888   1.955   9.930   0.375 -1.7281  1.2406 -0.4381
  214MOL0     H28889   1.790   9.883   0.338  0.9551 -0.0659 -1.4760
  214MOL0     H28890   1.867   9.832   0.491 -1.3950  0.0235 -0.9464
  215MOL0     O28891   5.525   0.369   9.218  0.1603 -0.2227  0.1863
  215MOL0     C28892   5.475   0.479   9.250  0.6196  0.0080  0.1134
  215MOL0     O28893   5.485   0.596   9.192  0.0060  0.0597  0.4830
  215MOL0     C28894   5.571   0.616   9.091 -0.0312 -0.4691  0.2360
  215MOL0     C28895   5.551   0.743   9.019  0.8637 -0.2999  0.6608
  215MOL0     C28896   5.638   0.782   8.931  0.6133 -0.1417  0.3274
  215MOL0     C28897   5.745   0.705   8.888 -0.9826 -0.1395  0.5097
  215MOL0     O28898   5.831   0.746   8.782  0.1925  0.0002 -0.2855
  215MOL0     C28899   5.785   0.844   8.695 -0.3015 -0.5439 -0.2993
  215MOL0     C28900   5.885   0.850   8.585 -0.2858  0.4636  0.0398
  215MOL0     C28901   5.837   0.929   8.462  0.1253 -0.8272  0.2660
  215MOL0     C28902   5.919   0.908   8.338 -1.3522  0.4541 -0.4588
  215MOL0     C28903   5.948   1.035   8.253  0.0303 -0.5618  0.2783
  215MOL0     C28904   6.057   1.125   8.303  0.0354 -0.3953 -0.1505
  215MOL0     C28905   6.194   1.069   8.267 -0.5455  0.5596  0.8560
  215MOL0     C28906   6.303   1.143   8.343  0.3740 -0.6050  0.0992
  215MOL0     N28907   6.426   1.063   8.329 -0.2126 -0.2483  1.1970
  215MOL0     C28908   6.486   1.037   8.203  0.2595 -0.1402 -0.7442
  215MOL0     C28909   6.592   0.970   8.232  0.1033  0.5040  0.1475
  215MOL0     C28910   6.708   0.941   8.136 -0.7547  0.7690  0.0633
  215MOL0     C28911   6.766   1.065   8.078 -0.4196  0.7577 -0.5626
  215MOL0     C28912   6.838   1.139   8.186  1.2616  0.0452 -0.3439
  215MOL0     C28913   6.902   1.265   8.127 -0.0674 -0.2150  0.3780
  215MOL0     O28914   6.995   1.234   8.023  1.0162 -0.1263  0.2633
  215MOL0     C28915   7.128   1.263   8.045  0.2300  0.7639 -0.0385
  215MOL0     C28916   7.191   1.242   8.169 -0.0765 -0.0450 -1.1045
  215MOL0     C28917   7.327   1.275   8.197  0.7977 -0.1616 -0.2866
  215MOL0     C28918   7.407   1.331   8.091 -0.2872  0.5856  0.1178
  215MOL0     C28919   7.550   1.368   8.100 -0.0484  0.2680  0.4886
  215MOL0     O28920   7.620   1.389   7.986 -0.0401  0.3661 -0.3120
  215MOL0     C28921   7.751   1.433   7.988 -0.6232  0.5073  0.5980
  215MOL0     C28922   7.848   1.367   7.909 -0.3493 -0.2306 -0.7182
  215MOL0     C28923   7.972   1.426   7.888  0.2588  0.2120  0.1078
  215MOL0     C28924   8.017   1.542   7.954 -0.2623  0.2617 -0.4866
  215MOL0     O28925   8.148   1.578   7.935  0.1733 -0.0262 -0.6425
  215MOL0     C28926   8.218   1.612   8.059 -0.4901  0.6318 -0.1149
  215MOL0     C28927   8.362   1.623   8.025  0.0470  0.1072  0.9552
  215MOL0     C28928   8.392   1.693   7.886  0.1993  0.3240  0.1945
  215MOL0     C28929   8.545   1.690   7.864  0.8875 -0.1138 -0.1375
  215MOL0     C28930   8.597   1.759   7.738 -1.0924 -0.4290 -0.4124
  215MOL0     C28931   8.735   1.733   7.682 -0.0114 -1.1309  0.4573
  215MOL0     C28932   8.842   1.817   7.765 -0.9600  0.7907 -0.6888
  215MOL0     C28933   8.990   1.806   7.711  0.2859  0.1228 -0.2685
  215MOL0    Cl28934   9.070   1.950   7.783  0.0746  0.1275  0.3458
  215MOL0     C28935   7.919   1.612   8.023  0.7073 -0.6080  0.7628
  215MOL0     C28936   7.789   1.557   8.043 -0.0572  0.1746 -0.5743
  215MOL0     O28937   7.590   1.389   8.215 -0.0305 -0.1631 -0.1014
  215MOL0     C28938   7.344   1.349   7.959 -0.7308  0.8029 -0.2293
  215MOL0     C28939   7.207   1.311   7.940 -0.9584  0.1532  0.1191
  215MOL0     N28940   6.589   0.937   8.365  0.4938 -0.0186  0.3823
  215MOL0     N28941   6.490   0.997   8.423 -0.5272  0.3807  0.5704
  215MOL0     C28942   5.774   0.588   8.956  0.1957 -0.2187  0.6381
  215MOL0     C28943   5.683   0.539   9.047  0.1645  0.2958  0.5940
  215MOL0     C28944   5.390   0.480   9.371 -0.6039  0.1073  0.1688
  215MOL0     C28945   5.421   0.390   9.476  0.1891  0.0390  0.5038
  215MOL0     C28946   5.348   0.391   9.596 -0.3546  0.1252 -0.2130
  215MOL0     C28947   5.243   0.474   9.624 -0.0812  0.2247 -0.3423
  215MOL0     O28948   5.167   0.479   9.732 -0.7301  0.1638  0.1807
  215MOL0     C28949   5.199   0.414   9.860 -0.4678 -0.1665 -0.3952
  215MOL0     C28950   5.097   0.455   9.966 -0.3131 -1.9482 -0.1840
  215MOL0     C28951   5.114   0.383  10.102 -0.1369 -0.4663  0.2796
  215MOL0     C28952   4.991   0.405  10.186  0.7021 -0.0785  0.1551
  215MOL0     C28953   4.958   0.289  10.278  0.7402 -1.3619 -0.6928
  215MOL0     C28954   4.930   0.202  10.355 -0.2858  0.6991 -0.4034
  215MOL0     C28955   5.215   0.560   9.521  0.8168 -0.5551 -0.0622
  215MOL0     C28956   5.283   0.572   9.396 -0.3354 -0.3723 -0.1798
  215MOL0     C28957   5.235   0.671   9.297  0.3733 -0.5718  0.3888
  215MOL0     H28958   5.471   0.806   9.055  1.7068  0.0566  1.9750
  215MOL0     H28959   5.604   0.876   8.887 -0.7043 -0.0611  1.4359
  215MOL0     H28960   5.685   0.813   8.665 -0.2069 -1.5159  0.3523
  215MOL0     H28961   5.796   0.936   8.752 -0.0765 -0.8279  0.1238
  215MOL0     H28962   5.914   0.749   8.558  1.3363  1.0334 -0.4565
  215MOL0     H28963   5.977   0.898   8.619  1.0195 -1.7902 -0.1920
  215MOL0     H28964   5.844   1.035   8.489 -2.0400 -0.7416  0.6289
  215MOL0     H28965   5.737   0.905   8.427  0.5565 -1.3842 -0.6179
  215MOL0     H28966   6.015   0.864   8.365 -1.6513 -0.4997 -0.9027
  215MOL0     H28967   5.870   0.842   8.266 -1.3142  0.6272 -0.6444
  215MOL0     H28968   5.981   1.020   8.149 -1.7433 -1.0122 -0.2420
  215MOL0     H28969   5.858   1.096   8.261  1.2409  1.2776  0.5750
  215MOL0     H28970   6.050   1.224   8.257  0.9193  0.0487  0.6313
  215MOL0     H28971   6.045   1.144   8.410  1.0682  0.6596 -0.2023
  215MOL0     H28972   6.201   1.072   8.158  0.5296 -0.1945  0.8817
  215MOL0     H28973   6.205   0.964   8.295  1.2464 -0.3434 -2.6130
  215MOL0     H28974   6.322   1.244   8.305 -0.8554 -0.4180 -0.0595
  215MOL0     H28975   6.273   1.148   8.448 -0.3671 -1.8467 -0.0302
  215MOL0     H28976   6.469   1.085   8.107  1.8945 -0.2762 -1.1390
  215MOL0     H28977   6.780   0.881   8.193  0.4284 -0.1387 -2.2666
  215MOL0     H28978   6.675   0.886   8.048  0.4464  2.0406 -1.2476
  215MOL0     H28979   6.827   1.037   7.992 -0.5652 -1.5812  0.0326
  215MOL0     H28980   6.679   1.123   8.045 -1.2374 -0.4740 -0.6403
  215MOL0     H28981   6.915   1.067   8.217  0.3162 -1.8495 -2.1953
  215MOL0     H28982   6.767   1.170   8.263 -1.6199 -1.2980 -2.3251
  215MOL0     H28983   6.945   1.333   8.201  2.4930 -1.5385  0.2385
  215MOL0     H28984   6.828   1.329   8.080 -1.5135 -2.4079 -0.4590
  215MOL0     H28985   7.125   1.211   8.249  1.3768  0.6533  0.4247
  215MOL0     H28986   7.369   1.265   8.296 -1.3392 -0.8171  0.6194
  215MOL0     H28987   7.827   1.270   7.866  0.5084 -0.4153 -0.7377
  215MOL0     H28988   8.042   1.381   7.818 -0.4021  1.4489 -1.4039
  215MOL0     H28989   8.176   1.712   8.077 -1.7252  0.4151 -1.5391
  215MOL0     H28990   8.205   1.538   8.138  1.5021  1.4756  1.0702
  215MOL0     H28991   8.417   1.671   8.107  3.7715  0.0432 -1.2766
  215MOL0     H28992   8.395   1.520   8.035  2.0189  0.6404  0.3982
  215MOL0     H28993   8.340   1.635   7.809 -1.6516  2.3506 -0.1838
  215MOL0     H28994   8.356   1.795   7.901 -0.7287  0.3902 -2.1451
  215MOL0     H28995   8.566   1.583   7.854  1.6466  0.1393 -1.4997
  215MOL0     H28996   8.597   1.748   7.941  0.6989  0.3837 -0.3798
  215MOL0     H28997   8.580   1.866   7.750 -1.3709 -0.5693  0.5326
  215MOL0     H28998   8.518   1.737   7.666  1.3182 -2.0935 -2.7116
  215MOL0     H28999   8.753   1.625   7.677  3.3124 -0.6537 -0.0869
  215MOL0     H29000   8.723   1.766   7.578 -0.4887 -1.4626  0.4048
  215MOL0     H29001   8.834   1.766   7.861  1.1914 -0.2998 -1.0398
  215MOL0     H29002   8.814   1.923   7.766  1.7818  1.6026  0.9301
  215MOL0     H29003   9.048   1.717   7.737 -0.8239  0.0736  2.3858
  215MOL0     H29004   8.988   1.824   7.604 -0.4690 -0.5005 -0.3704
  215MOL0     H29005   7.920   1.711   8.067 -0.2924 -0.6260  0.8458
  215MOL0     H29006   7.715   1.615   8.097  0.2888  0.2132 -0.1335
  215MOL0     H29007   7.397   1.378   7.869  1.7230 -0.4941  0.7132
  215MOL0     H29008   7.176   1.332   7.838  2.4870 -0.6203 -1.2531
  215MOL0     H29009   5.865   0.541   8.919  0.3853  0.5189  0.1353
  215MOL0     H29010   5.710   0.443   9.090  1.5366 -0.6624 -2.1517
  215MOL0     H29011   5.514   0.335   9.462  1.0510  1.6282 -0.3683
  215MOL0     H29012   5.390   0.328   9.674  2.0545  2.6616  0.7042
  215MOL0     H29013   5.294   0.448   9.903 -2.4533  4.8330  0.7803
  215MOL0     H29014   5.199   0.305   9.858  0.1133 -0.1837  0.1935
  215MOL0     H29015   4.996   0.444   9.926 -1.1615  0.4767  1.1128
  215MOL0     H29016   5.110   0.562   9.985  0.0470 -2.0518  0.1659
  215MOL0     H29017   5.193   0.426  10.164 -0.3267  0.9716 -0.4116
  215MOL0     H29018   5.118   0.276  10.081 -1.1214 -0.7632  1.4866
  215MOL0     H29019   5.002   0.493  10.250  2.8162  0.2794 -0.6068
  215MOL0     H29020   4.902   0.418  10.124 -1.0049 -0.3866  2.4096
  215MOL0     H29021   4.906   0.121  10.420  1.4796  2.2023  2.3146
  215MOL0     H29022   5.128   0.622   9.535  0.5022 -0.4529 -2.1566
  215MOL0     H29023   5.160   0.743   9.327 -0.3197 -0.7574 -0.8397
  215MOL0     H29024   5.317   0.740   9.275  0.4627 -0.1901  1.8500
  215MOL0     H29025   5.205   0.622   9.204  3.7879 -2.4275  0.0788
  216MOL0     O29026  10.268  11.256   3.664 -0.4529  0.3870 -0.1850
  216MOL0     C29027  10.372  11.313   3.639 -1.0070 -0.8816 -0.4866
  216MOL0     O29028  10.403  11.443   3.687 -0.6399  0.5370 -0.2374
  216MOL0     C29029  10.308  11.514   3.757  1.0823 -0.3439  0.5219
  216MOL0     C29030  10.219  11.592   3.694  0.1260  0.4248  0.4774
  216MOL0     C29031  10.122  11.660   3.765  0.0089 -0.3061 -0.3827
  216MOL0     C29032  10.116  11.657   3.913  0.1501  0.1621  0.1487
  216MOL0     O29033  10.019  11.725   3.973 -0.0084  0.1626  0.2066
  216MOL0     C29034  10.032  11.866   3.953 -0.1043 -0.1507 -0.3643
  216MOL0     C29035   9.898  11.940   3.965 -0.6232  0.0072  0.0989
  216MOL0     C29036   9.867  12.010   4.103 -0.1468  1.0089  0.9115
  216MOL0     C29037   9.722  12.058   4.093  0.5687  0.0993 -0.0323
  216MOL0     C29038   9.672  12.125   4.218 -0.2382  0.6906 -0.4528
  216MOL0     C29039   9.722  12.270   4.245 -0.2125 -0.5614  0.5456
  216MOL0     C29040   9.670  12.322   4.375 -0.2211  0.3650 -0.5594
  216MOL0     C29041   9.719  12.470   4.402  0.1587  0.3262  0.2625
  216MOL0     N29042   9.868  12.478   4.429 -0.3261 -0.5754 -0.4754
  216MOL0     C29043   9.917  12.538   4.543  0.4929 -0.2851  0.6122
  216MOL0     C29044  10.052  12.542   4.521 -0.4428 -0.3750  0.6032
  216MOL0     C29045  10.142  12.589   4.632  0.6057  0.7563  0.5070
  216MOL0     C29046  10.218  12.713   4.596  0.1561 -0.5970 -0.4298
  216MOL0     C29047  10.310  12.761   4.704 -0.0600  0.6233 -0.7894
  216MOL0     C29048  10.426  12.656   4.728 -0.1225  0.2078  0.1936
  216MOL0     O29049  10.503  12.624   4.608  0.1216  0.2387  0.3744
  216MOL0     C29050  10.639  12.609   4.619  0.1915 -0.6413  0.3554
  216MOL0     C29051  10.707  12.567   4.741  0.1121 -0.0067 -0.4504
  216MOL0     C29052  10.843  12.559   4.733  0.1724  0.2279 -0.9129
  216MOL0     C29053  10.925  12.591   4.629  0.3058  0.1678  0.6822
  216MOL0     C29054  11.066  12.562   4.617 -0.1328 -0.0248  0.5631
  216MOL0     O29055  11.126  12.480   4.706  0.1776  0.4175  0.0100
  216MOL0     C29056  11.255  12.506   4.733 -0.8013 -1.5710 -0.0820
  216MOL0     C29057  11.346  12.402   4.730 -0.0774 -0.1027  0.4125
  216MOL0     C29058  11.482  12.433   4.728 -0.5687 -0.0536  0.3539
  216MOL0     C29059  11.533  12.563   4.759 -0.5706  0.4316  0.4058
  216MOL0     O29060  11.664  12.590   4.788  0.1829  0.3180  0.0959
  216MOL0     C29061  11.753  12.557   4.682 -0.2254  0.1436 -0.6222
  216MOL0     C29062  11.891  12.508   4.730 -0.1728 -0.3140 -0.3629
  216MOL0     C29063  11.963  12.628   4.796 -0.0090 -0.0313  0.0467
  216MOL0     C29064  12.098  12.583   4.850  0.7993 -0.9992 -0.4053
  216MOL0     C29065  12.197  12.705   4.848  0.0363  0.4371 -0.3929
  216MOL0     C29066  12.332  12.670   4.898  0.2745 -0.6227  0.1625
  216MOL0     C29067  12.418  12.789   4.941 -0.5440  0.4587 -0.3742
  216MOL0     C29068  12.473  12.885   4.829  1.0161  0.2097  0.1569
  216MOL0    Cl29069  12.615  12.817   4.752  0.2699  0.1497  0.0543
  216MOL0     C29070  11.443  12.670   4.770 -0.3856  0.0858  0.5493
  216MOL0     C29071  11.308  12.640   4.749  0.8260 -1.1254 -0.3857
  216MOL0     O29072  11.119  12.598   4.511  0.4102  0.2322  0.2293
  216MOL0     C29073  10.852  12.626   4.506  0.1245  0.5843  0.0172
  216MOL0     C29074  10.712  12.634   4.498 -0.3000  0.5752 -0.9390
  216MOL0     N29075  10.087  12.494   4.396 -0.0518  1.1641 -0.2165
  216MOL0     N29076   9.967  12.455   4.344  0.1187 -0.7249 -0.1694
  216MOL0     C29077  10.209  11.568   3.974  0.3568  0.5394 -0.5091
  216MOL0     C29078  10.309  11.503   3.895  0.2521  0.2195  0.5702
  216MOL0     C29079  10.497  11.236   3.589 -0.8102  0.8275  0.6001
  216MOL0     C29080  10.629  11.297   3.610 -0.3326  0.2054  0.3825
  216MOL0     C29081  10.752  11.237   3.573  0.7231 -0.1142  0.7240
  216MOL0     C29082  10.748  11.106   3.531 -0.7529  0.7005  0.6978
  216MOL0     O29083  10.858  11.025   3.523 -0.5747 -0.3436  0.1246
  216MOL0     C29084  10.991  11.080   3.527 -0.1085  0.6590  0.5318
  216MOL0     C29085  11.046  11.069   3.669  0.6545 -1.0204 -0.0443
  216MOL0     C29086  11.183  11.125   3.686 -0.7144  0.6649 -0.7502
  216MOL0     C29087  11.200  11.203   3.818 -0.0327 -0.3825  0.2280
  216MOL0     C29088  11.286  11.134   3.902  0.2340  0.5900 -0.5441
  216MOL0     C29089  11.355  11.080   3.983 -0.7516 -0.4999 -0.2636
  216MOL0     C29090  10.632  11.050   3.505  0.8843  0.4025  0.8260
  216MOL0     C29091  10.508  11.106   3.526  0.4324 -0.5590  0.3570
  216MOL0     C29092  10.385  11.035   3.484 -1.0038  1.1876  0.2487
  216MOL0     H29093  10.228  11.616   3.589 -1.9608 -0.4010  0.0658
  216MOL0     H29094  10.051  11.720   3.709  0.0147 -0.8937 -1.0328
  216MOL0     H29095  10.105  11.892   4.030  0.6213 -0.8838 -0.7818
  216MOL0     H29096  10.064  11.907   3.856 -2.7178  1.1364 -0.7801
  216MOL0     H29097   9.825  11.860   3.952  0.3468 -0.6872 -1.2903
  216MOL0     H29098   9.899  12.013   3.884  1.1907  1.1503  1.0717
  216MOL0     H29099   9.941  12.090   4.105  0.8423  0.1272  0.4537
  216MOL0     H29100   9.870  11.941   4.188 -1.8637 -2.0545 -1.3006
  216MOL0     H29101   9.716  12.130   4.011  1.2422  0.8505  0.5667
  216MOL0     H29102   9.658  11.971   4.073 -1.9900  1.9256 -0.3573
  216MOL0     H29103   9.563  12.121   4.210 -0.1567 -0.4225 -1.2419
  216MOL0     H29104   9.705  12.068   4.305 -1.4895 -3.3580 -2.3738
  216MOL0     H29105   9.830  12.290   4.243 -0.8036  3.7020 -2.2517
  216MOL0     H29106   9.671  12.334   4.173 -2.4041 -2.1599  0.5746
  216MOL0     H29107   9.706  12.269   4.463 -1.0268  0.9315  0.1294
  216MOL0     H29108   9.560  12.318   4.371 -0.2554 -3.1848  0.7438
  216MOL0     H29109   9.690  12.534   4.318 -0.1177  2.5473  1.9724
  216MOL0     H29110   9.661  12.505   4.488  0.3736  0.3102  0.4160
  216MOL0     H29111   9.860  12.579   4.626 -3.2370 -2.3177 -0.6943
  216MOL0     H29112  10.085  12.612   4.723  0.4860 -0.3353  0.7345
  216MOL0     H29113  10.210  12.506   4.657 -1.4646 -1.3002 -0.2939
  216MOL0     H29114  10.263  12.694   4.498 -1.4964  0.4355 -1.4316
  216MOL0     H29115  10.147  12.795   4.582 -2.1357 -2.1248  1.4512
  216MOL0     H29116  10.251  12.771   4.795  2.6238 -0.4273  1.1947
  216MOL0     H29117  10.343  12.862   4.677  0.2222  0.5463 -0.7391
  216MOL0     H29118  10.370  12.568   4.763 -0.0051 -0.3675 -1.0144
  216MOL0     H29119  10.495  12.690   4.806 -0.3889  0.8233  0.1684
  216MOL0     H29120  10.647  12.532   4.824 -1.0407  0.6666 -0.9787
  216MOL0     H29121  10.875  12.521   4.830 -0.6169  0.5213 -0.5253
  216MOL0     H29122  11.318  12.299   4.711  1.5775 -0.2217 -1.9488
  216MOL0     H29123  11.560  12.358   4.725  0.1228  0.6253  1.0422
  216MOL0     H29124  11.718  12.470   4.626 -0.7706 -0.4507  0.5858
  216MOL0     H29125  11.766  12.642   4.615 -0.8876  2.6054  2.1356
  216MOL0     H29126  11.883  12.424   4.799 -1.1101  1.5512  1.9623
  216MOL0     H29127  11.946  12.474   4.642 -1.3275 -2.7046 -0.2388
  216MOL0     H29128  11.973  12.701   4.715 -1.6136  0.1450 -0.0294
  216MOL0     H29129  11.906  12.670   4.878 -0.4914 -0.1578 -0.2178
  216MOL0     H29130  12.140  12.500   4.793 -0.5681 -0.9132 -1.5938
  216MOL0     H29131  12.095  12.540   4.950  0.9051  2.1123  1.0589
  216MOL0     H29132  12.164  12.792   4.906 -0.0295  2.3466 -3.1071
  216MOL0     H29133  12.210  12.730   4.742 -0.6598 -2.0506 -1.1436
  216MOL0     H29134  12.322  12.611   4.990  1.8008 -2.5369 -0.8282
  216MOL0     H29135  12.389  12.618   4.821  0.3185  2.9102 -2.4365
  216MOL0     H29136  12.510  12.749   4.985 -1.7114 -1.6308  0.2569
  216MOL0     H29137  12.368  12.859   5.009 -0.8805 -0.7662  0.6834
  216MOL0     H29138  12.388  12.913   4.766 -0.0815  0.4914  1.7103
  216MOL0     H29139  12.499  12.983   4.869 -1.0829  1.0794 -0.4669
  216MOL0     H29140  11.480  12.767   4.801 -0.6819  0.2754  0.3209
  216MOL0     H29141  11.243  12.727   4.748  1.4240 -0.6609 -1.6171
  216MOL0     H29142  10.912  12.645   4.418  1.6421  2.1606  1.2936
  216MOL0     H29143  10.661  12.649   4.404 -1.7315 -2.5644 -0.7611
  216MOL0     H29144  10.219  11.553   4.081 -0.3614 -1.1715 -0.6496
  216MOL0     H29145  10.387  11.440   3.936  0.7573  1.2246  1.1947
  216MOL0     H29146  10.632  11.401   3.642 -0.9962  2.3772 -5.3832
  216MOL0     H29147  10.845  11.291   3.588  0.0143  1.2523  0.3193
  216MOL0     H29148  10.993  11.185   3.494 -2.9766  0.0437 -2.0656
  216MOL0     H29149  11.070  11.035   3.466  0.1541  0.7932  0.7741
  216MOL0     H29150  11.034  10.966   3.703  1.0568 -1.1304 -0.2390
  216MOL0     H29151  10.970  11.118   3.731  0.7225 -2.1073  0.9317
  216MOL0     H29152  11.214  11.195   3.608 -2.7806 -0.4539 -2.6969
  216MOL0     H29153  11.252  11.042   3.665 -2.4437 -0.5044 -2.1471
  216MOL0     H29154  11.250  11.300   3.805  3.0778 -1.5606  2.1728
  216MOL0     H29155  11.104  11.228   3.863  0.5587  2.4731  0.0940
  216MOL0     H29156  11.421  11.029   4.051  0.7188  1.7229  0.0727
  216MOL0     H29157  10.642  10.951   3.463 -0.9512  0.1491  0.9446
  216MOL0     H29158  10.338  11.106   3.415  0.5019  2.5741  0.5981
  216MOL0     H29159  10.395  10.941   3.428 -1.4946 -0.1669  2.3121
  216MOL0     H29160  10.323  11.012   3.571 -2.6964 -1.0896 -1.4210
  217MOL0     O29161   1.435   5.675   3.983  0.6553 -0.5345 -0.1581
  217MOL0     C29162   1.442   5.571   3.919  0.5110  0.1297  1.1116
  217MOL0     O29163   1.550   5.510   3.872  0.1451  0.4401  0.4847
  217MOL0     C29164   1.680   5.555   3.897  0.2455  0.6157  0.0477
  217MOL0     C29165   1.728   5.685   3.916 -0.5011  0.3888 -0.4425
  217MOL0     C29166   1.869   5.705   3.942  0.1555 -0.5695  0.1204
  217MOL0     C29167   1.961   5.603   3.943  0.2165  0.7671 -0.4557
  217MOL0     O29168   2.094   5.625   3.980 -0.9253  0.4471  0.5535
  217MOL0     C29169   2.198   5.545   3.908  0.5778  0.0442 -0.3334
  217MOL0     C29170   2.330   5.567   3.967  0.3877  0.0758 -0.3775
  217MOL0     C29171   2.435   5.529   3.860 -1.7498 -0.3208 -0.0449
  217MOL0     C29172   2.510   5.654   3.808  0.0641 -0.4306 -0.1661
  217MOL0     C29173   2.620   5.623   3.712 -0.0016  0.2226  0.8792
  217MOL0     C29174   2.566   5.562   3.586 -0.0657 -0.1442  0.6530
  217MOL0     C29175   2.687   5.519   3.501  0.9486  0.2806  0.4790
  217MOL0     C29176   2.649   5.444   3.373 -0.1455 -0.7031 -0.7076
  217MOL0     N29177   2.770   5.432   3.290  1.0076  0.3649  0.4916
  217MOL0     C29178   2.794   5.517   3.191 -0.0875 -0.4269  0.2495
  217MOL0     C29179   2.911   5.482   3.141 -0.9177 -0.7083 -0.0408
  217MOL0     C29180   2.997   5.541   3.029  0.8385 -0.7054 -0.6496
  217MOL0     C29181   2.942   5.501   2.887 -0.7300 -0.7028 -0.8684
  217MOL0     C29182   3.000   5.588   2.770 -0.5586  0.5613 -0.4910
  217MOL0     C29183   3.155   5.571   2.756  0.0888 -0.0840  0.4679
  217MOL0     O29184   3.189   5.638   2.632  0.9635  0.1684 -0.3968
  217MOL0     C29185   3.323   5.659   2.606  0.2903  0.9647  0.5007
  217MOL0     C29186   3.428   5.622   2.689 -0.2337 -0.5695  0.2551
  217MOL0     C29187   3.565   5.636   2.649  0.9731  0.2836  0.6240
  217MOL0     C29188   3.596   5.692   2.526 -0.0716 -0.1079  0.4410
  217MOL0     C29189   3.731   5.703   2.477  0.1067 -0.0030  0.4843
  217MOL0     O29190   3.834   5.641   2.553 -0.0864 -0.5116  0.0142
  217MOL0     C29191   3.970   5.654   2.529 -1.0137 -0.6090  0.1737
  217MOL0     C29192   4.058   5.558   2.582 -0.0941  0.2713 -0.7563
  217MOL0     C29193   4.197   5.567   2.584 -0.0301 -0.9025 -0.2058
  217MOL0     C29194   4.252   5.665   2.510  0.7795 -0.6175  0.0709
  217MOL0     O29195   4.381   5.666   2.515 -0.2341 -0.0033 -0.1465
  217MOL0     C29196   4.465   5.737   2.421 -0.5845  0.2885 -0.1170
  217MOL0     C29197   4.586   5.655   2.382  0.0704  0.1813 -0.0605
  217MOL0     C29198   4.677   5.742   2.289  0.0403  0.7662 -0.2874
  217MOL0     C29199   4.811   5.671   2.260 -0.2684  1.0579 -0.0365
  217MOL0     C29200   4.897   5.663   2.387  0.1464  0.7246 -0.2435
  217MOL0     C29201   5.055   5.675   2.364  0.7839 -1.1511  0.6974
  217MOL0     C29202   5.141   5.699   2.483  0.8804 -0.7078  0.0741
  217MOL0     C29203   5.262   5.606   2.469  0.5487  0.3158 -0.8725
  217MOL0    Cl29204   5.226   5.429   2.476 -0.1498 -0.1842 -0.1372
  217MOL0     C29205   4.169   5.758   2.435  0.2091  1.2355 -0.3209
  217MOL0     C29206   4.038   5.752   2.449  0.1826 -0.0707  0.6224
  217MOL0     O29207   3.750   5.771   2.381  0.4618 -0.2703  0.7449
  217MOL0     C29208   3.487   5.741   2.453  0.2205 -0.3911 -0.4300
  217MOL0     C29209   3.349   5.723   2.491  0.2917  0.5442  0.0228
  217MOL0     N29210   2.944   5.354   3.182 -0.6059  0.1196  0.3582
  217MOL0     N29211   2.853   5.330   3.272  0.5857  0.0330  0.3601
  217MOL0     C29212   1.920   5.476   3.905  0.2727 -0.6599 -0.1647
  217MOL0     C29213   1.775   5.449   3.893 -0.2594  0.3741  0.4668
  217MOL0     C29214   1.308   5.512   3.883  0.4127  0.1845 -0.3012
  217MOL0     C29215   1.204   5.526   3.968 -0.1860 -0.3343 -0.7888
  217MOL0     C29216   1.080   5.469   3.927  0.5659 -0.2935 -0.6502
  217MOL0     C29217   1.056   5.403   3.808 -0.0338 -0.3061  0.1042
  217MOL0     O29218   0.926   5.368   3.790 -0.5737 -0.3073  0.2597
  217MOL0     C29219   0.885   5.282   3.681 -1.4205 -0.8379 -0.3415
  217MOL0     C29220   0.761   5.204   3.717  0.2542 -0.7707  0.4403
  217MOL0     C29221   0.799   5.077   3.793  0.1732  0.4861 -0.8467
  217MOL0     C29222   0.867   4.970   3.704  0.9063 -0.8222 -0.0808
  217MOL0     C29223   0.878   4.839   3.780 -0.2688 -0.0830  0.4773
  217MOL0     C29224   0.901   4.729   3.832  0.2047  0.2715  0.4437
  217MOL0     C29225   1.164   5.391   3.722  0.2492  0.1133 -1.1476
  217MOL0     C29226   1.292   5.437   3.758  0.5675 -0.3269 -0.5726
  217MOL0     C29227   1.398   5.403   3.653 -0.7361 -0.1960  0.9005
  217MOL0     H29228   1.660   5.770   3.919 -0.5145  0.3476  1.0040
  217MOL0     H29229   1.910   5.804   3.962 -0.5070 -0.4966  1.2391
  217MOL0     H29230   2.174   5.439   3.921 -2.6257  0.8923  2.1706
  217MOL0     H29231   2.202   5.577   3.804  0.0818  3.0578  0.4926
  217MOL0     H29232   2.352   5.507   4.055 -1.6224  0.7545  0.6409
  217MOL0     H29233   2.329   5.671   4.000 -0.0749 -0.6009  1.9417
  217MOL0     H29234   2.384   5.465   3.788  0.3143 -0.7725 -1.1598
  217MOL0     H29235   2.510   5.466   3.909  0.1556  2.6956  1.2328
  217MOL0     H29236   2.439   5.721   3.758  3.7528  2.3499 -2.1333
  217MOL0     H29237   2.559   5.716   3.884 -0.3713 -0.0837 -0.1627
  217MOL0     H29238   2.674   5.714   3.683  1.5930 -0.3987  1.7374
  217MOL0     H29239   2.688   5.558   3.768 -1.6351 -1.3544  1.0987
  217MOL0     H29240   2.519   5.466   3.611 -1.4123  0.5270  0.8202
  217MOL0     H29241   2.493   5.612   3.522  1.4998 -1.2255 -2.1612
  217MOL0     H29242   2.761   5.461   3.557  0.1176 -1.3102 -0.0230
  217MOL0     H29243   2.743   5.610   3.478  1.1027 -0.0309 -0.4306
  217MOL0     H29244   2.610   5.348   3.410 -0.6253  0.9681  3.7698
  217MOL0     H29245   2.571   5.497   3.318 -0.6518 -1.4587 -0.7285
  217MOL0     H29246   2.756   5.617   3.179 -1.9102 -1.1174 -0.0233
  217MOL0     H29247   2.992   5.650   3.037  1.4555 -0.6843 -0.5099
  217MOL0     H29248   3.099   5.507   3.048  0.4872 -1.2014  0.4609
  217MOL0     H29249   2.961   5.395   2.872 -1.2701 -0.5087 -3.2524
  217MOL0     H29250   2.834   5.515   2.880 -0.7076  1.3810  1.3700
  217MOL0     H29251   2.976   5.693   2.792 -0.3871  0.8256 -1.5142
  217MOL0     H29252   2.943   5.555   2.683 -2.9621  0.7492  0.9163
  217MOL0     H29253   3.178   5.464   2.747 -0.7848 -0.3093  0.7448
  217MOL0     H29254   3.211   5.606   2.843  1.3117 -2.3476  0.6753
  217MOL0     H29255   3.410   5.583   2.789 -0.3842  0.1347  0.5101
  217MOL0     H29256   3.643   5.612   2.720 -0.1309 -0.8085  1.5002
  217MOL0     H29257   4.017   5.486   2.651 -0.3152 -0.0812 -1.2537
  217MOL0     H29258   4.259   5.500   2.643  1.0723 -0.8614 -1.2868
  217MOL0     H29259   4.407   5.762   2.331 -0.0038  0.5120 -0.4312
  217MOL0     H29260   4.496   5.831   2.467 -0.6104 -0.3444  1.2266
  217MOL0     H29261   4.632   5.612   2.471 -5.1145 -2.0060  1.9667
  217MOL0     H29262   4.549   5.566   2.330 -0.7849 -0.5502  1.7231
  217MOL0     H29263   4.624   5.759   2.195 -1.9262 -0.7260  0.4796
  217MOL0     H29264   4.703   5.837   2.337  0.1371  1.0532 -0.8998
  217MOL0     H29265   4.857   5.735   2.184 -2.2349  0.9401 -1.4085
  217MOL0     H29266   4.799   5.572   2.213  2.7527  0.6341 -0.1285
  217MOL0     H29267   4.890   5.575   2.451 -1.9274  1.4016  0.5523
  217MOL0     H29268   4.865   5.748   2.447  0.1981  1.3058 -1.0251
  217MOL0     H29269   5.083   5.591   2.299  0.8774  0.2336 -1.1216
  217MOL0     H29270   5.076   5.762   2.301 -3.1916 -0.7640 -0.3129
  217MOL0     H29271   5.086   5.690   2.577 -2.0614  1.1704 -1.3261
  217MOL0     H29272   5.177   5.802   2.493 -2.3883  0.5631 -0.3021
  217MOL0     H29273   5.309   5.638   2.375  1.3657 -0.6052 -0.7937
  217MOL0     H29274   5.328   5.633   2.553  0.2493 -2.1161  0.2109
  217MOL0     H29275   4.220   5.845   2.396  0.1951  2.1322  1.5108
  217MOL0     H29276   3.971   5.816   2.393 -0.8877 -0.5007  1.3720
  217MOL0     H29277   3.506   5.780   2.353  0.7123  0.7976  0.1041
  217MOL0     H29278   3.276   5.758   2.419  1.0769 -1.5252 -1.9036
  217MOL0     H29279   1.987   5.391   3.890  1.7284  0.2241  1.0318
  217MOL0     H29280   1.740   5.348   3.872 -0.2819  0.5623 -0.4546
  217MOL0     H29281   1.219   5.578   4.061  2.4030 -2.3059  0.0261
  217MOL0     H29282   1.002   5.482   4.001  1.8747 -1.4557  0.9985
  217MOL0     H29283   0.964   5.210   3.657 -0.0306  1.0570 -1.8344
  217MOL0     H29284   0.863   5.329   3.585  0.3260  0.6033 -0.0959
  217MOL0     H29285   0.699   5.177   3.631 -2.6292  2.3326  1.3108
  217MOL0     H29286   0.697   5.269   3.778  1.6161  0.3456  0.7351
  217MOL0     H29287   0.710   5.044   3.848  0.3644  0.8386 -0.3123
  217MOL0     H29288   0.872   5.096   3.872 -0.6715  0.7150 -0.0983
  217MOL0     H29289   0.801   4.956   3.617  2.3138 -1.1837 -1.1326
  217MOL0     H29290   0.967   5.006   3.677  0.2874  2.2575  1.2723
  217MOL0     H29291   0.913   4.627   3.862 -0.5090  0.6278  2.0486
  217MOL0     H29292   1.149   5.344   3.625 -1.8476 -0.3011 -0.6786
  217MOL0     H29293   1.481   5.360   3.709 -2.1029 -0.5382  2.7541
  217MOL0     H29294   1.369   5.325   3.582  0.1757  2.1907 -2.3267
  217MOL0     H29295   1.440   5.488   3.599  1.9822 -1.1620  1.3446
  218MOL0     O29296   6.058   3.016   5.920  0.6390 -0.7143  0.5484
  218MOL0     C29297   6.105   2.953   6.013 -0.3106  0.2609  0.2474
  218MOL0     O29298   6.178   2.997   6.122  0.1752 -0.9376  0.0370
  218MOL0     C29299   6.168   3.129   6.166 -0.2840 -0.3611 -0.0521
  218MOL0     C29300   6.067   3.223   6.129  0.1537  0.3393 -0.8636
  218MOL0     C29301   6.062   3.346   6.190 -0.0465  0.1340 -0.3510
  218MOL0     C29302   6.161   3.383   6.277  0.3049  0.8313  0.0438
  218MOL0     O29303   6.145   3.505   6.340  0.0053 -0.8645 -0.6503
  218MOL0     C29304   6.255   3.591   6.364 -0.5725  0.4712  0.1891
  218MOL0     C29305   6.222   3.686   6.476 -0.4308  0.6284 -0.5712
  218MOL0     C29306   6.103   3.773   6.447 -0.5725 -0.3960  0.4222
  218MOL0     C29307   6.045   3.819   6.575  0.7495 -0.1623  0.5688
  218MOL0     C29308   5.911   3.891   6.560 -0.4546  0.2193 -0.5633
  218MOL0     C29309   5.935   4.021   6.479  0.0281  0.6203 -0.0714
  218MOL0     C29310   5.817   4.117   6.504 -0.9914 -0.2155  0.6254
  218MOL0     C29311   5.684   4.057   6.451 -0.8102 -0.4352 -0.6202
  218MOL0     N29312   5.587   4.168   6.431  0.4381  0.2723  0.1001
  218MOL0     C29313   5.485   4.201   6.519  0.8629  1.3472  0.2278
  218MOL0     C29314   5.408   4.290   6.440  0.1183  0.6355  0.2048
  218MOL0     C29315   5.288   4.362   6.491 -0.9282 -0.0308 -0.5164
  218MOL0     C29316   5.164   4.265   6.499 -1.7406  0.6537 -0.3918
  218MOL0     C29317   5.045   4.323   6.581 -0.4174  0.1261 -0.6210
  218MOL0     C29318   4.943   4.218   6.593 -0.3336 -0.6805  0.3195
  218MOL0     O29319   4.828   4.271   6.652 -0.3602 -0.5448  0.2285
  218MOL0     C29320   4.744   4.360   6.582  0.2019  0.4424  0.0346
  218MOL0     C29321   4.763   4.412   6.454 -0.4325 -0.6547  0.2277
  218MOL0     C29322   4.675   4.510   6.404 -0.4385  0.8569 -0.1704
  218MOL0     C29323   4.559   4.550   6.471 -0.2248 -0.0017  0.6018
  218MOL0     C29324   4.456   4.641   6.419  0.7103 -0.2563 -0.0957
  218MOL0     O29325   4.336   4.635   6.486 -0.2919  0.1383  0.1332
  218MOL0     C29326   4.218   4.693   6.435 -0.5992 -0.1021 -0.7453
  218MOL0     C29327   4.128   4.617   6.361 -0.0220 -0.4799  0.8824
  218MOL0     C29328   4.011   4.673   6.321  0.2649 -1.0771  0.4481
  218MOL0     C29329   3.982   4.810   6.360  0.0375  0.0872  0.5515
  218MOL0     O29330   3.866   4.871   6.321 -0.5120  0.2425 -1.4225
  218MOL0     C29331   3.868   4.907   6.183  0.4381 -0.0612 -0.4105
  218MOL0     C29332   3.812   5.050   6.165  0.4226 -0.3909 -0.9823
  218MOL0     C29333   3.913   5.160   6.202  0.3066 -0.5705 -0.8764
  218MOL0     C29334   4.032   5.176   6.103 -0.2442  0.4064 -0.1087
  218MOL0     C29335   4.131   5.282   6.150  1.1440  0.3164  0.0594
  218MOL0     C29336   4.233   5.233   6.257  0.1800 -0.3665 -0.0524
  218MOL0     C29337   4.345   5.147   6.187  0.2377 -0.5167 -0.5974
  218MOL0     C29338   4.428   5.070   6.297  0.3134 -0.9183 -0.0556
  218MOL0    Cl29339   4.504   5.185   6.412  0.3370  0.2817 -0.5887
  218MOL0     C29340   4.077   4.882   6.430  1.1615 -0.4675  0.2873
  218MOL0     C29341   4.194   4.820   6.474  0.3331 -0.4140 -0.2062
  218MOL0     O29342   4.479   4.718   6.329  0.1942  0.7378 -0.8535
  218MOL0     C29343   4.544   4.490   6.597  0.1401 -0.3316  0.5217
  218MOL0     C29344   4.637   4.404   6.653  0.5723  0.1739 -0.7546
  218MOL0     N29345   5.465   4.308   6.319 -0.2402  0.7013  0.4083
  218MOL0     N29346   5.563   4.225   6.315 -0.8918 -1.0446  0.1078
  218MOL0     C29347   6.262   3.296   6.310 -0.4493 -0.2096  0.2695
  218MOL0     C29348   6.264   3.172   6.259  0.2285 -0.2316  0.8839
  218MOL0     C29349   6.088   2.812   6.015  0.4884  0.2842 -0.1999
  218MOL0     C29350   5.970   2.752   6.065  0.4601 -0.1036 -0.5328
  218MOL0     C29351   5.948   2.621   6.086  0.7579  0.5772 -0.0094
  218MOL0     C29352   6.056   2.530   6.063 -0.5640 -0.6820 -0.1369
  218MOL0     O29353   6.043   2.391   6.073  0.6383 -0.0779  0.5096
  218MOL0     C29354   6.153   2.302   6.100 -0.2503 -0.1128  0.2311
  218MOL0     C29355   6.094   2.174   6.169 -0.1158  0.5723 -0.0190
  218MOL0     C29356   6.174   2.147   6.298  0.6423 -0.1663  0.3001
  218MOL0     C29357   6.119   2.045   6.393  0.5271 -0.4863  0.2900
  218MOL0     C29358   6.217   2.036   6.507  0.2544  0.0538  0.0013
  218MOL0     C29359   6.290   2.054   6.598  0.6889 -0.8908 -0.2451
  218MOL0     C29360   6.166   2.575   5.998 -0.2616  0.1478 -0.2043
  218MOL0     C29361   6.191   2.717   5.970  0.7322 -0.1817  1.1865
  218MOL0     C29362   6.308   2.762   5.897  0.2818  0.8531 -0.5723
  218MOL0     H29363   5.989   3.196   6.058 -2.4399  1.7155  1.2544
  218MOL0     H29364   5.974   3.410   6.187 -0.0912  0.0659 -0.4800
  218MOL0     H29365   6.333   3.524   6.399  0.4690  0.6012 -1.7401
  218MOL0     H29366   6.286   3.636   6.269 -1.8835  0.3910 -0.2925
  218MOL0     H29367   6.308   3.750   6.498  0.3287 -0.4903 -0.2140
  218MOL0     H29368   6.206   3.624   6.564 -1.7466  1.7841  0.0411
  218MOL0     H29369   6.024   3.731   6.384  0.9985  0.1481 -2.0520
  218MOL0     H29370   6.143   3.862   6.397  2.0641 -2.4359 -1.3412
  218MOL0     H29371   6.025   3.746   6.654 -1.0530  0.8858  1.1488
  218MOL0     H29372   6.115   3.897   6.605  0.4767  0.9797 -1.5352
  218MOL0     H29373   5.844   3.826   6.504  0.2159  0.1759 -1.3522
  218MOL0     H29374   5.861   3.918   6.653  0.0741  1.7253 -0.6894
  218MOL0     H29375   6.029   4.072   6.499 -0.3358  0.3380  2.8093
  218MOL0     H29376   5.945   3.994   6.373 -0.8255 -3.8602  0.7665
  218MOL0     H29377   5.846   4.209   6.453  3.5473 -2.8866 -2.4203
  218MOL0     H29378   5.817   4.135   6.611  0.9356 -1.7953  0.9646
  218MOL0     H29379   5.699   4.004   6.357  0.0093 -0.0228 -0.7244
  218MOL0     H29380   5.639   3.979   6.513 -3.5193 -0.0256 -1.9238
  218MOL0     H29381   5.470   4.170   6.622  1.0453 -2.6503 -0.7775
  218MOL0     H29382   5.317   4.401   6.588  1.4177  2.3108 -2.0397
  218MOL0     H29383   5.262   4.451   6.434 -1.9362 -0.0166 -0.0597
  218MOL0     H29384   5.132   4.226   6.402 -1.0531 -1.9381  0.3430
  218MOL0     H29385   5.207   4.181   6.554 -2.3766  1.3452  1.2359
  218MOL0     H29386   5.013   4.413   6.528 -1.4176 -1.3836 -2.7558
  218MOL0     H29387   5.073   4.351   6.683  0.6172 -3.7171  0.3183
  218MOL0     H29388   4.962   4.138   6.665 -1.9661 -1.5093 -0.1151
  218MOL0     H29389   4.910   4.183   6.495 -1.8783 -0.4774  0.7361
  218MOL0     H29390   4.852   4.399   6.392 -0.3186  3.6174 -0.8397
  218MOL0     H29391   4.702   4.552   6.308 -3.5874 -0.5149 -1.8199
  218MOL0     H29392   4.160   4.519   6.326 -2.6868 -1.5238  1.1370
  218MOL0     H29393   3.944   4.621   6.253  1.1950 -0.3335 -1.1037
  218MOL0     H29394   3.961   4.888   6.127  1.2725  0.0613  0.9093
  218MOL0     H29395   3.797   4.844   6.127  1.4626 -2.8509  1.2053
  218MOL0     H29396   3.776   5.065   6.062 -2.5136  0.1667  0.0076
  218MOL0     H29397   3.719   5.064   6.221  0.7826  1.1028 -0.7229
  218MOL0     H29398   3.861   5.256   6.207  2.3793  0.5897 -0.0196
  218MOL0     H29399   3.960   5.129   6.296  1.4986  0.1843 -1.2005
  218MOL0     H29400   3.988   5.197   6.005 -3.0231  1.2122  1.2033
  218MOL0     H29401   4.088   5.082   6.098  0.3483  0.7216  0.4486
  218MOL0     H29402   4.085   5.377   6.180 -0.0040  0.1467 -1.0839
  218MOL0     H29403   4.186   5.308   6.059 -1.5714  3.6750 -0.8652
  218MOL0     H29404   4.281   5.318   6.308  0.4842 -1.9689  2.4831
  218MOL0     H29405   4.194   5.161   6.329 -0.9499 -2.1216 -2.2997
  218MOL0     H29406   4.414   5.221   6.144  0.4143  1.2329  2.4141
  218MOL0     H29407   4.302   5.078   6.114  0.7536 -1.6493  0.1460
  218MOL0     H29408   4.349   5.010   6.343  0.9629 -0.2977  2.0124
  218MOL0     H29409   4.504   5.001   6.260 -1.2405 -1.5374 -2.2975
  218MOL0     H29410   4.051   4.983   6.460  0.9260  0.1073 -1.6825
  218MOL0     H29411   4.266   4.866   6.542 -4.0385  1.6641  3.6198
  218MOL0     H29412   4.459   4.513   6.659 -0.0003 -0.9365  0.5558
  218MOL0     H29413   4.616   4.353   6.746  0.3859 -1.3057 -1.5873
  218MOL0     H29414   6.343   3.310   6.381 -1.7588 -1.3302  2.0819
  218MOL0     H29415   6.343   3.103   6.290  1.6125 -0.1959 -2.1853
  218MOL0     H29416   5.888   2.816   6.099 -1.0865 -2.4854  0.5367
  218MOL0     H29417   5.851   2.582   6.115  1.7039 -4.1569 -2.3524
  218MOL0     H29418   6.226   2.346   6.168  1.2220 -0.3571 -1.1424
  218MOL0     H29419   6.208   2.268   6.013 -0.2909  1.5903 -0.4932
  218MOL0     H29420   6.091   2.089   6.100 -0.9682 -0.2720  1.0413
  218MOL0     H29421   5.989   2.192   6.193 -1.6928 -1.2870 -4.4910
  218MOL0     H29422   6.204   2.240   6.347  0.5292  0.2838 -0.4693
  218MOL0     H29423   6.261   2.095   6.257 -0.3410 -1.1009 -0.6466
  218MOL0     H29424   6.018   2.082   6.415  0.0223 -0.3343 -1.9963
  218MOL0     H29425   6.106   1.955   6.333  1.5705  1.6640 -3.5219
  218MOL0     H29426   6.350   2.078   6.683  2.5522 -0.3643 -1.6581
  218MOL0     H29427   6.245   2.514   5.955  2.1739  2.5209  0.5937
  218MOL0     H29428   6.278   2.798   5.798  1.6121  0.1877 -1.2335
  218MOL0     H29429   6.356   2.851   5.937  0.8163  0.0907  0.5410
  218MOL0     H29430   6.383   2.684   5.882 -1.2260 -0.9258  0.7220
  219MOL0     O29431   1.833  11.100   4.568 -0.4208 -0.4351 -0.2356
  219MOL0     C29432   1.925  11.019   4.540 -0.6500  0.6717  0.6999
  219MOL0     O29433   1.907  10.877   4.523 -0.6351 -0.1690  0.1120
  219MOL0     C29434   1.778  10.828   4.508  0.0938 -0.8019  0.0139
  219MOL0     C29435   1.747  10.726   4.603 -0.2581 -0.2310  0.6507
  219MOL0     C29436   1.622  10.663   4.599 -0.8076 -0.7224  1.0166
  219MOL0     C29437   1.529  10.706   4.508  0.1135  0.5267 -0.1904
  219MOL0     O29438   1.409  10.643   4.520 -0.5807 -0.1691  0.3031
  219MOL0     C29439   1.288  10.703   4.459  0.3752 -0.0455 -0.5115
  219MOL0     C29440   1.232  10.830   4.523  0.3220 -0.5259  0.3307
  219MOL0     C29441   1.230  10.810   4.669 -0.2606 -0.0004  0.0352
  219MOL0     C29442   1.183  10.939   4.741 -0.1306  0.2511  0.1080
  219MOL0     C29443   1.166  10.897   4.892 -0.3046  0.3514  0.8390
  219MOL0     C29444   1.169  11.017   4.991 -0.2880  0.1149  0.2623
  219MOL0     C29445   1.047  11.099   4.961  0.0434  0.2799  0.4798
  219MOL0     C29446   0.911  11.025   4.979  0.2907  0.7266  0.0329
  219MOL0     N29447   0.908  10.937   5.094 -1.3966  0.5137 -0.5600
  219MOL0     C29448   0.963  10.969   5.217  0.0350  0.2040 -0.7765
  219MOL0     C29449   0.981  10.852   5.286  0.8258 -0.2563  0.7429
  219MOL0     C29450   1.054  10.833   5.409 -0.4072  0.0234  0.9693
  219MOL0     C29451   1.212  10.856   5.387 -0.5621 -0.5979  0.5741
  219MOL0     C29452   1.292  10.843   5.515  0.1691 -0.1624 -0.4804
  219MOL0     C29453   1.439  10.822   5.487 -0.3646  0.4081  1.0941
  219MOL0     O29454   1.497  10.934   5.421  0.5504  0.1671  0.4297
  219MOL0     C29455   1.625  10.945   5.388 -0.3974 -0.7148 -0.1834
  219MOL0     C29456   1.675  11.072   5.373 -0.4018 -0.5967 -0.1698
  219MOL0     C29457   1.808  11.088   5.341  0.1106 -0.1078  0.4648
  219MOL0     C29458   1.903  10.984   5.329 -0.1318 -0.3840  0.5056
  219MOL0     C29459   2.049  10.997   5.326 -0.2989  0.4961 -0.1971
  219MOL0     O29460   2.127  10.895   5.375 -0.7316 -1.4932 -0.3519
  219MOL0     C29461   2.271  10.918   5.383 -0.2694 -0.0693 -1.1209
  219MOL0     C29462   2.340  11.038   5.394  0.4275  0.2538 -0.9258
  219MOL0     C29463   2.480  11.051   5.403 -0.1085  0.1802  0.0584
  219MOL0     C29464   2.552  10.932   5.416 -0.3139  0.0160 -0.2465
  219MOL0     O29465   2.689  10.954   5.415  0.1251 -0.1083  0.6643
  219MOL0     C29466   2.776  10.875   5.506  0.3365 -0.3468  0.1533
  219MOL0     C29467   2.913  10.879   5.451 -0.1884 -0.2960 -0.3699
  219MOL0     C29468   3.003  10.799   5.548  0.1341  0.0746 -0.0523
  219MOL0     C29469   3.131  10.764   5.471  0.6190 -0.1055 -0.1113
  219MOL0     C29470   3.236  10.703   5.563 -0.3435  0.3843  0.7855
  219MOL0     C29471   3.372  10.709   5.494 -0.6996  0.6173 -0.1634
  219MOL0     C29472   3.470  10.637   5.590 -0.0193 -0.8789  0.1713
  219MOL0     C29473   3.605  10.607   5.515  0.5035  0.5320 -0.5937
  219MOL0    Cl29474   3.740  10.614   5.632 -0.1172 -0.3098  0.2246
  219MOL0     C29475   2.480  10.802   5.414  0.4998 -0.3900  0.0478
  219MOL0     C29476   2.347  10.798   5.380  0.3031 -0.0073 -0.0317
  219MOL0     O29477   2.094  11.107   5.292 -0.0321 -0.4416 -0.1899
  219MOL0     C29478   1.846  10.860   5.354  0.7914  1.0245 -0.7669
  219MOL0     C29479   1.716  10.844   5.391  0.7374  0.1067  0.1656
  219MOL0     N29480   0.928  10.754   5.203  0.5193  0.7429  0.0061
  219MOL0     N29481   0.891  10.806   5.090 -0.3532 -0.7021  0.3175
  219MOL0     C29482   1.562  10.800   4.415  0.0899  0.2498 -0.0750
  219MOL0     C29483   1.684  10.871   4.415 -0.6682  0.1734 -0.5549
  219MOL0     C29484   2.062  11.076   4.547  0.1667  0.4221  0.5084
  219MOL0     C29485   2.171  11.000   4.595  0.7311  0.3419 -0.0693
  219MOL0     C29486   2.294  11.056   4.615  0.1767 -0.1563  0.4888
  219MOL0     C29487   2.323  11.189   4.589  0.4047 -0.0246  0.2840
  219MOL0     O29488   2.431  11.254   4.632 -0.2850 -0.5449  0.4231
  219MOL0     C29489   2.535  11.176   4.686 -0.3575 -0.0310  0.0747
  219MOL0     C29490   2.664  11.262   4.710 -0.9018  0.1761  0.6335
  219MOL0     C29491   2.762  11.207   4.818  0.2304 -0.4094 -0.7537
  219MOL0     C29492   2.915  11.246   4.800 -0.0376 -0.5369  0.2755
  219MOL0     C29493   2.991  11.126   4.752 -1.1057  0.1800 -0.5386
  219MOL0     C29494   3.064  11.042   4.708 -0.3060 -0.0845  0.2269
  219MOL0     C29495   2.224  11.261   4.529  0.8727 -0.0093  0.2478
  219MOL0     C29496   2.086  11.214   4.509 -0.8056  1.1403 -0.0041
  219MOL0     C29497   1.990  11.305   4.439 -0.5322 -0.3642  0.5766
  219MOL0     H29498   1.815  10.693   4.682  0.1391  0.8485  0.7679
  219MOL0     H29499   1.586  10.614   4.689 -1.2327  2.9640  3.0859
  219MOL0     H29500   1.316  10.707   4.353  0.4044  1.0804 -0.4788
  219MOL0     H29501   1.205  10.633   4.460 -0.1461  0.5469 -0.9855
  219MOL0     H29502   1.136  10.867   4.487  0.4399  2.1862  2.4563
  219MOL0     H29503   1.303  10.912   4.505 -0.3236 -0.3588 -1.6675
  219MOL0     H29504   1.328  10.784   4.708 -0.8571 -2.1414  0.2087
  219MOL0     H29505   1.173  10.720   4.692  0.4341 -0.2563  0.8091
  219MOL0     H29506   1.260  11.017   4.739  0.9287 -0.6404  2.4926
  219MOL0     H29507   1.087  10.969   4.697  0.4350  0.0869 -1.2769
  219MOL0     H29508   1.078  10.834   4.907 -0.1764  0.2821  1.2975
  219MOL0     H29509   1.246  10.827   4.918  1.1388  1.7546  0.3552
  219MOL0     H29510   1.174  10.989   5.096 -0.0702 -0.0525  0.2092
  219MOL0     H29511   1.252  11.082   4.963  0.3212 -1.8009 -2.9894
  219MOL0     H29512   1.062  11.141   4.861 -4.2246  3.5301  0.9223
  219MOL0     H29513   1.038  11.176   5.038 -1.9636 -1.4239  2.0897
  219MOL0     H29514   0.838  11.106   4.988  0.0612  0.8253 -2.2394
  219MOL0     H29515   0.881  10.975   4.886  1.2332 -3.1838  1.6283
  219MOL0     H29516   1.007  11.064   5.244  0.6624  0.8033 -3.6372
  219MOL0     H29517   1.000  10.887   5.488 -0.0048 -0.6610  1.7325
  219MOL0     H29518   1.038  10.727   5.433 -0.1348  0.4304  3.1898
  219MOL0     H29519   1.243  10.782   5.313 -2.2312  0.1856 -0.9624
  219MOL0     H29520   1.222  10.958   5.348 -0.0949 -1.1832 -0.8979
  219MOL0     H29521   1.250  10.759   5.570  1.8348 -0.6455  0.1216
  219MOL0     H29522   1.286  10.938   5.570  0.7918  0.4847 -1.4902
  219MOL0     H29523   1.453  10.733   5.424  0.2834  2.6808 -2.2295
  219MOL0     H29524   1.483  10.812   5.587  0.6046  3.6623  1.1031
  219MOL0     H29525   1.601  11.151   5.382  1.1672  0.8269  0.7869
  219MOL0     H29526   1.843  11.190   5.333 -1.6738  0.4729 -0.3370
  219MOL0     H29527   2.288  11.129   5.423 -0.2514 -0.5427  0.4246
  219MOL0     H29528   2.529  11.146   5.385  0.4270 -0.1405 -0.1928
  219MOL0     H29529   2.766  10.912   5.608 -2.4938  3.1538 -1.1736
  219MOL0     H29530   2.739  10.772   5.496  1.2162 -0.5325 -1.5235
  219MOL0     H29531   2.919  10.840   5.349  0.9679  1.8841 -1.2065
  219MOL0     H29532   2.944  10.983   5.444  3.4110 -1.1026  1.2546
  219MOL0     H29533   3.024  10.847   5.644  4.8723  0.8037 -1.1969
  219MOL0     H29534   2.963  10.701   5.574  1.2276 -0.0876  1.1189
  219MOL0     H29535   3.167  10.860   5.434 -0.6774  0.8317  0.9542
  219MOL0     H29536   3.115  10.706   5.380  0.7038  4.5721 -3.4951
  219MOL0     H29537   3.211  10.602   5.597  2.0836 -0.5223  0.0632
  219MOL0     H29538   3.246  10.765   5.653 -3.1725  0.2803  1.2710
  219MOL0     H29539   3.374  10.655   5.399  3.1786  4.4760 -2.6810
  219MOL0     H29540   3.397  10.812   5.466  2.1298 -0.9619 -4.4986
  219MOL0     H29541   3.438  10.544   5.636  0.0887 -1.4210 -0.8289
  219MOL0     H29542   3.493  10.715   5.664  2.6139 -0.7520 -0.6797
  219MOL0     H29543   3.595  10.506   5.477 -2.2448 -0.4025  2.1811
  219MOL0     H29544   3.632  10.673   5.432  2.1083  2.1747  1.1102
  219MOL0     H29545   2.545  10.716   5.413  1.0438 -0.0767 -3.4091
  219MOL0     H29546   2.295  10.703   5.368  1.6940 -0.6841 -1.1741
  219MOL0     H29547   1.919  10.782   5.374 -0.3296  0.5579  1.9195
  219MOL0     H29548   1.672  10.748   5.416 -1.2014  0.9942  0.3335
  219MOL0     H29549   1.489  10.826   4.339  2.0055  1.5590 -1.6042
  219MOL0     H29550   1.724  10.948   4.351  1.3682 -0.1764  0.2423
  219MOL0     H29551   2.156  10.894   4.611 -1.7410  0.9954  2.9008
  219MOL0     H29552   2.373  10.991   4.653  1.6041  1.0205 -0.3452
  219MOL0     H29553   2.570  11.094   4.624  1.3742  0.0291  0.9018
  219MOL0     H29554   2.499  11.125   4.776  0.2592  2.1129  1.6186
  219MOL0     H29555   2.618  11.358   4.739 -1.3909  0.4623 -1.0034
  219MOL0     H29556   2.715  11.284   4.616 -0.7724  0.6300  0.8033
  219MOL0     H29557   2.752  11.098   4.817 -1.1503 -0.2925 -1.6221
  219MOL0     H29558   2.731  11.239   4.918  0.7066  0.6515 -0.9259
  219MOL0     H29559   2.930  11.336   4.741 -2.0972 -1.2799 -1.5074
  219MOL0     H29560   2.955  11.267   4.900 -1.8817  1.4285  0.6671
  219MOL0     H29561   3.135  10.969   4.673  2.0938  1.5832  1.3276
  219MOL0     H29562   2.250  11.364   4.508  1.5021  0.6712  3.6428
  219MOL0     H29563   2.033  11.392   4.389  2.0113 -2.3800 -1.0068
  219MOL0     H29564   1.940  11.250   4.358 -0.1887 -2.1562  1.5515
  219MOL0     H29565   1.910  11.347   4.501 -0.3233  3.2261 -1.3274
  220MOL0     O29566   0.076   2.679   4.916 -0.2120  0.3861  0.3314
  220MOL0     C29567   0.013   2.666   5.013  0.2445 -1.4750 -0.2578
  220MOL0     O29568   0.060   2.679   5.142 -0.2454  0.0058 -0.0591
  220MOL0     C29569   0.194   2.707   5.165 -0.0792 -0.2381 -0.1124
  220MOL0     C29570   0.304   2.679   5.087  0.1008 -0.3390 -1.0591
  220MOL0     C29571   0.434   2.713   5.140  0.5644  0.3623  0.1664
  220MOL0     C29572   0.453   2.777   5.263 -0.4091 -0.4266  0.4486
  220MOL0     O29573   0.582   2.819   5.296  0.5156  0.3535 -0.6933
  220MOL0     C29574   0.608   2.805   5.439  0.1415  0.4995 -0.3731
  220MOL0     C29575   0.757   2.815   5.467  0.5683  0.4035  0.0094
  220MOL0     C29576   0.799   2.767   5.611  0.1210 -0.4354 -0.1982
  220MOL0     C29577   0.942   2.790   5.651 -0.0550 -0.5467 -0.1168
  220MOL0     C29578   0.997   2.700   5.762  0.7592  0.4504 -0.1877
  220MOL0     C29579   1.111   2.754   5.835 -0.3675 -0.4167 -0.3232
  220MOL0     C29580   1.215   2.807   5.733 -0.4676 -0.0182  0.6150
  220MOL0     C29581   1.288   2.707   5.649  0.3695  0.3604 -1.3908
  220MOL0     N29582   1.411   2.763   5.587 -0.4031  0.4545  0.1054
  220MOL0     C29583   1.534   2.783   5.650 -0.0607  0.6449  0.5061
  220MOL0     C29584   1.600   2.868   5.563  0.8584  0.2878  0.0600
  220MOL0     C29585   1.728   2.932   5.581 -0.4415 -0.6664 -0.7893
  220MOL0     C29586   1.738   3.009   5.719  0.1766 -0.2124 -0.0911
  220MOL0     C29587   1.876   3.075   5.742 -0.5181  0.3856 -0.4608
  220MOL0     C29588   2.000   2.987   5.750  0.1977 -0.7322 -0.0504
  220MOL0     O29589   1.973   2.871   5.829  0.6843  0.7476  0.0250
  220MOL0     C29590   2.081   2.791   5.855  0.1737 -0.2406  0.1967
  220MOL0     C29591   2.210   2.801   5.797 -0.3817  0.5721  0.0024
  220MOL0     C29592   2.314   2.706   5.831  0.2615  0.4668 -0.4193
  220MOL0     C29593   2.285   2.606   5.924  0.2997 -0.7050  0.3457
  220MOL0     C29594   2.376   2.498   5.960 -0.5939 -0.1204  0.7313
  220MOL0     O29595   2.487   2.480   5.877  0.2542 -0.0450 -0.2102
  220MOL0     C29596   2.571   2.380   5.915  0.2422  0.1791  0.4565
  220MOL0     C29597   2.557   2.249   5.871  0.2514  0.3520  0.8245
  220MOL0     C29598   2.654   2.154   5.893 -0.1351  0.5827 -0.1677
  220MOL0     C29599   2.779   2.181   5.952 -0.6734 -1.0063  1.0275
  220MOL0     O29600   2.891   2.105   5.969 -0.1470 -0.5455 -0.7599
  220MOL0     C29601   2.942   2.027   5.857 -0.3319  0.1303 -0.3769
  220MOL0     C29602   3.028   1.914   5.897 -0.2610  0.0624  0.3135
  220MOL0     C29603   3.125   1.864   5.789 -0.0326 -0.2191 -0.6717
  220MOL0     C29604   3.261   1.810   5.846 -0.9379 -0.7587  0.8360
  220MOL0     C29605   3.359   1.827   5.735 -0.8072 -0.1548  0.3996
  220MOL0     C29606   3.496   1.759   5.758 -0.2997 -0.4540 -0.1632
  220MOL0     C29607   3.598   1.803   5.657 -0.1624 -0.5073 -0.0539
  220MOL0     C29608   3.738   1.779   5.704 -0.6629  0.5795 -0.3354
  220MOL0    Cl29609   3.867   1.820   5.584  0.1654 -0.6221  0.4666
  220MOL0     C29610   2.790   2.310   6.007  0.8986 -1.2266 -0.0973
  220MOL0     C29611   2.686   2.415   5.984  0.2581  0.2180 -0.6280
  220MOL0     O29612   2.344   2.427   6.062  0.5686  0.2709  0.2783
  220MOL0     C29613   2.155   2.604   5.988 -0.0566 -0.1567 -0.8536
  220MOL0     C29614   2.060   2.699   5.958 -0.5727  0.1691 -0.3568
  220MOL0     N29615   1.519   2.898   5.453  0.7765 -0.4875  0.1669
  220MOL0     N29616   1.400   2.833   5.472  0.1562 -0.2640  0.9811
  220MOL0     C29617   0.345   2.811   5.340 -0.5275  0.0034 -0.1102
  220MOL0     C29618   0.218   2.773   5.287 -0.3527  0.2721  0.1337
  220MOL0     C29619  -0.124   2.623   4.997 -0.1719  0.2725 -0.2023
  220MOL0     C29620  -0.218   2.658   5.096 -0.0516  0.5114 -0.6091
  220MOL0     C29621  -0.354   2.621   5.089  0.4839 -0.7933  0.4383
  220MOL0     C29622  -0.400   2.549   4.979 -0.1415  1.0341 -0.7589
  220MOL0     O29623  -0.530   2.512   4.963 -1.0235 -0.1012  0.8681
  220MOL0     C29624  -0.636   2.583   5.027 -0.1764 -0.5008  0.0444
  220MOL0     C29625  -0.772   2.553   4.970 -0.6936 -0.3930  0.3094
  220MOL0     C29626  -0.800   2.406   4.956 -0.0354 -0.0594 -1.0909
  220MOL0     C29627  -0.941   2.374   4.899  0.2855 -0.5866  0.0121
  220MOL0     C29628  -0.987   2.236   4.923  0.0708  0.0745  0.2818
  220MOL0     C29629  -1.025   2.129   4.957  0.5626  0.7867  0.3215
  220MOL0     C29630  -0.302   2.507   4.887  0.2174 -0.1908 -0.4784
  220MOL0     C29631  -0.171   2.542   4.886 -0.8478  0.5697  0.2955
  220MOL0     C29632  -0.089   2.476   4.773  0.3596  0.2684  0.4311
  220MOL0     H29633   0.302   2.649   4.983  0.3161  0.2279 -1.2293
  220MOL0     H29634   0.513   2.699   5.066  1.1724  0.4256  0.7897
  220MOL0     H29635   0.542   2.871   5.497 -1.0075 -0.9041 -0.0123
  220MOL0     H29636   0.581   2.702   5.466  1.8645 -0.5998 -2.5168
  220MOL0     H29637   0.781   2.921   5.450 -2.7897  1.2298 -0.2544
  220MOL0     H29638   0.814   2.757   5.394  1.0589  2.3229 -1.2116
  220MOL0     H29639   0.797   2.658   5.609  0.6330 -0.5417  1.8992
  220MOL0     H29640   0.728   2.808   5.684 -2.4216  0.4486 -2.9907
  220MOL0     H29641   1.001   2.765   5.563  2.4983 -0.9233  1.5742
  220MOL0     H29642   0.960   2.897   5.665  1.7542 -0.9402  0.9265
  220MOL0     H29643   0.918   2.683   5.836 -1.1313  2.3353 -1.6540
  220MOL0     H29644   1.030   2.604   5.721  0.8528  1.0411 -1.5672
  220MOL0     H29645   1.080   2.834   5.903  3.6432  2.2725 -1.3146
  220MOL0     H29646   1.163   2.686   5.904 -0.9997 -1.4302 -0.8186
  220MOL0     H29647   1.292   2.844   5.801 -0.7588 -1.0403  1.5102
  220MOL0     H29648   1.175   2.880   5.662 -1.6592 -0.4054  0.8737
  220MOL0     H29649   1.304   2.619   5.711  0.1374 -0.1093 -1.9913
  220MOL0     H29650   1.219   2.675   5.571  2.4386 -3.6209 -1.8071
  220MOL0     H29651   1.565   2.741   5.745  0.9154  0.0198 -0.0727
  220MOL0     H29652   1.798   2.849   5.562  1.8779  1.0300 -0.0523
  220MOL0     H29653   1.731   3.008   5.503 -3.2001  0.9847  0.5434
  220MOL0     H29654   1.663   3.087   5.708 -0.0960 -0.6299 -1.4610
  220MOL0     H29655   1.704   2.960   5.810  1.6169  1.8400  1.6297
  220MOL0     H29656   1.870   3.123   5.840 -0.2618 -1.7864  0.6809
  220MOL0     H29657   1.891   3.152   5.665 -0.0471  0.0976 -0.6609
  220MOL0     H29658   2.077   3.057   5.783 -1.7350  1.3436  0.2884
  220MOL0     H29659   2.028   2.950   5.651 -1.9818 -2.2349 -0.1760
  220MOL0     H29660   2.241   2.883   5.733 -0.4275 -1.8597 -3.4070
  220MOL0     H29661   2.414   2.715   5.790  0.5103 -1.1555 -0.2366
  220MOL0     H29662   2.472   2.222   5.810  1.5486 -1.9565 -0.0946
  220MOL0     H29663   2.637   2.055   5.853 -0.3910  1.0720 -1.3297
  220MOL0     H29664   2.861   2.015   5.784 -0.9835 -0.0894  0.3672
  220MOL0     H29665   3.012   2.096   5.809  0.4842 -0.8090 -0.5710
  220MOL0     H29666   3.084   1.946   5.986 -3.2888 -0.8683  2.7162
  220MOL0     H29667   2.968   1.831   5.935  0.8675 -0.8754  0.0918
  220MOL0     H29668   3.080   1.792   5.720  1.3184  0.6048 -2.5034
  220MOL0     H29669   3.149   1.957   5.736 -2.0428 -0.6756 -2.5545
  220MOL0     H29670   3.258   1.702   5.863  2.0155 -0.9820  0.4695
  220MOL0     H29671   3.286   1.863   5.939 -1.5706 -0.1870  0.6891
  220MOL0     H29672   3.365   1.935   5.717 -0.1183 -0.8032 -4.5901
  220MOL0     H29673   3.315   1.790   5.642 -1.3099  3.0609 -0.7811
  220MOL0     H29674   3.545   1.797   5.849  1.2461  0.7649 -1.4322
  220MOL0     H29675   3.490   1.652   5.780 -1.6685 -0.0822  1.4617
  220MOL0     H29676   3.601   1.911   5.641  2.7084 -0.5775 -0.6395
  220MOL0     H29677   3.587   1.746   5.565  1.3066  1.2604 -1.3989
  220MOL0     H29678   3.755   1.842   5.792 -2.6969  1.1856 -0.3173
  220MOL0     H29679   3.751   1.674   5.729 -0.4797 -0.0552 -2.8394
  220MOL0     H29680   2.882   2.335   6.059 -0.3832 -1.5131  2.4513
  220MOL0     H29681   2.692   2.517   6.020  1.0569  0.8817 -2.5195
  220MOL0     H29682   2.125   2.526   6.057 -0.2681  2.5440  2.3424
  220MOL0     H29683   1.966   2.694   6.012 -0.6226 -0.1891 -0.4702
  220MOL0     H29684   0.352   2.868   5.432  0.8098 -1.7812  0.9536
  220MOL0     H29685   0.123   2.798   5.332 -1.7083  0.8095 -2.8146
  220MOL0     H29686  -0.184   2.736   5.163  0.9764 -1.1375  0.8790
  220MOL0     H29687  -0.436   2.655   5.152  0.7314 -0.6821  0.6990
  220MOL0     H29688  -0.612   2.690   5.024  2.3728 -1.0063  0.4695
  220MOL0     H29689  -0.635   2.546   5.130  0.5714 -0.4948  0.0435
  220MOL0     H29690  -0.780   2.596   4.869 -2.0280 -1.1924  0.0508
  220MOL0     H29691  -0.831   2.621   5.032  3.0936  1.3246  2.3130
  220MOL0     H29692  -0.791   2.355   5.052 -0.4553  1.0664 -0.4398
  220MOL0     H29693  -0.713   2.363   4.905  0.0787 -0.7894 -0.2877
  220MOL0     H29694  -1.012   2.440   4.949 -0.3890 -1.6409  0.4908
  220MOL0     H29695  -0.941   2.395   4.791 -2.7301  1.1130  0.2327
  220MOL0     H29696  -1.060   2.031   4.981 -2.9858  1.9287  0.2887
  220MOL0     H29697  -0.337   2.438   4.810  3.2362 -1.3363 -0.9511
  220MOL0     H29698  -0.048   2.557   4.712 -2.3076  0.5329 -1.1993
  220MOL0     H29699   0.001   2.425   4.808  1.8656  2.0622 -0.6261
  220MOL0     H29700  -0.144   2.410   4.704  1.6124  1.3652 -1.7099
  221MOL0     O29701   4.062   1.989   8.316  0.3066 -0.0625  0.7958
  221MOL0     C29702   4.009   2.003   8.426 -0.3091 -0.3154  0.5340
  221MOL0     O29703   3.917   2.092   8.460  0.4019  0.0086  0.8271
  221MOL0     C29704   3.870   2.176   8.361  0.4647  0.6932  0.8391
  221MOL0     C29705   3.947   2.284   8.327 -0.7699 -0.0129  0.1717
  221MOL0     C29706   3.893   2.373   8.238 -0.4384 -0.8723  0.7655
  221MOL0     C29707   3.769   2.352   8.167 -0.8985 -0.2253 -1.3708
  221MOL0     O29708   3.728   2.431   8.064  0.0586 -0.3052  0.6475
  221MOL0     C29709   3.590   2.477   8.070 -0.7953 -0.4931  0.7692
  221MOL0     C29710   3.494   2.408   7.975 -0.1488 -0.5336  0.3170
  221MOL0     C29711   3.349   2.385   8.025  0.4161  0.1222 -0.6449
  221MOL0     C29712   3.276   2.521   8.032  0.0908 -0.8397 -0.0339
  221MOL0     C29713   3.150   2.486   8.113  0.8610  0.8158 -0.1912
  221MOL0     C29714   3.059   2.370   8.068 -1.3644  0.4009  0.1344
  221MOL0     C29715   2.910   2.396   8.109 -0.4526 -0.3027 -0.6033
  221MOL0     C29716   2.846   2.453   7.979  0.5807  0.2162  0.0295
  221MOL0     N29717   2.709   2.500   7.991 -0.2163  0.5499  0.7884
  221MOL0     C29718   2.668   2.598   8.077  0.4796 -0.3160 -0.1775
  221MOL0     C29719   2.535   2.604   8.049  0.8003 -0.9010  0.5074
  221MOL0     C29720   2.430   2.668   8.132 -0.0609 -0.2552  0.0720
  221MOL0     C29721   2.399   2.564   8.236  0.4332 -0.1683  0.3060
  221MOL0     C29722   2.307   2.624   8.348 -0.3307 -0.1775 -0.0367
  221MOL0     C29723   2.383   2.712   8.451  0.1181 -0.3654  0.4803
  221MOL0     O29724   2.518   2.654   8.470 -0.8509  0.3325  0.3889
  221MOL0     C29725   2.626   2.720   8.423 -0.1029 -0.5754  0.3894
  221MOL0     C29726   2.637   2.852   8.362 -0.0875  0.2193  0.0715
  221MOL0     C29727   2.767   2.900   8.335  0.0577 -0.2462 -1.4897
  221MOL0     C29728   2.881   2.829   8.373  0.6519 -0.5140  0.4224
  221MOL0     C29729   3.010   2.882   8.341  0.2860 -0.2586  0.4620
  221MOL0     O29730   3.112   2.795   8.350  0.5970 -0.1499  0.1306
  221MOL0     C29731   3.243   2.815   8.315  0.4297 -0.1217 -0.1669
  221MOL0     C29732   3.334   2.712   8.353  0.6398 -0.2143 -0.7006
  221MOL0     C29733   3.468   2.727   8.314 -0.7076 -0.8615 -0.1015
  221MOL0     C29734   3.510   2.832   8.241 -0.8257  0.3447 -0.5475
  221MOL0     O29735   3.647   2.833   8.215  0.1510 -0.0997 -0.3343
  221MOL0     C29736   3.700   2.943   8.139 -0.3958  0.1476 -0.2543
  221MOL0     C29737   3.822   2.885   8.054 -0.1083 -1.1279  0.1003
  221MOL0     C29738   3.814   2.744   8.002  0.2137  0.1311 -0.2794
  221MOL0     C29739   3.949   2.722   7.921 -0.5242  0.3018 -0.1226
  221MOL0     C29740   4.074   2.712   8.013  1.1182  0.5288 -0.6879
  221MOL0     C29741   4.201   2.720   7.944 -0.7225  0.4934  0.4426
  221MOL0     C29742   4.257   2.854   7.911  1.3425 -0.1738  0.2774
  221MOL0     C29743   4.391   2.838   7.853  0.3600  0.0143  0.2187
  221MOL0    Cl29744   4.448   3.000   7.818 -0.6329 -0.1236 -0.1454
  221MOL0     C29745   3.423   2.937   8.194 -0.2666  0.1744 -0.1499
  221MOL0     C29746   3.293   2.930   8.245 -0.3711 -0.4341  0.0385
  221MOL0     O29747   3.014   3.002   8.317 -0.0118  0.0125  0.1555
  221MOL0     C29748   2.864   2.710   8.430 -0.1560  0.2413  0.3160
  221MOL0     C29749   2.744   2.656   8.456  0.0870 -0.6457 -0.3165
  221MOL0     N29750   2.505   2.511   7.950 -0.1429 -0.0888 -0.7883
  221MOL0     N29751   2.609   2.447   7.918  0.3102 -0.4230  0.0799
  221MOL0     C29752   3.706   2.231   8.198  0.3248 -0.3040 -0.0509
  221MOL0     C29753   3.749   2.147   8.302  0.1633  0.2396  0.0892
  221MOL0     C29754   4.051   1.907   8.537  0.0320  0.1968 -0.1833
  221MOL0     C29755   4.018   1.954   8.666  0.3434  1.5326  0.0633
  221MOL0     C29756   4.033   1.873   8.779  0.3389  0.5811 -0.2815
  221MOL0     C29757   4.107   1.754   8.763  0.5232  0.5202  0.5460
  221MOL0     O29758   4.140   1.664   8.869 -0.6183 -1.1125  0.3823
  221MOL0     C29759   4.090   1.712   8.989 -1.1144 -0.9692  0.2477
  221MOL0     C29760   4.154   1.622   9.097 -0.0202 -0.2763 -0.1379
  221MOL0     C29761   4.113   1.691   9.230  0.5723  0.1885 -0.7198
  221MOL0     C29762   4.209   1.809   9.258 -0.2313  0.4905 -0.4534
  221MOL0     C29763   4.329   1.774   9.335 -0.2502 -0.4418  1.0364
  221MOL0     C29764   4.424   1.737   9.404 -0.4729 -0.1451  0.6957
  221MOL0     C29765   4.143   1.710   8.631 -0.0777 -0.4902 -0.0459
  221MOL0     C29766   4.117   1.784   8.511 -0.1701  0.4961 -0.1706
  221MOL0     C29767   4.152   1.732   8.370 -0.9943 -0.5285  0.1010
  221MOL0     H29768   4.043   2.306   8.371 -1.1866  1.5515  0.3739
  221MOL0     H29769   3.946   2.464   8.212 -1.9508 -0.1891 -0.0439
  221MOL0     H29770   3.563   2.463   8.175  0.8026 -2.6323  0.9722
  221MOL0     H29771   3.583   2.584   8.049 -0.4375 -0.0964  2.5111
  221MOL0     H29772   3.534   2.309   7.949  1.8686  0.7819 -1.9531
  221MOL0     H29773   3.482   2.459   7.879  1.7197  1.2258  0.9354
  221MOL0     H29774   3.351   2.334   8.122  1.4290 -0.1459 -0.7895
  221MOL0     H29775   3.297   2.314   7.960  1.3776 -0.2231 -1.0542
  221MOL0     H29776   3.334   2.594   8.088 -0.8991 -0.3506  0.3819
  221MOL0     H29777   3.249   2.569   7.938 -3.4277  2.3105  2.2748
  221MOL0     H29778   3.177   2.475   8.218 -0.1700  0.1245  0.0182
  221MOL0     H29779   3.092   2.577   8.093 -0.9372 -0.2604 -0.1021
  221MOL0     H29780   3.061   2.337   7.963  0.7001  2.9813 -0.7330
  221MOL0     H29781   3.097   2.282   8.120 -1.6357 -0.0339 -0.3894
  221MOL0     H29782   2.903   2.454   8.201  0.6270 -1.1089  0.0192
  221MOL0     H29783   2.851   2.305   8.122 -0.9611  0.2838  1.5417
  221MOL0     H29784   2.900   2.545   7.954 -0.2028  0.9482  0.9539
  221MOL0     H29785   2.847   2.375   7.902 -1.9320 -0.9796  1.0849
  221MOL0     H29786   2.740   2.653   8.137  0.6055  0.0357 -0.6401
  221MOL0     H29787   2.461   2.762   8.179  0.9981  0.1887 -1.4185
  221MOL0     H29788   2.354   2.688   8.055  0.9116  4.9841  0.0731
  221MOL0     H29789   2.344   2.492   8.174  1.1811 -0.6893  0.2319
  221MOL0     H29790   2.486   2.510   8.277 -0.0633 -1.4582 -0.2698
  221MOL0     H29791   2.268   2.535   8.398  0.7099 -2.0082 -2.2989
  221MOL0     H29792   2.217   2.680   8.321  0.6754  0.3768 -2.4944
  221MOL0     H29793   2.321   2.714   8.541 -3.2434 -1.0905 -1.6066
  221MOL0     H29794   2.383   2.815   8.416 -1.3878 -0.5442 -0.1471
  221MOL0     H29795   2.553   2.917   8.342 -0.2813  0.0485  0.3392
  221MOL0     H29796   2.774   3.000   8.293  0.9497 -0.4222 -1.7759
  221MOL0     H29797   3.311   2.621   8.407  3.7154  0.5834  2.3169
  221MOL0     H29798   3.538   2.647   8.340  0.5226  0.1533 -0.2080
  221MOL0     H29799   3.629   2.989   8.069  1.2204  1.1882 -1.2911
  221MOL0     H29800   3.740   3.025   8.199 -2.0310  1.6493 -1.1159
  221MOL0     H29801   3.829   2.959   7.974  2.0590 -1.9848 -0.5727
  221MOL0     H29802   3.909   2.897   8.120  0.0660  4.9688 -0.6550
  221MOL0     H29803   3.805   2.673   8.084  0.2491  1.3405  0.7886
  221MOL0     H29804   3.735   2.719   7.930 -0.7949 -0.4453  0.9790
  221MOL0     H29805   3.976   2.804   7.854 -1.2327  0.0936 -0.6738
  221MOL0     H29806   3.931   2.630   7.863  0.5561 -0.1162  0.1677
  221MOL0     H29807   4.068   2.617   8.066  0.7571  0.1845 -1.3273
  221MOL0     H29808   4.074   2.783   8.097  0.6846  1.3692 -1.3783
  221MOL0     H29809   4.273   2.665   8.006  1.0114  2.9621  0.7612
  221MOL0     H29810   4.181   2.653   7.859  0.1659 -2.0424  2.1087
  221MOL0     H29811   4.269   2.913   8.003 -2.0486  1.6300 -0.2716
  221MOL0     H29812   4.197   2.908   7.837  3.2660  2.0395  0.2317
  221MOL0     H29813   4.453   2.791   7.931  2.2781  1.8157 -0.1232
  221MOL0     H29814   4.373   2.779   7.763 -0.4476 -1.4136  1.2823
  221MOL0     H29815   3.442   3.017   8.123 -0.3037  0.7353  0.4678
  221MOL0     H29816   3.231   3.016   8.221 -2.5833 -1.9391  0.1386
  221MOL0     H29817   2.954   2.660   8.465 -0.7825 -0.2991  1.1991
  221MOL0     H29818   2.743   2.560   8.507  1.1824 -0.2563  0.4898
  221MOL0     H29819   3.610   2.203   8.155  0.6516 -0.4678 -0.6886
  221MOL0     H29820   3.695   2.056   8.326  0.0398 -0.2547 -1.8899
  221MOL0     H29821   3.961   2.046   8.677 -0.8721  0.7416  0.5614
  221MOL0     H29822   3.996   1.911   8.873  1.5127  1.9359 -0.3373
  221MOL0     H29823   3.981   1.705   8.984 -1.0504 -0.9442 -2.5621
  221MOL0     H29824   4.125   1.815   9.001 -1.6652 -0.9065  1.4451
  221MOL0     H29825   4.263   1.615   9.094  0.1306  0.8360  1.5275
  221MOL0     H29826   4.104   1.525   9.096 -0.1089 -0.2343 -1.7492
  221MOL0     H29827   4.115   1.623   9.315 -0.5513  1.7252  0.5919
  221MOL0     H29828   4.006   1.712   9.232 -0.0975 -2.8187 -1.2093
  221MOL0     H29829   4.228   1.871   9.170 -1.7624 -1.1200 -1.9973
  221MOL0     H29830   4.155   1.879   9.322 -2.7371 -0.0566 -1.8679
  221MOL0     H29831   4.507   1.698   9.459 -0.6155 -1.8370 -0.2367
  221MOL0     H29832   4.202   1.619   8.627  1.5200  0.5359 -0.5644
  221MOL0     H29833   4.055   1.710   8.325 -1.4083  2.3291 -0.6099
  221MOL0     H29834   4.201   1.803   8.303  1.0464 -0.1833  1.8578
  221MOL0     H29835   4.215   1.644   8.381 -1.2034 -0.6647  0.2223
  222MOL0     O29836   6.159   6.334   3.716 -0.9547 -0.0342 -0.4155
  222MOL0     C29837   6.141   6.264   3.619  0.1752 -0.6338 -0.0248
  222MOL0     O29838   6.200   6.153   3.594  0.1242 -0.0835 -0.0889
  222MOL0     C29839   6.321   6.113   3.643  0.0294  0.2420 -0.5751
  222MOL0     C29840   6.323   6.052   3.771  0.3332  0.6097  0.0174
  222MOL0     C29841   6.431   5.973   3.810 -0.4471 -0.3530 -0.1154
  222MOL0     C29842   6.550   5.982   3.736 -0.3086  1.4425 -0.3015
  222MOL0     O29843   6.664   5.905   3.776  0.0325 -0.3644 -0.3750
  222MOL0     C29844   6.755   5.868   3.670 -0.4684  0.2992 -0.3536
  222MOL0     C29845   6.847   5.758   3.719 -0.6077 -0.7837 -0.2154
  222MOL0     C29846   6.780   5.631   3.767  0.2936  0.9427  0.2131
  222MOL0     C29847   6.889   5.520   3.753 -0.6592 -0.3324  0.0567
  222MOL0     C29848   6.835   5.383   3.792 -0.0125 -0.4320  0.1611
  222MOL0     C29849   6.952   5.291   3.798 -0.3354  0.3946  0.4826
  222MOL0     C29850   6.920   5.150   3.764 -0.1711 -0.6179 -1.0837
  222MOL0     C29851   6.865   5.075   3.881 -0.0830  0.4093 -0.6411
  222MOL0     N29852   6.825   4.937   3.858  0.3418  0.4033  0.2024
  222MOL0     C29853   6.888   4.842   3.778 -0.9042 -0.0527 -0.5969
  222MOL0     C29854   6.817   4.727   3.802 -0.6124  1.2261  0.7288
  222MOL0     C29855   6.848   4.589   3.755 -0.3722 -0.1863  0.0512
  222MOL0     C29856   6.765   4.550   3.634  0.6488 -0.5164  0.2803
  222MOL0     C29857   6.826   4.445   3.535  0.2997 -0.4878  0.6586
  222MOL0     C29858   6.739   4.389   3.429 -0.0333 -0.3239  0.2685
  222MOL0     O29859   6.665   4.499   3.364  0.1129 -0.5543 -0.6611
  222MOL0     C29860   6.570   4.469   3.271 -0.3522  0.2048 -0.6353
  222MOL0     C29861   6.478   4.367   3.291 -0.3090 -0.1554 -0.7211
  222MOL0     C29862   6.387   4.327   3.198 -0.0855 -0.7499 -0.5254
  222MOL0     C29863   6.390   4.395   3.071 -0.7722  0.2754 -0.8348
  222MOL0     C29864   6.286   4.355   2.979  0.5110 -0.1011  0.2543
  222MOL0     O29865   6.244   4.441   2.884  0.1095 -0.1405 -0.3289
  222MOL0     C29866   6.128   4.402   2.813  0.1526 -0.5040  0.1694
  222MOL0     C29867   6.108   4.402   2.678 -0.0861  0.1753  0.0916
  222MOL0     C29868   5.982   4.373   2.619  0.5160 -0.3240  0.5922
  222MOL0     C29869   5.880   4.326   2.701 -0.1255 -0.3420 -0.3859
  222MOL0     O29870   5.760   4.289   2.630 -0.3759 -0.3034 -0.1922
  222MOL0     C29871   5.642   4.279   2.714  0.2845 -0.4477 -0.7039
  222MOL0     C29872   5.509   4.256   2.643 -0.1324  0.6646  0.0191
  222MOL0     C29873   5.403   4.243   2.740  0.1121  0.1256 -0.9070
  222MOL0     C29874   5.264   4.269   2.662 -0.1398  0.3044 -0.4065
  222MOL0     C29875   5.143   4.248   2.754 -0.3748 -0.0138  0.6536
  222MOL0     C29876   5.018   4.320   2.709 -0.1581  0.1620  0.5452
  222MOL0     C29877   4.904   4.313   2.814  0.6241  0.8596  0.4808
  222MOL0     C29878   4.809   4.425   2.786  0.0796 -0.1395 -0.4503
  222MOL0    Cl29879   4.654   4.389   2.872  0.3920  0.4045  0.1392
  222MOL0     C29880   5.896   4.328   2.836  0.2473 -0.1212 -0.6455
  222MOL0     C29881   6.012   4.366   2.892  0.1472 -0.4449 -0.0889
  222MOL0     O29882   6.250   4.241   2.990  0.5570  0.6490 -0.8135
  222MOL0     C29883   6.488   4.486   3.042  0.3498  0.4511 -0.1885
  222MOL0     C29884   6.573   4.532   3.143 -0.1362 -0.0962  1.1282
  222MOL0     N29885   6.709   4.757   3.889 -0.2998  0.7463  0.0710
  222MOL0     N29886   6.711   4.881   3.915 -0.0143  0.1294  1.1400
  222MOL0     C29887   6.559   6.077   3.624  0.0724  0.4385  0.0249
  222MOL0     C29888   6.440   6.127   3.571  0.2200 -0.1511  0.4088
  222MOL0     C29889   6.023   6.299   3.538 -0.4760 -0.3482  0.5888
  222MOL0     C29890   6.010   6.241   3.409  0.4257  0.2042 -0.1997
  222MOL0     C29891   5.896   6.247   3.332 -0.2706  0.1780 -0.3467
  222MOL0     C29892   5.794   6.333   3.375 -0.6229 -0.3524  0.8354
  222MOL0     O29893   5.693   6.351   3.288 -0.4297 -0.2747  0.1637
  222MOL0     C29894   5.615   6.477   3.283  0.1640 -0.2755  0.3517
  222MOL0     C29895   5.496   6.472   3.383 -0.0550 -0.1257  0.1950
  222MOL0     C29896   5.406   6.593   3.358 -0.9860 -1.2310  0.8634
  222MOL0     C29897   5.316   6.587   3.235  0.2550  1.2377  0.1459
  222MOL0     C29898   5.204   6.679   3.234 -0.2493  0.3116  0.9160
  222MOL0     C29899   5.101   6.740   3.206  0.1368  0.1453  0.3648
  222MOL0     C29900   5.808   6.394   3.502  0.1250  0.1381 -0.4730
  222MOL0     C29901   5.915   6.381   3.585  0.5286  0.0380  0.6345
  222MOL0     C29902   5.912   6.444   3.725  0.2483 -0.2088  0.4442
  222MOL0     H29903   6.229   6.054   3.826  0.0933 -0.1412 -0.3509
  222MOL0     H29904   6.423   5.911   3.899  0.7061 -1.4445 -0.7406
  222MOL0     H29905   6.703   5.827   3.583  0.7261  0.1133 -1.0013
  222MOL0     H29906   6.810   5.957   3.640  0.3299  0.8728  2.4875
  222MOL0     H29907   6.899   5.803   3.804  0.0542  1.6788 -1.8447
  222MOL0     H29908   6.922   5.741   3.642  0.3245 -0.0866  0.5091
  222MOL0     H29909   6.692   5.608   3.706 -0.5687 -0.2667  1.8360
  222MOL0     H29910   6.746   5.639   3.871  0.2680  3.3889  0.0902
  222MOL0     H29911   6.931   5.534   3.653  1.2621  0.0739  0.8690
  222MOL0     H29912   6.962   5.554   3.828 -0.3779 -1.2727  0.2205
  222MOL0     H29913   6.788   5.398   3.890 -0.8084  0.8248 -0.3932
  222MOL0     H29914   6.764   5.347   3.718  0.0472  0.6096 -0.4296
  222MOL0     H29915   7.021   5.326   3.721 -0.0413  0.6190  0.8425
  222MOL0     H29916   7.008   5.301   3.891  0.2954  0.3463  0.1124
  222MOL0     H29917   7.009   5.096   3.729  0.4316  0.0398 -0.5940
  222MOL0     H29918   6.839   5.137   3.692 -0.2766 -0.8720 -0.9186
  222MOL0     H29919   6.935   5.075   3.964  1.3272 -2.7848 -1.6589
  222MOL0     H29920   6.772   5.125   3.911 -0.1221 -0.1075  0.1219
  222MOL0     H29921   6.978   4.853   3.719 -0.1508 -0.4785  0.4386
  222MOL0     H29922   6.953   4.578   3.725 -0.3282  0.3165 -0.0017
  222MOL0     H29923   6.836   4.520   3.838  1.3922 -2.0401 -1.1299
  222MOL0     H29924   6.667   4.520   3.672  0.5578  1.7478  2.0690
  222MOL0     H29925   6.740   4.638   3.575  2.2381  0.6003  1.1901
  222MOL0     H29926   6.876   4.363   3.587  1.2328 -0.8577 -0.7660
  222MOL0     H29927   6.914   4.484   3.483 -0.2517 -2.6202 -2.0768
  222MOL0     H29928   6.666   4.324   3.478 -0.4353  0.3189  0.5345
  222MOL0     H29929   6.804   4.327   3.367  0.7857 -1.3553  2.0868
  222MOL0     H29930   6.475   4.308   3.382  1.7402 -0.6148 -0.9052
  222MOL0     H29931   6.309   4.255   3.220  1.1147 -1.0099  3.5888
  222MOL0     H29932   6.191   4.424   2.611 -1.9682  0.9223 -2.1614
  222MOL0     H29933   5.980   4.366   2.511  1.5049 -0.8155  0.5962
  222MOL0     H29934   5.658   4.196   2.783  0.6610 -0.4287 -0.7665
  222MOL0     H29935   5.637   4.367   2.779  0.9429 -0.7347 -0.2547
  222MOL0     H29936   5.483   4.342   2.579  0.2135 -0.1850 -1.3110
  222MOL0     H29937   5.529   4.170   2.578 -0.1142  0.3898  0.3839
  222MOL0     H29938   5.404   4.142   2.783 -2.4789  0.4030 -0.0417
  222MOL0     H29939   5.408   4.315   2.822 -1.6818 -0.2629 -0.3950
  222MOL0     H29940   5.259   4.198   2.579  1.8657 -0.1774 -0.1597
  222MOL0     H29941   5.265   4.369   2.617  2.3439  0.1982 -0.7100
  222MOL0     H29942   5.170   4.292   2.851  3.1511 -1.2988  0.3646
  222MOL0     H29943   5.124   4.141   2.764 -1.8316 -0.0699 -1.8215
  222MOL0     H29944   5.032   4.428   2.696 -0.9360  0.7399  3.7046
  222MOL0     H29945   4.969   4.272   2.623 -2.2427  1.8190  0.7203
  222MOL0     H29946   4.943   4.328   2.916  1.0653 -0.1365  0.4707
  222MOL0     H29947   4.851   4.217   2.812  1.1446  0.5681 -1.4829
  222MOL0     H29948   4.848   4.523   2.813 -2.9221  1.3281 -1.0803
  222MOL0     H29949   4.773   4.439   2.683 -0.1884  2.8372 -0.0259
  222MOL0     H29950   5.821   4.287   2.902  1.4186 -0.7715  0.3201
  222MOL0     H29951   6.012   4.378   3.000  0.1816  1.8324 -0.2915
  222MOL0     H29952   6.506   4.531   2.945 -0.1872  1.8555  0.3323
  222MOL0     H29953   6.651   4.604   3.122  0.2181  0.5084  4.0054
  222MOL0     H29954   6.658   6.092   3.583 -0.1027 -2.0004 -1.4998
  222MOL0     H29955   6.437   6.191   3.483 -0.7403 -0.1677  0.4184
  222MOL0     H29956   6.097   6.190   3.369  1.5906  1.5125  0.5808
  222MOL0     H29957   5.880   6.191   3.241 -4.0464  2.1985 -1.1596
  222MOL0     H29958   5.578   6.484   3.181  2.4458 -0.2416 -0.5310
  222MOL0     H29959   5.678   6.566   3.298 -0.6723  0.3783  0.0761
  222MOL0     H29960   5.534   6.463   3.485  0.0577  0.9033  0.2507
  222MOL0     H29961   5.441   6.382   3.353  1.3321 -0.7343 -0.6049
  222MOL0     H29962   5.479   6.670   3.331 -2.6251 -0.2728 -1.0764
  222MOL0     H29963   5.352   6.626   3.447 -1.6046  1.6457 -0.4653
  222MOL0     H29964   5.374   6.606   3.144 -1.6425 -2.3734 -2.0929
  222MOL0     H29965   5.277   6.485   3.222  1.9467  0.4006  1.2668
  222MOL0     H29966   5.005   6.783   3.189  1.0898  3.0380  1.5991
  222MOL0     H29967   5.725   6.452   3.542 -0.7157 -3.3217  3.6765
  222MOL0     H29968   5.985   6.526   3.728  0.4759 -0.4456  2.1690
  222MOL0     H29969   5.815   6.493   3.736  0.6349  0.1026  2.9919
  222MOL0     H29970   5.928   6.378   3.810  2.6730  2.5970  2.3685
  223MOL0     O29971   6.291   3.953   4.540 -0.4546 -0.2166  0.4137
  223MOL0     C29972   6.172   3.919   4.520 -0.4974 -0.2678  0.3150
  223MOL0     O29973   6.113   3.892   4.390 -0.4268 -0.2805 -0.3521
  223MOL0     C29974   6.208   3.865   4.295 -0.2897 -0.6213 -0.4402
  223MOL0     C29975   6.248   3.739   4.277  0.2910  0.5583  0.5786
  223MOL0     C29976   6.339   3.706   4.179 -0.3115  0.1900  1.1579
  223MOL0     C29977   6.383   3.816   4.097  0.1960  0.0151  0.0408
  223MOL0     O29978   6.473   3.813   4.000  0.9317  0.3541  0.4240
  223MOL0     C29979   6.472   3.696   3.924  0.0711 -0.0208 -0.0135
  223MOL0     C29980   6.529   3.754   3.786  0.3559 -0.2554  0.1077
  223MOL0     C29981   6.681   3.805   3.783 -0.1493 -0.2023  0.2611
  223MOL0     C29982   6.787   3.691   3.791  0.3959  0.7584 -0.6485
  223MOL0     C29983   6.930   3.748   3.776 -0.7382 -0.3166  0.0610
  223MOL0     C29984   7.031   3.626   3.801 -0.4873 -0.2053  0.2921
  223MOL0     C29985   7.141   3.658   3.897  0.4992  0.0624  0.4871
  223MOL0     C29986   7.266   3.573   3.868  0.5158 -0.1139 -0.1977
  223MOL0     N29987   7.347   3.528   3.978 -0.4488 -0.6238  1.0212
  223MOL0     C29988   7.400   3.606   4.080 -0.2522 -0.3158  0.1769
  223MOL0     C29989   7.467   3.517   4.157  0.6322  0.2740 -0.2803
  223MOL0     C29990   7.545   3.557   4.282  0.1407  0.8224  0.1862
  223MOL0     C29991   7.686   3.595   4.249 -0.4419 -0.9712 -0.6714
  223MOL0     C29992   7.766   3.500   4.153  0.6749  0.4669 -0.3704
  223MOL0     C29993   7.916   3.490   4.170 -0.3528 -1.2546 -0.4389
  223MOL0     O29994   7.962   3.378   4.093 -0.0194  0.2066  0.1118
  223MOL0     C29995   8.082   3.392   4.029  0.4587 -0.9777  0.1898
  223MOL0     C29996   8.167   3.500   4.049 -0.7686 -0.2198  0.9849
  223MOL0     C29997   8.292   3.507   3.988 -0.1912 -0.5316 -0.9604
  223MOL0     C29998   8.340   3.393   3.924 -0.4463  0.1489 -0.5838
  223MOL0     C29999   8.482   3.385   3.879  0.2373  1.2896 -0.9220
  223MOL0     O30000   8.566   3.487   3.926  0.9852  0.3410  0.1252
  223MOL0     C30001   8.701   3.494   3.879 -0.3339 -1.1126  0.7336
  223MOL0     C30002   8.737   3.592   3.778 -0.5971 -0.5788  0.5030
  223MOL0     C30003   8.863   3.610   3.736 -0.7186  0.7569 -0.3269
  223MOL0     C30004   8.963   3.519   3.779 -0.2294 -0.7621  0.0197
  223MOL0     O30005   9.087   3.537   3.719 -0.2267  0.3517 -1.2506
  223MOL0     C30006   9.203   3.491   3.793 -0.1022  0.7696 -0.6779
  223MOL0     C30007   9.320   3.537   3.703 -0.4557 -0.7110 -0.0163
  223MOL0     C30008   9.444   3.516   3.781  0.2426  0.8209  0.1221
  223MOL0     C30009   9.571   3.577   3.730  0.5820  0.4922  0.4493
  223MOL0     C30010   9.695   3.547   3.816  0.0437  0.6110 -0.3862
  223MOL0     C30011   9.733   3.400   3.799 -0.6169 -0.4178  0.5414
  223MOL0     C30012   9.890   3.387   3.818  0.3225 -0.8512  0.1459
  223MOL0     C30013   9.934   3.243   3.840  0.9439  0.2038 -1.0477
  223MOL0    Cl30014  10.111   3.248   3.847  0.5617 -0.0814  0.0257
  223MOL0     C30015   8.924   3.413   3.866 -0.8130  0.2924 -0.5488
  223MOL0     C30016   8.799   3.400   3.914  0.2016  0.6875 -0.3739
  223MOL0     O30017   8.521   3.295   3.802  0.0177 -0.2408 -0.2074
  223MOL0     C30018   8.252   3.283   3.900  0.7867 -0.0201  0.5661
  223MOL0     C30019   8.126   3.288   3.951 -0.0086  0.4961  0.0710
  223MOL0     N30020   7.462   3.398   4.092 -1.0542 -0.6666 -0.4607
  223MOL0     N30021   7.393   3.405   3.988  0.0091 -0.3132  0.4039
  223MOL0     C30022   6.342   3.943   4.115  0.8236 -0.6358 -0.5130
  223MOL0     C30023   6.254   3.967   4.216 -0.2610 -0.4065 -0.2222
  223MOL0     C30024   6.082   3.882   4.628  0.8253 -0.5111 -0.3152
  223MOL0     C30025   5.938   3.874   4.594  0.7170 -0.6814  0.3545
  223MOL0     C30026   5.853   3.809   4.683  0.6150  0.0958 -0.5201
  223MOL0     C30027   5.896   3.754   4.798 -0.2098  0.2679  0.5764
  223MOL0     O30028   5.809   3.667   4.861  0.2511  0.4017 -0.4324
  223MOL0     C30029   5.850   3.537   4.922 -0.7321 -0.6104  0.8347
  223MOL0     C30030   5.723   3.461   4.948 -0.8615 -0.2159 -0.0974
  223MOL0     C30031   5.633   3.451   4.825 -0.0313  0.0213  0.7517
  223MOL0     C30032   5.521   3.349   4.842 -0.9181 -0.0855  0.6097
  223MOL0     C30033   5.418   3.364   4.740  0.0491  0.1631  0.3510
  223MOL0     C30034   5.325   3.356   4.667  0.2333 -0.6060 -0.4275
  223MOL0     C30035   6.029   3.764   4.838 -0.0271  0.3973 -0.1281
  223MOL0     C30036   6.126   3.823   4.756  0.0078 -0.8169  0.0681
  223MOL0     C30037   6.273   3.804   4.792  0.2227  0.2170  0.0961
  223MOL0     H30038   6.228   3.665   4.353  2.3737 -2.1084 -1.2741
  223MOL0     H30039   6.369   3.602   4.181  0.4643  0.3303 -0.7860
  223MOL0     H30040   6.542   3.627   3.972  1.2807 -0.3769 -2.1498
  223MOL0     H30041   6.377   3.643   3.912  0.2582 -0.6457  1.0825
  223MOL0     H30042   6.466   3.842   3.766 -1.6118 -1.3740  1.1215
  223MOL0     H30043   6.513   3.678   3.709  0.4867 -0.3312  0.1541
  223MOL0     H30044   6.708   3.873   3.864  0.7726  1.9208 -1.7024
  223MOL0     H30045   6.706   3.864   3.694 -0.0103 -1.4286 -0.5347
  223MOL0     H30046   6.766   3.645   3.888  1.6032 -0.8433 -1.0976
  223MOL0     H30047   6.767   3.618   3.712 -1.4616  2.3074 -1.6998
  223MOL0     H30048   6.970   3.779   3.679  1.3965 -2.6235  0.1110
  223MOL0     H30049   6.964   3.820   3.851  3.1994 -1.4217 -0.4320
  223MOL0     H30050   6.975   3.540   3.840 -1.3582 -0.3365 -1.1726
  223MOL0     H30051   7.074   3.592   3.707  0.2651 -1.2474  0.9881
  223MOL0     H30052   7.107   3.643   4.000 -1.2202 -1.5046 -0.2597
  223MOL0     H30053   7.171   3.762   3.880  1.9507 -0.5181 -0.7772
  223MOL0     H30054   7.248   3.477   3.818 -1.7548 -0.3559  0.9948
  223MOL0     H30055   7.334   3.625   3.800 -1.3713  1.1928 -1.1507
  223MOL0     H30056   7.392   3.713   4.100  3.0246  0.0591  0.1190
  223MOL0     H30057   7.481   3.637   4.323  0.1731  1.6579 -1.3049
  223MOL0     H30058   7.547   3.479   4.358 -3.2248 -1.1820 -1.5304
  223MOL0     H30059   7.683   3.698   4.212  1.4487 -0.5272  0.2715
  223MOL0     H30060   7.736   3.602   4.346 -0.0105 -0.1339 -0.9462
  223MOL0     H30061   7.740   3.512   4.047 -0.7302  1.3545  0.0495
  223MOL0     H30062   7.730   3.400   4.177 -1.1960  1.6299  2.1359
  223MOL0     H30063   7.948   3.482   4.275 -0.8782  4.4477  0.4667
  223MOL0     H30064   7.959   3.587   4.142  1.7170 -1.4708  1.6559
  223MOL0     H30065   8.148   3.598   4.091 -0.2524  1.1213 -1.6827
  223MOL0     H30066   8.343   3.602   3.983 -2.5930  0.8670 -0.2548
  223MOL0     H30067   8.662   3.655   3.730 -0.5417  0.7763  2.1233
  223MOL0     H30068   8.882   3.686   3.661 -0.5948 -0.0545 -1.1234
  223MOL0     H30069   9.194   3.527   3.896 -0.1988 -0.6160 -0.1775
  223MOL0     H30070   9.201   3.382   3.800  0.8182  0.7497 -0.6607
  223MOL0     H30071   9.324   3.473   3.615  0.7583  0.1340 -0.6040
  223MOL0     H30072   9.317   3.641   3.670  0.1970 -0.4783  0.6326
  223MOL0     H30073   9.439   3.566   3.878 -2.1198 -0.4462  0.7236
  223MOL0     H30074   9.461   3.409   3.789 -0.6427  0.8121  2.4988
  223MOL0     H30075   9.565   3.686   3.732 -2.6017  0.3889  0.8091
  223MOL0     H30076   9.579   3.530   3.631 -4.3495 -2.8123  1.2797
  223MOL0     H30077   9.685   3.573   3.922  3.3660  1.5744 -0.1956
  223MOL0     H30078   9.769   3.608   3.764  2.2700 -1.6645 -0.0656
  223MOL0     H30079   9.689   3.336   3.876  2.7867 -2.1078  1.2390
  223MOL0     H30080   9.716   3.361   3.699 -0.4034  1.4242 -0.2575
  223MOL0     H30081   9.900   3.448   3.909 -3.7663  0.2974  0.0340
  223MOL0     H30082   9.930   3.434   3.728 -1.6003  2.4768  0.8385
  223MOL0     H30083   9.894   3.210   3.937  0.5390 -2.1992 -1.9693
  223MOL0     H30084   9.902   3.176   3.760 -0.8020  0.5593 -0.7018
  223MOL0     H30085   9.009   3.347   3.887  0.2255  0.6200 -3.2600
  223MOL0     H30086   8.762   3.319   3.977 -2.6030  1.8058 -0.4583
  223MOL0     H30087   8.274   3.187   3.855 -0.7808  0.6335 -1.7529
  223MOL0     H30088   8.063   3.201   3.939 -1.3740  1.7423 -2.7255
  223MOL0     H30089   6.390   4.019   4.055  1.8235  0.5319  1.6203
  223MOL0     H30090   6.232   4.068   4.249  1.5992  0.1828 -0.6705
  223MOL0     H30091   5.901   3.911   4.499  2.9106 -0.1709 -0.3599
  223MOL0     H30092   5.749   3.790   4.658  0.4886 -0.3217  0.2868
  223MOL0     H30093   5.895   3.581   5.011  1.3388  1.4221 -1.0819
  223MOL0     H30094   5.918   3.486   4.853  1.2197  0.3962  1.9132
  223MOL0     H30095   5.664   3.507   5.028 -2.0856 -0.5816 -0.7622
  223MOL0     H30096   5.747   3.361   4.984  0.5062  0.7211  1.7645
  223MOL0     H30097   5.691   3.416   4.739 -0.9388  0.8173 -0.2071
  223MOL0     H30098   5.591   3.540   4.778 -2.5594 -0.4967  1.8706
  223MOL0     H30099   5.562   3.248   4.838  1.0217  0.5735  2.0745
  223MOL0     H30100   5.478   3.370   4.940  0.8519 -1.5178  1.7762
  223MOL0     H30101   5.234   3.346   4.611  0.3775 -0.0825 -0.7598
  223MOL0     H30102   6.065   3.720   4.930  1.3211  2.0490  0.1910
  223MOL0     H30103   6.295   3.792   4.899  4.5108  1.3001 -0.4931
  223MOL0     H30104   6.322   3.716   4.751 -2.7148 -2.5595  2.0999
  223MOL0     H30105   6.329   3.896   4.772 -0.7063  0.5149 -1.2695
  224MOL0     O30106   7.759   7.188   9.053 -0.1397  0.2999  0.7044
  224MOL0     C30107   7.807   7.274   8.975  0.1246  0.2023  0.4775
  224MOL0     O30108   7.727   7.344   8.887  0.5690  0.0650  0.6317
  224MOL0     C30109   7.591   7.333   8.867  0.0378 -0.1871 -0.6080
  224MOL0     C30110   7.534   7.227   8.791  0.0801 -0.6179  0.5994
  224MOL0     C30111   7.401   7.211   8.774  0.2169 -0.5629  0.4132
  224MOL0     C30112   7.308   7.312   8.818 -0.0615  0.6301 -0.9168
  224MOL0     O30113   7.174   7.312   8.805  0.4573  0.0986 -0.1547
  224MOL0     C30114   7.109   7.206   8.737 -0.5314 -0.8167 -0.0811
  224MOL0     C30115   6.954   7.227   8.729  0.5785 -0.1605  0.8548
  224MOL0     C30116   6.893   7.194   8.858  0.2575 -0.2279  0.0626
  224MOL0     C30117   6.756   7.124   8.847 -0.9659 -0.5897 -0.1405
  224MOL0     C30118   6.672   7.122   8.977  0.1057  0.4303  0.4808
  224MOL0     C30119   6.530   7.072   8.947  0.4495  0.9697 -0.8875
  224MOL0     C30120   6.435   7.092   9.073  0.2457 -0.2659  0.7022
  224MOL0     C30121   6.484   7.016   9.183 -0.0895  0.8521 -0.4401
  224MOL0     N30122   6.393   6.992   9.299 -1.1622 -0.1464 -0.2545
  224MOL0     C30123   6.273   6.924   9.289  0.0815 -0.8960  0.3268
  224MOL0     C30124   6.207   6.937   9.407  0.8499  0.1875  0.5147
  224MOL0     C30125   6.073   6.871   9.436 -1.1195  0.2181 -0.2078
  224MOL0     C30126   5.999   6.916   9.563  0.6019  0.6259  0.3584
  224MOL0     C30127   6.036   6.839   9.699 -0.6349  0.4751  0.4564
  224MOL0     C30128   6.185   6.867   9.739  0.6233 -0.1918 -0.5893
  224MOL0     O30129   6.224   6.838   9.873 -0.3608 -0.2047  0.2625
  224MOL0     C30130   6.349   6.873   9.907  0.6024 -0.9496 -0.9834
  224MOL0     C30131   6.371   6.886  10.046  0.7050  0.1303  1.2742
  224MOL0     C30132   6.492   6.929  10.088  0.0291 -0.3565  0.4193
  224MOL0     C30133   6.604   6.957  10.006  0.4798  0.9005 -0.6344
  224MOL0     C30134   6.736   6.992  10.068  0.2582  0.7845 -0.3277
  224MOL0     O30135   6.732   7.035  10.194 -0.0925  0.0690  0.4517
  224MOL0     C30136   6.846   7.095  10.251  0.0890 -0.1921  0.1622
  224MOL0     C30137   6.932   7.184  10.187  0.4907 -0.5872  1.3525
  224MOL0     C30138   7.043   7.233  10.251 -0.8956 -0.0669 -0.0420
  224MOL0     C30139   7.077   7.201  10.382 -0.1137 -0.2964  0.0340
  224MOL0     O30140   7.207   7.229  10.416 -0.3203  0.1295 -0.3613
  224MOL0     C30141   7.260   7.209  10.547  0.0956  0.0402 -0.2961
  224MOL0     C30142   7.211   7.300  10.662  0.7063 -0.6556 -0.1797
  224MOL0     C30143   7.277   7.270  10.792  0.5871 -0.0622 -0.3886
  224MOL0     C30144   7.199   7.317  10.910  0.1440  0.8252 -0.3856
  224MOL0     C30145   7.284   7.296  11.040 -0.9062  0.3605 -0.1175
  224MOL0     C30146   7.234   7.369  11.158  0.4558  0.6954  0.5526
  224MOL0     C30147   7.271   7.517  11.138  0.6401 -1.0937 -0.8993
  224MOL0     C30148   7.153   7.602  11.178 -0.0155 -0.0805  0.4861
  224MOL0    Cl30149   7.135   7.590  11.353 -0.3769 -0.4997 -0.1036
  224MOL0     C30150   6.990   7.117  10.452  0.9671  0.4415 -0.0235
  224MOL0     C30151   6.872   7.064  10.386 -0.7681  0.1677 -0.2395
  224MOL0     O30152   6.835   6.971   9.995 -0.4269 -0.4785 -0.2669
  224MOL0     C30153   6.578   6.958   9.873 -0.2811  0.8337  0.0139
  224MOL0     C30154   6.456   6.916   9.818  0.5701  0.1386 -0.8232
  224MOL0     N30155   6.295   7.005   9.487 -0.4427 -0.5481  0.4112
  224MOL0     N30156   6.403   7.037   9.424 -0.0813  0.2884 -0.1145
  224MOL0     C30157   7.364   7.414   8.897  0.2554 -0.2568 -0.2007
  224MOL0     C30158   7.503   7.429   8.924 -0.0784  0.2664  0.0378
  224MOL0     C30159   7.954   7.315   8.985  0.6820  0.4403  0.6906
  224MOL0     C30160   7.990   7.434   8.917 -0.0788  0.1374 -0.6476
  224MOL0     C30161   8.120   7.487   8.936  0.0003 -0.1976 -0.1038
  224MOL0     C30162   8.214   7.434   9.016  0.1008  0.2683 -0.3730
  224MOL0     O30163   8.337   7.494   9.024 -0.4367  0.0764 -0.2317
  224MOL0     C30164   8.448   7.405   8.999 -0.7504 -0.0591  0.2182
  224MOL0     C30165   8.556   7.486   8.927  0.1622  0.4821  0.6701
  224MOL0     C30166   8.641   7.575   9.017 -0.0091  0.5398  0.3486
  224MOL0     C30167   8.759   7.645   8.943 -0.5855  0.3623 -0.5159
  224MOL0     C30168   8.862   7.553   8.899  0.1770  0.3558 -0.5931
  224MOL0     C30169   8.951   7.473   8.875  0.1947 -0.3673 -0.0972
  224MOL0     C30170   8.188   7.314   9.087  0.3028  0.3594  0.2249
  224MOL0     C30171   8.058   7.252   9.069 -0.6602  0.4966  0.6277
  224MOL0     C30172   8.031   7.124   9.139 -0.8610  0.5636 -0.4103
  224MOL0     H30173   7.606   7.155   8.753  0.8723  0.3950  0.1505
  224MOL0     H30174   7.368   7.120   8.725  0.2076  0.4337 -1.5436
  224MOL0     H30175   7.146   7.208   8.634  2.9734  0.1708  1.0533
  224MOL0     H30176   7.125   7.106   8.781  1.4179  0.1752  1.6627
  224MOL0     H30177   6.926   7.167   8.642 -0.4776 -0.7167  1.5515
  224MOL0     H30178   6.932   7.334   8.716  0.5864 -0.2046  0.4571
  224MOL0     H30179   6.888   7.285   8.919 -1.8390  0.5389 -1.1421
  224MOL0     H30180   6.963   7.128   8.911  0.2853  2.5684  3.9793
  224MOL0     H30181   6.692   7.183   8.781 -2.6026  1.9740  3.4332
  224MOL0     H30182   6.773   7.023   8.808  3.8270 -0.2286  0.3388
  224MOL0     H30183   6.718   7.049   9.044 -0.0723 -1.3186 -1.2097
  224MOL0     H30184   6.670   7.223   9.020 -2.1943  1.6287 -2.1305
  224MOL0     H30185   6.486   7.123   8.861  2.3562  1.9368 -1.3430
  224MOL0     H30186   6.532   6.963   8.933  0.1115  0.9627 -0.9058
  224MOL0     H30187   6.335   7.061   9.042  0.6517  0.8552 -2.0975
  224MOL0     H30188   6.427   7.200   9.093  0.3383  0.2312 -1.6025
  224MOL0     H30189   6.520   6.915   9.158 -0.2557  0.3463  1.2246
  224MOL0     H30190   6.577   7.063   9.218 -0.4194  1.4586 -0.3732
  224MOL0     H30191   6.241   6.875   9.198  1.5548  0.1299 -0.8097
  224MOL0     H30192   6.011   6.883   9.346 -0.6284 -0.5607 -0.6569
  224MOL0     H30193   6.086   6.764   9.453 -0.7030  0.3880  0.6197
  224MOL0     H30194   6.016   7.024   9.572  0.0191  0.7977 -0.5901
  224MOL0     H30195   5.894   6.900   9.538  0.2572  4.5479 -1.4887
  224MOL0     H30196   6.007   6.735   9.684  1.4319 -0.1853  0.7091
  224MOL0     H30197   5.978   6.877   9.784  0.1351  1.1273  0.7015
  224MOL0     H30198   6.194   6.976   9.735  1.4630 -0.1655  1.2095
  224MOL0     H30199   6.244   6.822   9.658 -0.7194  0.8362 -2.2158
  224MOL0     H30200   6.293   6.852  10.113 -0.5965 -2.3715 -1.3246
  224MOL0     H30201   6.516   6.932  10.194 -0.0146  0.0139  0.4186
  224MOL0     H30202   6.915   7.216  10.085  0.9928  0.6859  1.6508
  224MOL0     H30203   7.104   7.304  10.197  1.5961 -0.3702  2.1487
  224MOL0     H30204   7.243   7.105  10.576  2.4840 -0.7428 -1.4953
  224MOL0     H30205   7.369   7.214  10.543  0.2364  0.2838  2.3386
  224MOL0     H30206   7.232   7.406  10.642  0.5703 -1.1533 -3.4858
  224MOL0     H30207   7.105   7.288  10.685  0.7831  1.4269  1.6274
  224MOL0     H30208   7.303   7.164  10.799  0.4647 -0.1567 -1.2527
  224MOL0     H30209   7.375   7.319  10.790  0.4338  1.3261  5.5428
  224MOL0     H30210   7.099   7.272  10.921 -0.8787  3.1176  0.3513
  224MOL0     H30211   7.170   7.422  10.900  0.2840  0.7911 -1.2208
  224MOL0     H30212   7.384   7.341  11.035 -0.5911  0.0053  2.0640
  224MOL0     H30213   7.290   7.188  11.056 -0.3361  0.5563  1.1402
  224MOL0     H30214   7.127   7.346  11.162  0.5751  0.0203 -0.0359
  224MOL0     H30215   7.290   7.323  11.240  0.0557 -2.5564 -0.8584
  224MOL0     H30216   7.290   7.541  11.033 -0.2141  0.3116 -0.7683
  224MOL0     H30217   7.360   7.540  11.197 -2.2510 -0.0499  3.5339
  224MOL0     H30218   7.157   7.707  11.147  1.5266 -0.3840 -0.4152
  224MOL0     H30219   7.064   7.568  11.124  0.8445  2.3389 -2.7295
  224MOL0     H30220   7.021   7.092  10.553 -0.1408 -2.3823 -0.2871
  224MOL0     H30221   6.805   7.000  10.442  1.5327 -1.8883  0.3661
  224MOL0     H30222   6.661   6.985   9.810  0.7914  1.6707  1.7033
  224MOL0     H30223   6.435   6.893   9.713  0.4015 -1.5233 -0.4578
  224MOL0     H30224   7.302   7.493   8.937 -1.1673 -1.1465 -0.5535
  224MOL0     H30225   7.540   7.508   8.989  2.7740 -1.3515  0.5121
  224MOL0     H30226   7.918   7.484   8.854 -0.3858 -0.5587 -0.8648
  224MOL0     H30227   8.135   7.580   8.882  0.4553 -0.4930 -0.4865
  224MOL0     H30228   8.422   7.325   8.928 -0.9096  0.3275 -0.1585
  224MOL0     H30229   8.466   7.353   9.094 -0.8408 -4.1758 -1.7677
  224MOL0     H30230   8.519   7.542   8.841 -1.2694 -2.1833 -0.5828
  224MOL0     H30231   8.631   7.412   8.897  0.0396  1.2943 -1.8886
  224MOL0     H30232   8.674   7.495   9.084 -0.4098 -0.4903 -0.6474
  224MOL0     H30233   8.590   7.650   9.079 -0.4087  0.0320  0.6462
  224MOL0     H30234   8.731   7.727   8.876  0.4479  2.0476  1.0176
  224MOL0     H30235   8.801   7.692   9.032  0.5545  0.0481 -0.8662
  224MOL0     H30236   9.041   7.416   8.864  1.2502  1.1361  0.4496
  224MOL0     H30237   8.254   7.288   9.169 -0.0605 -0.0880  0.3873
  224MOL0     H30238   8.001   7.050   9.063 -0.3990 -0.9578  0.8371
  224MOL0     H30239   8.117   7.099   9.202 -2.0773  0.9922  1.4722
  224MOL0     H30240   7.947   7.138   9.207 -1.4960 -1.8501 -0.5832
  225MOL0     O30241   7.146   7.875   9.651  0.2831 -1.1157  0.2791
  225MOL0     C30242   7.048   7.806   9.660 -0.3708 -0.0360 -0.4461
  225MOL0     O30243   6.937   7.834   9.741  0.1737  0.4785 -0.3135
  225MOL0     C30244   6.948   7.913   9.853 -0.2324 -0.8483  0.1608
  225MOL0     C30245   6.828   7.922   9.926 -0.3267 -0.4865 -0.3662
  225MOL0     C30246   6.821   8.004  10.039 -0.4797  0.2518  0.0227
  225MOL0     C30247   6.929   8.079  10.078 -0.1449 -0.4577 -0.0141
  225MOL0     O30248   6.926   8.166  10.182  0.6234 -0.0264  0.4601
  225MOL0     C30249   6.848   8.288  10.169  0.5210  0.4725 -0.0890
  225MOL0     C30250   6.922   8.416  10.200  0.5564 -0.4151 -0.5108
  225MOL0     C30251   6.989   8.422  10.337 -0.5794  0.3652  0.4260
  225MOL0     C30252   7.073   8.554  10.367 -0.3150 -0.3416 -0.2058
  225MOL0     C30253   7.153   8.611  10.246  0.2917  0.4890  0.5032
  225MOL0     C30254   7.275   8.689  10.296 -0.2702 -0.7189  0.0873
  225MOL0     C30255   7.223   8.800  10.394 -0.5174 -0.1376  0.1039
  225MOL0     C30256   7.323   8.909  10.388  0.2177 -0.1220 -0.2337
  225MOL0     N30257   7.442   8.873  10.462 -0.7468  0.5422  0.5755
  225MOL0     C30258   7.554   8.942  10.447 -0.2506 -0.8104 -0.1289
  225MOL0     C30259   7.634   8.911  10.555 -0.0946 -0.1049 -0.0237
  225MOL0     C30260   7.762   8.974  10.605 -0.1195 -0.4104  0.2444
  225MOL0     C30261   7.855   9.022  10.489 -0.5659 -0.5110 -0.1774
  225MOL0     C30262   7.983   9.092  10.533 -0.3535 -0.7217 -0.3940
  225MOL0     C30263   7.962   9.232  10.597  0.6390 -0.1153  0.7962
  225MOL0     O30264   8.007   9.334  10.500 -0.2440 -0.7967  0.2162
  225MOL0     C30265   8.138   9.373  10.510  0.0406  0.9098  0.3388
  225MOL0     C30266   8.243   9.290  10.574 -0.6042  0.2099  0.3683
  225MOL0     C30267   8.365   9.354  10.592 -0.4482 -1.6865 -0.4548
  225MOL0     C30268   8.388   9.481  10.544  0.0372  0.5420  0.4665
  225MOL0     C30269   8.523   9.529  10.539 -0.5939 -1.1539  0.3581
  225MOL0     O30270   8.533   9.667  10.523 -0.7057  0.1454 -0.1509
  225MOL0     C30271   8.658   9.726  10.508  0.0300  0.3098  0.1106
  225MOL0     C30272   8.717   9.785  10.609 -0.3257 -0.9849 -0.1318
  225MOL0     C30273   8.847   9.835  10.589 -0.1027  0.1729 -0.5566
  225MOL0     C30274   8.924   9.824  10.475  0.5948 -0.1258  0.0227
  225MOL0     O30275   9.056   9.859  10.474  0.2793  0.3798  0.2865
  225MOL0     C30276   9.109   9.898  10.346 -0.3776 -0.5458 -0.2567
  225MOL0     C30277   9.235   9.967  10.367 -0.7145 -0.6315  0.2892
  225MOL0     C30278   9.294   9.997  10.225 -0.6345  0.6095  0.2708
  225MOL0     C30279   9.451   9.979  10.230  0.1749  0.5688 -0.4821
  225MOL0     C30280   9.511  10.038  10.102 -0.0681 -0.1594  0.2025
  225MOL0     C30281   9.663  10.054  10.113  0.2085  0.8466  0.0923
  225MOL0     C30282   9.718  10.172  10.202  1.5697  0.2287 -0.4228
  225MOL0     C30283   9.867  10.180  10.206  0.5148 -0.3335  0.1652
  225MOL0    Cl30284   9.920  10.353  10.246 -0.7746 -0.2918  0.0240
  225MOL0     C30285   8.855   9.762  10.362  0.1080  0.7382 -0.7933
  225MOL0     C30286   8.717   9.720  10.388 -0.0498  0.1950 -0.4402
  225MOL0     O30287   8.614   9.444  10.539 -0.7673 -0.3266 -0.4867
  225MOL0     C30288   8.283   9.557  10.482  0.1003 -0.5469  0.3381
  225MOL0     C30289   8.162   9.495  10.461 -0.4252  0.1175 -0.4914
  225MOL0     N30290   7.568   8.806  10.622 -0.4843 -0.7235 -0.4064
  225MOL0     N30291   7.453   8.783  10.563 -0.0982 -0.1649  0.1689
  225MOL0     C30292   7.047   8.062  10.005  0.3637 -0.2727 -0.2527
  225MOL0     C30293   7.058   7.989   9.889  0.1026  0.3006  0.3125
  225MOL0     C30294   7.028   7.694   9.568  0.2768  0.5424 -0.6662
  225MOL0     C30295   6.906   7.622   9.579 -0.2214 -0.3024 -0.2967
  225MOL0     C30296   6.871   7.524   9.491  0.1946  0.3243 -0.0433
  225MOL0     C30297   6.959   7.482   9.388 -0.5849 -0.5001 -0.6237
  225MOL0     O30298   6.908   7.383   9.315 -0.0317  0.1666 -0.0678
  225MOL0     C30299   6.987   7.321   9.224 -0.0454 -0.1704  0.6771
  225MOL0     C30300   7.088   7.219   9.283 -0.8861 -0.1815 -0.5703
  225MOL0     C30301   7.022   7.094   9.346 -0.1136  0.0881  0.5065
  225MOL0     C30302   6.993   7.086   9.496 -0.2351 -0.2474  0.6523
  225MOL0     C30303   6.895   6.981   9.529 -0.5150  0.1673  1.0508
  225MOL0     C30304   6.811   6.892   9.550 -0.4937  0.4826 -0.0137
  225MOL0     C30305   7.084   7.542   9.375 -0.5103 -0.6410 -0.5491
  225MOL0     C30306   7.117   7.650   9.464 -0.0975 -2.0380 -0.4895
  225MOL0     C30307   7.263   7.697   9.444 -0.6117 -0.2120 -0.2515
  225MOL0     H30308   6.750   7.861   9.884 -0.2638  0.8513 -2.6183
  225MOL0     H30309   6.735   8.000  10.105 -2.5332  1.7046 -2.3973
  225MOL0     H30310   6.806   8.291  10.069  0.3904 -0.1157 -0.0588
  225MOL0     H30311   6.767   8.274  10.242  0.0177  0.5005 -0.6372
  225MOL0     H30312   6.852   8.501  10.205  0.6835 -0.2703 -1.0945
  225MOL0     H30313   6.996   8.449  10.126  1.8901 -1.0598  0.5156
  225MOL0     H30314   7.055   8.335  10.345 -0.7680 -0.2996 -3.3296
  225MOL0     H30315   6.911   8.417  10.414 -0.5225  2.1326  0.6386
  225MOL0     H30316   7.001   8.629  10.400 -0.7155 -1.0359  0.5136
  225MOL0     H30317   7.149   8.540  10.444  0.3907 -2.7050 -1.2500
  225MOL0     H30318   7.189   8.537  10.173  0.9780  0.3389  0.9900
  225MOL0     H30319   7.084   8.679  10.196 -0.0182  0.0746  0.3550
  225MOL0     H30320   7.352   8.635  10.351  1.3244  1.8238  0.5528
  225MOL0     H30321   7.307   8.739  10.204 -2.0019 -0.4225 -0.3849
  225MOL0     H30322   7.208   8.762  10.496 -0.2003  1.5850  0.8181
  225MOL0     H30323   7.124   8.838  10.367 -1.8666 -1.5344  2.5952
  225MOL0     H30324   7.346   8.946  10.288 -2.0125 -1.4677 -1.3148
  225MOL0     H30325   7.265   8.984  10.445  0.5086  0.6147 -0.8881
  225MOL0     H30326   7.593   9.016  10.378  1.4637  0.2320  1.8431
  225MOL0     H30327   7.739   9.058  10.672 -1.8273 -1.7253  1.4002
  225MOL0     H30328   7.818   8.904  10.667 -0.2791 -0.5856  0.1894
  225MOL0     H30329   7.869   8.929  10.432 -1.0615  0.1061 -1.3387
  225MOL0     H30330   7.806   9.092  10.421  1.6755 -1.2440 -2.7423
  225MOL0     H30331   8.048   9.098  10.445 -0.1029  0.2545 -0.1544
  225MOL0     H30332   8.037   9.036  10.610  0.3264  0.7410  0.2289
  225MOL0     H30333   8.016   9.255  10.689  3.7589 -1.1028 -0.6378
  225MOL0     H30334   7.856   9.249  10.619 -0.1006 -0.3917 -2.1512
  225MOL0     H30335   8.237   9.187  10.609  1.5746 -0.5542 -1.2498
  225MOL0     H30336   8.443   9.303  10.648 -0.2342  0.3302  1.1996
  225MOL0     H30337   8.662   9.796  10.702 -1.2213  0.6759 -0.8206
  225MOL0     H30338   8.889   9.899  10.666 -1.3568  0.0427  0.2780
  225MOL0     H30339   9.124   9.811  10.280 -2.1976 -1.6213  0.6514
  225MOL0     H30340   9.038   9.964  10.296 -2.3928 -0.5973  2.3171
  225MOL0     H30341   9.219  10.059  10.423  0.0421 -1.7348  2.4304
  225MOL0     H30342   9.302   9.915  10.436  2.5282  3.4295  0.6231
  225MOL0     H30343   9.253   9.917  10.162  0.3291  1.2856 -1.2614
  225MOL0     H30344   9.271  10.096  10.185  0.5761  1.3296  1.3046
  225MOL0     H30345   9.477   9.875  10.254 -1.3727  0.3167  0.2230
  225MOL0     H30346   9.501  10.041  10.305  1.6347 -0.5668 -0.4633
  225MOL0     H30347   9.459  10.133  10.086 -2.6565 -1.3267  1.2319
  225MOL0     H30348   9.486   9.977  10.015 -1.0646  1.0693 -0.4014
  225MOL0     H30349   9.700   9.957  10.149 -1.5007  0.1409  0.0598
  225MOL0     H30350   9.710  10.058  10.014  1.3809 -1.7555  0.4753
  225MOL0     H30351   9.677  10.162  10.303 -2.7639 -1.3556 -2.0906
  225MOL0     H30352   9.684  10.258  10.144  2.9540  1.0798 -0.0189
  225MOL0     H30353   9.916  10.106  10.270 -0.5549  0.1952  1.6307
  225MOL0     H30354   9.905  10.157  10.105 -0.9148 -1.7669 -0.0904
  225MOL0     H30355   8.901   9.742  10.265  1.7834 -2.4996  0.5078
  225MOL0     H30356   8.676   9.668  10.302  3.6165 -0.2612 -2.1271
  225MOL0     H30357   8.282   9.663  10.459 -0.7280 -0.6561 -0.1729
  225MOL0     H30358   8.077   9.560  10.439 -0.7969  0.8097  2.5937
  225MOL0     H30359   7.130   8.122  10.041 -0.7080  1.9344 -1.2800
  225MOL0     H30360   7.155   8.001   9.841 -0.6631  3.4520 -0.6990
  225MOL0     H30361   6.838   7.636   9.662  1.5395 -1.7812  1.4830
  225MOL0     H30362   6.775   7.479   9.514  1.0433 -1.3901  0.2419
  225MOL0     H30363   7.044   7.389   9.160  1.0497 -0.3557  1.4425
  225MOL0     H30364   6.918   7.267   9.158 -3.0276  2.4850  1.3704
  225MOL0     H30365   7.151   7.263   9.361  2.7342  2.4898 -4.5631
  225MOL0     H30366   7.154   7.187   9.202  0.3582 -1.6789  0.9392
  225MOL0     H30367   7.094   7.013   9.328 -0.0772  0.4017 -0.8963
  225MOL0     H30368   6.928   7.075   9.294 -0.8111  1.9570  1.0182
  225MOL0     H30369   7.077   7.055   9.558  0.4781  0.0101 -0.1657
  225MOL0     H30370   6.956   7.183   9.528  0.2646 -0.2967  1.4010
  225MOL0     H30371   6.734   6.819   9.554 -1.3300  1.4114  1.7563
  225MOL0     H30372   7.157   7.514   9.300  0.8504  2.4530 -0.5228
  225MOL0     H30373   7.313   7.666   9.352 -1.8962 -1.2292 -0.6304
  225MOL0     H30374   7.262   7.806   9.451 -1.8974 -0.2435  0.3070
  225MOL0     H30375   7.327   7.658   9.525 -0.1830 -0.9890 -0.9399
  226MOL0     O30376   0.844   4.343   7.807 -0.1001  0.7073 -0.3138
  226MOL0     C30377   0.831   4.310   7.929 -0.7772  0.1070  0.5471
  226MOL0     O30378   0.939   4.290   8.014 -0.2713 -0.1275  0.3531
  226MOL0     C30379   1.063   4.324   7.974  0.3681 -0.3422  0.6264
  226MOL0     C30380   1.098   4.451   7.927 -0.2558  0.0147  0.2261
  226MOL0     C30381   1.229   4.490   7.911  1.1816  0.0375  0.3272
  226MOL0     C30382   1.334   4.403   7.952 -0.4446 -1.0863  0.4242
  226MOL0     O30383   1.466   4.428   7.949 -0.3353 -0.9796  0.6498
  226MOL0     C30384   1.508   4.567   7.915  0.3369 -0.1510  0.6751
  226MOL0     C30385   1.659   4.571   7.921  0.0822  0.8442 -0.1836
  226MOL0     C30386   1.728   4.467   7.825 -0.3357  0.1168  0.7596
  226MOL0     C30387   1.881   4.473   7.836 -0.4088  0.2945  0.1572
  226MOL0     C30388   1.949   4.409   7.712 -0.9090  0.0283  0.2773
  226MOL0     C30389   2.102   4.447   7.712  0.5397 -0.8690  0.7349
  226MOL0     C30390   2.179   4.335   7.776 -0.1647 -0.3729 -0.5764
  226MOL0     C30391   2.136   4.298   7.915 -0.3403 -0.2791 -0.0972
  226MOL0     N30392   2.232   4.196   7.964  0.1812  0.6076 -0.2863
  226MOL0     C30393   2.359   4.218   8.013  0.0490 -0.0449  0.9126
  226MOL0     C30394   2.401   4.101   8.065  0.3194 -0.1782 -0.0405
  226MOL0     C30395   2.526   4.078   8.132 -0.3134  0.2492  1.4038
  226MOL0     C30396   2.599   3.954   8.077 -0.1057  0.0216  0.4718
  226MOL0     C30397   2.636   3.971   7.925 -0.0345  0.5604  0.3459
  226MOL0     C30398   2.708   3.847   7.875 -0.6127  0.4736  0.4742
  226MOL0     O30399   2.765   3.840   7.745 -0.3123 -0.1052  0.4652
  226MOL0     C30400   2.895   3.882   7.739 -0.7151 -0.1222 -0.0826
  226MOL0     C30401   2.959   3.844   7.617  1.0503  0.4339 -0.4194
  226MOL0     C30402   3.093   3.865   7.601 -0.2990 -0.1509 -0.0924
  226MOL0     C30403   3.167   3.944   7.689  0.8958  0.9042  0.4706
  226MOL0     C30404   3.306   3.996   7.664  0.6148  1.2442 -0.1962
  226MOL0     O30405   3.376   3.944   7.562  0.5562 -0.1081 -0.3759
  226MOL0     C30406   3.511   3.956   7.551  0.2556  0.1074 -0.1396
  226MOL0     C30407   3.580   4.074   7.521  0.1399 -0.9502  0.6241
  226MOL0     C30408   3.718   4.073   7.502 -0.3155 -0.2635  0.1339
  226MOL0     C30409   3.788   3.956   7.504 -0.0259 -0.4101 -0.1869
  226MOL0     O30410   3.923   3.931   7.478 -0.0021 -0.2434  0.8447
  226MOL0     C30411   3.990   4.020   7.380  0.4265  0.7257  0.6026
  226MOL0     C30412   4.088   3.941   7.296  0.4220  0.5216 -0.2145
  226MOL0     C30413   4.019   3.883   7.169 -0.1527  0.0221 -0.4197
  226MOL0     C30414   3.905   3.780   7.205 -0.4602  0.6317 -0.1139
  226MOL0     C30415   3.905   3.678   7.093  0.1344 -0.5775 -0.0248
  226MOL0     C30416   3.858   3.745   6.958  0.1055  0.0175  0.1115
  226MOL0     C30417   3.872   3.657   6.833 -0.0603  0.0380  0.1466
  226MOL0     C30418   3.799   3.713   6.710 -0.3197  0.3379 -0.1359
  226MOL0    Cl30419   3.624   3.712   6.724  0.5290  0.0493 -0.1424
  226MOL0     C30420   3.722   3.842   7.541  0.1214 -0.0358  0.5049
  226MOL0     C30421   3.584   3.833   7.562 -0.4407 -0.6759  0.9080
  226MOL0     O30422   3.353   4.066   7.758  1.1330 -0.3343  0.4750
  226MOL0     C30423   3.096   3.983   7.811  0.2802 -0.8743 -1.1509
  226MOL0     C30424   2.966   3.957   7.833  0.4643 -0.8830 -0.4865
  226MOL0     N30425   2.292   4.011   8.046 -0.4153  0.3982 -0.2086
  226MOL0     N30426   2.201   4.067   7.981  0.4915 -0.5362 -0.1249
  226MOL0     C30427   1.301   4.274   7.980 -0.4374 -0.0095 -0.8259
  226MOL0     C30428   1.169   4.232   7.993  0.3606  0.1592 -0.4631
  226MOL0     C30429   0.693   4.286   7.981 -0.0226  0.2559 -0.5326
  226MOL0     C30430   0.689   4.251   8.117 -0.2772 -0.4850 -0.0436
  226MOL0     C30431   0.570   4.220   8.181 -0.1585  0.1310  0.6010
  226MOL0     C30432   0.448   4.218   8.113  0.2159  0.0135 -0.8166
  226MOL0     O30433   0.339   4.188   8.197 -0.5474 -0.2068  0.1395
  226MOL0     C30434   0.328   4.251   8.321  0.0439  0.4435 -0.5026
  226MOL0     C30435   0.176   4.267   8.347 -0.9853 -0.4107 -0.1612
  226MOL0     C30436   0.104   4.335   8.227 -0.1773 -0.0415 -0.1542
  226MOL0     C30437  -0.030   4.399   8.248  0.8642  0.3866 -0.7438
  226MOL0     C30438  -0.135   4.294   8.277  1.1803 -0.4158  1.3100
  226MOL0     C30439  -0.227   4.222   8.298 -0.5010 -0.2383 -0.0099
  226MOL0     C30440   0.452   4.231   7.976  0.8429 -0.1459  1.2867
  226MOL0     C30441   0.570   4.278   7.906 -0.4041 -0.0046  0.4618
  226MOL0     C30442   0.569   4.308   7.760  0.0783 -0.1218 -0.1899
  226MOL0     H30443   1.024   4.523   7.892  0.0326 -0.4330 -1.3950
  226MOL0     H30444   1.257   4.584   7.864  2.5233  0.2993  1.5703
  226MOL0     H30445   1.473   4.602   7.817 -2.9853 -0.5497  1.5891
  226MOL0     H30446   1.467   4.635   7.990 -0.0592  1.4459 -0.9095
  226MOL0     H30447   1.691   4.547   8.023 -2.6404 -3.5273 -0.1067
  226MOL0     H30448   1.693   4.671   7.895 -0.6782  0.9079 -0.9506
  226MOL0     H30449   1.693   4.495   7.725 -2.5397  0.6516  1.6205
  226MOL0     H30450   1.685   4.372   7.857 -0.7913 -0.1372 -0.5636
  226MOL0     H30451   1.905   4.579   7.829  0.9889 -0.1233 -2.5650
  226MOL0     H30452   1.920   4.439   7.933 -0.9525  1.9430  0.9884
  226MOL0     H30453   1.942   4.300   7.714 -0.8953  0.0054 -0.5739
  226MOL0     H30454   1.908   4.454   7.621 -0.9518 -1.6104 -0.5541
  226MOL0     H30455   2.148   4.478   7.618  0.3441  0.2165  0.9729
  226MOL0     H30456   2.110   4.535   7.777 -0.6371 -0.3617  0.2494
  226MOL0     H30457   2.279   4.375   7.792 -1.6014  2.0240  4.0952
  226MOL0     H30458   2.194   4.242   7.720 -1.0418  0.2679 -1.9485
  226MOL0     H30459   2.135   4.393   7.970 -2.0167  0.6288 -1.5782
  226MOL0     H30460   2.034   4.259   7.911 -1.1041  0.9653  3.6010
  226MOL0     H30461   2.422   4.304   7.990 -0.4226 -0.4136 -2.1522
  226MOL0     H30462   2.592   4.166   8.136  1.9209 -1.3761  3.3872
  226MOL0     H30463   2.495   4.054   8.235  4.0635 -0.4083  2.7816
  226MOL0     H30464   2.692   3.947   8.135 -0.2317  1.5561  0.9004
  226MOL0     H30465   2.537   3.867   8.097  0.4926 -0.0479  2.1248
  226MOL0     H30466   2.706   4.054   7.914 -0.8475  2.0961  4.7450
  226MOL0     H30467   2.544   3.999   7.872  0.0573  2.4160  1.0650
  226MOL0     H30468   2.629   3.772   7.885 -0.5818  0.5605  1.4537
  226MOL0     H30469   2.784   3.811   7.944  0.5049 -2.5980 -2.0805
  226MOL0     H30470   2.894   3.791   7.548 -2.2213 -1.7454  3.7675
  226MOL0     H30471   3.150   3.843   7.512  2.4243  0.9525  1.2791
  226MOL0     H30472   3.532   4.170   7.502 -1.3647 -2.2214 -2.8456
  226MOL0     H30473   3.773   4.162   7.472 -0.4634  1.4559  4.2235
  226MOL0     H30474   3.910   4.070   7.324 -0.5315  0.9894  2.1379
  226MOL0     H30475   4.037   4.100   7.438 -2.3445  1.9668  1.3158
  226MOL0     H30476   4.165   4.010   7.260  0.7321  1.1241  1.5291
  226MOL0     H30477   4.133   3.855   7.347  1.8433 -0.5988 -3.1023
  226MOL0     H30478   3.988   3.961   7.098  4.0758  0.9071 -1.5608
  226MOL0     H30479   4.097   3.833   7.111 -1.0410  0.1745 -1.7950
  226MOL0     H30480   3.811   3.834   7.219 -0.4553  0.8040 -0.7442
  226MOL0     H30481   3.927   3.718   7.293  0.1033 -0.3933 -0.9504
  226MOL0     H30482   3.835   3.597   7.113  0.0084 -0.5198 -0.2287
  226MOL0     H30483   4.006   3.637   7.084  2.2813  3.7441  1.4204
  226MOL0     H30484   3.755   3.778   6.973  0.3133  0.3770  0.8127
  226MOL0     H30485   3.919   3.831   6.929 -3.7013  2.4215 -1.5009
  226MOL0     H30486   3.831   3.559   6.857 -0.1228  0.3686  1.4959
  226MOL0     H30487   3.979   3.643   6.816 -0.1665 -1.4451  0.6100
  226MOL0     H30488   3.827   3.818   6.699  1.1856 -0.1388 -1.1586
  226MOL0     H30489   3.836   3.655   6.626 -1.0704  0.2965 -0.4457
  226MOL0     H30490   3.776   3.750   7.560  1.4839  1.1347  2.8177
  226MOL0     H30491   3.544   3.739   7.598 -1.0844  0.5363  3.5689
  226MOL0     H30492   3.136   4.064   7.871  3.2711 -1.2997 -2.4220
  226MOL0     H30493   2.924   3.986   7.928  3.2756  1.1615  0.2680
  226MOL0     H30494   1.365   4.189   7.999 -1.3298 -0.1268  2.1675
  226MOL0     H30495   1.144   4.132   8.027 -0.8678  0.4818 -0.3896
  226MOL0     H30496   0.773   4.250   8.187 -1.3619  0.5439  1.3197
  226MOL0     H30497   0.584   4.190   8.285 -1.8620 -0.5347  0.6763
  226MOL0     H30498   0.387   4.343   8.320  2.3951 -0.9834 -2.6663
  226MOL0     H30499   0.370   4.195   8.405 -0.5823  0.6220 -0.0573
  226MOL0     H30500   0.172   4.326   8.439  1.0162 -2.5154  1.3794
  226MOL0     H30501   0.129   4.170   8.366  1.7986 -1.9028 -0.4962
  226MOL0     H30502   0.103   4.264   8.144 -0.1707 -0.0576 -0.1404
  226MOL0     H30503   0.175   4.412   8.194  1.0412 -1.4557 -0.9872
  226MOL0     H30504  -0.027   4.465   8.334 -5.3035  2.3034 -1.4913
  226MOL0     H30505  -0.056   4.452   8.155 -3.1263 -0.6326 -0.4071
  226MOL0     H30506  -0.307   4.156   8.326 -3.5374  2.1802 -2.2323
  226MOL0     H30507   0.356   4.218   7.928 -0.4461 -2.0284  4.0910
  226MOL0     H30508   0.590   4.415   7.750 -0.0009 -0.3046 -3.0922
  226MOL0     H30509   0.638   4.255   7.695  0.2091  2.7976 -2.6384
  226MOL0     H30510   0.468   4.287   7.722 -0.2256  1.0177 -0.0430
  227MOL0     O30511   4.216   9.805   5.907  0.9636 -0.2389  0.1259
  227MOL0     C30512   4.211   9.926   5.874  0.1237 -0.2445  0.7944
  227MOL0     O30513   4.319  10.004   5.846  0.3756 -0.5766 -0.2338
  227MOL0     C30514   4.446   9.960   5.874 -0.2731 -0.0600 -0.3144
  227MOL0     C30515   4.549  10.009   5.784 -0.8398 -0.0510 -0.0662
  227MOL0     C30516   4.687   9.982   5.815 -1.3105 -0.1286 -0.6144
  227MOL0     C30517   4.721   9.892   5.919 -0.0712 -0.1602 -0.6673
  227MOL0     O30518   4.842   9.845   5.956 -0.2313 -0.8126 -0.6613
  227MOL0     C30519   4.939   9.868   5.851  0.2331  0.6634 -0.6875
  227MOL0     C30520   5.080   9.837   5.906  0.1055 -1.1187 -0.2003
  227MOL0     C30521   5.101   9.681   5.904 -0.9291  0.2714  0.3072
  227MOL0     C30522   5.232   9.628   5.971 -0.2246  0.3613 -0.5708
  227MOL0     C30523   5.252   9.478   5.953  0.3419 -0.9517 -0.6130
  227MOL0     C30524   5.311   9.450   5.811  0.2060 -0.1581 -0.6858
  227MOL0     C30525   5.462   9.443   5.811  0.8585 -0.0084  0.6206
  227MOL0     C30526   5.512   9.406   5.673 -1.2066 -0.4484  0.1039
  227MOL0     N30527   5.654   9.366   5.687  0.6054 -0.2669  0.2304
  227MOL0     C30528   5.693   9.257   5.761 -0.3535  0.6968 -0.3218
  227MOL0     C30529   5.837   9.254   5.752 -0.1524 -0.6703  0.4784
  227MOL0     C30530   5.925   9.136   5.799 -0.2011 -0.0427 -0.0286
  227MOL0     C30531   5.893   9.008   5.726 -0.7139  0.0068 -0.3910
  227MOL0     C30532   6.010   8.916   5.765  0.1264  0.0324  0.2605
  227MOL0     C30533   5.998   8.785   5.668 -0.5174 -0.3972 -0.3785
  227MOL0     O30534   6.086   8.684   5.721  0.1097  0.3518 -0.6987
  227MOL0     C30535   6.222   8.694   5.711 -0.5135 -0.8188  0.8406
  227MOL0     C30536   6.292   8.618   5.799 -1.0634 -0.5674  0.1461
  227MOL0     C30537   6.432   8.616   5.795  0.6686 -0.0242 -1.0843
  227MOL0     C30538   6.505   8.682   5.703 -1.1182 -0.6270 -0.0662
  227MOL0     C30539   6.658   8.669   5.712 -0.0472 -1.2613  0.1630
  227MOL0     O30540   6.708   8.580   5.791 -0.8365  0.6524  0.1198
  227MOL0     C30541   6.845   8.552   5.808 -1.3013  0.0224 -0.4300
  227MOL0     C30542   6.919   8.577   5.928 -0.6710 -0.3847  0.1440
  227MOL0     C30543   7.058   8.559   5.934 -0.3667 -1.1032 -0.3851
  227MOL0     C30544   7.123   8.508   5.819 -0.7106 -0.3673  0.2825
  227MOL0     O30545   7.262   8.467   5.807 -0.3362 -0.6045 -0.3280
  227MOL0     C30546   7.360   8.543   5.875 -0.3430 -0.2435  1.1174
  227MOL0     C30547   7.473   8.558   5.786 -0.6101  0.1749 -0.1356
  227MOL0     C30548   7.596   8.632   5.853  0.8441 -0.1365 -0.3759
  227MOL0     C30549   7.712   8.638   5.758  0.1366 -0.1268  0.1650
  227MOL0     C30550   7.836   8.660   5.832  0.3462  0.1165 -0.0664
  227MOL0     C30551   7.887   8.537   5.903  0.1856  0.5791  0.1215
  227MOL0     C30552   8.020   8.564   5.972  0.7508  0.0457 -0.4104
  227MOL0     C30553   8.080   8.429   6.022 -0.0772  0.8649  0.3821
  227MOL0    Cl30554   8.098   8.305   5.900  0.3257 -0.1116 -0.5248
  227MOL0     C30555   7.050   8.479   5.707  0.0374  0.5391 -0.2401
  227MOL0     C30556   6.919   8.504   5.697 -0.4869 -0.0626 -0.3408
  227MOL0     O30557   6.726   8.748   5.646 -0.3898 -0.1214  0.0772
  227MOL0     C30558   6.431   8.776   5.625  0.0856  0.4226  0.2339
  227MOL0     C30559   6.290   8.779   5.621 -0.3104  0.8007  0.2611
  227MOL0     N30560   5.869   9.360   5.666  0.2862 -0.5417 -0.3247
  227MOL0     N30561   5.759   9.431   5.637 -0.0259 -0.4579  0.5953
  227MOL0     C30562   4.621   9.848   6.004  0.3260  0.3682 -0.1621
  227MOL0     C30563   4.482   9.872   5.983 -0.1546  0.5101  0.1804
  227MOL0     C30564   4.075   9.978   5.852 -0.2286  0.7001  1.0294
  227MOL0     C30565   3.979   9.876   5.833 -0.0017 -0.8148  0.1980
  227MOL0     C30566   3.847   9.906   5.788  0.2387  0.7643 -0.0980
  227MOL0     C30567   3.807  10.040   5.787  0.1327  0.5115 -0.1831
  227MOL0     O30568   3.674  10.069   5.764 -0.4056 -0.1745 -0.5406
  227MOL0     C30569   3.584   9.988   5.694  0.2854  0.8279 -0.7636
  227MOL0     C30570   3.491   9.911   5.787  0.1128 -0.7954  0.9104
  227MOL0     C30571   3.351   9.903   5.731  0.6499  0.4954  0.7461
  227MOL0     C30572   3.335   9.797   5.627  0.4800  0.4337  0.7271
  227MOL0     C30573   3.190   9.796   5.586 -0.8375 -0.2627  0.3028
  227MOL0     C30574   3.082   9.769   5.538 -0.6145 -0.6034 -0.2169
  227MOL0     C30575   3.901  10.144   5.805  0.0016 -0.2049  0.2536
  227MOL0     C30576   4.031  10.112   5.828 -0.5318 -0.6361 -0.1779
  227MOL0     C30577   4.117  10.230   5.854 -0.0439  0.3293  0.2215
  227MOL0     H30578   4.519  10.083   5.710  2.7181  1.0509 -0.5790
  227MOL0     H30579   4.763  10.035   5.759 -1.3853  1.6472  0.8539
  227MOL0     H30580   4.915   9.816   5.758 -0.2991  0.5342 -0.4828
  227MOL0     H30581   4.943   9.975   5.831 -0.2299  1.2792  2.1283
  227MOL0     H30582   5.066   9.880   6.006 -3.7333 -1.0317 -0.6263
  227MOL0     H30583   5.163   9.882   5.851 -0.5425  0.9635  0.4088
  227MOL0     H30584   5.097   9.635   5.805 -0.0914  0.3069  0.2451
  227MOL0     H30585   5.017   9.639   5.960 -0.4112 -0.7630  0.3458
  227MOL0     H30586   5.315   9.683   5.925 -0.6273  0.5099 -1.1284
  227MOL0     H30587   5.236   9.657   6.076  0.0628 -0.9408 -0.2084
  227MOL0     H30588   5.306   9.425   6.032 -1.3765 -3.9182 -1.3126
  227MOL0     H30589   5.150   9.442   5.945 -0.0971  0.5532 -2.7714
  227MOL0     H30590   5.272   9.355   5.774  0.8992 -0.2867 -1.0864
  227MOL0     H30591   5.265   9.526   5.746 -1.4270 -0.5789 -0.0896
  227MOL0     H30592   5.487   9.356   5.872  1.3324 -0.0023  0.4361
  227MOL0     H30593   5.498   9.539   5.851  0.9414  0.2911 -0.1529
  227MOL0     H30594   5.453   9.324   5.631 -2.2215  0.4005 -0.2039
  227MOL0     H30595   5.507   9.495   5.610 -0.1438  1.3598  2.4058
  227MOL0     H30596   5.630   9.183   5.810 -0.7143 -0.3115 -2.1934
  227MOL0     H30597   6.028   9.171   5.793 -0.2376  0.2477  0.8620
  227MOL0     H30598   5.891   9.113   5.901 -0.8817 -5.3839 -1.1774
  227MOL0     H30599   5.798   8.959   5.751 -0.4870  1.1508  3.3600
  227MOL0     H30600   5.887   9.027   5.618 -0.6641  1.4134 -0.1605
  227MOL0     H30601   6.007   8.886   5.870 -0.9712 -1.3610 -0.1483
  227MOL0     H30602   6.108   8.962   5.750  0.6159 -0.8675  0.6230
  227MOL0     H30603   6.015   8.806   5.562 -0.1778 -3.4992 -1.0319
  227MOL0     H30604   5.895   8.747   5.676  0.1613 -2.0415  1.2153
  227MOL0     H30605   6.242   8.563   5.879 -0.5782 -0.4235  0.5494
  227MOL0     H30606   6.479   8.554   5.871  0.2892  0.8128 -0.1420
  227MOL0     H30607   6.869   8.629   6.009  2.4455  2.0277  0.7105
  227MOL0     H30608   7.116   8.552   6.026  1.8839  0.4884 -1.5713
  227MOL0     H30609   7.319   8.641   5.902 -1.1196  0.1540 -1.2487
  227MOL0     H30610   7.390   8.495   5.969 -2.8587 -1.5325  1.3258
  227MOL0     H30611   7.501   8.459   5.749 -0.6244  0.3354 -0.5896
  227MOL0     H30612   7.436   8.619   5.703 -2.7753  0.7868  1.2089
  227MOL0     H30613   7.565   8.735   5.871 -1.5813 -0.5777 -1.4992
  227MOL0     H30614   7.630   8.586   5.946 -2.1695 -2.1656 -0.1292
  227MOL0     H30615   7.706   8.712   5.677 -1.2899 -0.4342 -0.0311
  227MOL0     H30616   7.723   8.545   5.702  1.6466  0.2875 -0.2851
  227MOL0     H30617   7.812   8.733   5.909 -1.8806 -0.2371 -0.3776
  227MOL0     H30618   7.913   8.715   5.776  0.6818  1.6332  1.7745
  227MOL0     H30619   7.818   8.505   5.982  0.6296 -0.2140  0.1982
  227MOL0     H30620   7.892   8.458   5.828 -1.8201 -0.7934  1.3406
  227MOL0     H30621   7.994   8.634   6.052 -1.2668 -1.7940  0.6877
  227MOL0     H30622   8.084   8.615   5.900 -0.0980  2.8639  0.6817
  227MOL0     H30623   8.177   8.463   6.058 -0.6483  1.7313  1.1347
  227MOL0     H30624   8.015   8.383   6.097 -2.1587 -2.9208 -3.2556
  227MOL0     H30625   7.109   8.445   5.622 -0.5973 -3.2814  0.6653
  227MOL0     H30626   6.875   8.479   5.601 -1.8121  1.7449 -0.2346
  227MOL0     H30627   6.473   8.848   5.555 -1.1102 -1.3461 -2.4576
  227MOL0     H30628   6.237   8.846   5.555  3.3511  0.8177 -2.9438
  227MOL0     H30629   4.651   9.778   6.082  0.9746  0.7719 -0.0438
  227MOL0     H30630   4.412   9.816   6.044  1.0281 -0.1032  1.0175
  227MOL0     H30631   3.991   9.768   5.827  1.2266 -0.6277 -1.4951
  227MOL0     H30632   3.778   9.824   5.776 -0.3849  1.5551 -2.4485
  227MOL0     H30633   3.639   9.929   5.620 -0.4145  1.6992 -2.0129
  227MOL0     H30634   3.517  10.052   5.636 -1.1148  0.1441  0.0471
  227MOL0     H30635   3.499   9.961   5.884  0.0314  0.7454  0.1546
  227MOL0     H30636   3.527   9.810   5.812 -0.2801 -1.0105  0.6181
  227MOL0     H30637   3.325   9.993   5.675 -3.1305 -1.8376 -1.7147
  227MOL0     H30638   3.274   9.912   5.808 -2.0991 -0.0723 -1.7458
  227MOL0     H30639   3.401   9.823   5.543 -1.3087  1.2311 -0.5050
  227MOL0     H30640   3.374   9.703   5.669 -0.1247  0.2635  0.9129
  227MOL0     H30641   2.982   9.761   5.499 -0.1448 -1.4271 -1.3181
  227MOL0     H30642   3.866  10.246   5.796 -1.9073 -0.9299 -1.0494
  227MOL0     H30643   4.173  10.271   5.769 -0.8685 -0.1034 -0.5595
  227MOL0     H30644   4.058  10.317   5.882 -0.7978 -0.3315  0.7364
  227MOL0     H30645   4.180  10.215   5.942 -0.1559  1.0173  0.4202
  228MOL0     O30646   2.724   4.191   1.061  0.4061 -0.2149  0.6982
  228MOL0     C30647   2.657   4.287   1.075  0.0832 -0.4230 -0.4444
  228MOL0     O30648   2.692   4.415   1.025  0.1988  0.4170  0.3207
  228MOL0     C30649   2.795   4.424   0.946  0.1106 -0.3426  0.0478
  228MOL0     C30650   2.821   4.342   0.831  0.2196  0.3730  0.6038
  228MOL0     C30651   2.929   4.371   0.738 -0.8363 -0.8970  0.2376
  228MOL0     C30652   2.998   4.491   0.745 -0.6573  0.0708 -0.6032
  228MOL0     O30653   3.078   4.533   0.646 -0.4380 -0.2856  1.1943
  228MOL0     C30654   3.158   4.442   0.568 -1.2376 -0.2853  0.7696
  228MOL0     C30655   3.250   4.515   0.467  0.1014  0.0597  0.0922
  228MOL0     C30656   3.373   4.572   0.525 -1.2708  1.2642 -0.5074
  228MOL0     C30657   3.349   4.663   0.645 -0.1447 -0.8513  0.0804
  228MOL0     C30658   3.479   4.733   0.699  0.6629 -0.0710  0.5440
  228MOL0     C30659   3.550   4.656   0.809  0.0655  0.1731  0.0993
  228MOL0     C30660   3.669   4.744   0.865  0.3133 -0.0129  0.0188
  228MOL0     C30661   3.751   4.671   0.978 -0.1907 -1.2637  0.1804
  228MOL0     N30662   3.868   4.761   1.019 -0.2408  0.1882  0.3871
  228MOL0     C30663   3.965   4.819   0.937  0.2059 -0.0862  0.1824
  228MOL0     C30664   4.045   4.886   1.017  0.4191  0.6868 -0.0860
  228MOL0     C30665   4.172   4.962   0.970  1.2775 -0.3722  1.3876
  228MOL0     C30666   4.276   4.944   1.081 -0.6329  0.9588 -0.3148
  228MOL0     C30667   4.408   5.025   1.057 -0.1402 -0.1512  0.7878
  228MOL0     C30668   4.509   5.013   1.165  0.3943  0.2411 -0.5153
  228MOL0     O30669   4.644   5.007   1.119  0.1588 -0.9272 -0.2319
  228MOL0     C30670   4.754   4.995   1.204  0.5671 -0.7772  0.0054
  228MOL0     C30671   4.738   4.969   1.340 -0.1329  0.3769 -0.3795
  228MOL0     C30672   4.855   4.929   1.412 -0.5387  0.3757  0.5497
  228MOL0     C30673   4.978   4.906   1.351  0.2153  0.3003  1.1727
  228MOL0     C30674   5.092   4.849   1.421  0.2482 -0.2948 -0.6531
  228MOL0     O30675   5.078   4.816   1.554 -0.0929  0.6740 -0.6552
  228MOL0     C30676   5.188   4.749   1.613  0.4727 -0.6001 -0.2928
  228MOL0     C30677   5.315   4.809   1.622  0.9355 -0.5980 -1.1901
  228MOL0     C30678   5.430   4.732   1.657 -0.5698  0.9465 -0.3924
  228MOL0     C30679   5.411   4.598   1.678  0.1361 -0.7470  0.6648
  228MOL0     O30680   5.524   4.523   1.690 -0.0430 -0.1076 -0.2390
  228MOL0     C30681   5.504   4.385   1.651  0.2722  0.0692 -0.7574
  228MOL0     C30682   5.637   4.319   1.610 -0.1693  0.7702  0.3847
  228MOL0     C30683   5.725   4.313   1.729 -0.2126  0.0058 -0.1451
  228MOL0     C30684   5.816   4.187   1.720  1.0733 -0.1029 -0.0689
  228MOL0     C30685   5.897   4.158   1.841  0.4259 -0.0817  0.2012
  228MOL0     C30686   5.992   4.041   1.824  0.5741 -0.4185  0.5590
  228MOL0     C30687   6.092   4.013   1.938  0.9339  0.2345  0.5505
  228MOL0     C30688   6.033   3.948   2.058  0.0651  0.7864 -0.1392
  228MOL0    Cl30689   6.152   3.913   2.189 -0.0173  0.0744 -0.3765
  228MOL0     C30690   5.279   4.554   1.677  0.3424  0.6798 -0.0857
  228MOL0     C30691   5.170   4.626   1.646 -0.0978 -0.4195 -0.3389
  228MOL0     O30692   5.196   4.841   1.350  0.5096  0.0151  0.3504
  228MOL0     C30693   4.994   4.946   1.215 -0.1777  0.7553 -0.1720
  228MOL0     C30694   4.880   4.998   1.145  0.1173 -0.0774 -0.3354
  228MOL0     N30695   3.996   4.866   1.149 -0.0471  0.1057 -0.2653
  228MOL0     N30696   3.900   4.787   1.146  0.7764 -0.1959  0.4878
  228MOL0     C30697   2.968   4.573   0.856 -0.0230  0.6127 -0.0774
  228MOL0     C30698   2.871   4.546   0.951  0.2233 -0.0035 -0.0645
  228MOL0     C30699   2.529   4.280   1.147  0.4217  0.0532 -0.0996
  228MOL0     C30700   2.447   4.397   1.139  0.5005  0.1027  0.1799
  228MOL0     C30701   2.311   4.385   1.184 -0.8912  0.0049  0.1761
  228MOL0     C30702   2.263   4.264   1.242 -0.0866 -0.4634  0.7966
  228MOL0     O30703   2.131   4.242   1.288 -0.6659  0.4507  0.0103
  228MOL0     C30704   2.107   4.318   1.407  0.2636  0.8508  0.1624
  228MOL0     C30705   1.959   4.329   1.432 -0.3051  0.3792  0.1029
  228MOL0     C30706   1.889   4.439   1.360 -0.4116 -0.6071  0.3067
  228MOL0     C30707   1.738   4.434   1.417  0.1680 -0.1538 -0.3594
  228MOL0     C30708   1.655   4.509   1.323 -0.0480 -0.8574  0.1229
  228MOL0     C30709   1.597   4.587   1.240  0.2863  0.2616 -0.4026
  228MOL0     C30710   2.357   4.158   1.266 -0.0965  0.2645  0.4140
  228MOL0     C30711   2.486   4.161   1.221 -0.6159  0.4290  0.0455
  228MOL0     C30712   2.569   4.035   1.245 -0.5503 -0.9398  0.8850
  228MOL0     H30713   2.748   4.262   0.817 -1.0244  1.7425 -1.1430
  228MOL0     H30714   2.962   4.300   0.663  1.9948  0.7573 -0.1990
  228MOL0     H30715   3.217   4.388   0.643  1.8389  1.8170  0.0602
  228MOL0     H30716   3.102   4.365   0.515  0.9103 -0.4440 -1.4204
  228MOL0     H30717   3.181   4.593   0.432  1.1793  1.2935  0.6669
  228MOL0     H30718   3.282   4.447   0.387  1.4192 -1.3276  1.7272
  228MOL0     H30719   3.434   4.629   0.453  0.9880 -0.5452 -0.1618
  228MOL0     H30720   3.444   4.494   0.555 -0.6270  1.8081 -0.5748
  228MOL0     H30721   3.278   4.741   0.620  0.8335 -0.2464 -0.8838
  228MOL0     H30722   3.307   4.599   0.724 -2.0078  1.6170  1.2031
  228MOL0     H30723   3.539   4.763   0.612 -2.8090 -0.2366 -2.1568
  228MOL0     H30724   3.439   4.819   0.754 -3.5535 -1.7973  0.5777
  228MOL0     H30725   3.477   4.624   0.884 -0.9789  1.3238 -0.3935
  228MOL0     H30726   3.592   4.561   0.777  0.1949 -0.8432  2.9796
  228MOL0     H30727   3.627   4.840   0.895 -2.1012  0.0114 -2.9847
  228MOL0     H30728   3.741   4.778   0.789  0.7111 -1.9565 -0.5441
  228MOL0     H30729   3.684   4.658   1.063 -2.1922 -1.8765 -1.3999
  228MOL0     H30730   3.790   4.572   0.951 -0.2467 -0.9397 -1.1861
  228MOL0     H30731   3.981   4.814   0.830 -1.3926 -0.1266 -0.0787
  228MOL0     H30732   4.198   4.930   0.869 -0.8606 -3.0330  1.5615
  228MOL0     H30733   4.150   5.069   0.963 -0.4859 -0.6541  1.9309
  228MOL0     H30734   4.234   4.984   1.174 -2.6429  0.2115 -0.8399
  228MOL0     H30735   4.305   4.840   1.102 -0.7994  0.9315 -0.2100
  228MOL0     H30736   4.397   5.123   1.010 -0.2665 -0.1818  0.7535
  228MOL0     H30737   4.450   4.966   0.974 -2.8428  0.6487 -1.2963
  228MOL0     H30738   4.492   4.924   1.226  0.1721  0.5923 -0.0608
  228MOL0     H30739   4.499   5.097   1.234  0.8877  2.9700 -3.5043
  228MOL0     H30740   4.646   4.968   1.397  0.1647  0.1913  0.1083
  228MOL0     H30741   4.832   4.893   1.512 -0.9390 -0.5494  0.1324
  228MOL0     H30742   5.322   4.912   1.590  0.5373 -1.0250 -2.7237
  228MOL0     H30743   5.528   4.779   1.667 -0.9828  1.5945  0.9789
  228MOL0     H30744   5.456   4.326   1.729  1.4558  1.8128  1.3913
  228MOL0     H30745   5.452   4.384   1.555  0.3552  0.1258 -0.8027
  228MOL0     H30746   5.621   4.216   1.576  1.8121  0.3490  0.5841
  228MOL0     H30747   5.678   4.380   1.529  1.6743 -0.5501  0.2493
  228MOL0     H30748   5.791   4.401   1.731  0.1184 -0.2458  0.5467
  228MOL0     H30749   5.667   4.319   1.821 -0.6519  1.5824 -0.4816
  228MOL0     H30750   5.877   4.204   1.631  0.4709  0.9697 -0.2855
  228MOL0     H30751   5.754   4.101   1.693  0.6431  1.0369 -3.0763
  228MOL0     H30752   5.828   4.144   1.925 -0.5589  3.1737  0.0633
  228MOL0     H30753   5.969   4.232   1.875  0.2976  0.2169 -0.1719
  228MOL0     H30754   5.936   3.949   1.805  0.9598 -0.4892 -0.2678
  228MOL0     H30755   6.046   4.057   1.730 -0.0164  2.7230  0.6281
  228MOL0     H30756   6.136   4.111   1.960  1.0719  0.8663 -2.1428
  228MOL0     H30757   6.170   3.947   1.898  0.2613 -0.0035 -0.4167
  228MOL0     H30758   5.941   3.997   2.091  1.0441  1.3675  1.9206
  228MOL0     H30759   6.009   3.847   2.025  2.4824 -0.1161  0.6779
  228MOL0     H30760   5.265   4.449   1.701  1.1627  0.4549 -0.5631
  228MOL0     H30761   5.073   4.578   1.649  0.4628 -1.7054 -1.6744
  228MOL0     H30762   5.093   4.942   1.171  0.7410  2.4184  1.6142
  228MOL0     H30763   4.883   5.031   1.041 -0.1203 -0.1218 -0.3567
  228MOL0     H30764   3.009   4.673   0.867  0.1514  0.4196  1.1412
  228MOL0     H30765   2.850   4.626   1.022 -1.4713  0.5205 -1.0893
  228MOL0     H30766   2.485   4.493   1.106 -1.5537  2.0509  3.0061
  228MOL0     H30767   2.240   4.467   1.173  0.5720  1.1441 -1.2064
  228MOL0     H30768   2.163   4.412   1.413  3.3650 -0.9259  1.4855
  228MOL0     H30769   2.149   4.263   1.492 -0.2232  0.7874  0.3627
  228MOL0     H30770   1.938   4.354   1.536 -4.1698 -0.9123 -0.1911
  228MOL0     H30771   1.902   4.237   1.411  1.0499 -0.7881  1.2759
  228MOL0     H30772   1.890   4.412   1.254  2.7757 -1.8994  0.5736
  228MOL0     H30773   1.933   4.539   1.365  1.3283 -1.0935 -2.8579
  228MOL0     H30774   1.684   4.339   1.425 -0.7112  0.5118  3.5817
  228MOL0     H30775   1.719   4.486   1.511 -0.0781 -1.3006  0.2496
  228MOL0     H30776   1.531   4.651   1.185 -0.4892  2.0590  2.3445
  228MOL0     H30777   2.324   4.065   1.311 -2.2770  0.1300 -1.2400
  228MOL0     H30778   2.527   3.959   1.312 -1.9041 -0.5410  0.5150
  228MOL0     H30779   2.575   3.988   1.146 -2.7537 -1.3120  0.8832
  228MOL0     H30780   2.672   4.055   1.273 -0.4641  1.6514 -0.9258
  229MOL0     O30781   7.312   5.312   1.543 -0.2777  0.5179  0.0136
  229MOL0     C30782   7.272   5.416   1.585 -0.1060 -0.5270 -0.4358
  229MOL0     O30783   7.354   5.535   1.593  0.3894  0.0790  0.5230
  229MOL0     C30784   7.487   5.519   1.572  0.4382  0.2632 -0.7716
  229MOL0     C30785   7.576   5.561   1.672  0.6639  0.2177 -0.2769
  229MOL0     C30786   7.713   5.550   1.666 -0.2338 -0.1772  0.0844
  229MOL0     C30787   7.766   5.477   1.554  0.6586  0.0159 -0.3570
  229MOL0     O30788   7.903   5.470   1.549  0.1177  0.2600 -0.1916
  229MOL0     C30789   7.951   5.374   1.464  0.2726  0.0081 -0.1863
  229MOL0     C30790   8.103   5.362   1.478 -0.2947 -0.3924  0.2623
  229MOL0     C30791   8.159   5.332   1.616  0.0682 -0.4759  0.1945
  229MOL0     C30792   8.310   5.310   1.595  0.2967  0.4766 -0.1639
  229MOL0     C30793   8.365   5.234   1.723  0.3102  0.9620 -0.3555
  229MOL0     C30794   8.503   5.188   1.702 -0.1426  0.6704 -0.1335
  229MOL0     C30795   8.597   5.292   1.641 -0.3511  0.5984  0.3356
  229MOL0     C30796   8.740   5.259   1.667  0.4020 -1.2089  0.6009
  229MOL0     N30797   8.801   5.148   1.584 -0.0658 -0.2546 -1.1019
  229MOL0     C30798   8.919   5.158   1.509 -0.2572  0.3360  0.5021
  229MOL0     C30799   8.945   5.031   1.459 -0.7606  0.1820  0.2650
  229MOL0     C30800   9.076   4.995   1.390 -0.4813 -0.8726  1.0207
  229MOL0     C30801   9.180   4.967   1.497  0.2858 -0.3760 -0.7716
  229MOL0     C30802   9.319   4.941   1.443  0.6622  0.6174  0.1263
  229MOL0     C30803   9.427   4.982   1.534 -0.2062 -0.5322  0.3847
  229MOL0     O30804   9.550   4.957   1.459  0.0433 -0.5409 -0.2102
  229MOL0     C30805   9.662   4.986   1.532  0.4880  0.4456  0.8911
  229MOL0     C30806   9.661   5.001   1.673 -0.2956  0.0182 -0.3951
  229MOL0     C30807   9.769   5.058   1.736  0.2962  0.4455  0.7669
  229MOL0     C30808   9.884   5.077   1.663 -0.2480  0.2731  1.1992
  229MOL0     C30809  10.009   5.119   1.735 -0.2047 -1.0066  0.1601
  229MOL0     O30810  10.125   5.104   1.657 -0.1905 -0.3703 -0.1069
  229MOL0     C30811  10.247   5.107   1.711 -0.1837  0.5407  0.1917
  229MOL0     C30812  10.347   5.168   1.635  0.3794 -1.2995 -0.2471
  229MOL0     C30813  10.483   5.154   1.672  0.8308  0.3996  0.1068
  229MOL0     C30814  10.525   5.078   1.788 -0.0729 -0.0476 -0.5211
  229MOL0     O30815  10.652   5.045   1.825 -1.1945  0.2906 -0.1923
  229MOL0     C30816  10.753   5.078   1.730 -0.2513 -0.3489  0.9578
  229MOL0     C30817  10.895   5.025   1.765 -0.5258  0.3292  0.2164
  229MOL0     C30818  11.009   5.061   1.673  0.1842 -0.4562  0.0602
  229MOL0     C30819  11.133   5.002   1.736  0.2959 -0.0001  1.1029
  229MOL0     C30820  11.248   4.979   1.633  0.0991 -0.7906 -1.2238
  229MOL0     C30821  11.369   4.930   1.708  1.4624 -0.0884  0.1384
  229MOL0     C30822  11.492   4.915   1.630 -0.9679 -0.1923 -0.2263
  229MOL0     C30823  11.505   4.811   1.521  0.4995 -0.9491  0.6199
  229MOL0    Cl30824  11.492   4.883   1.351 -0.2158  0.2608 -0.0246
  229MOL0     C30825  10.424   5.025   1.862  0.2256  0.1833 -1.4345
  229MOL0     C30826  10.288   5.037   1.832 -1.1967  1.0327  0.1684
  229MOL0     O30827  10.010   5.175   1.848  0.1662  0.2792  0.3039
  229MOL0     C30828   9.901   5.044   1.524 -0.1846  0.4168  0.0807
  229MOL0     C30829   9.779   5.007   1.456 -0.4168  0.2563 -0.2876
  229MOL0     N30830   8.836   4.948   1.493 -0.0444 -0.3321 -0.4110
  229MOL0     N30831   8.749   5.022   1.565 -1.3227  0.7321  0.1189
  229MOL0     C30832   7.680   5.426   1.452 -0.7644 -0.5297 -0.7458
  229MOL0     C30833   7.543   5.454   1.460 -0.3468 -0.3201 -0.6238
  229MOL0     C30834   7.123   5.423   1.619 -0.1675  0.3556 -0.2051
  229MOL0     C30835   7.076   5.558   1.626  0.1383  0.3043  0.1591
  229MOL0     C30836   6.937   5.576   1.654 -0.4629 -0.0394  0.4224
  229MOL0     C30837   6.853   5.467   1.681 -0.0844  0.1336  0.7142
  229MOL0     O30838   6.721   5.509   1.686  0.0244  0.2915 -0.3547
  229MOL0     C30839   6.619   5.419   1.740 -0.0826 -0.2360  0.1767
  229MOL0     C30840   6.624   5.423   1.896  0.3364 -0.1404  0.2994
  229MOL0     C30841   6.588   5.566   1.951  0.2905  0.2528 -0.3914
  229MOL0     C30842   6.457   5.636   1.911  0.3844 -0.8045  0.7277
  229MOL0     C30843   6.352   5.548   1.960 -0.1448 -0.5721 -0.9227
  229MOL0     C30844   6.268   5.478   2.013 -0.4439 -1.2040  1.1765
  229MOL0     C30845   6.905   5.332   1.677 -0.0893  0.1504 -0.1376
  229MOL0     C30846   7.036   5.306   1.637  0.0289 -0.4202 -0.1045
  229MOL0     C30847   7.080   5.159   1.611 -0.3745  0.0163  0.2603
  229MOL0     H30848   7.542   5.596   1.769  2.0537 -1.4444  0.8845
  229MOL0     H30849   7.779   5.587   1.743  0.8366 -0.3576 -0.7215
  229MOL0     H30850   7.906   5.277   1.485  0.7739 -0.6957 -2.1559
  229MOL0     H30851   7.926   5.414   1.366 -5.0120  1.1534  1.3581
  229MOL0     H30852   8.146   5.456   1.442  0.9253 -1.2745 -0.6897
  229MOL0     H30853   8.145   5.283   1.415  2.7097  0.9676  0.4042
  229MOL0     H30854   8.108   5.244   1.656 -1.0283 -0.5791 -1.3629
  229MOL0     H30855   8.140   5.410   1.690 -2.0353  0.0315 -0.8224
  229MOL0     H30856   8.337   5.245   1.511 -1.3877 -1.1600  0.4898
  229MOL0     H30857   8.370   5.400   1.579  1.4333 -0.6479 -2.8195
  229MOL0     H30858   8.355   5.306   1.805  3.6921  1.1686  0.0246
  229MOL0     H30859   8.308   5.141   1.738  0.8406  0.6278 -0.3588
  229MOL0     H30860   8.540   5.137   1.791 -0.0379 -1.7561 -1.4812
  229MOL0     H30861   8.503   5.104   1.632  1.1359 -0.5971  1.3262
  229MOL0     H30862   8.579   5.394   1.676 -3.1777  0.1187  0.4717
  229MOL0     H30863   8.569   5.294   1.535  0.2999  0.6314  0.1584
  229MOL0     H30864   8.807   5.343   1.646  2.4633 -2.6071  1.2163
  229MOL0     H30865   8.759   5.227   1.770  0.8854  0.0293  0.9213
  229MOL0     H30866   8.968   5.254   1.498 -1.3854  0.8501 -0.2708
  229MOL0     H30867   9.063   4.905   1.328 -0.5030  1.1517 -2.1571
  229MOL0     H30868   9.101   5.078   1.324 -1.6868  0.1389  1.8021
  229MOL0     H30869   9.196   5.047   1.570  1.2314 -0.3427 -0.9920
  229MOL0     H30870   9.156   4.875   1.552 -2.3483  0.6145 -0.1539
  229MOL0     H30871   9.328   4.989   1.345  3.1029  1.5018  0.7053
  229MOL0     H30872   9.323   4.834   1.418  0.8744  0.3308  1.3125
  229MOL0     H30873   9.421   4.922   1.625  1.6143 -0.5900  0.4974
  229MOL0     H30874   9.418   5.089   1.555 -4.0536 -0.5437 -0.4267
  229MOL0     H30875   9.576   4.969   1.734  0.9449 -1.7767  0.4872
  229MOL0     H30876   9.762   5.103   1.835  0.4148 -1.3442  1.6227
  229MOL0     H30877  10.310   5.231   1.555 -1.8344 -2.2680 -0.0577
  229MOL0     H30878  10.550   5.207   1.605  1.6893 -0.5579  0.1839
  229MOL0     H30879  10.731   5.045   1.628 -0.6745  0.6466  0.7143
  229MOL0     H30880  10.761   5.187   1.724  1.7070 -0.4893  0.1325
  229MOL0     H30881  10.921   5.066   1.863  0.1708  0.0605  0.1557
  229MOL0     H30882  10.895   4.916   1.777  0.8096  0.2347 -0.3718
  229MOL0     H30883  10.991   5.010   1.578 -0.3684 -1.8458  0.8894
  229MOL0     H30884  11.000   5.168   1.651  0.4477 -0.2047  1.1521
  229MOL0     H30885  11.117   4.901   1.775  0.2795 -0.5476 -0.2920
  229MOL0     H30886  11.159   5.061   1.824 -0.6027  1.0630  0.6875
  229MOL0     H30887  11.277   5.073   1.585 -2.6117 -0.2482 -1.9709
  229MOL0     H30888  11.216   4.907   1.557 -0.9437  0.0076 -1.5631
  229MOL0     H30889  11.392   4.985   1.800 -0.0372 -0.7670  0.9598
  229MOL0     H30890  11.341   4.833   1.748  1.2236  0.1954  0.6760
  229MOL0     H30891  11.576   4.886   1.694 -1.0500  0.0312 -0.0169
  229MOL0     H30892  11.523   5.014   1.593  0.9936 -0.3221  0.9231
  229MOL0     H30893  11.607   4.773   1.528  0.7159 -1.3096 -2.7489
  229MOL0     H30894  11.442   4.722   1.533  0.5650 -0.8610  1.7622
  229MOL0     H30895  10.455   4.968   1.949 -0.4744  1.5159 -0.2628
  229MOL0     H30896  10.203   4.996   1.886 -2.3216  2.1522 -0.6835
  229MOL0     H30897   9.991   5.075   1.472  0.0293 -0.0958  0.1358
  229MOL0     H30898   9.779   5.014   1.347  0.5147  1.7173 -0.2203
  229MOL0     H30899   7.726   5.375   1.368  3.4988  1.8023 -0.0863
  229MOL0     H30900   7.485   5.413   1.378 -1.1884 -1.5188  0.5116
  229MOL0     H30901   7.145   5.639   1.606 -0.4358  1.1314  1.3902
  229MOL0     H30902   6.890   5.673   1.649 -1.8478 -0.5920  1.8497
  229MOL0     H30903   6.634   5.327   1.682  0.8839  1.5426 -2.5979
  229MOL0     H30904   6.518   5.447   1.711  0.4530 -0.7325 -2.4754
  229MOL0     H30905   6.723   5.401   1.935 -0.8819  1.2333  4.8561
  229MOL0     H30906   6.561   5.342   1.935 -0.7774  0.7599  0.4279
  229MOL0     H30907   6.664   5.636   1.917 -0.4822  1.1410 -0.3300
  229MOL0     H30908   6.599   5.568   2.060  3.9401 -1.4131 -0.5736
  229MOL0     H30909   6.456   5.728   1.970 -1.3065 -0.4856  0.2642
  229MOL0     H30910   6.437   5.661   1.807 -0.6230  0.6345  1.2342
  229MOL0     H30911   6.193   5.420   2.062 -2.2862 -0.7539 -0.9366
  229MOL0     H30912   6.835   5.249   1.685 -0.0233  0.2803  3.3089
  229MOL0     H30913   7.160   5.129   1.679 -0.3030 -0.7067 -0.1249
  229MOL0     H30914   6.996   5.090   1.626  0.6067 -1.2195  0.3019
  229MOL0     H30915   7.119   5.149   1.509  0.8241  0.6700  0.6509
  230MOL0     O30916   1.739   0.734   6.649 -0.8804  0.0525  0.1663
  230MOL0     C30917   1.635   0.760   6.700  0.5317  0.1742  0.5119
  230MOL0     O30918   1.593   0.724   6.824  0.2700 -0.7299  0.4684
  230MOL0     C30919   1.688   0.654   6.896  0.1569 -1.0245 -0.0313
  230MOL0     C30920   1.749   0.716   7.007 -0.5949  0.3636  0.2119
  230MOL0     C30921   1.843   0.649   7.085  0.1874 -0.5161 -0.3352
  230MOL0     C30922   1.862   0.511   7.058  0.2600  0.0759 -0.5125
  230MOL0     O30923   1.943   0.426   7.118  0.0832 -0.1096 -0.3669
  230MOL0     C30924   2.071   0.475   7.163 -0.3635  0.0018  0.5395
  230MOL0     C30925   2.169   0.359   7.191 -1.2813 -0.1311  0.4344
  230MOL0     C30926   2.190   0.255   7.074  0.0600 -0.3463  0.3678
  230MOL0     C30927   2.282   0.300   6.958  0.2920 -0.4480 -0.3549
  230MOL0     C30928   2.292   0.179   6.855  0.4047 -0.4904 -0.3969
  230MOL0     C30929   2.374   0.066   6.907 -0.0101 -0.4442  0.2038
  230MOL0     C30930   2.518   0.090   6.915  0.1865 -1.0293  0.3346
  230MOL0     C30931   2.586  -0.027   6.975 -0.6227 -0.1083  0.0285
  230MOL0     N30932   2.735  -0.021   6.973  0.0992  0.2526  0.1441
  230MOL0     C30933   2.807   0.094   6.999 -0.6711 -0.6208  0.0134
  230MOL0     C30934   2.940   0.058   7.000  0.1523 -1.1686  0.4252
  230MOL0     C30935   3.048   0.163   7.020 -0.0714  0.1863 -0.4271
  230MOL0     C30936   3.168   0.128   6.936 -0.0363 -0.2012 -0.9195
  230MOL0     C30937   3.169   0.202   6.807  0.7567  0.4307 -0.0802
  230MOL0     C30938   3.270   0.152   6.713 -0.5044  0.3730 -0.1658
  230MOL0     O30939   3.399   0.183   6.768  0.2822 -0.2242  1.4550
  230MOL0     C30940   3.502   0.093   6.730  0.2455  0.3672  0.3069
  230MOL0     C30941   3.529  -0.020   6.806  0.9236 -0.6630  0.3494
  230MOL0     C30942   3.626  -0.112   6.771  0.5839 -0.2954 -0.0269
  230MOL0     C30943   3.708  -0.087   6.659 -0.4771 -0.2592  0.1663
  230MOL0     C30944   3.827  -0.176   6.627  0.4246 -0.1237 -0.9646
  230MOL0     O30945   3.917  -0.146   6.528  0.6460 -0.1617 -0.2175
  230MOL0     C30946   4.021  -0.237   6.497 -0.2580 -0.2126 -0.0944
  230MOL0     C30947   4.024  -0.277   6.363 -0.6203  0.5621  0.1539
  230MOL0     C30948   4.127  -0.366   6.328 -0.1852  0.2197  0.5935
  230MOL0     C30949   4.236  -0.389   6.396 -0.4791  0.4734  0.7844
  230MOL0     O30950   4.333  -0.468   6.332  0.4081 -0.1733  0.3029
  230MOL0     C30951   4.461  -0.466   6.377 -0.2503  0.1886 -0.3869
  230MOL0     C30952   4.554  -0.549   6.283  0.4701  0.3903  0.5231
  230MOL0     C30953   4.705  -0.532   6.318 -0.4875  0.0604  0.3886
  230MOL0     C30954   4.784  -0.633   6.225 -0.3910  0.0462 -0.2082
  230MOL0     C30955   4.941  -0.616   6.237  1.2020  0.3626 -0.2775
  230MOL0     C30956   4.985  -0.668   6.371 -0.7994  0.9551 -0.5130
  230MOL0     C30957   5.131  -0.699   6.371  0.1136 -0.0386  0.1683
  230MOL0     C30958   5.191  -0.753   6.506 -0.4545  0.2127 -0.0147
  230MOL0    Cl30959   5.374  -0.736   6.519  0.3124  0.0953 -0.0362
  230MOL0     C30960   4.236  -0.339   6.522 -0.3268 -0.0883  0.7378
  230MOL0     C30961   4.130  -0.267   6.579 -0.9279  0.0820  0.3099
  230MOL0     O30962   3.826  -0.278   6.696 -0.7328 -0.5951 -0.1501
  230MOL0     C30963   3.674   0.023   6.577  0.4363 -0.1692 -0.1196
  230MOL0     C30964   3.574   0.112   6.611  0.6006  0.3629 -0.8073
  230MOL0     N30965   2.949  -0.075   6.971  0.5069 -0.5032 -0.1801
  230MOL0     N30966   2.829  -0.120   6.954  0.3671  0.3153 -0.4142
  230MOL0     C30967   1.798   0.450   6.952 -0.1651  0.8860  1.2288
  230MOL0     C30968   1.718   0.523   6.869 -0.6685 -0.1823 -0.3716
  230MOL0     C30969   1.535   0.838   6.630 -0.2585  0.9326  0.2542
  230MOL0     C30970   1.450   0.933   6.692  0.8031  0.3640 -0.1456
  230MOL0     C30971   1.356   1.000   6.618 -0.5216 -0.3548  0.0297
  230MOL0     C30972   1.338   0.985   6.490  0.3893  0.4895  0.3275
  230MOL0     O30973   1.240   1.048   6.416  0.0710  0.1958  0.2690
  230MOL0     C30974   1.107   1.059   6.475 -0.6258 -0.6070  0.2751
  230MOL0     C30975   1.026   1.131   6.369  0.2048  0.3903 -0.3232
  230MOL0     C30976   0.878   1.121   6.403  0.1144  0.6092 -0.5099
  230MOL0     C30977   0.837   1.234   6.490 -0.8755  0.0238 -0.0372
  230MOL0     C30978   0.700   1.226   6.534  1.4203  0.1632 -0.7974
  230MOL0     C30979   0.587   1.236   6.592 -0.8169  0.5454 -0.7098
  230MOL0     C30980   1.423   0.894   6.423 -0.6204  0.4854 -0.2126
  230MOL0     C30981   1.520   0.814   6.491  0.8022  0.1683  0.3042
  230MOL0     C30982   1.596   0.716   6.400 -0.3829 -0.0729  0.2787
  230MOL0     H30983   1.717   0.816   7.034  0.7465  0.3127  2.2165
  230MOL0     H30984   1.900   0.710   7.154  1.1361  0.7035 -2.1090
  230MOL0     H30985   2.119   0.536   7.086 -1.4601  0.5391  0.2586
  230MOL0     H30986   2.058   0.531   7.256  3.0558  0.3920  0.9087
  230MOL0     H30987   2.118   0.304   7.271 -2.9318  0.0168 -0.4728
  230MOL0     H30988   2.267   0.387   7.232 -1.3682 -3.0782  3.0041
  230MOL0     H30989   2.092   0.232   7.031 -0.2354 -0.2726  0.9847
  230MOL0     H30990   2.228   0.166   7.125  0.1596  0.2589  1.3849
  230MOL0     H30991   2.233   0.380   6.901 -0.1274  0.6553  1.4770
  230MOL0     H30992   2.382   0.330   6.988  0.4535  0.3547 -1.6150
  230MOL0     H30993   2.198   0.135   6.821  1.0591  0.9795 -4.8971
  230MOL0     H30994   2.340   0.207   6.761  2.6970 -1.5778  0.3703
  230MOL0     H30995   2.337   0.023   7.001  0.7479  0.8675  1.1310
  230MOL0     H30996   2.357  -0.014   6.835  2.7502 -0.8705 -0.0657
  230MOL0     H30997   2.537   0.167   6.990  0.8790 -0.7238 -0.1415
  230MOL0     H30998   2.563   0.113   6.818 -2.9803  0.7902 -0.8637
  230MOL0     H30999   2.570  -0.023   7.083 -0.0780 -3.1332  0.3012
  230MOL0     H31000   2.552  -0.124   6.940 -1.6861  0.3152 -0.1447
  230MOL0     H31001   2.774   0.195   7.019  0.8238 -0.2751  0.8886
  230MOL0     H31002   3.025   0.267   6.994 -2.7842 -0.7738 -2.3919
  230MOL0     H31003   3.056   0.158   7.129 -3.4699 -3.5145 -0.1064
  230MOL0     H31004   3.253   0.166   6.994 -0.4463 -2.0201  1.0149
  230MOL0     H31005   3.175   0.021   6.917 -0.5368 -0.4935  0.4291
  230MOL0     H31006   3.180   0.308   6.828  3.1001  0.6130 -1.8070
  230MOL0     H31007   3.070   0.184   6.765  1.1453  1.3193 -1.4178
  230MOL0     H31008   3.256   0.193   6.612  1.6638  1.3456 -0.1446
  230MOL0     H31009   3.263   0.043   6.704 -4.0196  0.3342  1.4149
  230MOL0     H31010   3.457  -0.055   6.880  1.0546  2.1842  1.9622
  230MOL0     H31011   3.649  -0.193   6.840  1.0554 -0.6806 -0.6217
  230MOL0     H31012   3.945  -0.248   6.295 -0.6708 -0.1985 -0.1262
  230MOL0     H31013   4.105  -0.412   6.232 -2.3441  3.1506 -0.4975
  230MOL0     H31014   4.494  -0.362   6.378 -0.7986  0.3756  1.2426
  230MOL0     H31015   4.464  -0.500   6.481 -1.2378  0.7734 -0.1527
  230MOL0     H31016   4.524  -0.655   6.283 -0.2433  0.5748  2.1613
  230MOL0     H31017   4.536  -0.505   6.184  0.5291  1.9663  1.1879
  230MOL0     H31018   4.742  -0.431   6.299  0.0751 -0.4842 -1.6175
  230MOL0     H31019   4.709  -0.565   6.423  2.2243 -0.2300  0.2644
  230MOL0     H31020   4.757  -0.613   6.121 -1.0357 -2.2172 -0.5367
  230MOL0     H31021   4.749  -0.734   6.247  0.5779  0.0393  1.3887
  230MOL0     H31022   4.985  -0.516   6.241  1.6040  0.2073 -0.7516
  230MOL0     H31023   4.987  -0.678   6.160  3.2534 -0.4329  1.4927
  230MOL0     H31024   4.963  -0.591   6.446 -1.5355  0.2420  0.0198
  230MOL0     H31025   4.931  -0.759   6.397 -0.5566  1.3839  1.6231
  230MOL0     H31026   5.188  -0.607   6.352  0.9055 -0.0133  2.3695
  230MOL0     H31027   5.153  -0.771   6.291  1.0185 -0.7548  1.0339
  230MOL0     H31028   5.144  -0.697   6.588 -0.8238  1.1931 -0.8700
  230MOL0     H31029   5.161  -0.857   6.525  1.4360 -0.1149  1.4947
  230MOL0     H31030   4.313  -0.369   6.593 -0.3164 -1.5917  0.1257
  230MOL0     H31031   4.129  -0.234   6.683  0.0421  0.3158  0.2527
  230MOL0     H31032   3.738   0.056   6.496  2.2861 -0.3708  1.1758
  230MOL0     H31033   3.555   0.197   6.545  1.7085  1.5694  0.3662
  230MOL0     H31034   1.810   0.343   6.935 -1.6592  0.6151  1.7359
  230MOL0     H31035   1.671   0.485   6.778 -1.3461  0.9875 -0.5295
  230MOL0     H31036   1.458   0.946   6.799  0.1637 -3.0895  0.4341
  230MOL0     H31037   1.300   1.072   6.677  2.7139  1.1827  1.5148
  230MOL0     H31038   1.104   1.101   6.576 -0.5434 -1.6365  0.7155
  230MOL0     H31039   1.064   0.959   6.486 -2.9498  0.5736  2.9963
  230MOL0     H31040   1.048   1.087   6.271  0.5019 -0.3972  0.0949
  230MOL0     H31041   1.045   1.238   6.360 -1.7146  0.7555 -0.4984
  230MOL0     H31042   0.859   1.023   6.448 -0.2088  1.6607  1.7895
  230MOL0     H31043   0.821   1.129   6.310 -0.9870 -1.7324 -0.1055
  230MOL0     H31044   0.901   1.230   6.578  3.8184 -2.8126 -3.1179
  230MOL0     H31045   0.855   1.332   6.445 -3.3023  0.3367 -0.5097
  230MOL0     H31046   0.496   1.234   6.648 -0.8034  2.1757 -0.5942
  230MOL0     H31047   1.395   0.889   6.318  0.7065  3.1121 -0.7933
  230MOL0     H31048   1.609   0.617   6.445  1.1410 -0.0643 -0.0999
  230MOL0     H31049   1.538   0.703   6.308 -1.2291  0.2418  0.7569
  230MOL0     H31050   1.696   0.756   6.381 -1.1644  1.4855 -0.7605
  231MOL0     O31051   4.821   4.938   5.368  0.1791 -0.9366  0.2981
  231MOL0     C31052   4.736   4.868   5.430 -0.8081  0.3296 -0.3224
  231MOL0     O31053   4.769   4.759   5.501  0.4466  0.6564  0.2497
  231MOL0     C31054   4.903   4.718   5.495 -0.0503  0.3093  0.3185
  231MOL0     C31055   4.935   4.636   5.385 -0.2908  1.0308 -0.8428
  231MOL0     C31056   5.062   4.575   5.371 -0.0634  0.8455  0.2768
  231MOL0     C31057   5.159   4.600   5.465  0.0505  0.1047  0.1509
  231MOL0     O31058   5.276   4.521   5.447 -0.3839 -0.2682  0.3503
  231MOL0     C31059   5.404   4.574   5.464  0.0824 -0.3492 -0.1053
  231MOL0     C31060   5.490   4.474   5.401  0.2171  0.6201 -0.4839
  231MOL0     C31061   5.634   4.506   5.429  0.1392  0.8668 -0.5149
  231MOL0     C31062   5.683   4.609   5.337 -0.4789  0.3016  0.4392
  231MOL0     C31063   5.825   4.644   5.371 -0.7023  0.2800 -0.1257
  231MOL0     C31064   5.889   4.735   5.258  0.4006  1.2489  0.2179
  231MOL0     C31065   6.030   4.779   5.290 -0.2441 -0.6433 -0.4538
  231MOL0     C31066   6.077   4.862   5.167 -0.0685 -0.5830 -0.8955
  231MOL0     N31067   6.204   4.924   5.203  0.3624  0.2857 -0.4519
  231MOL0     C31068   6.328   4.867   5.181  0.2012 -0.4258 -0.2565
  231MOL0     C31069   6.416   4.937   5.250  0.3797 -1.0235 -0.4521
  231MOL0     C31070   6.560   4.919   5.234 -0.0727 -0.0564 -0.1074
  231MOL0     C31071   6.647   5.031   5.182  0.5851  0.1879  0.0258
  231MOL0     C31072   6.572   5.117   5.066 -0.2473 -0.6466 -0.9966
  231MOL0     C31073   6.551   5.044   4.936 -0.6063  0.3615  0.5167
  231MOL0     O31074   6.484   5.106   4.833 -0.2891 -0.2080 -0.3038
  231MOL0     C31075   6.366   5.045   4.799 -0.0514  1.0127 -0.0528
  231MOL0     C31076   6.377   4.955   4.701 -0.1058  0.2340 -0.3299
  231MOL0     C31077   6.273   4.874   4.678 -0.2325  0.7386  0.0305
  231MOL0     C31078   6.160   4.879   4.759 -0.2739  0.4473 -0.3944
  231MOL0     C31079   6.051   4.792   4.735 -0.0977  0.5483  0.5442
  231MOL0     O31080   5.976   4.751   4.847  0.2116  0.3081 -0.3009
  231MOL0     C31081   5.877   4.649   4.828 -0.0289 -0.0276  0.0777
  231MOL0     C31082   5.885   4.521   4.893  0.3342 -0.1169  0.6695
  231MOL0     C31083   5.773   4.439   4.876 -0.6389 -0.6405  0.1986
  231MOL0     C31084   5.664   4.472   4.801  0.8005  0.0685 -0.2151
  231MOL0     O31085   5.545   4.395   4.812  0.3126  0.0458 -0.1687
  231MOL0     C31086   5.478   4.363   4.686  0.3367 -0.0562 -0.4831
  231MOL0     C31087   5.408   4.236   4.726  0.2516 -1.0872  0.5916
  231MOL0     C31088   5.310   4.193   4.621  0.1720  1.1364  0.1978
  231MOL0     C31089   5.205   4.090   4.679 -0.5364 -0.1157 -0.3118
  231MOL0     C31090   5.088   4.076   4.582 -0.0741 -0.9313  0.9821
  231MOL0     C31091   4.959   4.057   4.660 -1.2500  0.8809 -0.8847
  231MOL0     C31092   4.947   3.919   4.728  0.7879  1.2853 -0.3491
  231MOL0     C31093   4.812   3.904   4.807 -0.1177  0.2321 -0.1470
  231MOL0    Cl31094   4.823   3.752   4.906  0.1113  0.4146 -0.2336
  231MOL0     C31095   5.665   4.587   4.726  0.5377  0.1670  0.2364
  231MOL0     C31096   5.771   4.676   4.737  0.1900  0.4871 -0.9528
  231MOL0     O31097   6.036   4.751   4.621  1.0206 -0.1656  0.2810
  231MOL0     C31098   6.144   4.976   4.862 -0.1197  0.3479 -0.4710
  231MOL0     C31099   6.251   5.066   4.875 -0.3254  0.8646 -0.1194
  231MOL0     N31100   6.351   5.024   5.334  0.0931  0.5999 -0.4299
  231MOL0     N31101   6.222   5.006   5.312 -0.2380 -0.2844 -0.6895
  231MOL0     C31102   5.131   4.685   5.580  0.3966  0.2261  0.0272
  231MOL0     C31103   5.002   4.748   5.586 -0.1380 -0.0410  0.0721
  231MOL0     C31104   4.599   4.904   5.427 -1.3043 -0.8464  0.2461
  231MOL0     C31105   4.544   5.020   5.487  0.6081 -0.2305  0.0233
  231MOL0     C31106   4.413   5.051   5.481  0.6217 -0.1712 -0.4198
  231MOL0     C31107   4.317   4.960   5.432 -0.9807  0.0643  0.2812
  231MOL0     O31108   4.186   4.995   5.441 -0.1150  0.0096 -0.1186
  231MOL0     C31109   4.093   4.888   5.440  0.4373  0.1148  0.2392
  231MOL0     C31110   3.951   4.936   5.459  0.3330  0.3260  0.5012
  231MOL0     C31111   3.872   4.941   5.328  0.1962 -1.2229  0.6817
  231MOL0     C31112   3.832   4.804   5.267 -0.1071  0.2214  0.5305
  231MOL0     C31113   3.725   4.752   5.361 -0.9598  0.3568 -0.4273
  231MOL0     C31114   3.641   4.711   5.427 -0.0590  0.1525 -0.5069
  231MOL0     C31115   4.374   4.846   5.364 -0.7205 -0.5840  0.4500
  231MOL0     C31116   4.511   4.818   5.361 -0.0283 -0.1467  0.1986
  231MOL0     C31117   4.557   4.700   5.280  0.2623  0.0395  0.0545
  231MOL0     H31118   4.861   4.634   5.306  0.0581 -2.6941 -1.2663
  231MOL0     H31119   5.086   4.512   5.287  0.8684 -0.4097  1.4413
  231MOL0     H31120   5.402   4.677   5.429 -1.9170  0.5148  2.2328
  231MOL0     H31121   5.435   4.579   5.569 -1.9375  2.1214  0.4462
  231MOL0     H31122   5.472   4.488   5.294 -3.7650  0.9150  0.0792
  231MOL0     H31123   5.462   4.373   5.431  1.3606  0.4353  0.0112
  231MOL0     H31124   5.695   4.415   5.415 -1.2234 -0.3522  0.9776
  231MOL0     H31125   5.647   4.534   5.534 -1.6989  1.6665 -0.4818
  231MOL0     H31126   5.684   4.567   5.236 -0.2281 -3.4240  1.8272
  231MOL0     H31127   5.630   4.703   5.355  0.3672  1.0375 -0.7217
  231MOL0     H31128   5.829   4.690   5.470 -0.5604 -0.4748  0.2219
  231MOL0     H31129   5.883   4.551   5.377 -0.3382  0.4854 -0.4032
  231MOL0     H31130   5.878   4.689   5.160  0.8676  1.4235  0.0776
  231MOL0     H31131   5.832   4.828   5.255  0.6602  1.6634  3.5399
  231MOL0     H31132   6.093   4.691   5.306 -0.4569 -0.8409 -0.6960
  231MOL0     H31133   6.030   4.849   5.374  0.8073  1.8969 -2.4131
  231MOL0     H31134   6.083   4.791   5.084 -2.3933 -4.3114  1.7983
  231MOL0     H31135   6.013   4.945   5.134 -0.1240  0.2095  1.0148
  231MOL0     H31136   6.354   4.786   5.112  0.9673 -0.5493  0.1714
  231MOL0     H31137   6.600   4.898   5.333 -0.8783  0.4584  0.3321
  231MOL0     H31138   6.564   4.827   5.175 -1.5317 -0.4977  0.4321
  231MOL0     H31139   6.673   5.095   5.267  1.6717 -0.3106  0.0850
  231MOL0     H31140   6.742   4.988   5.148  0.4351 -1.5404  1.6041
  231MOL0     H31141   6.630   5.209   5.049  0.3698 -1.1152 -1.5028
  231MOL0     H31142   6.475   5.152   5.101 -0.5922 -0.6080 -1.9644
  231MOL0     H31143   6.503   4.948   4.957  0.6193  0.2544  3.3806
  231MOL0     H31144   6.646   5.013   4.892 -0.7058  0.6561  0.0918
  231MOL0     H31145   6.465   4.958   4.639  0.9074  1.1128  1.0976
  231MOL0     H31146   6.288   4.807   4.594 -0.5141  0.9612 -0.1984
  231MOL0     H31147   5.969   4.502   4.959  0.8039  1.5679  0.6131
  231MOL0     H31148   5.768   4.350   4.938  0.3091 -1.6617 -1.1263
  231MOL0     H31149   5.398   4.426   4.646 -0.2719 -0.3069  0.3252
  231MOL0     H31150   5.544   4.347   4.599 -1.3919  1.3502 -2.1371
  231MOL0     H31151   5.481   4.159   4.752 -2.3480 -3.6959  0.6890
  231MOL0     H31152   5.353   4.262   4.817 -0.8918 -0.7199 -0.1760
  231MOL0     H31153   5.264   4.285   4.585 -1.1962  0.4829  0.2136
  231MOL0     H31154   5.358   4.148   4.533 -1.7156 -3.4221  1.2197
  231MOL0     H31155   5.163   4.131   4.771 -0.6005  0.1256 -0.4479
  231MOL0     H31156   5.254   3.996   4.707 -0.7678 -0.0276  0.4220
  231MOL0     H31157   5.102   4.001   4.503  1.2860  1.6829 -1.4456
  231MOL0     H31158   5.076   4.170   4.528  2.6651  0.5804  2.8043
  231MOL0     H31159   4.950   4.134   4.737  1.1610 -0.8672  1.3176
  231MOL0     H31160   4.874   4.078   4.594 -2.2622  0.9301  0.3753
  231MOL0     H31161   5.027   3.920   4.803 -0.2767  0.2969  0.8682
  231MOL0     H31162   4.958   3.835   4.658 -3.5266  0.7761 -0.6617
  231MOL0     H31163   4.819   3.988   4.877  1.3163 -0.4713  0.5839
  231MOL0     H31164   4.720   3.902   4.748  1.1018 -0.5138 -2.1471
  231MOL0     H31165   5.584   4.613   4.660  0.5401  3.3653  1.3105
  231MOL0     H31166   5.759   4.770   4.683  0.4293  0.4209 -1.1214
  231MOL0     H31167   6.053   4.986   4.919  1.9010  2.1552  2.7161
  231MOL0     H31168   6.271   5.144   4.948 -1.0267  0.8853  0.0568
  231MOL0     H31169   5.202   4.693   5.662  1.1339  0.6619 -0.6424
  231MOL0     H31170   4.964   4.796   5.675  1.0407  3.9909 -1.4028
  231MOL0     H31171   4.615   5.097   5.516  1.3486 -0.9522  0.2041
  231MOL0     H31172   4.395   5.147   5.528  1.1483 -0.1851 -0.1871
  231MOL0     H31173   4.115   4.829   5.529 -3.0768  1.0428  1.8963
  231MOL0     H31174   4.096   4.843   5.340  1.0756 -0.1282  0.3677
  231MOL0     H31175   3.953   5.037   5.502  1.2675  1.1625 -1.3893
  231MOL0     H31176   3.890   4.884   5.533 -1.1733  3.3270  1.5370
  231MOL0     H31177   3.923   4.998   5.250  0.1448 -2.6359 -0.4338
  231MOL0     H31178   3.779   4.990   5.357  0.8037 -0.5141  1.5013
  231MOL0     H31179   3.792   4.813   5.166 -0.7923 -2.8600  0.4310
  231MOL0     H31180   3.909   4.726   5.275 -1.3450 -1.4071 -1.9427
  231MOL0     H31181   3.570   4.678   5.500  0.2497  3.6282  1.5696
  231MOL0     H31182   4.303   4.786   5.307  0.1109 -2.1671  1.0255
  231MOL0     H31183   4.483   4.672   5.205  0.7506  1.4476 -1.0265
  231MOL0     H31184   4.640   4.742   5.221 -1.4779  2.1084 -1.0963
  231MOL0     H31185   4.608   4.621   5.336  0.3262 -1.0292 -1.4676
  232MOL0     O31186  11.347   9.346   0.065  0.2510 -0.6782 -0.1010
  232MOL0     C31187  11.315   9.232   0.031  0.4330  0.1813  1.1370
  232MOL0     O31188  11.395   9.125   0.018  0.4926  0.6205  0.8526
  232MOL0     C31189  11.515   9.113   0.072  1.0433 -0.8524 -0.0714
  232MOL0     C31190  11.597   9.009   0.037  0.7287 -0.6866  0.6847
  232MOL0     C31191  11.730   8.994   0.081  0.4098  0.1394  0.5448
  232MOL0     C31192  11.780   9.078   0.180  0.7365 -0.3555  0.4585
  232MOL0     O31193  11.911   9.051   0.234  0.5667  0.5254 -0.5236
  232MOL0     C31194  11.918   9.044   0.379 -0.4822 -0.5208  0.2190
  232MOL0     C31195  11.953   8.919   0.434  0.6311 -0.2929 -0.1773
  232MOL0     C31196  12.003   8.914   0.575 -0.5955 -0.3492  1.0402
  232MOL0     C31197  11.904   8.941   0.681 -0.3436  0.0125 -0.4289
  232MOL0     C31198  11.962   8.965   0.823  0.2093 -1.2788  0.0998
  232MOL0     C31199  12.066   9.078   0.829 -0.7319 -0.2874 -0.4111
  232MOL0     C31200  12.021   9.219   0.768  0.0901  0.1725 -0.0575
  232MOL0     C31201  11.882   9.254   0.803  0.1730 -0.8091 -0.6175
  232MOL0     N31202  11.833   9.348   0.698  0.1787 -0.6772 -0.4215
  232MOL0     C31203  11.863   9.481   0.680 -0.3140  0.3309 -0.3567
  232MOL0     C31204  11.820   9.516   0.556  0.4232 -0.1256 -0.2364
  232MOL0     C31205  11.819   9.654   0.489 -0.1353  0.4096  0.2365
  232MOL0     C31206  11.946   9.729   0.503 -0.0879  0.0521  0.6168
  232MOL0     C31207  12.056   9.675   0.410  0.1587  0.6001  0.1797
  232MOL0     C31208  12.197   9.717   0.447 -0.0467  0.2040 -0.7832
  232MOL0     O31209  12.260   9.656   0.560  0.0261 -0.0793 -0.0423
  232MOL0     C31210  12.280   9.522   0.562 -0.7395 -0.1898 -0.7106
  232MOL0     C31211  12.312   9.446   0.446 -0.7817  0.0795 -0.0531
  232MOL0     C31212  12.373   9.319   0.460  0.3603 -0.4240 -0.5180
  232MOL0     C31213  12.396   9.268   0.592  0.3428 -0.2276  0.2967
  232MOL0     C31214  12.459   9.139   0.607  0.2506 -0.6800  0.3447
  232MOL0     O31215  12.541   9.123   0.717 -0.4140 -0.4110 -0.0719
  232MOL0     C31216  12.581   8.996   0.740 -0.3592 -0.1750 -0.1053
  232MOL0     C31217  12.505   8.901   0.822 -0.2962 -0.3778 -0.2262
  232MOL0     C31218  12.566   8.771   0.847  0.1204 -0.6504 -0.2900
  232MOL0     C31219  12.690   8.735   0.799  0.4847 -1.0672  0.4419
  232MOL0     O31220  12.742   8.612   0.818 -0.2594 -0.2205 -0.1111
  232MOL0     C31221  12.884   8.592   0.821  0.4669  0.0451  0.0232
  232MOL0     C31222  12.920   8.449   0.846 -0.0059  0.4478  0.9429
  232MOL0     C31223  13.067   8.415   0.890 -0.5111 -0.6018 -1.0378
  232MOL0     C31224  13.107   8.267   0.864  0.3800  0.0759  0.1574
  232MOL0     C31225  13.256   8.234   0.877 -0.9987  0.1762 -0.8092
  232MOL0     C31226  13.348   8.269   0.761 -0.5614 -0.2522  0.4017
  232MOL0     C31227  13.308   8.188   0.642 -0.5022  0.1184  0.8361
  232MOL0     C31228  13.411   8.200   0.524  0.5467 -0.3865 -0.0675
  232MOL0    Cl31229  13.497   8.351   0.481 -0.1353 -0.0161 -0.1128
  232MOL0     C31230  12.752   8.822   0.710 -0.1842  0.0676 -0.0031
  232MOL0     C31231  12.696   8.949   0.686 -0.5176  0.0563 -0.4922
  232MOL0     O31232  12.418   9.055   0.532 -0.2449 -0.1780 -0.0621
  232MOL0     C31233  12.354   9.338   0.700  0.6838  0.2442  0.5336
  232MOL0     C31234  12.298   9.466   0.688 -0.0057 -0.2678 -1.1670
  232MOL0     N31235  11.789   9.394   0.492  0.2577 -0.1663  0.8132
  232MOL0     N31236  11.788   9.303   0.582 -1.3131  0.9668 -0.0629
  232MOL0     C31237  11.695   9.183   0.222 -0.0777  0.6918 -0.1249
  232MOL0     C31238  11.564   9.201   0.175  0.2043  0.0463 -0.4419
  232MOL0     C31239  11.174   9.183  -0.002  0.4757 -0.4769 -0.6206
  232MOL0     C31240  11.157   9.054  -0.060 -0.0746 -0.4189  0.1531
  232MOL0     C31241  11.031   9.000  -0.098  0.8172 -0.2099 -0.2735
  232MOL0     C31242  10.919   9.065  -0.062  0.3765 -0.7301 -1.0693
  232MOL0     O31243  10.800   9.008  -0.103 -0.1118  0.8307  0.0427
  232MOL0     C31244  10.674   9.048  -0.048  0.6535 -0.3826 -1.4804
  232MOL0     C31245  10.583   8.919  -0.042  0.0671  1.1622 -0.7866
  232MOL0     C31246  10.436   8.966  -0.012  0.1680  0.8430  0.0641
  232MOL0     C31247  10.351   8.871   0.071 -0.2626 -0.5932 -0.3833
  232MOL0     C31248  10.380   8.735   0.032  0.0111  0.1839  0.6352
  232MOL0     C31249  10.419   8.621  -0.007  0.4780 -0.6601 -0.2037
  232MOL0     C31250  10.931   9.190   0.012  0.5855 -0.4451  0.1178
  232MOL0     C31251  11.059   9.249   0.036  0.2426 -0.3347 -0.4910
  232MOL0     C31252  11.057   9.383   0.101  0.0743  0.5445  0.4569
  232MOL0     H31253  11.556   8.947  -0.042 -1.0392 -0.8242  1.6500
  232MOL0     H31254  11.788   8.909   0.046 -1.1253 -0.4101 -0.7628
  232MOL0     H31255  12.009   9.101   0.403  0.2350 -0.3311 -2.5591
  232MOL0     H31256  11.830   9.092   0.423 -1.1538 -0.4516 -1.1636
  232MOL0     H31257  12.024   8.878   0.361  0.0926 -1.4399 -0.0688
  232MOL0     H31258  11.865   8.855   0.422 -0.8343  1.8777 -1.8026
  232MOL0     H31259  12.093   8.976   0.584 -2.0061  1.6736  2.0859
  232MOL0     H31260  12.033   8.810   0.580  1.9269  0.3569  1.9423
  232MOL0     H31261  11.858   9.034   0.647  0.5243  1.2587  1.6243
  232MOL0     H31262  11.823   8.868   0.688  0.3279 -0.7578 -0.5143
  232MOL0     H31263  11.883   8.995   0.891  0.8739  0.1761  0.2673
  232MOL0     H31264  12.003   8.872   0.862 -0.0557 -1.2890  0.3522
  232MOL0     H31265  12.088   9.097   0.935 -1.1315  0.2045 -0.4109
  232MOL0     H31266  12.167   9.051   0.796 -0.0563  1.4344  0.1276
  232MOL0     H31267  12.023   9.207   0.659 -2.9286 -2.0980 -0.0181
  232MOL0     H31268  12.089   9.303   0.779 -0.3937  1.0539 -2.9728
  232MOL0     H31269  11.806   9.175   0.797 -1.6378  0.8094 -0.0273
  232MOL0     H31270  11.887   9.292   0.905  0.1847  0.0784 -0.9396
  232MOL0     H31271  11.900   9.550   0.755 -2.4067 -1.5346  2.6285
  232MOL0     H31272  11.796   9.631   0.384  2.7757 -0.9921 -0.1816
  232MOL0     H31273  11.737   9.714   0.532  0.6885  0.5256  1.7138
  232MOL0     H31274  11.921   9.830   0.469 -2.0110 -0.0257  1.6699
  232MOL0     H31275  11.981   9.741   0.606 -1.5078 -0.3047  1.1578
  232MOL0     H31276  12.041   9.710   0.307  1.1767 -0.0954 -0.2243
  232MOL0     H31277  12.064   9.566   0.421  2.5689  0.6948 -0.0955
  232MOL0     H31278  12.188   9.824   0.466 -0.4115 -0.1818  1.5350
  232MOL0     H31279  12.260   9.705   0.359 -1.2703  1.2361 -1.8415
  232MOL0     H31280  12.304   9.492   0.349 -1.5563  2.3619  1.0224
  232MOL0     H31281  12.401   9.274   0.365  2.8512  1.0824 -0.5985
  232MOL0     H31282  12.407   8.925   0.860 -0.1026 -2.6311  2.0204
  232MOL0     H31283  12.489   8.702   0.882 -1.0884  0.5672 -0.4596
  232MOL0     H31284  12.927   8.624   0.726 -0.6560  1.6106  0.0112
  232MOL0     H31285  12.934   8.654   0.896 -2.5521  1.0703  1.3294
  232MOL0     H31286  12.850   8.412   0.921  2.1750 -1.2375  2.2634
  232MOL0     H31287  12.912   8.404   0.746  1.1467  1.4984  0.3413
  232MOL0     H31288  13.140   8.480   0.842  0.5841  0.8759  2.3460
  232MOL0     H31289  13.091   8.444   0.993  3.7156 -0.3041 -1.9563
  232MOL0     H31290  13.071   8.259   0.761  1.8877  1.5323 -0.5413
  232MOL0     H31291  13.057   8.195   0.930  2.3297 -3.2278 -1.7111
  232MOL0     H31292  13.264   8.127   0.898 -0.3762  0.1438 -1.2113
  232MOL0     H31293  13.286   8.283   0.970  0.2026 -2.3087  0.2016
  232MOL0     H31294  13.326   8.374   0.735  0.2245 -0.1269  0.2076
  232MOL0     H31295  13.456   8.261   0.779 -0.2111 -0.6373 -1.6019
  232MOL0     H31296  13.211   8.222   0.604 -0.3393 -1.5151 -1.2361
  232MOL0     H31297  13.285   8.087   0.678 -0.4471  0.9057  3.2277
  232MOL0     H31298  13.488   8.123   0.529 -0.1438 -1.0192  1.0495
  232MOL0     H31299  13.347   8.165   0.443 -1.7047 -2.1560  2.3145
  232MOL0     H31300  12.842   8.799   0.653 -0.9367 -0.4285 -1.0347
  232MOL0     H31301  12.751   9.006   0.612 -0.9497 -1.3544 -1.9495
  232MOL0     H31302  12.367   9.299   0.800 -1.6256 -1.7661  0.1492
  232MOL0     H31303  12.265   9.526   0.772 -0.8844 -3.5216  1.0433
  232MOL0     H31304  11.737   9.249   0.298 -2.5246  1.2238  0.8453
  232MOL0     H31305  11.508   9.286   0.212 -0.4553 -0.8325  0.6506
  232MOL0     H31306  11.245   8.996  -0.086  0.5846  0.2874  0.7543
  232MOL0     H31307  11.024   8.902  -0.145 -0.5269 -0.9178  1.3173
  232MOL0     H31308  10.624   9.130  -0.100 -0.1875  1.9476  2.5440
  232MOL0     H31309  10.693   9.090   0.051  3.0894  1.0480 -2.4676
  232MOL0     H31310  10.619   8.861   0.043  1.4655  1.1218 -1.3915
  232MOL0     H31311  10.587   8.868  -0.138  1.3750  1.8300 -1.1073
  232MOL0     H31312  10.392   8.997  -0.107 -0.6411  1.2230  0.5526
  232MOL0     H31313  10.441   9.055   0.052 -2.4568  1.4615 -0.5062
  232MOL0     H31314  10.375   8.870   0.178 -0.3905 -1.5051 -0.3585
  232MOL0     H31315  10.247   8.902   0.057  0.8545  3.5757 -0.8360
  232MOL0     H31316  10.442   8.520  -0.036  2.8731 -0.3632  0.4245
  232MOL0     H31317  10.846   9.250   0.043  1.7559  1.7099 -0.6133
  232MOL0     H31318  11.087   9.454   0.023 -4.3770  0.1027 -2.0327
  232MOL0     H31319  10.955   9.411   0.128 -0.7341 -3.2437  2.0528
  232MOL0     H31320  11.120   9.388   0.190  0.6084 -4.5137  0.6555
  233MOL0     O31321   8.222   3.338  10.511 -0.9278  0.0449  0.2492
  233MOL0     C31322   8.331   3.324  10.459  0.2034 -0.4776  0.5985
  233MOL0     O31323   8.433   3.261  10.516 -0.3592 -0.0014 -0.4359
  233MOL0     C31324   8.414   3.142  10.590 -0.8240 -0.7507  0.4549
  233MOL0     C31325   8.314   3.128  10.682 -0.9003  0.5682 -0.6473
  233MOL0     C31326   8.295   3.010  10.742  0.8659  0.7099  0.1200
  233MOL0     C31327   8.379   2.895  10.726  0.6260  0.4603  0.0957
  233MOL0     O31328   8.344   2.781  10.797  0.8800  0.0195 -0.5138
  233MOL0     C31329   8.423   2.668  10.770  1.0617  0.1562 -0.3021
  233MOL0     C31330   8.391   2.550  10.867  0.0093  0.0085 -0.3125
  233MOL0     C31331   8.423   2.587  11.013  0.7135 -0.2140 -0.4931
  233MOL0     C31332   8.475   2.464  11.093 -0.6523  0.2948  0.8475
  233MOL0     C31333   8.531   2.509  11.237 -0.8181 -0.4864  0.4558
  233MOL0     C31334   8.434   2.473  11.357  0.4236 -0.0546 -0.3167
  233MOL0     C31335   8.397   2.322  11.376 -0.1372 -0.4745 -1.1291
  233MOL0     C31336   8.516   2.230  11.421  0.2809  0.1373 -0.4970
  233MOL0     N31337   8.614   2.290  11.512 -0.3613  0.1586  0.2694
  233MOL0     C31338   8.594   2.305  11.644 -0.5121 -0.5920  0.4051
  233MOL0     C31339   8.715   2.346  11.693 -1.0822 -0.4889 -0.0603
  233MOL0     C31340   8.754   2.369  11.836 -0.2214  0.2748  0.3239
  233MOL0     C31341   8.812   2.242  11.897  0.4834 -0.0080 -0.0152
  233MOL0     C31342   8.860   2.275  12.031  0.8048  0.1727 -0.4135
  233MOL0     C31343   9.002   2.333  12.026  1.2774 -0.0680 -0.1556
  233MOL0     O31344   9.053   2.336  12.159  0.1810  0.8949  0.0642
  233MOL0     C31345   9.186   2.372  12.173  0.2944 -0.3833  0.6334
  233MOL0     C31346   9.246   2.347  12.298  0.1606 -0.6124 -0.0203
  233MOL0     C31347   9.383   2.365  12.311  0.5942  0.3888  0.7071
  233MOL0     C31348   9.471   2.413  12.204  0.7222  0.1815 -0.0707
  233MOL0     C31349   9.609   2.442  12.232  0.0220 -0.8399 -0.6712
  233MOL0     O31350   9.683   2.461  12.119 -0.0797  0.1243 -0.3450
  233MOL0     C31351   9.822   2.469  12.123  0.9138  0.8289 -0.1448
  233MOL0     C31352   9.892   2.508  12.006 -1.3752 -0.6483 -0.1425
  233MOL0     C31353  10.034   2.519  12.001 -1.0838  0.2279 -0.4295
  233MOL0     C31354  10.120   2.480  12.107 -0.2255  0.5591  0.3946
  233MOL0     O31355  10.252   2.500  12.091  0.4876  0.0142  0.9725
  233MOL0     C31356  10.334   2.424  12.174  0.6626  0.2625  0.2213
  233MOL0     C31357  10.470   2.441  12.126 -0.7646 -0.0963  0.0730
  233MOL0     C31358  10.540   2.574  12.156 -0.5380  0.4134  0.7953
  233MOL0     C31359  10.696   2.553  12.131 -0.3321  0.5491  0.0098
  233MOL0     C31360  10.778   2.670  12.177 -0.2827 -0.7043  0.0383
  233MOL0     C31361  10.930   2.637  12.161  0.0678 -0.6349 -0.5597
  233MOL0     C31362  11.015   2.757  12.149 -0.7142 -0.5968 -0.6863
  233MOL0     C31363  11.145   2.750  12.067  0.1959  0.3649  0.2101
  233MOL0    Cl31364  11.266   2.877  12.104  0.2159 -0.1747 -0.0372
  233MOL0     C31365  10.052   2.426  12.220 -0.0218  0.0384 -0.3078
  233MOL0     C31366   9.909   2.423  12.228 -0.5994 -0.3258 -0.4423
  233MOL0     O31367   9.643   2.456  12.353  0.0695  0.2220  0.1655
  233MOL0     C31368   9.415   2.433  12.074  0.1553  1.1020  0.5192
  233MOL0     C31369   9.273   2.413  12.065 -0.2377 -0.2171 -1.0140
  233MOL0     N31370   8.799   2.364  11.580  0.7015 -0.1977 -0.4960
  233MOL0     N31371   8.742   2.321  11.478  0.1214 -0.6444  0.5491
  233MOL0     C31372   8.488   2.916  10.637  0.5339  0.4995  0.4600
  233MOL0     C31373   8.506   3.038  10.566  0.1145 -0.1791 -0.3771
  233MOL0     C31374   8.364   3.386  10.326 -0.2104 -1.6339  0.2650
  233MOL0     C31375   8.501   3.404  10.296 -0.5721 -0.3693 -0.2677
  233MOL0     C31376   8.542   3.491  10.197  0.3416  0.0074  0.5022
  233MOL0     C31377   8.451   3.537  10.110  0.4987 -0.1958  0.0312
  233MOL0     O31378   8.505   3.611  10.010  0.0956  0.3821 -0.7656
  233MOL0     C31379   8.419   3.707   9.944  0.5049  0.2323 -0.2293
  233MOL0     C31380   8.488   3.788   9.836 -0.5601 -0.7212  0.5460
  233MOL0     C31381   8.532   3.931   9.875 -1.1635  0.0321  0.4217
  233MOL0     C31382   8.554   4.035   9.761 -0.0177  0.2136 -0.4184
  233MOL0     C31383   8.598   4.169   9.808  0.3002  1.0582  0.1563
  233MOL0     C31384   8.654   4.270   9.857 -0.4074  0.6543 -0.5129
  233MOL0     C31385   8.310   3.515  10.130 -0.8457 -0.3843  0.4427
  233MOL0     C31386   8.267   3.434  10.231 -0.2498 -0.1970 -0.6503
  233MOL0     C31387   8.121   3.400  10.239 -0.0639 -0.7739  0.3045
  233MOL0     H31388   8.249   3.206  10.719 -0.0993  0.9485 -0.0056
  233MOL0     H31389   8.209   2.996  10.807 -0.1486 -0.7026 -1.4266
  233MOL0     H31390   8.407   2.638  10.666 -0.2073  0.4797 -0.2168
  233MOL0     H31391   8.530   2.690  10.767  0.6515  2.3838 -0.3551
  233MOL0     H31392   8.452   2.465  10.837 -0.2420 -0.8958  1.5914
  233MOL0     H31393   8.284   2.529  10.857 -0.0921  0.5044 -0.3303
  233MOL0     H31394   8.338   2.635  11.063  0.1234  0.7831 -2.3522
  233MOL0     H31395   8.501   2.663  11.012  0.7026 -0.1385  1.5674
  233MOL0     H31396   8.404   2.381  11.108 -0.5935  0.6008  3.3222
  233MOL0     H31397   8.560   2.423  11.037 -0.7973  1.0993  0.0182
  233MOL0     H31398   8.628   2.463  11.255  0.9135  2.4442 -0.5672
  233MOL0     H31399   8.539   2.618  11.225 -0.8697 -0.4174  1.0180
  233MOL0     H31400   8.473   2.513  11.450 -1.7908  1.9512 -0.1442
  233MOL0     H31401   8.345   2.536  11.348  0.1159 -0.1353  1.8117
  233MOL0     H31402   8.348   2.275  11.290 -1.1149 -1.5114 -0.0321
  233MOL0     H31403   8.319   2.317  11.453 -0.8486  2.5200 -1.5217
  233MOL0     H31404   8.475   2.135  11.454 -0.2886  0.9212  1.1499
  233MOL0     H31405   8.573   2.213  11.329  2.8165  0.4378  0.9068
  233MOL0     H31406   8.503   2.272  11.694 -2.0647  1.0164 -1.2353
  233MOL0     H31407   8.833   2.445  11.836  2.4731 -2.3749  0.8560
  233MOL0     H31408   8.669   2.401  11.896  1.6122  3.7812  1.3211
  233MOL0     H31409   8.730   2.171  11.904 -0.4119  0.7798 -1.8030
  233MOL0     H31410   8.889   2.200  11.832 -0.0284 -3.0018  1.1567
  233MOL0     H31411   8.867   2.185  12.092  2.1852  1.0400  0.7602
  233MOL0     H31412   8.796   2.344  12.086  0.7108 -1.5277  1.7162
  233MOL0     H31413   9.001   2.431  11.977 -0.6130  0.4671  0.8329
  233MOL0     H31414   9.065   2.265  11.968  0.1808  0.5502 -2.1916
  233MOL0     H31415   9.180   2.320  12.379 -1.1648  1.4169 -0.3457
  233MOL0     H31416   9.412   2.359  12.415  3.9713 -0.9166 -0.1878
  233MOL0     H31417   9.826   2.540  11.925  1.0772  2.7283 -1.0263
  233MOL0     H31418  10.072   2.576  11.917  0.3514 -1.1104 -0.7186
  233MOL0     H31419  10.308   2.450  12.277 -6.7136 -2.5150 -0.3714
  233MOL0     H31420  10.310   2.318  12.161 -1.1865  0.7756 -0.9152
  233MOL0     H31421  10.536   2.362  12.164  0.4609  1.1846  0.7126
  233MOL0     H31422  10.466   2.431  12.017 -1.1955 -5.4428  0.2849
  233MOL0     H31423  10.509   2.651  12.084  0.3457  2.5701  2.5919
  233MOL0     H31424  10.509   2.597  12.258 -0.0085 -1.5307  1.4265
  233MOL0     H31425  10.725   2.540  12.027  1.2657  1.8523  0.2529
  233MOL0     H31426  10.734   2.462  12.178 -0.1464  0.8143  0.3833
  233MOL0     H31427  10.759   2.690  12.283  0.7671 -2.5203  0.6183
  233MOL0     H31428  10.749   2.761  12.124 -1.6610 -1.5591 -0.7315
  233MOL0     H31429  10.951   2.578  12.251 -1.8452  0.4515  0.6854
  233MOL0     H31430  10.942   2.576  12.071 -1.8571  2.4188 -3.0751
  233MOL0     H31431  11.048   2.777  12.251  2.9510 -0.1277 -1.8219
  233MOL0     H31432  10.965   2.847  12.112 -0.8937 -0.9754 -1.3957
  233MOL0     H31433  11.181   2.651  12.095  0.6375  0.5041  0.1383
  233MOL0     H31434  11.122   2.755  11.960  2.6097 -2.0419 -0.5257
  233MOL0     H31435  10.111   2.381  12.299  0.3406 -0.8752 -1.0767
  233MOL0     H31436   9.859   2.385  12.317  3.2394 -2.8847  0.8518
  233MOL0     H31437   9.473   2.476  11.993  0.9001 -0.8371 -0.0278
  233MOL0     H31438   9.230   2.452  11.973 -1.5378  1.1136  0.1228
  233MOL0     H31439   8.565   2.842  10.615 -1.0608 -1.2270  0.4761
  233MOL0     H31440   8.575   3.043  10.483  0.4952  0.8174 -0.0082
  233MOL0     H31441   8.575   3.360  10.362 -0.9432 -1.1062 -0.3267
  233MOL0     H31442   8.645   3.524  10.188  0.3097  0.0593  0.3177
  233MOL0     H31443   8.360   3.774  10.009 -1.6943  0.7292 -2.5468
  233MOL0     H31444   8.345   3.643   9.894 -0.1026  1.7227 -1.3367
  233MOL0     H31445   8.423   3.797   9.749 -1.2017 -2.6033  0.7912
  233MOL0     H31446   8.583   3.742   9.807  0.9640  2.3359  0.3253
  233MOL0     H31447   8.623   3.927   9.936 -1.6164  3.4971  1.5318
  233MOL0     H31448   8.450   3.982   9.926  1.3021  2.8839  1.8339
  233MOL0     H31449   8.625   4.004   9.684  2.2743  2.6168  0.5701
  233MOL0     H31450   8.454   4.054   9.722 -0.8516  0.0929  1.5447
  233MOL0     H31451   8.698   4.353   9.910  0.2979  0.2874 -0.5159
  233MOL0     H31452   8.242   3.556  10.056  1.1586  2.2455 -0.0843
  233MOL0     H31453   8.074   3.424  10.143  2.3531  2.9255 -0.1896
  233MOL0     H31454   8.106   3.292  10.241 -1.8065 -0.5541  0.8652
  233MOL0     H31455   8.072   3.452  10.321  3.3705  1.9574  0.8772
  234MOL0     O31456   9.649   1.726   9.830 -0.1956 -0.5753  0.2699
  234MOL0     C31457   9.576   1.626   9.830  1.0840  0.4986  0.2114
  234MOL0     O31458   9.601   1.503   9.766  0.1379  0.4894 -0.6490
  234MOL0     C31459   9.685   1.505   9.655  0.0628  0.0141  0.2400
  234MOL0     C31460   9.815   1.454   9.683  0.0478 -0.8727  0.2750
  234MOL0     C31461   9.899   1.437   9.567  0.1764  0.1078 -0.1245
  234MOL0     C31462   9.856   1.457   9.432  0.4133 -0.7093  0.3152
  234MOL0     O31463   9.938   1.428   9.335 -0.0034  0.3838  0.3871
  234MOL0     C31464  10.050   1.520   9.332 -0.4342 -0.3896  0.1776
  234MOL0     C31465  10.143   1.486   9.209 -0.3319 -0.9329  0.8237
  234MOL0     C31466  10.284   1.553   9.218 -0.2188 -0.4571  0.6195
  234MOL0     C31467  10.379   1.443   9.251  0.1090 -0.2795  0.3701
  234MOL0     C31468  10.520   1.497   9.267  0.2994 -0.5051  0.7777
  234MOL0     C31469  10.605   1.376   9.300 -0.0073 -0.1202  0.0773
  234MOL0     C31470  10.748   1.433   9.307 -0.6961  0.6936  0.6722
  234MOL0     C31471  10.774   1.541   9.412  0.1570  0.1223 -0.3808
  234MOL0     N31472  10.915   1.577   9.428 -1.0652  0.0689 -0.6176
  234MOL0     C31473  11.014   1.515   9.513  0.1488  0.1336 -0.3765
  234MOL0     C31474  11.133   1.568   9.469  0.0424 -0.6470  0.1753
  234MOL0     C31475  11.266   1.525   9.523 -0.0488  0.2990  0.0501
  234MOL0     C31476  11.359   1.629   9.571  0.0275  0.3303 -0.4605
  234MOL0     C31477  11.497   1.574   9.605 -0.2615 -0.7990  0.9457
  234MOL0     C31478  11.590   1.550   9.482 -0.2260 -0.2196  0.3924
  234MOL0     O31479  11.596   1.650   9.386  0.3648  0.8854 -0.4432
  234MOL0     C31480  11.720   1.706   9.392 -0.6362 -0.3965  0.0940
  234MOL0     C31481  11.743   1.798   9.497  0.3387 -0.2957  0.2764
  234MOL0     C31482  11.858   1.882   9.495 -0.6602 -0.4311  0.5727
  234MOL0     C31483  11.939   1.879   9.371  0.4832  0.5587  0.1658
  234MOL0     C31484  12.055   1.967   9.363  0.7056  0.1121  0.4478
  234MOL0     O31485  12.142   1.930   9.259 -0.0398 -0.1429  0.1926
  234MOL0     C31486  12.225   2.019   9.205 -0.4222  0.3696 -0.4579
  234MOL0     C31487  12.274   2.135   9.253  0.2762 -0.5346 -0.3636
  234MOL0     C31488  12.370   2.207   9.181 -0.3776  0.5052 -0.1457
  234MOL0     C31489  12.442   2.154   9.073  0.2682 -0.3861  0.5368
  234MOL0     O31490  12.551   2.221   9.020 -0.0429  0.1110 -0.1077
  234MOL0     C31491  12.606   2.180   8.893 -0.1720 -0.6051  0.3544
  234MOL0     C31492  12.731   2.253   8.881 -0.5823 -0.3301  0.2302
  234MOL0     C31493  12.828   2.208   8.771 -0.1957 -0.7673  0.4805
  234MOL0     C31494  12.948   2.291   8.801 -0.2939 -0.6449 -0.0397
  234MOL0     C31495  13.063   2.247   8.710 -0.5285  0.1211  0.1742
  234MOL0     C31496  13.146   2.362   8.669 -0.3424 -0.0136 -0.1403
  234MOL0     C31497  13.275   2.309   8.605  0.0364 -0.4501 -1.1647
  234MOL0     C31498  13.370   2.420   8.551  0.1635  0.6864 -0.4267
  234MOL0    Cl31499  13.422   2.541   8.680  0.1852 -0.2169  0.1173
  234MOL0     C31500  12.392   2.037   9.021  0.4400 -0.5570  0.7723
  234MOL0     C31501  12.280   1.967   9.086  0.0949 -0.2580  0.5256
  234MOL0     O31502  12.081   2.049   9.452  0.1477 -0.1765 -0.1884
  234MOL0     C31503  11.906   1.794   9.268  0.0001  0.3636  0.0615
  234MOL0     C31504  11.803   1.703   9.278  0.6793  0.1079  0.1164
  234MOL0     N31505  11.110   1.658   9.364 -0.6656 -0.5318  0.5722
  234MOL0     N31506  10.982   1.658   9.336 -0.1417  0.1847 -0.2486
  234MOL0     C31507   9.721   1.491   9.407  1.0794 -0.2833 -0.6138
  234MOL0     C31508   9.642   1.511   9.522 -0.4438  0.6206  0.2777
  234MOL0     C31509   9.453   1.638   9.910  0.3598  0.4658  0.0646
  234MOL0     C31510   9.436   1.734  10.016 -0.2773  0.8773 -0.5327
  234MOL0     C31511   9.325   1.752  10.099 -0.0827 -0.2672 -0.0883
  234MOL0     C31512   9.214   1.672  10.071  0.0428 -0.5611  0.3190
  234MOL0     O31513   9.095   1.667  10.139  0.1492  0.1926  0.3547
  234MOL0     C31514   9.035   1.792  10.160 -0.0049  0.2057  1.0685
  234MOL0     C31515   8.887   1.784  10.160 -0.5101 -0.4970  0.1122
  234MOL0     C31516   8.829   1.700  10.285  0.1710  0.4420  0.6732
  234MOL0     C31517   8.680   1.713  10.308 -0.5386  0.5822  0.1941
  234MOL0     C31518   8.646   1.843  10.375 -0.5538 -0.9085  0.2820
  234MOL0     C31519   8.599   1.949  10.408  0.3188  0.3574  0.4619
  234MOL0     C31520   9.225   1.578   9.972  0.9636  0.3753 -0.4184
  234MOL0     C31521   9.334   1.561   9.887  0.2109  0.4602 -1.1689
  234MOL0     C31522   9.312   1.445   9.780 -0.3206  0.1166  0.6598
  234MOL0     H31523   9.863   1.440   9.780 -0.4710  2.1753  1.0798
  234MOL0     H31524   9.997   1.397   9.588 -0.3873 -1.6686 -0.6701
  234MOL0     H31525  10.001   1.617   9.314  0.4515  0.1006  0.3622
  234MOL0     H31526  10.106   1.529   9.425 -0.6634 -1.4602  0.4287
  234MOL0     H31527  10.095   1.532   9.122  1.1744  1.1105  0.9969
  234MOL0     H31528  10.139   1.378   9.192  1.3212 -0.5996 -2.4519
  234MOL0     H31529  10.282   1.632   9.294 -0.0153  0.0441  0.1115
  234MOL0     H31530  10.314   1.595   9.122 -2.7088 -3.6066 -1.7283
  234MOL0     H31531  10.343   1.390   9.340  2.1977 -2.5114  0.0045
  234MOL0     H31532  10.372   1.357   9.184 -1.5208 -1.3435  1.8269
  234MOL0     H31533  10.561   1.549   9.180  0.5350  0.2468  1.3240
  234MOL0     H31534  10.512   1.564   9.354  1.9900 -1.7230  1.9154
  234MOL0     H31535  10.575   1.320   9.389 -2.1089 -1.5133 -1.4086
  234MOL0     H31536  10.602   1.303   9.218  1.9278  1.5281 -1.5565
  234MOL0     H31537  10.780   1.473   9.211  2.6031 -0.5040  1.1363
  234MOL0     H31538  10.814   1.348   9.326 -1.9843 -1.1828 -2.4392
  234MOL0     H31539  10.731   1.640   9.389  0.8388  0.8528  1.3618
  234MOL0     H31540  10.749   1.501   9.510 -3.5034  2.4741 -0.1441
  234MOL0     H31541  11.005   1.435   9.586 -1.9710  0.9613  0.3279
  234MOL0     H31542  11.232   1.460   9.604 -0.1281 -0.0440 -0.2584
  234MOL0     H31543  11.320   1.468   9.447  1.1224 -0.6077  1.4887
  234MOL0     H31544  11.360   1.714   9.502 -2.0276  0.0656 -0.9023
  234MOL0     H31545  11.313   1.672   9.661 -1.5263 -0.2101 -0.9511
  234MOL0     H31546  11.480   1.476   9.652 -6.3795  0.0595  1.3039
  234MOL0     H31547  11.545   1.641   9.677  2.1780 -1.8176  0.3827
  234MOL0     H31548  11.554   1.454   9.444 -0.2066  0.3185 -1.0290
  234MOL0     H31549  11.682   1.521   9.534  1.0116  3.3794  0.4433
  234MOL0     H31550  11.679   1.806   9.584 -0.1855 -0.8431 -0.0562
  234MOL0     H31551  11.877   1.960   9.568  1.5075  0.1743 -0.5291
  234MOL0     H31552  12.229   2.182   9.340  0.6243 -0.9043  0.0207
  234MOL0     H31553  12.409   2.301   9.219  2.0379  0.1069 -1.4113
  234MOL0     H31554  12.624   2.073   8.903 -0.5613 -0.7900 -0.7625
  234MOL0     H31555  12.548   2.199   8.802  2.2497  0.1205 -1.1283
  234MOL0     H31556  12.710   2.360   8.886 -0.7726 -0.2422 -1.7768
  234MOL0     H31557  12.784   2.229   8.974 -1.6787 -2.4359  0.3580
  234MOL0     H31558  12.860   2.105   8.790 -1.1214 -0.7434  2.3521
  234MOL0     H31559  12.790   2.229   8.671  1.5157 -2.8134 -0.6928
  234MOL0     H31560  12.980   2.299   8.906 -1.8355  0.4673  0.3846
  234MOL0     H31561  12.924   2.395   8.776  0.2001  0.1223  2.3453
  234MOL0     H31562  13.033   2.194   8.619 -0.6768  1.2158 -0.4330
  234MOL0     H31563  13.119   2.177   8.773  0.8850  1.0361 -0.0235
  234MOL0     H31564  13.100   2.445   8.615  3.7980  1.9561 -1.0876
  234MOL0     H31565  13.183   2.416   8.756  3.6505  0.4496 -1.8948
  234MOL0     H31566  13.241   2.236   8.531  0.0129 -0.7855 -0.8266
  234MOL0     H31567  13.335   2.247   8.672 -2.6916 -1.8101  0.1530
  234MOL0     H31568  13.455   2.366   8.508 -0.1714 -0.1057 -0.1254
  234MOL0     H31569  13.320   2.471   8.468  1.3946  1.5089 -0.6869
  234MOL0     H31570  12.431   1.983   8.936  1.8547  0.9442  0.4031
  234MOL0     H31571  12.246   1.877   9.036 -0.4397  0.3176 -0.1576
  234MOL0     H31572  11.970   1.788   9.181 -0.0548  1.5304 -0.0764
  234MOL0     H31573  11.782   1.622   9.208 -0.5537  0.1751  0.3787
  234MOL0     H31574   9.695   1.520   9.306  1.1377 -3.9568 -1.8333
  234MOL0     H31575   9.535   1.518   9.511 -0.5437 -1.1215 -0.1980
  234MOL0     H31576   9.524   1.788  10.050  1.7298 -2.6567  0.4322
  234MOL0     H31577   9.325   1.830  10.174 -2.3909 -0.1224 -0.1762
  234MOL0     H31578   9.066   1.871  10.090 -0.8178 -0.6942 -0.3404
  234MOL0     H31579   9.070   1.833  10.255 -1.6954  0.2115  1.7223
  234MOL0     H31580   8.853   1.745  10.064 -1.5470 -0.6220  0.5163
  234MOL0     H31581   8.856   1.889  10.168  2.3014  0.3632  1.0226
  234MOL0     H31582   8.888   1.728  10.373  1.3301  3.9846 -1.0277
  234MOL0     H31583   8.844   1.595  10.261 -0.4732  0.4220  0.3358
  234MOL0     H31584   8.633   1.703  10.210  0.7113 -0.7284 -0.2990
  234MOL0     H31585   8.647   1.643  10.386 -0.1395  0.3292  0.1362
  234MOL0     H31586   8.552   2.039  10.443 -0.7564 -0.1637  0.4020
  234MOL0     H31587   9.143   1.508   9.960  0.2427  1.1613 -0.2069
  234MOL0     H31588   9.380   1.359   9.786 -2.1139 -1.6469 -1.9387
  234MOL0     H31589   9.229   1.376   9.793 -0.1947  0.1266  1.6115
  234MOL0     H31590   9.315   1.497   9.684 -1.0954 -0.6626  0.2047
  235MOL0     O31591   5.937   5.542   0.434 -0.7790 -0.1779  0.5170
  235MOL0     C31592   5.855   5.593   0.358  0.0632 -0.3124  0.0684
  235MOL0     O31593   5.871   5.629   0.222  0.1543 -0.0305 -0.3663
  235MOL0     C31594   6.005   5.669   0.205 -0.0545 -0.2830  0.8746
  235MOL0     C31595   6.061   5.625   0.084  1.1793  0.2542  0.0637
  235MOL0     C31596   6.189   5.663   0.044  0.5827  0.0635  0.4150
  235MOL0     C31597   6.265   5.743   0.122  0.8554 -0.0484 -0.5898
  235MOL0     O31598   6.395   5.773   0.096  0.4791 -0.4000 -0.3016
  235MOL0     C31599   6.475   5.696   0.009  1.3309  0.1571 -0.5900
  235MOL0     C31600   6.622   5.700   0.047 -0.4673  0.0735  0.4267
  235MOL0     C31601   6.685   5.840   0.038 -0.1667  0.1007 -0.5262
  235MOL0     C31602   6.841   5.839   0.046  0.6385  0.1803  0.8007
  235MOL0     C31603   6.894   5.974   0.099  0.0654  0.0551 -0.7215
  235MOL0     C31604   7.033   5.962   0.146 -0.9540  0.0295 -0.5579
  235MOL0     C31605   7.122   6.093   0.124 -0.4286  0.6335  0.4690
  235MOL0     C31606   7.058   6.226   0.169  0.1513  0.8787  0.2220
  235MOL0     N31607   7.174   6.323   0.197  0.1378  0.5439 -0.1651
  235MOL0     C31608   7.282   6.332   0.121  0.3576 -0.2215  0.4764
  235MOL0     C31609   7.361   6.435   0.177 -0.4663 -0.9591  0.2405
  235MOL0     C31610   7.477   6.512   0.122 -0.8398 -0.3002  0.1504
  235MOL0     C31611   7.572   6.526   0.240  0.0097 -0.6116 -0.0258
  235MOL0     C31612   7.724   6.564   0.207  0.7261  0.9515 -0.0462
  235MOL0     C31613   7.821   6.613   0.316  0.8007 -0.6108 -0.5908
  235MOL0     O31614   7.945   6.615   0.251 -0.0982  0.5691  0.4410
  235MOL0     C31615   8.059   6.635   0.334  0.1401 -1.1897  0.4858
  235MOL0     C31616   8.052   6.678   0.461  0.0228 -0.2141  0.0930
  235MOL0     C31617   8.173   6.707   0.532 -0.0718 -0.6455  0.4721
  235MOL0     C31618   8.296   6.703   0.463  0.1877  0.1246 -0.0860
  235MOL0     C31619   8.429   6.721   0.534  1.3612 -0.7926 -0.0981
  235MOL0     O31620   8.442   6.717   0.671  0.0376  0.0128  0.6898
  235MOL0     C31621   8.566   6.746   0.722  0.4229  0.3556  0.2405
  235MOL0     C31622   8.697   6.715   0.683 -1.4415  0.6359  0.5548
  235MOL0     C31623   8.807   6.753   0.762 -0.1169 -0.2728  0.3783
  235MOL0     C31624   8.790   6.837   0.875 -0.2964  0.3794  0.3516
  235MOL0     O31625   8.889   6.895   0.946 -0.8869  0.3981 -0.1396
  235MOL0     C31626   9.000   6.813   0.965 -0.1273 -0.4946  0.8306
  235MOL0     C31627   9.058   6.875   1.097  0.3477 -0.3910  0.2399
  235MOL0     C31628   9.184   6.790   1.142 -0.0074 -0.7397  0.4696
  235MOL0     C31629   9.253   6.871   1.249 -0.7569  0.0324 -0.4407
  235MOL0     C31630   9.360   6.783   1.330 -0.6268 -0.3040  0.4055
  235MOL0     C31631   9.459   6.716   1.240  0.3240  0.6941  0.2077
  235MOL0     C31632   9.582   6.663   1.321 -0.3625  0.2114 -0.4398
  235MOL0     C31633   9.662   6.584   1.222 -0.5222  0.0824 -0.2734
  235MOL0    Cl31634   9.814   6.543   1.293 -0.4878  0.6810  0.2393
  235MOL0     C31635   8.657   6.862   0.909  0.3528  0.1331 -0.6358
  235MOL0     C31636   8.548   6.824   0.833 -0.2653 -0.5524 -0.3442
  235MOL0     O31637   8.518   6.760   0.457 -0.2452 -0.1851 -0.6061
  235MOL0     C31638   8.299   6.680   0.323  0.8205 -0.3647  0.2715
  235MOL0     C31639   8.182   6.641   0.260 -0.6381  0.2764 -0.4943
  235MOL0     N31640   7.304   6.470   0.300 -0.4883 -0.2179  0.4384
  235MOL0     N31641   7.193   6.401   0.308  0.3551 -0.5424  0.8296
  235MOL0     C31642   6.216   5.793   0.238  0.4008  0.1657  0.3209
  235MOL0     C31643   6.085   5.755   0.278  0.6032  0.0127 -0.2010
  235MOL0     C31644   5.725   5.595   0.416 -0.2119 -0.3850  0.0963
  235MOL0     C31645   5.680   5.722   0.457 -0.1716  0.8742 -0.4066
  235MOL0     C31646   5.559   5.727   0.530  0.4522 -0.9254  0.8442
  235MOL0     C31647   5.468   5.623   0.527 -0.6392 -0.4467 -0.2338
  235MOL0     O31648   5.343   5.635   0.578 -0.5467  0.2317 -0.1136
  235MOL0     C31649   5.313   5.567   0.702  1.2094 -0.0428  0.7880
  235MOL0     C31650   5.193   5.637   0.780 -0.4094  1.0275 -0.1938
  235MOL0     C31651   5.244   5.761   0.846 -0.7707 -0.6299 -0.6140
  235MOL0     C31652   5.142   5.829   0.934  0.5341 -0.3458  0.4238
  235MOL0     C31653   5.215   5.923   1.023  0.8493 -0.1516  0.0836
  235MOL0     C31654   5.266   6.012   1.083 -1.1059  0.0137 -0.0480
  235MOL0     C31655   5.511   5.499   0.472 -0.1516  0.4563  0.2513
  235MOL0     C31656   5.643   5.483   0.424  0.9102 -0.7558 -0.0493
  235MOL0     C31657   5.696   5.352   0.372  0.8294 -0.0764 -0.2401
  235MOL0     H31658   6.000   5.563   0.020 -1.2019  0.9591  1.5235
  235MOL0     H31659   6.226   5.633  -0.053 -0.9187  5.4210 -2.2010
  235MOL0     H31660   6.441   5.593   0.019  1.7085 -0.1915 -2.4751
  235MOL0     H31661   6.453   5.726  -0.094  1.3961  0.0451 -0.6369
  235MOL0     H31662   6.673   5.625  -0.015 -3.3496 -1.3381 -0.4264
  235MOL0     H31663   6.625   5.662   0.150 -2.3531 -1.3272  0.0245
  235MOL0     H31664   6.639   5.896   0.121 -1.5587 -2.5277  0.5911
  235MOL0     H31665   6.659   5.898  -0.051 -1.0920  0.6165  0.0558
  235MOL0     H31666   6.883   5.749   0.090 -0.5854 -1.1642 -0.6504
  235MOL0     H31667   6.871   5.825  -0.059  1.6475  3.3849  0.5315
  235MOL0     H31668   6.890   6.048   0.020 -1.5792  0.4214 -0.3169
  235MOL0     H31669   6.840   6.014   0.185  2.8651  0.9919  0.7183
  235MOL0     H31670   7.038   5.939   0.253 -1.3419 -1.0568 -0.7594
  235MOL0     H31671   7.075   5.879   0.088 -0.3798  0.6122 -0.9916
  235MOL0     H31672   7.147   6.101   0.017 -0.0637  2.4470  0.6506
  235MOL0     H31673   7.213   6.082   0.183 -0.5860 -2.0847  0.2965
  235MOL0     H31674   6.993   6.260   0.088 -0.3103 -0.6557 -0.0877
  235MOL0     H31675   6.997   6.225   0.260 -1.5723  0.6021 -0.8854
  235MOL0     H31676   7.298   6.283   0.025  0.9093 -0.0160  0.4602
  235MOL0     H31677   7.532   6.448   0.052  1.6685 -0.6394  2.2392
  235MOL0     H31678   7.460   6.606   0.070 -1.7408  0.4167  1.6894
  235MOL0     H31679   7.523   6.599   0.305  0.4478  0.9231 -1.3637
  235MOL0     H31680   7.572   6.428   0.289  3.1563 -1.2743 -1.1050
  235MOL0     H31681   7.728   6.646   0.135  1.7045  0.9589  0.0053
  235MOL0     H31682   7.773   6.478   0.160  1.3237  0.2800  1.7272
  235MOL0     H31683   7.812   6.539   0.396 -3.9621  0.8637  0.6003
  235MOL0     H31684   7.802   6.714   0.351 -0.7914 -1.8811  2.6056
  235MOL0     H31685   7.952   6.676   0.503 -2.1569 -1.4195 -4.4783
  235MOL0     H31686   8.181   6.722   0.640  1.3868 -1.0460  0.4373
  235MOL0     H31687   8.715   6.660   0.591 -0.8471  2.5223 -0.4961
  235MOL0     H31688   8.906   6.724   0.726  1.0727  2.5116  1.1221
  235MOL0     H31689   8.976   6.707   0.983 -1.9959 -0.3692 -0.5376
  235MOL0     H31690   9.073   6.819   0.884 -1.2886 -1.7491 -0.3871
  235MOL0     H31691   9.092   6.979   1.089  3.7541 -0.8510  4.7954
  235MOL0     H31692   8.978   6.860   1.170  1.3085 -2.5197  0.9406
  235MOL0     H31693   9.147   6.694   1.179 -0.6546 -0.9329 -0.6220
  235MOL0     H31694   9.243   6.774   1.051 -0.3166 -1.4904  0.3909
  235MOL0     H31695   9.180   6.917   1.315 -2.0063 -2.0091 -0.3109
  235MOL0     H31696   9.308   6.954   1.204  0.0261 -0.6692 -0.8026
  235MOL0     H31697   9.308   6.700   1.379 -0.1847 -0.5714  0.4311
  235MOL0     H31698   9.417   6.838   1.406  0.6005 -3.0597  1.6399
  235MOL0     H31699   9.407   6.628   1.202 -2.0090  2.0529  0.1045
  235MOL0     H31700   9.502   6.779   1.162  0.8416  0.4467  0.2847
  235MOL0     H31701   9.560   6.608   1.413 -0.2732  0.0092 -0.5396
  235MOL0     H31702   9.637   6.753   1.352 -0.1232 -0.1360  0.1616
  235MOL0     H31703   9.607   6.490   1.208  1.2834 -0.7128 -2.8647
  235MOL0     H31704   9.678   6.638   1.128  1.2260  0.7996  0.3933
  235MOL0     H31705   8.645   6.938   0.986  2.7350 -0.0531  0.0080
  235MOL0     H31706   8.448   6.858   0.857  0.0536 -1.4065  2.7669
  235MOL0     H31707   8.391   6.683   0.266  0.7457  0.6695  0.1872
  235MOL0     H31708   8.161   6.627   0.154 -1.3317 -1.4940 -0.1560
  235MOL0     H31709   6.280   5.848   0.306  0.2257  1.0916 -0.2571
  235MOL0     H31710   6.030   5.782   0.367 -1.3011 -1.4042 -0.8840
  235MOL0     H31711   5.743   5.811   0.459  0.2683  0.6864 -2.6350
  235MOL0     H31712   5.526   5.821   0.574 -2.2490 -1.3675 -0.0663
  235MOL0     H31713   5.390   5.577   0.779 -0.9222 -1.2226  3.2501
  235MOL0     H31714   5.295   5.459   0.692  0.6873  0.1437 -0.4791
  235MOL0     H31715   5.150   5.565   0.851  0.0852 -0.1121 -1.0308
  235MOL0     H31716   5.109   5.653   0.711 -0.7787  2.3253  0.5149
  235MOL0     H31717   5.278   5.836   0.774 -1.3394 -0.2436 -0.4834
  235MOL0     H31718   5.332   5.731   0.903 -1.1452 -2.4206 -0.9170
  235MOL0     H31719   5.075   5.878   0.862 -0.7148  0.2751  1.9666
  235MOL0     H31720   5.082   5.757   0.991 -3.4008  2.1767 -0.1437
  235MOL0     H31721   5.315   6.088   1.141  1.2902 -0.4969 -1.2322
  235MOL0     H31722   5.457   5.406   0.466  1.2443 -0.2775 -3.4217
  235MOL0     H31723   5.669   5.269   0.437  1.7456 -1.0790 -1.1119
  235MOL0     H31724   5.649   5.333   0.275  3.7912 -2.4847 -1.3625
  235MOL0     H31725   5.804   5.345   0.359  0.6626 -2.7203 -0.6912
  236MOL0     O31726   9.317   6.565   7.519 -0.9950 -0.4894 -0.5169
  236MOL0     C31727   9.199   6.535   7.496 -0.1032  0.2737  0.8667
  236MOL0     O31728   9.154   6.444   7.408 -0.2202  0.9206 -0.1639
  236MOL0     C31729   9.258   6.377   7.352 -0.4646  0.7664  0.3684
  236MOL0     C31730   9.348   6.443   7.258 -0.0613  0.0827 -0.0603
  236MOL0     C31731   9.458   6.372   7.209 -0.1053 -0.6766  0.0746
  236MOL0     C31732   9.481   6.231   7.236 -0.3271  0.4496  0.2934
  236MOL0     O31733   9.588   6.154   7.192 -0.1983 -0.7830  0.3001
  236MOL0     C31734   9.710   6.224   7.173 -0.3915  0.0061  0.0853
  236MOL0     C31735   9.816   6.119   7.193 -0.9819 -0.7902 -0.4154
  236MOL0     C31736   9.961   6.143   7.151  0.1073  0.5137  0.2663
  236MOL0     C31737  10.067   6.040   7.200  0.7914  0.2021  0.1558
  236MOL0     C31738  10.212   6.079   7.160  0.5171  0.7543  0.4597
  236MOL0     C31739  10.303   5.962   7.185 -0.2655  0.7539 -0.5382
  236MOL0     C31740  10.441   5.974   7.111  1.0789  0.7822 -0.1224
  236MOL0     C31741  10.414   5.949   6.970 -0.6762 -1.1261 -0.6051
  236MOL0     N31742  10.526   5.962   6.881 -0.0068  0.0914  0.0395
  236MOL0     C31743  10.661   5.927   6.895  1.4548 -0.2800 -1.1384
  236MOL0     C31744  10.718   5.944   6.775  0.9779  0.2993  0.0607
  236MOL0     C31745  10.863   5.939   6.759 -0.1933 -0.0125  0.3367
  236MOL0     C31746  10.922   6.084   6.741 -0.6101  0.3156 -0.2642
  236MOL0     C31747  11.070   6.079   6.700  0.6829 -0.3203  0.3181
  236MOL0     C31748  11.151   6.206   6.671 -0.0131  0.0509 -0.0414
  236MOL0     O31749  11.254   6.171   6.575  0.7611  0.7078  0.4410
  236MOL0     C31750  11.333   6.279   6.527  0.1205 -0.0753  0.2003
  236MOL0     C31751  11.445   6.239   6.451  0.8534 -0.4752  0.4756
  236MOL0     C31752  11.526   6.342   6.397 -0.6377  0.0583  0.1526
  236MOL0     C31753  11.498   6.479   6.398  0.0576 -0.0529 -0.4984
  236MOL0     C31754  11.575   6.585   6.328  0.2433 -0.4720 -0.2192
  236MOL0     O31755  11.701   6.567   6.292 -0.3123  0.2427 -0.3175
  236MOL0     C31756  11.777   6.638   6.200 -1.7575 -0.0159 -0.4675
  236MOL0     C31757  11.913   6.597   6.204 -0.3611  0.7830  1.2619
  236MOL0     C31758  12.010   6.659   6.132  0.0910  0.3773  0.2732
  236MOL0     C31759  11.974   6.762   6.040  1.0979 -0.4502 -0.4065
  236MOL0     O31760  12.063   6.851   5.974 -0.1379  0.7797 -0.1188
  236MOL0     C31761  12.207   6.818   5.982  0.3517 -0.2833  0.6618
  236MOL0     C31762  12.288   6.933   5.922 -0.4951 -1.1526  0.0611
  236MOL0     C31763  12.447   6.919   5.944  0.8855 -0.5735  0.2040
  236MOL0     C31764  12.516   6.777   5.924  0.4760 -0.4675 -0.3413
  236MOL0     C31765  12.659   6.782   5.995  0.3883 -0.4158  0.2720
  236MOL0     C31766  12.747   6.665   5.953  1.0204 -0.2404  0.1731
  236MOL0     C31767  12.867   6.656   6.040  0.2044 -0.2869 -0.4188
  236MOL0     C31768  12.963   6.554   5.989 -0.4885  0.1256  0.0352
  236MOL0    Cl31769  13.077   6.505   6.120  0.4865  0.1567 -0.0751
  236MOL0     C31770  11.837   6.795   6.031 -0.6549 -0.2188  0.4839
  236MOL0     C31771  11.736   6.737   6.108  0.4885  0.5565  0.3888
  236MOL0     O31772  11.507   6.682   6.287  0.1184 -0.4486 -0.3671
  236MOL0     C31773  11.380   6.517   6.470 -0.0153 -0.0566  0.2059
  236MOL0     C31774  11.306   6.423   6.540  0.3681  1.8306  0.2658
  236MOL0     N31775  10.612   5.961   6.692  0.1538  0.0256 -0.0479
  236MOL0     N31776  10.504   5.974   6.747  0.0649 -0.3204 -0.6077
  236MOL0     C31777   9.388   6.169   7.322  0.3331 -0.4677 -0.2310
  236MOL0     C31778   9.281   6.239   7.387  0.1359  0.0992  0.2983
  236MOL0     C31779   9.096   6.600   7.579  0.8245 -0.6094 -0.5310
  236MOL0     C31780   9.117   6.627   7.713 -0.3342  0.0007 -0.1876
  236MOL0     C31781   9.028   6.708   7.797  0.2211  0.4277 -0.1670
  236MOL0     C31782   8.927   6.776   7.734 -0.0915  0.0288 -0.7237
  236MOL0     O31783   8.829   6.850   7.793  0.0267 -0.4059  0.1397
  236MOL0     C31784   8.864   6.919   7.911 -0.3789 -0.1048  0.8171
  236MOL0     C31785   8.744   7.006   7.957 -0.4098 -0.9873 -0.2409
  236MOL0     C31786   8.795   7.136   8.031  1.0542  0.1216  0.3823
  236MOL0     C31787   8.677   7.218   8.094 -0.3061  0.2562 -0.0213
  236MOL0     C31788   8.615   7.138   8.203  0.5815 -1.2664 -0.3746
  236MOL0     C31789   8.554   7.086   8.294 -0.1123 -0.8465  0.5593
  236MOL0     C31790   8.900   6.743   7.609 -0.6074  0.5095  0.4433
  236MOL0     C31791   8.976   6.656   7.527 -1.1421 -0.0720  0.0175
  236MOL0     C31792   8.925   6.631   7.384 -0.9246 -0.3782 -0.1461
  236MOL0     H31793   9.337   6.548   7.232 -0.0911  0.0840 -0.0404
  236MOL0     H31794   9.522   6.431   7.144 -0.7778  1.9734  1.6779
  236MOL0     H31795   9.712   6.267   7.073 -0.1895 -0.6209 -0.1844
  236MOL0     H31796   9.717   6.309   7.242  1.7864 -0.0070 -0.0688
  236MOL0     H31797   9.789   6.032   7.132 -2.9012 -0.9536  0.5726
  236MOL0     H31798   9.817   6.086   7.298 -0.6124 -1.8334 -0.7334
  236MOL0     H31799   9.990   6.243   7.184  0.2615  0.4627  0.2867
  236MOL0     H31800   9.954   6.132   7.043  0.2530 -4.3103  0.5220
  236MOL0     H31801  10.071   6.021   7.308  1.6661  3.3077  0.7667
  236MOL0     H31802  10.055   5.946   7.146  0.2002  0.9900 -1.1256
  236MOL0     H31803  10.205   6.108   7.055  0.9662  1.3569  0.5886
  236MOL0     H31804  10.252   6.171   7.204  1.4765  0.8213 -0.5184
  236MOL0     H31805  10.311   5.948   7.293  2.4751 -2.6262 -1.0346
  236MOL0     H31806  10.259   5.869   7.147  1.0422 -0.6392  1.2011
  236MOL0     H31807  10.506   5.893   7.148  1.5688  1.9502  1.7324
  236MOL0     H31808  10.493   6.069   7.124  0.2907  1.2774 -0.5333
  236MOL0     H31809  10.372   5.848   6.959 -0.6239 -1.0563 -1.4672
  236MOL0     H31810  10.340   6.020   6.932  0.9061  1.4519  0.8527
  236MOL0     H31811  10.702   5.901   6.992 -1.7349 -1.6944 -0.0074
  236MOL0     H31812  10.901   5.888   6.848 -3.6210 -1.5923  1.0503
  236MOL0     H31813  10.894   5.879   6.673  1.7872  0.4564  0.6664
  236MOL0     H31814  10.864   6.145   6.671 -1.0378 -0.7384 -0.8593
  236MOL0     H31815  10.921   6.131   6.840 -0.7209 -0.9502  0.3521
  236MOL0     H31816  11.074   6.020   6.608 -3.8660 -0.0056 -0.3222
  236MOL0     H31817  11.121   6.035   6.786  1.2180 -1.3408 -0.4912
  236MOL0     H31818  11.204   6.245   6.759 -2.0177  0.1169  1.2021
  236MOL0     H31819  11.078   6.278   6.633 -1.3316 -2.7230 -3.2214
  236MOL0     H31820  11.458   6.132   6.434 -0.1101 -0.3426 -1.3198
  236MOL0     H31821  11.602   6.299   6.333 -0.4545  1.2356 -0.4480
  236MOL0     H31822  11.954   6.515   6.261  0.8096  0.8665  0.5751
  236MOL0     H31823  12.112   6.623   6.135  0.1184  0.4603  0.3346
  236MOL0     H31824  12.243   6.799   6.083 -0.1827 -1.9869  0.5712
  236MOL0     H31825  12.212   6.732   5.914 -1.7562  0.7025 -0.8595
  236MOL0     H31826  12.272   6.941   5.814  0.7712  0.5561 -0.0560
  236MOL0     H31827  12.253   7.025   5.969 -0.3673 -0.4421 -1.1830
  236MOL0     H31828  12.485   6.991   5.870  0.9798 -0.6430  0.1847
  236MOL0     H31829  12.466   6.963   6.043 -0.0835 -0.3192  0.2942
  236MOL0     H31830  12.527   6.772   5.815  2.2567  2.6956 -0.4433
  236MOL0     H31831  12.459   6.690   5.958  1.6237 -0.1097  2.8057
  236MOL0     H31832  12.649   6.797   6.103  4.4690  2.4179  0.4630
  236MOL0     H31833  12.708   6.871   5.955 -0.7903  1.2867  2.4091
  236MOL0     H31834  12.690   6.572   5.956  0.6389 -0.0358  3.1366
  236MOL0     H31835  12.773   6.699   5.853 -1.0391 -0.2900 -0.4173
  236MOL0     H31836  12.838   6.624   6.140  2.3134  1.7538  0.9563
  236MOL0     H31837  12.922   6.749   6.057 -3.4797  1.8402  1.1445
  236MOL0     H31838  12.923   6.468   5.936  1.1352 -1.7997  1.7577
  236MOL0     H31839  13.019   6.608   5.912 -0.1353 -1.4411 -0.8285
  236MOL0     H31840  11.812   6.870   5.957 -0.4244 -0.6311 -0.0153
  236MOL0     H31841  11.631   6.765   6.098 -0.0319 -1.5748 -0.8417
  236MOL0     H31842  11.344   6.618   6.479  0.9650  0.5172 -1.6069
  236MOL0     H31843  11.214   6.460   6.585 -0.3517 -0.8790  1.2603
  236MOL0     H31844   9.398   6.062   7.335 -0.7976 -0.3836  1.6811
  236MOL0     H31845   9.225   6.179   7.457 -0.9485 -1.4244 -1.7579
  236MOL0     H31846   9.211   6.587   7.751  0.3667  1.3826 -0.3772
  236MOL0     H31847   9.064   6.730   7.897 -0.1043 -0.0186  0.0506
  236MOL0     H31848   8.945   6.989   7.887  0.4694 -1.5203 -0.5999
  236MOL0     H31849   8.905   6.855   7.989  2.4742  0.3839 -0.1863
  236MOL0     H31850   8.685   6.953   8.032  1.7136 -4.2585 -0.6510
  236MOL0     H31851   8.675   7.033   7.877 -1.3440  2.1985  1.4751
  236MOL0     H31852   8.851   7.191   7.956  0.9837 -0.8844 -0.4296
  236MOL0     H31853   8.873   7.114   8.105  1.8262  1.7476  0.0987
  236MOL0     H31854   8.721   7.306   8.144  2.0116 -1.2731  0.8132
  236MOL0     H31855   8.610   7.250   8.014 -0.2788  1.0182  0.2501
  236MOL0     H31856   8.496   7.037   8.370 -1.5472 -3.0001 -1.7559
  236MOL0     H31857   8.814   6.794   7.565  0.9086  2.4778 -0.4041
  236MOL0     H31858   8.890   6.528   7.382  1.1638 -1.1551  0.4628
  236MOL0     H31859   8.848   6.702   7.352 -0.5671 -0.7358 -1.9070
  236MOL0     H31860   9.005   6.630   7.308 -0.4736  2.6707  0.1459
  237MOL0     O31861   1.590   4.529   3.632 -0.0646  0.3933 -0.8898
  237MOL0     C31862   1.541   4.561   3.521 -0.6906  0.1356 -0.2611
  237MOL0     O31863   1.613   4.550   3.401 -0.2900 -0.4877 -0.4819
  237MOL0     C31864   1.751   4.570   3.394 -0.1045 -1.2452 -0.0035
  237MOL0     C31865   1.828   4.513   3.289  0.0467  0.1388  0.7838
  237MOL0     C31866   1.964   4.541   3.278 -0.2702  0.8468  1.0736
  237MOL0     C31867   2.032   4.615   3.374  0.0715  0.6251  0.3333
  237MOL0     O31868   2.168   4.629   3.349 -0.5240  0.1280 -0.2198
  237MOL0     C31869   2.242   4.693   3.451 -0.7786  1.1554 -0.6687
  237MOL0     C31870   2.392   4.667   3.445  0.2421  0.1693  0.4641
  237MOL0     C31871   2.468   4.772   3.362  1.3643  0.1709  0.0843
  237MOL0     C31872   2.609   4.719   3.349 -0.2388  0.1306  0.6891
  237MOL0     C31873   2.702   4.802   3.262  0.4198  0.1107 -0.6636
  237MOL0     C31874   2.706   4.951   3.289 -0.2563  0.1146  0.0224
  237MOL0     C31875   2.755   4.982   3.433  0.6388  0.5310  0.4172
  237MOL0     C31876   2.887   4.911   3.478  0.3378  0.1819 -0.1396
  237MOL0     N31877   2.989   4.971   3.382 -0.0096 -0.4769 -0.1140
  237MOL0     C31878   3.060   5.087   3.400 -0.3299  0.0564  0.0019
  237MOL0     C31879   3.165   5.066   3.329 -0.3117 -0.8863  0.0870
  237MOL0     C31880   3.273   5.164   3.329 -0.1408 -0.4990 -0.1374
  237MOL0     C31881   3.388   5.125   3.414  0.1183  0.6171  0.0875
  237MOL0     C31882   3.509   5.208   3.385 -0.6724 -0.2127  0.7184
  237MOL0     C31883   3.640   5.154   3.441  0.1965  1.2156  0.0625
  237MOL0     O31884   3.745   5.238   3.384  0.1998 -0.8863  0.1270
  237MOL0     C31885   3.872   5.194   3.405  0.7761 -0.1828 -0.6522
  237MOL0     C31886   3.975   5.275   3.359 -0.5544 -0.4147 -0.3250
  237MOL0     C31887   4.107   5.243   3.373 -0.3698  0.1600 -0.4657
  237MOL0     C31888   4.139   5.123   3.426  0.0488  0.3112  0.3187
  237MOL0     C31889   4.279   5.080   3.418 -0.2425 -0.3374 -0.4562
  237MOL0     O31890   4.355   5.134   3.317  0.8255 -0.2002 -0.3535
  237MOL0     C31891   4.494   5.107   3.323 -0.1365 -0.6463 -0.0048
  237MOL0     C31892   4.581   5.133   3.430  0.1011  1.1649 -0.3199
  237MOL0     C31893   4.718   5.124   3.417  0.1139 -0.3553  0.0063
  237MOL0     C31894   4.775   5.100   3.293  0.8347 -0.4810  0.2008
  237MOL0     O31895   4.913   5.100   3.283  0.5992  0.1502 -0.0516
  237MOL0     C31896   4.981   5.225   3.316  0.2886  0.4019 -0.3987
  237MOL0     C31897   5.127   5.202   3.300 -0.7523  0.8536 -0.0920
  237MOL0     C31898   5.214   5.320   3.360  0.3361 -0.4865  1.4149
  237MOL0     C31899   5.214   5.295   3.515 -0.6460  0.4450  0.2082
  237MOL0     C31900   5.270   5.421   3.589 -0.7286 -0.3544  0.0352
  237MOL0     C31901   5.278   5.421   3.740 -0.6428 -0.2018 -1.2314
  237MOL0     C31902   5.147   5.406   3.812  0.4908 -0.0171 -0.4690
  237MOL0     C31903   5.160   5.414   3.969  0.2667 -0.4812  0.0673
  237MOL0    Cl31904   5.010   5.407   4.045 -0.3729 -0.2206 -0.1694
  237MOL0     C31905   4.692   5.072   3.188 -0.7998 -0.2072 -0.1178
  237MOL0     C31906   4.550   5.077   3.201  0.3003 -0.9685  0.6562
  237MOL0     O31907   4.310   5.000   3.505  0.2896  0.8002  0.6912
  237MOL0     C31908   4.041   5.031   3.470  0.4249  0.3384  0.2985
  237MOL0     C31909   3.910   5.072   3.460  0.3498 -0.8586  0.1929
  237MOL0     N31910   3.158   4.945   3.268  0.5082 -0.3187  0.2523
  237MOL0     N31911   3.045   4.886   3.292 -0.7306  0.0180 -0.1291
  237MOL0     C31912   1.955   4.681   3.473 -0.0160 -0.5899 -0.0244
  237MOL0     C31913   1.818   4.655   3.488 -0.7259 -0.3567  0.3118
  237MOL0     C31914   1.397   4.567   3.512  0.1437 -1.2384  0.8338
  237MOL0     C31915   1.351   4.593   3.382 -0.5409  0.1370  0.5700
  237MOL0     C31916   1.220   4.606   3.344  0.3262 -0.1237 -0.0812
  237MOL0     C31917   1.124   4.595   3.438 -0.1791  0.3777  0.1985
  237MOL0     O31918   0.996   4.614   3.396  0.2317  0.4493 -0.6853
  237MOL0     C31919   0.889   4.574   3.493 -0.1130  1.0172  0.3363
  237MOL0     C31920   0.895   4.421   3.496 -0.1352 -0.6859 -0.0145
  237MOL0     C31921   0.768   4.354   3.552 -0.5769 -0.1539  1.0478
  237MOL0     C31922   0.775   4.199   3.568  0.6634 -1.5507  0.0097
  237MOL0     C31923   0.677   4.159   3.667  0.8945  0.7704 -0.0063
  237MOL0     C31924   0.592   4.145   3.747  0.5158  0.5454 -0.2589
  237MOL0     C31925   1.171   4.584   3.569  1.0133 -0.9262  0.1092
  237MOL0     C31926   1.304   4.576   3.609 -0.1091 -0.4881  0.3755
  237MOL0     C31927   1.340   4.575   3.760  0.3296 -0.4623 -0.0933
  237MOL0     H31928   1.795   4.445   3.211  2.2158 -0.6865  0.5024
  237MOL0     H31929   2.005   4.506   3.184  0.1082 -1.0187  1.8934
  237MOL0     H31930   2.236   4.802   3.456  2.9266  1.4413  1.7763
  237MOL0     H31931   2.213   4.648   3.546  1.5831 -1.3234 -0.9876
  237MOL0     H31932   2.418   4.566   3.410  1.8245  0.9176 -0.7000
  237MOL0     H31933   2.425   4.664   3.549  0.1893 -0.8731  0.4675
  237MOL0     H31934   2.462   4.865   3.420 -2.4824  0.0960  0.0795
  237MOL0     H31935   2.415   4.792   3.268  0.0841 -1.7309  0.3451
  237MOL0     H31936   2.646   4.694   3.449  5.2487 -2.3705 -1.5301
  237MOL0     H31937   2.605   4.622   3.298  0.5807  1.9911 -3.2898
  237MOL0     H31938   2.798   4.751   3.275  0.0452  0.0745  3.1774
  237MOL0     H31939   2.672   4.791   3.157 -0.0961  0.1642 -0.5259
  237MOL0     H31940   2.772   4.998   3.215 -1.4475  5.5434  1.9121
  237MOL0     H31941   2.608   4.996   3.275 -2.3934 -4.1867 -0.5303
  237MOL0     H31942   2.674   4.953   3.500  0.4266 -0.2400 -0.1639
  237MOL0     H31943   2.764   5.091   3.438  0.0531  0.6505 -0.7482
  237MOL0     H31944   2.906   4.948   3.580 -1.7229 -0.4630  0.5102
  237MOL0     H31945   2.884   4.802   3.477  2.9408 -0.0056  1.4287
  237MOL0     H31946   3.029   5.174   3.457 -3.2122 -2.4929  2.7279
  237MOL0     H31947   3.292   5.181   3.223  0.3658  2.1961  0.3056
  237MOL0     H31948   3.236   5.262   3.361 -1.3008 -1.6697  2.3565
  237MOL0     H31949   3.349   5.149   3.514  0.9816  0.9274  0.3536
  237MOL0     H31950   3.419   5.020   3.403 -1.2514  0.2567 -0.5881
  237MOL0     H31951   3.497   5.310   3.422  0.0675 -0.2716  1.1376
  237MOL0     H31952   3.525   5.225   3.278  1.7938  1.0503  1.2069
  237MOL0     H31953   3.648   5.051   3.406 -0.5080  0.6790  1.3866
  237MOL0     H31954   3.648   5.172   3.549  1.4984  1.3855 -0.0465
  237MOL0     H31955   3.934   5.367   3.318 -0.5885  0.2611  1.1740
  237MOL0     H31956   4.180   5.319   3.347  0.7878  0.0675  2.1650
  237MOL0     H31957   4.550   5.162   3.529 -1.3272 -0.0235 -0.3818
  237MOL0     H31958   4.779   5.143   3.505 -0.6772  0.3293  0.4304
  237MOL0     H31959   4.948   5.310   3.255 -0.0695 -0.7386 -1.8764
  237MOL0     H31960   4.956   5.249   3.419 -2.1792 -0.1463 -0.8027
  237MOL0     H31961   5.169   5.113   3.348  1.9899  1.6727 -0.8105
  237MOL0     H31962   5.146   5.182   3.194  0.2876  0.1072  0.2209
  237MOL0     H31963   5.321   5.317   3.338  0.2812 -1.7058  1.2345
  237MOL0     H31964   5.173   5.417   3.331 -0.4605 -1.3216 -0.4146
  237MOL0     H31965   5.262   5.201   3.544  0.2707  1.0153  0.5692
  237MOL0     H31966   5.111   5.291   3.551 -1.5329 -0.0525 -2.2088
  237MOL0     H31967   5.208   5.504   3.554 -0.0316 -0.7097 -2.2865
  237MOL0     H31968   5.372   5.434   3.551 -0.2052 -1.3255  1.0479
  237MOL0     H31969   5.348   5.343   3.772 -2.0289 -0.5507  1.1613
  237MOL0     H31970   5.313   5.521   3.769 -0.3266 -1.0006  1.3886
  237MOL0     H31971   5.109   5.308   3.784 -1.2716 -0.6058  3.3815
  237MOL0     H31972   5.088   5.489   3.771 -2.2435 -2.3741 -1.6580
  237MOL0     H31973   5.225   5.331   3.997 -0.1194 -0.4547  1.0668
  237MOL0     H31974   5.215   5.502   4.002  2.8977 -2.3100  0.8491
  237MOL0     H31975   4.743   5.046   3.095  0.3029 -2.5676  1.0682
  237MOL0     H31976   4.481   5.050   3.122 -0.5700  0.3489  0.9380
  237MOL0     H31977   4.067   4.928   3.495 -1.5587  0.3720  2.8778
  237MOL0     H31978   3.834   5.001   3.491  0.4812 -1.0104  0.1640
  237MOL0     H31979   1.997   4.746   3.549 -0.1924  1.4312 -1.5761
  237MOL0     H31980   1.760   4.721   3.553 -0.2758  1.7542 -1.3230
  237MOL0     H31981   1.421   4.592   3.299  0.7512 -2.1174  1.6143
  237MOL0     H31982   1.188   4.626   3.242  0.2943 -3.2589 -0.7819
  237MOL0     H31983   0.793   4.611   3.457  1.7115  3.1945 -2.8298
  237MOL0     H31984   0.912   4.611   3.593 -0.0122 -0.5488  0.9269
  237MOL0     H31985   0.982   4.374   3.542  0.4030 -0.8952 -1.1995
  237MOL0     H31986   0.897   4.381   3.394 -4.5292  1.2780 -1.1123
  237MOL0     H31987   0.681   4.388   3.495  2.3839  1.3466 -3.0804
  237MOL0     H31988   0.749   4.389   3.654  0.5959  0.4785  1.0799
  237MOL0     H31989   0.760   4.151   3.471 -0.1989  1.8288 -1.7187
  237MOL0     H31990   0.873   4.175   3.611  0.9958 -0.8006 -0.2992
  237MOL0     H31991   0.510   4.121   3.812  0.2688  1.6594 -0.1420
  237MOL0     H31992   1.096   4.597   3.646 -0.1867  1.2218 -1.3334
  237MOL0     H31993   1.393   4.486   3.795 -2.1637 -1.4177  1.5381
  237MOL0     H31994   1.399   4.664   3.779 -2.9565  2.3688 -1.9201
  237MOL0     H31995   1.247   4.570   3.818 -0.6860  0.2814 -1.5592
  238MOL0     O31996   8.912   1.201   8.560  0.8270  0.2280  0.5145
  238MOL0     C31997   8.846   1.191   8.456  0.4859 -0.1192  0.3209
  238MOL0     O31998   8.898   1.222   8.333  0.5268 -0.3292 -0.3721
  238MOL0     C31999   9.026   1.267   8.314  0.0487 -0.4362 -0.9836
  238MOL0     C32000   9.071   1.392   8.371 -0.5782  0.2175  0.4352
  238MOL0     C32001   9.205   1.420   8.355  0.5109 -0.7248 -0.4635
  238MOL0     C32002   9.290   1.353   8.276  0.2008  0.4088  0.3257
  238MOL0     O32003   9.423   1.378   8.269 -0.4954  0.2387 -0.1821
  238MOL0     C32004   9.451   1.459   8.153  0.1492  0.9394 -0.2373
  238MOL0     C32005   9.599   1.478   8.141 -0.9404  0.4350  0.1765
  238MOL0     C32006   9.695   1.361   8.182  0.3220  0.7709 -0.5691
  238MOL0     C32007   9.833   1.408   8.147 -0.0006  0.1650 -0.9981
  238MOL0     C32008   9.928   1.291   8.156  0.0696  1.4439 -0.3762
  238MOL0     C32009  10.074   1.336   8.144  0.0225  0.2266 -0.2330
  238MOL0     C32010  10.119   1.430   8.255 -0.1828  0.1482  0.2849
  238MOL0     C32011  10.233   1.522   8.215  0.1584 -0.3791 -0.0917
  238MOL0     N32012  10.183   1.640   8.150  1.0951 -0.4536  0.1819
  238MOL0     C32013  10.140   1.646   8.022 -0.6804  0.6434  0.0536
  238MOL0     C32014  10.094   1.768   8.019  0.3305 -0.2902  0.4911
  238MOL0     C32015  10.005   1.819   7.909  0.6100  0.1465 -0.2702
  238MOL0     C32016   9.859   1.810   7.935  0.6233 -0.6081  0.0142
  238MOL0     C32017   9.766   1.891   7.842  0.7555 -0.1488 -0.1590
  238MOL0     C32018   9.621   1.886   7.880  0.1334  0.0647  0.5725
  238MOL0     O32019   9.566   1.752   7.866 -0.0597  0.2333 -0.6997
  238MOL0     C32020   9.437   1.733   7.912  0.4138  0.5851  0.5502
  238MOL0     C32021   9.380   1.793   8.027 -0.3999 -0.0149 -0.9656
  238MOL0     C32022   9.252   1.761   8.058  0.1867 -0.5149  0.5191
  238MOL0     C32023   9.183   1.671   7.978  0.1228 -0.1494 -0.4420
  238MOL0     C32024   9.045   1.635   8.017 -0.0632  0.8392 -0.2415
  238MOL0     O32025   8.976   1.569   7.922 -1.3188 -0.4282 -0.3956
  238MOL0     C32026   8.869   1.489   7.948 -0.2726  0.1920  0.3668
  238MOL0     C32027   8.796   1.431   7.840  0.4158  0.7766 -0.2229
  238MOL0     C32028   8.683   1.345   7.859  0.4575 -0.0601  0.0143
  238MOL0     C32029   8.635   1.322   7.987 -0.5597 -0.9016 -0.7944
  238MOL0     O32030   8.533   1.243   8.022  0.8382 -0.2802 -0.4862
  238MOL0     C32031   8.454   1.177   7.923 -1.1452  0.6062 -0.5131
  238MOL0     C32032   8.331   1.116   7.986  0.0340  0.3180  0.1213
  238MOL0     C32033   8.260   1.215   8.085  0.2539  0.5005  0.7086
  238MOL0     C32034   8.117   1.166   8.126  0.1457  0.1068  0.8165
  238MOL0     C32035   8.055   1.226   8.255 -0.5254 -0.1265  1.5091
  238MOL0     C32036   7.951   1.131   8.304  0.5921  0.4110 -0.3227
  238MOL0     C32037   7.858   1.177   8.416  0.3616 -0.3438 -0.3337
  238MOL0     C32038   7.927   1.211   8.547  0.3718 -0.7894 -1.1545
  238MOL0    Cl32039   7.800   1.215   8.678  0.0078  0.0178  0.2754
  238MOL0     C32040   8.705   1.380   8.096 -0.3400  0.4194  0.5104
  238MOL0     C32041   8.818   1.460   8.076  0.0672  0.6545  0.7209
  238MOL0     O32042   8.998   1.673   8.127  0.4095  0.8230  0.0048
  238MOL0     C32043   9.239   1.606   7.878 -0.6000  0.7537 -0.3659
  238MOL0     C32044   9.367   1.637   7.847 -0.1179 -0.5858 -0.3443
  238MOL0     N32045  10.140   1.846   8.124  0.1897  0.1547  0.3065
  238MOL0     N32046  10.188   1.764   8.210 -0.6400  0.1301 -0.5618
  238MOL0     C32047   9.247   1.233   8.217  1.2051 -0.2173 -0.0147
  238MOL0     C32048   9.117   1.192   8.231  0.1558 -0.0668  0.0766
  238MOL0     C32049   8.705   1.142   8.463  0.8311 -0.5148  0.5660
  238MOL0     C32050   8.630   1.125   8.348  0.5502 -0.2627  0.3855
  238MOL0     C32051   8.502   1.065   8.347  0.6857  0.2328 -0.6097
  238MOL0     C32052   8.450   1.018   8.470  0.5493 -0.4261  0.7455
  238MOL0     O32053   8.330   0.963   8.461 -0.3816  0.1027  0.7079
  238MOL0     C32054   8.253   0.959   8.578  0.4959 -0.7791  0.2762
  238MOL0     C32055   8.259   0.812   8.632 -0.8848  0.2650 -0.1883
  238MOL0     C32056   8.150   0.770   8.727  0.6634  0.3236  0.8192
  238MOL0     C32057   8.136   0.855   8.857 -0.5800  0.5872  0.7035
  238MOL0     C32058   8.027   0.790   8.927  0.0261  0.4813 -0.3328
  238MOL0     C32059   7.919   0.740   8.962 -0.1093  0.4943 -0.7106
  238MOL0     C32060   8.520   1.048   8.579  1.1079 -0.7219 -0.8466
  238MOL0     C32061   8.642   1.104   8.586 -0.2615 -0.5454  0.1455
  238MOL0     C32062   8.710   1.117   8.721  0.1857 -0.1593  0.3647
  238MOL0     H32063   9.004   1.456   8.429  1.0265  1.9281  0.4795
  238MOL0     H32064   9.240   1.512   8.401 -1.8930 -0.9305  2.0590
  238MOL0     H32065   9.409   1.421   8.060 -0.0538  3.6383 -1.3659
  238MOL0     H32066   9.401   1.555   8.168 -0.9394  0.0614  2.4780
  238MOL0     H32067   9.622   1.561   8.209  0.5218 -1.1586  1.7118
  238MOL0     H32068   9.624   1.496   8.036 -2.4183 -0.9003 -0.4454
  238MOL0     H32069   9.671   1.272   8.123  3.3323 -1.2533  1.0152
  238MOL0     H32070   9.701   1.329   8.286  1.3416 -2.6071 -1.5527
  238MOL0     H32071   9.839   1.427   8.039  0.3842  0.2855 -0.9545
  238MOL0     H32072   9.867   1.496   8.201  3.2263 -1.3052 -0.4416
  238MOL0     H32073   9.927   1.243   8.255  1.4906 -0.6405 -1.3021
  238MOL0     H32074   9.907   1.209   8.086  1.0381 -0.4994  1.4933
  238MOL0     H32075  10.136   1.247   8.157 -1.1619 -0.3815  1.8160
  238MOL0     H32076  10.084   1.387   8.048  0.6182 -0.9880 -0.8370
  238MOL0     H32077  10.140   1.354   8.330 -3.4257 -1.1173  0.0684
  238MOL0     H32078  10.041   1.493   8.301  1.3678 -0.0138  3.3783
  238MOL0     H32079  10.290   1.557   8.301 -0.1216  1.8162 -0.7439
  238MOL0     H32080  10.298   1.481   8.137  2.8393  2.0265  0.7338
  238MOL0     H32081  10.108   1.569   7.952 -3.7713  1.4069  0.4718
  238MOL0     H32082  10.029   1.926   7.910  2.8787 -0.2766  2.0738
  238MOL0     H32083  10.028   1.774   7.813  2.7846 -0.6287  0.5550
  238MOL0     H32084   9.834   1.704   7.923 -0.4119 -0.3747  0.0733
  238MOL0     H32085   9.854   1.833   8.042  4.5304  0.2490  0.1916
  238MOL0     H32086   9.774   1.845   7.743 -0.9247 -0.3599 -0.2349
  238MOL0     H32087   9.785   1.998   7.845  0.6318 -0.1305 -0.0043
  238MOL0     H32088   9.572   1.963   7.819 -1.2520  2.2101  4.1029
  238MOL0     H32089   9.614   1.924   7.982  0.1648  1.4416  0.0954
  238MOL0     H32090   9.432   1.869   8.085 -1.0797 -0.0979 -0.2301
  238MOL0     H32091   9.200   1.805   8.143  0.4610  1.6482 -0.3691
  238MOL0     H32092   8.826   1.450   7.738 -1.5500 -2.6544 -1.6107
  238MOL0     H32093   8.637   1.304   7.770 -0.4425 -0.8130  0.8074
  238MOL0     H32094   8.422   1.244   7.843 -0.8150  1.3971 -0.0045
  238MOL0     H32095   8.515   1.102   7.872  0.3337 -0.6800  2.8517
  238MOL0     H32096   8.267   1.092   7.901 -1.9085  2.0976  0.9773
  238MOL0     H32097   8.366   1.026   8.037  1.1752 -0.4472 -1.9147
  238MOL0     H32098   8.318   1.229   8.177 -3.8702  4.5720  3.0881
  238MOL0     H32099   8.241   1.310   8.035 -0.2680  0.2185  0.3553
  238MOL0     H32100   8.129   1.058   8.134  1.5253 -0.1992 -3.1350
  238MOL0     H32101   8.045   1.178   8.045 -2.4080 -1.0714  2.7710
  238MOL0     H32102   8.019   1.327   8.231  2.5362  0.6098 -0.6586
  238MOL0     H32103   8.136   1.249   8.325  0.3758 -1.1434  0.8425
  238MOL0     H32104   7.890   1.108   8.216 -0.8720  1.1483  0.4814
  238MOL0     H32105   7.989   1.030   8.325 -0.5845  0.6675  3.6997
  238MOL0     H32106   7.781   1.101   8.435 -0.9282  1.4056  2.0721
  238MOL0     H32107   7.806   1.266   8.380 -1.6193 -2.4520 -3.1866
  238MOL0     H32108   8.004   1.142   8.581  2.2154  1.8272  0.3181
  238MOL0     H32109   7.971   1.311   8.545  0.7022 -0.9358 -2.3773
  238MOL0     H32110   8.667   1.390   8.197 -2.5150  1.2080 -0.3357
  238MOL0     H32111   8.855   1.496   8.171  1.5022  1.8484 -0.2560
  238MOL0     H32112   9.190   1.516   7.844 -1.1904  0.3225  1.5029
  238MOL0     H32113   9.423   1.598   7.763  1.5324  2.4026 -0.7745
  238MOL0     H32114   9.318   1.186   8.150 -0.6861 -0.2952 -2.0788
  238MOL0     H32115   9.091   1.108   8.167  1.5140 -0.4072 -0.0503
  238MOL0     H32116   8.676   1.155   8.254  0.5906  2.2774  1.1546
  238MOL0     H32117   8.457   1.040   8.252  1.9110 -3.3443 -0.4212
  238MOL0     H32118   8.149   0.980   8.552  0.7206 -1.2919 -1.1048
  238MOL0     H32119   8.275   1.019   8.667  0.4185  0.3257 -0.4273
  238MOL0     H32120   8.351   0.790   8.686 -2.3016 -1.4146  1.6947
  238MOL0     H32121   8.266   0.755   8.539 -1.5489  1.0804 -0.7550
  238MOL0     H32122   8.150   0.661   8.732  3.9239 -0.0204 -2.4976
  238MOL0     H32123   8.060   0.788   8.666  0.4270 -4.3475 -0.5512
  238MOL0     H32124   8.232   0.858   8.908 -0.2582 -0.5409  0.1952
  238MOL0     H32125   8.111   0.957   8.825  0.2652  0.0888 -1.7727
  238MOL0     H32126   7.818   0.728   8.995 -0.4780  1.6441 -1.3471
  238MOL0     H32127   8.486   1.031   8.681  1.2601 -2.3207 -1.0484
  238MOL0     H32128   8.639   1.080   8.796 -1.5312 -2.6148 -2.2358
  238MOL0     H32129   8.796   1.050   8.718 -2.5654 -4.0809 -2.9816
  238MOL0     H32130   8.745   1.217   8.747  0.3460  0.2736 -1.4434
  239MOL0     O32131   4.110   7.260   3.390  0.4950 -0.2483 -0.5050
  239MOL0     C32132   4.052   7.366   3.372 -0.5431 -0.5890  0.5227
  239MOL0     O32133   4.089   7.488   3.421  1.0240 -1.0307  0.6831
  239MOL0     C32134   4.168   7.478   3.528  0.0688 -0.4275  1.1001
  239MOL0     C32135   4.124   7.514   3.657 -0.0717  0.5732 -0.8372
  239MOL0     C32136   4.220   7.507   3.766  1.0166 -0.0995 -0.4496
  239MOL0     C32137   4.353   7.472   3.740 -0.2415  0.3899  0.2022
  239MOL0     O32138   4.433   7.463   3.846 -0.0862 -0.1082 -0.0983
  239MOL0     C32139   4.576   7.466   3.830 -1.4574  0.2651  0.3866
  239MOL0     C32140   4.642   7.487   3.971  0.2544  0.7544  0.4918
  239MOL0     C32141   4.793   7.445   3.968  0.5776 -0.7412 -0.7482
  239MOL0     C32142   4.855   7.533   3.861  0.0441  0.3631  1.1148
  239MOL0     C32143   5.009   7.521   3.866  0.0903 -0.1425 -0.3446
  239MOL0     C32144   5.078   7.564   3.734 -0.0610  0.6611  0.3786
  239MOL0     C32145   5.228   7.574   3.765  0.2206  0.2269 -0.1739
  239MOL0     C32146   5.301   7.628   3.635 -0.0463 -0.0558  0.1479
  239MOL0     N32147   5.440   7.610   3.657 -0.5692  0.0594  0.3391
  239MOL0     C32148   5.527   7.670   3.754 -0.3377 -0.0429  0.4397
  239MOL0     C32149   5.644   7.604   3.735  0.5972  0.2319  0.0283
  239MOL0     C32150   5.777   7.641   3.803  1.0087 -0.5831  0.6996
  239MOL0     C32151   5.762   7.693   3.945 -0.3378  0.0370 -0.8170
  239MOL0     C32152   5.902   7.697   4.020  1.2625  0.4218 -0.8851
  239MOL0     C32153   6.008   7.768   3.944 -0.1392 -0.0927 -0.1909
  239MOL0     O32154   6.136   7.785   4.019 -0.2875  0.7371  0.7652
  239MOL0     C32155   6.235   7.848   3.952 -0.5382 -0.2659  0.6880
  239MOL0     C32156   6.336   7.903   4.026  0.1179  1.0366  0.3563
  239MOL0     C32157   6.443   7.966   3.964  0.1962  0.5208  0.1712
  239MOL0     C32158   6.454   7.966   3.824  0.8785 -0.1501 -0.2744
  239MOL0     C32159   6.561   8.029   3.742  1.3532  0.2491  0.1054
  239MOL0     O32160   6.552   8.022   3.607  0.0681 -0.1803  0.0633
  239MOL0     C32161   6.642   8.094   3.526 -0.1973  0.6247  0.7080
  239MOL0     C32162   6.776   8.066   3.533  0.2234  1.0948 -0.2475
  239MOL0     C32163   6.872   8.114   3.439 -0.5884  0.8675  0.3849
  239MOL0     C32164   6.826   8.189   3.336 -0.3245 -0.2535  0.0226
  239MOL0     O32165   6.921   8.249   3.256 -0.1552  0.2746 -0.4699
  239MOL0     C32166   6.910   8.380   3.207  0.2013  0.2951  0.2715
  239MOL0     C32167   6.972   8.480   3.302  0.0503  0.1444  0.9089
  239MOL0     C32168   7.127   8.494   3.303  0.0374  0.8143  0.0105
  239MOL0     C32169   7.169   8.382   3.392 -0.4204  0.6351 -0.5611
  239MOL0     C32170   7.324   8.401   3.426 -0.0325 -0.0199 -0.3822
  239MOL0     C32171   7.378   8.315   3.541  0.1034  0.3508 -0.1005
  239MOL0     C32172   7.384   8.162   3.488  0.0544  0.2645  0.0318
  239MOL0     C32173   7.460   8.075   3.579  0.2210  0.2562 -1.0203
  239MOL0    Cl32174   7.629   8.024   3.520  0.0878  0.1625 -0.2612
  239MOL0     C32175   6.686   8.225   3.333  0.5647  0.4011 -0.9837
  239MOL0     C32176   6.598   8.169   3.423 -0.0098 -0.8190  0.8970
  239MOL0     O32177   6.650   8.083   3.803 -0.2343 -0.3870  0.2628
  239MOL0     C32178   6.353   7.897   3.751  0.8587 -0.3106  0.3457
  239MOL0     C32179   6.245   7.839   3.811  0.0054  0.4254  0.1675
  239MOL0     N32180   5.631   7.516   3.636  0.0506 -0.0968 -0.3500
  239MOL0     N32181   5.510   7.517   3.593 -0.1783 -0.3671 -0.0526
  239MOL0     C32182   4.396   7.448   3.610 -0.6546  0.3999 -0.6464
  239MOL0     C32183   4.305   7.454   3.500  0.2321 -0.1444 -0.1758
  239MOL0     C32184   3.948   7.367   3.271 -0.6831  0.4922  0.2557
  239MOL0     C32185   3.968   7.449   3.157  0.4654  0.2592 -0.0272
  239MOL0     C32186   3.881   7.456   3.055  0.9437 -0.0763 -0.2971
  239MOL0     C32187   3.768   7.377   3.059  1.5611 -0.5676 -0.3940
  239MOL0     O32188   3.703   7.362   2.940 -1.0954  0.2575  0.1261
  239MOL0     C32189   3.557   7.363   2.934  0.1781  0.1262  1.1313
  239MOL0     C32190   3.519   7.396   2.787 -0.3389 -0.9770  0.0278
  239MOL0     C32191   3.590   7.305   2.676 -0.0379  0.0483 -0.7698
  239MOL0     C32192   3.546   7.344   2.539 -0.3328  0.3963 -0.0220
  239MOL0     C32193   3.636   7.294   2.437 -0.1181  0.5393  0.2099
  239MOL0     C32194   3.718   7.244   2.359 -0.1675  0.0833  0.1178
  239MOL0     C32195   3.740   7.291   3.176  1.0210  0.1415  0.2650
  239MOL0     C32196   3.830   7.291   3.282 -0.1065 -0.0155 -0.3316
  239MOL0     C32197   3.803   7.187   3.401 -0.3462 -1.2394  1.0645
  239MOL0     H32198   4.024   7.553   3.666  0.3676  1.5421 -0.0755
  239MOL0     H32199   4.186   7.530   3.866  1.3770 -0.6548 -0.1977
  239MOL0     H32200   4.604   7.372   3.783 -1.9928 -0.2625  1.1033
  239MOL0     H32201   4.606   7.547   3.763  1.4669 -0.9102  0.1145
  239MOL0     H32202   4.579   7.438   4.046  1.6682 -1.9147  0.0735
  239MOL0     H32203   4.637   7.594   3.992 -2.1204  0.8677 -0.3344
  239MOL0     H32204   4.797   7.339   3.941 -1.2354 -0.2364 -3.4848
  239MOL0     H32205   4.832   7.449   4.070  1.4259 -1.2931 -1.0400
  239MOL0     H32206   4.819   7.499   3.763  3.0276  0.1682 -0.0072
  239MOL0     H32207   4.843   7.640   3.880  0.7079  0.6007  0.2534
  239MOL0     H32208   5.039   7.582   3.952 -0.2359 -0.9490  0.3546
  239MOL0     H32209   5.040   7.418   3.886  2.0801  0.6061  0.6691
  239MOL0     H32210   5.059   7.489   3.657  3.3018 -0.4404  0.4375
  239MOL0     H32211   5.040   7.662   3.703 -2.7454 -0.7073 -1.0360
  239MOL0     H32212   5.275   7.483   3.803  1.8532  1.3970  0.7281
  239MOL0     H32213   5.247   7.643   3.848  1.7681 -2.7650  2.1550
  239MOL0     H32214   5.268   7.567   3.551 -0.0661  2.8894 -2.1303
  239MOL0     H32215   5.287   7.735   3.622  1.5721  0.1151 -0.3984
  239MOL0     H32216   5.515   7.761   3.812  0.5285  1.7242 -1.9668
  239MOL0     H32217   5.830   7.546   3.795  2.1347  0.2069 -2.2668
  239MOL0     H32218   5.830   7.705   3.733  1.5525 -1.7104  0.0460
  239MOL0     H32219   5.701   7.784   3.955 -1.9747 -1.2304  1.9857
  239MOL0     H32220   5.704   7.620   4.002  2.1142 -1.0917  0.3885
  239MOL0     H32221   5.925   7.590   4.029 -0.3323  0.0852 -0.3115
  239MOL0     H32222   5.895   7.732   4.124 -2.2203 -3.0593  0.3250
  239MOL0     H32223   5.969   7.860   3.900  1.2200  0.7214  0.2386
  239MOL0     H32224   6.018   7.702   3.857  1.0058 -2.3607  1.5677
  239MOL0     H32225   6.316   7.900   4.133 -2.7178  0.5896 -0.1063
  239MOL0     H32226   6.522   7.991   4.033 -0.1705  0.0718  0.7645
  239MOL0     H32227   6.798   7.990   3.607 -0.4179 -0.6966 -1.8344
  239MOL0     H32228   6.973   8.073   3.437  0.1458  2.5324 -3.1811
  239MOL0     H32229   6.972   8.387   3.117  0.4061 -0.1748  0.3740
  239MOL0     H32230   6.803   8.397   3.192 -0.9280 -3.9508  2.1689
  239MOL0     H32231   6.933   8.580   3.278  0.8867  0.3778  0.4745
  239MOL0     H32232   6.933   8.462   3.402 -0.5252 -1.7491  0.3882
  239MOL0     H32233   7.170   8.463   3.207 -1.4941 -2.7397  0.3355
  239MOL0     H32234   7.153   8.595   3.337 -0.4717  1.2796 -0.9221
  239MOL0     H32235   7.153   8.288   3.339 -0.5184  1.3322 -1.8026
  239MOL0     H32236   7.117   8.388   3.488 -0.7833  0.0999 -0.7168
  239MOL0     H32237   7.326   8.507   3.450  1.0856 -0.3013  0.9342
  239MOL0     H32238   7.382   8.385   3.335  1.4509  2.8937 -0.0676
  239MOL0     H32239   7.479   8.336   3.578  0.4422 -2.2089  0.6388
  239MOL0     H32240   7.316   8.329   3.629 -0.4847  1.2099 -0.6375
  239MOL0     H32241   7.437   8.167   3.393 -0.9870  2.6631 -0.4923
  239MOL0     H32242   7.284   8.122   3.471 -0.3840  1.7076 -0.9621
  239MOL0     H32243   7.462   8.120   3.679 -1.2262  0.6934 -1.1704
  239MOL0     H32244   7.404   7.988   3.614 -0.3389  1.8842  2.5225
  239MOL0     H32245   6.649   8.287   3.252  1.8820  2.6174  0.0202
  239MOL0     H32246   6.495   8.183   3.394  0.9180  2.5400 -1.2345
  239MOL0     H32247   6.355   7.902   3.643  0.7009 -0.2363  0.3460
  239MOL0     H32248   6.189   7.772   3.746 -0.3292 -2.3184  3.0575
  239MOL0     H32249   4.496   7.420   3.580 -1.0387 -1.3954 -0.3810
  239MOL0     H32250   4.348   7.437   3.401 -2.1993  1.0393 -1.5095
  239MOL0     H32251   4.058   7.510   3.154  1.3269 -1.0157 -0.8016
  239MOL0     H32252   3.919   7.516   2.974  0.0171 -0.5403 -1.0917
  239MOL0     H32253   3.520   7.446   2.994 -0.5881  1.3448 -0.9165
  239MOL0     H32254   3.518   7.264   2.959  3.6803 -1.5609  0.6216
  239MOL0     H32255   3.553   7.498   2.765  0.9492 -1.4591 -0.3614
  239MOL0     H32256   3.414   7.374   2.769 -0.6952 -0.0081  0.8571
  239MOL0     H32257   3.565   7.201   2.698 -3.2964  0.8992  0.1683
  239MOL0     H32258   3.697   7.318   2.694  0.0221  0.9375 -1.6676
  239MOL0     H32259   3.445   7.305   2.526 -1.1833  2.2871  0.5503
  239MOL0     H32260   3.536   7.453   2.537 -0.4917  0.4203  1.2004
  239MOL0     H32261   3.807   7.211   2.310  0.3612  1.7581 -0.1175
  239MOL0     H32262   3.671   7.207   3.185  1.8801 -0.6312 -0.2475
  239MOL0     H32263   3.853   7.093   3.379  3.7394  0.7280  1.1113
  239MOL0     H32264   3.851   7.225   3.492  1.2059  1.0063 -0.6016
  239MOL0     H32265   3.693   7.186   3.401 -0.7815  4.3229 -1.9957
  240MOL0     O32266   7.489   0.951   8.789  0.2359 -0.0673  0.2741
  240MOL0     C32267   7.390   0.898   8.836 -0.8414 -0.1818  0.2171
  240MOL0     O32268   7.370   0.763   8.849 -0.4375 -0.6523 -0.2946
  240MOL0     C32269   7.470   0.670   8.840 -1.1840  0.3330 -0.3305
  240MOL0     C32270   7.570   0.685   8.739 -0.4263  0.0092  0.2203
  240MOL0     C32271   7.675   0.585   8.719  0.3091  0.0473  0.6407
  240MOL0     C32272   7.663   0.464   8.798 -0.2760 -0.6644  0.4645
  240MOL0     O32273   7.747   0.358   8.784 -0.2095 -0.0866  0.2444
  240MOL0     C32274   7.885   0.364   8.733 -0.0313  0.3697 -0.5553
  240MOL0     C32275   7.888   0.360   8.581 -0.1072  0.2843  0.6305
  240MOL0     C32276   8.026   0.357   8.521 -0.5905 -0.4612 -0.9228
  240MOL0     C32277   8.052   0.246   8.423  0.2058 -0.3355 -0.6115
  240MOL0     C32278   8.195   0.258   8.364 -0.9707 -0.4982  0.0347
  240MOL0     C32279   8.222   0.156   8.254 -0.7863  0.3712  0.5343
  240MOL0     C32280   8.370   0.151   8.218  0.0321  0.3251  0.4733
  240MOL0     C32281   8.407   0.265   8.121  0.0080 -0.0142  0.3617
  240MOL0     N32282   8.545   0.270   8.090 -0.0276 -0.2271 -0.2091
  240MOL0     C32283   8.605   0.264   7.960 -0.3211 -0.0873  0.1750
  240MOL0     C32284   8.735   0.272   7.990 -0.1858 -0.6410  0.4610
  240MOL0     C32285   8.848   0.263   7.886 -0.2625  1.2370 -1.1052
  240MOL0     C32286   8.909   0.396   7.845 -0.8059  0.0038  0.5285
  240MOL0     C32287   9.010   0.387   7.724 -0.0524 -0.4538 -0.0860
  240MOL0     C32288   9.152   0.339   7.748  0.6457 -0.4474 -0.5464
  240MOL0     O32289   9.219   0.331   7.628  0.1536  0.6608  0.9449
  240MOL0     C32290   9.353   0.319   7.627 -0.3863 -0.2393 -0.2902
  240MOL0     C32291   9.416   0.200   7.658  0.7016 -0.2835  0.0094
  240MOL0     C32292   9.549   0.174   7.624  0.8867 -1.0110  0.1390
  240MOL0     C32293   9.622   0.277   7.566 -0.4408 -0.6123  0.4155
  240MOL0     C32294   9.764   0.263   7.531 -0.2949  0.2469  0.5308
  240MOL0     O32295   9.822   0.143   7.560  0.7910  0.3235 -0.2886
  240MOL0     C32296   9.947   0.113   7.524 -0.6814  0.5821 -0.5248
  240MOL0     C32297   9.992   0.116   7.395 -0.0965 -0.1508  0.1696
  240MOL0     C32298  10.125   0.089   7.367 -0.4301  0.0994  0.3303
  240MOL0     C32299  10.212   0.058   7.471  0.2830 -0.1747  0.4567
  240MOL0     O32300  10.339   0.028   7.428  0.5311  0.9402 -0.2833
  240MOL0     C32301  10.433  -0.013   7.525 -0.2667  0.7542  0.0793
  240MOL0     C32302  10.571  -0.061   7.472  0.6274  0.5059 -0.5359
  240MOL0     C32303  10.670  -0.096   7.587  0.2440 -0.3575  0.7936
  240MOL0     C32304  10.614  -0.222   7.658  1.0713 -0.8257 -1.2868
  240MOL0     C32305  10.726  -0.316   7.694 -0.3933 -0.5379  0.0561
  240MOL0     C32306  10.814  -0.262   7.806  0.0627  0.6744  0.5116
  240MOL0     C32307  10.941  -0.352   7.836  0.0991  0.2630 -0.2606
  240MOL0     C32308  11.047  -0.328   7.729 -0.1465  0.0445 -0.9025
  240MOL0    Cl32309  11.148  -0.191   7.779 -0.5394  0.2625  0.1597
  240MOL0     C32310  10.170   0.069   7.595  0.2534  0.0955 -0.7844
  240MOL0     C32311  10.043   0.087   7.623  0.6381  0.0121  0.2117
  240MOL0     O32312   9.821   0.352   7.476 -0.9845 -0.5751  0.0151
  240MOL0     C32313   9.561   0.401   7.547 -0.0970  0.1776  0.3275
  240MOL0     C32314   9.423   0.426   7.573 -0.4367  0.8741  0.0062
  240MOL0     N32315   8.762   0.285   8.125 -0.4301 -0.6205 -0.6533
  240MOL0     N32316   8.641   0.292   8.185 -0.4684 -0.0875 -0.4816
  240MOL0     C32317   7.567   0.458   8.895  0.9486  0.4469 -0.0856
  240MOL0     C32318   7.468   0.555   8.917 -0.4760  0.1799  0.6310
  240MOL0     C32319   7.271   0.982   8.866 -0.5152  0.0097  1.0087
  240MOL0     C32320   7.142   0.915   8.872  0.0653  0.4645 -0.3923
  240MOL0     C32321   7.023   0.978   8.896 -0.3671  0.5689 -0.1517
  240MOL0     C32322   7.020   1.115   8.930 -0.2176  0.0862  0.1774
  240MOL0     O32323   6.917   1.202   8.953  0.1822 -0.5390  0.3765
  240MOL0     C32324   6.798   1.166   9.018 -0.2033  0.9380  0.0623
  240MOL0     C32325   6.759   1.271   9.104  0.1911 -0.5313 -0.2282
  240MOL0     C32326   6.686   1.213   9.230 -0.2723  0.5428 -0.8174
  240MOL0     C32327   6.548   1.156   9.203 -0.3448 -0.3265  0.0401
  240MOL0     C32328   6.442   1.249   9.162 -0.0762  0.0618 -0.1254
  240MOL0     C32329   6.360   1.341   9.140  0.1999 -0.2650 -0.6772
  240MOL0     C32330   7.146   1.183   8.924 -0.6751 -0.7336 -0.1213
  240MOL0     C32331   7.266   1.125   8.881 -0.1276  0.2909  1.1283
  240MOL0     C32332   7.386   1.210   8.888  0.8539 -0.2761 -0.2166
  240MOL0     H32333   7.564   0.775   8.678  0.1108 -1.3616 -1.9867
  240MOL0     H32334   7.758   0.599   8.651 -1.0607 -1.2659 -1.3934
  240MOL0     H32335   7.942   0.449   8.773  1.9777 -1.8552  1.6566
  240MOL0     H32336   7.945   0.282   8.772  2.0786  1.1302 -2.0286
  240MOL0     H32337   7.831   0.434   8.523 -1.3411  0.4285  1.9818
  240MOL0     H32338   7.832   0.274   8.544  1.2592 -0.8994  1.2598
  240MOL0     H32339   8.103   0.358   8.600  0.0106  0.9925 -1.4871
  240MOL0     H32340   8.042   0.446   8.459 -0.4018 -1.0389 -1.7036
  240MOL0     H32341   8.043   0.150   8.476 -1.9781 -0.9025 -1.9048
  240MOL0     H32342   7.980   0.257   8.341 -0.3108  1.4939  0.0605
  240MOL0     H32343   8.210   0.356   8.318 -0.2467 -2.1841 -3.6745
  240MOL0     H32344   8.277   0.240   8.433 -1.3382 -2.3089  0.0396
  240MOL0     H32345   8.178   0.059   8.281 -0.4709 -0.3466 -1.4300
  240MOL0     H32346   8.178   0.182   8.158  2.0615  0.6559 -0.7892
  240MOL0     H32347   8.379   0.056   8.164  2.3737  2.3931 -3.1984
  240MOL0     H32348   8.443   0.152   8.300  2.1859 -0.6699 -1.3150
  240MOL0     H32349   8.359   0.229   8.030  0.5667 -2.0518  0.8150
  240MOL0     H32350   8.361   0.356   8.161 -0.8198  0.1973 -0.9990
  240MOL0     H32351   8.548   0.266   7.868 -1.4760  3.2004  0.8091
  240MOL0     H32352   8.935   0.206   7.921 -0.8646  0.0867 -1.4257
  240MOL0     H32353   8.819   0.218   7.791  0.9380 -0.3327 -0.7664
  240MOL0     H32354   8.825   0.460   7.816 -0.9394 -0.6706 -0.6518
  240MOL0     H32355   8.962   0.443   7.928 -1.5836 -3.3585  3.1704
  240MOL0     H32356   9.029   0.492   7.698  0.2011 -0.6942 -0.8937
  240MOL0     H32357   8.976   0.323   7.643 -2.4306  0.7906 -0.1527
  240MOL0     H32358   9.144   0.238   7.791 -0.4737 -0.4083 -0.6495
  240MOL0     H32359   9.201   0.412   7.814  1.8753 -2.0792  0.4245
  240MOL0     H32360   9.370   0.119   7.714  0.8485 -0.8532 -0.6768
  240MOL0     H32361   9.605   0.083   7.642  0.4978 -1.0583  1.1547
  240MOL0     H32362   9.927   0.145   7.314 -0.2721  0.9537  0.6792
  240MOL0     H32363  10.161   0.086   7.265  1.8830 -2.3825  1.0937
  240MOL0     H32364  10.447   0.077   7.586 -2.0474  0.5970  0.7828
  240MOL0     H32365  10.390  -0.092   7.587  0.6097 -2.0635 -2.6382
  240MOL0     H32366  10.552  -0.150   7.411  0.8571  1.1623 -1.5884
  240MOL0     H32367  10.619   0.004   7.398 -1.6100  0.5700 -2.0188
  240MOL0     H32368  10.770  -0.108   7.543  0.2531  1.4591  0.2566
  240MOL0     H32369  10.673  -0.018   7.664 -0.0856  0.8783 -0.4032
  240MOL0     H32370  10.540  -0.280   7.602 -3.4111  1.0536  2.0355
  240MOL0     H32371  10.564  -0.187   7.749  0.6352 -1.5555 -1.2314
  240MOL0     H32372  10.784  -0.331   7.603 -2.3278 -0.3079 -1.2587
  240MOL0     H32373  10.675  -0.401   7.741 -1.0381  0.2011  0.7245
  240MOL0     H32374  10.854  -0.162   7.785 -0.1675  1.1821  2.3869
  240MOL0     H32375  10.751  -0.243   7.893 -3.4706  1.5563 -2.0241
  240MOL0     H32376  10.910  -0.457   7.836  2.0539 -0.3839  0.6885
  240MOL0     H32377  10.977  -0.338   7.938 -0.2841  0.6861 -0.1847
  240MOL0     H32378  11.115  -0.413   7.722  1.5032  0.7258  3.4763
  240MOL0     H32379  11.001  -0.306   7.632 -0.0279  2.0849 -0.5446
  240MOL0     H32380  10.241   0.056   7.676 -0.7384  0.2462  0.1330
  240MOL0     H32381  10.014   0.084   7.728 -1.5532  0.0925 -0.3341
  240MOL0     H32382   9.616   0.484   7.504  2.1455 -0.7565  1.2282
  240MOL0     H32383   9.371   0.517   7.546 -2.8336 -0.5845 -0.5746
  240MOL0     H32384   7.551   0.369   8.955  2.3290 -0.2156 -0.6533
  240MOL0     H32385   7.393   0.551   8.995 -0.5414  2.7437  0.7614
  240MOL0     H32386   7.128   0.809   8.855  1.3519  0.0329  1.1145
  240MOL0     H32387   6.938   0.911   8.900 -0.0077  0.1403  0.6150
  240MOL0     H32388   6.819   1.080   9.082 -0.1311  1.4489  0.7297
  240MOL0     H32389   6.723   1.149   8.940 -0.4555 -2.5178  0.8797
  240MOL0     H32390   6.690   1.346   9.064 -0.8780  0.6947  3.4973
  240MOL0     H32391   6.844   1.327   9.142  1.6736 -1.8647 -1.4574
  240MOL0     H32392   6.661   1.293   9.301 -2.1779 -0.8364  0.1582
  240MOL0     H32393   6.757   1.139   9.268  0.2699  2.8505  3.2814
  240MOL0     H32394   6.549   1.089   9.117  4.4961  0.2662 -0.6261
  240MOL0     H32395   6.516   1.103   9.293 -0.6919  0.6129  0.4930
  240MOL0     H32396   6.306   1.429   9.112  0.5440  0.3993  0.6124
  240MOL0     H32397   7.158   1.288   8.948  2.5398 -1.0148 -0.0855
  240MOL0     H32398   7.470   1.177   8.825  2.2639  0.1719  1.3500
  240MOL0     H32399   7.351   1.311   8.867 -1.6151 -0.9834  0.2412
  240MOL0     H32400   7.432   1.215   8.987 -1.2047  0.4505  0.7609
  241MOL0     O32401  10.248   8.273   9.481 -1.0065 -0.7770 -0.6469
  241MOL0     C32402  10.284   8.375   9.531 -0.0308  0.1108 -0.3421
  241MOL0     O32403  10.384   8.397   9.615  0.0899  0.6861  0.4740
  241MOL0     C32404  10.480   8.296   9.629  0.0397 -0.0994  0.1038
  241MOL0     C32405  10.464   8.186   9.712  0.4174  0.6205  0.1773
  241MOL0     C32406  10.560   8.092   9.712  0.4649  0.0272 -0.3150
  241MOL0     C32407  10.677   8.089   9.637  0.2842  0.4402 -0.1001
  241MOL0     O32408  10.770   7.990   9.659  0.5262 -0.3909  1.7627
  241MOL0     C32409  10.874   7.971   9.557 -0.2149  0.3359  0.3500
  241MOL0     C32410  10.937   7.828   9.579 -0.9618  0.1329  0.8736
  241MOL0     C32411  11.020   7.824   9.704  0.0567  0.5457 -0.1700
  241MOL0     C32412  11.075   7.689   9.718 -0.2406 -0.6109 -0.5777
  241MOL0     C32413  11.133   7.667   9.855 -0.7408  0.0193  0.7769
  241MOL0     C32414  11.269   7.731   9.890  0.5920  0.1239  0.2625
  241MOL0     C32415  11.308   7.706  10.039  0.6676 -0.4457  1.3020
  241MOL0     C32416  11.434   7.618  10.065 -0.6217  0.1834 -0.2588
  241MOL0     N32417  11.407   7.477  10.034  0.1812  0.6714  0.3459
  241MOL0     C32418  11.303   7.392  10.077 -0.1730 -0.6496  0.5303
  241MOL0     C32419  11.280   7.302   9.978  0.2266  0.6915 -0.4053
  241MOL0     C32420  11.169   7.201   9.958  0.0345 -0.4116 -0.2242
  241MOL0     C32421  11.108   7.148  10.081 -0.3066 -1.5140 -0.1187
  241MOL0     C32422  10.978   7.069  10.051 -0.5378  0.3304  1.0843
  241MOL0     C32423  10.970   6.984   9.921  0.2134 -0.1470  0.0787
  241MOL0     O32424  10.851   6.902   9.922  0.6842  0.9246  0.2706
  241MOL0     C32425  10.728   6.956   9.888 -0.7811 -0.1032 -0.4177
  241MOL0     C32426  10.706   7.083   9.835  0.2082  1.3321  0.1128
  241MOL0     C32427  10.569   7.128   9.825 -0.1572  0.0413  0.5704
  241MOL0     C32428  10.467   7.056   9.874 -0.0029 -0.1128  0.0235
  241MOL0     C32429  10.328   7.120   9.866  0.2706 -0.2798  0.0945
  241MOL0     O32430  10.318   7.251   9.828  0.7221 -0.7480  0.4801
  241MOL0     C32431  10.203   7.323   9.823 -0.6574  0.3820  0.0063
  241MOL0     C32432  10.158   7.369   9.705 -0.7614 -0.0019  0.0905
  241MOL0     C32433  10.032   7.440   9.704 -0.4569  0.0511 -0.4105
  241MOL0     C32434   9.945   7.466   9.811 -0.3198  0.0701 -0.2970
  241MOL0     O32435   9.838   7.545   9.785  0.4684  0.1971 -0.1762
  241MOL0     C32436   9.746   7.572   9.897 -0.1144 -0.6040  0.9923
  241MOL0     C32437   9.621   7.490   9.891  0.3987  0.3312  0.4835
  241MOL0     C32438   9.638   7.361   9.962 -0.5654 -0.2556  0.7931
  241MOL0     C32439   9.512   7.274   9.960  0.4927 -0.1879  0.3752
  241MOL0     C32440   9.529   7.141  10.040 -0.1384  0.5565 -0.1088
  241MOL0     C32441   9.397   7.070  10.052 -0.3168  0.2563 -0.2360
  241MOL0     C32442   9.403   6.928  10.108 -1.1803 -0.0616  0.2006
  241MOL0     C32443   9.266   6.863  10.080 -0.4753 -0.1473  0.7171
  241MOL0    Cl32444   9.257   6.841   9.904 -0.1019  0.0535 -0.2665
  241MOL0     C32445   9.994   7.416   9.933 -0.1643 -0.5952 -0.4183
  241MOL0     C32446  10.123   7.347   9.936  0.0099  0.5137 -0.2565
  241MOL0     O32447  10.230   7.055   9.902  0.8723 -0.0072 -0.1839
  241MOL0     C32448  10.493   6.931   9.929 -0.6609 -0.3659 -0.8092
  241MOL0     C32449  10.621   6.878   9.928  0.9996  0.0885 -0.1071
  241MOL0     N32450  11.374   7.327   9.876  0.4092 -0.1906 -0.0829
  241MOL0     N32451  11.444   7.426   9.911  0.0200  0.0263  0.8336
  241MOL0     C32452  10.686   8.204   9.556  0.9072 -0.6932  0.2744
  241MOL0     C32453  10.588   8.310   9.553  0.0358  0.1906  0.8600
  241MOL0     C32454  10.218   8.495   9.481  0.5819  0.0717  0.6672
  241MOL0     C32455  10.082   8.485   9.452 -0.6776 -0.9015  0.5138
  241MOL0     C32456  10.005   8.603   9.414 -0.0747  0.4210  0.5343
  241MOL0     C32457  10.058   8.729   9.419  1.1694 -0.2975 -0.3611
  241MOL0     O32458   9.984   8.839   9.392  0.7146  0.0967  0.3882
  241MOL0     C32459   9.841   8.836   9.414 -0.6606 -0.0777 -0.5245
  241MOL0     C32460   9.801   8.969   9.352 -0.8308 -0.1222  0.0803
  241MOL0     C32461   9.666   9.023   9.379  0.1567  0.3895  0.5650
  241MOL0     C32462   9.559   8.919   9.331 -0.1039  0.8951 -0.1657
  241MOL0     C32463   9.423   8.969   9.364  0.0857 -0.0256  0.0756
  241MOL0     C32464   9.317   9.030   9.391 -0.0440 -1.1329 -0.1466
  241MOL0     C32465  10.191   8.737   9.452 -0.1501  1.3969 -0.3377
  241MOL0     C32466  10.278   8.621   9.478  1.0814 -0.3952  0.4821
  241MOL0     C32467  10.424   8.648   9.505 -0.2363 -0.3733  0.4629
  241MOL0     H32468  10.374   8.180   9.773 -1.6772  1.2417 -2.6267
  241MOL0     H32469  10.546   8.005   9.776 -2.5458 -0.3346 -1.2716
  241MOL0     H32470  10.826   7.976   9.459  1.9244 -0.0120 -0.7786
  241MOL0     H32471  10.957   8.042   9.552 -0.5805  0.7266 -0.3288
  241MOL0     H32472  10.990   7.814   9.485 -0.8175 -0.5838  1.0488
  241MOL0     H32473  10.853   7.758   9.584  0.4102 -1.4889  3.7281
  241MOL0     H32474  10.938   7.854   9.771 -3.4600 -1.3767 -3.2463
  241MOL0     H32475  11.102   7.896   9.695 -1.5254  2.4941  0.2856
  241MOL0     H32476  11.001   7.609   9.714  0.6839 -1.6289  1.2349
  241MOL0     H32477  11.152   7.664   9.644  2.4028 -0.4333  1.9233
  241MOL0     H32478  11.068   7.706   9.935 -0.4422  1.2055  0.4620
  241MOL0     H32479  11.129   7.559   9.869 -0.4241 -0.0601  0.2716
  241MOL0     H32480  11.341   7.683   9.824 -0.1188  0.9294 -1.1423
  241MOL0     H32481  11.262   7.838   9.870  1.1285  0.4331  1.5979
  241MOL0     H32482  11.232   7.648  10.093 -0.5284  0.2315  0.4056
  241MOL0     H32483  11.318   7.806  10.083 -0.2130 -0.9490  2.7352
  241MOL0     H32484  11.516   7.656  10.003 -0.4721 -0.6909 -0.6118
  241MOL0     H32485  11.467   7.620  10.169 -0.8810  0.8321 -0.1864
  241MOL0     H32486  11.242   7.398  10.166  1.1452  1.0946  1.3615
  241MOL0     H32487  11.086   7.239   9.898  0.3410  3.5961  1.5871
  241MOL0     H32488  11.217   7.121   9.900  1.4121  0.0309  0.2668
  241MOL0     H32489  11.177   7.087  10.140 -1.8866  0.2441  3.8643
  241MOL0     H32490  11.079   7.226  10.152 -0.1641 -2.5503  1.1050
  241MOL0     H32491  10.900   7.146  10.043 -2.0213 -1.2390 -0.3271
  241MOL0     H32492  10.949   7.004  10.134  0.9198  0.1859  1.5068
  241MOL0     H32493  11.057   6.918   9.912  0.2660 -0.2991  1.4173
  241MOL0     H32494  10.972   7.048   9.833 -1.8314  1.5943  1.2044
  241MOL0     H32495  10.790   7.137   9.792  1.2525 -0.7635 -0.6138
  241MOL0     H32496  10.554   7.218   9.767 -0.5018 -1.2485 -1.4556
  241MOL0     H32497  10.207   7.382   9.610  1.7501  0.1656  1.3438
  241MOL0     H32498   9.999   7.486   9.611  0.8949  2.6849  0.3241
  241MOL0     H32499   9.795   7.556   9.994 -0.5257  1.5977  1.6187
  241MOL0     H32500   9.712   7.675   9.900 -1.3620 -0.9911  4.1236
  241MOL0     H32501   9.540   7.549   9.934  1.5215  1.0130  1.7279
  241MOL0     H32502   9.592   7.465   9.788 -0.3111 -0.6817  0.9107
  241MOL0     H32503   9.727   7.304   9.932 -0.6421 -0.8963  1.7213
  241MOL0     H32504   9.649   7.389  10.067  2.0522 -0.7513  0.7088
  241MOL0     H32505   9.482   7.260   9.856  2.4163 -1.9212 -0.0076
  241MOL0     H32506   9.428   7.327  10.005 -0.7344  0.4657 -2.4529
  241MOL0     H32507   9.570   7.148  10.141  0.5069  0.6231 -0.3707
  241MOL0     H32508   9.600   7.071   9.994 -0.3573  1.5800 -2.1132
  241MOL0     H32509   9.337   7.129  10.121 -1.0525  0.3064 -0.9114
  241MOL0     H32510   9.337   7.062   9.961 -0.1888 -2.2988 -0.1748
  241MOL0     H32511   9.426   6.922  10.214  0.6880 -3.1797 -0.2718
  241MOL0     H32512   9.484   6.873  10.059  0.5704  0.5373  2.2680
  241MOL0     H32513   9.261   6.769  10.136 -0.1707 -0.1123  0.8073
  241MOL0     H32514   9.177   6.918  10.110 -2.1194 -2.2644 -0.0062
  241MOL0     H32515   9.934   7.432  10.022 -3.1810  0.3335 -2.4671
  241MOL0     H32516  10.175   7.318  10.027 -0.4824 -3.2762 -1.0105
  241MOL0     H32517  10.398   6.894   9.966 -1.5192  0.5185 -2.0367
  241MOL0     H32518  10.635   6.774   9.955 -0.2484  0.2043  1.1247
  241MOL0     H32519  10.778   8.213   9.500 -0.3287  4.6217 -1.5089
  241MOL0     H32520  10.608   8.384   9.477 -0.3871 -2.0377 -1.5746
  241MOL0     H32521  10.033   8.387   9.455  1.4292 -2.0741 -0.9662
  241MOL0     H32522   9.901   8.574   9.405  0.3283 -1.2693  1.0994
  241MOL0     H32523   9.813   8.832   9.520 -2.3410 -2.0657 -0.9812
  241MOL0     H32524   9.798   8.747   9.369  0.3602 -0.7820 -0.1409
  241MOL0     H32525   9.818   8.958   9.245 -0.7598 -4.0493  0.3281
  241MOL0     H32526   9.875   9.042   9.386  3.5099 -2.7129 -2.8719
  241MOL0     H32527   9.653   9.125   9.342 -1.3966 -0.0635 -0.2156
  241MOL0     H32528   9.662   9.032   9.488  0.0024  1.8768  0.4610
  241MOL0     H32529   9.576   8.894   9.226 -0.4831  0.0562 -0.0386
  241MOL0     H32530   9.583   8.838   9.400  3.5410  2.7465  0.9879
  241MOL0     H32531   9.220   9.067   9.417  0.6768 -1.1879  2.9528
  241MOL0     H32532  10.245   8.831   9.456  2.6330 -0.1220  0.1078
  241MOL0     H32533  10.445   8.754   9.485 -0.4299 -0.7151 -1.7889
  241MOL0     H32534  10.450   8.643   9.611 -2.0430 -1.9749  0.8861
  241MOL0     H32535  10.494   8.593   9.442  1.2307  2.1445 -0.2663
  242MOL0     O32536   3.511   2.169   6.212  0.6774 -0.0478  0.3431
  242MOL0     C32537   3.543   2.253   6.132  0.3458  0.4626 -0.2262
  242MOL0     O32538   3.666   2.256   6.059  0.4909  0.6134  0.6095
  242MOL0     C32539   3.763   2.165   6.078 -0.8996  0.2362  0.3436
  242MOL0     C32540   3.897   2.199   6.080 -0.0368  0.0219 -0.3836
  242MOL0     C32541   3.996   2.112   6.053  0.1744 -0.3583 -0.1444
  242MOL0     C32542   3.972   1.980   6.025 -0.8120  0.5592  0.5429
  242MOL0     O32543   4.079   1.900   6.001  0.6469 -0.3261  0.3399
  242MOL0     C32544   4.050   1.778   5.930  0.1422 -0.2353  0.2948
  242MOL0     C32545   4.159   1.754   5.829 -0.4627 -0.1450  0.0835
  242MOL0     C32546   4.121   1.629   5.748 -1.0062  0.1177 -0.3308
  242MOL0     C32547   4.226   1.609   5.637 -0.1284 -0.3200 -0.6252
  242MOL0     C32548   4.168   1.502   5.540  0.3595 -0.5539 -0.8671
  242MOL0     C32549   4.287   1.471   5.447 -0.2302 -0.4594  0.4249
  242MOL0     C32550   4.268   1.351   5.350 -0.0462  0.4762  0.1087
  242MOL0     C32551   4.386   1.346   5.248  0.7048 -0.3756 -1.1737
  242MOL0     N32552   4.433   1.473   5.196 -0.5403 -0.2971 -0.5846
  242MOL0     C32553   4.368   1.559   5.107  0.7192  1.2116  0.4155
  242MOL0     C32554   4.457   1.655   5.087 -0.2353 -0.0058 -0.2537
  242MOL0     C32555   4.417   1.783   5.008  0.5554  0.2300 -0.9543
  242MOL0     C32556   4.383   1.751   4.866 -0.0974  0.3791  0.0792
  242MOL0     C32557   4.281   1.846   4.797  0.0472  0.4273 -0.2071
  242MOL0     C32558   4.140   1.819   4.842 -0.6212  0.2863  0.5419
  242MOL0     O32559   4.100   1.847   4.980 -0.2041  0.7319 -0.6334
  242MOL0     C32560   4.038   1.751   5.057 -0.5747 -0.3704  0.3862
  242MOL0     C32561   4.054   1.759   5.198  0.1431 -0.2237 -0.8421
  242MOL0     C32562   3.974   1.680   5.281 -0.5273  0.0714  0.3034
  242MOL0     C32563   3.884   1.590   5.226  0.0951  0.6971 -0.9282
  242MOL0     C32564   3.803   1.508   5.325  0.0652 -0.3428 -0.0199
  242MOL0     O32565   3.841   1.505   5.458  0.6498 -0.3982  0.0735
  242MOL0     C32566   3.785   1.407   5.530 -0.4627 -0.0630  0.4682
  242MOL0     C32567   3.843   1.279   5.517  0.4059 -0.5590  1.1981
  242MOL0     C32568   3.778   1.180   5.593 -0.4455 -0.1022 -0.2110
  242MOL0     C32569   3.668   1.202   5.685 -0.4499  0.6422 -0.6589
  242MOL0     O32570   3.610   1.096   5.755 -0.3850 -0.2814 -0.0575
  242MOL0     C32571   3.512   1.135   5.851 -0.4375 -0.9563 -0.0680
  242MOL0     C32572   3.472   1.023   5.937  0.3328 -0.1678 -0.4746
  242MOL0     C32573   3.369   1.072   6.035  0.4657 -0.1171 -0.7696
  242MOL0     C32574   3.310   0.979   6.139 -0.5357  0.3203  0.2453
  242MOL0     C32575   3.228   0.867   6.082 -0.2157 -0.0769  0.5604
  242MOL0     C32576   3.175   0.778   6.199  1.3774 -0.5323 -0.1117
  242MOL0     C32577   3.052   0.698   6.136 -0.3751  0.2411 -0.1425
  242MOL0     C32578   2.970   0.625   6.242 -0.1193  0.6040  0.4215
  242MOL0    Cl32579   2.810   0.558   6.173  0.3656 -0.3546 -0.4788
  242MOL0     C32580   3.630   1.336   5.697 -0.0057  0.3133 -1.2028
  242MOL0     C32581   3.674   1.430   5.609 -0.5385 -0.2160 -0.0732
  242MOL0     O32582   3.699   1.451   5.286 -0.4062 -0.2188 -0.2320
  242MOL0     C32583   3.881   1.562   5.092 -0.4286 -1.4471  0.3013
  242MOL0     C32584   3.951   1.649   5.005  0.2806 -0.3714 -0.6231
  242MOL0     N32585   4.574   1.630   5.167 -0.8149  0.2483  0.5206
  242MOL0     N32586   4.563   1.519   5.224 -0.1909  0.1007 -0.0166
  242MOL0     C32587   3.837   1.935   6.046 -0.0858 -0.4815  0.0529
  242MOL0     C32588   3.733   2.025   6.058  0.3662 -0.4318 -0.5747
  242MOL0     C32589   3.459   2.372   6.110 -0.3031  0.2672 -0.9227
  242MOL0     C32590   3.530   2.488   6.088  0.4994  0.5340 -0.0250
  242MOL0     C32591   3.470   2.604   6.069  0.0038 -0.1121  0.0427
  242MOL0     C32592   3.335   2.624   6.069  0.8704  0.2586  0.0421
  242MOL0     O32593   3.289   2.751   6.041  0.1747 -0.0231 -0.0854
  242MOL0     C32594   3.145   2.756   6.038  1.0280 -0.1084 -0.8076
  242MOL0     C32595   3.088   2.900   5.996 -0.3115  0.8686  0.9877
  242MOL0     C32596   2.939   2.925   6.039 -0.1599 -0.2666 -0.1793
  242MOL0     C32597   2.841   2.812   6.015 -0.3701  0.2355  0.2847
  242MOL0     C32598   2.712   2.847   6.063 -0.2009  0.1239  0.8005
  242MOL0     C32599   2.592   2.860   6.101 -0.2510 -0.5458  0.0226
  242MOL0     C32600   3.253   2.509   6.093 -0.3586  0.0554 -0.6369
  242MOL0     C32601   3.320   2.384   6.120 -0.6162 -0.2245 -0.5386
  242MOL0     C32602   3.234   2.262   6.151 -0.5807 -0.1772 -0.1361
  242MOL0     H32603   3.923   2.304   6.088 -3.2819  0.9140 -0.4103
  242MOL0     H32604   4.103   2.131   6.047 -0.1031  1.8101  0.7948
  242MOL0     H32605   4.037   1.691   5.996 -1.4564 -1.3770 -1.4234
  242MOL0     H32606   3.956   1.779   5.875 -1.0439  0.8331  2.2133
  242MOL0     H32607   4.256   1.740   5.879  0.7040  0.8357 -1.7747
  242MOL0     H32608   4.170   1.843   5.767  0.9082  1.4344  2.4702
  242MOL0     H32609   4.016   1.634   5.719 -1.3858 -0.8786  0.8187
  242MOL0     H32610   4.128   1.544   5.816 -1.9917  2.3014  2.6904
  242MOL0     H32611   4.232   1.708   5.591 -0.6478 -0.3219 -0.7112
  242MOL0     H32612   4.326   1.589   5.675  0.8800  1.0087 -2.4537
  242MOL0     H32613   4.137   1.409   5.588  1.4731 -0.7212 -0.4405
  242MOL0     H32614   4.071   1.532   5.500 -0.2567 -0.2741  0.8029
  242MOL0     H32615   4.303   1.560   5.386  4.1144 -2.3775 -1.6936
  242MOL0     H32616   4.378   1.457   5.507  0.5567 -3.1623 -1.2505
  242MOL0     H32617   4.176   1.373   5.296  1.0827  4.6659 -0.5473
  242MOL0     H32618   4.257   1.253   5.397 -1.0981  0.0971 -0.8774
  242MOL0     H32619   4.475   1.294   5.287 -1.1982 -2.1461  1.2136
  242MOL0     H32620   4.355   1.281   5.166 -1.0658 -2.7298  1.1493
  242MOL0     H32621   4.267   1.552   5.069  2.1123 -2.1374 -3.4034
  242MOL0     H32622   4.329   1.824   5.057 -0.0415 -2.0325 -0.0304
  242MOL0     H32623   4.495   1.859   5.011  1.1191 -0.3533  2.0069
  242MOL0     H32624   4.477   1.774   4.815 -0.4205 -0.8644 -1.1482
  242MOL0     H32625   4.364   1.645   4.848 -3.7024  1.2505 -2.2508
  242MOL0     H32626   4.278   1.855   4.688 -1.3940 -0.1144 -0.2291
  242MOL0     H32627   4.308   1.947   4.829 -1.4326  0.6324  0.4720
  242MOL0     H32628   4.110   1.717   4.816  0.9238 -0.1469  0.3811
  242MOL0     H32629   4.074   1.881   4.781  0.2569  1.0400  0.3437
  242MOL0     H32630   4.118   1.834   5.243 -2.1649  0.3464  1.7911
  242MOL0     H32631   3.976   1.686   5.389 -0.8207 -0.7322  0.3609
  242MOL0     H32632   3.932   1.257   5.460  2.1475  3.9711  1.7460
  242MOL0     H32633   3.803   1.075   5.576 -0.3874 -0.4943  2.0049
  242MOL0     H32634   3.545   1.218   5.914  0.0549 -2.2784  1.4823
  242MOL0     H32635   3.421   1.166   5.799  1.0790  1.8215 -1.2816
  242MOL0     H32636   3.439   0.936   5.880  1.0495 -1.6956  1.3552
  242MOL0     H32637   3.553   0.986   6.001 -1.0367 -2.2474  0.1471
  242MOL0     H32638   3.403   1.162   6.086 -1.6118 -0.1198  0.7991
  242MOL0     H32639   3.287   1.101   5.969 -0.9316 -1.3954  0.3071
  242MOL0     H32640   3.246   1.043   6.201 -0.2915  2.3512 -1.4842
  242MOL0     H32641   3.396   0.935   6.191  1.8750  1.6392 -2.3246
  242MOL0     H32642   3.286   0.811   6.007 -0.3016  0.8269 -0.1949
  242MOL0     H32643   3.150   0.917   6.025  0.7760  1.7899  0.7819
  242MOL0     H32644   3.246   0.709   6.245  0.2861 -0.3039  2.0834
  242MOL0     H32645   3.138   0.843   6.279  1.3524 -0.6914  0.0071
  242MOL0     H32646   3.093   0.624   6.067  2.4540  3.4684 -2.2116
  242MOL0     H32647   2.982   0.766   6.087 -0.8600  1.1137  1.6638
  242MOL0     H32648   3.030   0.537   6.269  1.3231  1.6058  0.5616
  242MOL0     H32649   2.958   0.689   6.330 -1.0042 -1.0334  1.5530
  242MOL0     H32650   3.543   1.353   5.760 -0.3719 -2.5629 -0.7778
  242MOL0     H32651   3.619   1.523   5.616 -1.4358 -0.8676  3.1657
  242MOL0     H32652   3.835   1.479   5.040  0.3601 -1.3042 -0.6639
  242MOL0     H32653   3.936   1.645   4.898  0.7741  1.4920 -0.7872
  242MOL0     H32654   3.809   1.831   6.033  2.7304 -1.3550  0.2249
  242MOL0     H32655   3.634   1.982   6.063  0.0993 -0.0045 -1.8024
  242MOL0     H32656   3.636   2.488   6.112  0.4053  2.8876  0.6310
  242MOL0     H32657   3.540   2.684   6.047  3.1493 -2.0919  2.0505
  242MOL0     H32658   3.111   2.732   6.139 -0.3800 -2.0746 -1.6955
  242MOL0     H32659   3.103   2.680   5.971  0.3022 -0.9106  0.5054
  242MOL0     H32660   3.096   2.911   5.888  1.7608  1.0222  1.1257
  242MOL0     H32661   3.156   2.973   6.041  0.8680 -0.5748  1.6386
  242MOL0     H32662   2.906   3.018   5.992 -0.8656 -1.5118 -2.3035
  242MOL0     H32663   2.930   2.945   6.146  0.5421  0.1211 -0.1914
  242MOL0     H32664   2.830   2.790   5.909 -1.4635 -2.0584  0.8199
  242MOL0     H32665   2.877   2.722   6.065  1.1775 -0.3479 -1.7210
  242MOL0     H32666   2.487   2.863   6.122 -0.8702  1.7386 -2.7240
  242MOL0     H32667   3.146   2.495   6.082 -0.6211  0.8677  0.7580
  242MOL0     H32668   3.133   2.283   6.186 -1.2122 -0.6285 -1.5972
  242MOL0     H32669   3.233   2.203   6.059 -1.0400 -1.8397  0.8987
  242MOL0     H32670   3.289   2.212   6.231  0.9679 -1.4156 -1.8745
  243MOL0     O32671  10.563   0.291   5.002 -0.2461  0.0377 -0.2482
  243MOL0     C32672  10.504   0.364   4.925  0.6509 -0.1605 -0.8070
  243MOL0     O32673  10.548   0.395   4.792  0.3162  0.4849  0.7673
  243MOL0     C32674  10.675   0.360   4.747  0.5171 -0.4452  0.2986
  243MOL0     C32675  10.753   0.246   4.773  0.1916 -0.0701 -0.1343
  243MOL0     C32676  10.885   0.239   4.718  0.0996  0.1264  0.2918
  243MOL0     C32677  10.942   0.342   4.638 -0.3712 -0.7260  0.0085
  243MOL0     O32678  11.062   0.312   4.582  0.2133 -0.1101  0.2225
  243MOL0     C32679  11.090   0.372   4.448  0.2273 -0.2809 -0.3436
  243MOL0     C32680  11.211   0.307   4.380  0.4614 -0.0536  0.1323
  243MOL0     C32681  11.341   0.372   4.401 -0.0130  0.2324  0.0969
  243MOL0     C32682  11.461   0.277   4.383  0.8679  0.1287  0.3670
  243MOL0     C32683  11.599   0.347   4.407  0.2206  0.0942 -0.3968
  243MOL0     C32684  11.717   0.242   4.386 -0.5185 -0.0222 -1.1296
  243MOL0     C32685  11.714   0.184   4.247  0.0882  0.9049 -0.7074
  243MOL0     C32686  11.834   0.098   4.229 -0.8157 -0.7501  0.0794
  243MOL0     N32687  11.867   0.076   4.089 -0.5635 -0.1857 -0.5496
  243MOL0     C32688  11.899   0.180   4.004  0.1670  0.3699 -0.7441
  243MOL0     C32689  11.954   0.115   3.893 -0.2928 -0.2998 -0.2098
  243MOL0     C32690  11.990   0.194   3.768  0.1312  0.2400 -0.1627
  243MOL0     C32691  12.132   0.232   3.761  0.3835  0.1719 -0.3087
  243MOL0     C32692  12.225   0.114   3.762  0.7521 -0.1079 -0.4413
  243MOL0     C32693  12.365   0.174   3.785  0.0092  0.3535 -0.0360
  243MOL0     O32694  12.412   0.252   3.673  0.2421 -0.1306  0.0172
  243MOL0     C32695  12.526   0.334   3.691  0.4520  0.8460  0.0141
  243MOL0     C32696  12.556   0.422   3.579  0.7360 -0.5220  0.0827
  243MOL0     C32697  12.663   0.504   3.580  0.5307  0.7229 -0.2089
  243MOL0     C32698  12.746   0.517   3.692 -0.4903  0.2542 -0.1130
  243MOL0     C32699  12.868   0.613   3.678  0.7213 -0.1844  0.2489
  243MOL0     O32700  12.844   0.708   3.579 -0.6709  0.5634  0.6947
  243MOL0     C32701  12.953   0.780   3.550  0.5170 -0.1662 -0.5878
  243MOL0     C32702  12.985   0.898   3.619  0.0098  0.3393  1.3094
  243MOL0     C32703  13.110   0.962   3.592  0.4715  0.5809  0.8969
  243MOL0     C32704  13.193   0.913   3.498  0.1173  0.2743  0.8998
  243MOL0     O32705  13.307   0.994   3.476  0.5613  0.1086  0.5402
  243MOL0     C32706  13.422   0.947   3.404  0.4990  0.0858  0.9589
  243MOL0     C32707  13.539   1.037   3.431 -0.0841  0.7737  0.1976
  243MOL0     C32708  13.669   0.988   3.379 -0.1895 -1.1038 -0.3723
  243MOL0     C32709  13.780   1.092   3.392 -0.2325 -0.2819  1.2309
  243MOL0     C32710  13.915   1.029   3.348 -0.7677  0.1524 -0.3944
  243MOL0     C32711  13.919   0.995   3.203  0.4292  0.6193 -0.2567
  243MOL0     C32712  14.062   0.950   3.156 -0.1017  0.1444 -0.2918
  243MOL0     C32713  14.050   0.869   3.018  0.4943 -0.1827 -0.4888
  243MOL0    Cl32714  14.215   0.840   2.962 -0.0189 -0.0585  0.1976
  243MOL0     C32715  13.160   0.794   3.426  0.4574 -0.5550  0.5412
  243MOL0     C32716  13.044   0.729   3.464  0.2217 -0.3058 -0.4275
  243MOL0     O32717  12.965   0.607   3.753  0.3430 -0.7488  0.2849
  243MOL0     C32718  12.724   0.426   3.802  0.2397 -0.5651  0.1861
  243MOL0     C32719  12.609   0.341   3.804 -0.9083 -0.4704 -0.2868
  243MOL0     N32720  11.929  -0.024   3.909  0.2668 -0.2714  0.2438
  243MOL0     N32721  11.882  -0.048   4.026  0.1566  0.4145 -0.5765
  243MOL0     C32722  10.852   0.455   4.592 -0.9644  0.2452 -0.6502
  243MOL0     C32723  10.721   0.454   4.649 -0.4814 -0.3762 -0.4248
  243MOL0     C32724  10.367   0.412   4.962  0.7427 -0.2558 -0.5859
  243MOL0     C32725  10.293   0.493   4.870 -0.6747 -0.4972 -0.1856
  243MOL0     C32726  10.170   0.542   4.910  0.2466  0.7407 -0.4297
  243MOL0     C32727  10.114   0.531   5.034 -0.1034 -0.1273 -0.0091
  243MOL0     O32728  10.003   0.611   5.044 -0.8818  0.9755  0.3207
  243MOL0     C32729   9.962   0.632   5.181  0.9951  0.3714 -0.0424
  243MOL0     C32730   9.832   0.708   5.175 -0.0920  1.2933  0.6272
  243MOL0     C32731   9.719   0.618   5.107  0.7672 -0.6526 -0.1257
  243MOL0     C32732   9.575   0.664   5.143 -0.6196 -0.3631  0.7213
  243MOL0     C32733   9.546   0.796   5.090 -0.1368 -0.4884 -0.6209
  243MOL0     C32734   9.503   0.900   5.057 -0.5391  0.4685 -0.0020
  243MOL0     C32735  10.185   0.461   5.126 -0.3617  0.3103 -0.7601
  243MOL0     C32736  10.299   0.390   5.093 -0.3648 -0.1053  0.1652
  243MOL0     C32737  10.361   0.304   5.195  0.2276 -0.3070 -0.3975
  243MOL0     H32738  10.716   0.170   4.841  2.4584 -0.3116  0.9154
  243MOL0     H32739  10.960   0.161   4.730  1.0384  0.5824 -2.0438
  243MOL0     H32740  11.005   0.351   4.383  0.4010 -0.1980 -0.6014
  243MOL0     H32741  11.108   0.480   4.446  0.3423 -0.3103 -1.1387
  243MOL0     H32742  11.190   0.300   4.273  1.5271  1.2407 -0.1889
  243MOL0     H32743  11.214   0.205   4.420 -0.6450  0.0099  0.4204
  243MOL0     H32744  11.350   0.402   4.506  2.4058  2.0065 -0.5254
  243MOL0     H32745  11.352   0.460   4.336  0.1591 -0.6438 -1.0963
  243MOL0     H32746  11.450   0.197   4.457  0.7717 -0.3280 -0.1311
  243MOL0     H32747  11.449   0.223   4.288 -0.8793  0.4794  0.3499
  243MOL0     H32748  11.619   0.436   4.346  1.5413  1.5538  1.9905
  243MOL0     H32749  11.606   0.391   4.507 -3.7166  2.3898 -0.9227
  243MOL0     H32750  11.811   0.298   4.392 -0.8269  0.4803 -0.8482
  243MOL0     H32751  11.702   0.163   4.460  1.5361 -0.9881 -1.6633
  243MOL0     H32752  11.707   0.272   4.182  0.8816  2.0359  0.7022
  243MOL0     H32753  11.628   0.117   4.238  0.7048 -0.4751  2.3739
  243MOL0     H32754  11.924   0.151   4.263 -1.0656 -0.3436  0.1163
  243MOL0     H32755  11.834  -0.001   4.274  0.1062 -0.1047  1.5993
  243MOL0     H32756  11.895   0.288   4.014  2.0822  0.2810  2.4100
  243MOL0     H32757  11.975   0.134   3.677 -1.3532  1.7772 -0.9907
  243MOL0     H32758  11.921   0.278   3.756 -0.0893 -0.2021 -2.6769
  243MOL0     H32759  12.146   0.295   3.673 -3.1154  1.1392 -0.3362
  243MOL0     H32760  12.143   0.290   3.852  1.5629 -2.1673  1.1488
  243MOL0     H32761  12.220   0.050   3.673  0.4338 -1.3337  0.4407
  243MOL0     H32762  12.211   0.056   3.853  3.9317 -1.8468 -0.8945
  243MOL0     H32763  12.432   0.087   3.790 -2.5897 -1.8484 -1.0009
  243MOL0     H32764  12.352   0.227   3.880 -1.6559 -2.6112  1.5761
  243MOL0     H32765  12.494   0.415   3.490  2.3708 -0.1242 -1.1254
  243MOL0     H32766  12.686   0.556   3.488 -0.2167 -1.9177 -2.0097
  243MOL0     H32767  12.913   0.933   3.692  0.0184  1.3559  0.8481
  243MOL0     H32768  13.138   1.052   3.647  1.0173  0.6023  0.5968
  243MOL0     H32769  13.447   0.847   3.441  0.5630  1.1195  3.9342
  243MOL0     H32770  13.397   0.954   3.297  3.8290  0.9622  0.1284
  243MOL0     H32771  13.512   1.128   3.378 -0.8048 -2.0685 -4.9269
  243MOL0     H32772  13.535   1.042   3.541 -0.9010  0.3770  0.1909
  243MOL0     H32773  13.693   0.901   3.441 -0.2213 -0.1219  1.0965
  243MOL0     H32774  13.649   0.952   3.278 -2.1944  0.6016 -0.6535
  243MOL0     H32775  13.793   1.117   3.498 -0.8694 -0.7022  1.4108
  243MOL0     H32776  13.755   1.179   3.331 -1.5363 -1.2244  0.3745
  243MOL0     H32777  13.940   0.939   3.405  2.9045  0.7378 -0.8058
  243MOL0     H32778  13.989   1.103   3.380 -0.9031 -0.1715  0.7187
  243MOL0     H32779  13.839   0.922   3.189 -0.0691  0.6517  1.9432
  243MOL0     H32780  13.892   1.077   3.135  0.5561 -2.1333 -3.9228
  243MOL0     H32781  14.112   0.883   3.227  0.4435  2.5825  1.7463
  243MOL0     H32782  14.128   1.036   3.147  0.4474 -0.4765 -2.8863
  243MOL0     H32783  14.000   0.773   3.033  3.5280 -1.8671 -0.3282
  243MOL0     H32784  13.999   0.931   2.943 -2.2683 -1.0635  0.5209
  243MOL0     H32785  13.230   0.764   3.350  1.4196 -1.9739  1.9391
  243MOL0     H32786  13.020   0.635   3.415  1.6573 -2.3126  2.4082
  243MOL0     H32787  12.794   0.440   3.884 -1.7567 -1.0935  2.0975
  243MOL0     H32788  12.599   0.274   3.889  2.5393 -0.4558  0.2641
  243MOL0     H32789  10.886   0.540   4.533 -1.1932 -0.1920 -1.4151
  243MOL0     H32790  10.661   0.538   4.615  1.9899  1.7697  0.0851
  243MOL0     H32791  10.320   0.511   4.767 -1.5740  0.6227 -0.2306
  243MOL0     H32792  10.115   0.612   4.849 -1.0766 -0.6519 -0.9104
  243MOL0     H32793  10.028   0.695   5.242 -0.2228  1.6835 -0.0414
  243MOL0     H32794   9.948   0.544   5.244 -0.0525  0.9989  0.6364
  243MOL0     H32795   9.845   0.802   5.119  0.9340  1.3981  1.0128
  243MOL0     H32796   9.802   0.743   5.274 -1.0913  1.2812  0.3383
  243MOL0     H32797   9.723   0.517   5.149 -2.1954  0.3911  3.1461
  243MOL0     H32798   9.729   0.613   4.998  2.2673 -1.7181  0.0239
  243MOL0     H32799   9.515   0.592   5.088  0.8572 -0.1471 -1.2972
  243MOL0     H32800   9.564   0.648   5.250  5.0737 -2.7725  1.3151
  243MOL0     H32801   9.482   0.999   5.022 -0.7905 -0.7396 -3.6004
  243MOL0     H32802  10.157   0.456   5.231 -0.1869 -1.3407 -0.7700
  243MOL0     H32803  10.364   0.207   5.144 -0.6330 -0.4523 -0.1889
  243MOL0     H32804  10.458   0.341   5.229  0.0535 -0.7128  0.5900
  243MOL0     H32805  10.296   0.293   5.282  1.1597 -2.1275  0.1372
  244MOL0     O32806   7.042   8.472   2.239  0.8497  0.6761  0.7170
  244MOL0     C32807   6.921   8.481   2.206 -0.2269  0.7639 -0.2714
  244MOL0     O32808   6.858   8.593   2.174 -0.1385 -0.6716  0.1099
  244MOL0     C32809   6.932   8.703   2.159 -0.2261  0.3969  0.1162
  244MOL0     C32810   6.965   8.744   2.032 -0.0435 -0.7391  0.7926
  244MOL0     C32811   7.047   8.853   2.016 -0.2163  0.1000  0.9705
  244MOL0     C32812   7.093   8.924   2.120  0.2581 -0.4224  0.1804
  244MOL0     O32813   7.172   9.030   2.082  0.3988  0.2592 -0.7573
  244MOL0     C32814   7.209   9.122   2.190 -0.7894  0.4284  0.1215
  244MOL0     C32815   7.282   9.249   2.133  0.8077 -0.0770 -0.5879
  244MOL0     C32816   7.408   9.210   2.052 -0.4577  0.4751 -0.1192
  244MOL0     C32817   7.517   9.132   2.126 -0.3118  0.2695  0.7533
  244MOL0     C32818   7.647   9.152   2.053 -0.0488 -0.4081  0.1745
  244MOL0     C32819   7.675   9.082   1.917  0.2361  0.1042  0.1161
  244MOL0     C32820   7.780   9.145   1.832  0.0048 -0.5653 -0.9067
  244MOL0     C32821   7.914   9.154   1.897 -0.1995 -0.5995 -0.4399
  244MOL0     N32822   8.006   9.249   1.833  0.1344  0.0881 -0.5746
  244MOL0     C32823   8.006   9.383   1.826  0.4556  0.3473 -0.5214
  244MOL0     C32824   8.121   9.407   1.756  0.6121 -0.3350 -0.7799
  244MOL0     C32825   8.169   9.543   1.711  0.6658 -0.2678 -0.4745
  244MOL0     C32826   8.207   9.625   1.831 -0.3851 -0.0250  0.8276
  244MOL0     C32827   8.290   9.745   1.787  0.8383 -0.2480 -0.3152
  244MOL0     C32828   8.399   9.776   1.900  0.1241  0.0768 -0.8959
  244MOL0     O32829   8.437   9.911   1.902 -0.0810 -0.7328 -0.1492
  244MOL0     C32830   8.430   9.996   2.015  0.5773  0.0967  0.4340
  244MOL0     C32831   8.482  10.124   1.996 -0.2334 -0.1018 -0.2092
  244MOL0     C32832   8.485  10.221   2.097  1.0071 -0.1631 -0.1806
  244MOL0     C32833   8.419  10.194   2.218 -0.1543  0.2756 -0.4232
  244MOL0     C32834   8.405  10.295   2.330  0.5524  0.2702  0.4454
  244MOL0     O32835   8.486  10.402   2.336  0.0757 -0.2432  0.0315
  244MOL0     C32836   8.489  10.495   2.438  0.2784  0.3730 -0.1540
  244MOL0     C32837   8.447  10.627   2.431 -0.7503 -0.0734  0.1082
  244MOL0     C32838   8.462  10.703   2.548 -0.4448 -0.6327  0.3469
  244MOL0     C32839   8.531  10.660   2.661  0.4211  0.4888  0.5534
  244MOL0     O32840   8.557  10.739   2.766 -0.1001 -0.4652  0.1700
  244MOL0     C32841   8.609  10.869   2.746  0.5436  0.5673  0.3405
  244MOL0     C32842   8.685  10.913   2.872 -0.2804 -0.7686  0.6942
  244MOL0     C32843   8.729  11.064   2.874  0.3187  0.4548  0.1908
  244MOL0     C32844   8.854  11.072   2.785 -0.3252  0.6969 -1.3232
  244MOL0     C32845   8.975  11.119   2.867  0.3304  0.2243 -0.8176
  244MOL0     C32846   9.095  11.167   2.784  0.5650 -0.2403  0.6145
  244MOL0     C32847   9.221  11.215   2.869 -0.0365 -0.5900 -0.9786
  244MOL0     C32848   9.332  11.262   2.774 -0.4032 -0.0539  0.2015
  244MOL0    Cl32849   9.469  11.323   2.874  0.5710  0.2586  0.2370
  244MOL0     C32850   8.577  10.528   2.662 -0.2106 -0.6127  0.2218
  244MOL0     C32851   8.550  10.442   2.554 -0.0961 -0.3128  0.0422
  244MOL0     O32852   8.326  10.260   2.417 -0.2348 -0.0441  0.3603
  244MOL0     C32853   8.368  10.065   2.234 -0.2089 -0.5043  0.4106
  244MOL0     C32854   8.378   9.963   2.132 -0.3808 -0.0087 -0.2599
  244MOL0     N32855   8.174   9.294   1.714 -0.6339  0.0449  0.0983
  244MOL0     N32856   8.108   9.198   1.767 -0.0550  0.0745 -0.4406
  244MOL0     C32857   7.062   8.882   2.253  0.5642  0.3421 -0.2399
  244MOL0     C32858   6.973   8.774   2.269 -1.0177 -0.6870 -0.4544
  244MOL0     C32859   6.850   8.356   2.202 -0.7974  0.2145 -0.5429
  244MOL0     C32860   6.872   8.262   2.305 -0.4286 -0.4551 -0.3113
  244MOL0     C32861   6.821   8.136   2.299 -1.4569 -0.4995 -0.7238
  244MOL0     C32862   6.744   8.092   2.188  0.0203  0.4371 -0.3682
  244MOL0     O32863   6.710   7.960   2.192  0.3840  0.6078  0.4037
  244MOL0     C32864   6.679   7.894   2.066 -0.1418  0.6827  0.0177
  244MOL0     C32865   6.526   7.891   2.047 -0.0785 -0.6617  0.2880
  244MOL0     C32866   6.471   7.749   2.063 -0.0425  0.3359  0.9849
  244MOL0     C32867   6.312   7.750   2.065 -1.0561  1.3012  0.0461
  244MOL0     C32868   6.256   7.825   2.172 -0.1085 -0.0791 -0.2215
  244MOL0     C32869   6.196   7.881   2.257 -0.0692 -0.1371  0.3211
  244MOL0     C32870   6.721   8.189   2.087 -0.0161 -1.2776  0.2245
  244MOL0     C32871   6.774   8.318   2.095 -0.2474  0.0836 -0.2844
  244MOL0     C32872   6.744   8.405   1.973  0.0685 -0.7097 -0.9235
  244MOL0     H32873   6.916   8.711   1.941  0.6291  1.7323 -0.5730
  244MOL0     H32874   7.081   8.881   1.917 -1.2580 -0.7511  0.3481
  244MOL0     H32875   7.123   9.166   2.240 -1.1916  0.2155 -0.3717
  244MOL0     H32876   7.270   9.075   2.268 -1.7345 -0.3474  0.4093
  244MOL0     H32877   7.317   9.317   2.211  4.6359 -1.5370 -0.8211
  244MOL0     H32878   7.207   9.299   2.071  0.3566  1.3832  1.0676
  244MOL0     H32879   7.456   9.307   2.040  0.9613 -0.0020  1.3653
  244MOL0     H32880   7.381   9.157   1.960  0.3256 -1.4658  0.7159
  244MOL0     H32881   7.533   9.170   2.227  0.1486  1.7419  0.1542
  244MOL0     H32882   7.497   9.024   2.130  1.4877 -0.1364 -0.2983
  244MOL0     H32883   7.665   9.259   2.040 -2.2758  0.4572  3.1074
  244MOL0     H32884   7.729   9.112   2.113 -0.6416 -3.1238 -0.7001
  244MOL0     H32885   7.703   8.977   1.931  0.9777  0.1975 -0.6250
  244MOL0     H32886   7.592   9.081   1.846 -1.7331  0.5559  2.2843
  244MOL0     H32887   7.752   9.250   1.817 -1.2523 -0.8660 -0.7593
  244MOL0     H32888   7.794   9.101   1.733  2.0383  0.9004 -1.3569
  244MOL0     H32889   7.912   9.195   1.998  0.9360 -1.0276 -0.2264
  244MOL0     H32890   7.960   9.054   1.903  0.7689 -0.2780 -1.8817
  244MOL0     H32891   7.942   9.456   1.876 -2.2457 -0.1114 -3.0119
  244MOL0     H32892   8.253   9.532   1.642  2.1501  1.1030  1.0071
  244MOL0     H32893   8.083   9.597   1.669 -0.7538 -0.1588  2.3804
  244MOL0     H32894   8.118   9.663   1.881  0.9802 -0.5882  3.9929
  244MOL0     H32895   8.271   9.564   1.896  2.4747  0.3544 -1.4163
  244MOL0     H32896   8.222   9.830   1.783  1.4794  0.2538 -0.7537
  244MOL0     H32897   8.343   9.735   1.692  2.3396 -2.2764  0.6515
  244MOL0     H32898   8.484   9.711   1.880  1.7059  2.1352 -1.2516
  244MOL0     H32899   8.353   9.749   1.995 -0.3657 -0.9161 -1.4067
  244MOL0     H32900   8.501  10.152   1.893 -0.7966  0.8709 -0.0641
  244MOL0     H32901   8.516  10.322   2.070  2.7316 -0.7579 -0.5753
  244MOL0     H32902   8.425  10.667   2.332 -1.0872 -1.2295 -0.3090
  244MOL0     H32903   8.424  10.804   2.543  2.4066  0.4747 -1.1943
  244MOL0     H32904   8.688  10.878   2.671  2.6908  0.5439  2.4646
  244MOL0     H32905   8.524  10.937   2.733  1.7550  1.7479 -2.0707
  244MOL0     H32906   8.626  10.889   2.961 -1.1428 -1.5021 -0.0523
  244MOL0     H32907   8.772  10.850   2.891 -1.1109 -1.4561  2.4396
  244MOL0     H32908   8.639  11.109   2.831 -0.3284  0.1500  1.1971
  244MOL0     H32909   8.740  11.102   2.975 -1.8847  0.3377  0.5350
  244MOL0     H32910   8.834  11.138   2.700 -1.9452 -1.4401 -2.7451
  244MOL0     H32911   8.867  10.973   2.739  0.2330 -2.0318  3.9339
  244MOL0     H32912   9.002  11.037   2.934 -1.1673 -0.6853 -1.2702
  244MOL0     H32913   8.952  11.202   2.934  1.4241  1.4917 -1.9521
  244MOL0     H32914   9.128  11.084   2.721  0.8001  1.1749 -1.2128
  244MOL0     H32915   9.064  11.251   2.721 -0.3729 -2.2301 -1.7273
  244MOL0     H32916   9.260  11.131   2.927 -0.2726 -0.5129 -0.7083
  244MOL0     H32917   9.195  11.302   2.929 -1.3930 -0.1852 -2.0975
  244MOL0     H32918   9.370  11.177   2.717 -1.5868 -1.9465  2.0902
  244MOL0     H32919   9.294  11.342   2.710 -0.6714  1.3340  2.0222
  244MOL0     H32920   8.632  10.491   2.748  1.7878  2.2016  0.2985
  244MOL0     H32921   8.587  10.340   2.558 -2.3795 -1.1847  0.0392
  244MOL0     H32922   8.333  10.037   2.333  0.2615  0.5792  0.9008
  244MOL0     H32923   8.322   9.871   2.149 -3.4940  1.9958  1.3559
  244MOL0     H32924   7.084   8.940   2.342 -0.6350 -1.3866  1.2461
  244MOL0     H32925   6.944   8.754   2.371 -0.3594 -0.1628 -0.1561
  244MOL0     H32926   6.940   8.282   2.387  3.0926 -1.6421 -2.7187
  244MOL0     H32927   6.854   8.053   2.361  0.4471  0.4676 -0.3615
  244MOL0     H32928   6.719   7.794   2.087 -1.3394  0.7987  3.4674
  244MOL0     H32929   6.736   7.926   1.978  4.6512  1.2181  2.9548
  244MOL0     H32930   6.506   7.943   1.953 -0.8965 -0.9323  0.2981
  244MOL0     H32931   6.487   7.942   2.136  0.5254  1.2615 -0.5020
  244MOL0     H32932   6.512   7.705   2.154 -0.9605 -2.4617  0.1394
  244MOL0     H32933   6.506   7.687   1.981 -0.6250  1.1666  0.0734
  244MOL0     H32934   6.275   7.783   1.967  1.1731 -0.6656 -1.6104
  244MOL0     H32935   6.292   7.642   2.068  1.3042  0.7155 -1.8413
  244MOL0     H32936   6.136   7.931   2.330  2.2012  3.1766  0.1320
  244MOL0     H32937   6.654   8.162   2.006  0.0033  0.1208 -0.2784
  244MOL0     H32938   6.690   8.364   1.887 -2.1981  0.6221 -0.2006
  244MOL0     H32939   6.693   8.498   1.998 -0.9943 -0.0337 -4.8368
  244MOL0     H32940   6.841   8.425   1.925  0.7464 -0.1183  0.6333
  245MOL0     O32941   9.698   7.130   2.259 -0.8802  0.4313  0.0366
  245MOL0     C32942   9.646   7.235   2.294 -1.1929 -0.2290 -0.1373
  245MOL0     O32943   9.715   7.353   2.308  0.0506 -0.0945  0.2762
  245MOL0     C32944   9.850   7.351   2.303 -0.1077  0.3876 -0.4030
  245MOL0     C32945   9.915   7.422   2.200  0.8763  0.5882 -0.6314
  245MOL0     C32946  10.050   7.456   2.216 -0.2499 -0.1409  0.3636
  245MOL0     C32947  10.131   7.394   2.315 -0.0502 -0.6026 -0.3147
  245MOL0     O32948  10.265   7.411   2.335 -0.0295  0.5116 -0.3415
  245MOL0     C32949  10.337   7.392   2.205  0.2908 -0.2975 -0.1471
  245MOL0     C32950  10.478   7.342   2.224  0.3782  0.2118 -0.4476
  245MOL0     C32951  10.550   7.415   2.332  0.5492 -0.3119 -0.8729
  245MOL0     C32952  10.680   7.349   2.362 -0.2416  0.5062 -0.0640
  245MOL0     C32953  10.799   7.357   2.255  0.1331 -0.2536 -0.5938
  245MOL0     C32954  10.931   7.294   2.293  0.2190 -0.1857  0.6081
  245MOL0     C32955  11.035   7.342   2.194 -0.7038 -0.2655 -0.1578
  245MOL0     C32956  11.177   7.279   2.248  0.0150  0.5422  0.0031
  245MOL0     N32957  11.307   7.312   2.183  0.2334 -0.1853 -0.3654
  245MOL0     C32958  11.424   7.347   2.242  0.3834  0.0112  0.9090
  245MOL0     C32959  11.498   7.404   2.148  0.1899  0.4579 -0.2324
  245MOL0     C32960  11.630   7.446   2.178 -0.0444 -0.6053 -0.7465
  245MOL0     C32961  11.732   7.347   2.234  0.2280  0.3067  0.8718
  245MOL0     C32962  11.868   7.418   2.247 -0.4812  0.1481  0.3076
  245MOL0     C32963  11.968   7.315   2.285  0.8555 -0.5571  0.2116
  245MOL0     O32964  12.091   7.372   2.273 -0.7265 -0.3374  0.2429
  245MOL0     C32965  12.197   7.316   2.339 -0.2874 -0.3125 -0.4567
  245MOL0     C32966  12.321   7.354   2.289  0.1654  0.0863  0.5319
  245MOL0     C32967  12.445   7.292   2.326  0.3509 -0.5759 -0.9281
  245MOL0     C32968  12.450   7.197   2.425  0.4646 -0.3049 -0.5871
  245MOL0     C32969  12.572   7.127   2.471  0.0236 -0.2907  0.0346
  245MOL0     O32970  12.694   7.161   2.413 -0.0484 -0.1273 -0.5202
  245MOL0     C32971  12.810   7.086   2.430 -0.0255 -0.1389  0.6658
  245MOL0     C32972  12.891   7.094   2.316  0.8584  0.8006  0.4023
  245MOL0     C32973  13.009   7.017   2.306  0.4724 -0.1683  0.6754
  245MOL0     C32974  13.048   6.947   2.419 -0.9136  0.1688 -0.5262
  245MOL0     O32975  13.175   6.887   2.420 -0.0666 -0.3020 -0.2222
  245MOL0     C32976  13.259   6.900   2.534  1.3343  0.0615  0.5405
  245MOL0     C32977  13.398   6.854   2.498 -1.0024 -0.5284 -0.3494
  245MOL0     C32978  13.397   6.702   2.476  0.3305  0.5529 -0.5132
  245MOL0     C32979  13.533   6.651   2.420  0.6830  0.6291 -0.5459
  245MOL0     C32980  13.527   6.495   2.394 -0.4815  0.8636  0.1267
  245MOL0     C32981  13.665   6.435   2.365  0.0029 -0.8693  0.4554
  245MOL0     C32982  13.663   6.295   2.436  0.3895  0.9277  0.5269
  245MOL0     C32983  13.790   6.218   2.391  0.3629 -0.7089 -0.0205
  245MOL0    Cl32984  13.928   6.285   2.485 -0.2972 -0.1716  0.2469
  245MOL0     C32985  12.971   6.938   2.534 -0.9097  0.7440  0.4484
  245MOL0     C32986  12.849   7.004   2.539  0.8335  0.0642  0.7564
  245MOL0     O32987  12.561   7.036   2.551 -0.2012  0.6289 -0.2683
  245MOL0     C32988  12.328   7.156   2.477 -0.4627  0.0043  0.5846
  245MOL0     C32989  12.203   7.219   2.439  0.1020 -0.7083  0.2128
  245MOL0     N32990  11.423   7.401   2.030 -0.7861 -0.0496 -1.1943
  245MOL0     N32991  11.315   7.337   2.054  0.1527 -0.2211  0.7217
  245MOL0     C32992  10.069   7.316   2.405 -0.2654  0.6512  0.6975
  245MOL0     C32993   9.924   7.303   2.406  0.2659  0.1442  1.2683
  245MOL0     C32994   9.498   7.238   2.314  0.2088 -0.2075  0.1158
  245MOL0     C32995   9.440   7.349   2.375  0.1260  0.7990 -0.8152
  245MOL0     C32996   9.304   7.360   2.402  0.2154  0.3112 -0.1236
  245MOL0     C32997   9.216   7.253   2.361 -0.1511 -1.5984 -0.6133
  245MOL0     O32998   9.081   7.269   2.379  0.2272  0.1330 -0.3017
  245MOL0     C32999   9.045   7.255   2.516  0.5812 -0.2233  0.6940
  245MOL0     C33000   8.906   7.194   2.523  0.1865 -0.0317  0.2030
  245MOL0     C33001   8.811   7.272   2.428 -0.4023 -0.2109  0.2796
  245MOL0     C33002   8.668   7.238   2.428  0.7667 -0.1269  0.3803
  245MOL0     C33003   8.607   7.253   2.559 -0.3696 -0.6472  0.9805
  245MOL0     C33004   8.555   7.280   2.666 -0.0879 -0.0047  1.2708
  245MOL0     C33005   9.278   7.136   2.319  0.3254 -0.3087 -0.3695
  245MOL0     C33006   9.414   7.130   2.284  0.7848 -0.4151 -0.3077
  245MOL0     C33007   9.449   6.996   2.226 -0.5309  0.0421 -0.8003
  245MOL0     H33008   9.868   7.469   2.114  2.8502  1.1134 -1.4676
  245MOL0     H33009  10.080   7.530   2.143  1.6820 -1.2558 -0.0504
  245MOL0     H33010  10.283   7.322   2.141 -0.6699 -0.1058  0.4260
  245MOL0     H33011  10.334   7.490   2.156 -5.0503  0.5401  1.1585
  245MOL0     H33012  10.538   7.357   2.134  1.8402 -0.6151  0.3487
  245MOL0     H33013  10.476   7.237   2.255 -1.0832  0.2371 -0.3582
  245MOL0     H33014  10.496   7.413   2.427  0.9189 -0.3938 -0.6659
  245MOL0     H33015  10.566   7.519   2.303  0.2394  0.4876  1.6235
  245MOL0     H33016  10.708   7.402   2.453  0.3393  1.1024 -0.5789
  245MOL0     H33017  10.666   7.247   2.398  1.8856  0.1079 -0.2110
  245MOL0     H33018  10.757   7.307   2.167 -3.1123 -0.5447  0.9926
  245MOL0     H33019  10.823   7.459   2.226  0.6285 -0.4930 -1.0413
  245MOL0     H33020  10.953   7.317   2.398 -1.9980 -4.0602  2.1699
  245MOL0     H33021  10.932   7.184   2.295 -0.9599 -0.2485 -0.6478
  245MOL0     H33022  11.053   7.448   2.215  1.4994 -0.7460  0.6631
  245MOL0     H33023  11.012   7.317   2.090  0.4577 -4.0216  0.3345
  245MOL0     H33024  11.196   7.298   2.354  1.0471 -1.9598  0.3296
  245MOL0     H33025  11.174   7.172   2.227  1.9811  0.4833 -0.1484
  245MOL0     H33026  11.446   7.325   2.346 -0.0199 -0.1575  0.9604
  245MOL0     H33027  11.682   7.506   2.102  0.1700 -0.0450 -0.1701
  245MOL0     H33028  11.619   7.513   2.264  2.6363  0.5405 -1.1954
  245MOL0     H33029  11.701   7.314   2.334 -0.5060 -0.1967  0.4950
  245MOL0     H33030  11.745   7.273   2.154  1.3000  0.8413  0.5400
  245MOL0     H33031  11.875   7.496   2.323  0.6553 -1.0018  1.4320
  245MOL0     H33032  11.893   7.461   2.150 -1.8824  1.1014  0.3251
  245MOL0     H33033  11.968   7.229   2.217 -3.7902 -0.2737 -0.4748
  245MOL0     H33034  11.935   7.263   2.375 -2.2135  0.2734 -0.3187
  245MOL0     H33035  12.328   7.441   2.223 -3.4826 -0.1846 -0.3910
  245MOL0     H33036  12.540   7.320   2.282 -1.0617  1.2500 -3.0367
  245MOL0     H33037  12.856   7.148   2.229 -0.5580  0.6807  0.8678
  245MOL0     H33038  13.064   7.016   2.213  0.7552 -0.4616  0.8439
  245MOL0     H33039  13.270   7.004   2.568  1.0955  0.4072 -0.4096
  245MOL0     H33040  13.222   6.838   2.616  0.2146 -0.7076 -0.5083
  245MOL0     H33041  13.428   6.898   2.402 -2.5850  1.4197 -0.0260
  245MOL0     H33042  13.460   6.877   2.585 -0.7324  0.7901 -0.8628
  245MOL0     H33043  13.375   6.662   2.576 -1.3222  0.3158 -0.9548
  245MOL0     H33044  13.312   6.677   2.412 -2.9959  1.9509  2.9818
  245MOL0     H33045  13.598   6.678   2.504  0.5528 -2.1464  0.5563
  245MOL0     H33046  13.560   6.698   2.325 -0.0741  1.1451 -0.5084
  245MOL0     H33047  13.463   6.465   2.310  0.6362  1.2871 -0.8970
  245MOL0     H33048  13.477   6.453   2.482  0.3222 -0.1468  0.1251
  245MOL0     H33049  13.688   6.449   2.259  2.9767 -0.3998  1.0508
  245MOL0     H33050  13.744   6.492   2.414 -0.5976 -1.6469  2.4090
  245MOL0     H33051  13.579   6.233   2.404  2.4027 -2.1003  0.7079
  245MOL0     H33052  13.662   6.299   2.545  4.1685 -0.7182  0.7930
  245MOL0     H33053  13.777   6.110   2.408 -1.4144 -0.5203 -0.0187
  245MOL0     H33054  13.810   6.225   2.283  1.8214  2.6582  0.3667
  245MOL0     H33055  13.004   6.871   2.612 -2.0476  0.5937  0.8149
  245MOL0     H33056  12.786   7.004   2.627  2.1777  2.0460  1.8103
  245MOL0     H33057  12.319   7.085   2.560  0.8065  0.0793  0.7992
  245MOL0     H33058  12.112   7.189   2.490 -0.6871  1.2861  0.0587
  245MOL0     H33059  10.118   7.259   2.483 -0.6625 -0.9716 -0.1802
  245MOL0     H33060   9.866   7.248   2.479 -0.3938 -3.7847 -1.9210
  245MOL0     H33061   9.491   7.440   2.405 -1.6043  0.9265  2.1369
  245MOL0     H33062   9.253   7.440   2.456 -0.1200  0.6756 -0.9685
  245MOL0     H33063   9.045   7.356   2.559 -0.4437  0.4541 -0.7817
  245MOL0     H33064   9.117   7.194   2.571  1.1846 -1.4992 -1.3835
  245MOL0     H33065   8.863   7.194   2.623  0.6758  2.4144  0.4771
  245MOL0     H33066   8.904   7.092   2.483 -1.6755 -0.2711  0.8093
  245MOL0     H33067   8.847   7.266   2.325  1.7548  0.4380  0.9403
  245MOL0     H33068   8.811   7.380   2.445  0.6511  0.4105 -2.9060
  245MOL0     H33069   8.621   7.308   2.358  4.3567  3.6666  1.3847
  245MOL0     H33070   8.649   7.141   2.381  1.0766 -0.1400  0.2827
  245MOL0     H33071   8.509   7.290   2.762  0.4638 -3.2238  1.9769
  245MOL0     H33072   9.200   7.064   2.295 -2.3389  2.3525 -0.3099
  245MOL0     H33073   9.506   7.013   2.134  0.7819  2.3725  0.3468
  245MOL0     H33074   9.517   6.942   2.293 -1.8939  0.6262  1.1680
  245MOL0     H33075   9.362   6.931   2.216 -1.5216  1.5896 -2.8251
  246MOL0     O33076   4.530   4.198  10.776 -0.4056  0.1538 -0.6226
  246MOL0     C33077   4.458   4.098  10.782 -0.8848 -0.6362 -0.0862
  246MOL0     O33078   4.508   3.974  10.819  0.0496  0.0600  0.4809
  246MOL0     C33079   4.634   3.967  10.869  0.1079  0.3529 -0.0850
  246MOL0     C33080   4.717   3.881  10.809  0.1113 -0.2808  0.0496
  246MOL0     C33081   4.841   3.864  10.864 -0.5639 -0.1323  0.1279
  246MOL0     C33082   4.888   3.933  10.973  0.3408  0.0677  0.1169
  246MOL0     O33083   5.009   3.904  11.035  0.3065 -0.1403 -0.6417
  246MOL0     C33084   5.122   3.942  10.958  0.3128 -0.3511 -0.0881
  246MOL0     C33085   5.257   3.903  11.010 -0.4024 -0.4566  0.2036
  246MOL0     C33086   5.296   3.978  11.138 -0.7739 -0.1059 -0.0366
  246MOL0     C33087   5.432   3.938  11.180  0.3366 -0.6113 -0.3965
  246MOL0     C33088   5.466   4.002  11.318  0.3242 -0.5961  0.1172
  246MOL0     C33089   5.604   3.959  11.366 -0.7720  0.0113  0.6037
  246MOL0     C33090   5.710   4.063  11.310  0.1681 -0.1029  0.2754
  246MOL0     C33091   5.854   4.005  11.313  0.9547  0.2483  0.0849
  246MOL0     N33092   5.906   3.956  11.442 -0.0044  0.3573  0.0718
  246MOL0     C33093   5.895   4.017  11.562  0.6982 -0.3184 -0.6782
  246MOL0     C33094   5.933   3.925  11.662 -0.0556 -0.3295  0.1041
  246MOL0     C33095   5.921   3.920  11.818 -0.0465  0.0944  0.1744
  246MOL0     C33096   6.035   3.997  11.895  0.9597  0.4864  0.2959
  246MOL0     C33097   6.170   3.964  11.832 -0.6512 -0.1711 -0.1694
  246MOL0     C33098   6.274   4.026  11.917  0.2410  0.2187  0.1093
  246MOL0     O33099   6.388   4.036  11.828  0.2396 -0.2870  0.1276
  246MOL0     C33100   6.516   4.045  11.876  0.9277  0.0649  1.1829
  246MOL0     C33101   6.620   4.022  11.782  0.9979 -0.4032 -0.5047
  246MOL0     C33102   6.751   4.045  11.815 -0.5327 -0.4064 -0.9108
  246MOL0     C33103   6.778   4.105  11.944  0.0581 -0.4435  0.4210
  246MOL0     C33104   6.912   4.158  11.967 -0.4694 -0.1089  0.9764
  246MOL0     O33105   6.936   4.204  12.093 -0.7883  0.6906 -0.3978
  246MOL0     C33106   7.058   4.265  12.135  0.4282  0.1796 -0.2323
  246MOL0     C33107   7.064   4.397  12.157 -0.5142  0.0504  0.0525
  246MOL0     C33108   7.185   4.461  12.204 -0.1694  0.1388  0.5082
  246MOL0     C33109   7.297   4.385  12.224  0.1583  1.0585  0.2877
  246MOL0     O33110   7.409   4.440  12.278 -0.3638 -0.9558  0.1230
  246MOL0     C33111   7.444   4.571  12.223 -1.0062  0.7589  0.7209
  246MOL0     C33112   7.595   4.595  12.237  0.7554  0.1161  0.7385
  246MOL0     C33113   7.670   4.503  12.138  0.1457  0.5689  0.7382
  246MOL0     C33114   7.803   4.565  12.105  0.2950 -0.0206 -0.0310
  246MOL0     C33115   7.885   4.477  12.009  0.2610  0.7628 -0.6703
  246MOL0     C33116   8.030   4.524  11.997 -0.2520  0.8366  0.7404
  246MOL0     C33117   8.100   4.426  11.895 -0.0632 -0.3737 -0.0848
  246MOL0     C33118   8.235   4.496  11.878 -1.3631 -0.4818 -0.2443
  246MOL0    Cl33119   8.325   4.451  11.738  0.0993 -0.4955 -0.0581
  246MOL0     C33120   7.297   4.245  12.210 -0.2617  1.0659 -0.0606
  246MOL0     C33121   7.176   4.190  12.160  0.5549  0.6196  0.0547
  246MOL0     O33122   6.991   4.159  11.868  0.4116 -0.0448 -0.4277
  246MOL0     C33123   6.676   4.117  12.043 -0.0794  0.4017  0.3827
  246MOL0     C33124   6.543   4.084  12.010 -0.5915 -0.0426 -0.5666
  246MOL0     N33125   5.988   3.821  11.591 -0.2190 -1.0299 -0.7647
  246MOL0     N33126   5.977   3.841  11.470 -0.1318  0.2641 -0.1901
  246MOL0     C33127   4.804   4.025  11.037 -0.0572  0.5578  0.1397
  246MOL0     C33128   4.673   4.043  10.979  0.1343  0.0984  0.5868
  246MOL0     C33129   4.314   4.127  10.759 -0.8317  0.5552 -0.5699
  246MOL0     C33130   4.274   4.263  10.748 -0.1667  0.1874 -0.4835
  246MOL0     C33131   4.147   4.293  10.714  0.0070 -0.1741  0.2450
  246MOL0     C33132   4.046   4.202  10.711 -0.0041  1.4408  0.5693
  246MOL0     O33133   3.916   4.244  10.703  0.1100  0.3009 -0.0157
  246MOL0     C33134   3.795   4.164  10.703  0.2179 -0.9109  0.2596
  246MOL0     C33135   3.663   4.253  10.709 -0.3957 -0.0095 -0.0602
  246MOL0     C33136   3.659   4.368  10.598  0.0947  0.2894 -0.5332
  246MOL0     C33137   3.566   4.478  10.650  0.1402 -0.2585 -0.2696
  246MOL0     C33138   3.507   4.550  10.546 -0.2446  0.9516  0.4312
  246MOL0     C33139   3.457   4.597  10.451 -0.0587 -0.9737  0.6681
  246MOL0     C33140   4.083   4.066  10.712 -1.0667 -0.3294  0.6223
  246MOL0     C33141   4.216   4.025  10.737 -0.9150 -0.2514 -0.2391
  246MOL0     C33142   4.255   3.890  10.711 -0.0055  0.0303 -0.5000
  246MOL0     H33143   4.687   3.820  10.724 -1.4563 -0.2918  0.5746
  246MOL0     H33144   4.910   3.789  10.827  1.5100  2.6795 -2.1490
  246MOL0     H33145   5.104   3.900  10.859  0.4878 -0.0840 -0.2361
  246MOL0     H33146   5.121   4.051  10.945 -0.7970 -0.4831 -1.2249
  246MOL0     H33147   5.334   3.919  10.935 -1.6549  3.8853 -0.4651
  246MOL0     H33148   5.253   3.795  11.021  1.8051 -0.4388  1.6747
  246MOL0     H33149   5.226   3.959  11.219  0.7277 -3.2648  0.7027
  246MOL0     H33150   5.308   4.085  11.122  2.0689 -0.4955 -1.2664
  246MOL0     H33151   5.438   3.830  11.191  1.3559 -0.5067  0.1393
  246MOL0     H33152   5.506   3.957  11.102 -0.3827 -2.5895 -1.6542
  246MOL0     H33153   5.456   4.111  11.316  2.9366 -0.2969  0.1029
  246MOL0     H33154   5.378   3.961  11.369 -0.3409  0.0800 -0.4724
  246MOL0     H33155   5.612   3.971  11.475 -1.5527  3.1287  0.3968
  246MOL0     H33156   5.640   3.864  11.324  0.5995  0.3462  0.9479
  246MOL0     H33157   5.718   4.149  11.377 -0.8360  0.2790 -0.0844
  246MOL0     H33158   5.680   4.097  11.211 -2.1976 -2.5925  0.0361
  246MOL0     H33159   5.850   3.927  11.236  0.9476 -0.2953  0.6284
  246MOL0     H33160   5.918   4.092  11.290 -0.7257  1.0428 -1.9611
  246MOL0     H33161   5.832   4.105  11.576 -0.9724 -1.3396 -1.4397
  246MOL0     H33162   5.827   3.967  11.848 -0.7846 -1.0680 -0.2433
  246MOL0     H33163   5.913   3.816  11.851 -0.4543 -0.0465 -0.3493
  246MOL0     H33164   6.022   4.105  11.885  1.3708  0.3586 -2.1981
  246MOL0     H33165   6.032   3.971  12.001 -1.4768 -0.9161 -0.0369
  246MOL0     H33166   6.178   4.002  11.730  0.0886  1.2380  0.3818
  246MOL0     H33167   6.175   3.855  11.832 -1.8487 -0.2358 -0.6980
  246MOL0     H33168   6.297   3.953  11.996 -1.4793  1.3278  1.7219
  246MOL0     H33169   6.234   4.116  11.965  0.0366  0.3709 -0.3415
  246MOL0     H33170   6.591   3.989  11.683  1.0758 -0.1870 -0.6004
  246MOL0     H33171   6.827   4.037  11.738  1.1875  1.5173  0.4781
  246MOL0     H33172   6.968   4.447  12.161 -1.0657 -1.0099  0.4719
  246MOL0     H33173   7.183   4.562  12.244 -0.5767  0.5409 -0.4876
  246MOL0     H33174   7.421   4.563  12.116 -0.3041 -1.7741  0.7062
  246MOL0     H33175   7.401   4.658  12.274 -0.0283  1.0085  1.1406
  246MOL0     H33176   7.613   4.701  12.215 -0.1035  0.0206 -0.4845
  246MOL0     H33177   7.637   4.577  12.337  1.6911  1.3668  0.6067
  246MOL0     H33178   7.677   4.401  12.176  1.3764 -0.2791 -1.6030
  246MOL0     H33179   7.610   4.489  12.047 -2.4626  1.2734  2.2310
  246MOL0     H33180   7.864   4.580  12.195 -0.7308  1.6444  0.4280
  246MOL0     H33181   7.790   4.662  12.055 -0.8068  0.2822  0.7848
  246MOL0     H33182   7.834   4.466  11.913 -0.3878  0.2121 -0.2679
  246MOL0     H33183   7.873   4.373  12.041  0.9317  0.6574 -0.7379
  246MOL0     H33184   8.023   4.623  11.950 -0.6409  0.9972  1.1333
  246MOL0     H33185   8.082   4.527  12.093 -2.5220 -1.2933  2.1642
  246MOL0     H33186   8.052   4.418  11.797  3.4400  1.9144 -2.1854
  246MOL0     H33187   8.111   4.325  11.936 -1.6735  1.0101  4.3923
  246MOL0     H33188   8.220   4.604  11.869 -0.7729 -0.4451 -0.9049
  246MOL0     H33189   8.298   4.481  11.966  1.0658 -0.3341 -1.8617
  246MOL0     H33190   7.377   4.175  12.231 -0.1625  0.8333 -1.1359
  246MOL0     H33191   7.168   4.082  12.148 -1.0173  0.7381 -0.0969
  246MOL0     H33192   6.713   4.143  12.142  1.1337 -0.0607  0.0659
  246MOL0     H33193   6.468   4.086  12.089  0.3770 -0.3018  0.3805
  246MOL0     H33194   4.836   4.085  11.122 -0.5415  1.4774 -0.3111
  246MOL0     H33195   4.598   4.104  11.029 -2.0570  0.3122 -2.6718
  246MOL0     H33196   4.349   4.341  10.756  0.9810 -0.9476  0.0717
  246MOL0     H33197   4.116   4.396  10.695 -0.7822 -0.6948 -1.4512
  246MOL0     H33198   3.792   4.098  10.789  0.6460 -0.8338  0.3343
  246MOL0     H33199   3.776   4.117  10.606 -1.9736  2.5397 -1.1950
  246MOL0     H33200   3.661   4.313  10.800 -1.3703  1.6277 -1.1153
  246MOL0     H33201   3.571   4.193  10.719 -0.3922 -0.0144 -0.0558
  246MOL0     H33202   3.630   4.317  10.506 -0.2614 -2.4078  0.9697
  246MOL0     H33203   3.753   4.420  10.577 -1.7488  4.3530  0.1812
  246MOL0     H33204   3.475   4.438  10.697  1.1376 -0.6060  1.4645
  246MOL0     H33205   3.614   4.553  10.713 -4.4066  1.7231  1.3178
  246MOL0     H33206   3.421   4.643  10.362  0.1586  1.2665  1.6566
  246MOL0     H33207   3.996   4.005  10.689 -0.1039 -0.6627 -2.6562
  246MOL0     H33208   4.159   3.840  10.731  0.8995 -2.9992 -2.9120
  246MOL0     H33209   4.287   3.873  10.608 -2.9459  2.2073 -1.8823
  246MOL0     H33210   4.325   3.853  10.787 -2.4316 -0.2716  1.7356
  247MOL0     O33211   2.277   2.579   2.910  0.0615 -0.2329  0.7048
  247MOL0     C33212   2.263   2.491   2.996  0.0220  0.6200  0.7876
  247MOL0     O33213   2.324   2.485   3.115 -1.0016  0.7145 -0.1312
  247MOL0     C33214   2.420   2.568   3.164 -0.6877 -0.6491 -0.8994
  247MOL0     C33215   2.492   2.521   3.273  0.6188  0.6477 -0.5936
  247MOL0     C33216   2.590   2.598   3.331 -0.5261  1.1693 -0.3488
  247MOL0     C33217   2.612   2.729   3.294  0.3789 -0.8208 -0.4120
  247MOL0     O33218   2.723   2.794   3.345 -0.0049 -0.2904  0.1664
  247MOL0     C33219   2.710   2.931   3.383 -0.6472  0.5132 -0.3783
  247MOL0     C33220   2.835   2.956   3.469 -0.1821  0.0121 -0.4838
  247MOL0     C33221   2.966   2.940   3.395  0.3699  0.5063 -0.1508
  247MOL0     C33222   3.083   2.982   3.480 -0.4804 -0.5067  0.7838
  247MOL0     C33223   3.215   2.943   3.404 -0.0573 -0.8356 -0.0557
  247MOL0     C33224   3.323   2.996   3.490  0.1363 -0.3624  0.6997
  247MOL0     C33225   3.464   2.919   3.462 -0.2084  0.3122 -0.4406
  247MOL0     C33226   3.505   2.950   3.317 -0.2645 -0.4947 -0.6491
  247MOL0     N33227   3.633   2.887   3.279  1.0208  0.2431  0.3488
  247MOL0     C33228   3.753   2.941   3.318  1.7595 -0.3339 -0.2002
  247MOL0     C33229   3.843   2.855   3.289  0.7248  1.0871  1.0392
  247MOL0     C33230   3.994   2.869   3.290  0.7245 -0.9754 -0.1994
  247MOL0     C33231   4.029   2.851   3.438 -0.4042 -0.5973 -0.5175
  247MOL0     C33232   4.185   2.856   3.465 -0.2917 -0.1875  0.3261
  247MOL0     C33233   4.229   2.842   3.607 -0.0022  0.1649  0.4807
  247MOL0     O33234   4.312   2.950   3.649  0.4740  0.7185  0.2464
  247MOL0     C33235   4.443   2.948   3.636 -0.3512  0.4578  1.1777
  247MOL0     C33236   4.510   3.057   3.691 -0.2298 -0.3579 -0.2023
  247MOL0     C33237   4.649   3.074   3.679  0.0332 -0.9309 -0.1607
  247MOL0     C33238   4.722   2.968   3.617 -0.2510 -0.0240 -0.9034
  247MOL0     C33239   4.867   2.982   3.600 -0.3297 -0.7913 -0.3605
  247MOL0     O33240   4.938   2.911   3.501  0.2809  0.1266 -0.0501
  247MOL0     C33241   5.067   2.936   3.472 -0.2643  0.2216  0.0625
  247MOL0     C33242   5.100   2.964   3.336 -0.1952 -1.0345 -0.1273
  247MOL0     C33243   5.228   2.997   3.290  0.0497  0.4068  1.0311
  247MOL0     C33244   5.328   2.991   3.384 -0.4369  0.1932 -0.3353
  247MOL0     O33245   5.465   2.991   3.355  0.0851  0.6275  0.2724
  247MOL0     C33246   5.510   2.997   3.222 -0.1303  0.4570 -0.3039
  247MOL0     C33247   5.663   2.975   3.215  0.1190  0.6410  0.3960
  247MOL0     C33248   5.732   3.015   3.347 -1.8459 -0.4598 -0.4729
  247MOL0     C33249   5.885   3.056   3.323 -0.3334 -0.1653 -0.4518
  247MOL0     C33250   5.944   3.123   3.444 -0.8392 -0.6454 -0.7595
  247MOL0     C33251   5.993   3.036   3.556  1.1735 -0.0288  0.6181
  247MOL0     C33252   6.011   3.110   3.698 -0.3453 -0.4207 -0.3474
  247MOL0     C33253   6.037   3.000   3.792 -0.5286  0.3923 -0.4180
  247MOL0    Cl33254   6.177   2.902   3.754  0.4775  0.1588  0.2546
  247MOL0     C33255   5.300   2.975   3.515  0.0887 -0.3221  0.3367
  247MOL0     C33256   5.173   2.948   3.568 -0.9005  0.5251 -0.5464
  247MOL0     O33257   4.920   3.052   3.688  0.2616 -0.6301  0.4863
  247MOL0     C33258   4.659   2.863   3.560  0.3294 -0.3243 -0.5665
  247MOL0     C33259   4.519   2.847   3.569 -0.2397  0.1092  0.2810
  247MOL0     N33260   3.783   2.737   3.242 -0.5205 -0.4680  0.8348
  247MOL0     N33261   3.656   2.761   3.244  0.2574 -0.1206 -0.1092
  247MOL0     C33262   2.539   2.783   3.189 -0.3596  0.1240 -0.1168
  247MOL0     C33263   2.442   2.701   3.130  0.2343  0.4147 -0.0451
  247MOL0     C33264   2.163   2.390   2.955 -0.5394 -0.2480  0.3976
  247MOL0     C33265   2.133   2.367   2.818  0.0916  0.1938  0.2232
  247MOL0     C33266   2.043   2.270   2.778 -1.0182  0.1585  0.4496
  247MOL0     C33267   1.982   2.182   2.871 -0.3479 -0.6310  0.6604
  247MOL0     O33268   1.894   2.089   2.818  0.5297  0.3948 -0.0985
  247MOL0     C33269   1.880   1.963   2.894  0.4052 -0.1146  0.2186
  247MOL0     C33270   2.002   1.897   2.945  0.2583 -0.4900 -0.8231
  247MOL0     C33271   2.129   1.863   2.867  0.9000  0.0791  0.0832
  247MOL0     C33272   2.257   1.819   2.943 -0.0024  0.1508  0.2841
  247MOL0     C33273   2.236   1.692   3.016  0.0415  0.6184 -0.0374
  247MOL0     C33274   2.217   1.587   3.065  0.2687 -0.3070  0.5001
  247MOL0     C33275   2.002   2.207   3.006  1.3700 -0.7455  0.4391
  247MOL0     C33276   2.079   2.315   3.049 -0.1561 -0.2771 -1.0802
  247MOL0     C33277   2.100   2.325   3.195  0.0770 -0.2413 -0.0466
  247MOL0     H33278   2.476   2.424   3.318 -2.0044  0.7086 -1.2531
  247MOL0     H33279   2.654   2.545   3.401 -0.9853  0.9407 -0.0995
  247MOL0     H33280   2.713   2.993   3.293  0.2139 -0.9779 -1.4076
  247MOL0     H33281   2.623   2.944   3.447 -0.3624 -1.1154  0.3950
  247MOL0     H33282   2.847   2.885   3.552  0.5384 -1.0676 -1.4765
  247MOL0     H33283   2.825   3.054   3.516  1.4184 -0.7926  1.7242
  247MOL0     H33284   2.973   3.008   3.310  1.1759  0.6011 -0.0218
  247MOL0     H33285   2.977   2.836   3.363  2.8500 -0.5470  3.4970
  247MOL0     H33286   3.081   3.091   3.486  2.1840 -0.2618 -0.9139
  247MOL0     H33287   3.081   2.945   3.583  0.8492  1.1588  1.4555
  247MOL0     H33288   3.215   2.834   3.404  1.0775 -0.9094 -2.5688
  247MOL0     H33289   3.202   2.982   3.302  4.0789 -0.5653 -0.6409
  247MOL0     H33290   3.333   3.104   3.473  2.8360 -0.6863 -0.3222
  247MOL0     H33291   3.295   2.981   3.595 -0.8394  2.7228  0.9732
  247MOL0     H33292   3.459   2.810   3.472  5.9435 -0.1261  3.1087
  247MOL0     H33293   3.544   2.952   3.529 -0.4807 -2.4451  1.4005
  247MOL0     H33294   3.426   2.908   3.253  0.4488 -1.3810 -0.9576
  247MOL0     H33295   3.509   3.057   3.294  1.5591 -0.8065 -2.0387
  247MOL0     H33296   3.764   3.046   3.344 -1.8327  0.0342  0.3331
  247MOL0     H33297   4.024   2.792   3.219 -3.1721  0.5231 -3.8773
  247MOL0     H33298   4.034   2.967   3.261  1.1864 -0.7644  1.0750
  247MOL0     H33299   3.989   2.933   3.498 -0.7245 -1.8691  1.0661
  247MOL0     H33300   3.994   2.754   3.473  1.4386 -1.2215 -0.2708
  247MOL0     H33301   4.224   2.951   3.427  0.9644 -1.0361 -0.5921
  247MOL0     H33302   4.238   2.780   3.408  2.0725  2.0537 -0.6942
  247MOL0     H33303   4.283   2.746   3.607  1.5959  1.0327  1.1395
  247MOL0     H33304   4.148   2.833   3.680  0.3764  0.0297  0.8905
  247MOL0     H33305   4.457   3.126   3.757 -0.6335 -0.6706 -0.1952
  247MOL0     H33306   4.697   3.161   3.724  0.5251 -2.6706  2.9641
  247MOL0     H33307   5.015   2.968   3.268 -1.8280 -1.6378  1.8008
  247MOL0     H33308   5.229   3.009   3.182  0.8374  2.6091  1.2359
  247MOL0     H33309   5.464   2.914   3.167 -2.7995  0.9053  1.0484
  247MOL0     H33310   5.483   3.088   3.169 -2.3205 -0.3292 -0.6362
  247MOL0     H33311   5.687   2.869   3.201  1.2840  1.0324 -0.7739
  247MOL0     H33312   5.709   3.023   3.129 -0.4843  0.7545  0.1321
  247MOL0     H33313   5.686   3.102   3.395 -2.4537 -0.6393 -0.7213
  247MOL0     H33314   5.733   2.930   3.416  0.6405  2.2016  3.1827
  247MOL0     H33315   5.892   3.117   3.232  0.8114  0.3708 -0.0152
  247MOL0     H33316   5.933   2.961   3.297  1.0623  0.9470 -2.2279
  247MOL0     H33317   5.868   3.189   3.488  0.3510  0.6908 -0.6155
  247MOL0     H33318   6.020   3.193   3.407 -1.1171  0.8501  1.3009
  247MOL0     H33319   5.923   2.954   3.576  1.2551  0.3812  2.8754
  247MOL0     H33320   6.085   2.987   3.521 -1.3317 -3.6172 -1.6344
  247MOL0     H33321   5.920   3.161   3.732  0.2970 -0.4455  1.4691
  247MOL0     H33322   6.096   3.179   3.693  0.2280 -1.1340 -0.6786
  247MOL0     H33323   6.054   3.045   3.890  1.4807 -3.8052  1.4516
  247MOL0     H33324   5.952   2.931   3.806  1.2442 -1.3483  3.2400
  247MOL0     H33325   5.373   3.010   3.587 -2.0445  0.9571  1.9698
  247MOL0     H33326   5.164   2.928   3.674 -1.7166  3.2034 -0.0397
  247MOL0     H33327   4.719   2.787   3.513 -0.4186 -1.0973 -0.2961
  247MOL0     H33328   4.476   2.753   3.536  1.7859 -0.5784 -0.5277
  247MOL0     H33329   2.544   2.888   3.162 -1.5128 -0.3552 -2.4056
  247MOL0     H33330   2.382   2.741   3.049 -0.1964  0.3763  0.2503
  247MOL0     H33331   2.182   2.434   2.749  0.5902  0.1661  0.5448
  247MOL0     H33332   2.012   2.267   2.674  1.1598  0.2814 -0.2549
  247MOL0     H33333   1.838   1.896   2.818  0.6998  3.2551 -3.2246
  247MOL0     H33334   1.804   1.975   2.971 -1.5303 -2.0243 -1.2696
  247MOL0     H33335   1.965   1.807   2.996  0.4024  0.6399  1.4062
  247MOL0     H33336   2.036   1.955   3.031 -0.9761 -2.8554  1.4437
  247MOL0     H33337   2.154   1.940   2.793  1.2629 -0.2855 -0.1757
  247MOL0     H33338   2.110   1.776   2.803 -0.4500  0.1683  0.3239
  247MOL0     H33339   2.333   1.817   2.864  0.4509  5.1101  0.2443
  247MOL0     H33340   2.279   1.906   3.005 -1.3071  2.1411 -1.8616
  247MOL0     H33341   2.187   1.491   3.102 -0.6579  0.0703  0.7433
  247MOL0     H33342   1.948   2.142   3.075 -1.3103 -1.1934 -1.9079
  247MOL0     H33343   2.026   2.276   3.258  0.6628  1.7459  2.3789
  247MOL0     H33344   2.194   2.283   3.234  1.1845  0.9054 -1.3770
  247MOL0     H33345   2.100   2.429   3.229  2.2566 -0.3552  0.4706
  248MOL0     O33346   8.568   8.715   9.109 -0.2139 -0.2213 -0.0479
  248MOL0     C33347   8.498   8.761   9.198  0.3705  1.4593  0.1491
  248MOL0     O33348   8.538   8.820   9.308 -0.2608 -0.6616 -0.2291
  248MOL0     C33349   8.668   8.800   9.350 -0.1364  0.3121  0.6762
  248MOL0     C33350   8.740   8.912   9.374  0.3922  0.9335  0.4529
  248MOL0     C33351   8.876   8.900   9.409 -0.8476  0.9745  0.1253
  248MOL0     C33352   8.931   8.770   9.431  0.6364 -0.0594 -1.1229
  248MOL0     O33353   9.059   8.774   9.474 -0.0735  0.2772 -0.1489
  248MOL0     C33354   9.079   8.731   9.612 -0.5938 -0.5720  0.3922
  248MOL0     C33355   9.100   8.855   9.701 -0.1055  0.1481 -0.4745
  248MOL0     C33356   9.119   8.808   9.849 -0.1941  0.3839  0.5475
  248MOL0     C33357   9.185   8.927   9.919  1.0939 -0.0338  0.4279
  248MOL0     C33358   9.210   8.886  10.060  0.8880  0.8189 -0.0783
  248MOL0     C33359   9.293   8.993  10.133 -0.3002 -0.2518 -0.1543
  248MOL0     C33360   9.285   8.970  10.288 -0.9151 -0.2800 -0.5120
  248MOL0     C33361   9.343   8.836  10.354 -0.2976  0.0363  0.3927
  248MOL0     N33362   9.486   8.823  10.333 -0.3228 -0.1640  0.3202
  248MOL0     C33363   9.552   8.718  10.262  0.1291 -0.2399  0.2136
  248MOL0     C33364   9.685   8.753  10.251 -1.1190  0.3289  0.5120
  248MOL0     C33365   9.784   8.659  10.183  0.0038  0.1633  0.5527
  248MOL0     C33366   9.923   8.697  10.238 -0.0205 -0.3201 -0.2406
  248MOL0     C33367  10.040   8.616  10.172  0.6496 -0.4612 -0.2164
  248MOL0     C33368  10.180   8.682  10.171 -0.3413 -0.5399 -0.0194
  248MOL0     O33369  10.180   8.768  10.291 -0.2348 -0.4248  0.2576
  248MOL0     C33370  10.289   8.839  10.320 -0.8141 -0.5511 -0.6648
  248MOL0     C33371  10.403   8.834  10.242  0.1705  0.0080 -0.2079
  248MOL0     C33372  10.524   8.889  10.281  0.6444 -1.0784 -0.2489
  248MOL0     C33373  10.534   8.954  10.402  0.0154  0.9869 -0.9267
  248MOL0     C33374  10.660   9.007  10.451 -1.2202 -0.4617 -0.5403
  248MOL0     O33375  10.772   8.936  10.414  0.0660  0.0683 -0.1684
  248MOL0     C33376  10.904   8.977  10.440  0.0838  0.0628 -0.3551
  248MOL0     C33377  10.947   9.105  10.448  0.1902 -0.5870 -0.1920
  248MOL0     C33378  11.084   9.128  10.481 -0.5359 -0.5970 -0.3817
  248MOL0     C33379  11.170   9.019  10.505  0.0360 -0.7989  0.1851
  248MOL0     O33380  11.292   9.064  10.542  0.4912  0.3622  0.6320
  248MOL0     C33381  11.390   8.960  10.545  0.7688 -0.0930 -0.8125
  248MOL0     C33382  11.525   9.010  10.595 -0.2111  0.0360 -0.2816
  248MOL0     C33383  11.634   8.901  10.590 -0.0561  0.4534 -0.3454
  248MOL0     C33384  11.617   8.788  10.688 -0.0805  0.7259  0.0756
  248MOL0     C33385  11.736   8.695  10.672  0.4899 -0.3071 -0.4213
  248MOL0     C33386  11.778   8.628  10.802  0.3564  0.4864 -0.3125
  248MOL0     C33387  11.672   8.539  10.855 -0.1053  0.1113  0.1701
  248MOL0     C33388  11.666   8.412  10.773  0.5712 -0.3025  0.2602
  248MOL0    Cl33389  11.499   8.339  10.761 -0.0893 -0.1395  0.1269
  248MOL0     C33390  11.121   8.894  10.500  0.7750  0.1676 -0.5283
  248MOL0     C33391  10.988   8.879  10.476 -0.1575  0.4780  0.1070
  248MOL0     O33392  10.655   9.112  10.514 -0.5601 -0.1142 -0.1694
  248MOL0     C33393  10.415   8.965  10.481  0.0573  0.6095 -0.7786
  248MOL0     C33394  10.292   8.904  10.445 -0.1161  0.1716  0.2555
  248MOL0     N33395   9.698   8.878  10.302  0.3807 -1.0382 -0.6532
  248MOL0     N33396   9.580   8.910  10.358 -0.1035  0.0067 -0.4769
  248MOL0     C33397   8.851   8.656   9.415  0.6870  0.0451  1.1628
  248MOL0     C33398   8.720   8.671   9.362  0.1713 -0.6280 -0.7910
  248MOL0     C33399   8.353   8.739   9.187 -0.3190 -0.3775  1.5170
  248MOL0     C33400   8.289   8.778   9.067  0.3667  0.1816  0.4366
  248MOL0     C33401   8.157   8.763   9.046  0.2948 -0.0760 -0.4471
  248MOL0     C33402   8.075   8.709   9.141  1.0029 -0.1365  0.2447
  248MOL0     O33403   7.941   8.686   9.112 -0.2868  0.0778  0.1588
  248MOL0     C33404   7.849   8.649   9.213  0.2923 -0.4081 -0.4021
  248MOL0     C33405   7.812   8.762   9.315  0.6301  0.6878 -0.2543
  248MOL0     C33406   7.781   8.902   9.257 -0.1129  0.0021 -0.5192
  248MOL0     C33407   7.675   8.904   9.143  0.2189  0.4268  0.1494
  248MOL0     C33408   7.543   8.856   9.177  0.4663 -0.9234 -0.0857
  248MOL0     C33409   7.433   8.816   9.196  0.0872 -0.0573  0.6280
  248MOL0     C33410   8.140   8.664   9.256  0.4419  0.3113 -1.2567
  248MOL0     C33411   8.273   8.681   9.281  0.6513 -0.0249 -1.0409
  248MOL0     C33412   8.330   8.627   9.405 -1.3377 -0.1755  0.6698
  248MOL0     H33413   8.688   9.005   9.354  0.7093  0.7519 -1.4015
  248MOL0     H33414   8.944   8.983   9.416  0.9701 -0.5313  1.2475
  248MOL0     H33415   9.005   8.661   9.652 -0.0150 -0.3540  1.9114
  248MOL0     H33416   9.170   8.671   9.621 -0.3613 -0.7273 -2.1678
  248MOL0     H33417   9.008   8.913   9.715  0.6268  0.4405  6.5158
  248MOL0     H33418   9.183   8.915   9.663 -0.2063 -1.2687 -3.2261
  248MOL0     H33419   9.190   8.725   9.845 -1.3849 -0.7313  1.5681
  248MOL0     H33420   9.030   8.769   9.899 -1.4448  1.9784 -0.3306
  248MOL0     H33421   9.274   8.965   9.868  3.3080 -4.2524  0.6693
  248MOL0     H33422   9.114   9.009   9.918  3.3317  2.0189  0.1477
  248MOL0     H33423   9.119   8.871  10.119 -0.8011 -2.2420 -3.1389
  248MOL0     H33424   9.253   8.787  10.079 -0.0507  0.5188  0.5474
  248MOL0     H33425   9.393   8.976  10.093 -0.4259 -0.9866 -0.1803
  248MOL0     H33426   9.258   9.092  10.101  1.3704  0.4963  0.2209
  248MOL0     H33427   9.190   8.995  10.334 -2.2887 -0.9829 -2.7825
  248MOL0     H33428   9.352   9.049  10.322 -2.2495  0.0224  1.5757
  248MOL0     H33429   9.332   8.853  10.462 -0.8189  0.9654  0.2026
  248MOL0     H33430   9.294   8.743  10.323  1.2633 -0.8423  0.4541
  248MOL0     H33431   9.493   8.639  10.215 -1.2791  1.2727 -0.6545
  248MOL0     H33432   9.758   8.555  10.205 -0.0191 -0.3626 -1.7401
  248MOL0     H33433   9.772   8.667  10.075 -1.0710  0.2154  0.6653
  248MOL0     H33434   9.940   8.798  10.199 -1.9050  0.6353  1.2647
  248MOL0     H33435   9.921   8.706  10.347  0.9231  1.0017 -0.3050
  248MOL0     H33436  10.006   8.596  10.070  1.0655 -0.9585 -0.2622
  248MOL0     H33437  10.059   8.514  10.207  2.8397 -1.1694 -3.0750
  248MOL0     H33438  10.196   8.731  10.075 -0.1708 -0.3793  0.0894
  248MOL0     H33439  10.252   8.601  10.184  0.0682 -0.0249  1.1497
  248MOL0     H33440  10.410   8.789  10.144 -1.7978  0.0060 -0.3802
  248MOL0     H33441  10.610   8.886  10.216  0.7956  0.6270 -0.1571
  248MOL0     H33442  10.883   9.190  10.430 -0.5528  0.0853  4.3932
  248MOL0     H33443  11.123   9.227  10.503 -2.5233 -0.0381  0.8331
  248MOL0     H33444  11.357   8.880  10.612  0.5633  0.0345 -0.7616
  248MOL0     H33445  11.402   8.904  10.451  1.3875  0.2233 -0.9304
  248MOL0     H33446  11.559   9.096  10.538  0.1536  0.1842  0.1550
  248MOL0     H33447  11.517   9.037  10.701  3.9474  0.5577  0.0676
  248MOL0     H33448  11.637   8.867  10.486 -1.5628 -0.6366 -0.0661
  248MOL0     H33449  11.727   8.945  10.626  1.8208 -3.2381 -0.1896
  248MOL0     H33450  11.520   8.740  10.669  0.0692  0.3602  0.2498
  248MOL0     H33451  11.610   8.823  10.791 -0.9316  0.3419  0.1574
  248MOL0     H33452  11.827   8.750  10.648 -0.6149  1.2434 -1.2516
  248MOL0     H33453  11.726   8.630  10.585 -0.4855  2.0694 -2.1819
  248MOL0     H33454  11.862   8.562  10.780  0.2232  1.0132 -2.6488
  248MOL0     H33455  11.818   8.700  10.874 -1.5952 -0.8229  2.2357
  248MOL0     H33456  11.579   8.596  10.850 -2.4177 -3.2971  0.6508
  248MOL0     H33457  11.684   8.510  10.960  2.9800 -1.1111 -0.4077
  248MOL0     H33458  11.704   8.436  10.673 -0.7981 -0.1524 -0.2340
  248MOL0     H33459  11.736   8.341  10.819  1.4615 -0.9390 -1.9632
  248MOL0     H33460  11.183   8.805  10.506  0.8497  0.0027 -2.8190
  248MOL0     H33461  10.952   8.778  10.458 -1.7911  0.6596  1.9357
  248MOL0     H33462  10.417   9.020  10.575 -0.9754  0.6625 -0.7786
  248MOL0     H33463  10.200   8.909  10.503 -1.0210 -0.7028 -1.0478
  248MOL0     H33464   8.879   8.552   9.431  0.8384 -0.0400  0.3934
  248MOL0     H33465   8.654   8.589   9.337 -2.1808  0.9901 -0.2809
  248MOL0     H33466   8.337   8.835   8.988  1.2520 -0.1347  0.7302
  248MOL0     H33467   8.105   8.793   8.956  0.3986  1.1703 -0.1174
  248MOL0     H33468   7.884   8.562   9.270 -0.3614  1.4234  3.1182
  248MOL0     H33469   7.757   8.614   9.165  0.5016 -0.0361 -1.0868
  248MOL0     H33470   7.889   8.762   9.393 -0.1371  2.2320  0.5493
  248MOL0     H33471   7.718   8.735   9.364  0.5486 -0.4043 -0.9812
  248MOL0     H33472   7.870   8.951   9.215 -0.7647  0.9020 -0.8844
  248MOL0     H33473   7.745   8.967   9.337  0.5389 -1.5134  1.0911
  248MOL0     H33474   7.676   9.004   9.100  0.9361  0.4975  0.3175
  248MOL0     H33475   7.724   8.843   9.066  1.6795  1.2143  0.4016
  248MOL0     H33476   7.331   8.803   9.229  0.5599 -2.8537  1.2936
  248MOL0     H33477   8.076   8.605   9.322 -0.0658  1.4580 -0.6933
  248MOL0     H33478   8.392   8.537   9.393  1.6434  1.3359  3.1052
  248MOL0     H33479   8.397   8.690   9.465  2.2254 -2.1602 -0.8816
  248MOL0     H33480   8.253   8.592   9.474 -1.1333  0.4586  1.2358
  249MOL0     O33481   4.065   8.834   1.094  0.2493  0.5118 -0.2729
  249MOL0     C33482   4.065   8.816   1.219  0.5010  0.3997  0.3454
  249MOL0     O33483   3.951   8.777   1.302 -0.2509  0.9592 -0.1751
  249MOL0     C33484   3.837   8.717   1.252 -0.4596 -0.5194 -0.0322
  249MOL0     C33485   3.723   8.716   1.336  0.0707  1.0355 -0.4076
  249MOL0     C33486   3.601   8.667   1.286 -0.2021 -0.2606  0.8447
  249MOL0     C33487   3.590   8.633   1.152 -0.0147 -0.0214  0.8900
  249MOL0     O33488   3.471   8.586   1.101 -0.2397 -0.0754 -0.1376
  249MOL0     C33489   3.364   8.530   1.171 -0.5428  0.7006  0.0796
  249MOL0     C33490   3.412   8.401   1.241  0.2973 -0.2376  0.1463
  249MOL0     C33491   3.296   8.323   1.312 -0.6600  0.0787  0.0404
  249MOL0     C33492   3.231   8.228   1.211  0.4248  0.4524 -0.0419
  249MOL0     C33493   3.301   8.102   1.166 -0.8351  0.8763  0.8189
  249MOL0     C33494   3.393   8.049   1.273  0.3504  0.5126  0.0615
  249MOL0     C33495   3.478   7.931   1.217  0.0403  1.1421  0.2475
  249MOL0     C33496   3.563   7.872   1.332 -0.3476 -1.4296  0.6059
  249MOL0     N33497   3.695   7.934   1.331  0.7268  0.1970 -0.5775
  249MOL0     C33498   3.737   8.053   1.276  0.3520 -0.4903 -0.0398
  249MOL0     C33499   3.870   8.035   1.281 -0.7749  0.6329  0.8166
  249MOL0     C33500   3.965   8.140   1.230  0.6320 -0.2889 -0.3796
  249MOL0     C33501   3.941   8.288   1.253  0.3294  0.8058  1.0519
  249MOL0     C33502   3.931   8.329   1.403  0.3807 -0.0043 -0.8694
  249MOL0     C33503   4.056   8.299   1.484  0.5292  0.2368 -0.9263
  249MOL0     O33504   4.172   8.352   1.417  0.2395 -0.5020  0.8538
  249MOL0     C33505   4.291   8.358   1.490 -0.4792  0.1640 -0.1685
  249MOL0     C33506   4.314   8.303   1.615  0.4327  0.0934  0.0601
  249MOL0     C33507   4.437   8.303   1.673 -0.3731 -0.7773 -0.5709
  249MOL0     C33508   4.552   8.358   1.609 -0.2830 -0.9379 -0.5364
  249MOL0     C33509   4.691   8.346   1.661 -0.3240  0.0479  0.9542
  249MOL0     O33510   4.789   8.404   1.587  0.0318  0.2428 -0.1371
  249MOL0     C33511   4.916   8.397   1.641  0.5255  0.6621  0.6105
  249MOL0     C33512   4.979   8.505   1.694  0.3354 -0.2906  0.6750
  249MOL0     C33513   5.114   8.509   1.744  0.5681  0.3249  0.8052
  249MOL0     C33514   5.181   8.386   1.756 -0.2263 -0.0419  0.6346
  249MOL0     O33515   5.312   8.359   1.806  0.0921 -0.1074 -0.4245
  249MOL0     C33516   5.359   8.446   1.899 -0.3529  0.2601 -0.3050
  249MOL0     C33517   5.471   8.389   1.996  0.0162 -0.5542  0.4461
  249MOL0     C33518   5.610   8.366   1.931  0.1255 -0.2883  1.0909
  249MOL0     C33519   5.673   8.476   1.849 -0.5725  0.2046  0.1449
  249MOL0     C33520   5.749   8.583   1.931  0.2288  1.1468  1.0351
  249MOL0     C33521   5.664   8.654   2.032  0.2124  0.4051  0.0126
  249MOL0     C33522   5.696   8.804   2.045  0.0209 -0.4159  0.1802
  249MOL0     C33523   5.615   8.886   2.159  0.5182  0.1388  0.3407
  249MOL0    Cl33524   5.440   8.895   2.112 -0.0280 -0.5413  0.2358
  249MOL0     C33525   5.116   8.275   1.695  0.9171 -0.2405  0.0625
  249MOL0     C33526   4.992   8.277   1.637  0.7910  0.0420  0.3738
  249MOL0     O33527   4.697   8.307   1.776  0.1235 -0.0515 -0.6761
  249MOL0     C33528   4.524   8.433   1.490  0.5774 -0.2607 -0.0897
  249MOL0     C33529   4.397   8.437   1.438  0.4441 -0.0561  0.4090
  249MOL0     N33530   3.904   7.917   1.340 -0.6962  0.3637  0.8921
  249MOL0     N33531   3.799   7.856   1.370  0.0629  0.4188 -0.1580
  249MOL0     C33532   3.700   8.629   1.068 -0.0849 -0.3163  0.9144
  249MOL0     C33533   3.822   8.671   1.116  1.0186 -0.1134 -0.2896
  249MOL0     C33534   4.188   8.846   1.297  0.1356  0.2044 -2.2884
  249MOL0     C33535   4.259   8.741   1.368 -0.4961 -0.0687 -0.3242
  249MOL0     C33536   4.387   8.750   1.427  1.0394  0.1619  0.2530
  249MOL0     C33537   4.449   8.878   1.425 -0.1498  0.3090 -0.3449
  249MOL0     O33538   4.564   8.887   1.502  0.2783  0.4597 -0.3296
  249MOL0     C33539   4.676   8.894   1.422 -0.8534 -0.4744 -0.0011
  249MOL0     C33540   4.790   8.895   1.519 -0.3406  0.0997 -0.2518
  249MOL0     C33541   4.915   8.914   1.443  0.4246  0.0811  0.0023
  249MOL0     C33542   5.040   8.891   1.535  0.0629  0.0411  0.1200
  249MOL0     C33543   5.053   8.951   1.668  0.1639 -0.7081 -0.2115
  249MOL0     C33544   5.058   8.998   1.785 -0.9151  0.4687  0.8565
  249MOL0     C33545   4.393   8.982   1.349  0.3434 -0.3330 -0.5529
  249MOL0     C33546   4.266   8.968   1.284  0.4347 -0.2941  0.1311
  249MOL0     C33547   4.200   9.090   1.227 -0.6118 -0.6154  0.2049
  249MOL0     H33548   3.731   8.757   1.436 -1.8902  0.4972  0.0075
  249MOL0     H33549   3.511   8.659   1.345  0.9024  0.0112  2.6225
  249MOL0     H33550   3.325   8.598   1.247  1.9674  1.6694  0.5802
  249MOL0     H33551   3.280   8.513   1.102  0.4244 -0.8081 -0.7929
  249MOL0     H33552   3.486   8.434   1.315 -0.1484 -1.4885  1.1936
  249MOL0     H33553   3.457   8.337   1.164 -1.0237 -0.0703 -0.8061
  249MOL0     H33554   3.231   8.404   1.347 -0.2262  0.3372  0.2523
  249MOL0     H33555   3.331   8.269   1.400  1.3191  0.6357 -0.3592
  249MOL0     H33556   3.134   8.200   1.254  0.2695  0.8666 -0.1206
  249MOL0     H33557   3.196   8.285   1.125  2.2003  2.2842  0.3653
  249MOL0     H33558   3.232   8.019   1.149  0.5329 -0.6122  2.1618
  249MOL0     H33559   3.354   8.122   1.072 -3.5046 -0.1291 -1.0032
  249MOL0     H33560   3.468   8.123   1.303  2.1373 -0.8334 -0.8751
  249MOL0     H33561   3.335   8.025   1.362  2.0324 -0.0577  1.0398
  249MOL0     H33562   3.526   7.940   1.120 -4.2911  0.5254 -2.2278
  249MOL0     H33563   3.409   7.848   1.199  2.7688 -0.7522 -2.4189
  249MOL0     H33564   3.525   7.893   1.432  3.3542 -2.3881  2.3743
  249MOL0     H33565   3.568   7.762   1.330  0.8389 -1.3746 -0.3344
  249MOL0     H33566   3.684   8.138   1.235  1.8937  0.4235 -0.2200
  249MOL0     H33567   4.067   8.116   1.263  1.9338  1.5968 -2.6685
  249MOL0     H33568   3.965   8.114   1.124  0.6421 -4.5439  0.4898
  249MOL0     H33569   4.021   8.338   1.197  0.2877 -1.3891 -1.1637
  249MOL0     H33570   3.847   8.301   1.199 -0.4138 -2.0539  1.4588
  249MOL0     H33571   3.853   8.282   1.463  1.0096  1.2062  0.9943
  249MOL0     H33572   3.913   8.437   1.402  3.5805  0.6447  0.1753
  249MOL0     H33573   4.081   8.193   1.496  1.4997  0.6697  1.2882
  249MOL0     H33574   4.041   8.341   1.583 -0.1114 -0.4060 -0.7445
  249MOL0     H33575   4.236   8.242   1.659  2.1223 -2.3433 -0.1545
  249MOL0     H33576   4.444   8.247   1.766  0.3630  0.1357 -0.0570
  249MOL0     H33577   4.928   8.600   1.707 -0.8599 -0.8252  0.0578
  249MOL0     H33578   5.153   8.600   1.790  1.1160  1.1693 -1.2179
  249MOL0     H33579   5.396   8.533   1.844 -3.0878 -0.8904 -4.3843
  249MOL0     H33580   5.280   8.479   1.968  0.8535  1.7761  0.4041
  249MOL0     H33581   5.488   8.456   2.082  0.2785  0.8452 -0.6611
  249MOL0     H33582   5.435   8.292   2.032  1.9143 -1.7128 -0.6056
  249MOL0     H33583   5.691   8.329   1.994 -0.7960 -0.5986  2.1194
  249MOL0     H33584   5.585   8.279   1.870  1.6801 -0.3344  0.4825
  249MOL0     H33585   5.598   8.532   1.791 -0.6563 -1.1164 -1.0726
  249MOL0     H33586   5.745   8.432   1.779 -1.0862  0.8104 -0.7879
  249MOL0     H33587   5.781   8.655   1.855 -1.2309 -1.8057 -2.7027
  249MOL0     H33588   5.835   8.535   1.979 -1.2454 -2.2836  0.5465
  249MOL0     H33589   5.563   8.658   1.991  0.5310  2.4903 -0.6913
  249MOL0     H33590   5.664   8.601   2.128 -0.2927 -0.0884 -0.2556
  249MOL0     H33591   5.673   8.844   1.946  2.0055 -1.3838 -0.7469
  249MOL0     H33592   5.805   8.805   2.052  0.1689 -3.0692 -0.5508
  249MOL0     H33593   5.614   8.824   2.249  0.0988 -1.4327 -0.6853
  249MOL0     H33594   5.663   8.980   2.186  1.6991 -0.8438  1.8541
  249MOL0     H33595   5.150   8.172   1.702 -2.1837 -1.3757  0.0033
  249MOL0     H33596   4.947   8.188   1.593  0.7473 -0.8997  2.2227
  249MOL0     H33597   4.596   8.492   1.435 -1.4577  3.6784  1.0986
  249MOL0     H33598   4.384   8.483   1.341  0.8270 -0.8362 -0.0249
  249MOL0     H33599   3.694   8.593   0.965  1.2438 -2.5355  1.5506
  249MOL0     H33600   3.910   8.667   1.052  1.4354 -0.1385  0.2772
  249MOL0     H33601   4.208   8.649   1.393  1.3499 -1.2943 -0.8853
  249MOL0     H33602   4.416   8.675   1.500  0.1138  0.2461  0.7180
  249MOL0     H33603   4.681   8.984   1.360 -0.8149  1.2003  2.3110
  249MOL0     H33604   4.689   8.806   1.359 -0.6480 -0.7921  0.4885
  249MOL0     H33605   4.796   8.803   1.577  0.8125 -1.3668 -2.5358
  249MOL0     H33606   4.772   8.975   1.592 -0.9602 -1.4602  1.3671
  249MOL0     H33607   4.913   9.007   1.385  1.0124 -0.2058 -0.4867
  249MOL0     H33608   4.921   8.828   1.376 -0.1613  0.0517 -0.0138
  249MOL0     H33609   5.058   8.783   1.531  0.0566 -0.0155 -4.8715
  249MOL0     H33610   5.126   8.932   1.482  0.0239  0.3655  0.3052
  249MOL0     H33611   5.078   9.038   1.882  0.4060  1.6049  0.1630
  249MOL0     H33612   4.438   9.080   1.362  0.6238 -0.7081  1.8172
  249MOL0     H33613   4.091   9.098   1.233 -0.7245  0.3725 -2.1677
  249MOL0     H33614   4.234   9.165   1.299 -0.1044 -0.6893  0.0485
  249MOL0     H33615   4.240   9.113   1.128  1.3245  2.1021  1.4920
  250MOL0     O33616   6.558  10.233   0.476 -0.7041  0.1526 -0.2736
  250MOL0     C33617   6.646  10.308   0.510  0.3413  1.3692 -0.9093
  250MOL0     O33618   6.646  10.447   0.497 -0.3658 -0.3940 -0.6941
  250MOL0     C33619   6.541  10.513   0.437 -0.8191 -0.0394 -0.4331
  250MOL0     C33620   6.410  10.468   0.417 -0.7661 -0.3110 -0.2074
  250MOL0     C33621   6.308  10.537   0.360  0.1849  0.7535  0.4051
  250MOL0     C33622   6.337  10.675   0.332  0.4148  0.5399  0.1855
  250MOL0     O33623   6.242  10.764   0.285 -0.3200  0.7574  0.0657
  250MOL0     C33624   6.110  10.712   0.260  0.5248 -0.7377  0.6385
  250MOL0     C33625   6.029  10.840   0.221 -0.7929  0.3972  1.0958
  250MOL0     C33626   6.089  10.914   0.104  0.2311 -0.9982  0.1706
  250MOL0     C33627   6.019  11.047   0.073  0.4186 -0.3351  0.0027
  250MOL0     C33628   6.035  11.104  -0.067 -0.1800  0.2870 -0.1094
  250MOL0     C33629   6.183  11.105  -0.120 -0.7582 -0.4775 -0.4271
  250MOL0     C33630   6.274  11.173  -0.022 -0.1376  0.3189 -0.8277
  250MOL0     C33631   6.263  11.331  -0.035  0.1019 -0.4548  0.6535
  250MOL0     N33632   6.368  11.396   0.049 -0.5219  0.2634  0.2405
  250MOL0     C33633   6.503  11.397   0.026  0.6822 -0.7961 -0.2821
  250MOL0     C33634   6.549  11.444   0.144  0.4784  0.2363 -0.0324
  250MOL0     C33635   6.694  11.446   0.166 -0.6038  0.5174 -0.0656
  250MOL0     C33636   6.768  11.544   0.070 -0.3766  0.0201  0.5183
  250MOL0     C33637   6.759  11.699   0.100  0.3984 -0.1481  0.2780
  250MOL0     C33638   6.783  11.751   0.243  0.1491 -1.0137  0.1808
  250MOL0     O33639   6.879  11.673   0.315  0.4708  0.3007  0.1540
  250MOL0     C33640   7.003  11.684   0.284 -1.8912 -0.3775 -0.4614
  250MOL0     C33641   7.059  11.771   0.189  0.7558  0.7170  0.2065
  250MOL0     C33642   7.195  11.755   0.143 -0.7634 -0.3024  0.1527
  250MOL0     C33643   7.277  11.657   0.202 -0.5395  0.4007  0.2036
  250MOL0     C33644   7.425  11.645   0.167  0.0098  0.4010  0.3159
  250MOL0     O33645   7.466  11.717   0.057  0.5552 -0.1956  0.2722
  250MOL0     C33646   7.591  11.700   0.016 -1.2731 -0.7754  0.1312
  250MOL0     C33647   7.625  11.617  -0.091 -0.5682  0.4589 -0.5661
  250MOL0     C33648   7.750  11.611  -0.144  0.6043  0.6858  0.0285
  250MOL0     C33649   7.857  11.670  -0.079  0.0651  0.1504 -0.5838
  250MOL0     O33650   7.984  11.662  -0.121 -0.4592  0.6049  0.5988
  250MOL0     C33651   8.002  11.639  -0.268 -0.2308 -0.0340 -0.3411
  250MOL0     C33652   8.148  11.625  -0.312  0.2892  0.0019 -1.0479
  250MOL0     C33653   8.161  11.630  -0.466  0.4805  0.0773  0.2699
  250MOL0     C33654   8.282  11.545  -0.504  0.3273 -0.5256 -0.4966
  250MOL0     C33655   8.273  11.520  -0.661  0.0086  0.7323 -0.2471
  250MOL0     C33656   8.408  11.490  -0.730 -0.7133 -0.7361  0.2204
  250MOL0     C33657   8.381  11.490  -0.889  0.3168  0.9939 -0.0450
  250MOL0     C33658   8.493  11.464  -0.986 -0.2673 -0.6564  0.5818
  250MOL0    Cl33659   8.645  11.560  -0.945  0.1973  0.5416 -0.4757
  250MOL0     C33660   7.824  11.744   0.035  0.4422  0.2314  0.4526
  250MOL0     C33661   7.698  11.756   0.085 -0.2888  0.7589 -0.3814
  250MOL0     O33662   7.497  11.573   0.241  0.0783  0.4547  0.0351
  250MOL0     C33663   7.223  11.572   0.298  0.2311 -0.3169 -0.7196
  250MOL0     C33664   7.090  11.590   0.339  0.4102 -0.2588 -0.1746
  250MOL0     N33665   6.452  11.497   0.222  0.4930  0.6534 -0.0704
  250MOL0     N33666   6.342  11.452   0.167  0.5124  0.1019  0.0740
  250MOL0     C33667   6.467  10.728   0.362  1.0339 -0.0107  0.0582
  250MOL0     C33668   6.564  10.649   0.423 -0.1679  0.8499 -0.2703
  250MOL0     C33669   6.785  10.252   0.550  0.3484  0.4753  0.1956
  250MOL0     C33670   6.865  10.349   0.613 -0.7173  0.3772  0.0213
  250MOL0     C33671   6.995  10.321   0.645  0.2934 -0.1552 -0.3895
  250MOL0     C33672   7.049  10.193   0.623  0.3331  0.1761 -0.2429
  250MOL0     O33673   7.169  10.152   0.663 -0.4148  0.3697 -0.0094
  250MOL0     C33674   7.248  10.239   0.741 -0.0505  0.7926  0.5679
  250MOL0     C33675   7.370  10.172   0.810  0.0659 -0.5957 -0.2185
  250MOL0     C33676   7.475  10.275   0.854  0.2443 -0.3090  0.6950
  250MOL0     C33677   7.550  10.236   0.977  0.0179 -0.5693 -0.9025
  250MOL0     C33678   7.613  10.108   0.969 -0.2064  0.6318  0.3398
  250MOL0     C33679   7.664   9.994   0.961  0.4524 -0.9181 -0.7195
  250MOL0     C33680   6.975  10.103   0.545  0.3954  0.1016 -0.0248
  250MOL0     C33681   6.844  10.124   0.515 -0.5331 -0.1620 -0.1139
  250MOL0     C33682   6.772  10.018   0.429  1.3377  0.0981  0.4703
  250MOL0     H33683   6.382  10.367   0.446  1.1852 -0.5882  0.8137
  250MOL0     H33684   6.219  10.476   0.349  0.8388  0.1848 -3.0592
  250MOL0     H33685   6.105  10.635   0.184 -0.0924  1.1163 -1.3108
  250MOL0     H33686   6.068  10.664   0.349  1.7778 -0.0328  1.6363
  250MOL0     H33687   6.017  10.909   0.304  0.5713  0.6997  1.0780
  250MOL0     H33688   5.933  10.806   0.181 -0.1670 -1.8332  1.3139
  250MOL0     H33689   6.086  10.851   0.014 -0.9074 -2.1725  0.9898
  250MOL0     H33690   6.190  10.948   0.127 -0.3949  1.8288 -0.9023
  250MOL0     H33691   5.913  11.038   0.102  0.6140 -1.7769  0.3471
  250MOL0     H33692   6.062  11.113   0.149  0.6226 -1.9374  1.3478
  250MOL0     H33693   5.966  11.051  -0.134 -1.1828 -3.4223  3.4690
  250MOL0     H33694   5.997  11.206  -0.073 -0.5328  0.0633 -2.9080
  250MOL0     H33695   6.205  10.998  -0.126 -0.6599 -0.5754  1.2030
  250MOL0     H33696   6.181  11.156  -0.217 -0.5908 -1.4115 -0.9304
  250MOL0     H33697   6.380  11.152  -0.039 -0.0188  0.1969  0.0269
  250MOL0     H33698   6.257  11.149   0.083  2.4598 -0.6817 -0.5707
  250MOL0     H33699   6.264  11.368  -0.138  1.6392 -1.7655  0.1400
  250MOL0     H33700   6.169  11.365   0.008  0.1258  0.2491  0.1616
  250MOL0     H33701   6.565  11.357  -0.054  1.9171  2.5315 -1.1552
  250MOL0     H33702   6.733  11.467   0.265 -2.9005  0.0009  1.0165
  250MOL0     H33703   6.732  11.347   0.139  1.8745  1.2662  0.3854
  250MOL0     H33704   6.873  11.518   0.050 -1.4761 -1.0765 -7.1073
  250MOL0     H33705   6.723  11.527  -0.028 -1.9602  1.2128  1.0097
  250MOL0     H33706   6.655  11.727   0.081  0.4750 -1.0627 -1.6390
  250MOL0     H33707   6.827  11.755   0.036 -1.3370 -0.6208 -2.0837
  250MOL0     H33708   6.688  11.755   0.298  2.6234 -1.2799  5.0464
  250MOL0     H33709   6.819  11.853   0.228  0.3308 -1.4622 -3.1936
  250MOL0     H33710   7.002  11.852   0.146  1.1711 -0.8190 -3.6555
  250MOL0     H33711   7.234  11.813   0.060  1.2318 -1.9541 -0.1589
  250MOL0     H33712   7.540  11.583  -0.150  0.2753 -0.1949 -1.4337
  250MOL0     H33713   7.761  11.556  -0.237  1.1187 -0.1927  0.5949
  250MOL0     H33714   7.952  11.544  -0.292  0.4014 -0.0061 -1.9311
  250MOL0     H33715   7.953  11.719  -0.325  3.4804  2.1355 -0.7591
  250MOL0     H33716   8.201  11.707  -0.264  1.2837 -1.8816  1.2810
  250MOL0     H33717   8.194  11.531  -0.278  5.3791  1.4210 -3.1146
  250MOL0     H33718   8.077  11.588  -0.524 -0.2738 -0.4449  1.6910
  250MOL0     H33719   8.163  11.733  -0.502 -3.8085  0.6074  0.9508
  250MOL0     H33720   8.295  11.461  -0.435 -3.4570 -0.3585  0.6137
  250MOL0     H33721   8.373  11.605  -0.493  0.0579  0.7927 -4.1444
  250MOL0     H33722   8.227  11.610  -0.705  1.6318  0.5692 -2.4847
  250MOL0     H33723   8.194  11.446  -0.677  1.6872 -1.8224  2.3523
  250MOL0     H33724   8.484  11.564  -0.705 -2.2834 -0.0933  3.6729
  250MOL0     H33725   8.456  11.393  -0.710  4.3483  1.0786 -1.6262
  250MOL0     H33726   8.341  11.588  -0.916  0.8912  1.1611 -0.2822
  250MOL0     H33727   8.297  11.422  -0.908  0.4067  1.2832 -1.5810
  250MOL0     H33728   8.511  11.357  -0.974  0.8048 -0.5644 -0.0545
  250MOL0     H33729   8.462  11.488  -1.088  0.1497 -1.3432  0.2813
  250MOL0     H33730   7.899  11.787   0.101  0.8859  0.8762 -0.4386
  250MOL0     H33731   7.679  11.804   0.180 -3.0097 -2.6770  1.0439
  250MOL0     H33732   7.285  11.493   0.341  2.9252  1.6444 -0.7455
  250MOL0     H33733   7.046  11.512   0.401  2.7445 -1.0438  0.5980
  250MOL0     H33734   6.490  10.832   0.338 -2.3352  1.6157  2.9085
  250MOL0     H33735   6.666  10.680   0.444  0.3363 -1.4027  0.8422
  250MOL0     H33736   6.828  10.450   0.631 -1.2205 -0.1039  1.8708
  250MOL0     H33737   7.049  10.407   0.682  1.0901 -0.1470 -1.5284
  250MOL0     H33738   7.196  10.276   0.830  0.6820 -2.3944  2.5110
  250MOL0     H33739   7.299  10.319   0.686  0.1523  1.7863  2.1309
  250MOL0     H33740   7.426  10.109   0.741 -0.3610  1.5314 -2.6294
  250MOL0     H33741   7.329  10.116   0.895 -0.7925 -2.9829 -2.0982
  250MOL0     H33742   7.427  10.373   0.864 -1.0366 -0.9198  0.6903
  250MOL0     H33743   7.537  10.274   0.764 -1.7828 -6.4793 -1.1029
  250MOL0     H33744   7.629  10.310   0.993  0.0199 -1.0710  1.9022
  250MOL0     H33745   7.478  10.238   1.059  1.5475  0.8044  0.4664
  250MOL0     H33746   7.710   9.898   0.958  1.4198 -0.4415 -2.2505
  250MOL0     H33747   7.013  10.004   0.525  1.1823  0.5934 -1.0388
  250MOL0     H33748   6.670  10.008   0.469  0.8063 -1.8074 -1.2008
  250MOL0     H33749   6.772  10.063   0.330  1.1711  0.7188  0.7460
  250MOL0     H33750   6.808   9.915   0.434 -2.0095 -1.2039  0.4131
  251MOL0     O33751   0.671   8.873   5.131 -0.2405  0.1745 -0.2465
  251MOL0     C33752   0.654   8.763   5.183 -0.8195 -0.7465  0.1460
  251MOL0     O33753   0.750   8.685   5.241  0.0378  0.2759 -0.3022
  251MOL0     C33754   0.878   8.714   5.240 -0.6159 -0.0435  0.0817
  251MOL0     C33755   0.931   8.739   5.361 -0.4604 -0.0396 -0.2762
  251MOL0     C33756   1.072   8.748   5.365  0.3861 -0.8541 -0.4614
  251MOL0     C33757   1.159   8.714   5.260  0.4047  0.1624 -0.7900
  251MOL0     O33758   1.300   8.716   5.277  0.2100  0.0598  0.1114
  251MOL0     C33759   1.371   8.726   5.150  0.0401  0.4284  0.2013
  251MOL0     C33760   1.520   8.760   5.163 -0.6115 -1.0860  0.1260
  251MOL0     C33761   1.562   8.889   5.234 -0.3270 -0.5931  0.3203
  251MOL0     C33762   1.712   8.896   5.260  0.0714  0.1177 -0.4407
  251MOL0     C33763   1.751   9.034   5.321 -0.8494 -0.1501 -0.0547
  251MOL0     C33764   1.903   9.059   5.321  0.1547 -0.0197 -0.3986
  251MOL0     C33765   1.963   9.065   5.185  0.0479  0.0408  0.4833
  251MOL0     C33766   2.103   9.125   5.183 -1.1855 -0.7357 -0.1723
  251MOL0     N33767   2.163   9.106   5.044  0.9911  0.9158 -1.2844
  251MOL0     C33768   2.180   8.986   4.989  0.5407  0.8694  0.5988
  251MOL0     C33769   2.207   9.004   4.859 -0.1697 -0.3073  0.9144
  251MOL0     C33770   2.221   8.904   4.744 -0.1995  0.1573 -0.0536
  251MOL0     C33771   2.332   8.792   4.778 -0.4583  0.4391 -0.7853
  251MOL0     C33772   2.473   8.859   4.777  1.1938 -0.0409  0.4584
  251MOL0     C33773   2.586   8.775   4.839  1.3100 -0.2148  0.3738
  251MOL0     O33774   2.704   8.850   4.811  0.9513  0.5387  0.5670
  251MOL0     C33775   2.811   8.809   4.874 -1.2982 -0.4838  0.8064
  251MOL0     C33776   2.832   8.682   4.929 -0.0474 -0.1989 -0.0848
  251MOL0     C33777   2.965   8.659   4.975  0.7153  0.9023 -0.8745
  251MOL0     C33778   3.072   8.741   4.962  0.1946  0.4895 -0.0809
  251MOL0     C33779   3.206   8.712   5.006 -0.6387  0.0344 -1.1976
  251MOL0     O33780   3.314   8.774   4.944  0.2367  0.1653 -0.8244
  251MOL0     C33781   3.434   8.742   4.990 -0.0077 -0.0063 -0.2110
  251MOL0     C33782   3.495   8.620   4.971 -0.3376  0.3122  0.3027
  251MOL0     C33783   3.627   8.602   5.020  0.4595  0.6270 -0.7278
  251MOL0     C33784   3.710   8.705   5.064  1.0052  0.1301  0.3078
  251MOL0     O33785   3.838   8.661   5.085 -0.1762  0.4652  0.3378
  251MOL0     C33786   3.937   8.774   5.089 -0.7151  0.5453 -0.7373
  251MOL0     C33787   4.074   8.716   5.053 -0.3483  0.2254 -0.2678
  251MOL0     C33788   4.118   8.607   5.158 -0.5061  0.2047 -0.0362
  251MOL0     C33789   4.237   8.532   5.109 -0.0250  0.3101  0.3961
  251MOL0     C33790   4.268   8.416   5.200  0.1075  0.5902 -0.1946
  251MOL0     C33791   4.371   8.323   5.127  0.0778 -0.1966 -0.0595
  251MOL0     C33792   4.435   8.236   5.232  0.5618  0.5961  0.0077
  251MOL0     C33793   4.543   8.148   5.168  0.3872 -0.0240 -0.1440
  251MOL0    Cl33794   4.617   8.009   5.264 -0.1011 -0.1212  0.3258
  251MOL0     C33795   3.649   8.834   5.071  0.0613  0.0214  0.9297
  251MOL0     C33796   3.509   8.843   5.049  0.4638 -0.3038  0.2009
  251MOL0     O33797   3.209   8.632   5.099 -0.0088 -0.2358 -0.0376
  251MOL0     C33798   3.061   8.865   4.895  1.1167  0.2956 -0.0717
  251MOL0     C33799   2.927   8.888   4.852  0.1737 -0.5109 -0.8645
  251MOL0     N33800   2.217   9.140   4.838  0.3989  0.3233 -0.5819
  251MOL0     N33801   2.187   9.197   4.951 -0.5861  0.1980  0.1926
  251MOL0     C33802   1.093   8.670   5.138 -0.7091 -0.0712 -0.5894
  251MOL0     C33803   0.953   8.672   5.136 -0.2755 -0.3893  0.4125
  251MOL0     C33804   0.509   8.711   5.186 -0.4688 -0.4525 -0.0600
  251MOL0     C33805   0.411   8.808   5.158 -0.0753 -0.2837 -0.1014
  251MOL0     C33806   0.280   8.780   5.173  0.2726  0.0299  0.5130
  251MOL0     C33807   0.231   8.657   5.218 -0.1023 -0.7662  0.5056
  251MOL0     O33808   0.095   8.639   5.223  0.1624 -0.6017  0.2924
  251MOL0     C33809   0.034   8.527   5.274 -0.0366 -0.0538  0.4279
  251MOL0     C33810  -0.114   8.525   5.288  0.4037 -0.1175  0.0517
  251MOL0     C33811  -0.162   8.661   5.346  0.0519 -0.5725  0.0989
  251MOL0     C33812  -0.308   8.671   5.377 -0.3963 -0.0091  0.5314
  251MOL0     C33813  -0.354   8.555   5.453 -0.5392 -0.6548  0.6572
  251MOL0     C33814  -0.389   8.455   5.510  0.7247 -0.0933 -0.8331
  251MOL0     C33815   0.324   8.555   5.240  0.8213 -0.4123  0.2494
  251MOL0     C33816   0.467   8.583   5.227 -0.8029 -0.0767 -1.3437
  251MOL0     C33817   0.554   8.460   5.255  0.3759 -0.1058 -0.1326
  251MOL0     H33818   0.877   8.759   5.453  1.5169 -0.4527  1.0371
  251MOL0     H33819   1.124   8.786   5.452 -1.4049  2.2130 -0.5669
  251MOL0     H33820   1.362   8.637   5.088  0.2824 -0.0273  0.8124
  251MOL0     H33821   1.323   8.810   5.098 -0.1760  0.2281  0.0760
  251MOL0     H33822   1.565   8.771   5.064 -0.2831  1.0158  0.4740
  251MOL0     H33823   1.572   8.679   5.215 -0.6585 -0.5459  1.0218
  251MOL0     H33824   1.505   8.910   5.325  0.4809 -0.4080  0.7957
  251MOL0     H33825   1.540   8.972   5.167 -0.9307 -2.4099 -1.8338
  251MOL0     H33826   1.751   8.824   5.332  0.0475  0.0738 -0.4719
  251MOL0     H33827   1.765   8.868   5.169  0.7830  0.7092 -0.2174
  251MOL0     H33828   1.700   9.113   5.265 -0.5438  2.2386  2.7403
  251MOL0     H33829   1.722   9.045   5.426 -0.3536  3.0751 -0.1626
  251MOL0     H33830   1.928   9.145   5.382 -0.8687  0.1763 -0.2505
  251MOL0     H33831   1.939   8.967   5.369 -0.5074 -0.6396 -1.0500
  251MOL0     H33832   1.903   9.131   5.122 -1.9539 -2.4466 -0.4170
  251MOL0     H33833   1.957   8.968   5.133 -1.0661  2.1191 -3.7162
  251MOL0     H33834   2.101   9.230   5.213 -1.7260 -0.9702  0.6472
  251MOL0     H33835   2.169   9.069   5.249 -0.0698  0.7578  0.0279
  251MOL0     H33836   2.159   8.886   5.026  2.8279 -0.6053 -1.7495
  251MOL0     H33837   2.129   8.848   4.723  0.1041 -0.3195 -0.1475
  251MOL0     H33838   2.254   8.964   4.659  2.8581  0.3476  1.1414
  251MOL0     H33839   2.311   8.758   4.880 -0.8736  0.6843 -0.7837
  251MOL0     H33840   2.314   8.707   4.711  3.2689 -1.8477  0.8176
  251MOL0     H33841   2.479   8.957   4.826  2.0214 -0.6638  1.6506
  251MOL0     H33842   2.500   8.891   4.676 -0.2395 -1.2396 -0.3458
  251MOL0     H33843   2.585   8.674   4.795  0.0534  0.6711 -1.7834
  251MOL0     H33844   2.560   8.764   4.945  1.1412  1.1658  0.4879
  251MOL0     H33845   2.754   8.606   4.931 -0.8928  0.5951 -1.5663
  251MOL0     H33846   2.980   8.567   5.030  2.9695  2.5906  1.6507
  251MOL0     H33847   3.443   8.538   4.922 -1.3470 -0.1610  2.1029
  251MOL0     H33848   3.682   8.511   4.997  1.1740  0.8927 -0.1083
  251MOL0     H33849   3.913   8.846   5.009  1.3177  0.9025 -1.0789
  251MOL0     H33850   3.941   8.814   5.191  0.0622 -1.4932  0.0612
  251MOL0     H33851   4.075   8.681   4.949  3.3165  0.5662 -0.4935
  251MOL0     H33852   4.149   8.796   5.061  1.4193 -1.5445  2.7265
  251MOL0     H33853   4.136   8.655   5.255 -3.2001  0.6088  0.3408
  251MOL0     H33854   4.031   8.541   5.164 -1.9333  2.1204  2.1641
  251MOL0     H33855   4.327   8.593   5.099 -0.3015  0.7670  0.6297
  251MOL0     H33856   4.215   8.495   5.009 -0.8525 -0.2603  0.7769
  251MOL0     H33857   4.178   8.358   5.225 -0.4167  1.6279  0.3516
  251MOL0     H33858   4.315   8.460   5.288 -0.8468 -3.2864  2.5428
  251MOL0     H33859   4.311   8.258   5.061  1.0728 -1.5477  0.3159
  251MOL0     H33860   4.444   8.382   5.072 -2.3061  1.7103 -1.4240
  251MOL0     H33861   4.360   8.171   5.279 -0.2724  0.2566 -1.7254
  251MOL0     H33862   4.473   8.296   5.316  1.1809  0.4252 -0.1430
  251MOL0     H33863   4.499   8.100   5.079  0.8401 -1.8903  0.5946
  251MOL0     H33864   4.619   8.216   5.127 -0.8767  1.1968 -0.5402
  251MOL0     H33865   3.703   8.914   5.120  0.0898 -1.5399  3.6532
  251MOL0     H33866   3.465   8.940   5.070  1.5594  0.0109  1.1130
  251MOL0     H33867   3.138   8.940   4.882 -0.2785  2.0712  1.4049
  251MOL0     H33868   2.914   8.987   4.809  1.4318 -0.5821 -1.4598
  251MOL0     H33869   1.142   8.644   5.044 -0.3680 -0.7477 -0.2297
  251MOL0     H33870   0.905   8.642   5.044  1.2262 -3.3190  0.4539
  251MOL0     H33871   0.440   8.906   5.120  0.7470 -0.9761 -1.3214
  251MOL0     H33872   0.203   8.849   5.138 -2.1210 -1.8510  1.7259
  251MOL0     H33873   0.082   8.512   5.371  0.4261  3.6740  0.8915
  251MOL0     H33874   0.061   8.432   5.226 -2.2521 -0.7301  0.3737
  251MOL0     H33875  -0.122   8.444   5.360 -0.9701  0.0396  0.0894
  251MOL0     H33876  -0.164   8.498   5.195  0.7853 -0.1414 -0.1511
  251MOL0     H33877  -0.133   8.746   5.284  0.7239 -1.8276 -1.3786
  251MOL0     H33878  -0.117   8.682   5.444 -0.3966  2.7332 -0.3051
  251MOL0     H33879  -0.338   8.762   5.430 -2.0838 -0.6874  0.7940
  251MOL0     H33880  -0.361   8.659   5.282  0.3817 -1.5464  0.2562
  251MOL0     H33881  -0.423   8.374   5.572 -0.8513 -0.0056 -1.5439
  251MOL0     H33882   0.287   8.460   5.277 -0.6947 -0.3079 -0.9272
  251MOL0     H33883   0.599   8.454   5.355  1.1903 -3.0827 -0.5824
  251MOL0     H33884   0.495   8.368   5.246  1.8792 -1.1275  0.0576
  251MOL0     H33885   0.635   8.457   5.182  0.7623  2.2574  0.1251
  252MOL0     O33886   6.979   2.589   5.525 -1.1363 -0.5011  1.0159
  252MOL0     C33887   6.908   2.495   5.556  0.3912  0.8411  0.0074
  252MOL0     O33888   6.897   2.373   5.487  1.5015 -1.0052 -0.7605
  252MOL0     C33889   6.973   2.362   5.375  0.2134 -0.5877 -1.0697
  252MOL0     C33890   6.903   2.336   5.265 -0.6916  0.5450 -0.3310
  252MOL0     C33891   6.970   2.283   5.153 -0.5893 -0.0805 -0.2518
  252MOL0     C33892   7.110   2.269   5.155  0.2858  0.2357  0.6060
  252MOL0     O33893   7.169   2.202   5.050  0.3346  0.7093 -0.4647
  252MOL0     C33894   7.243   2.285   4.955  0.3525 -0.1829 -0.1859
  252MOL0     C33895   7.361   2.215   4.898 -0.0000  0.3613  0.8844
  252MOL0     C33896   7.488   2.222   4.977 -0.1169 -0.6839 -0.0867
  252MOL0     C33897   7.504   2.098   5.061 -0.2219  0.1720 -0.5952
  252MOL0     C33898   7.631   2.102   5.145  0.1446  0.3144 -0.5035
  252MOL0     C33899   7.767   2.109   5.062 -0.7480 -0.6670 -0.5412
  252MOL0     C33900   7.887   2.087   5.144 -0.5225 -0.6511 -0.5001
  252MOL0     C33901   7.901   2.194   5.260  0.1428  0.7822  0.6428
  252MOL0     N33902   8.019   2.166   5.344  0.5213  0.3607 -0.0079
  252MOL0     C33903   8.029   2.064   5.432  0.0140 -1.3183 -0.3645
  252MOL0     C33904   8.154   2.069   5.478 -0.1245 -0.6363  0.0257
  252MOL0     C33905   8.224   1.967   5.561 -0.2761 -0.1102  0.7355
  252MOL0     C33906   8.320   2.037   5.665  0.6549  0.6757  0.6289
  252MOL0     C33907   8.250   2.082   5.793  0.2147  0.3516 -0.1188
  252MOL0     C33908   8.313   2.201   5.862 -0.5869 -0.4593  0.0655
  252MOL0     O33909   8.427   2.151   5.929  0.0341 -0.1174  0.6751
  252MOL0     C33910   8.513   2.243   5.979 -0.3929  0.3453 -0.1823
  252MOL0     C33911   8.645   2.201   6.016  0.5511  0.1406 -0.6469
  252MOL0     C33912   8.740   2.287   6.045  0.0415  1.3303  0.5347
  252MOL0     C33913   8.728   2.425   6.035 -0.0267 -0.0200  0.6218
  252MOL0     C33914   8.838   2.525   6.069  0.0424  0.0973 -0.3373
  252MOL0     O33915   8.943   2.472   6.144  0.2990  0.1538  0.5489
  252MOL0     C33916   9.059   2.547   6.152 -1.2665 -0.2734 -0.2664
  252MOL0     C33917   9.139   2.517   6.266 -0.3658 -0.7666 -0.5539
  252MOL0     C33918   9.248   2.597   6.296  0.2009 -0.6531 -1.1264
  252MOL0     C33919   9.285   2.699   6.220  0.0926 -0.5926  0.2823
  252MOL0     O33920   9.386   2.781   6.266 -0.6599  0.3852  0.2236
  252MOL0     C33921   9.479   2.839   6.168  0.6747 -0.0032  0.6476
  252MOL0     C33922   9.602   2.899   6.256 -0.7449 -0.1407 -0.3762
  252MOL0     C33923   9.558   3.028   6.336  0.5606  0.6464  1.2536
  252MOL0     C33924   9.668   3.125   6.372  0.3456  0.1112 -0.8738
  252MOL0     C33925   9.780   3.052   6.446  0.4657  0.8564  0.0090
  252MOL0     C33926   9.874   3.120   6.550  0.6359  0.6908  0.4240
  252MOL0     C33927   9.866   3.272   6.537 -0.1443  0.1720 -0.8366
  252MOL0     C33928   9.959   3.334   6.637  0.2834  0.3530 -0.3487
  252MOL0    Cl33929   9.882   3.299   6.800 -0.7061  0.6277 -0.1893
  252MOL0     C33930   9.211   2.735   6.102 -0.2758 -0.6948 -0.0435
  252MOL0     C33931   9.105   2.659   6.065  0.3617  0.2187 -0.5273
  252MOL0     O33932   8.824   2.643   6.038  0.1054 -0.3293  0.1113
  252MOL0     C33933   8.597   2.473   6.001 -0.3341  0.6629  0.1750
  252MOL0     C33934   8.494   2.378   5.978  0.3674 -0.7472 -0.5644
  252MOL0     N33935   8.222   2.170   5.405 -0.4803  0.1208 -0.0337
  252MOL0     N33936   8.136   2.225   5.324 -0.0486  0.6581  0.5534
  252MOL0     C33937   7.181   2.303   5.273 -0.3274 -0.0796  0.0867
  252MOL0     C33938   7.112   2.352   5.389 -0.0036  0.3106  0.4340
  252MOL0     C33939   6.833   2.505   5.685 -0.2319  0.0744 -0.0153
  252MOL0     C33940   6.734   2.406   5.709 -1.1331  1.5821 -0.3731
  252MOL0     C33941   6.678   2.380   5.833 -0.2420  0.3377 -0.7384
  252MOL0     C33942   6.705   2.465   5.934  0.8133  0.0082 -0.8768
  252MOL0     O33943   6.650   2.454   6.058 -0.3560 -0.0958 -0.5447
  252MOL0     C33944   6.592   2.324   6.103  0.2969 -0.1044 -0.0781
  252MOL0     C33945   6.546   2.341   6.247 -0.2672  0.2460 -0.5276
  252MOL0     C33946   6.663   2.307   6.340 -0.1085 -0.4393 -0.6548
  252MOL0     C33947   6.662   2.365   6.476 -0.0724 -0.5506 -0.0593
  252MOL0     C33948   6.524   2.381   6.527  0.0258  0.2501  0.0254
  252MOL0     C33949   6.416   2.379   6.580  0.4696  0.4831  0.3549
  252MOL0     C33950   6.793   2.575   5.914 -0.6331  0.6693 -0.3235
  252MOL0     C33951   6.855   2.603   5.790 -0.4474  0.2912  0.6635
  252MOL0     C33952   6.953   2.716   5.793 -0.9165  0.1995 -0.3373
  252MOL0     H33953   6.795   2.344   5.266 -0.9453 -2.2643  0.0902
  252MOL0     H33954   6.908   2.237   5.077 -2.1808  1.7182 -0.1292
  252MOL0     H33955   7.182   2.310   4.868  0.7817 -0.7816 -0.6658
  252MOL0     H33956   7.270   2.381   4.999  0.5345 -0.5275  0.4665
  252MOL0     H33957   7.384   2.252   4.798 -1.3944  2.3678  1.2451
  252MOL0     H33958   7.328   2.111   4.884 -0.3551  0.4986  0.6912
  252MOL0     H33959   7.483   2.305   5.048  3.6075 -1.1358  0.9200
  252MOL0     H33960   7.568   2.242   4.904  0.9332  1.5933  1.5610
  252MOL0     H33961   7.411   2.086   5.116 -0.7165  2.6448 -0.7709
  252MOL0     H33962   7.523   2.013   4.994  3.6654  1.8924 -2.0311
  252MOL0     H33963   7.623   2.185   5.216 -3.0833  1.4856 -2.0652
  252MOL0     H33964   7.630   2.010   5.205  1.0879  0.4265 -0.2969
  252MOL0     H33965   7.765   2.025   4.991 -1.7544 -1.6004  0.5406
  252MOL0     H33966   7.782   2.204   5.010  2.2673 -0.7749 -0.0597
  252MOL0     H33967   7.984   2.083   5.093  0.6158 -1.6832  1.6256
  252MOL0     H33968   7.867   1.989   5.187 -0.2929 -0.9729 -1.1139
  252MOL0     H33969   7.897   2.297   5.224  0.6152  0.3255 -0.8076
  252MOL0     H33970   7.813   2.188   5.324  2.9494 -1.4654  4.8124
  252MOL0     H33971   7.942   2.002   5.445 -1.1291  0.1244 -0.7925
  252MOL0     H33972   8.155   1.904   5.618 -1.2833  0.1477 -0.1777
  252MOL0     H33973   8.290   1.899   5.506 -3.2669 -4.7327  2.2830
  252MOL0     H33974   8.391   1.959   5.695  0.2793  0.9481  2.3420
  252MOL0     H33975   8.369   2.121   5.615  1.0236 -0.6833 -1.4330
  252MOL0     H33976   8.262   2.000   5.865 -0.8930  0.8603  0.6822
  252MOL0     H33977   8.144   2.105   5.782 -0.2075  0.3125  2.9637
  252MOL0     H33978   8.245   2.230   5.942  1.1145 -0.9757  1.7496
  252MOL0     H33979   8.343   2.281   5.794 -2.4366 -0.3519 -0.7013
  252MOL0     H33980   8.663   2.094   6.015 -1.4980 -0.2527  0.2924
  252MOL0     H33981   8.838   2.259   6.084 -0.2850 -0.6089  0.0498
  252MOL0     H33982   9.118   2.431   6.329  1.2234 -0.3159  0.6628
  252MOL0     H33983   9.296   2.576   6.391 -0.7293  1.8972 -0.0067
  252MOL0     H33984   9.528   2.762   6.107  1.4233 -1.2097  2.6781
  252MOL0     H33985   9.432   2.906   6.096  1.4361 -0.7125 -0.5620
  252MOL0     H33986   9.650   2.831   6.326 -0.1516  0.9605  0.3146
  252MOL0     H33987   9.683   2.934   6.192  1.1394 -0.9018  1.4853
  252MOL0     H33988   9.484   3.076   6.271  1.1368  1.7894  1.4047
  252MOL0     H33989   9.507   2.986   6.423  1.5063 -2.0941  0.5871
  252MOL0     H33990   9.617   3.199   6.436 -0.3231 -1.0906  0.0216
  252MOL0     H33991   9.700   3.179   6.283 -1.7209  0.5534 -1.4001
  252MOL0     H33992   9.846   3.025   6.362 -0.4409  0.7797 -0.6922
  252MOL0     H33993   9.754   2.954   6.487 -2.5101  0.1272 -3.0902
  252MOL0     H33994   9.847   3.083   6.649  3.0246 -2.2306  0.1311
  252MOL0     H33995   9.975   3.081   6.533 -0.1899 -0.8995 -1.1231
  252MOL0     H33996   9.767   3.317   6.549 -1.2970 -1.3734 -3.6036
  252MOL0     H33997   9.905   3.306   6.441 -1.5425  0.1741 -1.4208
  252MOL0     H33998  10.061   3.296   6.625 -0.1224 -1.0286  0.2477
  252MOL0     H33999   9.948   3.441   6.622 -3.5242  0.4314  1.7807
  252MOL0     H34000   9.238   2.819   6.040  1.7727 -1.5239 -0.3627
  252MOL0     H34001   9.042   2.700   5.986  1.7647  1.9166 -0.8201
  252MOL0     H34002   8.583   2.578   5.980 -1.3216 -0.0077 -3.1656
  252MOL0     H34003   8.398   2.419   5.945 -2.0674 -2.7568  3.2708
  252MOL0     H34004   7.288   2.283   5.275 -0.4229 -1.8529 -3.9660
  252MOL0     H34005   7.179   2.365   5.474 -0.3143 -1.3477  0.9835
  252MOL0     H34006   6.713   2.339   5.626  0.6191  0.1460  0.2712
  252MOL0     H34007   6.623   2.287   5.828  1.6569 -0.7677 -1.9771
  252MOL0     H34008   6.651   2.235   6.079 -1.4823 -1.8422  1.5459
  252MOL0     H34009   6.499   2.307   6.047  0.3255 -1.3798  0.2321
  252MOL0     H34010   6.460   2.282   6.279  0.8071  0.0305  2.2209
  252MOL0     H34011   6.526   2.447   6.265  1.5400  0.3994  0.8857
  252MOL0     H34012   6.756   2.343   6.293 -0.7516 -1.0893 -2.5019
  252MOL0     H34013   6.668   2.198   6.344  0.9647 -0.3907 -0.2069
  252MOL0     H34014   6.720   2.296   6.539  1.6637  0.7256 -0.1900
  252MOL0     H34015   6.721   2.455   6.497 -0.0963 -0.8377  1.4030
  252MOL0     H34016   6.325   2.374   6.636 -2.6015  0.7463 -4.0706
  252MOL0     H34017   6.799   2.647   5.995 -0.8611  0.1685  0.1450
  252MOL0     H34018   6.970   2.758   5.693 -2.6180  0.2127 -0.6498
  252MOL0     H34019   6.917   2.786   5.869 -0.2966  0.6859 -0.4807
  252MOL0     H34020   7.051   2.673   5.817 -1.9140 -2.8725 -1.3245
  253MOL0     O34021   6.005   4.535   8.908  0.5139 -0.1636  0.2616
  253MOL0     C34022   5.951   4.434   8.954  0.5000  1.1856 -0.7787
  253MOL0     O34023   6.016   4.321   9.011  0.1623  0.4389  0.2042
  253MOL0     C34024   6.142   4.299   8.969 -0.1878 -0.5632 -0.3588
  253MOL0     C34025   6.248   4.321   9.061 -0.5698 -0.1891 -0.1085
  253MOL0     C34026   6.384   4.300   9.032  1.1674 -0.4212  1.4576
  253MOL0     C34027   6.416   4.265   8.897  0.1576  1.1411 -0.2069
  253MOL0     O34028   6.548   4.249   8.870  0.4596  0.2419  0.2990
  253MOL0     C34029   6.599   4.298   8.747  0.5363 -0.2455 -0.1783
  253MOL0     C34030   6.748   4.282   8.727  0.5516 -0.1757 -0.2458
  253MOL0     C34031   6.787   4.353   8.591  0.2693  0.5078  0.1933
  253MOL0     C34032   6.940   4.369   8.593 -0.7619 -0.2244 -0.8120
  253MOL0     C34033   6.976   4.420   8.454 -0.7184  0.5507  0.3992
  253MOL0     C34034   7.125   4.436   8.441 -0.6416 -0.2453 -0.1090
  253MOL0     C34035   7.174   4.465   8.304  0.1867  0.1200  0.9822
  253MOL0     C34036   7.330   4.473   8.286  0.8206 -0.2123 -1.3597
  253MOL0     N34037   7.392   4.478   8.151 -0.1391 -0.5319 -0.0675
  253MOL0     C34038   7.393   4.376   8.062 -0.0849 -0.3557 -0.6640
  253MOL0     C34039   7.467   4.426   7.959 -0.4871 -0.0325  0.4981
  253MOL0     C34040   7.507   4.328   7.852 -0.4141 -0.2930 -0.7512
  253MOL0     C34041   7.554   4.388   7.716  0.9478 -0.5357  0.0786
  253MOL0     C34042   7.671   4.491   7.734 -0.0147 -0.8077 -0.0660
  253MOL0     C34043   7.727   4.536   7.597  0.0095 -0.0815  0.7773
  253MOL0     O34044   7.772   4.425   7.514 -0.2191  0.0732 -0.9599
  253MOL0     C34045   7.828   4.451   7.391 -0.4255 -0.2877 -0.1021
  253MOL0     C34046   7.874   4.337   7.321 -0.1393  0.0169 -0.3723
  253MOL0     C34047   7.928   4.351   7.192 -0.2958 -0.0899 -0.1813
  253MOL0     C34048   7.955   4.474   7.138 -0.8020  0.2679  0.8991
  253MOL0     C34049   8.025   4.491   7.009  0.3234 -0.5045 -0.3402
  253MOL0     O34050   8.059   4.608   6.958 -0.1865 -0.1575 -0.4612
  253MOL0     C34051   8.092   4.619   6.824  0.5405  0.5378 -0.5601
  253MOL0     C34052   8.198   4.695   6.788  0.5527  0.6654  0.3295
  253MOL0     C34053   8.242   4.704   6.657 -0.1513 -0.3525 -0.0758
  253MOL0     C34054   8.171   4.656   6.554  0.9417  0.2941  0.1278
  253MOL0     O34055   8.199   4.677   6.420 -0.0748 -0.5329 -0.5721
  253MOL0     C34056   8.338   4.677   6.396 -0.5300  0.2212  0.2679
  253MOL0     C34057   8.343   4.707   6.248 -0.5250 -0.5101 -0.3897
  253MOL0     C34058   8.481   4.664   6.188 -0.7984  0.3811 -0.1130
  253MOL0     C34059   8.487   4.690   6.031 -0.8659 -0.0068  0.4256
  253MOL0     C34060   8.637   4.668   5.990 -0.0748  1.0668 -0.4051
  253MOL0     C34061   8.655   4.661   5.837  0.0409 -0.1875 -0.7744
  253MOL0     C34062   8.789   4.601   5.802 -0.9314  1.0663 -0.2383
  253MOL0     C34063   8.843   4.618   5.659 -0.4560 -0.1504 -0.0432
  253MOL0    Cl34064   8.727   4.537   5.557 -0.2756  0.4138 -0.1627
  253MOL0     C34065   8.054   4.574   6.590  0.2451  0.1344  0.0383
  253MOL0     C34066   8.020   4.552   6.721  0.1401 -0.9340 -0.2571
  253MOL0     O34067   8.054   4.383   6.959 -0.5479  0.0436  0.0629
  253MOL0     C34068   7.908   4.585   7.210  0.6334  0.0252  0.1294
  253MOL0     C34069   7.851   4.574   7.332  0.5841 -0.3036  0.1035
  253MOL0     N34070   7.500   4.557   7.975  0.9508 -0.4737 -0.1389
  253MOL0     N34071   7.445   4.589   8.090  0.7926  0.4111 -0.6005
  253MOL0     C34072   6.310   4.250   8.806 -0.1361  0.6624 -0.1005
  253MOL0     C34073   6.176   4.269   8.841  0.0290  0.3643 -0.7998
  253MOL0     C34074   5.804   4.447   8.981 -0.6329 -0.5201 -0.0407
  253MOL0     C34075   5.748   4.368   9.090 -1.3212  0.6311 -0.0541
  253MOL0     C34076   5.610   4.360   9.113 -0.1713 -0.0643 -0.3649
  253MOL0     C34077   5.521   4.441   9.038 -0.3358 -0.3880 -0.3044
  253MOL0     O34078   5.383   4.427   9.064 -0.5209  0.0582  0.6030
  253MOL0     C34079   5.314   4.555   9.083  0.6194 -1.2312 -0.1448
  253MOL0     C34080   5.203   4.577   8.993  0.4393 -0.1997  0.6929
  253MOL0     C34081   5.183   4.727   8.959 -0.5063 -0.3877 -0.4626
  253MOL0     C34082   5.102   4.743   8.828 -0.6960  0.2417  0.5025
  253MOL0     C34083   5.087   4.882   8.787  0.2577  1.0290  0.1562
  253MOL0     C34084   5.074   4.994   8.750 -0.1146 -0.1479 -0.1188
  253MOL0     C34085   5.582   4.528   8.942  0.5583  0.7472 -0.1905
  253MOL0     C34086   5.721   4.539   8.906  0.1773  0.0279  0.3412
  253MOL0     C34087   5.761   4.622   8.784 -0.2277  0.1329 -0.0860
  253MOL0     H34088   6.224   4.343   9.164 -0.5400 -0.9004  0.0527
  253MOL0     H34089   6.457   4.311   9.111  0.6928  0.0252  1.8379
  253MOL0     H34090   6.547   4.235   8.674 -0.6420 -0.1798  0.5839
  253MOL0     H34091   6.574   4.404   8.734  0.9872  0.0331  1.1199
  253MOL0     H34092   6.772   4.175   8.731 -2.6824 -1.0053 -0.3817
  253MOL0     H34093   6.803   4.328   8.810 -0.9578  3.8311 -1.2154
  253MOL0     H34094   6.738   4.451   8.590 -0.7449  0.1027 -3.5099
  253MOL0     H34095   6.759   4.300   8.500  2.3656  1.7974 -1.2832
  253MOL0     H34096   6.965   4.440   8.672 -0.9428 -1.8132  0.7372
  253MOL0     H34097   6.996   4.280   8.623  0.7394  0.8627 -0.2682
  253MOL0     H34098   6.942   4.347   8.379  0.5491 -2.7831  2.7920
  253MOL0     H34099   6.933   4.516   8.426  4.0121  2.8188 -0.0819
  253MOL0     H34100   7.150   4.522   8.504 -1.5428 -0.4441  0.5319
  253MOL0     H34101   7.188   4.353   8.474  3.7963  2.7471 -0.0561
  253MOL0     H34102   7.126   4.560   8.277 -1.5383 -1.2636 -1.1901
  253MOL0     H34103   7.122   4.388   8.246 -3.1325  1.3417  2.1157
  253MOL0     H34104   7.357   4.560   8.347  2.4351 -2.2400  1.0310
  253MOL0     H34105   7.379   4.388   8.335 -2.2587 -2.9921 -2.7209
  253MOL0     H34106   7.335   4.284   8.070  2.7461 -2.3773 -1.9133
  253MOL0     H34107   7.579   4.252   7.883 -2.7729 -2.7703 -0.9969
  253MOL0     H34108   7.410   4.281   7.833 -0.0380 -0.1501 -3.2843
  253MOL0     H34109   7.591   4.298   7.667 -0.9030 -1.4808  0.2952
  253MOL0     H34110   7.479   4.436   7.652  1.0015  0.7055  0.9220
  253MOL0     H34111   7.753   4.448   7.792  1.9491  0.3069 -1.8693
  253MOL0     H34112   7.644   4.581   7.791  3.4934  0.8973 -0.8015
  253MOL0     H34113   7.808   4.604   7.627  0.1357 -1.4949  4.1399
  253MOL0     H34114   7.651   4.599   7.551 -0.3249 -1.7777 -1.0716
  253MOL0     H34115   7.855   4.238   7.363  0.3385  1.5469  3.9669
  253MOL0     H34116   7.939   4.268   7.123 -3.3053 -1.0712  0.3686
  253MOL0     H34117   8.250   4.746   6.869 -2.5739  5.2510 -0.1464
  253MOL0     H34118   8.327   4.769   6.638 -1.4804  1.8551  1.1200
  253MOL0     H34119   8.399   4.754   6.443 -0.7392  0.6861 -0.2167
  253MOL0     H34120   8.372   4.573   6.407  1.9220  0.8960 -0.5464
  253MOL0     H34121   8.264   4.643   6.208  1.2736 -2.7604 -0.5873
  253MOL0     H34122   8.318   4.809   6.219  0.7652 -0.7648 -2.6269
  253MOL0     H34123   8.560   4.723   6.235 -1.5361  0.1854  1.4444
  253MOL0     H34124   8.503   4.560   6.216 -1.5247  0.3617  0.4186
  253MOL0     H34125   8.473   4.794   6.001  3.5389  0.7889  0.5973
  253MOL0     H34126   8.408   4.629   5.985 -1.3679 -0.5825  1.9538
  253MOL0     H34127   8.672   4.580   6.045 -2.2472  0.1376 -0.4395
  253MOL0     H34128   8.699   4.749   6.029 -2.0417  1.2468  2.6717
  253MOL0     H34129   8.575   4.595   5.802  0.6097 -1.3584  0.0358
  253MOL0     H34130   8.654   4.767   5.812 -2.0934  0.0882  0.2127
  253MOL0     H34131   8.780   4.495   5.826 -2.8222  1.0269 -1.0015
  253MOL0     H34132   8.869   4.643   5.865 -0.1587 -1.1218  0.3546
  253MOL0     H34133   8.844   4.725   5.635  0.0096 -0.2496 -0.4871
  253MOL0     H34134   8.942   4.574   5.650 -0.9829 -1.5010  0.4892
  253MOL0     H34135   7.995   4.534   6.508 -1.6122  4.0176 -0.7507
  253MOL0     H34136   7.939   4.483   6.742  0.5748 -0.6479  2.8058
  253MOL0     H34137   7.933   4.689   7.190 -0.0588  0.1664 -0.0445
  253MOL0     H34138   7.809   4.663   7.378 -1.9559 -1.1360 -0.4476
  253MOL0     H34139   6.327   4.213   8.705 -2.7142 -1.1011  0.0179
  253MOL0     H34140   6.100   4.257   8.765  0.6002  1.4909 -1.5828
  253MOL0     H34141   5.811   4.304   9.151  0.5212  0.9417 -1.5463
  253MOL0     H34142   5.561   4.297   9.187 -0.1796  1.6928  1.2209
  253MOL0     H34143   5.389   4.633   9.068  0.5557 -0.5852  2.4451
  253MOL0     H34144   5.270   4.566   9.182 -0.8464  0.7971 -0.9588
  253MOL0     H34145   5.116   4.529   9.040  0.9725  2.2787  4.6331
  253MOL0     H34146   5.235   4.521   8.904 -0.0495  0.2745  0.2136
  253MOL0     H34147   5.276   4.784   8.951 -0.5944 -0.2120 -0.2553
  253MOL0     H34148   5.124   4.767   9.043 -0.1721 -3.0288  1.1517
  253MOL0     H34149   5.141   4.675   8.752  0.5289  2.4640 -0.9377
  253MOL0     H34150   4.999   4.717   8.855 -0.5350  0.8714  1.8175
  253MOL0     H34151   5.071   5.097   8.721  3.4958 -0.8823 -4.2938
  253MOL0     H34152   5.511   4.586   8.883 -1.7348 -3.1835 -1.7193
  253MOL0     H34153   5.667   4.652   8.738 -1.0492  0.0948  1.4966
  253MOL0     H34154   5.797   4.716   8.827 -1.1886 -0.0884  1.3046
  253MOL0     H34155   5.837   4.571   8.724  0.0803 -0.7027  0.9699
  254MOL0     O34156  10.706   1.709   0.297  1.0548  0.5959 -0.5272
  254MOL0     C34157  10.628   1.635   0.232 -0.0287 -0.5784  0.1501
  254MOL0     O34158  10.667   1.564   0.125 -0.1045  0.8387 -0.3046
  254MOL0     C34159  10.804   1.533   0.113 -0.2500  0.1985  0.1525
  254MOL0     C34160  10.845   1.403   0.162 -0.3250 -0.2910 -0.4603
  254MOL0     C34161  10.989   1.390   0.175  0.6601 -0.2309 -0.0796
  254MOL0     C34162  11.074   1.485   0.139 -1.2706 -0.3696 -0.0868
  254MOL0     O34163  11.205   1.445   0.144  0.4608  0.2526  0.7278
  254MOL0     C34164  11.296   1.503   0.048 -0.8192 -0.4431  0.4561
  254MOL0     C34165  11.294   1.423  -0.080  0.9903 -0.4285  0.1739
  254MOL0     C34166  11.377   1.490  -0.191  0.1895  0.6151 -0.1026
  254MOL0     C34167  11.401   1.388  -0.310  0.5177  0.0197  0.0646
  254MOL0     C34168  11.520   1.292  -0.306  0.4778  0.5154  0.1579
  254MOL0     C34169  11.650   1.371  -0.307  1.0308  0.5957 -0.2648
  254MOL0     C34170  11.768   1.272  -0.323 -0.4383  0.7224 -0.1871
  254MOL0     C34171  11.896   1.343  -0.370 -0.3245  0.5797 -0.3569
  254MOL0     N34172  12.008   1.251  -0.413 -0.1505 -0.2365 -0.1024
  254MOL0     C34173  12.131   1.260  -0.354 -0.7135  0.5869  0.6621
  254MOL0     C34174  12.212   1.179  -0.427 -0.0366  0.5232  0.4099
  254MOL0     C34175  12.342   1.143  -0.366 -0.9445 -0.0532 -1.2778
  254MOL0     C34176  12.454   1.235  -0.428  0.2322  0.7567 -0.9467
  254MOL0     C34177  12.581   1.244  -0.352  0.0861  1.2439 -0.6765
  254MOL0     C34178  12.680   1.311  -0.430 -0.2197 -0.2570 -0.3798
  254MOL0     O34179  12.788   1.354  -0.335 -0.0305  1.0349  0.3073
  254MOL0     C34180  12.896   1.416  -0.397 -0.2366 -0.1307  0.5206
  254MOL0     C34181  13.026   1.373  -0.364 -0.6702  0.5904  0.1214
  254MOL0     C34182  13.140   1.432  -0.422 -0.2123  0.2455  0.2156
  254MOL0     C34183  13.129   1.541  -0.511 -0.5412  0.6908 -0.0479
  254MOL0     C34184  13.244   1.608  -0.566  0.2324  0.0259 -0.3132
  254MOL0     O34185  13.217   1.690  -0.677 -0.5970 -0.9641 -0.7302
  254MOL0     C34186  13.327   1.761  -0.729  0.8361 -0.0015 -0.1176
  254MOL0     C34187  13.305   1.892  -0.769  0.4329  0.0764  0.8409
  254MOL0     C34188  13.404   1.962  -0.837  0.4166  0.4931  0.5416
  254MOL0     C34189  13.528   1.895  -0.864 -0.9718  0.2295 -0.8091
  254MOL0     O34190  13.625   1.968  -0.924 -0.5835  0.8079  0.0992
  254MOL0     C34191  13.691   2.044  -0.814  0.4175  0.0600 -0.3537
  254MOL0     C34192  13.769   2.153  -0.886  0.1317  0.4862  0.1781
  254MOL0     C34193  13.836   2.253  -0.790  0.3716  0.6558 -0.1975
  254MOL0     C34194  13.926   2.346  -0.865 -0.1965  0.1902 -0.5020
  254MOL0     C34195  13.910   2.484  -0.796  0.2916 -0.3417 -0.1813
  254MOL0     C34196  14.002   2.585  -0.864  0.5963  0.5371 -0.0293
  254MOL0     C34197  14.009   2.711  -0.781  0.4183  0.2400 -0.6491
  254MOL0     C34198  14.119   2.806  -0.823  0.2748 -0.2244  0.5039
  254MOL0    Cl34199  14.285   2.777  -0.763  0.4973 -0.0641  0.2861
  254MOL0     C34200  13.556   1.766  -0.818 -0.8080  0.2310  0.1426
  254MOL0     C34201  13.453   1.699  -0.757 -0.0479  0.1667  0.1033
  254MOL0     O34202  13.352   1.603  -0.507  0.4807  0.6135 -0.6054
  254MOL0     C34203  12.998   1.596  -0.533 -0.4741  1.4712  0.3476
  254MOL0     C34204  12.887   1.529  -0.481 -0.0785  0.1338  0.2522
  254MOL0     N34205  12.140   1.134  -0.535  0.0359 -0.4979 -0.0961
  254MOL0     N34206  12.015   1.164  -0.514 -0.4168  0.5372  0.0629
  254MOL0     C34207  11.032   1.609   0.103 -0.8604  0.1253 -0.6290
  254MOL0     C34208  10.898   1.632   0.083  0.4690 -0.2264 -0.1078
  254MOL0     C34209  10.494   1.660   0.271 -0.5204 -0.4545  0.1034
  254MOL0     C34210  10.448   1.786   0.309  0.0220  1.0525  0.3170
  254MOL0     C34211  10.312   1.814   0.339  0.6275  0.1900  0.0814
  254MOL0     C34212  10.209   1.712   0.325 -0.7910  0.4435  0.4534
  254MOL0     O34213  10.077   1.722   0.350 -0.6018  0.1444 -0.0668
  254MOL0     C34214  10.042   1.802   0.468 -0.1412  0.5539  0.4630
  254MOL0     C34215   9.948   1.717   0.561  0.5205 -0.0277  0.6158
  254MOL0     C34216   9.832   1.643   0.485  0.1106 -0.5073  0.5030
  254MOL0     C34217   9.703   1.620   0.569 -1.1993  0.5993 -0.9578
  254MOL0     C34218   9.717   1.503   0.651  0.9593  0.1177  0.4879
  254MOL0     C34219   9.722   1.399   0.717 -0.9003  0.4975  0.2346
  254MOL0     C34220  10.258   1.587   0.275 -0.3182 -0.1911 -0.5603
  254MOL0     C34221  10.398   1.556   0.251 -0.7790  0.4388  0.0919
  254MOL0     C34222  10.429   1.412   0.217 -0.2467  0.5218  0.9293
  254MOL0     H34223  10.774   1.323   0.179 -2.3314  1.7349  1.1474
  254MOL0     H34224  11.031   1.300   0.216  2.9374 -0.8144 -3.3168
  254MOL0     H34225  11.278   1.610   0.035  3.8383  0.3632 -1.6979
  254MOL0     H34226  11.398   1.494   0.087  0.0868  1.1528 -1.3255
  254MOL0     H34227  11.195   1.398  -0.118  1.6879 -3.8653  0.3356
  254MOL0     H34228  11.338   1.324  -0.065  2.5781 -0.0762 -1.7734
  254MOL0     H34229  11.469   1.523  -0.142  0.0521  0.1400  0.4915
  254MOL0     H34230  11.328   1.582  -0.226 -1.7619 -0.5224 -0.5200
  254MOL0     H34231  11.305   1.339  -0.328  0.1803  1.1194 -1.3115
  254MOL0     H34232  11.424   1.448  -0.398  2.2283  1.2897  1.3060
  254MOL0     H34233  11.513   1.233  -0.214 -0.5678  0.4663  0.0572
  254MOL0     H34234  11.509   1.220  -0.387 -2.3665 -0.3119  1.1323
  254MOL0     H34235  11.652   1.433  -0.397 -0.6597  0.8706 -0.1394
  254MOL0     H34236  11.656   1.430  -0.215 -0.5739 -2.3993  1.9327
  254MOL0     H34237  11.732   1.196  -0.394 -3.6056 -0.0467  2.0184
  254MOL0     H34238  11.792   1.226  -0.227  0.7378  0.0838 -0.7598
  254MOL0     H34239  11.871   1.409  -0.454 -2.8362  0.7240  0.4185
  254MOL0     H34240  11.933   1.407  -0.289 -0.1879  2.0029 -1.5085
  254MOL0     H34241  12.150   1.309  -0.258 -2.4457 -0.5775  1.6636
  254MOL0     H34242  12.339   1.146  -0.256  2.9031 -1.2561 -0.9785
  254MOL0     H34243  12.366   1.043  -0.402  0.4162  1.5246 -5.3318
  254MOL0     H34244  12.473   1.197  -0.529 -1.0572  0.7766 -1.2125
  254MOL0     H34245  12.409   1.333  -0.446 -0.6111  1.0586  2.2373
  254MOL0     H34246  12.624   1.148  -0.321 -2.6736 -0.1031 -0.7114
  254MOL0     H34247  12.562   1.309  -0.266 -1.1509  1.6665 -1.2530
  254MOL0     H34248  12.635   1.409  -0.448  3.2778  1.3460 -1.2260
  254MOL0     H34249  12.712   1.263  -0.523 -2.3721  2.5756 -2.7750
  254MOL0     H34250  13.035   1.298  -0.286 -1.9769 -0.7546 -0.9708
  254MOL0     H34251  13.236   1.388  -0.396  1.7959  2.3537 -2.9426
  254MOL0     H34252  13.207   1.934  -0.749 -0.0264 -0.5539 -0.0189
  254MOL0     H34253  13.381   2.064  -0.865 -1.7459  0.3883  1.7154
  254MOL0     H34254  13.628   2.084  -0.734  1.5410 -1.7087  1.5087
  254MOL0     H34255  13.762   1.973  -0.772  0.1956  1.7506  3.2754
  254MOL0     H34256  13.847   2.113  -0.952 -0.1357  1.0544 -0.4897
  254MOL0     H34257  13.694   2.207  -0.944  0.7483 -0.3238 -1.4429
  254MOL0     H34258  13.764   2.299  -0.722 -0.4979 -0.1186 -0.5725
  254MOL0     H34259  13.893   2.197  -0.715 -0.9073 -0.0029  0.3216
  254MOL0     H34260  13.904   2.341  -0.972 -2.2814 -1.0620 -0.0691
  254MOL0     H34261  14.025   2.300  -0.857 -0.1006  0.7618  4.3367
  254MOL0     H34262  13.947   2.482  -0.693 -2.5165  1.7107  0.9966
  254MOL0     H34263  13.806   2.516  -0.807  0.3077  0.4011  1.4308
  254MOL0     H34264  14.103   2.546  -0.879  1.4901  2.6477  0.2335
  254MOL0     H34265  13.957   2.605  -0.962  1.5309  1.3000 -0.3132
  254MOL0     H34266  14.021   2.680  -0.676  0.7310  0.9810 -0.4629
  254MOL0     H34267  13.915   2.765  -0.794  0.5615  0.1506 -2.3108
  254MOL0     H34268  14.117   2.814  -0.932 -3.5181  1.0603  0.5271
  254MOL0     H34269  14.091   2.905  -0.784  1.4976 -0.1665  1.2952
  254MOL0     H34270  13.652   1.717  -0.830 -0.0914  1.5681  0.2223
  254MOL0     H34271  13.478   1.594  -0.743  2.6581  1.0771  3.4252
  254MOL0     H34272  12.980   1.682  -0.597 -1.3330  1.3153  0.3597
  254MOL0     H34273  12.793   1.558  -0.525  0.3164 -1.8187 -2.0719
  254MOL0     H34274  11.103   1.692   0.097  3.7625 -3.4374 -1.3297
  254MOL0     H34275  10.862   1.731   0.057  1.6408  0.3900  0.5564
  254MOL0     H34276  10.521   1.867   0.318  1.3495 -0.2843  2.9932
  254MOL0     H34277  10.283   1.915   0.364 -3.6324 -1.3333  2.4101
  254MOL0     H34278   9.985   1.895   0.460 -0.6169  0.6554  3.6162
  254MOL0     H34279  10.137   1.822   0.519  0.1274  0.1564  0.1207
  254MOL0     H34280   9.904   1.790   0.629  0.6122 -0.2833  0.9547
  254MOL0     H34281  10.006   1.648   0.623 -0.2568 -1.6419 -0.3808
  254MOL0     H34282   9.881   1.554   0.443  1.1170  0.5857 -0.7347
  254MOL0     H34283   9.798   1.701   0.399  0.3185  1.7160  1.8551
  254MOL0     H34284   9.680   1.700   0.640 -0.6691  0.0821 -0.1865
  254MOL0     H34285   9.623   1.608   0.496 -0.4975  1.2871 -1.8720
  254MOL0     H34286   9.738   1.320   0.788  0.2965  3.2427  3.2558
  254MOL0     H34287  10.186   1.506   0.285  2.2735 -2.4865  0.8098
  254MOL0     H34288  10.448   1.393   0.111  0.4964 -1.5825  1.3931
  254MOL0     H34289  10.512   1.377   0.279 -1.2702  1.1275  2.7290
  254MOL0     H34290  10.341   1.347   0.228 -1.9397  2.6070  0.2945
  255MOL0     O34291   6.238   8.273   3.308  0.0555 -0.7086 -0.0789
  255MOL0     C34292   6.201   8.316   3.416 -0.3182 -0.4684 -0.6617
  255MOL0     O34293   6.247   8.427   3.479 -0.1372 -0.2249  0.8051
  255MOL0     C34294   6.347   8.504   3.424  0.1315  0.9373  0.0938
  255MOL0     C34295   6.466   8.528   3.482  0.2002  0.4574 -0.0585
  255MOL0     C34296   6.570   8.594   3.412 -0.5898  0.4048  0.4550
  255MOL0     C34297   6.554   8.638   3.279  0.4836  0.4621  0.4198
  255MOL0     O34298   6.653   8.708   3.220 -0.0994  0.0083  0.1677
  255MOL0     C34299   6.643   8.741   3.081  0.1006 -0.2218 -0.0287
  255MOL0     C34300   6.772   8.807   3.050 -0.2479 -0.7614  0.1667
  255MOL0     C34301   6.754   8.883   2.913 -0.4062 -0.0182 -1.3258
  255MOL0     C34302   6.765   8.778   2.798  0.6739 -0.7453 -0.9077
  255MOL0     C34303   6.712   8.827   2.667  0.1831 -0.4867  0.8626
  255MOL0     C34304   6.790   8.964   2.636 -0.0766  0.0662  0.3999
  255MOL0     C34305   6.781   8.992   2.482  0.3875  0.3395 -0.9407
  255MOL0     C34306   6.858   9.107   2.431 -0.4619 -0.0314  0.0426
  255MOL0     N34307   6.802   9.178   2.314  0.8691  0.9971 -0.5187
  255MOL0     C34308   6.825   9.162   2.183  0.0867  0.3027  0.1277
  255MOL0     C34309   6.750   9.257   2.122 -0.2167  1.3077 -0.1442
  255MOL0     C34310   6.720   9.261   1.970  0.4872 -0.2650 -0.8911
  255MOL0     C34311   6.843   9.313   1.893  0.3821 -0.0582 -0.0280
  255MOL0     C34312   6.869   9.458   1.920 -0.2648  0.1335  0.1038
  255MOL0     C34313   6.954   9.517   1.808  0.1829  0.3032  0.2362
  255MOL0     O34314   7.075   9.455   1.781 -0.3005 -0.2649 -0.0849
  255MOL0     C34315   7.196   9.511   1.805 -0.7075 -0.5704  0.8972
  255MOL0     C34316   7.220   9.643   1.858 -0.4442 -0.0527 -0.4739
  255MOL0     C34317   7.347   9.697   1.885 -0.4213  0.6682 -0.2279
  255MOL0     C34318   7.459   9.617   1.861  0.6851 -0.4450  0.3406
  255MOL0     C34319   7.586   9.680   1.863 -0.0184  0.4697  0.6763
  255MOL0     O34320   7.596   9.819   1.897  0.5756 -0.0506 -0.0891
  255MOL0     C34321   7.711   9.880   1.919  0.0048  0.2036  0.0205
  255MOL0     C34322   7.747  10.002   1.858  0.9051 -1.1722 -0.5230
  255MOL0     C34323   7.866  10.056   1.875  0.2245 -0.2201  0.1389
  255MOL0     C34324   7.954  10.000   1.959 -0.3600  0.6105  0.5374
  255MOL0     O34325   8.086  10.047   1.971  0.3178 -0.3461  0.0418
  255MOL0     C34326   8.112  10.173   2.034  0.1616  0.4600 -0.4336
  255MOL0     C34327   8.066  10.183   2.175 -0.0057  0.5914 -0.0131
  255MOL0     C34328   8.061  10.334   2.227 -0.0188 -0.1219 -0.7591
  255MOL0     C34329   8.015  10.337   2.373  0.4868  0.2795  0.7225
  255MOL0     C34330   8.012  10.478   2.436 -0.1183  0.0407  0.2971
  255MOL0     C34331   7.941  10.475   2.569 -0.4553 -0.9156 -1.2584
  255MOL0     C34332   7.796  10.544   2.558  0.5818 -0.0053 -0.1067
  255MOL0     C34333   7.713  10.528   2.682 -0.0748 -0.3724 -0.4406
  255MOL0    Cl34334   7.798  10.592   2.821  0.4355 -0.1354  0.0312
  255MOL0     C34335   7.928   9.881   2.027  0.7261 -0.3720  0.5377
  255MOL0     C34336   7.802   9.820   2.003  0.1613  0.6527  0.1133
  255MOL0     O34337   7.682   9.618   1.816 -0.3458  0.5008  0.8499
  255MOL0     C34338   7.443   9.484   1.821  0.3569  0.5296 -0.0481
  255MOL0     C34339   7.312   9.432   1.801 -0.3337  0.4263 -0.5479
  255MOL0     N34340   6.688   9.328   2.213 -0.7503 -0.9215 -0.1186
  255MOL0     N34341   6.719   9.285   2.331 -0.4451  0.5558  0.2045
  255MOL0     C34342   6.429   8.625   3.222  0.1450  0.1639 -0.1185
  255MOL0     C34343   6.323   8.555   3.294 -0.0345 -0.0105 -0.4987
  255MOL0     C34344   6.098   8.240   3.478 -1.0367  0.6389 -0.4257
  255MOL0     C34345   6.108   8.233   3.623  0.3201 -0.2667 -0.0193
  255MOL0     C34346   6.022   8.162   3.701  0.1637 -0.4122 -0.1617
  255MOL0     C34347   5.918   8.085   3.635  0.3221 -0.4231 -1.1509
  255MOL0     O34348   5.834   7.999   3.688 -0.1971  0.0039  0.2645
  255MOL0     C34349   5.707   8.046   3.730  0.4441 -0.6403  0.2568
  255MOL0     C34350   5.590   8.059   3.629  0.1168 -0.2053 -0.2961
  255MOL0     C34351   5.476   8.152   3.682  0.0881 -0.3575 -0.6936
  255MOL0     C34352   5.437   8.128   3.827  0.3096 -0.4854  0.9888
  255MOL0     C34353   5.368   8.003   3.843  0.7044  0.4513 -0.4170
  255MOL0     C34354   5.280   7.926   3.884 -0.4382  0.4691  0.6051
  255MOL0     C34355   5.916   8.091   3.500 -0.2333  0.6414 -0.0804
  255MOL0     C34356   5.995   8.173   3.417  0.2892 -0.0392  0.1822
  255MOL0     C34357   5.965   8.184   3.261 -0.6497  0.4317  0.1993
  255MOL0     H34358   6.475   8.495   3.585 -2.8020 -2.7226 -0.6319
  255MOL0     H34359   6.671   8.595   3.450 -0.7156 -0.9742  0.8997
  255MOL0     H34360   6.625   8.656   3.014 -2.1303 -0.3333  0.6280
  255MOL0     H34361   6.561   8.810   3.058  0.4858  0.0856 -0.4958
  255MOL0     H34362   6.854   8.737   3.031  0.1979  0.4024 -2.8413
  255MOL0     H34363   6.788   8.873   3.136 -0.7641 -2.9941  2.0853
  255MOL0     H34364   6.838   8.952   2.905  1.4133 -1.3876  3.0215
  255MOL0     H34365   6.667   8.948   2.904  1.7402  2.8512 -2.6868
  255MOL0     H34366   6.870   8.753   2.777  0.8886  0.5669 -1.5051
  255MOL0     H34367   6.715   8.686   2.828  1.0737 -0.0244  2.3478
  255MOL0     H34368   6.737   8.740   2.605  2.2045  0.2047  0.6405
  255MOL0     H34369   6.604   8.840   2.658  0.1740 -0.7319  0.6082
  255MOL0     H34370   6.742   9.044   2.693 -0.2007 -1.1873  2.1314
  255MOL0     H34371   6.893   8.943   2.667 -0.6770 -2.1231  1.1099
  255MOL0     H34372   6.675   9.004   2.457  0.1532 -0.7560 -0.5239
  255MOL0     H34373   6.794   8.895   2.434 -3.1797 -0.2626 -1.0010
  255MOL0     H34374   6.857   9.185   2.508 -1.9141 -0.0163  0.0426
  255MOL0     H34375   6.965   9.088   2.420 -0.7801 -3.7970  1.9535
  255MOL0     H34376   6.889   9.089   2.136  0.3423  0.7504 -0.2191
  255MOL0     H34377   6.706   9.158   1.937 -2.9227  0.3763 -1.8290
  255MOL0     H34378   6.629   9.318   1.952 -1.8126 -3.5160 -0.2662
  255MOL0     H34379   6.931   9.252   1.912  0.2864 -0.2559 -0.2121
  255MOL0     H34380   6.819   9.297   1.787  3.2018  0.9940 -0.9161
  255MOL0     H34381   6.917   9.467   2.018 -0.3967 -2.8077  0.5439
  255MOL0     H34382   6.773   9.509   1.928 -1.7618 -2.2904 -1.1672
  255MOL0     H34383   6.968   9.623   1.829  0.1836  0.5941 -1.1515
  255MOL0     H34384   6.891   9.528   1.719  1.7298  2.4957 -0.6634
  255MOL0     H34385   7.134   9.689   1.904 -0.4945 -0.1427 -0.4798
  255MOL0     H34386   7.349   9.799   1.921 -2.4855  0.2517  1.2741
  255MOL0     H34387   7.688  10.063   1.791  0.9879  2.3475  2.3081
  255MOL0     H34388   7.893  10.146   1.820  2.9134 -2.8870 -3.4159
  255MOL0     H34389   8.220  10.187   2.023 -0.0580  2.3032 -0.5781
  255MOL0     H34390   8.061  10.253   1.979  2.1398  0.3842 -2.5453
  255MOL0     H34391   7.969  10.132   2.176 -2.0323  4.1005 -0.6462
  255MOL0     H34392   8.122  10.122   2.246  0.2224  2.0562  1.0993
  255MOL0     H34393   8.157  10.387   2.221  0.6114 -0.3232  3.8909
  255MOL0     H34394   7.991  10.387   2.162  1.0245 -0.2300 -2.0319
  255MOL0     H34395   8.072  10.274   2.442 -0.2048 -2.6213 -1.1827
  255MOL0     H34396   7.916  10.292   2.382  0.4146  0.5977  1.6521
  255MOL0     H34397   7.957  10.546   2.370 -0.1845  3.0573  3.1960
  255MOL0     H34398   8.115  10.509   2.452 -0.3830  0.1196  2.0653
  255MOL0     H34399   7.935  10.374   2.612  1.9810 -0.7011 -0.2404
  255MOL0     H34400   7.996  10.537   2.640 -1.1535 -1.1928 -0.4490
  255MOL0     H34401   7.737  10.503   2.476 -1.0837  1.4551  0.3184
  255MOL0     H34402   7.811  10.651   2.540 -1.5202 -0.2193 -4.5514
  255MOL0     H34403   7.630  10.600   2.683  0.6201  0.5383  2.3348
  255MOL0     H34404   7.662  10.433   2.700 -4.8139  1.5162 -2.1383
  255MOL0     H34405   8.015   9.840   2.079  1.1505 -0.8218 -0.4840
  255MOL0     H34406   7.781   9.724   2.049 -2.2620  0.4344 -1.2869
  255MOL0     H34407   7.528   9.417   1.819  2.1413  2.5104  2.9686
  255MOL0     H34408   7.304   9.325   1.786  0.7476  0.3115 -0.3790
  255MOL0     H34409   6.402   8.689   3.139  0.6011 -0.3306 -0.6535
  255MOL0     H34410   6.231   8.533   3.240  0.9113 -0.6310 -1.9376
  255MOL0     H34411   6.192   8.288   3.666  1.7445 -0.4711 -2.3753
  255MOL0     H34412   6.042   8.134   3.804  1.9863 -1.5353 -0.7812
  255MOL0     H34413   5.733   8.147   3.763 -0.2112 -0.2751 -0.3192
  255MOL0     H34414   5.675   7.982   3.812  3.3535 -3.6642 -0.7490
  255MOL0     H34415   5.548   7.964   3.593  0.5313 -0.6798  0.4474
  255MOL0     H34416   5.627   8.100   3.535  2.1795  0.8522  0.9101
  255MOL0     H34417   5.387   8.158   3.618 -0.3929  0.9724  0.0624
  255MOL0     H34418   5.528   8.248   3.673  2.2735 -1.4662 -0.3107
  255MOL0     H34419   5.522   8.121   3.895  3.1672 -0.0235 -2.2325
  255MOL0     H34420   5.366   8.208   3.853 -1.2721 -1.1238 -1.1232
  255MOL0     H34421   5.227   7.848   3.935  2.7525  0.1874  3.9297
  255MOL0     H34422   5.836   8.036   3.452 -1.4578  0.4895  1.9977
  255MOL0     H34423   5.866   8.139   3.246 -0.6462  0.3467  0.4293
  255MOL0     H34424   5.971   8.287   3.227 -3.4760  0.5549 -0.1930
  255MOL0     H34425   6.039   8.129   3.202 -2.1723 -0.6773 -0.7706
  256MOL0     O34426   3.240   2.375   9.062 -0.0482  0.0318  0.7866
  256MOL0     C34427   3.215   2.399   9.179 -0.9493  1.0488  0.9525
  256MOL0     O34428   3.306   2.440   9.271 -0.2205  0.2334 -1.4560
  256MOL0     C34429   3.439   2.442   9.237 -0.7618  0.3337  0.1551
  256MOL0     C34430   3.514   2.334   9.203  1.0677  0.3425  0.0790
  256MOL0     C34431   3.647   2.348   9.169  0.3071 -0.2337 -0.2040
  256MOL0     C34432   3.713   2.461   9.195  0.0196 -0.7693  0.6475
  256MOL0     O34433   3.850   2.473   9.179 -0.7409  0.3554  0.5848
  256MOL0     C34434   3.910   2.573   9.092  0.0067 -0.1596 -0.2572
  256MOL0     C34435   4.032   2.621   9.173  0.4535  0.5104  0.4270
  256MOL0     C34436   4.151   2.647   9.079  0.2410 -1.2536 -0.8461
  256MOL0     C34437   4.275   2.685   9.143  0.8543  0.4205 -0.9355
  256MOL0     C34438   4.401   2.691   9.058 -0.0176 -0.3804  0.8827
  256MOL0     C34439   4.528   2.727   9.145  0.2706  0.1973 -0.2984
  256MOL0     C34440   4.561   2.876   9.164 -0.7589 -0.1361  0.3820
  256MOL0     C34441   4.679   2.901   9.255  0.0775 -0.4413  0.3164
  256MOL0     N34442   4.806   2.872   9.196 -0.3333  0.2456  0.0429
  256MOL0     C34443   4.865   2.952   9.104  0.2475 -0.4689  0.8226
  256MOL0     C34444   4.974   2.884   9.064  0.3022  0.3037  0.0517
  256MOL0     C34445   5.084   2.925   8.969  0.0178  0.2610 -0.2760
  256MOL0     C34446   5.186   2.805   8.947 -0.5071 -0.1090 -0.0600
  256MOL0     C34447   5.119   2.717   8.843 -0.2772  0.9375  0.3766
  256MOL0     C34448   5.217   2.603   8.794 -0.7285 -0.5942 -0.2270
  256MOL0     O34449   5.285   2.553   8.909  0.2292  0.3997 -0.0195
  256MOL0     C34450   5.396   2.480   8.888 -0.6310  1.2532 -0.4997
  256MOL0     C34451   5.440   2.414   8.772 -0.2667 -0.3532 -0.2355
  256MOL0     C34452   5.560   2.339   8.774  0.3174  0.4385 -0.5782
  256MOL0     C34453   5.640   2.341   8.884  0.0533 -0.7031 -0.6216
  256MOL0     C34454   5.773   2.270   8.873 -1.5230  0.1979  0.4615
  256MOL0     O34455   5.835   2.253   8.750 -0.0187 -0.6395 -0.7840
  256MOL0     C34456   5.932   2.159   8.736 -0.4196  0.6098 -0.4984
  256MOL0     C34457   6.031   2.199   8.649 -0.1079 -0.3425 -0.0944
  256MOL0     C34458   6.129   2.101   8.612  0.8740 -0.6857  0.6198
  256MOL0     C34459   6.125   1.970   8.665 -0.2642 -0.6550  0.7140
  256MOL0     O34460   6.216   1.877   8.626  0.7305  0.7303  0.2272
  256MOL0     C34461   6.320   1.843   8.720 -0.5077  0.0658 -0.0685
  256MOL0     C34462   6.395   1.725   8.667 -0.1514 -0.0772  0.9717
  256MOL0     C34463   6.488   1.647   8.762 -0.3667 -1.0453 -0.2078
  256MOL0     C34464   6.635   1.712   8.765 -0.0203  0.4005 -0.3041
  256MOL0     C34465   6.729   1.642   8.864 -0.5433  0.6783  0.9971
  256MOL0     C34466   6.868   1.693   8.870 -0.0636 -0.4056  0.6645
  256MOL0     C34467   6.962   1.602   8.947 -1.2916  0.4161 -0.4863
  256MOL0     C34468   7.114   1.601   8.912  0.3452  0.2608 -0.6582
  256MOL0    Cl34469   7.221   1.559   9.050  0.4658 -0.0222  0.8865
  256MOL0     C34470   6.008   1.938   8.746 -0.1170 -0.8367 -0.1860
  256MOL0     C34471   5.924   2.029   8.790  0.0747 -0.7014 -0.1046
  256MOL0     O34472   5.819   2.219   8.979  0.2987 -0.0730  0.6864
  256MOL0     C34473   5.601   2.408   8.996 -0.0806 -0.3819 -0.4997
  256MOL0     C34474   5.477   2.466   9.007  0.4972  0.0551  0.4638
  256MOL0     N34475   4.975   2.770   9.138  0.7800 -0.5998  0.6945
  256MOL0     N34476   4.874   2.752   9.200  0.0811 -0.6693 -0.3748
  256MOL0     C34477   3.640   2.578   9.230 -0.4558  0.6516  0.6716
  256MOL0     C34478   3.500   2.563   9.252  0.2813 -0.0918 -0.3930
  256MOL0     C34479   3.068   2.378   9.224 -0.2326  0.7871 -0.0011
  256MOL0     C34480   2.972   2.316   9.141 -1.1621 -0.5390 -0.1705
  256MOL0     C34481   2.842   2.293   9.181 -0.5491  0.1940  0.3484
  256MOL0     C34482   2.804   2.324   9.313  0.6884 -0.0829  0.1089
  256MOL0     O34483   2.671   2.297   9.358 -0.4371 -0.6798  0.0690
  256MOL0     C34484   2.567   2.268   9.261  0.1419 -0.2399  1.0074
  256MOL0     C34485   2.435   2.315   9.298  0.7502 -0.5835 -0.1022
  256MOL0     C34486   2.320   2.230   9.252 -0.1656  1.6724 -0.1677
  256MOL0     C34487   2.316   2.108   9.348  0.8994 -0.0250 -0.8836
  256MOL0     C34488   2.350   1.983   9.278 -0.2753  0.0022 -0.3408
  256MOL0     C34489   2.351   1.876   9.214  0.1146 -0.4228 -0.2268
  256MOL0     C34490   2.891   2.381   9.399  0.7524  0.2444  0.5579
  256MOL0     C34491   3.026   2.407   9.361  0.1015  0.2733  0.0760
  256MOL0     C34492   3.116   2.445   9.473 -0.1650  0.0453  0.9210
  256MOL0     H34493   3.473   2.235   9.218  0.9635 -0.1654 -3.0030
  256MOL0     H34494   3.693   2.252   9.150  0.7102 -1.3539  5.0043
  256MOL0     H34495   3.948   2.538   8.996  2.0112  1.7263 -0.2440
  256MOL0     H34496   3.841   2.654   9.068 -0.1278 -0.3810 -0.6115
  256MOL0     H34497   4.061   2.535   9.235  2.5092  0.0484 -1.0746
  256MOL0     H34498   4.003   2.704   9.238 -1.2051  0.0798  0.2741
  256MOL0     H34499   4.113   2.717   9.004  0.0419  0.4200  0.7286
  256MOL0     H34500   4.165   2.553   9.027  0.2834 -1.9894  0.4470
  256MOL0     H34501   4.262   2.778   9.198 -0.6276  1.2233 -2.5777
  256MOL0     H34502   4.300   2.607   9.217  0.6443 -1.4906 -2.7837
  256MOL0     H34503   4.419   2.597   9.003  1.7046  0.3952  0.0213
  256MOL0     H34504   4.391   2.761   8.974 -0.5175 -1.1077  0.3210
  256MOL0     H34505   4.517   2.675   9.241  2.6505 -0.1965 -0.1933
  256MOL0     H34506   4.616   2.684   9.098  0.6938  2.1622 -1.4201
  256MOL0     H34507   4.481   2.933   9.212  1.1509  1.3297  2.0073
  256MOL0     H34508   4.580   2.927   9.069  2.0088  1.1014  1.4829
  256MOL0     H34509   4.678   3.008   9.279  0.1945 -0.0234 -1.3989
  256MOL0     H34510   4.670   2.841   9.346  0.7777  1.5455  1.7676
  256MOL0     H34511   4.832   3.049   9.068 -3.1459 -2.8197 -3.3614
  256MOL0     H34512   5.050   2.959   8.871 -0.0770  3.3665  0.7259
  256MOL0     H34513   5.127   3.010   9.024 -1.4997 -0.2435  1.8430
  256MOL0     H34514   5.276   2.861   8.922 -0.7403  1.4871  2.3783
  256MOL0     H34515   5.201   2.751   9.040 -0.2457  2.8897  1.7542
  256MOL0     H34516   5.095   2.770   8.751 -0.2038  1.7353  0.8110
  256MOL0     H34517   5.030   2.669   8.884 -0.4295  0.6032 -0.3260
  256MOL0     H34518   5.287   2.639   8.718  0.9801 -1.8008  0.7171
  256MOL0     H34519   5.149   2.532   8.746 -0.7606  0.1499 -1.3120
  256MOL0     H34520   5.388   2.425   8.678 -0.5980  2.2959  0.1595
  256MOL0     H34521   5.590   2.290   8.682  2.6996  1.8939 -0.6749
  256MOL0     H34522   6.035   2.304   8.623 -0.0384 -0.0114  1.1747
  256MOL0     H34523   6.217   2.132   8.558 -0.6831 -3.4482 -4.0628
  256MOL0     H34524   6.384   1.931   8.726 -1.0646  0.4613  0.1202
  256MOL0     H34525   6.273   1.812   8.813  1.3737  1.2751  1.3609
  256MOL0     H34526   6.329   1.646   8.628 -0.9171  0.5131  1.0474
  256MOL0     H34527   6.448   1.758   8.577 -0.8394 -1.6576 -0.0700
  256MOL0     H34528   6.450   1.639   8.864  1.5362 -0.7150  0.5656
  256MOL0     H34529   6.507   1.548   8.718  0.4145  0.1191 -2.6743
  256MOL0     H34530   6.636   1.818   8.789 -0.0615  0.3280  0.0261
  256MOL0     H34531   6.675   1.716   8.664 -1.6199  0.3903 -0.9712
  256MOL0     H34532   6.732   1.538   8.829 -0.0517  1.4383 -1.4258
  256MOL0     H34533   6.678   1.652   8.960  0.0413  1.3755  1.2347
  256MOL0     H34534   6.907   1.697   8.768  1.9029 -1.7933  1.2933
  256MOL0     H34535   6.865   1.793   8.915  0.1818 -0.1178  0.0488
  256MOL0     H34536   6.921   1.501   8.961  2.8147 -1.8236 -2.7103
  256MOL0     H34537   6.954   1.634   9.051 -1.4996 -2.0441  0.3165
  256MOL0     H34538   7.127   1.544   8.820  1.5559 -0.9577  0.2298
  256MOL0     H34539   7.140   1.704   8.886 -1.5446  1.1165  0.5888
  256MOL0     H34540   5.981   1.844   8.793 -1.4531 -0.9110 -1.0431
  256MOL0     H34541   5.835   1.999   8.844 -0.6218  0.0514 -0.7964
  256MOL0     H34542   5.671   2.421   9.078 -1.3687  1.2415  0.4108
  256MOL0     H34543   5.451   2.528   9.091  0.9208 -1.9352  2.1407
  256MOL0     H34544   3.691   2.671   9.251  0.1731  0.6516 -0.7468
  256MOL0     H34545   3.435   2.649   9.263 -1.0683 -0.9197 -1.6037
  256MOL0     H34546   3.014   2.271   9.052 -0.1621 -2.1533  1.0541
  256MOL0     H34547   2.777   2.240   9.112 -4.3968  3.0964  1.4036
  256MOL0     H34548   2.571   2.162   9.233 -2.5192  0.0758 -1.0323
  256MOL0     H34549   2.595   2.327   9.173  1.8841 -1.3951  0.7434
  256MOL0     H34550   2.420   2.412   9.249  0.1068 -0.6042  0.0511
  256MOL0     H34551   2.418   2.326   9.406 -1.0070 -1.5561 -0.2504
  256MOL0     H34552   2.346   2.190   9.153 -0.3715  0.3122  0.3015
  256MOL0     H34553   2.222   2.276   9.242 -1.6933 -1.7696 -3.8701
  256MOL0     H34554   2.379   2.105   9.437  1.2448  0.0745 -1.1252
  256MOL0     H34555   2.217   2.101   9.395  1.6688 -1.0547  0.6962
  256MOL0     H34556   2.335   1.783   9.164  2.9608 -1.9985  1.5053
  256MOL0     H34557   2.851   2.391   9.499 -0.8967 -0.5728  0.0060
  256MOL0     H34558   3.146   2.550   9.469  0.3721 -0.1041  0.8899
  256MOL0     H34559   3.070   2.452   9.572  0.0803  1.6110  0.9581
  256MOL0     H34560   3.205   2.381   9.477  1.7485  2.2604 -1.7251
  257MOL0     O34561   0.546   9.153   3.203  0.7556  0.7530  0.0363
  257MOL0     C34562   0.452   9.231   3.183  0.1619  0.4212  0.1325
  257MOL0     O34563   0.471   9.357   3.126  0.2098  0.1994  0.3683
  257MOL0     C34564   0.584   9.417   3.169  0.3634 -0.1652  0.4403
  257MOL0     C34565   0.701   9.404   3.089  0.4045 -0.0365  0.7136
  257MOL0     C34566   0.819   9.464   3.138  0.4811 -0.3435  0.4824
  257MOL0     C34567   0.825   9.517   3.270 -0.2293 -0.3561 -0.3291
  257MOL0     O34568   0.942   9.566   3.340 -0.7706  0.9466  0.0262
  257MOL0     C34569   1.062   9.576   3.267  0.6957 -0.5221  1.0917
  257MOL0     C34570   1.132   9.443   3.282 -0.7792 -0.4002  0.4435
  257MOL0     C34571   1.277   9.424   3.214  0.4737 -0.0421 -0.1734
  257MOL0     C34572   1.383   9.538   3.260  0.0854  0.8914 -0.8614
  257MOL0     C34573   1.510   9.515   3.179 -0.2157 -0.2030 -0.7763
  257MOL0     C34574   1.620   9.621   3.212  0.2734 -0.2509 -0.1266
  257MOL0     C34575   1.758   9.584   3.149 -0.1470 -0.1738  0.3639
  257MOL0     C34576   1.848   9.706   3.149  0.5190 -0.3145 -0.7100
  257MOL0     N34577   1.986   9.664   3.121 -0.1191 -0.0945  0.6450
  257MOL0     C34578   2.057   9.713   3.010  0.0704 -0.3120 -0.8505
  257MOL0     C34579   2.169   9.640   3.015 -0.3587  0.3131 -0.1876
  257MOL0     C34580   2.281   9.650   2.910  0.3444  0.2141  0.9730
  257MOL0     C34581   2.394   9.539   2.919  0.4423 -0.2579  0.1262
  257MOL0     C34582   2.495   9.568   2.813  0.8668 -0.3332 -0.7196
  257MOL0     C34583   2.567   9.432   2.770  0.8554 -0.6330  0.0955
  257MOL0     O34584   2.640   9.462   2.646  0.4236  0.9615 -0.6043
  257MOL0     C34585   2.772   9.439   2.651 -0.6169 -0.8521 -0.2758
  257MOL0     C34586   2.855   9.540   2.605 -0.1283 -0.1888  0.0780
  257MOL0     C34587   2.988   9.531   2.613 -1.1538  0.6773  0.2064
  257MOL0     C34588   3.059   9.422   2.659 -0.2830  0.2398  0.5828
  257MOL0     C34589   3.212   9.428   2.657  0.3770  0.5592 -0.3759
  257MOL0     O34590   3.280   9.328   2.732 -0.1478  0.4533 -0.0096
  257MOL0     C34591   3.408   9.307   2.708 -1.0991  0.0397  0.7008
  257MOL0     C34592   3.461   9.274   2.578  0.0322 -0.3682  0.9576
  257MOL0     C34593   3.602   9.257   2.551 -0.3196  0.3796 -0.3246
  257MOL0     C34594   3.701   9.267   2.653  0.3493 -0.6902  0.3516
  257MOL0     O34595   3.845   9.247   2.657 -0.1499  0.0569 -0.2254
  257MOL0     C34596   3.904   9.180   2.546 -0.4321 -0.4184  0.1469
  257MOL0     C34597   3.876   9.033   2.544  0.0962 -0.8957  0.0677
  257MOL0     C34598   3.939   8.967   2.672 -0.0069  0.5044  0.4834
  257MOL0     C34599   4.090   8.978   2.669 -0.0701  0.0698  0.3158
  257MOL0     C34600   4.147   8.838   2.633 -0.2079 -0.3914 -0.5417
  257MOL0     C34601   4.298   8.839   2.640 -0.6274 -0.2944  0.3381
  257MOL0     C34602   4.356   8.817   2.777  0.5829 -0.4931  0.0911
  257MOL0     C34603   4.507   8.785   2.790  0.3285 -0.4987 -0.6219
  257MOL0    Cl34604   4.603   8.902   2.701 -0.4525 -0.3554  0.2172
  257MOL0     C34605   3.640   9.294   2.779 -0.0216 -0.0604  0.2131
  257MOL0     C34606   3.505   9.320   2.804 -0.6222  0.1619 -0.4251
  257MOL0     O34607   3.266   9.524   2.606 -0.1621 -0.4222  0.3542
  257MOL0     C34608   2.974   9.316   2.701 -1.1202 -0.6301 -0.0499
  257MOL0     C34609   2.837   9.322   2.695  0.6119  0.3994 -0.1814
  257MOL0     N34610   2.161   9.541   3.115  0.9662 -0.4552 -0.0106
  257MOL0     N34611   2.057   9.565   3.180 -0.4833 -0.1985 -0.5311
  257MOL0     C34612   0.711   9.522   3.346  0.0752  0.2986  0.8623
  257MOL0     C34613   0.589   9.469   3.297  0.2624  0.4259  0.1756
  257MOL0     C34614   0.315   9.178   3.205  0.1680 -1.1136 -0.0660
  257MOL0     C34615   0.299   9.042   3.218 -0.3445 -0.0871  0.1328
  257MOL0     C34616   0.176   8.988   3.256 -0.3691  0.6014 -0.7315
  257MOL0     C34617   0.066   9.066   3.279  0.3427  0.1757 -0.5108
  257MOL0     O34618  -0.046   8.995   3.312 -0.2512 -0.3980 -0.2800
  257MOL0     C34619  -0.145   9.070   3.373  0.2607  0.1702 -0.0548
  257MOL0     C34620  -0.268   8.972   3.395  0.4870  0.0061 -0.3813
  257MOL0     C34621  -0.225   8.895   3.523  0.0635  0.6637 -0.1876
  257MOL0     C34622  -0.334   8.788   3.556 -0.0054  0.2738  0.2305
  257MOL0     C34623  -0.280   8.675   3.631  0.7657 -0.5738  0.5015
  257MOL0     C34624  -0.251   8.574   3.685  0.4395 -0.4802 -0.3416
  257MOL0     C34625   0.075   9.204   3.246 -0.0148 -0.6534 -0.2405
  257MOL0     C34626   0.202   9.267   3.220  0.0152  0.0589 -0.1304
  257MOL0     C34627   0.208   9.417   3.193 -0.0161 -1.0928 -0.5363
  257MOL0     H34628   0.701   9.355   2.992 -0.9995  0.7549  0.2798
  257MOL0     H34629   0.906   9.447   3.074  1.4575 -1.4221  2.0255
  257MOL0     H34630   1.053   9.598   3.160 -1.6319 -2.5887  0.7588
  257MOL0     H34631   1.118   9.653   3.321 -0.4047  1.5905 -0.6413
  257MOL0     H34632   1.064   9.374   3.230 -1.5255 -1.7017  2.9720
  257MOL0     H34633   1.147   9.417   3.387  0.5073 -0.2219  0.3144
  257MOL0     H34634   1.255   9.421   3.107  0.6997 -1.0438 -0.2010
  257MOL0     H34635   1.315   9.324   3.240 -2.0960 -0.7457  1.3024
  257MOL0     H34636   1.348   9.639   3.237 -1.3049  0.8969  1.0768
  257MOL0     H34637   1.402   9.541   3.367 -1.6237  2.1101 -0.5510
  257MOL0     H34638   1.546   9.412   3.185  2.0778  0.6027  0.6052
  257MOL0     H34639   1.473   9.529   3.077  1.4625  0.0306 -1.3894
  257MOL0     H34640   1.589   9.724   3.191 -0.3879 -0.2483  0.8598
  257MOL0     H34641   1.635   9.630   3.320  1.3889 -0.6907 -0.2347
  257MOL0     H34642   1.738   9.557   3.045  1.1068  0.4960 -0.0654
  257MOL0     H34643   1.800   9.493   3.191  3.2107  0.7278 -0.7663
  257MOL0     H34644   1.814   9.778   3.075  0.6175 -0.8257 -1.2599
  257MOL0     H34645   1.846   9.754   3.247 -0.1860  0.0296 -0.8869
  257MOL0     H34646   2.028   9.793   2.943 -0.6819  1.2541  1.2595
  257MOL0     H34647   2.238   9.645   2.810  0.8723 -1.7177  0.7953
  257MOL0     H34648   2.327   9.749   2.924  1.8873 -0.0425 -1.6081
  257MOL0     H34649   2.440   9.532   3.018 -0.4991  3.1018  0.9357
  257MOL0     H34650   2.351   9.441   2.897  0.6598 -0.5920  1.1324
  257MOL0     H34651   2.562   9.644   2.855  0.1591 -2.3572  4.9902
  257MOL0     H34652   2.454   9.608   2.720  0.4147 -2.7333 -1.6131
  257MOL0     H34653   2.494   9.353   2.756 -0.0798 -0.5867  3.6605
  257MOL0     H34654   2.629   9.401   2.855  0.5272  0.7657  0.8888
  257MOL0     H34655   2.815   9.630   2.560 -1.0582 -0.1427  0.9668
  257MOL0     H34656   3.050   9.602   2.559 -0.9945  0.9722  0.7655
  257MOL0     H34657   3.390   9.267   2.496  0.3988 -0.6055  0.6564
  257MOL0     H34658   3.638   9.238   2.450  1.6177  3.0933 -0.2568
  257MOL0     H34659   3.868   9.227   2.454 -1.4789  0.6064  1.0595
  257MOL0     H34660   4.011   9.200   2.535 -0.3277 -0.8659  0.3158
  257MOL0     H34661   3.771   9.005   2.552  0.0956 -1.0461 -0.4062
  257MOL0     H34662   3.915   8.977   2.459  0.4775 -0.3627 -0.1183
  257MOL0     H34663   3.907   9.015   2.765 -1.7282 -1.4219  0.9619
  257MOL0     H34664   3.908   8.863   2.684 -0.8798  0.2779 -2.7809
  257MOL0     H34665   4.130   9.010   2.766 -1.0581  1.3691  0.3305
  257MOL0     H34666   4.127   9.045   2.591 -0.5585 -1.8691 -1.6997
  257MOL0     H34667   4.105   8.805   2.538 -0.6087  1.1049 -0.9079
  257MOL0     H34668   4.118   8.769   2.713  0.6276 -2.1821 -1.7158
  257MOL0     H34669   4.344   8.768   2.571 -4.0052 -1.2756 -1.1324
  257MOL0     H34670   4.329   8.940   2.613 -0.7917  0.4683  2.7724
  257MOL0     H34671   4.303   8.730   2.818  0.5411 -0.9993 -0.9929
  257MOL0     H34672   4.331   8.900   2.844  1.3007 -1.3036  1.4144
  257MOL0     H34673   4.536   8.791   2.895  3.5339  1.8042 -1.4892
  257MOL0     H34674   4.530   8.683   2.761 -0.4496 -1.3946  1.7044
  257MOL0     H34675   3.704   9.295   2.866  2.4504  1.0329 -1.4794
  257MOL0     H34676   3.476   9.347   2.905 -2.0841  0.9931 -1.0495
  257MOL0     H34677   3.011   9.220   2.736 -3.2447 -1.1560  0.8912
  257MOL0     H34678   2.784   9.227   2.701  0.2383  0.6775  3.6495
  257MOL0     H34679   0.718   9.566   3.444  2.5973  2.5288 -0.1939
  257MOL0     H34680   0.500   9.480   3.359  1.8536 -1.7672  3.1483
  257MOL0     H34681   0.382   8.972   3.221  0.4786  0.8191 -0.6041
  257MOL0     H34682   0.159   8.882   3.274  0.1170  0.9440  2.3260
  257MOL0     H34683  -0.174   9.165   3.326  0.2675  0.2113  0.0242
  257MOL0     H34684  -0.103   9.097   3.470  1.1571 -0.6740 -0.1958
  257MOL0     H34685  -0.277   8.907   3.308  1.6249 -0.0772 -0.4403
  257MOL0     H34686  -0.365   9.021   3.409  0.4413  0.6558 -2.5251
  257MOL0     H34687  -0.206   8.965   3.605 -1.7276  0.1234  0.7446
  257MOL0     H34688  -0.127   8.847   3.515  0.9447  2.1201  1.1925
  257MOL0     H34689  -0.409   8.830   3.624 -1.0852 -0.1743 -0.6587
  257MOL0     H34690  -0.384   8.749   3.467  1.0288 -0.6443  0.0338
  257MOL0     H34691  -0.212   8.482   3.725  0.4815 -0.5526 -0.5472
  257MOL0     H34692  -0.006   9.275   3.259  1.2856  1.2786 -2.0290
  257MOL0     H34693   0.110   9.464   3.206  0.6362 -0.3569  2.3158
  257MOL0     H34694   0.274   9.461   3.268 -2.7618 -2.2066  2.7822
  257MOL0     H34695   0.240   9.426   3.089 -0.6870 -1.1862 -0.7564
  258MOL0     O34696   5.795   7.806   9.139  0.7903  0.0809 -0.5006
  258MOL0     C34697   5.753   7.686   9.126 -0.0086 -0.3579 -1.2477
  258MOL0     O34698   5.828   7.570   9.112  0.1860  0.5896 -0.7654
  258MOL0     C34699   5.968   7.567   9.111 -0.1443  0.9176  0.1814
  258MOL0     C34700   6.028   7.448   9.148 -0.4024 -0.2310  0.0734
  258MOL0     C34701   6.173   7.440   9.143  0.1505  0.2246  0.7571
  258MOL0     C34702   6.250   7.545   9.095  0.9699 -0.7795  0.1083
  258MOL0     O34703   6.385   7.528   9.070  0.0698  0.0191  0.6989
  258MOL0     C34704   6.464   7.646   9.068 -0.2776 -0.0524  0.5037
  258MOL0     C34705   6.606   7.607   9.103  0.0689 -0.2806 -0.1053
  258MOL0     C34706   6.703   7.709   9.039  0.9260 -0.3458 -0.1815
  258MOL0     C34707   6.848   7.671   9.065  0.1104 -0.2785 -0.3739
  258MOL0     C34708   6.925   7.780   8.987 -0.3854  0.0215  0.4342
  258MOL0     C34709   7.050   7.722   8.925 -0.3107  0.0913 -0.9829
  258MOL0     C34710   7.123   7.818   8.823  0.6267  0.8268 -0.3459
  258MOL0     C34711   7.193   7.932   8.894 -1.4813 -0.4745 -0.7961
  258MOL0     N34712   7.323   7.873   8.948 -0.0100  1.0922 -0.8604
  258MOL0     C34713   7.445   7.879   8.889 -0.6673  0.0258  0.1571
  258MOL0     C34714   7.514   7.798   8.976  0.6314  0.9246 -0.2782
  258MOL0     C34715   7.653   7.757   8.959 -0.1945  0.6202  0.7108
  258MOL0     C34716   7.745   7.866   8.905  0.3019  0.1655 -0.9030
  258MOL0     C34717   7.889   7.815   8.902  0.4748  0.0928  0.3467
  258MOL0     C34718   7.974   7.922   8.820 -0.3331 -0.1150  0.0148
  258MOL0     O34719   8.098   7.861   8.854  0.2094 -0.4067 -0.6398
  258MOL0     C34720   8.213   7.918   8.795 -0.0346 -0.5552  0.7199
  258MOL0     C34721   8.224   8.045   8.738  0.7487 -0.0014  0.0624
  258MOL0     C34722   8.337   8.083   8.679 -0.0497  0.2559  0.6511
  258MOL0     C34723   8.448   7.996   8.687 -0.0275  0.2341  0.1560
  258MOL0     C34724   8.579   8.034   8.636  0.0075 -0.6692  0.0201
  258MOL0     O34725   8.608   8.168   8.613 -0.3943 -0.0885  0.3896
  258MOL0     C34726   8.724   8.196   8.551 -0.4189  0.5609  0.4402
  258MOL0     C34727   8.847   8.161   8.610 -0.5297 -0.4541  0.4417
  258MOL0     C34728   8.965   8.216   8.559  0.3713  0.4771  0.2184
  258MOL0     C34729   8.960   8.301   8.448  0.2575  0.5323  1.4943
  258MOL0     O34730   9.080   8.340   8.394  0.0497  0.5935 -0.1213
  258MOL0     C34731   9.080   8.415   8.270  0.3596 -0.8930  0.4566
  258MOL0     C34732   9.218   8.464   8.239 -0.1017  0.5863 -1.0925
  258MOL0     C34733   9.298   8.364   8.151  0.3291 -0.7174 -0.3733
  258MOL0     C34734   9.422   8.442   8.113 -0.5503  0.6034  0.5342
  258MOL0     C34735   9.517   8.369   8.013  0.5753  0.1019 -0.6042
  258MOL0     C34736   9.656   8.431   8.027  0.6472 -0.3943 -0.3663
  258MOL0     C34737   9.664   8.583   8.010  0.1719  0.5465  0.3694
  258MOL0     C34738   9.784   8.642   8.100 -0.3315  0.3440  0.3753
  258MOL0    Cl34739   9.937   8.553   8.067  0.0536  0.5000  0.0817
  258MOL0     C34740   8.833   8.336   8.390  0.4943 -0.1769 -0.6406
  258MOL0     C34741   8.715   8.287   8.450 -0.8011  0.0140 -0.0372
  258MOL0     O34742   8.658   7.942   8.604 -0.0361  1.3403  0.2496
  258MOL0     C34743   8.434   7.867   8.756 -0.0208  0.0342  0.0977
  258MOL0     C34744   8.316   7.833   8.805 -0.0117  0.5374  0.6957
  258MOL0     N34745   7.439   7.765   9.089  1.2540 -1.0166 -0.3550
  258MOL0     N34746   7.316   7.810   9.071 -0.3078  0.0101 -0.0127
  258MOL0     C34747   6.184   7.666   9.072  0.6874  0.7673  0.3316
  258MOL0     C34748   6.041   7.673   9.078  0.8283  0.5954  0.1122
  258MOL0     C34749   5.609   7.671   9.126  1.4728 -0.6267 -0.6595
  258MOL0     C34750   5.547   7.565   9.038 -0.2093 -0.0982 -0.9380
  258MOL0     C34751   5.411   7.531   9.050 -0.1716 -0.0373  0.0185
  258MOL0     C34752   5.329   7.615   9.128  0.5345 -0.4174  0.8486
  258MOL0     O34753   5.201   7.578   9.122  0.4653  0.1713  0.4793
  258MOL0     C34754   5.152   7.506   9.227  0.4471 -0.0744 -0.3329
  258MOL0     C34755   5.028   7.437   9.172  0.6195  0.1614 -0.0638
  258MOL0     C34756   4.993   7.326   9.271 -0.0978  1.0432 -0.7469
  258MOL0     C34757   4.901   7.221   9.210  1.2173  0.3677  0.5084
  258MOL0     C34758   4.773   7.290   9.176 -0.5519 -0.7930 -0.6813
  258MOL0     C34759   4.665   7.350   9.159 -0.2564 -1.3252  0.4987
  258MOL0     C34760   5.382   7.716   9.211 -0.4874  0.4188 -0.9276
  258MOL0     C34761   5.520   7.737   9.212  0.9420 -0.6660 -0.6419
  258MOL0     C34762   5.563   7.845   9.311 -0.1208  0.8384 -0.1466
  258MOL0     H34763   5.980   7.360   9.190  2.5336 -1.3250  1.4016
  258MOL0     H34764   6.222   7.345   9.159 -3.3077 -1.4545  2.4493
  258MOL0     H34765   6.471   7.678   8.964  0.4229  1.4339  0.9693
  258MOL0     H34766   6.437   7.727   9.136  1.0113 -0.3683  1.4343
  258MOL0     H34767   6.626   7.508   9.060 -1.4046 -1.2868  1.4027
  258MOL0     H34768   6.610   7.606   9.212  0.5983 -0.0351 -0.1179
  258MOL0     H34769   6.685   7.808   9.081 -1.2867 -0.0234 -1.7203
  258MOL0     H34770   6.682   7.724   8.933 -1.8692 -1.2208  0.1509
  258MOL0     H34771   6.877   7.670   9.170  0.5947  0.9406 -0.4835
  258MOL0     H34772   6.875   7.573   9.024  0.0214 -0.4947  0.0854
  258MOL0     H34773   6.866   7.806   8.899  0.2830 -1.2586 -0.4132
  258MOL0     H34774   6.954   7.868   9.046  1.5333  0.3723 -0.9247
  258MOL0     H34775   7.118   7.685   9.001  1.2312 -0.2763 -2.4674
  258MOL0     H34776   7.029   7.628   8.872  0.6699 -0.1556 -0.9418
  258MOL0     H34777   7.055   7.864   8.751  1.5944  0.7652 -1.3211
  258MOL0     H34778   7.187   7.766   8.752  0.1639  0.8834 -0.8080
  258MOL0     H34779   7.211   8.024   8.839  0.0645  0.4200  1.0667
  258MOL0     H34780   7.127   7.970   8.973  0.4443  0.2078  0.5426
  258MOL0     H34781   7.471   7.942   8.805 -2.0583  3.0462  1.8318
  258MOL0     H34782   7.678   7.726   9.061 -1.5488 -1.1851  0.5373
  258MOL0     H34783   7.663   7.670   8.892  0.7641 -1.0284  2.8569
  258MOL0     H34784   7.712   7.905   8.808  0.8330 -0.3495 -1.2986
  258MOL0     H34785   7.733   7.953   8.969 -2.4205 -1.5681  1.1930
  258MOL0     H34786   7.892   7.719   8.849  1.5386  0.0235  0.5163
  258MOL0     H34787   7.932   7.810   9.002  1.5927  2.5197  0.0590
  258MOL0     H34788   7.962   8.020   8.867  1.8609 -0.0552  0.5864
  258MOL0     H34789   7.938   7.916   8.717  0.3735 -0.2711 -0.2294
  258MOL0     H34790   8.139   8.112   8.745 -0.5772 -1.5560 -0.6084
  258MOL0     H34791   8.347   8.171   8.617  0.1376 -0.8169 -0.8821
  258MOL0     H34792   8.867   8.101   8.698 -0.2718 -0.0743  0.6471
  258MOL0     H34793   9.064   8.202   8.601  1.0880 -1.4095 -1.8790
  258MOL0     H34794   9.039   8.356   8.187 -0.3184 -1.2067  1.0030
  258MOL0     H34795   9.023   8.508   8.273 -1.1860 -1.7546 -0.7981
  258MOL0     H34796   9.207   8.555   8.180 -1.3514 -0.2564 -2.2248
  258MOL0     H34797   9.274   8.481   8.331 -2.4464  1.9113  0.1716
  258MOL0     H34798   9.331   8.276   8.206 -0.7455 -0.7437  0.2393
  258MOL0     H34799   9.240   8.337   8.062  2.1312 -1.8716 -1.2540
  258MOL0     H34800   9.476   8.469   8.204  2.4731 -0.9033 -0.6727
  258MOL0     H34801   9.385   8.528   8.056 -1.0033  0.3434  0.4297
  258MOL0     H34802   9.478   8.375   7.911  0.1501 -2.1298 -0.6257
  258MOL0     H34803   9.523   8.264   8.045  0.0522 -0.0181 -0.8863
  258MOL0     H34804   9.695   8.409   8.127  2.1799  3.6773  0.1249
  258MOL0     H34805   9.731   8.393   7.957  3.1633 -0.1417  2.0333
  258MOL0     H34806   9.571   8.636   8.033  0.2123  1.6342 -1.7343
  258MOL0     H34807   9.678   8.608   7.905 -1.9802  0.8342  0.1028
  258MOL0     H34808   9.797   8.749   8.083  1.7196  0.0453 -0.2671
  258MOL0     H34809   9.751   8.626   8.203 -2.9843 -1.7154 -0.6622
  258MOL0     H34810   8.819   8.405   8.307 -1.5276  0.1914 -0.0487
  258MOL0     H34811   8.621   8.335   8.423 -1.0049  0.5273  1.5259
  258MOL0     H34812   8.518   7.798   8.754 -0.3056 -0.3112 -1.3613
  258MOL0     H34813   8.302   7.736   8.852  1.9152 -0.6834 -1.0616
  258MOL0     H34814   6.227   7.755   9.029  0.1724  1.3264  0.9580
  258MOL0     H34815   5.995   7.767   9.048 -0.8108 -0.2957 -0.2480
  258MOL0     H34816   5.612   7.507   8.973 -2.4035 -0.9499 -2.5318
  258MOL0     H34817   5.370   7.447   8.994  0.7149  1.5999 -3.3971
  258MOL0     H34818   5.130   7.577   9.306 -1.3974 -0.5047 -0.4003
  258MOL0     H34819   5.232   7.438   9.259  2.6104  2.4477 -0.0817
  258MOL0     H34820   5.044   7.405   9.069 -0.4375 -1.8352  0.3475
  258MOL0     H34821   4.943   7.506   9.171 -0.5501 -1.1383  1.9900
  258MOL0     H34822   4.947   7.385   9.352  1.1375  2.4838 -1.0536
  258MOL0     H34823   5.077   7.280   9.323  0.0123  0.7771 -1.1572
  258MOL0     H34824   4.930   7.176   9.114 -0.7898 -1.1858  0.5586
  258MOL0     H34825   4.888   7.139   9.281  2.9530 -2.1751 -1.9145
  258MOL0     H34826   4.573   7.401   9.139  0.2144 -1.4764 -2.6817
  258MOL0     H34827   5.315   7.768   9.278 -0.8584 -0.9281 -0.2309
  258MOL0     H34828   5.480   7.871   9.376  0.3640  0.8004  0.4938
  258MOL0     H34829   5.644   7.799   9.369  1.5074  2.0748 -1.3271
  258MOL0     H34830   5.591   7.942   9.270 -1.3526  2.4399  2.5731
  259MOL0     O34831   9.430   4.057   2.088  0.5798  0.1293  0.0686
  259MOL0     C34832   9.405   4.153   2.010 -0.7815  0.2338 -1.3641
  259MOL0     O34833   9.505   4.241   1.972 -0.2067  0.3935 -1.0745
  259MOL0     C34834   9.636   4.232   2.017  0.3184 -0.0743 -1.1706
  259MOL0     C34835   9.684   4.193   2.146  0.2812 -0.3123 -0.1462
  259MOL0     C34836   9.821   4.216   2.178 -0.4659  0.3976  0.3590
  259MOL0     C34837   9.909   4.268   2.081 -0.7977 -0.3161  0.3700
  259MOL0     O34838  10.037   4.262   2.129 -0.1586  0.0072 -0.1379
  259MOL0     C34839  10.140   4.256   2.032  1.0022 -0.4982 -0.0606
  259MOL0     C34840  10.254   4.191   2.093  0.2650  0.2489 -0.2646
  259MOL0     C34841  10.325   4.296   2.182  0.1997  0.4295  0.6632
  259MOL0     C34842  10.409   4.234   2.305  0.8713 -0.4389  0.3152
  259MOL0     C34843  10.554   4.283   2.294 -0.2655  0.3261 -0.9952
  259MOL0     C34844  10.639   4.209   2.188 -0.3492  0.1398 -0.3374
  259MOL0     C34845  10.785   4.230   2.210  0.2643 -0.0994  0.5793
  259MOL0     C34846  10.850   4.186   2.356 -0.2918 -0.4115  0.0183
  259MOL0     N34847  10.881   4.043   2.362  0.1907 -0.2671 -0.9670
  259MOL0     C34848  10.992   3.990   2.296 -0.6099  0.5394 -0.7620
  259MOL0     C34849  10.981   3.852   2.319  1.1728  0.3132  0.2193
  259MOL0     C34850  11.057   3.756   2.231 -0.1334  1.4920 -0.1066
  259MOL0     C34851  11.194   3.716   2.290  0.0505 -1.1401 -0.0230
  259MOL0     C34852  11.309   3.789   2.232 -0.3753 -0.0661 -0.5265
  259MOL0     C34853  11.435   3.774   2.317 -0.2791 -0.2197 -0.9160
  259MOL0     O34854  11.424   3.865   2.428 -0.8361 -0.0533 -0.1260
  259MOL0     C34855  11.541   3.884   2.505  0.6494  0.0127 -0.1257
  259MOL0     C34856  11.533   3.989   2.592 -0.3983 -0.4721  0.4644
  259MOL0     C34857  11.643   4.016   2.673  1.0623  0.6698  0.3902
  259MOL0     C34858  11.768   3.954   2.668  1.0618 -0.8233 -0.2113
  259MOL0     C34859  11.874   3.991   2.753  0.2445 -0.4648  0.3259
  259MOL0     O34860  11.842   4.082   2.847  0.0208  0.1597  0.5002
  259MOL0     C34861  11.942   4.166   2.887 -0.0223 -0.0183  0.4683
  259MOL0     C34862  11.944   4.200   3.019 -0.0003  0.2333  0.2623
  259MOL0     C34863  12.037   4.293   3.072 -0.4603 -0.4998  0.5488
  259MOL0     C34864  12.139   4.351   2.991  0.2923  0.2423  0.3304
  259MOL0     O34865  12.218   4.454   3.030 -0.2690  0.1064 -0.0348
  259MOL0     C34866  12.163   4.558   3.113 -0.0113 -1.5933  0.2445
  259MOL0     C34867  12.211   4.700   3.088 -0.3638 -0.5118  0.1910
  259MOL0     C34868  12.153   4.741   2.947 -0.7289  0.1333  0.5629
  259MOL0     C34869  12.241   4.855   2.877  0.8004 -0.0447  0.3162
  259MOL0     C34870  12.165   4.890   2.748 -0.3154  0.2655  1.0285
  259MOL0     C34871  12.169   4.776   2.637 -0.1139 -0.4827  0.3422
  259MOL0     C34872  12.159   4.826   2.492  0.0749 -1.6646  0.7537
  259MOL0     C34873  12.038   4.906   2.453 -0.2812 -0.3718 -0.6548
  259MOL0    Cl34874  12.034   4.923   2.278  0.8115 -0.2403 -0.1360
  259MOL0     C34875  12.144   4.312   2.856 -0.4229  0.1459 -0.1393
  259MOL0     C34876  12.045   4.225   2.802  0.1096 -0.3377  0.3487
  259MOL0     O34877  11.980   3.944   2.727 -0.3137 -0.1292  0.1857
  259MOL0     C34878  11.769   3.851   2.576  0.4083  0.3091 -0.5325
  259MOL0     C34879  11.661   3.810   2.497  0.1663  0.0356 -0.9162
  259MOL0     N34880  10.870   3.826   2.412 -0.3703 -0.3890  0.8462
  259MOL0     N34881  10.817   3.939   2.435 -1.2261  0.0490  0.3250
  259MOL0     C34882   9.867   4.295   1.948 -0.5079 -0.4134 -0.6277
  259MOL0     C34883   9.729   4.282   1.929 -0.1514 -0.5921 -0.4320
  259MOL0     C34884   9.263   4.181   1.976 -0.3896  0.2041  0.1666
  259MOL0     C34885   9.227   4.310   1.916  1.2855  0.3198 -0.2417
  259MOL0     C34886   9.099   4.346   1.875  0.2444  0.3073 -0.9168
  259MOL0     C34887   8.995   4.253   1.894 -0.2808  0.1339 -0.6346
  259MOL0     O34888   8.873   4.270   1.842  0.2368 -0.2212 -0.8191
  259MOL0     C34889   8.764   4.296   1.932  0.3652 -0.4339 -0.4556
  259MOL0     C34890   8.653   4.379   1.860  0.2815  0.0921 -0.0836
  259MOL0     C34891   8.575   4.486   1.948 -0.3798 -0.5136 -0.8741
  259MOL0     C34892   8.500   4.577   1.858  0.4255 -0.5417 -0.4803
  259MOL0     C34893   8.422   4.674   1.930 -1.3731  0.0400  0.1969
  259MOL0     C34894   8.371   4.761   1.988  0.2599  0.2109 -0.2425
  259MOL0     C34895   9.018   4.123   1.945 -0.1041 -0.8190 -0.5570
  259MOL0     C34896   9.147   4.096   1.995  0.6977 -0.1918 -0.3741
  259MOL0     C34897   9.155   3.956   2.046 -0.0482 -0.1623  0.6762
  259MOL0     H34898   9.618   4.148   2.219 -0.1452  0.7873  0.1708
  259MOL0     H34899   9.858   4.183   2.275 -0.4118 -1.2060 -0.1853
  259MOL0     H34900  10.108   4.193   1.949  0.7025 -1.9637  1.1293
  259MOL0     H34901  10.170   4.357   2.003 -0.1091  0.4359  1.8567
  259MOL0     H34902  10.328   4.166   2.017 -1.2764  1.2041 -2.1645
  259MOL0     H34903  10.222   4.111   2.160  2.2341  1.7354  2.7063
  259MOL0     H34904  10.260   4.375   2.221  1.0968  1.5410 -0.0201
  259MOL0     H34905  10.395   4.350   2.118  0.3673 -1.2008 -0.5917
  259MOL0     H34906  10.365   4.270   2.399  1.0294  0.8108 -0.0631
  259MOL0     H34907  10.412   4.125   2.304  3.9002 -0.4715  1.4781
  259MOL0     H34908  10.552   4.391   2.280  0.1018  0.8573  2.2810
  259MOL0     H34909  10.596   4.261   2.392  0.0536 -0.8122 -1.3759
  259MOL0     H34910  10.614   4.103   2.199 -0.7873  0.0310 -2.0478
  259MOL0     H34911  10.599   4.236   2.090 -3.6887  0.7682  1.0546
  259MOL0     H34912  10.813   4.334   2.190  0.6338 -0.1053  1.0318
  259MOL0     H34913  10.847   4.169   2.143 -0.3156  0.6882 -0.7127
  259MOL0     H34914  10.926   4.260   2.385 -3.2632  1.8845  2.6263
  259MOL0     H34915  10.775   4.208   2.432  0.3403  1.6714  0.0993
  259MOL0     H34916  11.058   4.040   2.226 -1.4165  3.2860  0.3052
  259MOL0     H34917  10.997   3.665   2.220 -0.3992  1.7707 -1.0773
  259MOL0     H34918  11.067   3.793   2.128  0.2119 -0.8137 -0.9452
  259MOL0     H34919  11.191   3.746   2.395 -0.6503 -3.0550  0.5453
  259MOL0     H34920  11.196   3.607   2.283 -3.8250 -1.3656 -0.1235
  259MOL0     H34921  11.297   3.898   2.229  0.9889  0.1225  0.0832
  259MOL0     H34922  11.334   3.758   2.130  1.9660 -0.4183  0.1110
  259MOL0     H34923  11.522   3.792   2.253  0.2849 -0.8242 -0.3361
  259MOL0     H34924  11.451   3.672   2.354 -1.7221 -0.2939 -0.4390
  259MOL0     H34925  11.450   4.055   2.616 -0.3286  1.2176 -3.2936
  259MOL0     H34926  11.623   4.107   2.729 -0.2732  0.7394 -0.1453
  259MOL0     H34927  11.876   4.149   3.087 -1.0676  0.4707 -0.5891
  259MOL0     H34928  12.040   4.329   3.174 -0.7286  0.7939  0.1123
  259MOL0     H34929  12.055   4.570   3.104  0.0885  0.2731  1.0938
  259MOL0     H34930  12.192   4.531   3.215  3.9633 -0.2363 -0.3359
  259MOL0     H34931  12.167   4.769   3.160  2.6301  1.5192  0.2933
  259MOL0     H34932  12.320   4.708   3.080 -0.2544 -0.0019  1.8215
  259MOL0     H34933  12.149   4.652   2.883 -0.0384  0.8207 -0.4618
  259MOL0     H34934  12.048   4.770   2.950 -1.0973 -0.0957 -3.5637
  259MOL0     H34935  12.348   4.834   2.861  0.8215 -0.0598  0.4750
  259MOL0     H34936  12.241   4.943   2.942 -1.2245  1.2798 -1.3479
  259MOL0     H34937  12.205   4.986   2.712 -1.2438  1.2521  2.5102
  259MOL0     H34938  12.059   4.910   2.764 -0.6304 -2.0828  2.2359
  259MOL0     H34939  12.268   4.732   2.653 -1.3018 -4.9118 -2.7642
  259MOL0     H34940  12.089   4.707   2.662  0.3290 -0.8727  0.6954
  259MOL0     H34941  12.154   4.743   2.422 -1.0887 -0.8970 -0.1069
  259MOL0     H34942  12.253   4.878   2.472 -0.8337  0.1312  0.9484
  259MOL0     H34943  11.943   4.873   2.497 -0.5478  0.9033 -0.2395
  259MOL0     H34944  12.042   5.007   2.494 -1.6574 -0.8411  0.7324
  259MOL0     H34945  12.219   4.340   2.782 -0.6559 -1.6699 -1.1205
  259MOL0     H34946  12.052   4.211   2.695  0.0603  1.7605  0.0337
  259MOL0     H34947  11.855   3.787   2.562 -0.4773 -1.5484  1.8052
  259MOL0     H34948  11.682   3.732   2.423  0.0244 -1.2861  0.3902
  259MOL0     H34949   9.938   4.310   1.867  3.0602 -0.0175  2.2998
  259MOL0     H34950   9.699   4.319   1.831 -1.5297  0.7162  0.4397
  259MOL0     H34951   9.312   4.371   1.887  1.2178  1.1647  1.2312
  259MOL0     H34952   9.079   4.439   1.823  1.8169  0.2594 -1.6451
  259MOL0     H34953   8.797   4.342   2.026  0.5188  0.3637 -0.8924
  259MOL0     H34954   8.732   4.194   1.955 -0.7353  0.0157  0.0500
  259MOL0     H34955   8.585   4.306   1.816 -2.5563  1.1039  2.2894
  259MOL0     H34956   8.702   4.435   1.780  2.3855 -2.3952 -0.6474
  259MOL0     H34957   8.645   4.542   2.009 -2.0038 -0.5640  1.1489
  259MOL0     H34958   8.511   4.427   2.015  0.5747 -1.2186 -0.5614
  259MOL0     H34959   8.573   4.639   1.804 -1.1358  1.6351 -0.2027
  259MOL0     H34960   8.437   4.527   1.785  1.1403 -1.5947 -0.3955
  259MOL0     H34961   8.330   4.843   2.044 -0.5858  1.9371 -3.1193
  259MOL0     H34962   8.936   4.052   1.941 -1.5618  0.8484 -1.8599
  259MOL0     H34963   9.204   3.888   1.976  1.4399  1.0289  0.4967
  259MOL0     H34964   9.205   3.939   2.142  0.4362 -0.5757  0.3566
  259MOL0     H34965   9.055   3.917   2.064  0.1095  0.3840  3.0489
  260MOL0     O34966   0.664   7.784   7.079  0.4450 -0.1967 -0.1874
  260MOL0     C34967   0.578   7.857   7.033  1.0424 -0.4614 -0.3746
  260MOL0     O34968   0.596   7.954   6.936 -0.2916 -0.0371 -0.0364
  260MOL0     C34969   0.728   7.965   6.900  0.6400 -0.8813  0.4504
  260MOL0     C34970   0.770   7.898   6.782 -0.1994 -0.3607  0.4180
  260MOL0     C34971   0.903   7.895   6.737 -0.2949  0.3299  0.5460
  260MOL0     C34972   0.996   7.960   6.818 -0.3889  0.4159 -0.8432
  260MOL0     O34973   1.121   7.969   6.773 -0.4630 -0.1173 -0.1672
  260MOL0     C34974   1.135   8.022   6.645  0.4509  0.6152 -0.0126
  260MOL0     C34975   1.285   8.011   6.605 -0.0562 -0.4601  0.3052
  260MOL0     C34976   1.311   8.096   6.476  0.3863  0.1766 -0.6094
  260MOL0     C34977   1.458   8.106   6.444 -0.7394  0.2357 -0.3207
  260MOL0     C34978   1.486   8.120   6.297  0.2228  0.1616  1.1132
  260MOL0     C34979   1.620   8.182   6.258 -0.4756 -0.9546 -0.4068
  260MOL0     C34980   1.648   8.331   6.312 -0.8376 -0.1878  0.0689
  260MOL0     C34981   1.790   8.369   6.283  0.7373  0.3212 -0.2216
  260MOL0     N34982   1.831   8.373   6.143  0.2074  0.8737 -0.4612
  260MOL0     C34983   1.865   8.255   6.075 -0.3402 -0.3486 -1.5497
  260MOL0     C34984   1.862   8.273   5.946 -0.3536 -0.1026  0.2468
  260MOL0     C34985   1.882   8.186   5.824  0.4579  0.1838  0.2494
  260MOL0     C34986   2.022   8.222   5.786  0.4174 -0.9769 -0.2694
  260MOL0     C34987   2.043   8.177   5.641 -0.3180 -0.6331 -0.4600
  260MOL0     C34988   2.059   8.025   5.624  0.3938  0.2935 -0.0603
  260MOL0     O34989   2.180   7.992   5.684 -0.7109 -0.3147 -0.0750
  260MOL0     C34990   2.228   7.858   5.677 -0.1666 -0.5644 -0.1893
  260MOL0     C34991   2.363   7.842   5.676 -0.3652  0.4616 -0.3385
  260MOL0     C34992   2.415   7.714   5.674  0.9139 -0.1400 -0.9562
  260MOL0     C34993   2.333   7.597   5.669 -0.0934  0.1300 -0.6821
  260MOL0     C34994   2.395   7.467   5.647  0.0672  0.1436  0.0156
  260MOL0     O34995   2.325   7.358   5.675  0.6596  0.1561  0.2320
  260MOL0     C34996   2.393   7.237   5.680  0.2364  1.0614  0.4236
  260MOL0     C34997   2.374   7.154   5.786  0.3328 -0.0129 -0.3517
  260MOL0     C34998   2.428   7.023   5.798 -0.4750 -0.1386 -0.8399
  260MOL0     C34999   2.512   6.972   5.706  0.5885  0.0391  1.0219
  260MOL0     O35000   2.572   6.847   5.720  0.1187 -0.6895 -0.6442
  260MOL0     C35001   2.669   6.800   5.625 -0.0285  1.0912  0.2837
  260MOL0     C35002   2.801   6.865   5.633  0.1615 -0.4448 -0.2987
  260MOL0     C35003   2.915   6.799   5.545  0.5312 -0.2366 -0.3561
  260MOL0     C35004   3.001   6.689   5.606  1.3461  0.7012 -0.1519
  260MOL0     C35005   3.147   6.689   5.552 -0.7692  0.2058  0.4714
  260MOL0     C35006   3.230   6.579   5.625 -0.2950 -0.9362  0.8204
  260MOL0     C35007   3.370   6.574   5.566  0.3244 -0.4309 -0.4653
  260MOL0     C35008   3.467   6.682   5.624  0.2657  0.0110 -0.3038
  260MOL0    Cl35009   3.505   6.661   5.793  0.4752 -0.1519 -0.1868
  260MOL0     C35010   2.527   7.052   5.587 -0.5484  0.6040 -0.4851
  260MOL0     C35011   2.466   7.178   5.573 -0.0510 -0.4236 -0.3537
  260MOL0     O35012   2.506   7.453   5.592  0.2815 -0.6749 -0.8533
  260MOL0     C35013   2.198   7.620   5.656  0.3278  0.5360 -0.1921
  260MOL0     C35014   2.147   7.749   5.666  0.6484  0.2940 -0.2159
  260MOL0     N35015   1.812   8.400   5.937  0.5494  0.7279  1.4062
  260MOL0     N35016   1.795   8.458   6.046 -0.7189 -0.3409 -0.2551
  260MOL0     C35017   0.956   8.028   6.933  0.0180 -0.3791  0.0499
  260MOL0     C35018   0.827   8.031   6.976 -0.6641 -0.3328 -0.4093
  260MOL0     C35019   0.448   7.858   7.106  0.0265  0.0504 -1.0153
  260MOL0     C35020   0.354   7.963   7.074  0.0511  0.5672 -0.8379
  260MOL0     C35021   0.224   7.966   7.137  0.8384 -0.3572  0.6568
  260MOL0     C35022   0.190   7.864   7.225  0.6527  0.3348 -1.0130
  260MOL0     O35023   0.067   7.850   7.291  0.4245 -0.1078 -0.6701
  260MOL0     C35024  -0.042   7.925   7.237  0.7137 -0.2489 -0.9083
  260MOL0     C35025  -0.167   7.889   7.326 -0.1276  0.1994 -0.4132
  260MOL0     C35026  -0.259   8.012   7.307 -0.1850 -0.7780  0.4171
  260MOL0     C35027  -0.383   7.996   7.396  0.0093 -0.1864  0.3926
  260MOL0     C35028  -0.484   8.102   7.374  0.5476 -0.5582 -0.3485
  260MOL0     C35029  -0.575   8.180   7.370 -0.4994  0.8715  0.9619
  260MOL0     C35030   0.283   7.765   7.259  0.4738 -0.2880  0.3279
  260MOL0     C35031   0.404   7.758   7.197  0.0452  0.2809 -0.8304
  260MOL0     C35032   0.489   7.638   7.225 -1.0757 -0.0656 -0.5956
  260MOL0     H35033   0.695   7.854   6.717 -1.0119 -0.6907  1.5439
  260MOL0     H35034   0.920   7.839   6.645 -0.7107 -1.4078  1.4943
  260MOL0     H35035   1.073   7.969   6.572  1.4566  2.1479 -2.0928
  260MOL0     H35036   1.087   8.120   6.641 -0.2677  0.3038  0.6516
  260MOL0     H35037   1.309   7.905   6.600  3.4531  0.1057  2.2959
  260MOL0     H35038   1.347   8.056   6.683 -0.0674  1.6352 -0.8345
  260MOL0     H35039   1.266   8.195   6.489 -2.5166 -1.3238  1.9620
  260MOL0     H35040   1.268   8.051   6.386  1.4509 -0.3163 -0.8879
  260MOL0     H35041   1.510   8.180   6.506  0.6562 -0.1539 -0.9852
  260MOL0     H35042   1.511   8.015   6.474  2.2905  1.3924 -1.8099
  260MOL0     H35043   1.479   8.025   6.243  0.6643  1.3194 -1.1410
  260MOL0     H35044   1.410   8.184   6.251  1.2085  0.9949  0.5841
  260MOL0     H35045   1.690   8.110   6.302 -0.0809  0.3999  1.3041
  260MOL0     H35046   1.633   8.183   6.149 -0.1885 -0.7699 -0.3725
  260MOL0     H35047   1.635   8.332   6.421 -0.1855  3.4783  0.2243
  260MOL0     H35048   1.593   8.414   6.267  0.9842  0.2898 -1.3845
  260MOL0     H35049   1.806   8.461   6.340 -1.7906  1.2978 -0.9338
  260MOL0     H35050   1.852   8.298   6.337  0.5370 -0.0987 -0.5360
  260MOL0     H35051   1.884   8.159   6.122 -0.2297  0.8407  1.0267
  260MOL0     H35052   1.880   8.080   5.851 -1.1637  0.1208  0.0279
  260MOL0     H35053   1.813   8.214   5.743  0.1594  2.8383  1.3383
  260MOL0     H35054   2.050   8.327   5.802 -0.1528 -1.1476  2.2322
  260MOL0     H35055   2.093   8.172   5.852  1.5424  2.5609  1.5052
  260MOL0     H35056   2.132   8.214   5.590  0.2989 -2.1892 -0.5697
  260MOL0     H35057   1.956   8.205   5.579 -1.2633 -1.9470  0.2212
  260MOL0     H35058   2.059   7.975   5.526 -1.4081 -0.3629  0.2478
  260MOL0     H35059   1.977   7.972   5.673 -0.7543  0.7409 -1.4191
  260MOL0     H35060   2.425   7.931   5.668 -0.2522  0.5547  1.2360
  260MOL0     H35061   2.520   7.688   5.673  1.2815  1.0083 -4.0574
  260MOL0     H35062   2.320   7.203   5.866  1.5594  2.3310 -0.8616
  260MOL0     H35063   2.414   6.965   5.889 -0.5480 -0.1862 -0.8812
  260MOL0     H35064   2.677   6.692   5.643 -4.7492  0.2661 -1.0465
  260MOL0     H35065   2.637   6.813   5.521 -1.6940 -1.9171  0.3187
  260MOL0     H35066   2.793   6.972   5.609 -0.1154 -0.6024 -0.9074
  260MOL0     H35067   2.829   6.852   5.738 -2.3626  1.9221  0.7996
  260MOL0     H35068   2.880   6.765   5.447 -0.1172  1.0397 -0.5860
  260MOL0     H35069   2.982   6.882   5.524 -0.0137  0.0283 -1.0561
  260MOL0     H35070   2.948   6.595   5.588  3.2986 -0.3667 -0.6308
  260MOL0     H35071   3.001   6.695   5.715  0.0220  0.1271 -0.0937
  260MOL0     H35072   3.188   6.787   5.578  2.5698 -1.7471  3.4534
  260MOL0     H35073   3.156   6.665   5.446 -1.5981  1.4112  0.1041
  260MOL0     H35074   3.236   6.595   5.733 -1.5848  2.5649  0.4849
  260MOL0     H35075   3.174   6.487   5.603 -1.0871  0.0201 -1.3833
  260MOL0     H35076   3.369   6.585   5.457  1.6566  0.8753 -0.3787
  260MOL0     H35077   3.417   6.480   5.596 -2.1616 -1.3548  0.7695
  260MOL0     H35078   3.559   6.690   5.565 -0.2442  1.4238 -0.9499
  260MOL0     H35079   3.429   6.783   5.608  2.0361  0.2474 -4.0794
  260MOL0     H35080   2.589   7.000   5.515 -0.5688 -2.1305  1.3078
  260MOL0     H35081   2.492   7.236   5.485  2.9266 -1.8448 -0.5462
  260MOL0     H35082   2.134   7.537   5.629  2.7107 -1.0817 -1.1594
  260MOL0     H35083   2.043   7.779   5.661  0.9082  1.2693 -0.0494
  260MOL0     H35084   1.034   8.080   6.988 -1.5402  1.6495  0.4637
  260MOL0     H35085   0.798   8.075   7.071  1.4109  1.7375 -0.6395
  260MOL0     H35086   0.371   8.045   7.005 -0.8221  0.8540 -0.7331
  260MOL0     H35087   0.150   8.040   7.108  2.3818  1.4280  1.0763
  260MOL0     H35088  -0.066   7.892   7.136  2.1252  0.3311 -1.4599
  260MOL0     H35089  -0.017   8.032   7.237  0.3473 -0.1583 -0.1007
  260MOL0     H35090  -0.145   7.887   7.433  0.0292 -2.8330 -0.4232
  260MOL0     H35091  -0.215   7.792   7.309 -0.0637 -0.2239  1.5714
  260MOL0     H35092  -0.291   8.016   7.202 -0.6040  1.4875  0.5898
  260MOL0     H35093  -0.204   8.107   7.315  2.3962 -2.0561 -0.8047
  260MOL0     H35094  -0.434   7.905   7.363 -1.3375  0.9483 -0.7988
  260MOL0     H35095  -0.366   8.000   7.504  0.1364  0.3088  0.3517
  260MOL0     H35096  -0.645   8.259   7.355  0.6734  1.6240 -0.8920
  260MOL0     H35097   0.249   7.686   7.325 -1.0079  0.8263  0.9740
  260MOL0     H35098   0.583   7.660   7.276 -0.9836  0.0768 -0.8254
  260MOL0     H35099   0.443   7.559   7.284  1.4939 -0.2559  1.3096
  260MOL0     H35100   0.521   7.597   7.129  1.1983 -2.1491  0.9370
  261MOL0     O35101   4.555   8.528   6.386  0.6500  0.1750 -0.6449
  261MOL0     C35102   4.465   8.505   6.464  0.2803  0.7482  0.2042
  261MOL0     O35103   4.457   8.399   6.550 -1.0487 -0.5958 -0.0770
  261MOL0     C35104   4.567   8.340   6.604 -0.5083  0.7833  0.0339
  261MOL0     C35105   4.575   8.202   6.646  1.1886  0.2402  0.0232
  261MOL0     C35106   4.698   8.151   6.679 -0.3336 -0.8213  0.7730
  261MOL0     C35107   4.819   8.219   6.686 -1.0685 -0.0119  1.3875
  261MOL0     O35108   4.933   8.156   6.718  0.1630 -0.3557 -0.2304
  261MOL0     C35109   5.065   8.202   6.671  1.0902 -0.7023  0.3642
  261MOL0     C35110   5.173   8.099   6.672 -0.4549  0.8454 -0.4250
  261MOL0     C35111   5.218   8.052   6.823 -1.5831  1.0226 -0.1364
  261MOL0     C35112   5.304   7.925   6.815  0.8722 -0.1753  0.1079
  261MOL0     C35113   5.447   7.956   6.778  0.2717  0.1881  0.0109
  261MOL0     C35114   5.532   7.829   6.779  0.1507 -0.4480 -0.1798
  261MOL0     C35115   5.665   7.841   6.703 -0.3532 -0.3628 -0.4181
  261MOL0     C35116   5.763   7.722   6.754 -0.1619 -0.4455  0.4206
  261MOL0     N35117   5.886   7.747   6.684  0.1869 -0.0203 -0.5398
  261MOL0     C35118   5.971   7.838   6.733 -0.5969 -0.0719 -0.0708
  261MOL0     C35119   6.072   7.835   6.634  0.6421 -0.5589  0.8202
  261MOL0     C35120   6.183   7.941   6.631  0.2772  0.0241  0.6359
  261MOL0     C35121   6.317   7.883   6.594  0.0775 -0.3939  0.1107
  261MOL0     C35122   6.391   7.811   6.708 -0.4631 -0.2285 -0.8097
  261MOL0     C35123   6.536   7.754   6.671  0.2401 -0.0927  0.3209
  261MOL0     O35124   6.596   7.675   6.778 -1.2306  0.2414  0.0749
  261MOL0     C35125   6.733   7.642   6.784 -0.0904  0.2295 -0.3081
  261MOL0     C35126   6.829   7.652   6.682  0.4615 -0.2254 -0.2538
  261MOL0     C35127   6.962   7.637   6.720 -0.7911  0.0172  0.6460
  261MOL0     C35128   7.006   7.610   6.849  0.0309  0.8505 -0.4454
  261MOL0     C35129   7.151   7.593   6.884  0.4164  0.1313  0.8022
  261MOL0     O35130   7.231   7.576   6.772  0.0964  0.4621 -0.6744
  261MOL0     C35131   7.369   7.550   6.790 -0.1072 -0.7265  0.4758
  261MOL0     C35132   7.445   7.591   6.682  0.6803  0.9381 -0.9548
  261MOL0     C35133   7.588   7.575   6.690 -0.6201 -0.2679 -0.2609
  261MOL0     C35134   7.647   7.500   6.795  0.3684  0.1903 -0.4419
  261MOL0     O35135   7.786   7.489   6.797 -0.2276 -0.3555  0.0665
  261MOL0     C35136   7.854   7.444   6.915 -0.2044 -0.0811 -1.0750
  261MOL0     C35137   8.001   7.433   6.866 -0.6218  0.3964 -0.2385
  261MOL0     C35138   8.099   7.434   6.984 -0.6781 -0.4036 -0.2861
  261MOL0     C35139   8.239   7.410   6.940 -0.9448  0.1102  0.2848
  261MOL0     C35140   8.344   7.369   7.051  0.4440 -0.4198 -0.7075
  261MOL0     C35141   8.483   7.320   7.008 -1.1883 -0.5309 -0.1922
  261MOL0     C35142   8.550   7.239   7.121  0.6646  0.5933  0.4151
  261MOL0     C35143   8.699   7.206   7.102 -0.1490  0.7892  0.2034
  261MOL0    Cl35144   8.799   7.348   7.132 -0.2366 -0.4174  0.0650
  261MOL0     C35145   7.568   7.452   6.903 -0.5403 -0.6600  0.0588
  261MOL0     C35146   7.428   7.483   6.895  1.8692 -0.5196 -0.4985
  261MOL0     O35147   7.178   7.583   7.005  0.3356 -0.0025 -0.0816
  261MOL0     C35148   6.906   7.589   6.948  0.0592 -1.1944  0.2033
  261MOL0     C35149   6.777   7.605   6.916 -0.1951 -0.1565 -0.4855
  261MOL0     N35150   6.039   7.750   6.536 -0.2584 -0.2213  0.1435
  261MOL0     N35151   5.924   7.698   6.562 -0.3918 -0.1759 -0.0239
  261MOL0     C35152   4.811   8.357   6.655 -1.1371  1.4205  0.4138
  261MOL0     C35153   4.684   8.414   6.622 -0.4602  0.1266  0.6676
  261MOL0     C35154   4.333   8.581   6.469  0.1248 -0.2842  0.8705
  261MOL0     C35155   4.224   8.531   6.544  0.9639  0.1084 -0.4126
  261MOL0     C35156   4.105   8.603   6.553 -0.1131 -0.1134  0.0051
  261MOL0     C35157   4.089   8.726   6.493 -0.0036  0.5968 -1.3360
  261MOL0     O35158   3.972   8.797   6.476  0.2059  0.0176  0.0625
  261MOL0     C35159   3.865   8.754   6.563 -0.3612 -0.7982  0.1899
  261MOL0     C35160   3.735   8.843   6.559  0.0170  0.3510  0.3558
  261MOL0     C35161   3.664   8.870   6.426 -0.8267  0.0147  0.3288
  261MOL0     C35162   3.534   8.945   6.442 -0.9031  0.1528  0.1554
  261MOL0     C35163   3.477   8.991   6.307 -0.0806  0.4621  0.3930
  261MOL0     C35164   3.446   9.020   6.188 -0.0351 -0.3547 -0.7810
  261MOL0     C35165   4.199   8.766   6.412  0.6668  0.6660  0.3049
  261MOL0     C35166   4.327   8.704   6.403 -0.0247  0.8669  0.1207
  261MOL0     C35167   4.441   8.785   6.340  0.0029  0.8147 -0.1595
  261MOL0     H35168   4.490   8.136   6.633  0.8411  0.9757 -1.8462
  261MOL0     H35169   4.705   8.047   6.710 -0.9323 -0.4300  2.2981
  261MOL0     H35170   5.045   8.234   6.568  0.8947  0.3298  0.7112
  261MOL0     H35171   5.100   8.294   6.718  0.0379  1.2596 -2.3986
  261MOL0     H35172   5.249   8.141   6.605  0.2527  0.7707  0.3139
  261MOL0     H35173   5.117   8.015   6.629 -0.4595  0.1184  0.9179
  261MOL0     H35174   5.131   8.033   6.887 -2.3262  0.1601 -1.3679
  261MOL0     H35175   5.272   8.136   6.867 -0.6651 -0.1726  1.0652
  261MOL0     H35176   5.300   7.877   6.913 -3.9205  1.0944  0.7564
  261MOL0     H35177   5.258   7.857   6.743 -0.2423 -0.0089  0.6414
  261MOL0     H35178   5.457   8.002   6.679 -1.6257  0.9783  0.1573
  261MOL0     H35179   5.483   8.034   6.846 -2.0021 -0.0273  1.5540
  261MOL0     H35180   5.554   7.804   6.884  0.6544 -1.8254 -0.5970
  261MOL0     H35181   5.475   7.745   6.740 -2.8358  0.6601  1.4954
  261MOL0     H35182   5.712   7.938   6.721  0.0778 -0.9179  1.6938
  261MOL0     H35183   5.645   7.826   6.596  1.6516 -0.2323 -0.8523
  261MOL0     H35184   5.767   7.733   6.863 -0.2810 -2.6438  0.6737
  261MOL0     H35185   5.708   7.635   6.718 -0.0168  0.6490 -2.7619
  261MOL0     H35186   5.959   7.893   6.826 -1.3867 -1.1819  0.5016
  261MOL0     H35187   6.172   8.012   6.548 -0.4047  1.7821  2.1430
  261MOL0     H35188   6.190   7.989   6.729  1.7122  0.8374  0.1706
  261MOL0     H35189   6.304   7.824   6.503 -0.7773  2.7228 -1.9625
  261MOL0     H35190   6.382   7.960   6.552  0.4792 -2.1498 -2.8079
  261MOL0     H35191   6.323   7.731   6.741 -1.5790  1.9126  2.5890
  261MOL0     H35192   6.411   7.876   6.794  1.4283  1.0676 -2.1658
  261MOL0     H35193   6.590   7.846   6.649 -1.2171  0.8565  0.5294
  261MOL0     H35194   6.510   7.681   6.594 -3.4732 -1.3689  2.4624
  261MOL0     H35195   6.801   7.672   6.580 -2.1894  0.1063  0.4639
  261MOL0     H35196   7.034   7.652   6.640 -1.8555  2.5494  0.0516
  261MOL0     H35197   7.399   7.622   6.588 -0.3388 -0.7027 -1.0417
  261MOL0     H35198   7.658   7.622   6.622 -1.0939  2.5016  1.0426
  261MOL0     H35199   7.849   7.519   6.994  0.7289  0.0172 -1.0894
  261MOL0     H35200   7.806   7.354   6.955 -3.7082  1.6873 -0.8988
  261MOL0     H35201   8.026   7.340   6.813  0.2612 -0.8095  2.1295
  261MOL0     H35202   8.019   7.520   6.802 -2.3113  1.1429  0.2683
  261MOL0     H35203   8.092   7.529   7.038 -1.8119  1.2274 -3.0718
  261MOL0     H35204   8.070   7.346   7.042 -3.2341 -0.4606 -1.5252
  261MOL0     H35205   8.275   7.496   6.883  0.3581 -0.8426 -0.3877
  261MOL0     H35206   8.236   7.325   6.871 -1.3410  1.6371 -1.6564
  261MOL0     H35207   8.294   7.283   7.096  1.4338 -1.2493 -1.1344
  261MOL0     H35208   8.345   7.453   7.120 -1.8710 -0.6926 -0.2666
  261MOL0     H35209   8.478   7.254   6.920  0.6456 -0.2758 -0.5345
  261MOL0     H35210   8.550   7.403   6.985 -0.3097 -1.4243 -0.9498
  261MOL0     H35211   8.499   7.142   7.121 -0.0663  0.9650  0.8075
  261MOL0     H35212   8.539   7.294   7.214  1.4303 -0.3687  1.0911
  261MOL0     H35213   8.723   7.125   7.172  0.8367  1.1912  0.3455
  261MOL0     H35214   8.723   7.173   7.000  1.5600  2.3770  0.0330
  261MOL0     H35215   7.607   7.405   6.992 -3.8694  1.0815  2.6610
  261MOL0     H35216   7.372   7.444   6.980  2.2166  0.4482  0.1981
  261MOL0     H35217   6.936   7.559   7.048  2.1190  1.0297  0.3439
  261MOL0     H35218   6.700   7.616   6.991  0.6247  0.3023  0.3244
  261MOL0     H35219   4.902   8.416   6.663  1.1282 -1.9200  1.4902
  261MOL0     H35220   4.687   8.521   6.607 -4.7338  0.1354 -1.9034
  261MOL0     H35221   4.237   8.433   6.588 -1.2742  0.4047  1.0973
  261MOL0     H35222   4.031   8.547   6.611  0.4993 -1.3764 -0.3988
  261MOL0     H35223   3.896   8.729   6.665  1.8067  2.1051  0.3661
  261MOL0     H35224   3.845   8.660   6.511  0.0612 -0.4339 -0.6422
  261MOL0     H35225   3.769   8.938   6.602  1.4195 -0.7214  1.7492
  261MOL0     H35226   3.671   8.795   6.634  1.3931 -1.0850  0.6635
  261MOL0     H35227   3.649   8.769   6.385  0.2567 -0.3008  0.6545
  261MOL0     H35228   3.729   8.929   6.361 -1.1335  0.1763  0.1724
  261MOL0     H35229   3.459   8.877   6.483 -1.5359  0.6328 -0.1979
  261MOL0     H35230   3.548   9.030   6.509 -2.2451  2.0017 -1.7712
  261MOL0     H35231   3.416   9.042   6.087 -1.5589 -0.7688 -0.4440
  261MOL0     H35232   4.174   8.851   6.349  6.2378  3.1381  0.7755
  261MOL0     H35233   4.518   8.787   6.418  1.1837 -3.2476 -0.9500
  261MOL0     H35234   4.471   8.744   6.243 -0.2303  0.0380  0.0861
  261MOL0     H35235   4.396   8.883   6.331 -2.6938 -0.4075 -0.8554
  262MOL0     O35236   6.416   5.408  11.227  0.3810  0.6281  0.3351
  262MOL0     C35237   6.429   5.285  11.228  0.4323 -0.4415 -0.3170
  262MOL0     O35238   6.543   5.212  11.253 -0.6521  0.3438  0.6038
  262MOL0     C35239   6.657   5.279  11.286  0.9406  0.8677  0.2419
  262MOL0     C35240   6.743   5.346  11.194 -0.4853 -0.2273  1.1388
  262MOL0     C35241   6.854   5.418  11.241  0.6032 -0.7905  0.1296
  262MOL0     C35242   6.882   5.428  11.376 -0.0766  0.0260 -0.8632
  262MOL0     O35243   6.985   5.508  11.405  0.7041 -0.0986  0.4508
  262MOL0     C35244   7.095   5.444  11.480 -0.3626  0.4537 -0.7752
  262MOL0     C35245   7.216   5.532  11.479  0.1932  0.2508  0.3183
  262MOL0     C35246   7.333   5.477  11.557 -0.1581  0.6250  0.4403
  262MOL0     C35247   7.470   5.563  11.546  0.2400 -0.3366 -0.2090
  262MOL0     C35248   7.583   5.497  11.636  0.3893 -0.6994  0.3351
  262MOL0     C35249   7.712   5.574  11.600  0.0157 -0.5886 -0.3375
  262MOL0     C35250   7.846   5.495  11.617 -0.8013 -0.1479  0.6024
  262MOL0     C35251   7.969   5.561  11.544  0.4318  0.1149 -0.2285
  262MOL0     N35252   8.093   5.493  11.588  0.6705  0.2330  0.5659
  262MOL0     C35253   8.146   5.474  11.713 -0.1866  0.5223 -0.3991
  262MOL0     C35254   8.274   5.428  11.690  0.9343 -0.0371 -0.2711
  262MOL0     C35255   8.347   5.409  11.813  1.0090  0.1248  0.4290
  262MOL0     C35256   8.481   5.339  11.778  0.2522  0.3005  0.0930
  262MOL0     C35257   8.556   5.296  11.905  0.4959 -0.2308  0.6022
  262MOL0     C35258   8.604   5.413  11.994 -0.4714  0.7105 -0.4149
  262MOL0     O35259   8.662   5.372  12.117  0.0861 -0.1239 -0.5427
  262MOL0     C35260   8.802   5.374  12.114  0.5743  0.1996 -0.2976
  262MOL0     C35261   8.868   5.481  12.139 -0.0313 -1.4843 -1.1910
  262MOL0     C35262   9.004   5.483  12.149  0.1680  0.1756  0.2638
  262MOL0     C35263   9.077   5.365  12.129  0.7122 -0.7712 -0.5414
  262MOL0     C35264   9.223   5.367  12.114  0.4932  0.7018  0.4177
  262MOL0     O35265   9.283   5.240  12.094  0.1594  0.2052  0.3064
  262MOL0     C35266   9.418   5.225  12.071  0.6791  0.7897  0.0832
  262MOL0     C35267   9.500   5.309  12.148  0.5849 -0.4277 -0.0667
  262MOL0     C35268   9.640   5.294  12.136 -0.1805  0.5742  0.5297
  262MOL0     C35269   9.702   5.192  12.059  0.2804 -0.1088  0.3470
  262MOL0     O35270   9.835   5.163  12.058  0.3852  0.7557  0.0337
  262MOL0     C35271   9.931   5.212  12.152  0.1979 -0.6172  0.1062
  262MOL0     C35272  10.074   5.196  12.100  0.7752  0.0475 -0.3917
  262MOL0     C35273  10.178   5.274  12.178 -0.0326  0.7119  0.0215
  262MOL0     C35274  10.296   5.309  12.088 -0.4800 -0.1155 -0.7556
  262MOL0     C35275  10.421   5.345  12.168 -0.7554 -0.1179 -0.0093
  262MOL0     C35276  10.538   5.409  12.081 -1.0461 -0.1764 -0.3674
  262MOL0     C35277  10.669   5.434  12.157  0.7844  0.2405  0.6505
  262MOL0     C35278  10.679   5.580  12.208  0.3375  0.1476 -0.4683
  262MOL0    Cl35279  10.827   5.605  12.319 -0.0867  0.3709  0.0352
  262MOL0     C35280   9.619   5.113  11.980 -0.3194  0.0734 -0.3034
  262MOL0     C35281   9.477   5.124  11.997  0.1513 -0.0973 -0.4363
  262MOL0     O35282   9.285   5.476  12.104 -0.1479 -0.3079 -0.0949
  262MOL0     C35283   9.005   5.246  12.131  0.2257  0.9640  0.1119
  262MOL0     C35284   8.868   5.249  12.123 -0.3787 -0.5703 -0.4405
  262MOL0     N35285   8.298   5.434  11.552  0.0064 -0.7198 -0.1394
  262MOL0     N35286   8.186   5.473  11.494  0.1834 -1.0863 -0.6020
  262MOL0     C35287   6.794   5.370  11.469  1.2710 -0.1562  0.5083
  262MOL0     C35288   6.684   5.291  11.418  0.1974 -0.6716 -0.1277
  262MOL0     C35289   6.315   5.202  11.185 -0.7436  0.0052 -0.2389
  262MOL0     C35290   6.341   5.077  11.128 -0.0084  0.9943 -1.0978
  262MOL0     C35291   6.235   4.997  11.090  0.9201 -0.2902 -0.2237
  262MOL0     C35292   6.103   5.021  11.139  0.5903  0.0987  0.9095
  262MOL0     O35293   5.997   4.939  11.123  0.1434  0.2279 -0.5220
  262MOL0     C35294   5.945   4.921  10.978 -0.8991  0.2335 -0.5399
  262MOL0     C35295   5.860   4.798  10.974  0.1226 -0.1965 -0.9606
  262MOL0     C35296   5.789   4.778  10.842  0.4080 -0.3114  0.2139
  262MOL0     C35297   5.675   4.678  10.853 -0.3398 -0.3893  0.0736
  262MOL0     C35298   5.559   4.708  10.933 -0.3256 -0.9313  0.6507
  262MOL0     C35299   5.466   4.755  10.994  0.4087  0.6554  0.0805
  262MOL0     C35300   6.084   5.146  11.191  0.3088 -0.2783  0.0162
  262MOL0     C35301   6.183   5.242  11.217 -0.3737 -0.1957 -0.5973
  262MOL0     C35302   6.137   5.371  11.274  0.5457  0.3495  0.2622
  262MOL0     H35303   6.719   5.363  11.090 -1.3530  0.0580  1.3753
  262MOL0     H35304   6.910   5.477  11.169 -0.7374 -1.7342 -1.7711
  262MOL0     H35305   7.066   5.428  11.584  0.2159  1.3820 -0.4600
  262MOL0     H35306   7.117   5.344  11.441  1.5191  0.5052  0.0814
  262MOL0     H35307   7.183   5.628  11.519 -2.5936 -0.1412 -0.8434
  262MOL0     H35308   7.259   5.560  11.382 -0.9658 -0.5090 -0.4372
  262MOL0     H35309   7.348   5.372  11.529 -1.3678  0.6115 -0.2159
  262MOL0     H35310   7.301   5.494  11.660 -0.1216  2.8240  0.1371
  262MOL0     H35311   7.505   5.571  11.443 -1.2353 -3.6374 -1.1113
  262MOL0     H35312   7.458   5.667  11.577  1.7933 -0.6873  1.8509
  262MOL0     H35313   7.567   5.502  11.744  0.3058  2.6133  0.2982
  262MOL0     H35314   7.590   5.396  11.596  0.6034  0.9691 -4.6005
  262MOL0     H35315   7.708   5.612  11.497 -2.1552 -1.1918 -0.5255
  262MOL0     H35316   7.698   5.665  11.658 -1.9927 -0.8054 -0.4023
  262MOL0     H35317   7.836   5.397  11.569 -1.4952 -0.7038  1.8627
  262MOL0     H35318   7.865   5.469  11.721  1.0181  2.0909  0.9344
  262MOL0     H35319   7.961   5.556  11.435  3.5577 -0.4311 -0.5150
  262MOL0     H35320   7.974   5.666  11.573 -0.2862 -0.2284  1.2467
  262MOL0     H35321   8.101   5.488  11.811  2.3092  0.3553  0.8695
  262MOL0     H35322   8.355   5.506  11.861 -1.2605  1.7560 -2.1319
  262MOL0     H35323   8.288   5.339  11.873 -0.8413  0.0207 -1.3565
  262MOL0     H35324   8.460   5.246  11.725  2.3410 -1.9306  2.8310
  262MOL0     H35325   8.545   5.410  11.724 -0.8952  2.3867  1.3361
  262MOL0     H35326   8.646   5.252  11.861  0.0353 -0.2360 -0.3713
  262MOL0     H35327   8.495   5.237  11.974  1.3709 -1.3384  0.4517
  262MOL0     H35328   8.522   5.484  12.010 -1.0999 -0.5072  2.5047
  262MOL0     H35329   8.679   5.467  11.937  1.2564 -0.7463  0.3810
  262MOL0     H35330   8.810   5.573  12.147  3.2112  0.5623  2.7470
  262MOL0     H35331   9.056   5.578  12.159 -1.5096  1.1461  0.1542
  262MOL0     H35332   9.473   5.384  12.222  3.9164  1.6301 -0.6801
  262MOL0     H35333   9.702   5.365  12.190  1.0144 -0.1277  0.1177
  262MOL0     H35334   9.914   5.319  12.161  0.8365 -0.4116 -1.0349
  262MOL0     H35335   9.904   5.160  12.244 -2.7056 -1.9263 -1.3191
  262MOL0     H35336  10.103   5.091  12.098  0.7802  0.0469 -0.2462
  262MOL0     H35337  10.095   5.240  12.001  1.6809 -0.4780 -0.4432
  262MOL0     H35338  10.128   5.363  12.219 -2.4464  0.8775 -2.9577
  262MOL0     H35339  10.203   5.205  12.259 -1.5049  0.6122  0.4211
  262MOL0     H35340  10.267   5.383  12.013 -1.3339 -2.3511 -2.7842
  262MOL0     H35341  10.316   5.225  12.020  0.5203 -0.7373  0.2644
  262MOL0     H35342  10.451   5.258  12.226 -0.6224 -0.5198 -0.6737
  262MOL0     H35343  10.386   5.424  12.236 -1.6168  0.5581 -1.1902
  262MOL0     H35344  10.563   5.343  11.998  3.1514  0.2236  0.3386
  262MOL0     H35345  10.506   5.506  12.043 -3.2274  0.3262  2.3849
  262MOL0     H35346  10.747   5.393  12.092  1.0989 -0.1425  1.2584
  262MOL0     H35347  10.665   5.376  12.250 -3.4992  1.0986  1.2043
  262MOL0     H35348  10.689   5.647  12.122  0.1304 -1.3255 -1.6760
  262MOL0     H35349  10.589   5.610  12.263  1.1254 -0.0146  0.9630
  262MOL0     H35350   9.643   5.018  11.933  1.6264  1.0688 -1.4620
  262MOL0     H35351   9.412   5.052  11.949  1.7181 -0.6681 -1.7680
  262MOL0     H35352   9.050   5.147  12.131 -3.2196 -0.7620 -0.8127
  262MOL0     H35353   8.819   5.154  12.103  1.2469 -1.5639  0.1818
  262MOL0     H35354   6.799   5.409  11.570 -3.0563 -0.1851  0.9253
  262MOL0     H35355   6.604   5.260  11.485 -1.1432 -0.3178 -1.5165
  262MOL0     H35356   6.442   5.040  11.118 -0.3706 -0.2478 -0.3376
  262MOL0     H35357   6.259   4.912  11.028  0.3312 -0.2739 -0.4693
  262MOL0     H35358   6.020   4.915  10.898 -1.4026  2.4221 -1.2556
  262MOL0     H35359   5.885   5.006  10.943 -0.4817  1.7739  2.2172
  262MOL0     H35360   5.780   4.806  11.048  0.3514 -0.1384 -0.7144
  262MOL0     H35361   5.914   4.709  11.007 -0.0465  0.2242  0.5393
  262MOL0     H35362   5.855   4.741  10.764 -0.6837  0.6459 -1.2172
  262MOL0     H35363   5.741   4.872  10.812  0.1344 -0.9367 -1.3725
  262MOL0     H35364   5.645   4.667  10.748  1.0479 -2.0830 -0.1877
  262MOL0     H35365   5.716   4.581  10.883  0.5686  0.3982  1.4809
  262MOL0     H35366   5.380   4.798  11.043  2.0953  1.7435  2.2481
  262MOL0     H35367   5.983   5.172  11.221 -0.0424  2.4601 -2.9554
  262MOL0     H35368   6.171   5.443  11.199  0.4897 -3.0401 -3.3073
  262MOL0     H35369   6.029   5.379  11.291  0.5157 -0.3802  0.4775
  262MOL0     H35370   6.187   5.388  11.371 -0.7297 -1.5410  1.3150
  263MOL0     O35371   4.696   8.716  10.785  0.3912 -0.6147  0.8438
  263MOL0     C35372   4.729   8.815  10.846 -0.6650 -0.3803  0.1511
  263MOL0     O35373   4.863   8.858  10.847  0.1858  0.3112 -0.4034
  263MOL0     C35374   4.956   8.814  10.755  0.5786  0.2810  0.0860
  263MOL0     C35375   5.088   8.791  10.796  0.6151  1.4434 -1.3408
  263MOL0     C35376   5.182   8.766  10.700 -1.3645  0.0330  0.5074
  263MOL0     C35377   5.156   8.766  10.558 -0.9143 -0.5742  0.7440
  263MOL0     O35378   5.254   8.732  10.464 -0.7870  0.3606 -0.5385
  263MOL0     C35379   5.386   8.703  10.509 -0.4161 -0.4009 -0.2532
  263MOL0     C35380   5.477   8.680  10.385  0.1541  0.3146  0.6639
  263MOL0     C35381   5.618   8.637  10.439 -0.6652 -0.2637 -0.7599
  263MOL0     C35382   5.705   8.751  10.497  0.4416 -0.3332  0.0188
  263MOL0     C35383   5.858   8.715  10.497  0.2456  0.1235  0.1263
  263MOL0     C35384   5.937   8.832  10.544 -0.8358 -0.0850 -0.4315
  263MOL0     C35385   6.085   8.826  10.506 -0.7369  0.3236  0.7891
  263MOL0     C35386   6.147   8.966  10.497  0.0607 -0.4974  0.6207
  263MOL0     N35387   6.141   9.036  10.629  0.3344  0.5667 -0.4338
  263MOL0     C35388   6.209   9.003  10.741  0.4951  0.1649 -0.2882
  263MOL0     C35389   6.196   9.115  10.818 -0.2969 -0.3833  0.4442
  263MOL0     C35390   6.251   9.117  10.957  0.6299  0.4664  0.9183
  263MOL0     C35391   6.297   9.262  10.985 -0.6259 -0.2038  0.7969
  263MOL0     C35392   6.387   9.259  11.109  0.6749  0.4947  0.3323
  263MOL0     C35393   6.531   9.225  11.087  0.1278  0.7149 -0.1691
  263MOL0     O35394   6.578   9.287  10.967  0.3523  0.5106  0.1137
  263MOL0     C35395   6.625   9.413  10.995  0.5768  0.7286 -1.0504
  263MOL0     C35396   6.752   9.420  11.049 -0.3606 -0.2767  0.9016
  263MOL0     C35397   6.793   9.550  11.093 -0.7133  0.3367 -0.3132
  263MOL0     C35398   6.727   9.665  11.050 -0.5335  0.6959 -0.6353
  263MOL0     C35399   6.785   9.799  11.081  0.6048 -0.5524  0.8251
  263MOL0     O35400   6.918   9.820  11.101  0.3019 -0.4283  0.6276
  263MOL0     C35401   6.970   9.948  11.107 -0.3354 -0.9225 -0.5887
  263MOL0     C35402   7.090   9.955  11.179 -0.8100  0.0972  0.4209
  263MOL0     C35403   7.177  10.067  11.176  0.0537 -0.5122  0.3371
  263MOL0     C35404   7.134  10.184  11.092  0.6996  0.7412  0.1219
  263MOL0     O35405   7.206  10.299  11.065 -0.4289  0.3255 -0.5258
  263MOL0     C35406   7.335  10.328  11.124 -0.2471  0.0085 -1.0267
  263MOL0     C35407   7.375  10.469  11.083 -0.4174  0.2077  0.2067
  263MOL0     C35408   7.520  10.502  11.108 -0.4000 -0.2103  0.0257
  263MOL0     C35409   7.574  10.598  10.993  0.1451  0.4849  0.0688
  263MOL0     C35410   7.721  10.637  11.006 -0.6494 -1.3902  0.0795
  263MOL0     C35411   7.829  10.525  10.977  0.2227  0.5977  0.0348
  263MOL0     C35412   7.976  10.564  11.002  0.7570  0.2681 -0.1047
  263MOL0     C35413   8.066  10.460  10.948  0.1106  0.7051  0.5608
  263MOL0    Cl35414   8.075  10.307  11.051  0.3375  0.3704  0.0125
  263MOL0     C35415   7.013  10.177  11.028 -0.3046  0.1992 -0.3000
  263MOL0     C35416   6.925  10.066  11.041 -0.7090  0.4390  1.4787
  263MOL0     O35417   6.698   9.886  11.067 -0.0910  0.3058  0.3178
  263MOL0     C35418   6.607   9.648  10.984 -0.4925  0.7043  0.0067
  263MOL0     C35419   6.550   9.525  10.967 -1.1233  0.8365  0.0146
  263MOL0     N35420   6.109   9.208  10.760 -0.5023  0.1982  0.7441
  263MOL0     N35421   6.084   9.156  10.644  0.5381 -0.0185 -0.5787
  263MOL0     C35422   5.028   8.793  10.520 -0.6706 -0.1135 -1.0326
  263MOL0     C35423   4.929   8.813  10.617  0.6024 -0.0211  1.3075
  263MOL0     C35424   4.639   8.877  10.940  0.2879 -0.3679 -0.1081
  263MOL0     C35425   4.689   8.979  11.022  0.3421 -0.1166 -0.3873
  263MOL0     C35426   4.614   9.029  11.133 -0.0419 -0.5764 -0.0130
  263MOL0     C35427   4.484   8.988  11.144  1.4242 -0.7883  1.0685
  263MOL0     O35428   4.406   8.990  11.267 -0.1655  0.1019  0.5658
  263MOL0     C35429   4.465   9.036  11.385 -0.8733  0.2271  0.1224
  263MOL0     C35430   4.368   9.024  11.503 -0.2513 -0.2705 -0.2112
  263MOL0     C35431   4.421   9.085  11.636  0.3802  0.5566 -0.3330
  263MOL0     C35432   4.448   8.972  11.734  0.2807 -1.3907  0.4031
  263MOL0     C35433   4.538   8.866  11.683 -0.3252 -0.4887  0.7394
  263MOL0     C35434   4.603   8.773  11.630 -0.9138 -0.4316 -0.0722
  263MOL0     C35435   4.421   8.908  11.042 -0.3627 -0.4272  0.0762
  263MOL0     C35436   4.496   8.854  10.938  0.3220  0.0945  0.2423
  263MOL0     C35437   4.428   8.759  10.842  0.3583  0.5454 -0.1630
  263MOL0     H35438   5.109   8.789  10.903 -2.3203  2.0053 -0.6767
  263MOL0     H35439   5.283   8.751  10.737 -1.1743  0.3901  0.1501
  263MOL0     H35440   5.418   8.793  10.563  0.3351  1.0791 -2.9704
  263MOL0     H35441   5.388   8.615  10.573  0.9787 -1.5154 -1.7564
  263MOL0     H35442   5.487   8.773  10.327 -0.9074  0.0462  0.0128
  263MOL0     H35443   5.431   8.610  10.314 -3.0462  2.5860  0.2579
  263MOL0     H35444   5.682   8.602  10.357  3.7424 -0.8889  2.5515
  263MOL0     H35445   5.614   8.558  10.515  4.2431 -0.0080  0.1267
  263MOL0     H35446   5.684   8.841  10.439  2.1570 -0.0735 -0.2508
  263MOL0     H35447   5.669   8.763  10.600 -0.0940  0.4719 -0.2579
  263MOL0     H35448   5.873   8.623  10.555 -1.1379 -0.6410 -0.6514
  263MOL0     H35449   5.893   8.694  10.395  0.5768  1.1195  0.0312
  263MOL0     H35450   5.893   8.925  10.507  0.5963  1.5898  1.7854
  263MOL0     H35451   5.935   8.831  10.653  2.6368 -3.0324 -0.2000
  263MOL0     H35452   6.104   8.781  10.408 -0.5688 -1.2141  1.4966
  263MOL0     H35453   6.138   8.771  10.584 -0.4325  0.1254  0.4471
  263MOL0     H35454   6.254   8.974  10.472  0.8842 -0.3810  3.7779
  263MOL0     H35455   6.093   9.019  10.418  1.0983 -3.4843 -2.3296
  263MOL0     H35456   6.266   8.912  10.755  1.3639  0.7616  0.0996
  263MOL0     H35457   6.174   9.097  11.032 -0.5874  1.3406 -0.0736
  263MOL0     H35458   6.335   9.048  10.973 -0.6121 -1.5286 -0.7127
  263MOL0     H35459   6.361   9.293  10.902  0.7510  1.3542  2.3480
  263MOL0     H35460   6.214   9.333  10.991 -2.1222 -1.7683 -0.4120
  263MOL0     H35461   6.345   9.197  11.188  1.2997  0.7967  0.9157
  263MOL0     H35462   6.394   9.362  11.145  1.3361  0.0020  1.6857
  263MOL0     H35463   6.544   9.116  11.082 -2.7418  0.2570  0.4957
  263MOL0     H35464   6.597   9.247  11.172  0.6484 -1.1276 -0.0368
  263MOL0     H35465   6.806   9.333  11.084 -3.6035 -1.4707  3.3843
  263MOL0     H35466   6.893   9.570  11.132 -1.1546  0.8282  0.6118
  263MOL0     H35467   7.120   9.863  11.229  0.9094  0.5952  0.3686
  263MOL0     H35468   7.275  10.078  11.221 -0.7060  0.0644  1.9230
  263MOL0     H35469   7.321  10.309  11.231  3.4309 -0.1674 -0.4488
  263MOL0     H35470   7.416  10.263  11.091  0.4077  0.1118  0.2914
  263MOL0     H35471   7.342  10.470  10.979  0.7630 -1.6937 -0.2177
  263MOL0     H35472   7.306  10.537  11.135 -1.9296 -1.0918 -0.0248
  263MOL0     H35473   7.540  10.543  11.207 -3.2005  5.4469 -1.3276
  263MOL0     H35474   7.577  10.410  11.091  2.3762  1.2611  0.7688
  263MOL0     H35475   7.511  10.688  10.995  1.8432  1.6986  0.9701
  263MOL0     H35476   7.564  10.549  10.896  0.9580  1.4086 -0.4977
  263MOL0     H35477   7.751  10.687  11.099 -0.2388  0.3696 -0.9625
  263MOL0     H35478   7.726  10.704  10.920 -2.6709  0.5616  1.3781
  263MOL0     H35479   7.805  10.439  11.040 -0.6600 -0.5082 -1.7196
  263MOL0     H35480   7.820  10.499  10.871 -1.0863 -0.7183  0.4299
  263MOL0     H35481   7.974  10.566  11.112  0.1217 -0.2425 -0.1018
  263MOL0     H35482   7.995  10.668  10.973  0.5818  0.4736  0.5053
  263MOL0     H35483   8.028  10.433  10.849 -3.0507 -0.3583  1.9323
  263MOL0     H35484   8.167  10.500  10.947  1.5160 -2.5425 -0.0814
  263MOL0     H35485   6.981  10.252  10.956 -0.4494  2.3641  1.8820
  263MOL0     H35486   6.831  10.075  10.988  1.3186 -1.7211 -2.9337
  263MOL0     H35487   6.541   9.728  10.954 -1.7423 -0.1050  0.5320
  263MOL0     H35488   6.447   9.511  10.937 -0.8179 -1.3027 -0.1595
  263MOL0     H35489   4.988   8.799  10.419  1.7228  1.9279 -1.9588
  263MOL0     H35490   4.826   8.818  10.585  0.5432 -0.8531  1.3319
  263MOL0     H35491   4.793   9.007  11.012  1.5895 -4.0492  0.0526
  263MOL0     H35492   4.660   9.078  11.219 -0.5886 -0.6238  0.3086
  263MOL0     H35493   4.496   9.139  11.362  2.2115 -0.3455  1.1384
  263MOL0     H35494   4.564   8.993  11.403 -1.8510 -1.4422  1.9054
  263MOL0     H35495   4.342   8.918  11.507  0.8426 -0.6625 -2.2663
  263MOL0     H35496   4.286   9.092  11.476  0.5595  1.3518  1.2437
  263MOL0     H35497   4.340   9.149  11.675 -0.1977 -0.1966 -0.2774
  263MOL0     H35498   4.507   9.147  11.609  0.7647  0.0921 -0.1874
  263MOL0     H35499   4.496   9.020  11.819 -1.1372  1.9962 -0.5102
  263MOL0     H35500   4.352   8.932  11.768  1.0554 -0.9630  3.3871
  263MOL0     H35501   4.680   8.707  11.595 -0.8580 -0.1752 -0.4379
  263MOL0     H35502   4.315   8.887  11.047 -0.3445 -1.1954 -1.9547
  263MOL0     H35503   4.464   8.776  10.740  1.9850 -1.1481  0.0665
  263MOL0     H35504   4.447   8.657  10.877  0.6882  2.1290  5.2658
  263MOL0     H35505   4.319   8.759  10.834  0.2888 -3.5913 -1.4934
  264MOL0     O35506   2.930   4.486   7.133 -0.1427  1.0976 -0.1085
  264MOL0     C35507   2.910   4.393   7.054  0.4436  0.4156 -1.1593
  264MOL0     O35508   2.990   4.369   6.945  0.0749 -0.1256 -0.2063
  264MOL0     C35509   3.107   4.449   6.933  0.1779  1.1313 -0.1716
  264MOL0     C35510   3.104   4.578   6.889 -0.7386  0.2073  0.1715
  264MOL0     C35511   3.220   4.646   6.867  0.8504  0.6617 -0.3716
  264MOL0     C35512   3.341   4.587   6.882 -0.0462 -0.7542  0.1019
  264MOL0     O35513   3.460   4.659   6.867  0.5007 -0.5452 -0.3623
  264MOL0     C35514   3.593   4.612   6.894  0.0151  0.6069  0.0756
  264MOL0     C35515   3.706   4.705   6.848  0.4207  0.3165 -0.1308
  264MOL0     C35516   3.840   4.635   6.872 -0.3799 -0.4505  0.4483
  264MOL0     C35517   3.950   4.731   6.828 -0.7053 -0.3565 -0.2488
  264MOL0     C35518   4.083   4.663   6.816  0.4682  1.1275  0.3062
  264MOL0     C35519   4.137   4.648   6.959 -0.4562  0.2105  0.4987
  264MOL0     C35520   4.290   4.615   6.942  0.5668 -0.3056 -0.1105
  264MOL0     C35521   4.373   4.630   7.076  1.1543 -0.4183  0.2213
  264MOL0     N35522   4.513   4.612   7.055  0.4376 -1.1104  0.1443
  264MOL0     C35523   4.580   4.498   7.013 -0.5180  0.0234 -0.9397
  264MOL0     C35524   4.711   4.541   7.016 -0.0762  0.0755 -0.2396
  264MOL0     C35525   4.821   4.450   7.004 -0.6384  0.3401 -0.2651
  264MOL0     C35526   4.887   4.422   7.142 -0.2226  0.5260  0.5625
  264MOL0     C35527   5.024   4.353   7.127 -0.2827  0.7718  0.2588
  264MOL0     C35528   5.048   4.314   7.276 -0.3082  0.0880  0.7595
  264MOL0     O35529   5.177   4.261   7.299  0.6368 -0.6212 -0.1996
  264MOL0     C35530   5.196   4.122   7.307 -0.3041 -0.3197 -0.0993
  264MOL0     C35531   5.235   4.064   7.432  0.0369 -0.0151  0.0039
  264MOL0     C35532   5.263   3.929   7.439  0.2910 -0.3283  0.3583
  264MOL0     C35533   5.254   3.845   7.327 -0.5720 -0.6924  0.8772
  264MOL0     C35534   5.298   3.698   7.335  0.5722  0.3859 -0.1535
  264MOL0     O35535   5.361   3.647   7.444  0.3427 -0.0147  0.0615
  264MOL0     C35536   5.366   3.510   7.451  0.1486 -0.8830 -0.5006
  264MOL0     C35537   5.254   3.423   7.422 -0.2952 -0.2677  0.0654
  264MOL0     C35538   5.278   3.282   7.435  0.2373 -0.4052 -0.7326
  264MOL0     C35539   5.405   3.233   7.478  0.4308  0.8164  0.0548
  264MOL0     O35540   5.442   3.100   7.503 -0.0688 -0.9348  0.3370
  264MOL0     C35541   5.353   2.999   7.478  0.7378 -0.2565 -0.8669
  264MOL0     C35542   5.428   2.862   7.488  0.6912  0.6477  0.5029
  264MOL0     C35543   5.335   2.735   7.497  0.0493 -0.0191  0.4035
  264MOL0     C35544   5.421   2.604   7.500  0.2576 -0.0811  1.2592
  264MOL0     C35545   5.325   2.478   7.497  1.2087  0.7557 -0.1965
  264MOL0     C35546   5.244   2.475   7.369 -0.5755  0.5313 -0.4874
  264MOL0     C35547   5.185   2.333   7.346  1.3496 -0.3120 -0.4339
  264MOL0     C35548   5.095   2.318   7.214 -0.2078  0.4029  0.1538
  264MOL0    Cl35549   5.115   2.155   7.156 -0.4350  0.2101 -0.0537
  264MOL0     C35550   5.512   3.323   7.494  1.3654 -0.4604 -1.1177
  264MOL0     C35551   5.483   3.458   7.487 -0.5215  0.0764  0.4697
  264MOL0     O35552   5.294   3.633   7.226  0.3107 -0.1953 -0.1776
  264MOL0     C35553   5.201   3.909   7.206 -0.2873 -0.2259 -0.5197
  264MOL0     C35554   5.181   4.048   7.194 -0.3470  0.4004 -0.8073
  264MOL0     N35555   4.713   4.674   7.059 -0.6201 -0.1653  0.6976
  264MOL0     N35556   4.599   4.713   7.084 -0.3616  0.2726  0.3126
  264MOL0     C35557   3.346   4.450   6.919  0.7598 -0.1289 -0.1480
  264MOL0     C35558   3.227   4.385   6.944 -1.2189 -0.4236  0.1488
  264MOL0     C35559   2.779   4.315   7.059  0.3020  0.4665 -0.1862
  264MOL0     C35560   2.781   4.189   6.997  1.0504 -0.4086 -0.0770
  264MOL0     C35561   2.661   4.112   6.985 -0.0857 -1.0524  0.9335
  264MOL0     C35562   2.546   4.161   7.053  0.3692 -0.2589  0.8449
  264MOL0     O35563   2.428   4.086   7.044  0.2424  0.3734 -0.0971
  264MOL0     C35564   2.347   4.073   7.156  0.0396 -0.3293  0.1072
  264MOL0     C35565   2.232   4.178   7.137  0.3888 -0.7231  0.4001
  264MOL0     C35566   2.138   4.156   7.018 -0.2754 -0.1928  1.0087
  264MOL0     C35567   2.078   4.298   6.979  0.1214 -0.5193 -0.2609
  264MOL0     C35568   2.171   4.366   6.887  0.7871 -0.3478  1.1174
  264MOL0     C35569   2.234   4.453   6.828 -0.3033  0.4771  0.4411
  264MOL0     C35570   2.548   4.280   7.120  0.3089  1.2963 -0.4270
  264MOL0     C35571   2.663   4.361   7.126 -0.4586 -0.9040 -0.0098
  264MOL0     C35572   2.648   4.502   7.201 -1.2747  0.1870  0.5816
  264MOL0     H35573   3.006   4.623   6.877 -0.5397  0.4674 -0.5071
  264MOL0     H35574   3.217   4.748   6.829 -0.5774 -0.8315 -4.9985
  264MOL0     H35575   3.601   4.591   7.001  2.1424 -0.8167 -0.3137
  264MOL0     H35576   3.601   4.514   6.848 -2.1520  0.1334  0.5787
  264MOL0     H35577   3.703   4.791   6.915  0.6961  1.9848 -2.1689
  264MOL0     H35578   3.697   4.731   6.742  1.0898 -0.7311 -0.4647
  264MOL0     H35579   3.845   4.539   6.819  0.2913  0.0962 -0.5194
  264MOL0     H35580   3.863   4.608   6.975  1.8813  1.7415  0.5949
  264MOL0     H35581   3.925   4.768   6.729 -0.4201  1.3454  0.2867
  264MOL0     H35582   3.958   4.807   6.906  1.4753 -3.2543  2.6613
  264MOL0     H35583   4.078   4.564   6.771 -0.6777  1.3177 -0.0035
  264MOL0     H35584   4.152   4.724   6.758  2.6209 -1.4031  0.0187
  264MOL0     H35585   4.126   4.739   7.017  4.3578 -0.1611  2.4099
  264MOL0     H35586   4.089   4.563   7.008  0.2743  0.0207  0.8916
  264MOL0     H35587   4.343   4.669   6.862  1.1887 -4.1776 -2.5821
  264MOL0     H35588   4.297   4.519   6.890  0.0624  0.0346 -0.8186
  264MOL0     H35589   4.364   4.733   7.111  1.4126  0.7345 -2.7623
  264MOL0     H35590   4.335   4.554   7.145 -0.8817 -0.0150 -0.3725
  264MOL0     H35591   4.547   4.396   6.995 -0.5934 -0.0641 -0.3526
  264MOL0     H35592   4.790   4.353   6.963  0.8709 -0.7142  0.9769
  264MOL0     H35593   4.898   4.487   6.936  0.8891  0.3653  1.4018
  264MOL0     H35594   4.898   4.514   7.199  2.2072 -0.1497  1.2931
  264MOL0     H35595   4.829   4.347   7.197 -0.8266 -0.6154 -1.4939
  264MOL0     H35596   5.104   4.426   7.113 -0.3024  0.8443  0.5325
  264MOL0     H35597   5.025   4.270   7.056 -4.3380  1.4896 -0.8580
  264MOL0     H35598   4.971   4.239   7.298  2.3153 -3.0394  0.0038
  264MOL0     H35599   5.037   4.407   7.332 -1.1759  1.0390 -0.9224
  264MOL0     H35600   5.254   4.129   7.516 -1.2859 -3.6070  3.3946
  264MOL0     H35601   5.308   3.881   7.525 -0.5528 -3.1410 -0.6650
  264MOL0     H35602   5.157   3.463   7.394  0.0599  0.9809  0.5481
  264MOL0     H35603   5.192   3.218   7.416 -1.7555  1.7409  0.5746
  264MOL0     H35604   5.277   3.003   7.556  1.7374  0.0308  0.1087
  264MOL0     H35605   5.298   3.017   7.385 -1.9327  5.5501  1.3787
  264MOL0     H35606   5.508   2.861   7.413  0.6089 -1.4202  0.3744
  264MOL0     H35607   5.490   2.860   7.578  1.6535  2.0439 -0.0936
  264MOL0     H35608   5.268   2.750   7.581 -1.4024 -0.0445 -0.7171
  264MOL0     H35609   5.270   2.744   7.410 -1.4587  1.1382  1.6216
  264MOL0     H35610   5.482   2.609   7.591  1.9649  0.1168  0.1653
  264MOL0     H35611   5.483   2.602   7.409 -1.9605 -0.9514 -0.3073
  264MOL0     H35612   5.262   2.482   7.587  2.6988  1.5154  0.8646
  264MOL0     H35613   5.381   2.386   7.516 -1.4316 -0.9505 -0.2160
  264MOL0     H35614   5.162   2.547   7.360  1.1695  2.6403 -0.2245
  264MOL0     H35615   5.318   2.497   7.292  1.1358  0.9540  1.2012
  264MOL0     H35616   5.124   2.308   7.433  2.7598 -0.2645  0.6099
  264MOL0     H35617   5.272   2.267   7.335  1.9184  0.2430  0.5241
  264MOL0     H35618   4.990   2.349   7.219 -0.1225  1.2308 -2.0866
  264MOL0     H35619   5.142   2.381   7.138 -0.9598  1.3770  0.4697
  264MOL0     H35620   5.615   3.300   7.521  0.9828 -1.2537 -0.2817
  264MOL0     H35621   5.568   3.523   7.507  0.9438 -2.2464  2.4028
  264MOL0     H35622   5.190   3.838   7.125  3.2655 -1.1335 -0.3594
  264MOL0     H35623   5.165   4.089   7.095 -1.9773 -0.9642 -1.1569
  264MOL0     H35624   3.442   4.409   6.949  0.1369 -0.8930  0.8341
  264MOL0     H35625   3.227   4.278   6.963  1.7879 -0.8647 -1.6494
  264MOL0     H35626   2.877   4.152   6.962  3.3063  3.6885  1.1357
  264MOL0     H35627   2.668   4.020   6.926  2.5442 -2.0688  2.6679
  264MOL0     H35628   2.394   4.082   7.254 -0.7256  2.1457  0.3294
  264MOL0     H35629   2.302   3.974   7.148  0.9085 -0.5694 -3.1324
  264MOL0     H35630   2.264   4.282   7.137  2.6467 -1.3658  0.0113
  264MOL0     H35631   2.174   4.165   7.229  1.5707  0.6045  1.3659
  264MOL0     H35632   2.051   4.093   7.041 -1.4277  0.1858 -1.9023
  264MOL0     H35633   2.191   4.104   6.938  0.5148  1.5437  0.3477
  264MOL0     H35634   1.978   4.287   6.935  1.5136 -2.7918 -3.2049
  264MOL0     H35635   2.062   4.368   7.062 -4.3311  1.7325 -2.6726
  264MOL0     H35636   2.281   4.496   6.742 -1.4664  0.3089 -0.3144
  264MOL0     H35637   2.470   4.312   7.188  0.7957 -0.5935  1.1130
  264MOL0     H35638   2.541   4.520   7.201 -1.4744 -0.8866 -0.5062
  264MOL0     H35639   2.682   4.477   7.302  0.0289 -1.5620 -0.2287
  264MOL0     H35640   2.706   4.584   7.158  2.0250 -2.0051  0.4429
  265MOL0     O35641   8.709   3.016   5.873 -0.0806 -0.0430  0.6427
  265MOL0     C35642   8.713   3.078   5.766 -0.1123  0.0402 -0.2027
  265MOL0     O35643   8.824   3.144   5.722  0.5045  0.2977 -0.0172
  265MOL0     C35644   8.947   3.138   5.774  0.3600  0.1529 -0.3394
  265MOL0     C35645   9.055   3.207   5.714 -0.0733 -0.4970 -0.0542
  265MOL0     C35646   9.188   3.213   5.756  0.6520 -0.2551 -0.4374
  265MOL0     C35647   9.226   3.136   5.866  0.3624  0.0112 -0.3289
  265MOL0     O35648   9.346   3.127   5.915 -0.3317 -0.0668 -0.4375
  265MOL0     C35649   9.445   3.227   5.863 -0.1336  1.5210 -0.3805
  265MOL0     C35650   9.573   3.174   5.935  0.1045  0.1707  0.1977
  265MOL0     C35651   9.706   3.240   5.931 -0.8713 -0.1178 -0.4758
  265MOL0     C35652   9.820   3.140   5.958 -0.2467  0.9012 -0.4343
  265MOL0     C35653   9.958   3.190   5.997  0.6428 -0.4791  0.0027
  265MOL0     C35654  10.007   3.295   5.902 -0.0331  0.4101  0.2143
  265MOL0     C35655  10.144   3.339   5.966  0.8045 -0.0380  0.7203
  265MOL0     C35656  10.269   3.262   5.916  0.1349 -1.3286  0.6091
  265MOL0     N35657  10.391   3.336   5.946  0.9267 -0.3864 -0.1574
  265MOL0     C35658  10.466   3.406   5.853 -1.0881 -0.4700  0.2038
  265MOL0     C35659  10.572   3.464   5.917 -0.3388  0.7740 -0.5125
  265MOL0     C35660  10.674   3.537   5.840 -0.6062 -0.2634 -0.2475
  265MOL0     C35661  10.804   3.540   5.921 -0.2185  0.3872 -0.8226
  265MOL0     C35662  10.912   3.625   5.849  0.0007  0.4335 -0.8426
  265MOL0     C35663  11.042   3.625   5.932 -0.1222  0.7630  0.2760
  265MOL0     O35664  11.139   3.682   5.852  0.3213  0.6677 -0.3672
  265MOL0     C35665  11.271   3.656   5.892 -0.3110  0.1455 -0.9075
  265MOL0     C35666  11.358   3.666   5.788 -0.4779  0.0855 -0.3809
  265MOL0     C35667  11.497   3.656   5.809  0.1746 -0.0139 -0.2591
  265MOL0     C35668  11.543   3.611   5.939  0.8779  0.1767 -0.1863
  265MOL0     C35669  11.691   3.593   5.964  1.4822 -0.2502  0.1033
  265MOL0     O35670  11.766   3.641   5.864 -0.4409  0.3647  0.0190
  265MOL0     C35671  11.904   3.631   5.882  1.5510  0.3630 -0.0541
  265MOL0     C35672  11.972   3.722   5.952 -0.4634 -0.3799  0.2803
  265MOL0     C35673  12.109   3.701   5.980  0.2883  0.2403  0.5261
  265MOL0     C35674  12.177   3.600   5.925 -0.8890 -0.2572  0.3278
  265MOL0     O35675  12.314   3.610   5.954 -0.3116  0.2925 -0.3030
  265MOL0     C35676  12.391   3.492   5.948  0.7535 -0.4566  0.6297
  265MOL0     C35677  12.528   3.525   5.994 -0.4159  0.2476  0.0282
  265MOL0     C35678  12.545   3.499   6.139 -0.3205 -0.6219 -0.0215
  265MOL0     C35679  12.687   3.547   6.182  0.2039  0.5274  0.9510
  265MOL0     C35680  12.779   3.424   6.182 -0.1290  0.2891  0.3016
  265MOL0     C35681  12.762   3.326   6.298 -0.2316 -0.2786 -0.6384
  265MOL0     C35682  12.853   3.207   6.290 -0.1464 -0.0922  0.2367
  265MOL0     C35683  12.892   3.141   6.417 -0.2309  0.2597 -0.3199
  265MOL0    Cl35684  12.751   3.058   6.485 -0.1096 -0.3445  0.0668
  265MOL0     C35685  12.109   3.501   5.855  0.2024  0.2972 -0.3097
  265MOL0     C35686  11.975   3.519   5.827 -0.1491 -0.2789  0.4531
  265MOL0     O35687  11.725   3.532   6.068  0.1017  0.3658  0.1760
  265MOL0     C35688  11.445   3.580   6.039 -0.4368  0.3991 -0.2296
  265MOL0     C35689  11.306   3.605   6.014  0.3180 -0.9948  1.0166
  265MOL0     N35690  10.561   3.416   6.047 -0.3654 -0.3108 -0.3484
  265MOL0     N35691  10.451   3.354   6.067 -0.1803 -0.5124  0.4635
  265MOL0     C35692   9.120   3.076   5.937  0.4720 -0.6550  0.5915
  265MOL0     C35693   8.986   3.073   5.894 -1.0038  0.3355  0.7923
  265MOL0     C35694   8.595   3.086   5.689 -0.0928  0.6972 -0.0828
  265MOL0     C35695   8.476   3.055   5.751 -0.4022  0.3608  0.1191
  265MOL0     C35696   8.354   3.058   5.690  0.6926  0.3948  0.3172
  265MOL0     C35697   8.339   3.100   5.561 -0.4847  0.0472 -1.1202
  265MOL0     O35698   8.223   3.128   5.488  0.1927  0.5160  0.0619
  265MOL0     C35699   8.110   3.143   5.580  0.1117 -0.1164  0.1718
  265MOL0     C35700   7.977   3.165   5.496  0.7032 -0.2395 -0.3852
  265MOL0     C35701   7.855   3.102   5.547 -0.1984  0.0627 -0.7559
  265MOL0     C35702   7.845   2.949   5.547  0.0778 -0.8178  0.4106
  265MOL0     C35703   7.849   2.914   5.401 -0.3079  0.0921 -0.2106
  265MOL0     C35704   7.848   2.876   5.289  0.5653  0.9339 -0.1577
  265MOL0     C35705   8.462   3.131   5.498  0.4844  1.4811  0.3274
  265MOL0     C35706   8.591   3.117   5.552  0.4823 -0.5828 -0.5690
  265MOL0     C35707   8.707   3.137   5.460 -0.8377 -0.0467 -0.8366
  265MOL0     H35708   9.038   3.262   5.622  0.5775  0.2350  0.2463
  265MOL0     H35709   9.256   3.256   5.684  2.4570  0.7772  1.7635
  265MOL0     H35710   9.457   3.229   5.755 -0.4103 -1.0469 -0.5171
  265MOL0     H35711   9.432   3.326   5.909  2.0151  0.4657  2.8727
  265MOL0     H35712   9.590   3.072   5.901  0.3180  0.2155  0.1632
  265MOL0     H35713   9.532   3.174   6.037 -1.5330  1.2906 -0.4216
  265MOL0     H35714   9.717   3.327   5.996  1.5593  0.1008 -1.0850
  265MOL0     H35715   9.712   3.276   5.828 -0.8252  1.4555  0.0526
  265MOL0     H35716   9.785   3.072   6.037  1.3755  0.7202  0.1527
  265MOL0     H35717   9.827   3.073   5.872 -1.0231 -3.0076  2.2440
  265MOL0     H35718   9.950   3.227   6.100 -2.2334 -2.5194  0.6608
  265MOL0     H35719  10.030   3.107   5.994 -0.0760 -1.0894 -0.9127
  265MOL0     H35720  10.016   3.253   5.802 -3.8423  0.7397 -0.4353
  265MOL0     H35721   9.933   3.374   5.884 -0.7566 -0.1933  0.4941
  265MOL0     H35722  10.140   3.336   6.075 -0.1243 -0.2363  0.6856
  265MOL0     H35723  10.163   3.445   5.947 -0.9327  0.6385  2.4265
  265MOL0     H35724  10.269   3.166   5.968 -2.0730 -0.8360  1.6030
  265MOL0     H35725  10.255   3.250   5.808 -1.4128  0.4465  0.5785
  265MOL0     H35726  10.446   3.405   5.746 -0.0934 -2.5400  0.0028
  265MOL0     H35727  10.695   3.469   5.757 -1.0430 -0.9525  0.1891
  265MOL0     H35728  10.626   3.626   5.798 -3.3493 -1.1070  0.8889
  265MOL0     H35729  10.778   3.587   6.016 -0.3146 -0.6857 -0.2992
  265MOL0     H35730  10.841   3.440   5.949 -1.8417 -0.0816 -0.2485
  265MOL0     H35731  10.885   3.727   5.821 -2.1166  0.9281  2.5149
  265MOL0     H35732  10.926   3.566   5.758 -0.9901 -1.5968  0.2555
  265MOL0     H35733  11.063   3.524   5.971  0.0871  1.3825  1.8644
  265MOL0     H35734  11.037   3.688   6.021 -0.9842  0.7969  0.2088
  265MOL0     H35735  11.330   3.675   5.683  0.3411 -0.8344 -0.6879
  265MOL0     H35736  11.570   3.678   5.732 -0.3794  0.8015 -0.5632
  265MOL0     H35737  11.926   3.809   5.998 -1.5973  1.0558 -3.2452
  265MOL0     H35738  12.161   3.779   6.034 -0.5159  3.2550 -2.6726
  265MOL0     H35739  12.336   3.427   6.017 -4.0205  2.8071  0.3662
  265MOL0     H35740  12.391   3.453   5.846 -4.2721 -0.9046  0.5447
  265MOL0     H35741  12.597   3.465   5.934 -1.3418  0.1425 -0.9659
  265MOL0     H35742  12.558   3.625   5.963  1.2111 -0.8509 -2.1571
  265MOL0     H35743  12.475   3.574   6.177  0.7042  0.0124  0.6774
  265MOL0     H35744  12.513   3.398   6.163 -0.2467 -0.3140  1.4581
  265MOL0     H35745  12.681   3.583   6.285  0.5248  0.7442  0.8938
  265MOL0     H35746  12.734   3.628   6.125  2.0617 -1.0264  0.1609
  265MOL0     H35747  12.876   3.474   6.195 -1.6395  2.9982  2.2590
  265MOL0     H35748  12.783   3.376   6.084  1.0861 -1.9255  1.3607
  265MOL0     H35749  12.781   3.390   6.384 -0.9101  1.9250 -2.0408
  265MOL0     H35750  12.664   3.279   6.313 -0.6121  0.8698  0.5978
  265MOL0     H35751  12.954   3.231   6.256 -0.1325 -1.1249 -0.5294
  265MOL0     H35752  12.813   3.138   6.215  0.6929 -1.8745  1.3451
  265MOL0     H35753  12.972   3.069   6.401  0.9793  1.3679  0.5651
  265MOL0     H35754  12.920   3.219   6.488 -0.4350  2.4728 -2.5457
  265MOL0     H35755  12.138   3.401   5.826  1.2418  0.7308 -0.8400
  265MOL0     H35756  11.923   3.443   5.770 -2.1197  1.2465  0.0991
  265MOL0     H35757  11.485   3.530   6.127  1.4219 -2.4835 -2.5402
  265MOL0     H35758  11.238   3.573   6.092 -2.6350  1.9388 -0.1322
  265MOL0     H35759   9.136   3.020   6.028 -2.3217 -1.0275  0.9599
  265MOL0     H35760   8.917   3.012   5.951 -0.9789 -0.7886 -0.3406
  265MOL0     H35761   8.481   3.027   5.856  1.7870 -1.8736 -0.5023
  265MOL0     H35762   8.278   3.030   5.762  2.1629  1.2384  2.2916
  265MOL0     H35763   8.112   3.230   5.646 -2.2828  0.4501 -0.4019
  265MOL0     H35764   8.104   3.048   5.635 -1.7383 -0.4806 -0.5874
  265MOL0     H35765   7.985   3.143   5.389 -2.1479  1.7140 -1.1116
  265MOL0     H35766   7.954   3.272   5.488 -0.6816 -0.0635  3.7251
  265MOL0     H35767   7.780   3.141   5.478 -0.0756 -0.3664 -1.1304
  265MOL0     H35768   7.841   3.139   5.649  0.4463  0.6682 -0.8841
  265MOL0     H35769   7.916   2.899   5.614  2.8891  0.6294 -1.3113
  265MOL0     H35770   7.751   2.917   5.593 -0.2402 -1.1843 -0.4799
  265MOL0     H35771   7.865   2.842   5.189  2.5521  0.5694  0.2585
  265MOL0     H35772   8.449   3.165   5.396  2.0492  0.1357 -0.3754
  265MOL0     H35773   8.669   3.125   5.358  0.5695  1.1547 -1.5388
  265MOL0     H35774   8.745   3.237   5.480  1.1178 -0.5665 -1.7147
  265MOL0     H35775   8.792   3.072   5.481 -1.3018 -0.1512  0.8902
  266MOL0     O35776   4.259  10.476   9.370 -0.9278 -0.4636 -0.3795
  266MOL0     C35777   4.164  10.481   9.448 -0.8791  0.2715 -0.3490
  266MOL0     O35778   4.167  10.565   9.563 -0.2014  0.1570  0.1730
  266MOL0     C35779   4.279  10.638   9.584 -0.8431  0.1009  0.4421
  266MOL0     C35780   4.280  10.767   9.541 -0.4164 -0.6517  0.1872
  266MOL0     C35781   4.388  10.859   9.558 -0.3844 -0.0047 -0.8733
  266MOL0     C35782   4.501  10.811   9.639  0.6438 -0.3259 -0.5899
  266MOL0     O35783   4.593  10.910   9.673  0.4346 -0.5179  0.1081
  266MOL0     C35784   4.706  10.882   9.758  0.4965  0.8658 -0.3657
  266MOL0     C35785   4.812  10.981   9.710 -0.4246 -0.8140 -0.6326
  266MOL0     C35786   4.867  10.925   9.581 -0.1903 -0.0715 -1.2192
  266MOL0     C35787   4.803  10.996   9.462  0.0804  0.2876  0.3593
  266MOL0     C35788   4.854  10.927   9.333 -0.3028 -0.4137 -0.0931
  266MOL0     C35789   4.836  11.027   9.218 -0.3558  0.4306  0.3530
  266MOL0     C35790   4.957  11.027   9.121 -0.1339 -0.2435 -0.7143
  266MOL0     C35791   5.087  11.087   9.189 -0.1782 -0.5012  0.3293
  266MOL0     N35792   5.210  11.045   9.126  1.0392 -0.2045 -0.6652
  266MOL0     C35793   5.314  10.980   9.191  0.6664 -0.0192  0.9706
  266MOL0     C35794   5.417  10.988   9.105 -0.5122 -0.3304  0.3453
  266MOL0     C35795   5.561  10.940   9.135  0.4041 -0.0586  0.0261
  266MOL0     C35796   5.664  11.031   9.058 -0.1477  0.6779  0.7707
  266MOL0     C35797   5.804  11.006   9.113  0.0402 -0.0055 -0.3928
  266MOL0     C35798   5.915  11.052   9.014 -0.8108  1.1735  0.1349
  266MOL0     O35799   6.033  11.031   9.093  0.0393  0.5061  0.5914
  266MOL0     C35800   6.151  11.057   9.019 -0.7237 -0.2305  0.4090
  266MOL0     C35801   6.229  10.949   8.985 -0.2448  0.7166  0.0833
  266MOL0     C35802   6.357  10.967   8.938  0.1183  0.8669  0.1095
  266MOL0     C35803   6.402  11.094   8.901  0.1648 -0.8836  0.1985
  266MOL0     C35804   6.539  11.106   8.834  0.6639 -0.2349 -1.0909
  266MOL0     O35805   6.612  10.998   8.837 -0.5230 -0.2349 -0.3399
  266MOL0     C35806   6.743  10.994   8.808  0.3603 -0.2056  0.3911
  266MOL0     C35807   6.786  10.877   8.747  0.4700 -0.2685  0.7181
  266MOL0     C35808   6.913  10.865   8.707  0.4980  0.0849  0.1686
  266MOL0     C35809   7.007  10.973   8.716  0.1205 -0.1060 -0.0249
  266MOL0     O35810   7.131  10.953   8.669  0.3148 -0.4203  0.2853
  266MOL0     C35811   7.217  10.866   8.746 -0.0888  0.4327  0.1925
  266MOL0     C35812   7.363  10.872   8.697 -0.0169  0.6498 -0.4633
  266MOL0     C35813   7.415  11.013   8.710  0.2219 -0.7236 -0.7333
  266MOL0     C35814   7.544  11.046   8.631  0.4063 -0.0446  0.2324
  266MOL0     C35815   7.668  10.960   8.670 -0.0626 -1.3467  0.1310
  266MOL0     C35816   7.806  11.010   8.612  0.2577  0.6942  0.0735
  266MOL0     C35817   7.801  11.043   8.465  0.5746  0.5323 -0.3528
  266MOL0     C35818   7.946  11.076   8.409  0.1325  0.5787  0.6215
  266MOL0    Cl35819   7.954  11.126   8.242  0.1469  0.0330 -0.1616
  266MOL0     C35820   6.965  11.092   8.767  1.4224 -1.2260 -0.2978
  266MOL0     C35821   6.836  11.101   8.813 -0.3919  0.0501  0.1306
  266MOL0     O35822   6.573  11.210   8.788  0.1735  0.4873 -0.1143
  266MOL0     C35823   6.320  11.204   8.926  0.6029  0.4998  0.4820
  266MOL0     C35824   6.197  11.193   8.989 -0.4533 -0.1000  0.7972
  266MOL0     N35825   5.374  11.053   8.990 -0.1825 -0.0067  0.0742
  266MOL0     N35826   5.258  11.107   9.013 -0.3178  0.5634 -0.8689
  266MOL0     C35827   4.506  10.677   9.675 -0.7596  0.5767  0.2968
  266MOL0     C35828   4.400  10.594   9.642 -0.6111  0.4740 -0.2308
  266MOL0     C35829   4.053  10.380   9.426 -0.5177  0.1431 -0.1205
  266MOL0     C35830   4.062  10.284   9.325 -0.6363  0.5016  0.2272
  266MOL0     C35831   3.969  10.184   9.301  0.6865 -0.3396 -0.2009
  266MOL0     C35832   3.860  10.169   9.393 -1.0259 -0.3428  0.3837
  266MOL0     O35833   3.761  10.077   9.399 -0.9415  0.5099  0.0046
  266MOL0     C35834   3.761  10.005   9.271  1.3382  0.4186 -0.8328
  266MOL0     C35835   3.619   9.964   9.252  0.4429  0.4883  0.5859
  266MOL0     C35836   3.572   9.873   9.365  0.5226  0.0687  0.0642
  266MOL0     C35837   3.419   9.881   9.383 -0.2787  0.4891  0.1723
  266MOL0     C35838   3.340   9.863   9.261  0.0132  0.1167 -0.8936
  266MOL0     C35839   3.269   9.841   9.168 -0.0260 -1.0128  0.3266
  266MOL0     C35840   3.845  10.270   9.486  0.2565  0.5366 -0.8993
  266MOL0     C35841   3.942  10.373   9.503  0.7332  0.1266 -0.7395
  266MOL0     C35842   3.912  10.463   9.615 -0.0863 -0.7158  0.2480
  266MOL0     H35843   4.202  10.797   9.472 -0.6530  1.8907  1.4572
  266MOL0     H35844   4.371  10.962   9.528 -0.4296  0.0516 -0.6548
  266MOL0     H35845   4.689  10.911   9.862  2.8258  0.3153  0.2174
  266MOL0     H35846   4.733  10.776   9.758  0.2191  0.7962 -0.4756
  266MOL0     H35847   4.884  11.001   9.790  0.5066  2.9658 -2.1934
  266MOL0     H35848   4.767  11.080   9.697 -0.6993 -1.0471 -1.5939
  266MOL0     H35849   4.853  10.817   9.572  0.3293 -0.2025 -0.5130
  266MOL0     H35850   4.973  10.950   9.575  0.2291 -1.5061 -0.2527
  266MOL0     H35851   4.694  11.000   9.455  0.1345 -0.6428 -2.9721
  266MOL0     H35852   4.834  11.100   9.471 -3.3700  1.6287 -1.5352
  266MOL0     H35853   4.960  10.902   9.341 -0.6900 -1.7864  1.0220
  266MOL0     H35854   4.800  10.837   9.304  0.6530 -0.5802 -1.4239
  266MOL0     H35855   4.747  10.991   9.165 -0.0924  0.4398 -0.1001
  266MOL0     H35856   4.817  11.132   9.244  2.3081  1.3649 -1.0420
  266MOL0     H35857   4.931  11.088   9.034 -1.6600 -0.5588 -0.5167
  266MOL0     H35858   4.977  10.921   9.104 -0.9942 -0.9011  1.8397
  266MOL0     H35859   5.072  11.194   9.168  1.4672 -0.5760 -1.5229
  266MOL0     H35860   5.093  11.067   9.297  1.2182 -1.1890  0.1482
  266MOL0     H35861   5.324  10.952   9.295 -0.4300 -1.0330  0.8238
  266MOL0     H35862   5.578  10.944   9.243 -2.5390 -1.9151  0.6683
  266MOL0     H35863   5.568  10.834   9.107 -4.1990 -0.6877  0.5078
  266MOL0     H35864   5.662  11.029   8.948 -1.1965 -1.2935  0.7769
  266MOL0     H35865   5.642  11.136   9.081 -1.0040  1.4496 -2.8977
  266MOL0     H35866   5.824  10.903   9.144  2.7595  0.4118 -0.4991
  266MOL0     H35867   5.815  11.075   9.198  0.3562  1.2333 -1.4060
  266MOL0     H35868   5.907  11.154   8.975  2.4823  1.2306 -0.7063
  266MOL0     H35869   5.927  10.986   8.927 -0.8748  0.6470  0.5160
  266MOL0     H35870   6.192  10.854   9.022  0.5501 -0.4735 -1.9934
  266MOL0     H35871   6.421  10.881   8.929  3.3431  3.2488 -1.8773
  266MOL0     H35872   6.712  10.804   8.717 -1.1075  1.9180 -1.0201
  266MOL0     H35873   6.944  10.779   8.650  0.9761  0.3598  0.0126
  266MOL0     H35874   7.207  10.889   8.853 -2.6687 -0.2468  0.1685
  266MOL0     H35875   7.185  10.763   8.731 -1.1268  0.2339  3.1533
  266MOL0     H35876   7.419  10.809   8.767 -0.0222 -0.2503 -1.2360
  266MOL0     H35877   7.371  10.842   8.592 -2.0211  0.7734 -0.6930
  266MOL0     H35878   7.336  11.088   8.695  0.4078 -0.5535 -0.8584
  266MOL0     H35879   7.445  11.029   8.814  1.2303  1.7921 -1.3345
  266MOL0     H35880   7.578  11.147   8.657  0.2219  0.1868 -0.4006
  266MOL0     H35881   7.513  11.041   8.526  0.3858  0.4786  0.2079
  266MOL0     H35882   7.647  10.860   8.630  2.1970 -0.7898 -2.8688
  266MOL0     H35883   7.681  10.968   8.778 -2.7452 -0.5521  0.4670
  266MOL0     H35884   7.830  11.110   8.648  0.8186  1.1710 -1.5131
  266MOL0     H35885   7.889  10.942   8.634  1.4073  0.6474 -3.6360
  266MOL0     H35886   7.739  11.127   8.433  0.6560  0.2020 -1.4237
  266MOL0     H35887   7.765  10.955   8.411  1.4970 -1.1646  1.6872
  266MOL0     H35888   7.992  11.159   8.463  1.1599 -1.7112  3.5339
  266MOL0     H35889   8.003  10.986   8.431  0.3305 -0.2590 -2.8726
  266MOL0     H35890   7.031  11.177   8.780  0.2422  0.0265 -2.1113
  266MOL0     H35891   6.815  11.200   8.852  2.5836  0.6844  0.3621
  266MOL0     H35892   6.357  11.303   8.900 -0.0942  0.8049  0.5939
  266MOL0     H35893   6.138  11.280   9.014  1.5314  1.6972 -0.4212
  266MOL0     H35894   4.592  10.627   9.718 -1.5019  0.5606  1.8673
  266MOL0     H35895   4.407  10.492   9.678  1.4536  1.0367  1.1549
  266MOL0     H35896   4.146  10.294   9.256 -1.8560 -1.3267 -1.6652
  266MOL0     H35897   3.998  10.112   9.226  0.2411  0.3418 -1.0536
  266MOL0     H35898   3.822   9.914   9.275 -0.4193 -0.7961  0.4642
  266MOL0     H35899   3.792  10.061   9.183  3.7941  0.0180 -0.2879
  266MOL0     H35900   3.603   9.916   9.155  1.6441  0.0520  0.5859
  266MOL0     H35901   3.561  10.056   9.259  0.8472  0.6986  1.2444
  266MOL0     H35902   3.624   9.888   9.460  0.2639 -0.0251  0.2213
  266MOL0     H35903   3.594   9.773   9.328  0.6287 -0.0525  0.4549
  266MOL0     H35904   3.393   9.804   9.456  0.8677 -1.6487 -1.5455
  266MOL0     H35905   3.399   9.973   9.438 -3.1507 -0.4477  0.8564
  266MOL0     H35906   3.209   9.820   9.081 -1.3402  1.5688  0.5227
  266MOL0     H35907   3.770  10.252   9.562  1.3531 -3.3927 -0.5413
  266MOL0     H35908   3.980  10.450   9.699 -1.6586 -2.1749  1.3772
  266MOL0     H35909   3.902  10.560   9.566  1.2247  0.7707  2.7171
  266MOL0     H35910   3.818  10.440   9.666 -1.2597  2.6252 -0.1390
  267MOL0     O35911   3.347   6.187   7.866  0.9036 -0.8362 -0.0066
  267MOL0     C35912   3.306   6.303   7.884 -0.2670  0.2353 -0.8397
  267MOL0     O35913   3.360   6.390   7.969  0.1305 -0.3570  0.4545
  267MOL0     C35914   3.473   6.360   8.035  0.1556 -0.0832  1.1366
  267MOL0     C35915   3.499   6.246   8.108 -0.6017 -0.2117 -0.6710
  267MOL0     C35916   3.618   6.242   8.184  0.2027  0.6210  0.3069
  267MOL0     C35917   3.716   6.347   8.189  0.8526 -0.2862  1.2328
  267MOL0     O35918   3.839   6.342   8.237  0.2338  0.8939  0.5576
  267MOL0     C35919   3.870   6.218   8.300 -0.8337  0.4210 -0.2359
  267MOL0     C35920   4.016   6.223   8.357 -0.0586 -0.4416 -0.7943
  267MOL0     C35921   4.038   6.347   8.444 -1.0328  0.3474 -0.1935
  267MOL0     C35922   4.176   6.354   8.515 -0.4863  0.7955  0.9512
  267MOL0     C35923   4.201   6.492   8.593 -0.5340  0.8548  1.3326
  267MOL0     C35924   4.320   6.482   8.686  0.9616  0.3871  0.5120
  267MOL0     C35925   4.354   6.617   8.749 -0.5792 -0.2799  0.3877
  267MOL0     C35926   4.473   6.595   8.848  0.4130 -0.5825 -0.3940
  267MOL0     N35927   4.502   6.736   8.905  0.1795  0.6421  0.5900
  267MOL0     C35928   4.547   6.843   8.828 -0.0890  0.3405 -0.0217
  267MOL0     C35929   4.560   6.946   8.915  0.2954 -0.4685 -0.4508
  267MOL0     C35930   4.608   7.075   8.866  0.4632 -0.0734 -0.0318
  267MOL0     C35931   4.759   7.074   8.835 -0.0872  0.7040 -0.0139
  267MOL0     C35932   4.802   7.209   8.816 -0.0345 -0.7034  0.4483
  267MOL0     C35933   4.958   7.215   8.813  0.3304  0.2241  1.1263
  267MOL0     O35934   4.998   7.347   8.768  0.2519 -0.2175 -0.1158
  267MOL0     C35935   5.130   7.371   8.732  0.4658  0.3000  0.2499
  267MOL0     C35936   5.221   7.270   8.706 -0.2134 -0.1331 -0.1004
  267MOL0     C35937   5.355   7.289   8.683 -0.1878 -0.6133 -0.0729
  267MOL0     C35938   5.406   7.420   8.676 -0.2203 -0.5343 -0.0187
  267MOL0     C35939   5.549   7.444   8.660 -0.3903 -0.4940 -0.8278
  267MOL0     O35940   5.600   7.549   8.733  0.5556  0.8530 -0.0090
  267MOL0     C35941   5.716   7.614   8.705 -0.3195  0.1402 -0.1605
  267MOL0     C35942   5.726   7.692   8.584 -0.1255  0.3639  0.0989
  267MOL0     C35943   5.843   7.768   8.550  0.2047 -0.0890  0.4171
  267MOL0     C35944   5.953   7.764   8.631 -0.2704 -0.6185  0.0475
  267MOL0     O35945   6.056   7.844   8.597  0.2309  0.5630 -0.4369
  267MOL0     C35946   6.026   7.981   8.577 -0.6766  0.0103  0.4549
  267MOL0     C35947   6.152   8.063   8.537  0.5595 -0.2306 -0.5685
  267MOL0     C35948   6.125   8.196   8.482 -0.2099 -0.0429 -0.1953
  267MOL0     C35949   6.018   8.291   8.544  0.2808  0.0839 -0.1302
  267MOL0     C35950   5.966   8.388   8.449  0.1024 -0.1530 -0.3229
  267MOL0     C35951   5.845   8.468   8.505  0.3107  0.3889  0.3903
  267MOL0     C35952   5.802   8.573   8.403 -0.3542 -0.1691 -0.1922
  267MOL0     C35953   5.700   8.664   8.466 -0.8403 -0.0317 -0.0672
  267MOL0    Cl35954   5.675   8.813   8.376 -0.2665  0.0454  0.1989
  267MOL0     C35955   5.957   7.674   8.734  0.0167  0.0938  0.0478
  267MOL0     C35956   5.837   7.608   8.777  0.2744  1.5197 -0.4019
  267MOL0     O35957   5.607   7.388   8.568  0.3456 -0.2270  0.7427
  267MOL0     C35958   5.320   7.522   8.708 -0.0934  0.6571 -1.0138
  267MOL0     C35959   5.177   7.504   8.732 -0.2433 -0.8443 -0.2408
  267MOL0     N35960   4.523   6.897   9.041  0.6423  0.0788  0.0737
  267MOL0     N35961   4.485   6.772   9.032 -0.1764 -0.4965  0.2675
  267MOL0     C35962   3.677   6.466   8.116 -1.3872  0.3235 -0.5243
  267MOL0     C35963   3.563   6.469   8.045  0.9088  0.7218  0.2643
  267MOL0     C35964   3.165   6.337   7.832  0.8660  0.3079  1.4398
  267MOL0     C35965   3.072   6.378   7.927 -0.3684 -0.2524  0.0382
  267MOL0     C35966   2.941   6.387   7.897  0.2106 -0.5692  0.0411
  267MOL0     C35967   2.888   6.367   7.773 -0.5148  0.9426  0.5415
  267MOL0     O35968   2.751   6.379   7.762 -0.5445 -0.1956 -0.7167
  267MOL0     C35969   2.695   6.323   7.643  0.1893 -0.0691  0.5977
  267MOL0     C35970   2.540   6.325   7.638 -0.0912 -0.0427  0.0145
  267MOL0     C35971   2.481   6.460   7.627 -0.3451  0.2816 -1.2259
  267MOL0     C35972   2.332   6.462   7.577  0.9264  0.3257 -0.6293
  267MOL0     C35973   2.314   6.428   7.435  0.3737  0.5184 -0.3488
  267MOL0     C35974   2.277   6.398   7.330  0.0683 -0.5101 -0.3875
  267MOL0     C35975   2.982   6.331   7.677 -0.4894  0.2299  0.2380
  267MOL0     C35976   3.121   6.316   7.701 -0.1482 -0.3871 -0.3764
  267MOL0     C35977   3.212   6.283   7.581 -0.6470 -0.0703  0.6673
  267MOL0     H35978   3.429   6.163   8.106 -5.5303  3.4426 -0.2490
  267MOL0     H35979   3.641   6.147   8.231  1.9815 -0.4370 -2.4479
  267MOL0     H35980   3.804   6.225   8.386  0.3471  1.0493  0.6547
  267MOL0     H35981   3.863   6.129   8.237 -0.2602  1.3955 -1.7556
  267MOL0     H35982   4.093   6.232   8.279  0.6402 -1.1928 -0.2163
  267MOL0     H35983   4.046   6.132   8.411 -2.7307 -0.5446  0.6717
  267MOL0     H35984   3.954   6.339   8.515 -0.4947  0.1121  0.4240
  267MOL0     H35985   4.040   6.433   8.377 -0.7472  0.1203 -0.4775
  267MOL0     H35986   4.203   6.272   8.582 -0.7671 -0.5078 -0.4753
  267MOL0     H35987   4.248   6.346   8.433 -0.0135  1.0527  1.3329
  267MOL0     H35988   4.233   6.562   8.515 -0.5312  0.5081  1.0208
  267MOL0     H35989   4.110   6.529   8.642 -1.0259  1.8510 -0.2705
  267MOL0     H35990   4.296   6.407   8.762 -1.9041 -0.6972 -1.3011
  267MOL0     H35991   4.405   6.447   8.627 -0.8868  0.1124 -2.1167
  267MOL0     H35992   4.266   6.649   8.807 -1.7969 -1.4331 -0.7477
  267MOL0     H35993   4.364   6.683   8.663 -2.1072 -0.5726 -0.0418
  267MOL0     H35994   4.436   6.529   8.927 -1.2754  0.4242 -0.3143
  267MOL0     H35995   4.564   6.551   8.806  0.5916  0.8105 -1.5620
  267MOL0     H35996   4.577   6.848   8.724 -0.8343 -0.6303 -0.2964
  267MOL0     H35997   4.554   7.093   8.773  3.6656 -3.6080 -2.9357
  267MOL0     H35998   4.585   7.149   8.943 -1.1520 -2.3312  1.8144
  267MOL0     H35999   4.809   7.019   8.915 -0.7630  0.6389  0.3753
  267MOL0     H36000   4.774   7.019   8.742 -1.7737  2.3709 -1.3384
  267MOL0     H36001   4.773   7.266   8.905  0.1921  0.2590 -0.0852
  267MOL0     H36002   4.754   7.251   8.728  2.0653 -1.9312 -1.3788
  267MOL0     H36003   5.000   7.143   8.742  1.6655  3.4046 -1.5899
  267MOL0     H36004   5.004   7.194   8.910 -1.3123 -2.9043  1.3536
  267MOL0     H36005   5.188   7.167   8.708  1.2535 -0.6075  1.2101
  267MOL0     H36006   5.425   7.209   8.662 -2.6956 -2.5436 -1.6202
  267MOL0     H36007   5.630   7.701   8.534 -2.4388 -1.0106  3.8346
  267MOL0     H36008   5.828   7.814   8.453  0.2641  1.1459  0.9716
  267MOL0     H36009   5.953   7.991   8.497 -2.2869 -0.7224  1.7826
  267MOL0     H36010   5.985   8.016   8.673 -1.1301 -1.4972  0.8284
  267MOL0     H36011   6.216   8.080   8.625  1.6649  0.6232 -1.4977
  267MOL0     H36012   6.202   7.997   8.467 -0.8043  0.7872 -2.6077
  267MOL0     H36013   6.218   8.252   8.489  1.0520 -2.0510  0.0776
  267MOL0     H36014   6.101   8.181   8.376  0.8067 -0.5935 -0.3588
  267MOL0     H36015   6.065   8.342   8.628 -1.4118 -1.6966  2.0183
  267MOL0     H36016   5.942   8.238   8.601  1.5426 -0.0958  1.4628
  267MOL0     H36017   5.935   8.338   8.357 -3.2452 -2.1295  1.7239
  267MOL0     H36018   6.048   8.458   8.430 -0.0057  0.2385  0.5927
  267MOL0     H36019   5.761   8.404   8.536  0.0210  1.8380  2.8609
  267MOL0     H36020   5.887   8.519   8.592  0.4427  1.9532 -0.5708
  267MOL0     H36021   5.758   8.524   8.317 -1.2904 -0.1165  0.2415
  267MOL0     H36022   5.890   8.636   8.382 -1.1226  1.6927  1.7288
  267MOL0     H36023   5.605   8.619   8.497 -0.2508 -0.0813  1.8123
  267MOL0     H36024   5.747   8.708   8.555 -0.5182  1.6250 -1.0217
  267MOL0     H36025   6.044   7.656   8.798 -0.4308 -1.0020  0.3691
  267MOL0     H36026   5.843   7.531   8.854  1.0285  1.6686 -0.3013
  267MOL0     H36027   5.357   7.624   8.711  1.7144  0.0377  1.5323
  267MOL0     H36028   5.113   7.588   8.757  0.7839 -0.5051  1.3783
  267MOL0     H36029   3.742   6.553   8.118 -2.6221  1.2883  2.0341
  267MOL0     H36030   3.540   6.559   7.988  0.7243 -0.0190 -0.8445
  267MOL0     H36031   3.102   6.407   8.027 -1.9350  0.1083  0.4395
  267MOL0     H36032   2.868   6.427   7.967  1.2347 -0.5415  1.1157
  267MOL0     H36033   2.710   6.214   7.638 -1.4511 -0.2581 -1.8363
  267MOL0     H36034   2.733   6.361   7.547 -0.4999 -4.1416 -1.5148
  267MOL0     H36035   2.500   6.261   7.718  1.9702 -1.5410 -0.0837
  267MOL0     H36036   2.512   6.277   7.544  2.2993 -0.9414 -0.2911
  267MOL0     H36037   2.545   6.517   7.559 -0.4712  0.2627 -1.3618
  267MOL0     H36038   2.484   6.506   7.726  1.7239 -1.2155 -0.5130
  267MOL0     H36039   2.277   6.393   7.641 -1.5607  4.1737  1.8445
  267MOL0     H36040   2.281   6.559   7.588 -0.2099  0.5491 -5.6119
  267MOL0     H36041   2.245   6.359   7.235  0.9037 -0.7863 -0.5610
  267MOL0     H36042   2.962   6.304   7.573  0.5158 -1.2535  0.4060
  267MOL0     H36043   3.311   6.247   7.610 -0.2333 -0.6418 -1.3258
  267MOL0     H36044   3.166   6.213   7.511  2.1722 -2.9390  1.4060
  267MOL0     H36045   3.220   6.371   7.518 -0.7108 -0.5786 -0.0645
  268MOL0     O36046   3.596   4.640  11.172  0.0781 -0.1059  0.5036
  268MOL0     C36047   3.536   4.677  11.073 -0.2854  0.9053  0.3504
  268MOL0     O36048   3.604   4.711  10.958  0.1441 -0.3335 -0.0634
  268MOL0     C36049   3.734   4.680  10.929 -0.1558  0.3429 -0.4763
  268MOL0     C36050   3.819   4.773  10.863 -0.4848 -0.0022  0.4190
  268MOL0     C36051   3.960   4.744  10.857 -0.5169 -0.3565  0.1373
  268MOL0     C36052   4.011   4.627  10.901 -0.3165  0.5388  0.7327
  268MOL0     O36053   4.142   4.599  10.885 -0.3538 -0.1035  0.1822
  268MOL0     C36054   4.223   4.605  11.004 -0.3576  0.2376 -0.0837
  268MOL0     C36055   4.349   4.517  11.001 -0.3783  0.3027  0.9215
  268MOL0     C36056   4.465   4.568  10.914 -0.1716 -0.4046 -0.7360
  268MOL0     C36057   4.566   4.657  10.993 -0.7527  0.2642  0.2218
  268MOL0     C36058   4.699   4.677  10.917  0.0333  0.7184 -0.1951
  268MOL0     C36059   4.719   4.809  10.828 -0.0712 -0.0349 -0.2685
  268MOL0     C36060   4.843   4.816  10.736 -0.4227  0.9013 -0.0344
  268MOL0     C36061   4.971   4.788  10.807  0.5365  0.0600  0.0198
  268MOL0     N36062   5.090   4.803  10.722  0.4735 -0.1793 -0.6902
  268MOL0     C36063   5.154   4.920  10.703  0.1154 -0.1404 -0.1800
  268MOL0     C36064   5.230   4.895  10.596  0.1035  1.1336  0.5461
  268MOL0     C36065   5.302   5.008  10.524  0.1250 -1.1044 -0.0092
  268MOL0     C36066   5.368   4.980  10.377 -0.5879  0.1871 -0.1454
  268MOL0     C36067   5.499   4.896  10.398  0.0132 -0.4388 -0.4203
  268MOL0     C36068   5.562   4.847  10.266 -0.5743  0.0590 -0.4368
  268MOL0     O36069   5.669   4.751  10.278  0.7104 -0.6956 -1.3066
  268MOL0     C36070   5.782   4.829  10.299  0.3444 -0.0537 -0.2653
  268MOL0     C36071   5.845   4.887  10.186 -0.2605  0.7369 -0.4763
  268MOL0     C36072   5.957   4.972  10.206  0.6088 -0.5915 -0.4004
  268MOL0     C36073   6.019   4.983  10.334  0.4035  0.1397  0.8113
  268MOL0     C36074   6.154   5.050  10.349 -0.1960 -0.3191 -0.0499
  268MOL0     O36075   6.203   5.119  10.235 -0.3836 -0.2655 -0.6213
  268MOL0     C36076   6.332   5.165  10.229  0.1889  0.2248  0.3482
  268MOL0     C36077   6.404   5.146  10.115  0.9232  0.8410  0.2644
  268MOL0     C36078   6.529   5.192  10.101 -0.2060 -0.6727  0.1717
  268MOL0     C36079   6.597   5.260  10.204 -0.4864  0.1925 -0.2789
  268MOL0     O36080   6.725   5.318  10.179  0.4927 -0.5394 -0.1106
  268MOL0     C36081   6.816   5.335  10.279  0.7191 -0.3798 -0.2098
  268MOL0     C36082   6.941   5.412  10.229 -0.0940 -1.0166 -0.5566
  268MOL0     C36083   7.039   5.438  10.341  0.1163 -0.3140  0.6531
  268MOL0     C36084   7.104   5.316  10.402 -0.0102  0.9003  1.0393
  268MOL0     C36085   7.199   5.355  10.509  0.0702 -0.4040  0.0448
  268MOL0     C36086   7.321   5.428  10.444  0.1639 -0.0274 -0.7307
  268MOL0     C36087   7.436   5.431  10.555  0.5563 -0.0551  0.3132
  268MOL0     C36088   7.531   5.535  10.519 -0.1557  0.0508 -0.5920
  268MOL0    Cl36089   7.663   5.559  10.632  0.0000 -0.1150  0.5378
  268MOL0     C36090   6.533   5.271  10.323  1.3931  0.6058  0.1639
  268MOL0     C36091   6.399   5.221  10.345 -0.4132  0.2892  0.6533
  268MOL0     O36092   6.211   5.040  10.459  0.5019 -0.3068  0.5366
  268MOL0     C36093   5.953   4.909  10.439 -0.0582 -0.8682  0.0800
  268MOL0     C36094   5.835   4.834  10.423  0.4698 -0.7107  0.1214
  268MOL0     N36095   5.211   4.766  10.559 -0.4963  0.2944  0.3421
  268MOL0     N36096   5.129   4.708  10.639  0.8813  0.9779  0.4410
  268MOL0     C36097   3.928   4.528  10.945  0.5416  0.5140 -0.0520
  268MOL0     C36098   3.788   4.557  10.960  0.2944  0.0932 -0.3663
  268MOL0     C36099   3.387   4.650  11.058 -0.2222  0.0429  0.3534
  268MOL0     C36100   3.340   4.630  10.923  0.0999 -0.1565  0.1178
  268MOL0     C36101   3.200   4.616  10.903  0.1480 -0.4071  0.2506
  268MOL0     C36102   3.117   4.612  11.013 -0.4701 -0.4727  0.2527
  268MOL0     O36103   2.986   4.605  11.005  0.3024 -0.2384 -0.2093
  268MOL0     C36104   2.928   4.672  10.894 -0.2327  1.3600  0.1580
  268MOL0     C36105   2.792   4.723  10.929  0.4979 -0.6836 -0.3777
  268MOL0     C36106   2.799   4.827  11.050 -0.2878 -0.3288  0.5093
  268MOL0     C36107   2.908   4.926  11.050  0.3305 -0.5225 -0.0867
  268MOL0     C36108   2.926   4.982  10.916  1.3959 -0.6050  0.1682
  268MOL0     C36109   2.926   5.027  10.803  0.3213  0.2978 -0.5377
  268MOL0     C36110   3.158   4.618  11.143  0.1115  0.4495 -0.5109
  268MOL0     C36111   3.296   4.640  11.172  0.9624  0.4274  0.3168
  268MOL0     C36112   3.344   4.630  11.313 -0.5880  0.8151  0.0980
  268MOL0     H36113   3.775   4.855  10.807  0.6544 -0.3052 -0.9794
  268MOL0     H36114   4.017   4.822  10.807 -2.8197 -0.2238 -2.4753
  268MOL0     H36115   4.260   4.708  11.001 -4.2271  1.7764 -0.9491
  268MOL0     H36116   4.166   4.591  11.096  1.3944 -1.3791  0.8301
  268MOL0     H36117   4.323   4.421  10.954  1.2090  0.7924 -1.1421
  268MOL0     H36118   4.386   4.510  11.104  1.7149  0.4984  0.2348
  268MOL0     H36119   4.429   4.636  10.836  0.7333 -1.0731 -1.7581
  268MOL0     H36120   4.517   4.490  10.858  1.5348  0.1840 -0.0491
  268MOL0     H36121   4.516   4.751  11.017  0.8378  0.8426  1.4168
  268MOL0     H36122   4.604   4.614  11.086  2.3977 -0.3127 -1.2001
  268MOL0     H36123   4.785   4.682  10.984  2.1275 -0.2212 -2.6241
  268MOL0     H36124   4.716   4.589  10.855 -0.8945  1.6788 -1.9136
  268MOL0     H36125   4.636   4.809  10.757  0.5168 -1.5804 -1.0095
  268MOL0     H36126   4.710   4.899  10.890  1.1934  0.3684 -0.6372
  268MOL0     H36127   4.844   4.917  10.695 -0.2452  1.3062  0.9603
  268MOL0     H36128   4.829   4.746  10.653  2.2185  0.8237 -0.5198
  268MOL0     H36129   4.996   4.865  10.880  2.5757 -1.3031  0.8472
  268MOL0     H36130   4.979   4.686  10.847  3.5291  1.2200  2.8374
  268MOL0     H36131   5.144   5.012  10.760 -0.8537 -0.4549  0.1678
  268MOL0     H36132   5.226   5.087  10.517 -0.8957 -1.5819  3.8542
  268MOL0     H36133   5.381   5.044  10.591  0.2605  0.8337 -1.1291
  268MOL0     H36134   5.303   4.934  10.302 -0.2003 -3.4219  1.5056
  268MOL0     H36135   5.403   5.070  10.325 -2.2700 -0.7313 -3.1241
  268MOL0     H36136   5.484   4.809  10.462 -1.8085  0.7550  0.8867
  268MOL0     H36137   5.579   4.956  10.445  0.8903 -0.9106 -1.2770
  268MOL0     H36138   5.586   4.945  10.224 -2.7558  0.2313 -1.4306
  268MOL0     H36139   5.489   4.804  10.196  1.2830 -1.1236 -1.7361
  268MOL0     H36140   5.799   4.864  10.091  0.7517 -0.2664 -0.7388
  268MOL0     H36141   6.007   5.026  10.126  0.7179  0.6741  0.4855
  268MOL0     H36142   6.366   5.099  10.025  0.2942 -0.8767  1.3551
  268MOL0     H36143   6.572   5.193  10.001 -1.3836 -3.4783 -0.4695
  268MOL0     H36144   6.782   5.398  10.363  0.9947  0.2233 -0.5416
  268MOL0     H36145   6.834   5.235  10.319 -3.0587 -0.8082  0.8817
  268MOL0     H36146   7.001   5.352  10.159  2.8597 -0.3495  1.2416
  268MOL0     H36147   6.925   5.509  10.182  0.2374  0.4526  2.1427
  268MOL0     H36148   7.104   5.521  10.314 -2.1043  0.2732 -3.8761
  268MOL0     H36149   6.977   5.483  10.419  3.4464  5.1569  0.6610
  268MOL0     H36150   7.170   5.271  10.327  0.0973  0.0131  1.6494
  268MOL0     H36151   7.028   5.245  10.437 -0.1531  0.5999  0.1576
  268MOL0     H36152   7.235   5.276  10.576 -0.4942 -1.0227 -0.3682
  268MOL0     H36153   7.129   5.412  10.570 -2.8657 -1.1180 -2.4128
  268MOL0     H36154   7.370   5.381  10.359  1.0657 -1.1100  0.3365
  268MOL0     H36155   7.284   5.529  10.425 -1.1230 -0.4278 -0.4239
  268MOL0     H36156   7.480   5.331  10.549 -1.6744 -1.0504 -1.0747
  268MOL0     H36157   7.388   5.451  10.651 -3.3407 -0.1113 -1.4224
  268MOL0     H36158   7.581   5.517  10.424 -0.1383 -0.3190 -0.5159
  268MOL0     H36159   7.482   5.633  10.522 -0.7864 -0.2582  1.9337
  268MOL0     H36160   6.581   5.304  10.415  0.8496  0.7700  0.3896
  268MOL0     H36161   6.345   5.241  10.437  1.7575  1.2179  1.8174
  268MOL0     H36162   5.997   4.904  10.539  2.1251 -2.0733 -0.8792
  268MOL0     H36163   5.783   4.787  10.506 -1.1212 -1.4502 -1.2363
  268MOL0     H36164   3.976   4.439  10.983 -0.8048 -0.8865 -1.5000
  268MOL0     H36165   3.731   4.479  11.010  1.2470 -1.1494 -1.1501
  268MOL0     H36166   3.405   4.638  10.837  2.7254  2.7168  2.1180
  268MOL0     H36167   3.163   4.622  10.801 -0.2957 -0.4787  0.4072
  268MOL0     H36168   2.917   4.600  10.812  1.3443  0.8238  0.3796
  268MOL0     H36169   2.989   4.755  10.857  0.2966  0.5226 -0.9037
  268MOL0     H36170   2.721   4.644  10.954 -0.2651 -0.6740 -2.3534
  268MOL0     H36171   2.743   4.777  10.848  0.5242  2.8653  1.7501
  268MOL0     H36172   2.809   4.772  11.144 -0.5393 -1.1400  0.0702
  268MOL0     H36173   2.701   4.876  11.050 -0.8221 -1.3500 -1.2166
  268MOL0     H36174   2.892   5.007  11.121 -0.3290  0.3176 -1.1638
  268MOL0     H36175   3.006   4.884  11.074  0.9390  1.5549  1.3187
  268MOL0     H36176   2.941   5.072  10.707 -1.9095  3.2191  0.3535
  268MOL0     H36177   3.089   4.585  11.219  0.7722 -0.0646 -0.1227
  268MOL0     H36178   3.413   4.712  11.334  0.8464 -0.2234 -0.4077
  268MOL0     H36179   3.249   4.628  11.367 -2.7598 -2.3551 -3.3184
  268MOL0     H36180   3.396   4.535  11.322 -1.8748 -0.0765 -1.2735
  269MOL0     O36181   6.976  10.659   5.324  0.8821  0.4413  0.1229
  269MOL0     C36182   7.005  10.553   5.268  0.4351 -0.2070 -0.9222
  269MOL0     O36183   6.920  10.456   5.225 -0.3348 -0.2520 -0.4341
  269MOL0     C36184   6.777  10.462   5.223 -0.6945  0.1094  0.6408
  269MOL0     C36185   6.703  10.342   5.216  0.8152 -0.1417  0.5788
  269MOL0     C36186   6.563  10.337   5.212  0.3233 -0.4756  0.4798
  269MOL0     C36187   6.492  10.459   5.215  0.2878 -0.1951 -0.6623
  269MOL0     O36188   6.358  10.476   5.218 -0.6843 -1.0659  0.0737
  269MOL0     C36189   6.269  10.365   5.230 -0.8942  0.7033  0.3069
  269MOL0     C36190   6.133  10.409   5.218  0.4703  0.4293 -0.2356
  269MOL0     C36191   6.048  10.298   5.280  0.2315 -0.5751  0.2440
  269MOL0     C36192   5.907  10.331   5.238  1.3915 -0.2042  0.6272
  269MOL0     C36193   5.825  10.204   5.238  0.5557  0.3815 -0.3057
  269MOL0     C36194   5.680  10.245   5.179  0.4058  0.1084  1.0207
  269MOL0     C36195   5.606  10.117   5.144  0.5075  0.3147  0.3713
  269MOL0     C36196   5.479  10.126   5.065  0.0032 -0.0630 -0.4940
  269MOL0     N36197   5.422   9.986   5.041 -0.5994 -0.3208 -0.5282
  269MOL0     C36198   5.348   9.957   4.932  0.4623  0.5438  0.6002
  269MOL0     C36199   5.258   9.853   4.960  0.0397 -0.6615  0.1146
  269MOL0     C36200   5.164   9.785   4.862  0.0439 -0.1590  0.3634
  269MOL0     C36201   5.216   9.654   4.800 -0.3164  0.6220 -0.5485
  269MOL0     C36202   5.245   9.543   4.904  0.1997 -0.1193  0.4795
  269MOL0     C36203   5.388   9.554   4.959  0.1957 -0.3209 -0.4615
  269MOL0     O36204   5.478   9.535   4.844  0.8136 -0.1586 -0.3450
  269MOL0     C36205   5.600   9.496   4.868 -0.1897 -0.1694  0.1306
  269MOL0     C36206   5.668   9.443   4.763  0.6412  0.3727 -1.6375
  269MOL0     C36207   5.801   9.401   4.776 -1.1443  0.4753  1.1386
  269MOL0     C36208   5.871   9.412   4.897 -0.2912 -0.1815  1.2676
  269MOL0     C36209   6.017   9.381   4.903  0.3490  0.2481  0.5548
  269MOL0     O36210   6.099   9.424   5.009  0.0843  0.7501 -0.0607
  269MOL0     C36211   6.232   9.397   5.002  0.7388  0.4222 -0.3308
  269MOL0     C36212   6.315   9.455   4.914  0.3115 -0.4829  0.7394
  269MOL0     C36213   6.451   9.423   4.923  0.4673 -0.3138  0.6462
  269MOL0     C36214   6.503   9.336   5.017 -0.0359  0.5315  0.1913
  269MOL0     O36215   6.640   9.307   5.011  0.3912  0.2850 -0.3329
  269MOL0     C36216   6.717   9.297   5.127  0.5510 -0.3800  0.0344
  269MOL0     C36217   6.847   9.222   5.094 -1.2354 -0.3025  0.2159
  269MOL0     C36218   6.830   9.076   5.084 -1.2615 -0.5550  0.0452
  269MOL0     C36219   6.823   9.001   5.220 -0.0625  0.0122 -0.2452
  269MOL0     C36220   6.785   8.854   5.189 -0.4625 -1.0004  0.1027
  269MOL0     C36221   6.881   8.783   5.102 -0.1193  0.5113  0.8787
  269MOL0     C36222   6.822   8.658   5.026  0.0529 -0.5052  0.0456
  269MOL0     C36223   6.804   8.544   5.118 -0.7348  0.0111 -0.0941
  269MOL0    Cl36224   6.971   8.463   5.150  0.0290 -0.3529 -0.1156
  269MOL0     C36225   6.411   9.268   5.103 -0.2777  0.3971 -0.1783
  269MOL0     C36226   6.277   9.302   5.098  0.4678  0.6803  0.1095
  269MOL0     O36227   6.060   9.321   4.807  0.5082 -0.0486  0.0129
  269MOL0     C36228   5.800   9.471   5.005 -0.2691 -0.4844 -1.0111
  269MOL0     C36229   5.672   9.516   4.993  0.2353  0.5400 -0.3003
  269MOL0     N36230   5.276   9.828   5.100 -0.5606  0.1930 -0.2527
  269MOL0     N36231   5.365   9.911   5.142  0.0040  0.1679 -0.3541
  269MOL0     C36232   6.563  10.579   5.214 -0.5480  0.2009 -0.0841
  269MOL0     C36233   6.706  10.581   5.227  1.4867  0.6030 -0.2511
  269MOL0     C36234   7.151  10.523   5.243 -0.8764 -0.5431 -0.0242
  269MOL0     C36235   7.185  10.421   5.148 -0.4213  0.5964  0.0852
  269MOL0     C36236   7.311  10.399   5.111  0.0258  0.5314  1.0681
  269MOL0     C36237   7.423  10.469   5.162 -0.2695 -0.4319 -0.3270
  269MOL0     O36238   7.546  10.429   5.114 -0.1683 -0.3070  0.1601
  269MOL0     C36239   7.662  10.502   5.151  0.0258  0.2816 -0.6893
  269MOL0     C36240   7.777  10.400   5.184  0.7152 -0.8536  0.4569
  269MOL0     C36241   7.832  10.319   5.059 -0.0096 -0.2681  0.7664
  269MOL0     C36242   7.925  10.209   5.109 -0.2725 -0.0448  0.5569
  269MOL0     C36243   8.054  10.270   5.128  0.9591 -0.1196 -0.0948
  269MOL0     C36244   8.157  10.326   5.141 -0.0243 -0.2175 -0.1205
  269MOL0     C36245   7.400  10.570   5.254  0.3574  0.4642  0.2684
  269MOL0     C36246   7.266  10.597   5.295 -0.1682 -0.1024 -0.1470
  269MOL0     C36247   7.245  10.722   5.388 -0.0938  0.9431 -0.4709
  269MOL0     H36248   6.756  10.248   5.206 -3.0989 -3.0524  3.6860
  269MOL0     H36249   6.521  10.238   5.198  0.1213 -0.8926  3.3807
  269MOL0     H36250   6.297  10.292   5.153 -0.4450  0.1554  0.9766
  269MOL0     H36251   6.277  10.333   5.334  1.5879  0.6183  0.1548
  269MOL0     H36252   6.116  10.440   5.115  1.0094 -0.5563 -0.6349
  269MOL0     H36253   6.121  10.497   5.282  2.0426 -0.7306  1.7927
  269MOL0     H36254   6.050  10.290   5.389  2.6188  4.1053  0.7766
  269MOL0     H36255   6.077  10.204   5.231  0.3350 -1.5500  2.0757
  269MOL0     H36256   5.862  10.404   5.306  0.9225 -0.1948  0.3118
  269MOL0     H36257   5.906  10.383   5.141  0.1289 -1.8903 -0.3199
  269MOL0     H36258   5.867  10.128   5.171 -1.7186 -1.2437 -0.0138
  269MOL0     H36259   5.816  10.166   5.340  0.5925 -1.8200 -1.0527
  269MOL0     H36260   5.627  10.306   5.252 -1.0008  1.2368 -0.8587
  269MOL0     H36261   5.689  10.305   5.088 -0.3072  0.9705  1.5148
  269MOL0     H36262   5.587  10.051   5.229  1.0409 -0.1041  0.1707
  269MOL0     H36263   5.670  10.052   5.083  1.1388 -0.0545  1.4066
  269MOL0     H36264   5.416  10.193   5.124  1.8390  2.1431 -0.8853
  269MOL0     H36265   5.493  10.166   4.964 -0.2526  0.0812 -0.4732
  269MOL0     H36266   5.353  10.003   4.834 -3.0749 -1.5284 -0.7285
  269MOL0     H36267   5.065   9.780   4.909  0.0457  2.7601  0.8696
  269MOL0     H36268   5.165   9.853   4.776  4.1348  0.0766  0.4190
  269MOL0     H36269   5.142   9.606   4.735  0.4630 -2.9154  0.9388
  269MOL0     H36270   5.310   9.667   4.747 -0.7177  1.3443 -1.1028
  269MOL0     H36271   5.237   9.448   4.851 -0.0610  0.2136 -0.0851
  269MOL0     H36272   5.165   9.534   4.978  2.7938 -3.0801  3.2268
  269MOL0     H36273   5.407   9.472   5.029  1.1818  0.5065  0.2603
  269MOL0     H36274   5.399   9.642   5.023 -2.6011 -0.8310  0.8888
  269MOL0     H36275   5.608   9.461   4.674 -1.2128  4.2021  0.1739
  269MOL0     H36276   5.850   9.360   4.689 -2.8196 -1.1010  0.8841
  269MOL0     H36277   6.273   9.521   4.839  0.7136 -2.9226 -1.7917
  269MOL0     H36278   6.517   9.465   4.848  2.9219 -3.0184  1.1155
  269MOL0     H36279   6.729   9.394   5.177 -0.2061 -0.3531  0.1827
  269MOL0     H36280   6.657   9.244   5.201 -2.5199  2.5052 -0.1456
  269MOL0     H36281   6.887   9.255   4.998  1.5675 -0.9978  1.0478
  269MOL0     H36282   6.922   9.230   5.174  0.2468 -1.3442 -1.0037
  269MOL0     H36283   6.738   9.062   5.027  0.4153 -0.4969 -2.8270
  269MOL0     H36284   6.920   9.050   5.028 -0.4905 -2.1277  1.8977
  269MOL0     H36285   6.741   9.046   5.277 -0.2340 -0.8673  0.2164
  269MOL0     H36286   6.915   9.018   5.278 -2.3960  0.5989  3.6065
  269MOL0     H36287   6.693   8.853   5.130 -0.2422  0.2906 -0.3079
  269MOL0     H36288   6.778   8.803   5.285  2.3410 -0.7115  0.5536
  269MOL0     H36289   6.922   8.846   5.023 -0.5349  2.2836  2.0199
  269MOL0     H36290   6.972   8.753   5.155  1.0734  0.5171 -1.0548
  269MOL0     H36291   6.885   8.624   4.943 -1.3676  1.7550 -2.0885
  269MOL0     H36292   6.720   8.681   4.993 -0.3685 -3.9103 -1.4218
  269MOL0     H36293   6.779   8.583   5.217  4.9166  0.7979  1.3993
  269MOL0     H36294   6.736   8.469   5.077 -1.8686  0.1471  1.4475
  269MOL0     H36295   6.446   9.192   5.171  2.4859 -0.8202 -2.7005
  269MOL0     H36296   6.210   9.242   5.159  1.3290 -0.2368  0.1662
  269MOL0     H36297   5.855   9.481   5.098 -2.1456 -2.9351  0.4660
  269MOL0     H36298   5.620   9.552   5.081 -0.4503  0.0565 -0.4962
  269MOL0     H36299   6.508  10.673   5.221 -1.8367 -0.6295  1.9411
  269MOL0     H36300   6.755  10.678   5.217  0.9163  0.7728 -1.7680
  269MOL0     H36301   7.112  10.361   5.095 -1.3254  2.4416 -0.8257
  269MOL0     H36302   7.335  10.321   5.039 -0.0802  0.2853  1.2968
  269MOL0     H36303   7.635  10.551   5.246 -2.3683 -0.1695 -1.0812
  269MOL0     H36304   7.684  10.574   5.071 -0.6150 -0.1777 -1.2831
  269MOL0     H36305   7.749  10.339   5.271  2.9239  0.7085  2.4087
  269MOL0     H36306   7.856  10.466   5.221 -0.7134  1.2171 -0.0045
  269MOL0     H36307   7.881  10.389   4.990 -0.8591 -1.3303 -0.9897
  269MOL0     H36308   7.743  10.271   5.017  0.8225 -1.5489  0.3904
  269MOL0     H36309   7.876  10.144   5.182 -1.2177  0.8724  0.7462
  269MOL0     H36310   7.934  10.142   5.022 -2.5069 -0.0230  0.2504
  269MOL0     H36311   8.254  10.365   5.161 -0.4883  1.5421 -1.0383
  269MOL0     H36312   7.466  10.646   5.292  0.2621 -0.3887  2.2267
  269MOL0     H36313   7.200  10.804   5.332  0.2151  0.4725 -1.4425
  269MOL0     H36314   7.184  10.684   5.471  0.6984  2.4010  0.8257
  269MOL0     H36315   7.338  10.748   5.439 -0.3149  0.6038  0.1249
  270MOL0     O36316   2.773   9.766   6.862 -0.0033 -0.3461 -0.2345
  270MOL0     C36317   2.710   9.856   6.917  1.0708  0.6148  0.6711
  270MOL0     O36318   2.736   9.900   7.039 -0.3771 -0.3839 -0.2460
  270MOL0     C36319   2.840   9.838   7.113  0.5279  0.4561 -0.5307
  270MOL0     C36320   2.803   9.802   7.245  0.8493  0.1777 -0.2410
  270MOL0     C36321   2.893   9.744   7.334 -0.0766  0.0736 -0.3618
  270MOL0     C36322   3.027   9.726   7.295  0.4967  0.7310  0.1593
  270MOL0     O36323   3.113   9.662   7.368  0.2800 -0.4004 -0.2961
  270MOL0     C36324   3.124   9.694   7.508 -0.6157  1.2386 -0.5780
  270MOL0     C36325   3.197   9.830   7.526  0.1256 -0.2283  0.8803
  270MOL0     C36326   3.336   9.831   7.464 -0.3611  0.0071 -0.8437
  270MOL0     C36327   3.433   9.939   7.512  0.6070 -0.7472 -0.6336
  270MOL0     C36328   3.554   9.976   7.420 -0.3745 -0.2111  0.0487
  270MOL0     C36329   3.646   9.862   7.371 -0.0052  0.2085 -0.2253
  270MOL0     C36330   3.711   9.784   7.497  0.3165 -0.1507  0.2628
  270MOL0     C36331   3.805   9.670   7.448  0.5719  1.0147 -0.3640
  270MOL0     N36332   3.910   9.716   7.363 -0.2140  0.2067  0.2287
  270MOL0     C36333   4.024   9.794   7.378  1.1416 -0.1316 -0.1643
  270MOL0     C36334   4.085   9.801   7.258 -0.1882  0.8353 -0.4865
  270MOL0     C36335   4.203   9.888   7.223 -0.6541  0.5389 -0.1442
  270MOL0     C36336   4.320   9.842   7.299 -0.2836 -0.2547  0.0572
  270MOL0     C36337   4.343   9.916   7.433  0.7060  0.1420  0.5065
  270MOL0     C36338   4.454   9.844   7.515  0.0211  1.0516  0.0716
  270MOL0     O36339   4.579   9.860   7.442  0.4523 -0.4129 -0.4261
  270MOL0     C36340   4.691   9.795   7.470  0.1971  0.4069  0.0117
  270MOL0     C36341   4.786   9.799   7.365 -0.8108  0.1721  0.1029
  270MOL0     C36342   4.906   9.734   7.381  0.1589 -0.0003  1.0126
  270MOL0     C36343   4.940   9.667   7.502 -0.1409 -0.5363  0.0956
  270MOL0     C36344   5.068   9.604   7.521  0.1139  0.2586  0.3818
  270MOL0     O36345   5.123   9.570   7.403  0.3531 -0.1729  0.3603
  270MOL0     C36346   5.246   9.506   7.392 -0.4745  0.2680  0.0121
  270MOL0     C36347   5.357   9.555   7.454 -0.1924 -0.5903  0.4177
  270MOL0     C36348   5.477   9.486   7.433  0.1224 -1.3919 -0.3154
  270MOL0     C36349   5.486   9.384   7.339  0.2106 -0.0979  0.2674
  270MOL0     O36350   5.605   9.330   7.282 -0.1192 -0.2828 -0.0988
  270MOL0     C36351   5.732   9.384   7.322  0.0836  0.1883 -0.5479
  270MOL0     C36352   5.849   9.337   7.243  0.4200  0.4120  0.0631
  270MOL0     C36353   5.984   9.389   7.289 -1.3739 -0.7498 -0.1599
  270MOL0     C36354   6.022   9.508   7.203 -0.4529  0.7613  0.4923
  270MOL0     C36355   6.155   9.580   7.235 -0.4107  0.7268  0.4056
  270MOL0     C36356   6.282   9.498   7.214 -0.5538  0.4200 -0.5215
  270MOL0     C36357   6.407   9.580   7.234 -0.3897  0.5284 -0.8991
  270MOL0     C36358   6.541   9.514   7.197 -0.7826  0.9183 -0.0437
  270MOL0    Cl36359   6.550   9.532   7.019  0.0818  0.0459 -0.0623
  270MOL0     C36360   5.377   9.336   7.281 -0.2124  0.4877 -0.4215
  270MOL0     C36361   5.255   9.392   7.315 -0.3352  1.3295 -0.4552
  270MOL0     O36362   5.107   9.581   7.639 -0.1023 -0.4762 -0.0374
  270MOL0     C36363   4.852   9.672   7.601  0.8789  0.6494 -0.7913
  270MOL0     C36364   4.723   9.718   7.590 -0.0070 -0.7711 -0.0397
  270MOL0     N36365   4.017   9.725   7.162  0.2588  0.4095 -0.4364
  270MOL0     N36366   3.912   9.682   7.225 -0.1260  0.2213  0.1229
  270MOL0     C36367   3.063   9.769   7.164 -0.5689  1.0654 -0.5336
  270MOL0     C36368   2.974   9.821   7.077 -0.4234  0.3840  0.5015
  270MOL0     C36369   2.594   9.938   6.858 -0.7552  1.5174 -0.0221
  270MOL0     C36370   2.481   9.942   6.936  1.0304  0.2158  0.5781
  270MOL0     C36371   2.371  10.016   6.885  0.1755 -0.2351 -0.0530
  270MOL0     C36372   2.368  10.067   6.750  0.2106 -0.5649  0.4733
  270MOL0     O36373   2.252  10.141   6.720  0.1208 -0.5050 -0.4551
  270MOL0     C36374   2.222  10.132   6.580  0.8904  0.0599 -0.0146
  270MOL0     C36375   2.092  10.204   6.547  0.1103  0.0062 -0.6877
  270MOL0     C36376   1.966  10.149   6.629  1.4121  0.5940 -0.1205
  270MOL0     C36377   1.827  10.168   6.555 -0.1012 -0.0573  1.1822
  270MOL0     C36378   1.799  10.052   6.462 -0.6338 -0.0259  0.5711
  270MOL0     C36379   1.766   9.962   6.385 -0.1568 -1.0835  0.3791
  270MOL0     C36380   2.482  10.052   6.667 -0.5501  0.0513 -0.7821
  270MOL0     C36381   2.588   9.977   6.724  0.7903 -0.1877  1.0354
  270MOL0     C36382   2.708   9.952   6.635  0.4601  0.2907 -0.1433
  270MOL0     H36383   2.703   9.825   7.281  0.1880 -1.4432 -0.9739
  270MOL0     H36384   2.864   9.696   7.427  1.8882 -0.1155  0.2037
  270MOL0     H36385   3.026   9.703   7.555 -0.8301 -1.3784 -0.3471
  270MOL0     H36386   3.171   9.612   7.563 -2.7354 -0.9205 -1.7668
  270MOL0     H36387   3.197   9.857   7.632 -3.5453  1.2129  0.6750
  270MOL0     H36388   3.146   9.907   7.468 -0.0657  2.0964  3.9034
  270MOL0     H36389   3.323   9.855   7.358  1.7223  1.9331 -0.7522
  270MOL0     H36390   3.388   9.736   7.479 -0.6558  0.0517  0.6120
  270MOL0     H36391   3.385  10.037   7.522  2.6600  0.8943 -4.5558
  270MOL0     H36392   3.488   9.915   7.604  0.2532  1.0293  0.0927
  270MOL0     H36393   3.505  10.011   7.329  0.8670  0.6680 -0.3058
  270MOL0     H36394   3.617  10.049   7.472  0.2531 -0.6938 -0.0258
  270MOL0     H36395   3.584   9.793   7.314 -3.9155  2.4486  0.9407
  270MOL0     H36396   3.730   9.896   7.309  2.2465 -3.2427  0.6162
  270MOL0     H36397   3.640   9.731   7.561  0.6953 -2.0207 -0.8049
  270MOL0     H36398   3.773   9.855   7.553  1.7328 -1.8963  0.9881
  270MOL0     H36399   3.855   9.618   7.530 -0.4912  0.1608 -0.2393
  270MOL0     H36400   3.748   9.591   7.398 -1.7497 -0.5580  4.1551
  270MOL0     H36401   4.059   9.846   7.466  1.5576 -0.7581  0.0456
  270MOL0     H36402   4.230   9.865   7.120 -0.8972 -0.4829  0.0065
  270MOL0     H36403   4.178   9.994   7.221  0.2613  0.7545 -1.5199
  270MOL0     H36404   4.295   9.740   7.329  0.2691 -1.0430 -2.0284
  270MOL0     H36405   4.413   9.842   7.242  0.6176  0.5964  1.4539
  270MOL0     H36406   4.258   9.918   7.502  0.0729 -1.7531 -0.1591
  270MOL0     H36407   4.370  10.021   7.413 -0.3916  0.0325 -1.9799
  270MOL0     H36408   4.439   9.736   7.516 -1.2984  1.2103 -0.8264
  270MOL0     H36409   4.466   9.871   7.620 -2.1944 -3.7048  1.8261
  270MOL0     H36410   4.758   9.851   7.274  1.3199  4.2290  1.4908
  270MOL0     H36411   4.969   9.725   7.294  0.5746  0.1423  1.2941
  270MOL0     H36412   5.349   9.647   7.511 -1.9148 -1.0304  0.9466
  270MOL0     H36413   5.566   9.523   7.482 -1.8268 -0.3521  2.7281
  270MOL0     H36414   5.730   9.493   7.309  1.4406  0.3472  0.4066
  270MOL0     H36415   5.751   9.366   7.428  0.2058  0.6504 -0.4877
  270MOL0     H36416   5.853   9.228   7.248 -1.3703  0.1761 -1.9822
  270MOL0     H36417   5.823   9.360   7.139 -2.1772 -0.6912  0.3841
  270MOL0     H36418   5.985   9.432   7.389  1.3463 -0.1632 -0.3561
  270MOL0     H36419   6.061   9.312   7.281 -3.0089 -2.4971  0.3642
  270MOL0     H36420   5.940   9.578   7.221 -0.0420  2.0679 -2.2712
  270MOL0     H36421   6.024   9.484   7.097  1.4003  0.5016  0.5460
  270MOL0     H36422   6.160   9.617   7.337 -1.1595  0.6360  0.4821
  270MOL0     H36423   6.160   9.665   7.166  0.6255  1.3525  1.2416
  270MOL0     H36424   6.283   9.420   7.290 -0.2643 -0.7620 -1.7082
  270MOL0     H36425   6.279   9.449   7.117 -0.1120  2.0032 -1.3795
  270MOL0     H36426   6.421   9.596   7.341  0.2562 -0.1875 -0.8668
  270MOL0     H36427   6.400   9.682   7.194  2.0498  0.3649 -1.9392
  270MOL0     H36428   6.621   9.560   7.256 -0.4162 -0.5173  0.6162
  270MOL0     H36429   6.538   9.409   7.226 -1.9344  0.8816 -0.2304
  270MOL0     H36430   5.376   9.264   7.199 -2.2064 -2.4773  1.9940
  270MOL0     H36431   5.164   9.356   7.267  1.1898 -0.6511 -2.0155
  270MOL0     H36432   4.870   9.617   7.693 -2.8775  0.0131 -0.2703
  270MOL0     H36433   4.653   9.707   7.673 -0.7857  1.6696 -0.3110
  270MOL0     H36434   3.169   9.756   7.144 -0.4091 -1.8819  1.5932
  270MOL0     H36435   3.006   9.860   6.981  0.0080  1.3462  1.0239
  270MOL0     H36436   2.488   9.906   7.039 -0.5643  0.8003  0.9264
  270MOL0     H36437   2.286  10.045   6.945 -0.1059 -1.2222  0.0496
  270MOL0     H36438   2.199  10.027   6.558 -2.8470  0.6007  0.6614
  270MOL0     H36439   2.298  10.169   6.511  1.2028 -0.0551  0.2653
  270MOL0     H36440   2.070  10.195   6.440  2.1305  1.0893 -1.2431
  270MOL0     H36441   2.092  10.312   6.557  1.0184  0.4040 -3.8490
  270MOL0     H36442   1.958  10.201   6.725  0.1670 -0.9171  0.6324
  270MOL0     H36443   1.982  10.045   6.656  2.4454 -0.2222 -3.3624
  270MOL0     H36444   1.748  10.169   6.631 -0.8323 -1.4282  0.4736
  270MOL0     H36445   1.825  10.263   6.500 -1.7840 -1.8044 -2.0634
  270MOL0     H36446   1.750   9.883   6.314 -0.7133 -2.7877  2.2877
  270MOL0     H36447   2.492  10.099   6.570 -0.6472  1.2564 -0.2209
  270MOL0     H36448   2.716  10.037   6.567  1.5228  1.4285  1.3477
  270MOL0     H36449   2.798   9.947   6.696 -0.6147  2.2729  1.7291
  270MOL0     H36450   2.700   9.860   6.575  2.0389  0.1815 -0.2101
  271MOL0     O36451   2.242   8.685   6.717 -0.8194  0.3169 -0.5451
  271MOL0     C36452   2.198   8.772   6.792  0.0906  0.6038  0.0866
  271MOL0     O36453   2.255   8.899   6.814  0.6645  0.2295  0.4788
  271MOL0     C36454   2.388   8.913   6.773 -0.0693  0.7047 -0.0510
  271MOL0     C36455   2.411   8.965   6.647  0.7785 -0.2807 -0.6960
  271MOL0     C36456   2.546   8.991   6.610  0.5236  0.9691  0.3851
  271MOL0     C36457   2.657   8.956   6.691  0.4602  0.0266 -0.3795
  271MOL0     O36458   2.786   8.956   6.652 -0.4302 -0.6509 -0.8081
  271MOL0     C36459   2.826   9.005   6.527 -0.1673  0.2173 -0.4756
  271MOL0     C36460   2.973   8.966   6.508  0.7953 -0.4156 -0.5832
  271MOL0     C36461   2.988   8.811   6.513  0.1413 -0.1279 -0.4273
  271MOL0     C36462   3.103   8.760   6.419  0.5550 -0.0616  0.7341
  271MOL0     C36463   3.123   8.607   6.454  0.4687  0.4483  0.3193
  271MOL0     C36464   3.254   8.566   6.370 -0.1175  0.2215  0.4447
  271MOL0     C36465   3.257   8.411   6.347  0.1174 -0.5988 -1.3447
  271MOL0     C36466   3.336   8.370   6.222  0.0781 -0.3582 -0.0878
  271MOL0     N36467   3.468   8.423   6.221 -0.9192  0.0404  0.1589
  271MOL0     C36468   3.523   8.536   6.155  0.2326  0.2156  0.1548
  271MOL0     C36469   3.652   8.526   6.177  0.5498 -0.6794  0.8579
  271MOL0     C36470   3.747   8.622   6.125  0.4201 -0.4056  0.1885
  271MOL0     C36471   3.894   8.597   6.174 -1.1638 -0.9040  0.7428
  271MOL0     C36472   3.961   8.483   6.104 -0.1594  0.3643 -0.0091
  271MOL0     C36473   4.115   8.491   6.108  0.4243  0.7387 -0.7894
  271MOL0     O36474   4.172   8.518   5.979 -0.1312  0.1048  0.0180
  271MOL0     C36475   4.308   8.517   5.970  0.3503 -0.2507  0.6331
  271MOL0     C36476   4.358   8.536   5.844 -0.3578  0.7735  0.7041
  271MOL0     C36477   4.496   8.517   5.821  0.3081  0.0530  0.6172
  271MOL0     C36478   4.586   8.489   5.930  0.8966  0.3891  0.1906
  271MOL0     C36479   4.724   8.472   5.898 -0.1847  0.2155  0.4669
  271MOL0     O36480   4.795   8.389   5.985  0.3007  0.4446  0.1353
  271MOL0     C36481   4.923   8.349   5.959  0.0109  0.2596 -0.9156
  271MOL0     C36482   4.961   8.218   5.939 -0.0033 -0.6348  0.2092
  271MOL0     C36483   5.095   8.187   5.914  0.2445 -0.1370  0.8521
  271MOL0     C36484   5.195   8.289   5.928  0.3233 -1.2053  0.1403
  271MOL0     O36485   5.334   8.265   5.928  0.3779  0.3341  0.7140
  271MOL0     C36486   5.386   8.135   5.929 -0.3463  1.1997 -0.7765
  271MOL0     C36487   5.537   8.134   5.939 -0.0314  0.6876  0.0554
  271MOL0     C36488   5.601   8.221   5.839  0.0021 -0.6473  0.0825
  271MOL0     C36489   5.753   8.209   5.851  0.5944 -0.1544  0.6247
  271MOL0     C36490   5.817   8.283   5.734  0.8992 -0.2093  0.4456
  271MOL0     C36491   5.974   8.268   5.726 -0.4263 -0.6455  0.6571
  271MOL0     C36492   6.045   8.333   5.608  0.6991 -0.6971 -0.6898
  271MOL0     C36493   6.186   8.279   5.609 -0.1257  0.8787 -0.4857
  271MOL0    Cl36494   6.268   8.277   5.774  0.4211 -0.4056  0.1601
  271MOL0     C36495   5.155   8.422   5.947  0.8131  0.8308  0.1396
  271MOL0     C36496   5.020   8.452   5.975 -0.0061  0.0552  0.4818
  271MOL0     O36497   4.774   8.540   5.809  0.3232 -0.3949 -0.2636
  271MOL0     C36498   4.532   8.478   6.057 -0.0279 -0.5754 -0.4056
  271MOL0     C36499   4.394   8.485   6.073  0.4549 -0.0645  0.1889
  271MOL0     N36500   3.675   8.417   6.265  0.1661  0.2659 -0.2919
  271MOL0     N36501   3.561   8.359   6.285 -0.7487 -0.3535 -0.7410
  271MOL0     C36502   2.634   8.916   6.824  0.3465 -0.2358 -0.2387
  271MOL0     C36503   2.499   8.902   6.865 -0.5979  0.4155 -0.7385
  271MOL0     C36504   2.051   8.758   6.821 -0.9688 -0.0934  0.4721
  271MOL0     C36505   1.980   8.881   6.806 -0.1959  1.0063  0.3917
  271MOL0     C36506   1.842   8.886   6.836 -0.9410 -0.2970 -0.1156
  271MOL0     C36507   1.776   8.772   6.879  0.2319 -0.7096  0.5789
  271MOL0     O36508   1.643   8.789   6.923  0.0517 -0.2437 -0.4252
  271MOL0     C36509   1.557   8.674   6.953 -0.6793 -0.2323 -0.6160
  271MOL0     C36510   1.433   8.732   7.016 -0.1933 -0.1540 -1.3860
  271MOL0     C36511   1.328   8.623   7.062  0.0929 -0.1932 -0.3547
  271MOL0     C36512   1.187   8.676   7.026 -0.3855  0.4929  0.3129
  271MOL0     C36513   1.153   8.809   7.077 -1.0800  0.3596 -0.4961
  271MOL0     C36514   1.133   8.921   7.111  0.4168 -0.1069  0.6067
  271MOL0     C36515   1.841   8.644   6.882 -0.6307 -0.2053  0.3810
  271MOL0     C36516   1.989   8.643   6.860  0.6467  0.0008 -0.1075
  271MOL0     C36517   2.057   8.519   6.889 -0.1129  0.0767 -1.3950
  271MOL0     H36518   2.327   8.991   6.584 -1.3944  0.7956  2.3859
  271MOL0     H36519   2.560   9.031   6.511 -3.1971  1.4742 -0.0763
  271MOL0     H36520   2.765   8.964   6.446 -2.8481  1.1245  0.9805
  271MOL0     H36521   2.820   9.114   6.527  1.5919  0.3631  0.5799
  271MOL0     H36522   3.036   9.022   6.577 -0.5854 -0.5589  0.8523
  271MOL0     H36523   2.996   9.003   6.408  1.8290  0.3457 -0.0858
  271MOL0     H36524   2.891   8.762   6.509 -0.8075  1.5308  0.8633
  271MOL0     H36525   3.017   8.782   6.615 -3.2058 -2.0641  0.1456
  271MOL0     H36526   3.081   8.771   6.312  1.3510  1.7046  0.7123
  271MOL0     H36527   3.190   8.819   6.448  0.6904  0.1282 -0.0360
  271MOL0     H36528   3.147   8.593   6.560  1.1824  1.1296  0.2558
  271MOL0     H36529   3.037   8.547   6.422  0.0925  2.5416 -3.0881
  271MOL0     H36530   3.267   8.618   6.275 -1.1307 -0.6638 -0.2063
  271MOL0     H36531   3.343   8.597   6.425 -0.6805 -0.6399  1.9150
  271MOL0     H36532   3.152   8.379   6.346  0.0234 -1.1495  3.3495
  271MOL0     H36533   3.304   8.358   6.431 -1.5667  1.3476  0.9950
  271MOL0     H36534   3.346   8.262   6.203  0.9085 -0.0334 -1.6731
  271MOL0     H36535   3.286   8.409   6.133 -0.3188  1.5132  0.9041
  271MOL0     H36536   3.475   8.591   6.075 -1.1245  0.1941  0.9257
  271MOL0     H36537   3.742   8.620   6.016 -0.1468 -1.7608  0.2230
  271MOL0     H36538   3.714   8.724   6.148 -1.8267 -0.5898 -1.8198
  271MOL0     H36539   3.943   8.690   6.145 -0.9520 -0.7122  1.6798
  271MOL0     H36540   3.891   8.594   6.284 -0.2431 -0.9593  0.7754
  271MOL0     H36541   3.924   8.471   6.001 -2.4193 -2.4563  1.0170
  271MOL0     H36542   3.941   8.388   6.153  1.5541 -0.7760 -1.3813
  271MOL0     H36543   4.158   8.399   6.147  0.1823  0.6928 -0.6294
  271MOL0     H36544   4.144   8.570   6.178 -1.1760  0.1128  0.6331
  271MOL0     H36545   4.292   8.575   5.767  0.5948  0.9738 -0.0299
  271MOL0     H36546   4.527   8.525   5.717 -0.9361 -3.1449 -0.1454
  271MOL0     H36547   4.879   8.146   5.939  0.6500 -1.5446  3.1689
  271MOL0     H36548   5.125   8.085   5.893 -1.6299 -0.4594 -0.5301
  271MOL0     H36549   5.360   8.086   6.023  1.9598  2.8956  0.8732
  271MOL0     H36550   5.352   8.082   5.840 -1.4262  3.1673 -1.6164
  271MOL0     H36551   5.559   8.171   6.040 -0.9744  1.4639 -0.0090
  271MOL0     H36552   5.571   8.032   5.923 -1.2220  0.7237 -3.5656
  271MOL0     H36553   5.564   8.179   5.746 -2.5425 -0.4208  0.9200
  271MOL0     H36554   5.574   8.327   5.833  0.6756 -0.5354 -4.7886
  271MOL0     H36555   5.788   8.106   5.840 -0.8542 -0.7891  1.6526
  271MOL0     H36556   5.782   8.264   5.942 -3.0057 -0.7859  2.3241
  271MOL0     H36557   5.782   8.386   5.746 -0.3672 -0.3756 -1.5268
  271MOL0     H36558   5.769   8.258   5.639 -2.4344  0.5810  1.8145
  271MOL0     H36559   6.013   8.322   5.813  2.5494  0.5920 -1.2798
  271MOL0     H36560   5.999   8.162   5.727 -1.1541 -0.8360  2.1631
  271MOL0     H36561   6.040   8.441   5.619  0.5629 -0.4958 -2.3680
  271MOL0     H36562   5.988   8.305   5.518  0.0802  1.9844 -1.2271
  271MOL0     H36563   6.191   8.183   5.556 -0.1354  1.3659 -1.3867
  271MOL0     H36564   6.250   8.351   5.557 -1.7154  0.6006 -2.9839
  271MOL0     H36565   5.232   8.498   5.947  2.4249 -0.6590 -2.4926
  271MOL0     H36566   4.983   8.553   5.988  1.1172  0.5984 -0.3494
  271MOL0     H36567   4.591   8.451   6.144 -0.4091 -0.1965 -0.0250
  271MOL0     H36568   4.366   8.451   6.173  0.5571  1.1407  0.6364
  271MOL0     H36569   2.711   8.882   6.892  1.5795  2.6531 -0.0469
  271MOL0     H36570   2.486   8.865   6.966  0.4418 -0.2697 -0.8369
  271MOL0     H36571   2.045   8.958   6.766  2.7208 -0.7903  1.3702
  271MOL0     H36572   1.792   8.983   6.828 -1.4588 -0.4192  1.3465
  271MOL0     H36573   1.603   8.595   7.013  2.5979  0.4129 -2.0479
  271MOL0     H36574   1.533   8.619   6.862  1.0681  2.2652 -2.7709
  271MOL0     H36575   1.391   8.812   6.954 -0.3867  1.1204  0.3300
  271MOL0     H36576   1.460   8.779   7.111  1.2424 -0.1164 -1.7847
  271MOL0     H36577   1.327   8.610   7.171  2.0624  1.9590  0.0087
  271MOL0     H36578   1.370   8.531   7.022  1.5350  1.4772 -2.9226
  271MOL0     H36579   1.209   8.700   6.922  1.6547  1.8110  0.9879
  271MOL0     H36580   1.113   8.596   7.031  0.7924 -0.6920 -0.6382
  271MOL0     H36581   1.103   9.019   7.141 -0.0574 -0.0391 -0.0771
  271MOL0     H36582   1.787   8.557   6.916 -0.0944 -0.0993  1.5801
  271MOL0     H36583   2.124   8.527   6.974  0.9146  0.0286 -2.1774
  271MOL0     H36584   1.986   8.441   6.919 -1.3354  2.0520  1.2162
  271MOL0     H36585   2.113   8.491   6.799 -0.7174 -0.7305 -1.5432
  272MOL0     O36586   0.527   2.802   9.486 -1.1773  0.4681 -0.2048
  272MOL0     C36587   0.534   2.836   9.372 -0.8780 -0.3897  0.5778
  272MOL0     O36588   0.652   2.892   9.311  1.1237  0.2156 -0.1539
  272MOL0     C36589   0.778   2.874   9.370  0.3849 -0.2331 -0.2247
  272MOL0     C36590   0.826   2.782   9.457  0.2305 -0.3175  0.0327
  272MOL0     C36591   0.969   2.780   9.497  0.1514  0.3326 -0.0626
  272MOL0     C36592   1.055   2.882   9.447  1.0929  0.7838  0.2061
  272MOL0     O36593   1.184   2.874   9.484  0.0187 -0.0491 -0.1355
  272MOL0     C36594   1.249   2.994   9.532  0.5320  0.9233  0.4830
  272MOL0     C36595   1.350   2.950   9.643 -0.7008 -0.5960  0.4156
  272MOL0     C36596   1.453   2.841   9.584  0.2414 -0.7603  0.0488
  272MOL0     C36597   1.594   2.842   9.647  0.6892 -0.6134 -0.0010
  272MOL0     C36598   1.668   2.713   9.610 -0.0359 -0.1671  0.1978
  272MOL0     C36599   1.745   2.708   9.472  0.0983 -0.3294 -1.0798
  272MOL0     C36600   1.838   2.594   9.467  0.4485 -0.6743 -0.0554
  272MOL0     C36601   1.936   2.588   9.357  1.2287 -0.3443  1.1036
  272MOL0     N36602   2.067   2.644   9.395 -0.4704  0.0425  0.6761
  272MOL0     C36603   2.127   2.755   9.331  0.4049  0.6572 -0.5399
  272MOL0     C36604   2.249   2.747   9.386 -0.0692  0.0754 -0.2752
  272MOL0     C36605   2.354   2.854   9.357 -0.4447  0.1741 -0.2467
  272MOL0     C36606   2.367   2.960   9.465 -0.3816 -0.3327 -0.1965
  272MOL0     C36607   2.434   2.910   9.593  0.4961 -0.1283 -0.0029
  272MOL0     C36608   2.430   3.014   9.702 -0.1978  0.2749 -0.1333
  272MOL0     O36609   2.513   3.125   9.665 -0.1128 -0.3579 -0.1023
  272MOL0     C36610   2.634   3.172   9.721  0.9659 -0.3680  1.2347
  272MOL0     C36611   2.709   3.111   9.820 -1.1400  0.2611 -0.4048
  272MOL0     C36612   2.822   3.178   9.881  0.1322  0.4839  0.3666
  272MOL0     C36613   2.852   3.311   9.847  0.1033  0.1828  0.0010
  272MOL0     C36614   2.941   3.393   9.919 -0.5390 -1.2057 -0.0453
  272MOL0     O36615   3.018   3.322  10.000 -0.7761  0.2933 -0.2783
  272MOL0     C36616   3.128   3.367  10.068  0.2274 -0.0061 -0.2483
  272MOL0     C36617   3.217   3.471  10.025 -0.6349  1.5832 -0.7663
  272MOL0     C36618   3.337   3.486  10.094 -0.1547 -0.0824  0.9122
  272MOL0     C36619   3.377   3.405  10.197  0.6227  0.1374  0.0687
  272MOL0     O36620   3.501   3.414  10.257 -0.3390 -0.6265 -0.1549
  272MOL0     C36621   3.604   3.492  10.204  0.7430  0.2705  0.4678
  272MOL0     C36622   3.695   3.549  10.314  1.0793  0.4979 -0.3901
  272MOL0     C36623   3.622   3.599  10.435  0.8507  0.0665  0.1378
  272MOL0     C36624   3.726   3.613  10.545  0.7016  0.8877 -0.6457
  272MOL0     C36625   3.678   3.697  10.670 -0.0748 -0.2221  0.2354
  272MOL0     C36626   3.781   3.682  10.786 -0.1025  0.8963  0.3788
  272MOL0     C36627   3.758   3.777  10.904 -0.0975 -0.3988 -0.3298
  272MOL0     C36628   3.790   3.734  11.042 -0.2347  0.2638 -0.7573
  272MOL0    Cl36629   3.968   3.690  11.064 -0.1184 -0.0408  0.0340
  272MOL0     C36630   3.292   3.311  10.243 -0.0631  0.5506 -0.7619
  272MOL0     C36631   3.170   3.291  10.178  0.2374 -0.3351  0.2992
  272MOL0     O36632   2.952   3.512   9.899 -0.1995 -0.5415  0.1797
  272MOL0     C36633   2.776   3.367   9.742  0.2444 -0.8862  0.5067
  272MOL0     C36634   2.673   3.294   9.682  0.7763 -0.1393 -0.2184
  272MOL0     N36635   2.267   2.641   9.467 -0.5679 -0.3811 -0.4490
  272MOL0     N36636   2.166   2.565   9.453  0.5106 -0.8001 -0.8333
  272MOL0     C36637   1.002   2.971   9.352 -0.1691 -0.5037  0.1228
  272MOL0     C36638   0.872   2.964   9.313  0.0637 -0.2491 -0.1284
  272MOL0     C36639   0.399   2.849   9.308 -0.1244  0.2203  0.3936
  272MOL0     C36640   0.394   2.951   9.207  1.2720 -0.1552  0.1416
  272MOL0     C36641   0.275   2.979   9.138 -0.5128  0.2231 -0.3593
  272MOL0     C36642   0.165   2.901   9.164 -0.4185 -0.3494  0.2896
  272MOL0     O36643   0.059   2.958   9.099 -0.0002 -0.5853 -0.1459
  272MOL0     C36644  -0.072   2.899   9.120 -0.2747  0.9134 -0.2561
  272MOL0     C36645  -0.158   2.993   9.038 -0.2524  0.4956  0.0744
  272MOL0     C36646  -0.301   2.951   9.023 -0.1384 -0.6572  0.4453
  272MOL0     C36647  -0.399   3.075   9.021 -0.4798 -0.2678 -0.0263
  272MOL0     C36648  -0.523   3.040   8.953  0.6778 -0.1779 -0.6658
  272MOL0     C36649  -0.622   3.014   8.886  0.0991  0.1455 -0.1369
  272MOL0     C36650   0.161   2.809   9.275  0.1443 -0.9702  1.2027
  272MOL0     C36651   0.281   2.778   9.336 -0.7462  0.1929  0.0819
  272MOL0     C36652   0.277   2.682   9.443 -0.2198  0.3918 -0.6448
  272MOL0     H36653   0.772   2.700   9.503  1.6758 -0.5994  1.3251
  272MOL0     H36654   1.009   2.700   9.558  1.8392  2.5567  1.9663
  272MOL0     H36655   1.307   3.039   9.452  1.5422  0.9084  1.1802
  272MOL0     H36656   1.174   3.066   9.564  1.6569  1.4529  2.0844
  272MOL0     H36657   1.305   2.898   9.728 -0.1234  0.2008  1.2391
  272MOL0     H36658   1.396   3.039   9.687 -2.3535 -0.3763  1.8175
  272MOL0     H36659   1.458   2.848   9.475  0.7325  1.1565  0.1509
  272MOL0     H36660   1.415   2.743   9.614  0.8898 -0.5644  1.6247
  272MOL0     H36661   1.647   2.929   9.607  0.7738 -0.2696  0.8367
  272MOL0     H36662   1.580   2.845   9.756 -1.4832 -2.4646 -0.1631
  272MOL0     H36663   1.746   2.717   9.687  1.9769  0.3202 -1.7807
  272MOL0     H36664   1.606   2.623   9.619 -2.7645  1.5019 -0.5308
  272MOL0     H36665   1.680   2.699   9.385 -1.7303 -0.3519  0.2426
  272MOL0     H36666   1.804   2.800   9.469 -0.0206  0.2211  4.0030
  272MOL0     H36667   1.782   2.502   9.453  1.0599 -1.2410  1.0170
  272MOL0     H36668   1.894   2.581   9.560  0.7199 -1.1124 -0.2807
  272MOL0     H36669   1.954   2.486   9.321  0.9210  0.0709 -0.2715
  272MOL0     H36670   1.908   2.642   9.267  1.0741 -0.9800  0.7629
  272MOL0     H36671   2.095   2.833   9.262 -0.5893  2.1172  1.4634
  272MOL0     H36672   2.448   2.799   9.348 -0.3948  0.0728  0.7353
  272MOL0     H36673   2.344   2.900   9.259  0.3720 -2.3181 -1.5945
  272MOL0     H36674   2.418   3.046   9.421 -3.2351  2.3083  1.2233
  272MOL0     H36675   2.266   2.994   9.491 -0.9790 -2.3841  0.4399
  272MOL0     H36676   2.538   2.878   9.588  0.6901  0.5049 -0.0753
  272MOL0     H36677   2.376   2.824   9.629  2.9237 -2.1000 -0.5196
  272MOL0     H36678   2.469   2.970   9.795 -0.6540 -0.2648 -0.1914
  272MOL0     H36679   2.326   3.038   9.724 -0.3004 -0.9545  0.8328
  272MOL0     H36680   2.701   3.009   9.856 -0.4459  1.3057  3.1009
  272MOL0     H36681   2.875   3.124   9.959 -0.3879  3.7903  3.2083
  272MOL0     H36682   3.204   3.542   9.944  0.0496  1.3997 -1.0405
  272MOL0     H36683   3.405   3.554  10.043 -1.1516 -1.6366 -2.8197
  272MOL0     H36684   3.665   3.430  10.138 -0.8761 -0.5421 -0.3130
  272MOL0     H36685   3.572   3.584  10.154 -2.1672 -0.3609  0.9710
  272MOL0     H36686   3.749   3.463  10.355  2.0589  0.0601 -2.4642
  272MOL0     H36687   3.781   3.610  10.283  3.1367 -1.4154  1.1930
  272MOL0     H36688   3.585   3.701  10.420  0.1017  0.3118  2.9679
  272MOL0     H36689   3.536   3.540  10.468 -1.6480  3.2189 -0.2287
  272MOL0     H36690   3.818   3.656  10.505 -1.3426  3.6255 -2.7574
  272MOL0     H36691   3.758   3.513  10.577 -0.2406  0.7965  0.0499
  272MOL0     H36692   3.585   3.659  10.713  1.4323 -1.8639  2.2197
  272MOL0     H36693   3.668   3.802  10.639 -0.9462 -0.7612 -1.4468
  272MOL0     H36694   3.774   3.581  10.828  1.0030  1.3400  1.7095
  272MOL0     H36695   3.882   3.691  10.745 -0.7254  1.8291 -0.9980
  272MOL0     H36696   3.653   3.808  10.899  0.1961  0.8120  0.5882
  272MOL0     H36697   3.794   3.877  10.882 -0.9509 -0.3132 -1.4371
  272MOL0     H36698   3.769   3.815  11.112  0.5112 -1.6304  1.8338
  272MOL0     H36699   3.724   3.650  11.067 -0.0002  0.6998  1.6037
  272MOL0     H36700   3.322   3.243  10.322  1.4771 -1.1129 -2.6855
  272MOL0     H36701   3.092   3.223  10.211 -2.5014  1.7084 -1.5520
  272MOL0     H36702   2.811   3.462   9.703  0.8801 -1.4139 -0.2474
  272MOL0     H36703   2.609   3.345   9.610  0.5954  1.4531  1.0193
  272MOL0     H36704   1.077   3.040   9.314  0.5182 -1.2995 -0.0303
  272MOL0     H36705   0.829   3.035   9.243  1.0619 -1.4795 -2.0859
  272MOL0     H36706   0.487   3.000   9.179 -0.8839  2.3817 -3.3164
  272MOL0     H36707   0.272   3.051   9.056  0.7479 -0.3651 -0.9578
  272MOL0     H36708  -0.106   2.893   9.223  2.4504 -2.1413  0.6269
  272MOL0     H36709  -0.071   2.796   9.083 -0.8602  0.8463 -0.0948
  272MOL0     H36710  -0.115   3.016   8.940 -0.7548 -0.1755 -0.3106
  272MOL0     H36711  -0.153   3.093   9.081 -1.8130  0.2727  0.8716
  272MOL0     H36712  -0.327   2.879   9.101 -1.5725 -0.3119  0.3037
  272MOL0     H36713  -0.310   2.898   8.927  1.8542 -0.0624 -0.1410
  272MOL0     H36714  -0.414   3.110   9.123 -0.3700  1.2790 -0.5200
  272MOL0     H36715  -0.355   3.159   8.967 -0.3880  0.2214  0.7883
  272MOL0     H36716  -0.708   3.005   8.823  0.0534  1.6554 -0.3324
  272MOL0     H36717   0.071   2.756   9.304  0.7339 -1.2371  2.6311
  272MOL0     H36718   0.360   2.611   9.444  0.4815  1.1776 -1.1641
  272MOL0     H36719   0.284   2.731   9.541  0.0899 -5.1605  2.5353
  272MOL0     H36720   0.180   2.634   9.439 -0.4233  0.5607  1.1771
  273MOL0     O36721   0.986   7.073  10.932  0.1562 -0.3192 -0.5933
  273MOL0     C36722   0.935   7.032  11.034  0.4090  1.1037  1.1588
  273MOL0     O36723   0.979   6.925  11.104  0.8451 -0.7827  0.0269
  273MOL0     C36724   1.073   6.844  11.048 -0.5758  0.0222  0.1844
  273MOL0     C36725   1.207   6.881  11.026 -0.4380 -0.1190  0.7239
  273MOL0     C36726   1.301   6.794  10.976 -0.2582 -0.1072 -1.0369
  273MOL0     C36727   1.273   6.661  10.942  0.2645 -0.6353  0.1718
  273MOL0     O36728   1.385   6.580  10.920  0.1656 -0.0581 -0.3969
  273MOL0     C36729   1.360   6.444  10.957  0.3436  0.7786 -0.1307
  273MOL0     C36730   1.471   6.347  10.894 -0.0989 -0.7305 -0.5528
  273MOL0     C36731   1.611   6.403  10.937 -0.7161  0.5595 -0.1425
  273MOL0     C36732   1.723   6.305  10.898  0.0080  0.2477 -0.2368
  273MOL0     C36733   1.863   6.359  10.919  0.4941  0.3463  0.2831
  273MOL0     C36734   1.963   6.291  10.818 -0.3662  1.0209  0.4812
  273MOL0     C36735   2.104   6.349  10.817 -0.0964 -0.4022 -0.7528
  273MOL0     C36736   2.190   6.274  10.916  0.6669 -0.1775 -0.1795
  273MOL0     N36737   2.316   6.349  10.925  0.0260  0.3789 -0.0697
  273MOL0     C36738   2.429   6.300  10.979 -0.2962  0.4761 -0.0276
  273MOL0     C36739   2.526   6.397  10.974  0.2632  1.0651  0.1382
  273MOL0     C36740   2.657   6.384  11.041  0.3578  0.1916 -0.4669
  273MOL0     C36741   2.762   6.294  10.969  1.2833 -0.0732 -0.2550
  273MOL0     C36742   2.895   6.321  11.043  0.1965  0.0001  0.0760
  273MOL0     C36743   3.006   6.232  10.978  0.3136 -0.2627  0.0909
  273MOL0     O36744   3.053   6.288  10.848  0.4668  0.0016 -0.8054
  273MOL0     C36745   3.116   6.206  10.757 -0.0474  0.3105  0.2968
  273MOL0     C36746   3.144   6.068  10.770 -0.1856  0.3789  0.8330
  273MOL0     C36747   3.209   5.994  10.669  0.3616  0.2181  0.3900
  273MOL0     C36748   3.251   6.069  10.553  0.0895 -0.4011 -0.8346
  273MOL0     C36749   3.334   6.000  10.447  1.0685 -0.6628  0.0569
  273MOL0     O36750   3.400   5.883  10.481  0.7118  0.1112  0.6416
  273MOL0     C36751   3.502   5.842  10.403 -0.5075 -0.1747  0.2638
  273MOL0     C36752   3.607   5.928  10.365  0.1704  0.6107  0.2879
  273MOL0     C36753   3.721   5.876  10.310  0.4836  0.3225  1.0635
  273MOL0     C36754   3.733   5.736  10.283  0.4239  0.7862  0.5768
  273MOL0     O36755   3.845   5.676  10.222 -0.0630 -0.7732 -0.0388
  273MOL0     C36756   3.930   5.625  10.324 -0.0308  0.0357 -0.3982
  273MOL0     C36757   3.962   5.471  10.303  0.9161  0.4340  0.0836
  273MOL0     C36758   4.066   5.417  10.389  0.1487 -0.1408  0.7096
  273MOL0     C36759   4.202   5.481  10.345 -0.6391 -0.2336  0.2019
  273MOL0     C36760   4.321   5.435  10.435 -0.5400  0.0685 -1.0504
  273MOL0     C36761   4.353   5.284  10.434 -0.4597  0.1439 -0.4762
  273MOL0     C36762   4.421   5.230  10.306 -0.3130 -0.6355 -0.1509
  273MOL0     C36763   4.536   5.141  10.353 -0.1926 -0.8191  0.0035
  273MOL0    Cl36764   4.465   5.003  10.433  0.2278  0.1394  0.3407
  273MOL0     C36765   3.617   5.661  10.305  0.4367 -0.4539 -0.8475
  273MOL0     C36766   3.498   5.713  10.365 -0.6299  0.2434  0.3690
  273MOL0     O36767   3.326   6.050  10.332 -0.4994  0.5072 -0.6423
  273MOL0     C36768   3.208   6.198  10.532 -0.3320 -0.5065 -0.3832
  273MOL0     C36769   3.151   6.266  10.630  0.0863 -0.5073 -0.3765
  273MOL0     N36770   2.463   6.502  10.903  0.3042  0.3100 -0.1574
  273MOL0     N36771   2.337   6.476  10.884 -0.3931 -0.3203  0.6169
  273MOL0     C36772   1.139   6.627  10.952 -0.0722  0.3897  0.6042
  273MOL0     C36773   1.038   6.713  11.008 -0.0463 -0.7202 -0.4054
  273MOL0     C36774   0.809   7.087  11.081  0.2717  0.1658 -0.5861
  273MOL0     C36775   0.695   7.001  11.079  0.9548  0.0496  0.7484
  273MOL0     C36776   0.572   7.056  11.113  0.0644  0.2716 -0.0983
  273MOL0     C36777   0.555   7.192  11.130  0.5827  0.1422  0.6277
  273MOL0     O36778   0.415   7.223  11.142 -0.5779 -0.2417 -0.3187
  273MOL0     C36779   0.359   7.356  11.136  0.6996  0.0728 -0.0020
  273MOL0     C36780   0.386   7.417  10.999  0.5046 -0.2787  0.7196
  273MOL0     C36781   0.282   7.525  10.962 -0.3043  0.7281  0.0722
  273MOL0     C36782   0.146   7.458  10.932  0.2694 -0.0264 -0.0746
  273MOL0     C36783   0.069   7.565  10.861 -0.5911 -0.1899  0.7878
  273MOL0     C36784   0.009   7.655  10.806 -1.0277 -0.9171 -0.2078
  273MOL0     C36785   0.663   7.281  11.125 -0.4160 -0.0351 -1.3624
  273MOL0     C36786   0.788   7.225  11.098 -0.3069 -0.2496 -0.2703
  273MOL0     C36787   0.916   7.318  11.107 -0.5170 -0.4884 -0.5037
  273MOL0     H36788   1.242   6.977  11.063  2.3008 -0.7825  0.1231
  273MOL0     H36789   1.404   6.826  10.967 -1.4650  4.2971 -1.0543
  273MOL0     H36790   1.354   6.432  11.066 -1.5856 -0.0674 -0.2936
  273MOL0     H36791   1.274   6.402  10.904  1.4951 -1.3523 -0.4712
  273MOL0     H36792   1.454   6.354  10.786 -3.0305  0.5875 -0.0912
  273MOL0     H36793   1.466   6.240  10.917  2.5967 -0.4191  2.2124
  273MOL0     H36794   1.608   6.431  11.043 -1.8197  2.5781 -0.6507
  273MOL0     H36795   1.637   6.495  10.884  1.5965 -0.4291 -0.8698
  273MOL0     H36796   1.716   6.210  10.950 -0.0429 -0.3325 -1.2821
  273MOL0     H36797   1.708   6.295  10.790 -0.3953  0.9633 -0.2537
  273MOL0     H36798   1.861   6.466  10.894 -0.0393  0.2890  0.0806
  273MOL0     H36799   1.882   6.345  11.026  1.2087 -1.9480 -0.0944
  273MOL0     H36800   1.960   6.188  10.854  0.5601  1.0628  0.6850
  273MOL0     H36801   1.927   6.290  10.715 -1.2388 -3.7010  0.6082
  273MOL0     H36802   2.089   6.455  10.843  0.1392 -1.0685  2.5345
  273MOL0     H36803   2.146   6.332  10.718 -0.7892 -1.7855 -0.8280
  273MOL0     H36804   2.144   6.268  11.015  2.0122 -0.6550  0.4396
  273MOL0     H36805   2.213   6.177  10.871  0.7435  0.3989 -1.3981
  273MOL0     H36806   2.439   6.204  11.027  1.4885 -0.5556 -2.2829
  273MOL0     H36807   2.692   6.488  11.042 -2.0461  1.0476 -0.4823
  273MOL0     H36808   2.644   6.344  11.141  1.6259 -2.2628 -1.1964
  273MOL0     H36809   2.737   6.189  10.989 -2.1064  0.2806 -1.8334
  273MOL0     H36810   2.766   6.320  10.863 -0.5726  2.3554  0.1831
  273MOL0     H36811   2.882   6.293  11.148 -0.0583  0.8322  0.2794
  273MOL0     H36812   2.910   6.430  11.037  0.0870 -0.0087 -0.4127
  273MOL0     H36813   2.974   6.128  10.970  2.5843 -0.9088 -1.8815
  273MOL0     H36814   3.086   6.229  11.053 -0.1767 -0.4079  0.6143
  273MOL0     H36815   3.121   6.023  10.865  0.3863  1.2469  1.4007
  273MOL0     H36816   3.224   5.887  10.663  1.1636  0.1917  2.3266
  273MOL0     H36817   3.623   6.032  10.391 -2.2236  1.2625 -0.5834
  273MOL0     H36818   3.811   5.937  10.305  0.9148 -0.3714 -0.2677
  273MOL0     H36819   4.025   5.677  10.314 -0.6496  1.2531 -0.1385
  273MOL0     H36820   3.892   5.636  10.426 -0.4783 -1.1753 -0.4175
  273MOL0     H36821   3.866   5.422  10.323  1.3545 -0.3104  0.3978
  273MOL0     H36822   3.983   5.457  10.197 -0.3527  0.2501 -0.1563
  273MOL0     H36823   4.047   5.447  10.493  0.5781 -3.3850  1.8286
  273MOL0     H36824   4.071   5.308  10.384 -1.1295 -0.1826 -0.3847
  273MOL0     H36825   4.196   5.591  10.349 -3.8248 -0.3680  1.6151
  273MOL0     H36826   4.220   5.450  10.241  0.0107  0.3674  0.1219
  273MOL0     H36827   4.298   5.443  10.542  0.6372 -1.4349 -0.6452
  273MOL0     H36828   4.414   5.489  10.412  1.1845 -2.3884 -0.2259
  273MOL0     H36829   4.424   5.272  10.516 -0.0665 -0.5100 -0.8969
  273MOL0     H36830   4.264   5.222  10.449 -1.0342  1.4963  2.3745
  273MOL0     H36831   4.463   5.312  10.247 -4.2300  2.5037  0.9708
  273MOL0     H36832   4.338   5.185  10.252 -1.0746  1.3066 -0.6845
  273MOL0     H36833   4.609   5.129  10.273  0.2698 -1.6268  0.5356
  273MOL0     H36834   4.590   5.196  10.430  2.2336 -1.6874 -0.9924
  273MOL0     H36835   3.620   5.560  10.267 -0.2888 -0.4142 -1.0229
  273MOL0     H36836   3.414   5.650  10.392  0.3650 -0.6917  1.4669
  273MOL0     H36837   3.222   6.245  10.435 -2.4248  0.6935 -0.1745
  273MOL0     H36838   3.133   6.371  10.612  0.4484 -0.5287 -0.8726
  273MOL0     H36839   1.106   6.531  10.912  1.3564  0.5145 -1.0026
  273MOL0     H36840   0.932   6.696  11.021 -0.1470 -0.0604 -0.3575
  273MOL0     H36841   0.702   6.896  11.052 -0.7164  0.5762 -2.1248
  273MOL0     H36842   0.487   6.989  11.124  1.3099 -1.2894  0.4314
  273MOL0     H36843   0.404   7.413  11.218 -0.7689 -0.3504  1.1447
  273MOL0     H36844   0.251   7.359  11.153  1.2019  0.9672  4.3197
  273MOL0     H36845   0.394   7.336  10.926 -0.9014  0.9481 -0.8482
  273MOL0     H36846   0.486   7.461  11.013  2.6281 -3.9404 -1.2762
  273MOL0     H36847   0.305   7.567  10.864  1.7975  0.2139  0.3025
  273MOL0     H36848   0.281   7.602  11.040  4.7365  1.2573 -0.0288
  273MOL0     H36849   0.153   7.378  10.858 -0.7983  0.1399 -0.3635
  273MOL0     H36850   0.095   7.423  11.022 -2.0781 -0.4366 -1.4796
  273MOL0     H36851  -0.050   7.736  10.768  0.5928  0.3072 -0.2130
  273MOL0     H36852   0.647   7.387  11.143 -0.6489 -0.2901  0.0197
  273MOL0     H36853   1.007   7.265  11.136 -1.1859 -0.6178  1.5159
  273MOL0     H36854   0.935   7.359  11.007 -0.6250  2.1869  0.4990
  273MOL0     H36855   0.915   7.397  11.182 -0.6873 -0.3567 -0.6426
  274MOL0     O36856   5.784   7.917   1.606 -0.1616 -0.8744  0.2896
  274MOL0     C36857   5.692   7.997   1.605  0.0125  0.4038 -0.2886
  274MOL0     O36858   5.682   8.094   1.700  0.4090 -0.4410  0.4496
  274MOL0     C36859   5.791   8.128   1.766 -0.9337  0.9008 -0.2164
  274MOL0     C36860   5.880   8.226   1.713  0.1599  0.9984 -1.0218
  274MOL0     C36861   5.982   8.269   1.801 -0.0682  0.3149  0.3692
  274MOL0     C36862   6.015   8.204   1.918 -0.5434  0.3372  0.7868
  274MOL0     O36863   6.125   8.248   1.980  0.3241  0.0441  0.3284
  274MOL0     C36864   6.146   8.202   2.112 -1.1581  1.2040  0.6626
  274MOL0     C36865   6.279   8.232   2.188 -0.4298  0.0651  0.5375
  274MOL0     C36866   6.283   8.373   2.258  0.0271  0.6515  0.3044
  274MOL0     C36867   6.422   8.396   2.317  0.6800  0.8808  0.5261
  274MOL0     C36868   6.438   8.526   2.394  0.7978 -0.2228 -0.7238
  274MOL0     C36869   6.444   8.642   2.305  0.1623 -0.2875  1.0958
  274MOL0     C36870   6.507   8.774   2.365  0.4502  0.4161 -0.0951
  274MOL0     C36871   6.446   8.900   2.303  0.4683 -0.8151 -0.4766
  274MOL0     N36872   6.498   8.911   2.171 -0.3749 -0.1215  0.8974
  274MOL0     C36873   6.432   8.904   2.052 -0.7470 -1.4002  0.6252
  274MOL0     C36874   6.541   8.910   1.965  1.3034 -0.2720 -0.2619
  274MOL0     C36875   6.532   8.882   1.817 -0.0716 -0.4653 -0.2589
  274MOL0     C36876   6.415   8.963   1.762 -0.7590  0.0589  0.3242
  274MOL0     C36877   6.418   9.108   1.788 -0.0946 -0.5677 -0.3395
  274MOL0     C36878   6.295   9.160   1.715  1.5691 -0.4012  0.6281
  274MOL0     O36879   6.290   9.299   1.736  0.2204  0.1171 -0.3766
  274MOL0     C36880   6.172   9.372   1.708 -0.6828 -0.2940  0.5224
  274MOL0     C36881   6.075   9.326   1.618  0.6610 -0.1977 -0.4593
  274MOL0     C36882   5.964   9.403   1.597 -0.2513 -0.7140 -0.4845
  274MOL0     C36883   5.949   9.529   1.650 -0.4528 -0.4364 -0.1279
  274MOL0     C36884   5.832   9.607   1.628  0.5168  0.0502 -0.4461
  274MOL0     O36885   5.817   9.713   1.711  0.3814  0.9558 -0.5140
  274MOL0     C36886   5.719   9.807   1.699 -0.2085  0.0665  0.1244
  274MOL0     C36887   5.591   9.810   1.635  0.0911 -0.1012 -1.0167
  274MOL0     C36888   5.520   9.932   1.619 -0.6355  0.1947  0.7714
  274MOL0     C36889   5.560  10.047   1.691  0.3198  0.7280 -0.0307
  274MOL0     O36890   5.473  10.156   1.677  0.2613  0.0614  0.4037
  274MOL0     C36891   5.520  10.272   1.741  0.4059 -0.1815  0.1353
  274MOL0     C36892   5.421  10.384   1.723  0.2738 -0.3190 -0.3776
  274MOL0     C36893   5.290  10.349   1.801 -0.1547  0.2512 -0.1407
  274MOL0     C36894   5.187  10.278   1.718 -0.3710  0.2499 -0.1191
  274MOL0     C36895   5.051  10.311   1.786  0.3633 -0.5712  0.7673
  274MOL0     C36896   4.941  10.235   1.696 -0.5279  0.4392  0.5714
  274MOL0     C36897   4.792  10.240   1.719 -0.1495 -0.3087 -0.9405
  274MOL0     C36898   4.757  10.235   1.874 -0.1755 -0.3681 -0.8385
  274MOL0    Cl36899   4.769  10.400   1.941 -0.2468 -0.2919  0.5185
  274MOL0     C36900   5.679  10.041   1.763  0.1370  0.4232  0.4043
  274MOL0     C36901   5.764   9.926   1.765  0.7947  0.8299  0.8335
  274MOL0     O36902   5.749   9.574   1.538 -0.6399 -0.1397 -0.5796
  274MOL0     C36903   6.049   9.579   1.728  0.4620 -1.0339  0.2248
  274MOL0     C36904   6.161   9.504   1.754  0.3692  0.2485  0.2818
  274MOL0     N36905   6.654   8.922   2.033 -0.0091  0.1222  0.0917
  274MOL0     N36906   6.630   8.945   2.159  0.5525 -0.7648  0.1905
  274MOL0     C36907   5.934   8.100   1.960  0.6135 -0.2017 -0.2853
  274MOL0     C36908   5.820   8.061   1.890  0.3199  0.7851  0.4009
  274MOL0     C36909   5.576   7.999   1.515 -0.2492 -0.0968 -0.3287
  274MOL0     C36910   5.459   8.072   1.547 -0.6504  0.3117  0.1290
  274MOL0     C36911   5.347   8.065   1.472 -1.0874  0.6991 -0.6292
  274MOL0     C36912   5.342   7.997   1.352  0.6287  1.5887  0.1292
  274MOL0     O36913   5.230   8.015   1.265  0.2664 -0.0174  0.6300
  274MOL0     C36914   5.213   7.948   1.141 -0.1670  0.5134  0.5988
  274MOL0     C36915   5.273   8.029   1.019 -0.6433 -0.3493 -0.3398
  274MOL0     C36916   5.200   8.153   0.972 -0.3087  0.9116  0.4769
  274MOL0     C36917   5.056   8.131   0.926  1.1273  0.0837  0.7603
  274MOL0     C36918   4.995   8.261   0.883 -0.8478 -0.6103  0.5597
  274MOL0     C36919   4.943   8.367   0.865 -0.0458 -0.8481  0.4327
  274MOL0     C36920   5.457   7.924   1.318 -0.1299 -0.3964 -0.1900
  274MOL0     C36921   5.573   7.928   1.395  0.3349  0.4116  0.4247
  274MOL0     C36922   5.694   7.852   1.337 -0.3399 -0.2847  1.1005
  274MOL0     H36923   5.861   8.271   1.616 -0.7782  0.7755 -0.9498
  274MOL0     H36924   6.049   8.349   1.769 -1.1831  0.7530 -0.9400
  274MOL0     H36925   6.059   8.235   2.170 -1.1009  1.1624  0.7717
  274MOL0     H36926   6.146   8.093   2.102 -0.4969  1.2995 -0.5973
  274MOL0     H36927   6.367   8.220   2.123 -1.2170 -2.0608 -0.2313
  274MOL0     H36928   6.280   8.159   2.269 -0.1824  0.5723  0.9978
  274MOL0     H36929   6.217   8.373   2.345  1.7689 -0.0162  1.7078
  274MOL0     H36930   6.242   8.452   2.195 -2.4585 -0.1056  0.8564
  274MOL0     H36931   6.448   8.308   2.376  0.3650  0.8949  0.6889
  274MOL0     H36932   6.493   8.381   2.236  1.5366 -1.7828  1.6446
  274MOL0     H36933   6.367   8.530   2.478  2.5473 -0.1609  0.8070
  274MOL0     H36934   6.533   8.530   2.447  0.9639  0.8885 -1.0733
  274MOL0     H36935   6.486   8.615   2.208 -2.8894  0.4788 -0.5586
  274MOL0     H36936   6.341   8.665   2.276 -0.7520 -2.2120  2.5895
  274MOL0     H36937   6.615   8.771   2.345  0.6780  1.8449  0.7862
  274MOL0     H36938   6.482   8.787   2.471 -2.4185  0.6916 -0.7342
  274MOL0     H36939   6.337   8.892   2.300  0.4823 -1.0511 -0.3848
  274MOL0     H36940   6.469   8.995   2.353  1.2319 -0.2808 -1.8158
  274MOL0     H36941   6.329   8.878   2.027 -1.1578  0.2542  0.4790
  274MOL0     H36942   6.623   8.906   1.762  1.0620 -2.1732  0.7801
  274MOL0     H36943   6.510   8.775   1.811  0.4145 -0.8958  3.3701
  274MOL0     H36944   6.425   8.942   1.655  1.6390  1.0298  0.2932
  274MOL0     H36945   6.322   8.916   1.796 -1.3077  1.8725  1.5009
  274MOL0     H36946   6.508   9.148   1.741 -0.0757  1.1477  1.1004
  274MOL0     H36947   6.420   9.139   1.892  0.9157 -0.2292 -0.4508
  274MOL0     H36948   6.206   9.107   1.750 -0.2689  2.6330  0.9623
  274MOL0     H36949   6.305   9.136   1.608 -0.9417 -1.7419  0.6220
  274MOL0     H36950   6.062   9.228   1.572 -0.8206 -1.8107  2.9729
  274MOL0     H36951   5.886   9.371   1.529 -1.3181  3.1587 -1.3182
  274MOL0     H36952   5.556   9.712   1.605 -0.6666  0.3926 -1.7755
  274MOL0     H36953   5.430   9.938   1.558 -2.2224 -1.4066  2.7680
  274MOL0     H36954   5.507  10.250   1.848  0.4104  0.1693  0.2067
  274MOL0     H36955   5.618  10.305   1.706  0.0395  0.2782 -0.4601
  274MOL0     H36956   5.467  10.477   1.758  3.6274 -1.3968 -1.4568
  274MOL0     H36957   5.395  10.391   1.617 -0.7211  2.3325 -0.0400
  274MOL0     H36958   5.310  10.297   1.895 -2.2610  1.5590  1.1287
  274MOL0     H36959   5.249  10.448   1.823  2.1476  1.4290 -0.7833
  274MOL0     H36960   5.214  10.172   1.706 -1.2386  0.1310 -1.2707
  274MOL0     H36961   5.185  10.309   1.613  0.1996 -0.3350 -0.3155
  274MOL0     H36962   5.037  10.419   1.793 -1.4979 -0.6729 -0.5478
  274MOL0     H36963   5.042  10.268   1.886 -0.2074 -1.3004  0.4158
  274MOL0     H36964   4.948  10.267   1.592  2.0314  1.6431  1.0466
  274MOL0     H36965   4.972  10.131   1.705 -0.5837  0.3020 -0.6931
  274MOL0     H36966   4.735  10.160   1.671 -1.7916 -0.6482  1.3871
  274MOL0     H36967   4.752  10.332   1.676 -0.0492  1.9142  3.1702
  274MOL0     H36968   4.663  10.193   1.912  1.3501 -1.2973  2.1906
  274MOL0     H36969   4.830  10.170   1.923 -0.9077 -0.1109  0.6386
  274MOL0     H36970   5.720  10.131   1.809 -1.5931  1.6961 -0.3987
  274MOL0     H36971   5.857   9.926   1.821  2.1496 -2.7098 -1.1125
  274MOL0     H36972   6.045   9.680   1.768 -2.2786 -0.8153 -0.4012
  274MOL0     H36973   6.242   9.543   1.813  0.7901 -1.0953  0.6359
  274MOL0     H36974   5.944   8.054   2.057 -0.8775  1.3013  0.6490
  274MOL0     H36975   5.760   7.984   1.936 -0.5740  0.1869 -1.6651
  274MOL0     H36976   5.451   8.126   1.641  2.8769  1.6365 -0.1868
  274MOL0     H36977   5.274   8.145   1.487  0.8136  2.2261  1.0321
  274MOL0     H36978   5.110   7.916   1.125  0.7813 -3.6103  1.6436
  274MOL0     H36979   5.267   7.854   1.152  2.0842  1.1620 -3.1035
  274MOL0     H36980   5.275   7.963   0.932 -2.6333  1.1054 -1.5846
  274MOL0     H36981   5.378   8.050   1.041 -0.3765 -1.8716 -0.1049
  274MOL0     H36982   5.244   8.199   0.883  0.2660  1.4656  1.0401
  274MOL0     H36983   5.204   8.228   1.051  2.6661  1.1590  0.2029
  274MOL0     H36984   5.059   8.070   0.836 -0.3663  1.5820 -0.3722
  274MOL0     H36985   4.983   8.100   1.001  0.7522  0.8157  0.7061
  274MOL0     H36986   4.900   8.465   0.859 -2.3309 -1.7319  1.0532
  274MOL0     H36987   5.450   7.873   1.222 -0.1215 -0.9705  0.1072
  274MOL0     H36988   5.681   7.844   1.229  0.8434 -2.1594  1.0530
  274MOL0     H36989   5.791   7.901   1.353 -0.7085  1.3439 -1.1329
  274MOL0     H36990   5.702   7.747   1.365  2.6894 -0.8186 -1.1408
  275MOL0     O36991   2.366   5.012   4.064  0.0571  0.0619 -0.5722
  275MOL0     C36992   2.329   5.108   4.132  0.0600  0.1369  0.7636
  275MOL0     O36993   2.418   5.189   4.200  0.0678  0.0100  0.2276
  275MOL0     C36994   2.547   5.152   4.201  0.1160  1.1059  1.5907
  275MOL0     C36995   2.650   5.245   4.169 -0.6012  0.8952 -0.2012
  275MOL0     C36996   2.785   5.225   4.195  0.0414  0.5863 -0.3257
  275MOL0     C36997   2.829   5.098   4.240 -0.4429  0.0581  0.1261
  275MOL0     O36998   2.958   5.095   4.275  0.0165 -0.8310 -0.4176
  275MOL0     C36999   2.981   5.084   4.419 -0.0166 -0.5336 -1.0181
  275MOL0     C37000   3.122   5.031   4.460 -0.0118 -0.6162 -0.1121
  275MOL0     C37001   3.158   5.033   4.612 -0.2829 -0.1571 -0.4742
  275MOL0     C37002   3.167   5.175   4.660 -0.9168 -0.8219 -1.2119
  275MOL0     C37003   3.270   5.203   4.778 -0.3506  0.5541  0.0400
  275MOL0     C37004   3.284   5.357   4.776  0.5133  1.0713  0.4210
  275MOL0     C37005   3.408   5.415   4.855 -0.1943  0.7471 -0.0374
  275MOL0     C37006   3.541   5.340   4.829 -0.2504 -0.1600  0.9750
  275MOL0     N37007   3.661   5.425   4.848  0.5167 -0.3192  0.0987
  275MOL0     C37008   3.696   5.453   4.978  0.1442 -0.0595  0.6199
  275MOL0     C37009   3.763   5.569   4.958  0.1733  1.6131 -0.8753
  275MOL0     C37010   3.834   5.639   5.078 -0.1254  0.2662 -0.1657
  275MOL0     C37011   3.976   5.688   5.040 -0.4277 -0.2511  0.7661
  275MOL0     C37012   4.046   5.778   5.146 -0.2332 -0.2498  0.0270
  275MOL0     C37013   4.202   5.774   5.116  0.0504 -0.7955 -0.3496
  275MOL0     O37014   4.267   5.879   5.189 -0.1423  0.7775  0.1036
  275MOL0     C37015   4.399   5.883   5.213  0.5174  0.1182 -0.3712
  275MOL0     C37016   4.473   5.771   5.235 -1.1694 -0.3389  0.1627
  275MOL0     C37017   4.608   5.761   5.256  0.3635  0.3020  0.3535
  275MOL0     C37018   4.685   5.876   5.264 -0.9924  0.2913 -0.7724
  275MOL0     C37019   4.837   5.876   5.273 -0.0183  1.0226  0.3553
  275MOL0     O37020   4.898   5.756   5.289 -0.4714 -0.5276 -0.1413
  275MOL0     C37021   5.037   5.751   5.316  0.1700 -1.1478  0.8902
  275MOL0     C37022   5.105   5.649   5.257 -0.4870  0.2317  0.5314
  275MOL0     C37023   5.245   5.614   5.289 -0.0097  0.9311 -0.1503
  275MOL0     C37024   5.313   5.688   5.392 -0.6473  0.5333 -0.4258
  275MOL0     O37025   5.440   5.657   5.436 -0.6122  0.3236 -0.2795
  275MOL0     C37026   5.545   5.625   5.344  0.1973  0.7042  0.0786
  275MOL0     C37027   5.684   5.674   5.395 -0.4261 -0.0972  0.0798
  275MOL0     C37028   5.715   5.599   5.524  0.1250 -0.4100  1.6408
  275MOL0     C37029   5.838   5.660   5.586  0.4129  0.3284  0.9704
  275MOL0     C37030   5.895   5.575   5.701 -0.0759  0.8370  0.1396
  275MOL0     C37031   6.046   5.550   5.696  0.8449  0.7548 -0.0529
  275MOL0     C37032   6.090   5.447   5.807  0.4231  0.3983  0.0887
  275MOL0     C37033   6.235   5.458   5.835 -0.7944  0.5075  0.6308
  275MOL0    Cl37034   6.287   5.344   5.954  0.0808 -0.0495 -0.2274
  275MOL0     C37035   5.237   5.793   5.452 -0.4070  0.3053  0.7875
  275MOL0     C37036   5.111   5.825   5.408 -0.1791 -0.3431 -0.8313
  275MOL0     O37037   4.892   5.981   5.285  0.3333  0.4596 -0.5166
  275MOL0     C37038   4.611   6.001   5.271 -0.3014  0.2930 -0.4347
  275MOL0     C37039   4.471   5.998   5.252 -0.6623 -0.6827 -0.4068
  275MOL0     N37040   3.774   5.607   4.822  0.2195  0.4094  0.4870
  275MOL0     N37041   3.701   5.521   4.764  0.5406 -0.1315  0.6260
  275MOL0     C37042   2.727   4.995   4.256 -0.2387  0.2839  0.8404
  275MOL0     C37043   2.592   5.022   4.234 -0.9794  0.5558  0.4851
  275MOL0     C37044   2.184   5.132   4.146 -0.3141 -0.3580  0.6029
  275MOL0     C37045   2.147   5.252   4.214  0.6380 -0.9994  0.3674
  275MOL0     C37046   2.011   5.281   4.239 -0.3993 -0.0578 -0.6770
  275MOL0     C37047   1.916   5.185   4.196  0.9663  0.1539 -0.1032
  275MOL0     O37048   1.777   5.205   4.206  0.2770  0.4965 -0.7681
  275MOL0     C37049   1.717   5.328   4.236 -0.0198 -0.7422  1.0717
  275MOL0     C37050   1.571   5.330   4.179  0.6089 -0.3327  0.2548
  275MOL0     C37051   1.460   5.256   4.263  0.4220  0.1028  0.7157
  275MOL0     C37052   1.483   5.263   4.410 -0.4043 -0.6460 -0.8747
  275MOL0     C37053   1.368   5.232   4.495 -0.4330 -0.3661  0.4435
  275MOL0     C37054   1.272   5.211   4.563 -0.8281  1.2348 -0.6661
  275MOL0     C37055   1.952   5.071   4.123  1.0037 -0.1964 -0.1179
  275MOL0     C37056   2.084   5.042   4.103  0.6693  0.6269  0.6246
  275MOL0     C37057   2.116   4.910   4.031 -0.3152  0.5224  0.8006
  275MOL0     H37058   2.607   5.333   4.121 -1.5144  1.9032  2.2821
  275MOL0     H37059   2.858   5.303   4.174 -1.3653  1.1136 -3.9308
  275MOL0     H37060   2.964   5.178   4.473  0.3389 -1.8535  1.5460
  275MOL0     H37061   2.923   5.002   4.461  0.1696 -0.8718 -1.4183
  275MOL0     H37062   3.198   5.085   4.403  0.7101  0.1155  1.4741
  275MOL0     H37063   3.133   4.926   4.430 -0.2317 -0.7158  0.1431
  275MOL0     H37064   3.255   4.983   4.622  0.2053  1.1522  2.5088
  275MOL0     H37065   3.083   4.976   4.669  0.2921  0.3655  0.8533
  275MOL0     H37066   3.193   5.238   4.575  2.2625 -1.5697 -0.9301
  275MOL0     H37067   3.071   5.199   4.706  0.8257  1.6159  1.5351
  275MOL0     H37068   3.233   5.167   4.874 -0.3029  0.9719  0.2179
  275MOL0     H37069   3.361   5.147   4.755  1.5469  2.7869  1.6048
  275MOL0     H37070   3.297   5.388   4.672  0.2257 -0.7142 -0.1961
  275MOL0     H37071   3.194   5.397   4.821  0.1288  1.0052 -0.2719
  275MOL0     H37072   3.396   5.440   4.961 -0.4614  0.4412  0.0054
  275MOL0     H37073   3.422   5.513   4.808 -0.5934  0.2597 -1.1909
  275MOL0     H37074   3.549   5.255   4.898  0.7009 -0.5400  0.4092
  275MOL0     H37075   3.557   5.304   4.727  2.8706  0.3144  1.2080
  275MOL0     H37076   3.678   5.393   5.066 -0.6027  1.2073  1.3690
  275MOL0     H37077   3.769   5.714   5.126 -0.0454 -0.6200  1.4050
  275MOL0     H37078   3.843   5.562   5.156  0.3056  0.7667  0.2878
  275MOL0     H37079   4.031   5.594   5.039 -0.0241 -0.0179 -0.5094
  275MOL0     H37080   3.980   5.732   4.939 -2.1173 -0.8440  0.3945
  275MOL0     H37081   4.028   5.731   5.244 -2.4280  0.4578  0.0075
  275MOL0     H37082   4.014   5.882   5.154 -1.5091 -0.7621  2.8057
  275MOL0     H37083   4.218   5.805   5.012 -1.1406 -1.1333 -0.6584
  275MOL0     H37084   4.245   5.681   5.154  1.3240 -0.2189 -0.3328
  275MOL0     H37085   4.430   5.671   5.233  0.5747 -1.2531  2.9663
  275MOL0     H37086   4.661   5.668   5.272  0.6980  0.5467  0.6748
  275MOL0     H37087   5.044   5.584   5.196 -1.6915  0.5015  1.4074
  275MOL0     H37088   5.303   5.532   5.247 -0.2588 -0.4026  1.9635
  275MOL0     H37089   5.550   5.518   5.323 -0.3517  1.2990 -3.7467
  275MOL0     H37090   5.519   5.672   5.249  0.1885 -0.9622 -0.7829
  275MOL0     H37091   5.754   5.670   5.311 -1.5671  2.0119 -1.0462
  275MOL0     H37092   5.674   5.780   5.422 -1.4255 -0.2230  0.2196
  275MOL0     H37093   5.633   5.608   5.596 -1.6506 -0.0671 -0.3416
  275MOL0     H37094   5.734   5.493   5.502 -1.3854 -0.3023 -0.4015
  275MOL0     H37095   5.823   5.768   5.599  0.8715  0.7058 -1.2467
  275MOL0     H37096   5.903   5.663   5.499 -0.0310 -0.3824  0.6038
  275MOL0     H37097   5.858   5.473   5.705  2.5483 -0.2309 -0.5819
  275MOL0     H37098   5.865   5.619   5.797 -2.8726  1.1413 -0.7738
  275MOL0     H37099   6.077   5.514   5.598 -0.2936 -1.0713  0.2037
  275MOL0     H37100   6.100   5.640   5.725  0.3098  1.0529  0.0374
  275MOL0     H37101   6.068   5.341   5.793  1.6741 -0.0551  1.3772
  275MOL0     H37102   6.045   5.495   5.894  0.6814  2.0800 -0.6585
  275MOL0     H37103   6.307   5.456   5.753  0.8773  2.7865  1.9038
  275MOL0     H37104   6.267   5.556   5.871  1.2799  0.2719 -0.4370
  275MOL0     H37105   5.274   5.850   5.536  0.8012 -0.1223  0.5728
  275MOL0     H37106   5.058   5.910   5.450  0.6133 -0.0686 -0.3584
  275MOL0     H37107   4.653   6.098   5.293 -0.7563  0.3431  0.2407
  275MOL0     H37108   4.426   6.096   5.266  1.4128  0.6088 -2.0676
  275MOL0     H37109   2.752   4.897   4.294 -0.0857 -0.5304 -1.2201
  275MOL0     H37110   2.517   4.945   4.248 -1.9684  1.6667  1.5443
  275MOL0     H37111   2.222   5.326   4.243  2.5132 -3.6808  2.9779
  275MOL0     H37112   1.983   5.369   4.296 -2.6330  0.2493 -2.1435
  275MOL0     H37113   1.774   5.411   4.193  1.6133 -0.9804  2.6471
  275MOL0     H37114   1.710   5.353   4.343  0.9982  0.1448  0.9542
  275MOL0     H37115   1.575   5.288   4.079  0.3479  2.6061 -1.0914
  275MOL0     H37116   1.537   5.433   4.167  0.2868 -0.3958  0.5837
  275MOL0     H37117   1.454   5.152   4.230  2.1325  0.0694  0.4291
  275MOL0     H37118   1.364   5.300   4.236  1.2359  2.8071  1.9170
  275MOL0     H37119   1.571   5.207   4.444 -1.1373 -0.5997  1.2662
  275MOL0     H37120   1.511   5.368   4.425 -1.0275 -0.5511 -0.3445
  275MOL0     H37121   1.190   5.194   4.630 -1.3480 -1.2875 -1.7946
  275MOL0     H37122   1.873   5.014   4.076 -0.1990  0.6699  0.7785
  275MOL0     H37123   2.026   4.855   4.001  0.6340 -0.0944 -1.0619
  275MOL0     H37124   2.166   4.930   3.936 -0.0684 -0.9335  0.5885
  275MOL0     H37125   2.174   4.844   4.096 -0.6033  0.0757  0.6177
  276MOL0     O37126   7.880   9.279   4.185  0.2721 -0.0970  0.5343
  276MOL0     C37127   7.795   9.324   4.112  0.0388  1.0668 -0.9012
  276MOL0     O37128   7.814   9.361   3.984  0.4557  0.4128 -0.8218
  276MOL0     C37129   7.935   9.324   3.934 -0.1496 -0.5725  0.4698
  276MOL0     C37130   7.956   9.223   3.845  0.2760 -0.2137 -0.2357
  276MOL0     C37131   8.074   9.204   3.777 -0.2725  0.1920  0.7068
  276MOL0     C37132   8.186   9.289   3.805  0.6357  0.0956 -0.0529
  276MOL0     O37133   8.309   9.251   3.753 -0.2975 -0.2076 -0.5240
  276MOL0     C37134   8.423   9.330   3.796 -0.3926  0.7626 -0.6044
  276MOL0     C37135   8.536   9.290   3.707  0.5637  0.7964 -0.2865
  276MOL0     C37136   8.675   9.340   3.751 -0.2845 -0.3068  0.2931
  276MOL0     C37137   8.779   9.322   3.641 -0.0759  1.1866 -0.7086
  276MOL0     C37138   8.913   9.374   3.683 -0.4218 -0.2163  0.4055
  276MOL0     C37139   9.015   9.395   3.559  0.0497  0.3512  0.2784
  276MOL0     C37140   9.152   9.450   3.614 -1.1029 -0.2416 -0.3707
  276MOL0     C37141   9.221   9.373   3.723  0.2207 -0.2903  0.5450
  276MOL0     N37142   9.361   9.410   3.762  0.3520 -0.3280 -0.6852
  276MOL0     C37143   9.472   9.330   3.783 -0.4076 -0.3698  0.0333
  276MOL0     C37144   9.564   9.416   3.837 -0.2416  0.1933  0.8791
  276MOL0     C37145   9.697   9.367   3.887  0.4196  0.4964 -0.6185
  276MOL0     C37146   9.735   9.228   3.839 -1.0209  0.1386 -0.7775
  276MOL0     C37147   9.876   9.198   3.899  0.1737  0.3807 -0.4084
  276MOL0     C37148   9.916   9.050   3.889 -0.0583  0.4411  0.5947
  276MOL0     O37149  10.053   9.032   3.920 -0.1304 -0.2452  0.0056
  276MOL0     C37150  10.085   9.059   4.054 -0.6629 -1.1215  0.4066
  276MOL0     C37151  10.223   9.080   4.069  1.5887  1.2872  0.1055
  276MOL0     C37152  10.278   9.098   4.191 -0.3602 -0.4552  1.4768
  276MOL0     C37153  10.197   9.111   4.301  0.7672 -0.7865 -0.0860
  276MOL0     C37154  10.257   9.130   4.437  0.0288 -0.1375 -0.6829
  276MOL0     O37155  10.170   9.113   4.537  0.5596  0.6451 -0.4564
  276MOL0     C37156  10.191   9.125   4.671  0.5392 -0.4434  0.1574
  276MOL0     C37157  10.088   9.084   4.754  0.8527  0.1370  0.2747
  276MOL0     C37158  10.099   9.075   4.897 -0.2787  0.3275  0.6945
  276MOL0     C37159  10.214   9.135   4.960  0.8420  0.4758  0.4347
  276MOL0     O37160  10.227   9.145   5.096  0.2898  0.2289  0.0810
  276MOL0     C37161  10.196   9.021   5.168  0.2731  0.7143 -0.1449
  276MOL0     C37162  10.289   9.036   5.284  0.3128  1.4770  0.0217
  276MOL0     C37163  10.293   8.917   5.372 -0.1015 -0.1576  0.4128
  276MOL0     C37164  10.371   8.961   5.508  0.3067 -0.2363  0.3772
  276MOL0     C37165  10.382   8.853   5.613  0.2724 -0.4830 -0.4823
  276MOL0     C37166  10.250   8.824   5.678 -0.0665  0.9340 -0.3427
  276MOL0     C37167  10.271   8.716   5.782  0.4153 -0.1296  0.0214
  276MOL0     C37168  10.144   8.639   5.829  0.7810  0.0981 -0.0541
  276MOL0    Cl37169   9.998   8.752   5.843 -0.4361  0.0901  0.0218
  276MOL0     C37170  10.315   9.176   4.869 -0.1244  0.3811 -0.5975
  276MOL0     C37171  10.307   9.173   4.729  0.1113  0.4802 -0.5901
  276MOL0     O37172  10.377   9.154   4.449 -0.0915 -0.1826  0.6163
  276MOL0     C37173  10.057   9.100   4.296  0.1647  0.0185  1.0861
  276MOL0     C37174   9.999   9.084   4.164 -0.3223  0.3623  0.5455
  276MOL0     N37175   9.519   9.546   3.833  0.2070 -0.7161  0.6903
  276MOL0     N37176   9.398   9.540   3.789  0.2549  0.5971  0.3548
  276MOL0     C37177   8.165   9.394   3.897 -0.1749  0.6720 -0.5859
  276MOL0     C37178   8.043   9.415   3.960 -0.1123  0.0891  0.3461
  276MOL0     C37179   7.660   9.358   4.168  0.4732 -0.3228 -0.5784
  276MOL0     C37180   7.551   9.356   4.075  0.9755 -0.0155  1.1796
  276MOL0     C37181   7.420   9.399   4.105 -0.4496 -0.6997  0.2376
  276MOL0     C37182   7.392   9.450   4.235  0.1286  0.4247 -0.1614
  276MOL0     O37183   7.272   9.487   4.281  0.6197  0.3011  0.1021
  276MOL0     C37184   7.180   9.552   4.191  0.0809 -0.3660 -0.2914
  276MOL0     C37185   7.066   9.591   4.278 -0.5175 -1.0154  0.4042
  276MOL0     C37186   7.009   9.474   4.367 -0.5763 -0.4212 -0.1020
  276MOL0     C37187   6.881   9.508   4.447 -0.0937 -0.1555 -0.0933
  276MOL0     C37188   6.837   9.391   4.522 -0.0892 -0.5111 -0.4311
  276MOL0     C37189   6.814   9.292   4.586  0.8047  0.6469  0.4809
  276MOL0     C37190   7.499   9.453   4.331 -0.0626 -0.3329  0.9176
  276MOL0     C37191   7.631   9.410   4.297 -0.0837  0.4368  0.0503
  276MOL0     C37192   7.742   9.453   4.396  0.1585  0.6224  0.8513
  276MOL0     H37193   7.864   9.166   3.833 -0.5114  0.9200  0.2598
  276MOL0     H37194   8.090   9.117   3.714  0.2956 -1.3619  2.8902
  276MOL0     H37195   8.409   9.438   3.810 -0.9854  0.5021  1.0330
  276MOL0     H37196   8.449   9.300   3.898 -0.0470 -4.1837 -1.8687
  276MOL0     H37197   8.507   9.334   3.611 -0.2262 -1.7596 -1.3048
  276MOL0     H37198   8.545   9.181   3.704 -1.3054  0.5693  0.5832
  276MOL0     H37199   8.711   9.284   3.838  0.8855  0.2133  0.1581
  276MOL0     H37200   8.677   9.440   3.796 -1.1303 -0.6507  1.1460
  276MOL0     H37201   8.780   9.215   3.615  0.9508  0.7970  0.7492
  276MOL0     H37202   8.755   9.385   3.555  2.2608  1.2926 -1.3688
  276MOL0     H37203   8.900   9.471   3.732 -1.7690  1.0851 -2.3316
  276MOL0     H37204   8.948   9.300   3.756 -2.6215 -0.4176  1.3426
  276MOL0     H37205   9.025   9.292   3.524 -3.1291 -0.4176  1.3303
  276MOL0     H37206   8.970   9.445   3.473 -2.9750  1.4239  2.3033
  276MOL0     H37207   9.114   9.548   3.646 -2.5276 -0.5860 -0.9070
  276MOL0     H37208   9.230   9.463   3.538 -0.3640 -2.2045  0.0044
  276MOL0     H37209   9.161   9.381   3.814 -0.3958 -0.4348  0.1540
  276MOL0     H37210   9.229   9.267   3.697  3.6519  0.3851 -1.9507
  276MOL0     H37211   9.473   9.222   3.774 -0.6117 -0.2612 -1.7246
  276MOL0     H37212   9.779   9.436   3.866  1.1514  0.4712  1.8075
  276MOL0     H37213   9.687   9.364   3.996  0.1880 -0.0316 -0.6486
  276MOL0     H37214   9.662   9.154   3.874  0.8715 -0.8656  1.3486
  276MOL0     H37215   9.743   9.222   3.730  0.2258 -1.3332 -0.6417
  276MOL0     H37216   9.888   9.242   3.998  0.8124  1.1826 -0.8245
  276MOL0     H37217   9.956   9.249   3.844  3.0889 -1.9036  1.3864
  276MOL0     H37218   9.909   9.014   3.786  2.2034  1.3639  0.0681
  276MOL0     H37219   9.850   8.987   3.950 -0.9554 -0.2173 -0.9783
  276MOL0     H37220  10.291   9.065   3.986  3.4581 -1.0801  1.8923
  276MOL0     H37221  10.387   9.099   4.196 -0.1261  1.1218 -1.5319
  276MOL0     H37222  10.001   9.040   4.707  1.3860 -0.7759  0.1188
  276MOL0     H37223  10.015   9.039   4.957  0.7510 -1.5926  1.0700
  276MOL0     H37224  10.091   9.026   5.199 -0.2027  2.3876 -1.8422
  276MOL0     H37225  10.200   8.928   5.110  0.2244  0.5672  0.0840
  276MOL0     H37226  10.395   9.055   5.264  0.4350  2.2182  1.2640
  276MOL0     H37227  10.256   9.118   5.349  2.5297  0.8590  2.0408
  276MOL0     H37228  10.193   8.884   5.401 -0.2084  1.0597  1.5348
  276MOL0     H37229  10.343   8.836   5.317 -1.8373 -0.5626 -0.6451
  276MOL0     H37230  10.330   9.055   5.548  2.9644  0.8037  0.8515
  276MOL0     H37231  10.472   8.989   5.477 -0.5408  0.6876 -1.7231
  276MOL0     H37232  10.455   8.873   5.693 -2.7630  0.9159  2.2038
  276MOL0     H37233  10.419   8.760   5.569 -1.1317 -1.4029  0.2028
  276MOL0     H37234  10.208   8.917   5.716  1.5824  0.5171  2.8883
  276MOL0     H37235  10.177   8.782   5.608  0.0517 -3.5591  1.8711
  276MOL0     H37236  10.317   8.757   5.872  0.1547 -0.9234  0.5333
  276MOL0     H37237  10.333   8.634   5.744 -0.5199 -2.5458  3.1671
  276MOL0     H37238  10.118   8.565   5.752 -1.1363  1.4582 -0.7938
  276MOL0     H37239  10.173   8.584   5.919 -1.4195 -0.8552  0.1422
  276MOL0     H37240  10.403   9.231   4.897  1.2195 -2.3875  1.0491
  276MOL0     H37241  10.391   9.203   4.667  1.7856  1.0068  1.7801
  276MOL0     H37242   9.986   9.117   4.376 -0.8616 -0.3764  0.2834
  276MOL0     H37243   9.891   9.072   4.158 -0.1956 -0.5138 -0.2356
  276MOL0     H37244   8.240   9.466   3.931  1.2973 -0.7365 -0.7158
  276MOL0     H37245   8.034   9.497   4.032  2.3586  3.0820 -2.4325
  276MOL0     H37246   7.562   9.300   3.983 -2.6220 -1.2589  1.3581
  276MOL0     H37247   7.344   9.375   4.032  0.4846 -0.9688 -0.6742
  276MOL0     H37248   7.136   9.476   4.126  1.0320 -0.0797 -1.3017
  276MOL0     H37249   7.224   9.634   4.133 -4.4932  2.6196 -0.1371
  276MOL0     H37250   6.981   9.628   4.221  0.1291  0.7975  0.5698
  276MOL0     H37251   7.099   9.672   4.343 -2.0362 -1.7441  2.1456
  276MOL0     H37252   7.089   9.459   4.441  0.1070  2.3167 -0.1733
  276MOL0     H37253   6.984   9.382   4.313  0.4874 -1.7884  1.6143
  276MOL0     H37254   6.915   9.582   4.519  1.7270  0.6021 -1.6537
  276MOL0     H37255   6.801   9.548   4.385 -0.5324 -0.9203 -0.0425
  276MOL0     H37256   6.796   9.202   4.642  0.9796  1.8262  2.5432
  276MOL0     H37257   7.482   9.482   4.434 -0.2502 -0.3741  0.8997
  276MOL0     H37258   7.763   9.369   4.463 -2.8714 -1.9457 -1.1324
  276MOL0     H37259   7.832   9.477   4.338 -1.2461 -0.0915 -1.7726
  276MOL0     H37260   7.720   9.540   4.459 -2.7018 -2.7747  5.0865
  277MOL0     O37261   0.330   5.790   6.399  0.5143  0.2108 -0.1228
  277MOL0     C37262   0.299   5.676   6.438 -0.6826 -0.5769  0.6961
  277MOL0     O37263   0.373   5.564   6.417 -0.4174 -0.1027 -0.7330
  277MOL0     C37264   0.491   5.570   6.343 -0.2312  0.8654  0.3337
  277MOL0     C37265   0.508   5.469   6.250  0.1900 -1.3724  0.2374
  277MOL0     C37266   0.626   5.460   6.168 -0.2054  0.3296 -0.0007
  277MOL0     C37267   0.730   5.551   6.195 -0.6068 -0.2220 -1.0960
  277MOL0     O37268   0.851   5.571   6.123 -0.2416 -0.6442 -0.0863
  277MOL0     C37269   0.878   5.483   6.015  0.9366 -0.8379  0.0740
  277MOL0     C37270   1.024   5.488   5.985 -0.0305 -0.4819 -0.7719
  277MOL0     C37271   1.116   5.432   6.103 -0.6488 -0.9403  0.2049
  277MOL0     C37272   1.257   5.493   6.087 -0.2905  0.2299  0.0596
  277MOL0     C37273   1.362   5.437   6.184 -0.5942  0.6597 -0.0691
  277MOL0     C37274   1.361   5.514   6.321  0.9515 -1.0346  0.5470
  277MOL0     C37275   1.458   5.461   6.422 -0.7029  0.6650 -0.8133
  277MOL0     C37276   1.446   5.322   6.467 -0.2084  0.3635 -0.2625
  277MOL0     N37277   1.315   5.277   6.516 -0.4893 -0.3380 -0.6407
  277MOL0     C37278   1.248   5.169   6.471 -0.4896 -0.2947 -0.2056
  277MOL0     C37279   1.125   5.184   6.510  0.1138  0.4541 -0.1262
  277MOL0     C37280   1.022   5.084   6.472  0.8651  0.8256  0.3627
  277MOL0     C37281   0.948   5.130   6.334  0.6079 -0.4075 -0.5388
  277MOL0     C37282   0.883   5.263   6.330  0.9411  0.2793  0.0556
  277MOL0     C37283   0.756   5.248   6.419 -0.0111  0.4077  1.1023
  277MOL0     O37284   0.648   5.174   6.358  0.3569 -0.1089 -0.1007
  277MOL0     C37285   0.529   5.164   6.424 -0.6254  0.2058  0.8043
  277MOL0     C37286   0.511   5.177   6.565 -0.3918  0.6181  0.0016
  277MOL0     C37287   0.377   5.175   6.617  0.2521 -0.4354  0.8522
  277MOL0     C37288   0.272   5.147   6.538 -0.2285 -0.0573  0.0072
  277MOL0     C37289   0.138   5.147   6.586 -0.7522 -0.1820  0.7752
  277MOL0     O37290   0.052   5.065   6.522  0.0852 -0.1713  0.0575
  277MOL0     C37291  -0.071   5.102   6.530  0.7458  0.4543  0.4488
  277MOL0     C37292  -0.132   5.181   6.427 -0.0172  1.0674 -1.1189
  277MOL0     C37293  -0.263   5.213   6.429  0.8231 -0.6592  0.3596
  277MOL0     C37294  -0.352   5.152   6.528  0.4558 -0.3181  0.5595
  277MOL0     O37295  -0.485   5.174   6.511 -0.4128  0.4754  0.2999
  277MOL0     C37296  -0.572   5.154   6.623  0.5313  0.4047 -0.1672
  277MOL0     C37297  -0.697   5.233   6.579  0.2840  0.9940  0.2499
  277MOL0     C37298  -0.801   5.252   6.694  0.4900  0.2827 -0.8457
  277MOL0     C37299  -0.857   5.128   6.754  0.7015 -0.5000 -0.2839
  277MOL0     C37300  -0.950   5.160   6.873  0.2924  0.0806  1.5753
  277MOL0     C37301  -0.993   5.038   6.947  0.1611 -0.3375  0.3189
  277MOL0     C37302  -1.062   5.063   7.079  1.1046  0.7798 -1.0166
  277MOL0     C37303  -1.193   5.130   7.067  0.1668  0.7291 -0.5721
  277MOL0    Cl37304  -1.241   5.203   7.229 -0.1901 -0.0311 -0.0183
  277MOL0     C37305  -0.291   5.076   6.629 -0.7722 -0.0719  0.7632
  277MOL0     C37306  -0.158   5.050   6.629  0.0539  0.4895 -0.2102
  277MOL0     O37307   0.100   5.217   6.676  0.0123 -0.1410  0.1729
  277MOL0     C37308   0.298   5.133   6.400  0.5949  0.1069  0.1410
  277MOL0     C37309   0.423   5.145   6.346  0.5564 -0.3361 -0.1913
  277MOL0     N37310   1.108   5.291   6.593 -0.1781 -0.1815 -0.5559
  277MOL0     N37311   1.222   5.349   6.590 -0.5853 -0.2661 -0.4543
  277MOL0     C37312   0.714   5.651   6.294 -0.4286 -0.2047  0.5727
  277MOL0     C37313   0.590   5.668   6.364 -0.3066 -0.6793  0.2353
  277MOL0     C37314   0.169   5.658   6.499  0.7055 -0.4396 -0.3755
  277MOL0     C37315   0.112   5.535   6.498 -0.0387 -0.0787  0.3482
  277MOL0     C37316  -0.000   5.500   6.571  0.0566  0.4667  0.1087
  277MOL0     C37317  -0.065   5.592   6.653 -0.2694  0.3744 -0.3353
  277MOL0     O37318  -0.172   5.575   6.736 -0.4625  0.1072 -0.3147
  277MOL0     C37319  -0.231   5.442   6.756  0.7301 -0.8541 -0.2057
  277MOL0     C37320  -0.325   5.445   6.879 -0.2587  0.2849  0.5577
  277MOL0     C37321  -0.449   5.514   6.832  0.3464  0.4751  0.1969
  277MOL0     C37322  -0.514   5.569   6.959 -0.4080  0.1370 -0.6347
  277MOL0     C37323  -0.657   5.583   6.935 -0.6567 -0.3570  0.3175
  277MOL0     C37324  -0.776   5.595   6.908  0.4180  0.5083  0.2437
  277MOL0     C37325  -0.022   5.726   6.644  0.2611  0.5789  1.1182
  277MOL0     C37326   0.098   5.754   6.572 -0.0323 -0.1972 -0.0963
  277MOL0     C37327   0.134   5.906   6.583 -0.2614  0.3091 -0.3412
  277MOL0     H37328   0.430   5.395   6.239 -0.4692 -0.6843  0.1854
  277MOL0     H37329   0.638   5.386   6.090  1.1658 -0.1455  0.6127
  277MOL0     H37330   0.856   5.379   6.040  2.1570 -0.7223  1.8400
  277MOL0     H37331   0.826   5.515   5.925 -1.7340  1.8464  2.3429
  277MOL0     H37332   1.048   5.590   5.954  1.4914 -0.5618  0.0852
  277MOL0     H37333   1.028   5.422   5.898 -1.4154 -1.3487 -0.2201
  277MOL0     H37334   1.130   5.324   6.112  0.6551 -0.7373  0.7936
  277MOL0     H37335   1.091   5.474   6.201 -2.9610 -0.1853 -0.6175
  277MOL0     H37336   1.301   5.464   5.990  1.7449 -2.6866  1.6817
  277MOL0     H37337   1.271   5.601   6.089  1.3738  0.0489  0.1842
  277MOL0     H37338   1.356   5.329   6.193  0.5584  0.4679 -1.2996
  277MOL0     H37339   1.461   5.445   6.139 -0.6395 -2.4249 -0.9403
  277MOL0     H37340   1.383   5.618   6.298 -1.0880 -0.5806  0.5059
  277MOL0     H37341   1.261   5.509   6.365  2.1659  0.1730  3.7813
  277MOL0     H37342   1.458   5.528   6.509  1.0329  0.6630 -0.7677
  277MOL0     H37343   1.558   5.473   6.379 -0.0382  2.3477  1.0564
  277MOL0     H37344   1.485   5.270   6.379 -0.4791 -0.8662  0.3166
  277MOL0     H37345   1.517   5.297   6.547 -1.0920 -0.1842  0.3692
  277MOL0     H37346   1.286   5.102   6.395  2.1115  0.0974  0.6402
  277MOL0     H37347   1.072   4.986   6.469  2.9908  1.7467  2.5613
  277MOL0     H37348   0.944   5.090   6.549  1.2715  0.2718  0.8313
  277MOL0     H37349   1.030   5.123   6.262  0.5710  0.3074 -0.6554
  277MOL0     H37350   0.878   5.049   6.310  0.5821 -1.0173  1.4480
  277MOL0     H37351   0.865   5.286   6.225  2.0719 -1.7093 -0.6394
  277MOL0     H37352   0.949   5.345   6.361 -2.7321  3.3282  0.5775
  277MOL0     H37353   0.732   5.348   6.457 -0.2435  1.8424 -2.4935
  277MOL0     H37354   0.784   5.187   6.505 -1.8427 -3.2713 -0.7035
  277MOL0     H37355   0.587   5.204   6.636 -2.0644  0.4527  1.9589
  277MOL0     H37356   0.365   5.188   6.724  0.8126  2.2677  0.6424
  277MOL0     H37357  -0.077   5.208   6.337  1.2790  0.3753 -0.5594
  277MOL0     H37358  -0.307   5.281   6.356  1.0785  0.3220  1.1031
  277MOL0     H37359  -0.598   5.048   6.625 -1.9328  0.9571  0.1103
  277MOL0     H37360  -0.536   5.190   6.719 -2.2679  0.6331  0.8805
  277MOL0     H37361  -0.663   5.330   6.542  3.8075 -0.0989  0.3056
  277MOL0     H37362  -0.748   5.171   6.505 -1.5970  0.1108  2.1719
  277MOL0     H37363  -0.755   5.319   6.767  0.9903 -1.2111  0.2794
  277MOL0     H37364  -0.890   5.299   6.652 -0.3978 -0.9430 -0.4204
  277MOL0     H37365  -0.775   5.067   6.793 -0.0063  0.5580  3.1524
  277MOL0     H37366  -0.907   5.065   6.680  0.1162 -1.2776  0.7466
  277MOL0     H37367  -1.039   5.216   6.841 -0.3076 -0.9545  1.3985
  277MOL0     H37368  -0.906   5.236   6.939  3.0867  1.8442 -1.9714
  277MOL0     H37369  -1.044   4.969   6.879  1.3736  1.1852 -2.2778
  277MOL0     H37370  -0.899   4.994   6.981  0.5867 -0.5828 -1.1308
  277MOL0     H37371  -1.008   5.128   7.149 -1.0010 -1.1920  2.8144
  277MOL0     H37372  -1.084   4.968   7.128 -2.5107  1.6817 -0.5971
  277MOL0     H37373  -1.185   5.209   6.992 -0.1783  0.1994 -1.1778
  277MOL0     H37374  -1.267   5.058   7.029  3.2433 -2.1368 -1.5559
  277MOL0     H37375  -0.360   5.030   6.699 -3.1949 -1.2575 -2.1983
  277MOL0     H37376  -0.116   4.995   6.712 -1.4196 -1.3941 -0.6308
  277MOL0     H37377   0.210   5.119   6.338  0.5590 -1.1991  0.4654
  277MOL0     H37378   0.449   5.148   6.241  0.0818  0.4816 -0.2960
  277MOL0     H37379   0.791   5.726   6.308 -0.8649  0.1199  1.2936
  277MOL0     H37380   0.587   5.744   6.442  2.3564  0.5278 -0.7218
  277MOL0     H37381   0.157   5.468   6.425 -0.0114  1.8593 -1.5209
  277MOL0     H37382  -0.039   5.399   6.569  1.6223 -0.2478  2.1730
  277MOL0     H37383  -0.157   5.364   6.778  0.0559 -0.9393  2.0156
  277MOL0     H37384  -0.282   5.422   6.662  1.1710  2.4705 -1.2615
  277MOL0     H37385  -0.267   5.503   6.951  1.4361 -0.9135  0.2132
  277MOL0     H37386  -0.350   5.348   6.923 -2.7956  0.9496  0.7408
  277MOL0     H37387  -0.508   5.444   6.773  2.7247 -0.0430 -1.7076
  277MOL0     H37388  -0.427   5.607   6.778 -1.6482  0.7427 -0.2462
  277MOL0     H37389  -0.496   5.512   7.050  2.0625  1.5527 -0.1523
  277MOL0     H37390  -0.469   5.666   6.983  1.0724 -0.7421  0.2813
  277MOL0     H37391  -0.880   5.611   6.886  0.9859  2.4871 -1.2505
  277MOL0     H37392  -0.081   5.807   6.686 -1.3815 -0.6982  1.3647
  277MOL0     H37393   0.191   5.923   6.675 -1.3922 -3.1896  1.1637
  277MOL0     H37394   0.188   5.944   6.496  1.5228 -2.0227 -0.3363
  277MOL0     H37395   0.041   5.963   6.591 -0.1565  0.2852  1.5927
  278MOL0     O37396   6.248   1.723   1.671 -0.5648  0.0316 -0.3813
  278MOL0     C37397   6.191   1.823   1.710 -0.5863 -0.2130  0.1492
  278MOL0     O37398   6.242   1.913   1.800  0.0903 -0.3132 -0.5807
  278MOL0     C37399   6.380   1.930   1.802 -0.1415 -0.1877  0.6521
  278MOL0     C37400   6.462   1.915   1.687  0.7795 -0.6721  0.5141
  278MOL0     C37401   6.596   1.954   1.693 -0.3501 -0.2327 -0.0557
  278MOL0     C37402   6.651   1.986   1.822 -0.2254  0.1770  0.5623
  278MOL0     O37403   6.784   2.020   1.830 -0.0099  0.2045  0.1852
  278MOL0     C37404   6.814   2.153   1.840  0.0308 -0.4445  0.4213
  278MOL0     C37405   6.967   2.189   1.840  0.8482  0.2053  0.0769
  278MOL0     C37406   7.049   2.141   1.712  0.6357  0.3463  0.5365
  278MOL0     C37407   7.187   2.192   1.731  0.1091  0.6771  0.5168
  278MOL0     C37408   7.200   2.344   1.691 -0.2389 -0.1736 -1.7813
  278MOL0     C37409   7.346   2.388   1.668 -0.1600  0.2351  0.5402
  278MOL0     C37410   7.369   2.540   1.694  0.1764  0.2970 -0.7566
  278MOL0     C37411   7.518   2.552   1.685  0.2538  0.4492 -0.7029
  278MOL0     N37412   7.594   2.479   1.788  0.0302  1.0621 -0.4866
  278MOL0     C37413   7.591   2.505   1.925  0.4277  0.1735 -0.0276
  278MOL0     C37414   7.703   2.443   1.970  0.8374  0.4470 -0.2053
  278MOL0     C37415   7.741   2.441   2.108  0.7173 -0.4363 -0.9577
  278MOL0     C37416   7.895   2.474   2.138  1.1390 -0.1192  0.6411
  278MOL0     C37417   7.927   2.612   2.079 -0.5836  0.4573 -0.9230
  278MOL0     C37418   8.074   2.668   2.117  0.4359 -0.6271  0.6597
  278MOL0     O37419   8.098   2.792   2.048  0.8729  0.2070 -0.6385
  278MOL0     C37420   8.220   2.857   2.055  0.5853 -0.1088 -0.2067
  278MOL0     C37421   8.238   2.984   2.017 -0.5555 -0.0638 -0.0596
  278MOL0     C37422   8.362   3.051   2.028 -1.1110 -0.9873  0.0549
  278MOL0     C37423   8.472   2.992   2.103 -0.1011  0.2176 -0.0548
  278MOL0     C37424   8.608   3.054   2.126 -0.6913 -0.7507 -0.2069
  278MOL0     O37425   8.694   2.987   2.208  0.0809 -0.2700  0.1747
  278MOL0     C37426   8.823   3.035   2.219  0.2572  0.2425  0.5641
  278MOL0     C37427   8.931   2.962   2.170  0.2436  1.1509 -0.8539
  278MOL0     C37428   9.064   2.995   2.195  0.2686 -0.0798 -0.0575
  278MOL0     C37429   9.090   3.103   2.282  0.0106  1.0490  0.6816
  278MOL0     O37430   9.213   3.142   2.313 -0.2787  0.2712  0.3912
  278MOL0     C37431   9.333   3.097   2.244 -0.6828 -0.2426 -0.3358
  278MOL0     C37432   9.452   3.182   2.308  0.3786  0.0424  0.0549
  278MOL0     C37433   9.579   3.123   2.255 -0.0920  0.8469 -0.0676
  278MOL0     C37434   9.699   3.184   2.325 -0.5433 -0.5839 -0.0073
  278MOL0     C37435   9.833   3.130   2.280  0.0935  0.7704  0.8767
  278MOL0     C37436   9.864   3.164   2.124  0.2742 -0.7190 -0.3795
  278MOL0     C37437   9.953   3.054   2.065 -0.6634  0.1978  1.0301
  278MOL0     C37438   9.974   3.097   1.922 -0.6530 -0.1470 -0.2764
  278MOL0    Cl37439  10.073   3.235   1.904 -0.0063  0.6972 -0.3639
  278MOL0     C37440   8.981   3.179   2.318  0.5007 -0.1052  0.5428
  278MOL0     C37441   8.848   3.145   2.295  1.1237  0.3892  0.4031
  278MOL0     O37442   8.636   3.153   2.062 -0.1880  0.4370 -0.5553
  278MOL0     C37443   8.442   2.861   2.151  0.2551  0.3130 -0.6748
  278MOL0     C37444   8.320   2.789   2.128 -0.7996  0.2945  0.8989
  278MOL0     N37445   7.759   2.383   1.863 -0.6995 -0.2180 -0.2154
  278MOL0     N37446   7.706   2.413   1.748  0.6031  0.4623 -0.5698
  278MOL0     C37447   6.568   1.992   1.933  0.3682 -0.1530 -0.4203
  278MOL0     C37448   6.429   1.971   1.925 -0.6831 -0.4875  0.8769
  278MOL0     C37449   6.054   1.828   1.671  0.5292 -0.3883 -0.8526
  278MOL0     C37450   5.978   1.949   1.692 -0.6601 -0.7133  0.2633
  278MOL0     C37451   5.841   1.963   1.662  0.4889 -0.5555  0.3949
  278MOL0     C37452   5.788   1.868   1.579 -0.4776  0.1421  0.1753
  278MOL0     O37453   5.668   1.875   1.519 -0.2967 -0.5908  0.0065
  278MOL0     C37454   5.565   1.962   1.563 -0.0001 -0.6080  0.4983
  278MOL0     C37455   5.456   1.894   1.642  0.3154  0.9267 -0.3916
  278MOL0     C37456   5.344   1.997   1.670  0.8546  0.7886  0.4516
  278MOL0     C37457   5.202   1.933   1.698 -0.6753 -0.3828  0.0156
  278MOL0     C37458   5.204   1.862   1.826  0.2142 -0.7819  0.4956
  278MOL0     C37459   5.217   1.802   1.931 -0.0303  0.7154 -0.2129
  278MOL0     C37460   5.849   1.751   1.549 -0.8697  0.1424  0.5386
  278MOL0     C37461   5.980   1.721   1.601 -0.0128 -0.9074  0.6192
  278MOL0     C37462   6.024   1.581   1.578 -0.3997 -0.3635 -1.2737
  278MOL0     H37463   6.414   1.886   1.594 -0.5659  1.6872  0.4000
  278MOL0     H37464   6.664   1.951   1.608 -0.6658  1.0649 -0.3636
  278MOL0     H37465   6.761   2.197   1.755 -0.5384  0.5654  1.2729
  278MOL0     H37466   6.785   2.186   1.940  1.1451  0.5634  0.4344
  278MOL0     H37467   7.010   2.151   1.933 -0.5754  2.3131  1.6978
  278MOL0     H37468   6.964   2.298   1.832  1.1649  0.2120  0.0495
  278MOL0     H37469   7.001   2.182   1.622  1.2534 -0.2943 -0.0930
  278MOL0     H37470   7.052   2.032   1.709  1.0445  0.2796  2.1544
  278MOL0     H37471   7.224   2.162   1.829 -2.7012 -1.9806  0.8819
  278MOL0     H37472   7.238   2.126   1.659 -1.0169 -0.5054  0.7778
  278MOL0     H37473   7.138   2.364   1.603 -1.1344 -2.9411 -1.8652
  278MOL0     H37474   7.164   2.398   1.779 -1.7683 -4.0704  0.1941
  278MOL0     H37475   7.413   2.336   1.736  2.5160  0.8325 -1.4851
  278MOL0     H37476   7.371   2.355   1.567 -4.1644 -2.7812  0.2994
  278MOL0     H37477   7.333   2.561   1.795 -0.6626 -0.6381 -0.8512
  278MOL0     H37478   7.315   2.607   1.627 -3.1821  0.5078  1.9003
  278MOL0     H37479   7.540   2.510   1.586 -0.0035 -2.6743  0.4534
  278MOL0     H37480   7.562   2.652   1.688  2.7141 -0.5581 -0.4112
  278MOL0     H37481   7.513   2.546   1.987 -2.4335 -2.2036 -1.7921
  278MOL0     H37482   7.683   2.525   2.147 -1.0758 -1.1023 -2.0724
  278MOL0     H37483   7.717   2.350   2.164 -0.8425  1.9197  2.5164
  278MOL0     H37484   7.903   2.474   2.247  2.6407  0.4042  0.5517
  278MOL0     H37485   7.950   2.396   2.084  1.1481  0.6774 -0.5365
  278MOL0     H37486   7.853   2.682   2.118 -0.4398 -1.2685  2.8451
  278MOL0     H37487   7.934   2.600   1.970 -0.3104  3.2008 -1.2821
  278MOL0     H37488   8.149   2.597   2.082  1.4105 -0.2660  1.9472
  278MOL0     H37489   8.080   2.688   2.224 -1.4172 -0.2678  0.7404
  278MOL0     H37490   8.158   3.037   1.965  0.1039 -1.2327 -2.4133
  278MOL0     H37491   8.376   3.151   1.989  0.2000 -0.9518  0.5781
  278MOL0     H37492   8.911   2.880   2.102 -2.2445 -0.3430  1.4648
  278MOL0     H37493   9.138   2.936   2.143  0.7842  0.8694 -0.4299
  278MOL0     H37494   9.350   2.994   2.276 -0.5945  0.3440  1.6438
  278MOL0     H37495   9.317   3.101   2.136  0.5945 -1.7637 -0.6185
  278MOL0     H37496   9.456   3.290   2.291  3.6519  0.0102  0.1200
  278MOL0     H37497   9.445   3.167   2.416 -0.2111 -0.5675 -0.0604
  278MOL0     H37498   9.581   3.014   2.265 -1.3421  0.8828  0.8066
  278MOL0     H37499   9.572   3.147   2.149 -2.4073 -0.0688 -0.1986
  278MOL0     H37500   9.691   3.153   2.429  0.7165 -3.1977 -0.6183
  278MOL0     H37501   9.705   3.294   2.327  0.2047 -0.4873 -2.8270
  278MOL0     H37502   9.833   3.021   2.290  2.0672  0.6336 -0.1806
  278MOL0     H37503   9.923   3.163   2.330  2.0541  3.0856 -3.5777
  278MOL0     H37504   9.775   3.182   2.063 -0.0427  2.7908  0.9183
  278MOL0     H37505   9.915   3.260   2.127 -5.4141  2.8096 -1.9189
  278MOL0     H37506   9.892   2.963   2.065  1.6820 -1.4444  0.9810
  278MOL0     H37507  10.052   3.047   2.109  1.3993  2.7019 -2.6425
  278MOL0     H37508  10.006   3.016   1.856 -0.4573 -0.5452  0.2969
  278MOL0     H37509   9.877   3.129   1.882 -0.6931  1.4537  1.0161
  278MOL0     H37510   8.999   3.266   2.380  3.1323 -2.2447  3.0445
  278MOL0     H37511   8.761   3.199   2.331 -0.2732 -0.5734 -1.3376
  278MOL0     H37512   8.520   2.821   2.214  1.8710  1.8004 -1.6414
  278MOL0     H37513   8.295   2.691   2.169 -1.1334  0.5690  1.3624
  278MOL0     H37514   6.613   2.017   2.028 -0.1154 -0.3958 -0.1280
  278MOL0     H37515   6.367   1.982   2.012 -4.3376 -0.3108 -1.5317
  278MOL0     H37516   6.025   2.029   1.749 -0.9916 -2.1088  2.6571
  278MOL0     H37517   5.798   2.061   1.680  4.1171  1.6719 -1.6748
  278MOL0     H37518   5.519   2.014   1.478 -0.3731 -0.1243  0.9838
  278MOL0     H37519   5.607   2.047   1.617 -1.4011  1.5993 -1.6388
  278MOL0     H37520   5.501   1.861   1.736 -2.3213  3.3773  1.9212
  278MOL0     H37521   5.416   1.807   1.588 -0.1055  0.7001  0.2684
  278MOL0     H37522   5.332   2.059   1.580  0.3772 -4.4718 -3.5993
  278MOL0     H37523   5.361   2.051   1.763 -4.1553  2.8131  0.5279
  278MOL0     H37524   5.123   2.008   1.688  0.0463  0.2083 -1.5259
  278MOL0     H37525   5.195   1.861   1.615 -0.2692  0.6401 -0.9284
  278MOL0     H37526   5.228   1.738   2.016  1.8775  1.1743 -0.0563
  278MOL0     H37527   5.797   1.686   1.480 -1.3070  0.1054  0.8974
  278MOL0     H37528   6.115   1.577   1.519  2.0261 -1.0492  2.1887
  278MOL0     H37529   6.054   1.535   1.673 -0.4878  0.8176 -0.6596
  278MOL0     H37530   5.952   1.512   1.532  0.8454 -1.2538 -1.9327
  279MOL0     O37531   1.864   7.285   1.334  0.8829 -0.1478  0.7518
  279MOL0     C37532   1.853   7.237   1.451 -0.2605 -0.1600  0.1797
  279MOL0     O37533   1.951   7.239   1.549 -0.0917  1.0208  0.3267
  279MOL0     C37534   2.071   7.302   1.522 -0.2400  0.6920 -0.0047
  279MOL0     C37535   2.105   7.417   1.589 -0.9980  0.4084 -0.1433
  279MOL0     C37536   2.225   7.488   1.551  0.5305 -0.1195 -0.5596
  279MOL0     C37537   2.296   7.455   1.432 -0.2590  0.4934 -0.1972
  279MOL0     O37538   2.416   7.508   1.400  0.2723  0.5127 -0.1651
  279MOL0     C37539   2.495   7.559   1.505  1.3070 -0.8674  0.3952
  279MOL0     C37540   2.561   7.448   1.589 -0.8054 -0.5030 -0.1359
  279MOL0     C37541   2.703   7.481   1.635 -0.4003  0.0565  0.1603
  279MOL0     C37542   2.763   7.371   1.731  0.2118 -0.4054  0.3775
  279MOL0     C37543   2.900   7.407   1.790 -0.1350  0.2728  0.4651
  279MOL0     C37544   2.981   7.293   1.856 -0.2968 -0.2239 -0.0772
  279MOL0     C37545   3.070   7.235   1.749 -0.5050  0.0499  0.2317
  279MOL0     C37546   3.165   7.132   1.809 -0.3390  0.0724 -0.0972
  279MOL0     N37547   3.258   7.075   1.713  0.1513 -0.2558  0.1171
  279MOL0     C37548   3.352   7.148   1.641 -0.3197  0.3457  0.4908
  279MOL0     C37549   3.425   7.057   1.581  0.7759 -0.4381  0.4327
  279MOL0     C37550   3.532   7.091   1.481 -0.5916 -0.3570  0.1026
  279MOL0     C37551   3.602   6.960   1.440  0.2064 -0.5789  0.4319
  279MOL0     C37552   3.706   6.982   1.330  0.3228  0.2221 -0.7326
  279MOL0     C37553   3.821   7.080   1.358 -0.5032 -0.4890  0.1249
  279MOL0     O37554   3.922   7.046   1.268  0.1695  0.5238 -0.0823
  279MOL0     C37555   4.036   7.028   1.331  0.0418  0.2970 -0.0471
  279MOL0     C37556   4.082   6.907   1.382  1.0423  0.1080 -0.3709
  279MOL0     C37557   4.220   6.899   1.416  0.2308 -0.5677  0.2450
  279MOL0     C37558   4.304   7.018   1.421  0.7252  0.7170  0.3360
  279MOL0     C37559   4.448   7.011   1.471  0.2690 -0.3079 -0.4045
  279MOL0     O37560   4.532   7.125   1.472 -0.1170 -0.0700  0.5468
  279MOL0     C37561   4.669   7.124   1.471 -0.2402 -0.2571 -0.3638
  279MOL0     C37562   4.755   7.012   1.451 -0.0675 -0.3650 -0.8110
  279MOL0     C37563   4.898   7.043   1.438  1.0922  0.8699 -0.4047
  279MOL0     C37564   4.954   7.171   1.442 -1.2507 -0.2157  0.9747
  279MOL0     O37565   5.088   7.203   1.445  0.7162  0.8119 -0.2824
  279MOL0     C37566   5.176   7.094   1.446  0.5066 -0.1083  0.8092
  279MOL0     C37567   5.330   7.135   1.429  0.2225 -0.7999  0.3164
  279MOL0     C37568   5.371   7.262   1.501  0.7083 -0.4131 -0.3433
  279MOL0     C37569   5.520   7.285   1.517  0.2182 -0.1638  0.6746
  279MOL0     C37570   5.562   7.409   1.603 -0.2611 -0.0533 -0.1410
  279MOL0     C37571   5.715   7.440   1.588 -0.1798  0.7970  0.1899
  279MOL0     C37572   5.766   7.559   1.671  0.0817  0.3230  0.5038
  279MOL0     C37573   5.901   7.599   1.618  0.5162  0.1965 -0.7986
  279MOL0    Cl37574   5.994   7.667   1.751 -0.0269 -0.1239 -0.2148
  279MOL0     C37575   4.866   7.272   1.465 -0.0991  0.0586 -0.5595
  279MOL0     C37576   4.727   7.248   1.487 -0.2897  0.1657 -0.0831
  279MOL0     O37577   4.491   6.891   1.489 -0.1455  0.1697 -0.1938
  279MOL0     C37578   4.248   7.136   1.373 -0.1351  0.0351  0.2449
  279MOL0     C37579   4.121   7.137   1.324 -0.1803 -0.7172  1.2834
  279MOL0     N37580   3.377   6.930   1.609  0.3790 -0.1521  0.5938
  279MOL0     N37581   3.276   6.938   1.690 -0.8409 -0.7964  0.5046
  279MOL0     C37582   2.260   7.333   1.365 -0.0800  0.2963  0.6390
  279MOL0     C37583   2.153   7.260   1.421  0.8942  0.7619  0.5410
  279MOL0     C37584   1.724   7.170   1.485 -0.0812 -0.0029  0.4457
  279MOL0     C37585   1.718   7.055   1.566 -1.4040  0.2905 -0.7507
  279MOL0     C37586   1.599   6.976   1.581 -0.8521 -0.1703 -0.1975
  279MOL0     C37587   1.485   7.008   1.516 -0.4492  0.2887 -0.4809
  279MOL0     O37588   1.385   6.918   1.548 -0.1950  0.1843 -0.3737
  279MOL0     C37589   1.255   6.932   1.479  0.1332 -0.3309  0.2603
  279MOL0     C37590   1.139   6.848   1.540 -0.5501  0.5081 -0.4842
  279MOL0     C37591   1.169   6.696   1.552  0.1018  0.0541  0.0625
  279MOL0     C37592   1.219   6.630   1.422 -0.2920 -0.0002 -0.0071
  279MOL0     C37593   1.210   6.484   1.437  0.0765 -0.1731  0.0632
  279MOL0     C37594   1.197   6.362   1.438  0.6243 -0.3989  0.0202
  279MOL0     C37595   1.481   7.128   1.443  0.5852 -0.3343 -0.2823
  279MOL0     C37596   1.598   7.210   1.425 -0.1101 -0.3011 -0.8561
  279MOL0     C37597   1.589   7.345   1.349 -0.0133  0.3698  0.0850
  279MOL0     H37598   2.046   7.451   1.674  2.8902  0.2006  2.9110
  279MOL0     H37599   2.245   7.586   1.593  2.6917 -0.9911  0.5898
  279MOL0     H37600   2.568   7.629   1.462  1.8762 -0.4445  1.9810
  279MOL0     H37601   2.444   7.636   1.564  0.7966  1.6064 -2.9531
  279MOL0     H37602   2.580   7.365   1.520 -0.6247 -0.9697  0.4654
  279MOL0     H37603   2.504   7.417   1.677  0.3751 -3.4208 -0.2950
  279MOL0     H37604   2.702   7.564   1.706  2.8362  0.1521  0.2701
  279MOL0     H37605   2.764   7.496   1.545 -0.2883  0.6766  0.3345
  279MOL0     H37606   2.686   7.350   1.806  0.7595  0.8455  1.3316
  279MOL0     H37607   2.779   7.279   1.674  0.7514 -0.1667  0.1393
  279MOL0     H37608   2.958   7.460   1.713 -1.9453  0.6277 -0.7089
  279MOL0     H37609   2.876   7.477   1.870 -1.1526 -1.8902  2.1638
  279MOL0     H37610   3.037   7.326   1.944 -1.4844  2.2089 -0.1564
  279MOL0     H37611   2.906   7.227   1.902 -3.2639  2.5890 -0.5037
  279MOL0     H37612   3.116   7.322   1.701 -1.3494  0.0620 -0.5856
  279MOL0     H37613   3.010   7.181   1.676 -1.0779  2.7526 -1.4174
  279MOL0     H37614   3.231   7.171   1.887  2.0354 -0.2506 -1.8203
  279MOL0     H37615   3.102   7.064   1.867 -1.6238  1.5605  0.3199
  279MOL0     H37616   3.382   7.252   1.649 -0.9132  0.7147 -1.4792
  279MOL0     H37617   3.492   7.143   1.394  1.5798  0.8012 -0.2614
  279MOL0     H37618   3.599   7.167   1.521  0.5195  1.2073 -4.2933
  279MOL0     H37619   3.647   6.908   1.525  0.0435  0.8256  1.4197
  279MOL0     H37620   3.531   6.885   1.404  1.2850 -0.7689 -1.3841
  279MOL0     H37621   3.648   7.014   1.243 -0.6921 -0.6052 -0.3764
  279MOL0     H37622   3.754   6.885   1.314 -1.0572 -0.4811 -0.7250
  279MOL0     H37623   3.843   7.080   1.465 -2.1898  0.3084  0.5092
  279MOL0     H37624   3.788   7.181   1.335  1.0223  0.3900  1.5837
  279MOL0     H37625   4.026   6.814   1.386  1.2592  0.0115  1.4543
  279MOL0     H37626   4.258   6.801   1.442 -1.5901 -1.4807 -0.3569
  279MOL0     H37627   4.712   6.914   1.431 -2.0127 -0.0287  1.3364
  279MOL0     H37628   4.958   6.957   1.412  0.9486  0.6342  0.0490
  279MOL0     H37629   5.180   7.047   1.545  3.0987 -4.0846 -0.9435
  279MOL0     H37630   5.152   7.015   1.375  3.8314  0.1830 -0.8249
  279MOL0     H37631   5.388   7.053   1.472 -2.4802 -1.7475  2.4801
  279MOL0     H37632   5.348   7.147   1.322 -1.7304 -0.1447  0.0190
  279MOL0     H37633   5.329   7.350   1.451 -0.2429 -0.6837 -0.0263
  279MOL0     H37634   5.334   7.250   1.603  1.5204 -3.2922 -0.3150
  279MOL0     H37635   5.567   7.304   1.420  1.1064  1.1636  1.3265
  279MOL0     H37636   5.560   7.191   1.555 -0.6258 -2.9550 -4.5011
  279MOL0     H37637   5.539   7.391   1.708  1.7265  1.7830  0.6795
  279MOL0     H37638   5.508   7.501   1.580  0.1480  0.3385  0.4392
  279MOL0     H37639   5.775   7.350   1.606  0.2662  1.2872  1.1912
  279MOL0     H37640   5.722   7.466   1.482 -0.2657  1.3846  0.3269
  279MOL0     H37641   5.759   7.524   1.775 -0.2660  2.6649  1.3374
  279MOL0     H37642   5.700   7.647   1.668  1.1449  1.1286  0.2970
  279MOL0     H37643   5.960   7.521   1.570  1.5840 -0.3692  1.3146
  279MOL0     H37644   5.886   7.676   1.541  0.2997  1.4853  0.4872
  279MOL0     H37645   4.903   7.374   1.479 -1.2816  0.3269  0.9904
  279MOL0     H37646   4.655   7.323   1.519 -0.4613 -0.7544  1.8323
  279MOL0     H37647   4.309   7.226   1.377  0.1966 -0.1929  0.2741
  279MOL0     H37648   4.094   7.232   1.278  1.1801 -0.2466  1.3899
  279MOL0     H37649   2.324   7.308   1.281  0.2713  1.3183  0.5937
  279MOL0     H37650   2.134   7.166   1.370  0.8754 -0.2234  2.2801
  279MOL0     H37651   1.811   7.018   1.607 -2.0467 -2.3404 -1.4802
  279MOL0     H37652   1.608   6.886   1.641 -0.6283 -0.9517 -1.3595
  279MOL0     H37653   1.263   6.894   1.377 -1.6316 -2.5612  0.8662
  279MOL0     H37654   1.220   7.036   1.487  1.1550  0.1674 -1.3164
  279MOL0     H37655   1.052   6.862   1.475 -2.1567 -0.0301  1.4612
  279MOL0     H37656   1.109   6.888   1.637  0.1892 -1.0650  0.4403
  279MOL0     H37657   1.084   6.648   1.600  0.1534  0.7686  0.9023
  279MOL0     H37658   1.244   6.684   1.631  0.0018  4.0733  1.0057
  279MOL0     H37659   1.152   6.661   1.342 -0.9601 -1.1442  0.0913
  279MOL0     H37660   1.324   6.652   1.400  0.2209 -1.4401  0.8142
  279MOL0     H37661   1.191   6.256   1.454 -1.0128  0.1053  3.7707
  279MOL0     H37662   1.389   7.169   1.403  0.2072 -0.5161  0.3750
  279MOL0     H37663   1.492   7.388   1.373  0.0639  0.7055 -0.2071
  279MOL0     H37664   1.656   7.422   1.389 -0.5259  0.6944  0.3337
  279MOL0     H37665   1.597   7.332   1.241 -0.3355  0.4252  0.0528
  280MOL0     O37666   2.482   0.306   0.910  0.0609 -0.1972 -0.0536
  280MOL0     C37667   2.425   0.285   1.012  0.5618 -0.7020 -1.0192
  280MOL0     O37668   2.459   0.192   1.100 -0.9728 -0.0644 -0.2062
  280MOL0     C37669   2.587   0.128   1.084  0.2112  0.4714  0.9019
  280MOL0     C37670   2.617   0.050   0.971 -0.4604  0.0445 -0.3923
  280MOL0     C37671   2.735  -0.017   0.975  0.0276  0.3126 -0.2883
  280MOL0     C37672   2.826  -0.007   1.078 -0.7164 -0.1517  0.0603
  280MOL0     O37673   2.947  -0.075   1.073 -1.5205 -0.4639  0.3676
  280MOL0     C37674   3.005  -0.102   1.207 -0.5167  0.4885 -0.3251
  280MOL0     C37675   3.099  -0.222   1.221  1.0040  0.3795 -0.7054
  280MOL0     C37676   3.195  -0.232   1.106 -0.0743 -0.4542  0.2390
  280MOL0     C37677   3.291  -0.352   1.126 -0.7154  0.0303 -0.1297
  280MOL0     C37678   3.429  -0.310   1.187 -0.9427  0.3060  0.1309
  280MOL0     C37679   3.516  -0.433   1.192 -0.7590  0.5298  0.6026
  280MOL0     C37680   3.666  -0.400   1.230  0.2994  0.1047 -0.3176
  280MOL0     C37681   3.738  -0.521   1.285  0.5641  0.2233  0.3012
  280MOL0     N37682   3.867  -0.481   1.351  0.0720 -0.2263 -0.9586
  280MOL0     C37683   3.982  -0.431   1.289  0.2164  0.0901 -0.0164
  280MOL0     C37684   4.061  -0.397   1.393 -0.2717  0.4552 -0.1971
  280MOL0     C37685   4.187  -0.311   1.379  0.0919  0.1303 -0.4762
  280MOL0     C37686   4.162  -0.191   1.308 -1.1415  0.3446 -0.1854
  280MOL0     C37687   4.291  -0.107   1.307  0.6420 -0.4107 -0.2042
  280MOL0     C37688   4.271   0.032   1.243 -1.0741  0.2207  1.2006
  280MOL0     O37689   4.283   0.028   1.094  1.1012  0.0205 -0.1404
  280MOL0     C37690   4.408   0.028   1.029  0.2037 -0.5346  0.0204
  280MOL0     C37691   4.526   0.018   1.109  1.1732  0.1420 -0.3214
  280MOL0     C37692   4.645   0.014   1.040 -0.2579  0.1419 -0.2132
  280MOL0     C37693   4.650   0.033   0.904 -0.1861 -0.5498 -1.2870
  280MOL0     C37694   4.786   0.017   0.832  0.2787 -0.5106  0.0254
  280MOL0     O37695   4.781  -0.010   0.697  0.6768  0.5474 -1.2411
  280MOL0     C37696   4.901  -0.023   0.625 -0.1780 -0.2061 -0.6935
  280MOL0     C37697   5.002  -0.109   0.653 -0.0216  0.4399 -1.0801
  280MOL0     C37698   5.108  -0.120   0.572 -0.5788 -0.1988  0.1168
  280MOL0     C37699   5.130  -0.049   0.454  0.4608 -0.2054  0.4059
  280MOL0     O37700   5.238  -0.055   0.371 -0.0303  0.1627 -0.3558
  280MOL0     C37701   5.244   0.016   0.246 -0.7307 -0.3951  0.5442
  280MOL0     C37702   5.367  -0.019   0.163 -0.2142  0.3829 -0.4254
  280MOL0     C37703   5.488   0.049   0.229  0.4589  0.8588  0.1522
  280MOL0     C37704   5.610   0.004   0.147  0.7044  0.2584  0.0781
  280MOL0     C37705   5.737   0.074   0.216 -0.7769  0.3218  0.9525
  280MOL0     C37706   5.731   0.227   0.212 -0.3322 -1.0081 -1.0954
  280MOL0     C37707   5.875   0.298   0.234 -0.4647 -0.1299 -0.0574
  280MOL0     C37708   5.988   0.249   0.136 -0.1806 -0.4622  0.5107
  280MOL0    Cl37709   6.063   0.404   0.071  0.1645  0.3746  0.0849
  280MOL0     C37710   5.028   0.043   0.430  0.1591 -0.5402 -0.0280
  280MOL0     C37711   4.905   0.055   0.503 -0.7658 -1.0255 -0.6073
  280MOL0     O37712   4.883   0.013   0.903 -0.0645 -0.5631 -0.4378
  280MOL0     C37713   4.532   0.038   0.828 -0.9424 -0.3521 -0.2258
  280MOL0     C37714   4.414   0.037   0.891 -0.1837 -0.1595 -0.0206
  280MOL0     N37715   3.998  -0.419   1.513  0.2723 -1.5435 -0.7084
  280MOL0     N37716   3.883  -0.468   1.487  0.2147 -0.2461  0.2290
  280MOL0     C37717   2.786   0.065   1.193  0.2929 -0.2038 -0.2279
  280MOL0     C37718   2.662   0.134   1.195 -0.4069 -0.5041 -0.5119
  280MOL0     C37719   2.293   0.355   1.035 -0.8005  0.4680  0.5255
  280MOL0     C37720   2.260   0.377   1.163  0.3301  0.0923 -0.0436
  280MOL0     C37721   2.132   0.434   1.192  0.1017 -0.4430 -0.1416
  280MOL0     C37722   2.047   0.469   1.082 -0.5010 -0.7737  1.1146
  280MOL0     O37723   1.924   0.517   1.123  0.2864  0.8118 -0.1734
  280MOL0     C37724   1.862   0.599   1.027  0.9437  0.9928  1.0662
  280MOL0     C37725   1.776   0.696   1.115  0.0274 -0.1657  0.8039
  280MOL0     C37726   1.653   0.734   1.027  0.7671  0.3652  0.5243
  280MOL0     C37727   1.565   0.841   1.094  0.1654 -0.3726  0.1588
  280MOL0     C37728   1.633   0.972   1.100 -1.2963  0.0147 -0.6268
  280MOL0     C37729   1.687   1.078   1.096  0.7341  0.0475  0.6929
  280MOL0     C37730   2.081   0.444   0.954  0.9472  0.8775  1.0746
  280MOL0     C37731   2.206   0.384   0.923  1.1682 -0.1551 -0.5005
  280MOL0     C37732   2.240   0.354   0.779 -0.5998  0.0341 -0.4149
  280MOL0     H37733   2.538   0.047   0.896 -0.1860 -1.0506 -0.6590
  280MOL0     H37734   2.749  -0.077   0.886  0.9730  0.8998 -0.5547
  280MOL0     H37735   3.067  -0.018   1.240  0.3861  0.3808 -1.6831
  280MOL0     H37736   2.930  -0.109   1.286 -0.7901  0.1729 -0.6077
  280MOL0     H37737   3.046  -0.317   1.230  1.5157  0.2653  1.7759
  280MOL0     H37738   3.157  -0.201   1.311 -0.6010  2.3673 -0.0642
  280MOL0     H37739   3.241  -0.133   1.096 -0.4248 -0.1406  1.5505
  280MOL0     H37740   3.135  -0.258   1.018  2.4970 -2.3080 -1.0968
  280MOL0     H37741   3.240  -0.423   1.192  2.6981 -0.6485  2.0479
  280MOL0     H37742   3.303  -0.398   1.027  1.0228  0.6059 -0.2286
  280MOL0     H37743   3.476  -0.238   1.120 -0.2805  0.9886  1.2885
  280MOL0     H37744   3.416  -0.265   1.286  2.9247 -4.4369  3.3252
  280MOL0     H37745   3.461  -0.491   1.266 -1.5957  0.5133 -0.0209
  280MOL0     H37746   3.515  -0.476   1.091  1.1920  1.6800  0.0351
  280MOL0     H37747   3.661  -0.320   1.305  2.0410 -1.5045  1.6129
  280MOL0     H37748   3.714  -0.362   1.139 -2.8114  0.3162 -2.0161
  280MOL0     H37749   3.670  -0.580   1.346 -1.5428  0.6833 -1.4817
  280MOL0     H37750   3.769  -0.588   1.203 -1.3460 -1.0589  0.5537
  280MOL0     H37751   3.999  -0.412   1.184 -2.8263  0.8347 -0.4762
  280MOL0     H37752   4.219  -0.294   1.482 -1.1728  1.3412 -0.2565
  280MOL0     H37753   4.269  -0.366   1.332  0.4888  0.4943 -0.2058
  280MOL0     H37754   4.135  -0.207   1.203  0.5224  0.5934 -0.6825
  280MOL0     H37755   4.090  -0.130   1.364  1.4743  2.0085  1.6128
  280MOL0     H37756   4.374  -0.151   1.249  0.9270 -0.4519  0.2310
  280MOL0     H37757   4.316  -0.091   1.412 -1.8375  1.8125  0.1245
  280MOL0     H37758   4.348   0.099   1.282  0.4166 -0.4313 -0.5021
  280MOL0     H37759   4.178   0.083   1.272 -0.9991  0.2970  1.3067
  280MOL0     H37760   4.524   0.005   1.217  1.8761 -2.4239 -0.5451
  280MOL0     H37761   4.743   0.008   1.086 -0.0743  0.1917 -0.5921
  280MOL0     H37762   4.990  -0.161   0.747  0.7425  0.5041 -0.9404
  280MOL0     H37763   5.192  -0.185   0.592  0.6012  1.7278  1.7223
  280MOL0     H37764   5.165  -0.006   0.173  0.7710  0.4439 -1.4458
  280MOL0     H37765   5.244   0.123   0.268 -0.5310 -0.1223 -0.6624
  280MOL0     H37766   5.373  -0.128   0.166  0.2467  0.4168 -0.1126
  280MOL0     H37767   5.361   0.012   0.058  0.0359  0.6394 -0.3653
  280MOL0     H37768   5.477   0.158   0.228  2.6488  1.1347 -1.9262
  280MOL0     H37769   5.490   0.003   0.329  1.4055  1.5880  0.4820
  280MOL0     H37770   5.594   0.044   0.046  3.2386 -1.1052 -0.9574
  280MOL0     H37771   5.620  -0.104   0.132 -1.0562  0.0463  0.2895
  280MOL0     H37772   5.825   0.051   0.155 -1.3264  0.7857 -0.0360
  280MOL0     H37773   5.753   0.036   0.317  0.6844  4.7881  2.6104
  280MOL0     H37774   5.687   0.273   0.123 -1.1898 -1.5123 -0.9408
  280MOL0     H37775   5.659   0.256   0.289  1.1792 -1.6207  0.6467
  280MOL0     H37776   5.899   0.285   0.340 -2.6980  2.1124  0.8122
  280MOL0     H37777   5.866   0.406   0.227  2.1170  0.1621  0.3605
  280MOL0     H37778   6.063   0.191   0.189  2.4927  0.6423 -1.8127
  280MOL0     H37779   5.945   0.187   0.058  2.2263 -1.4485 -0.1076
  280MOL0     H37780   5.038   0.122   0.356  0.1490 -1.8924 -1.5407
  280MOL0     H37781   4.833   0.134   0.486  1.0809  0.7548 -0.5107
  280MOL0     H37782   4.533   0.033   0.720  1.2640 -3.6362 -0.1685
  280MOL0     H37783   4.326   0.043   0.827  0.3831 -0.2562 -0.8183
  280MOL0     H37784   2.850   0.077   1.280  2.4035  1.5717 -1.9080
  280MOL0     H37785   2.620   0.193   1.275  0.2121  1.3302 -1.4811
  280MOL0     H37786   2.308   0.360   1.259  0.6636 -0.4109 -0.2962
  280MOL0     H37787   2.101   0.459   1.293  0.1437  1.8335 -0.6502
  280MOL0     H37788   1.801   0.538   0.959  1.9528  1.9740 -0.8202
  280MOL0     H37789   1.933   0.652   0.963  0.8270  1.2286  1.1300
  280MOL0     H37790   1.852   0.774   1.132  1.6239 -0.9946 -1.8850
  280MOL0     H37791   1.754   0.662   1.217 -0.7782 -1.8553  0.0871
  280MOL0     H37792   1.592   0.646   1.004 -0.8661  1.4647  0.3961
  280MOL0     H37793   1.696   0.772   0.935  2.1403 -0.9373  0.5954
  280MOL0     H37794   1.475   0.870   1.038  1.3762  0.2531 -1.5623
  280MOL0     H37795   1.540   0.823   1.199 -1.0501  0.4055  0.0199
  280MOL0     H37796   1.727   1.177   1.079  0.8720 -0.2124 -0.6147
  280MOL0     H37797   2.009   0.468   0.877 -1.5161 -0.2606  2.8871
  280MOL0     H37798   2.251   0.246   0.764  1.0636  0.3932 -2.2812
  280MOL0     H37799   2.165   0.386   0.706  0.4391  3.1861 -0.2706
  280MOL0     H37800   2.329   0.409   0.744 -1.4399  0.4363 -2.0255
  281MOL0     O37801   2.886   7.034  11.263 -0.0769 -0.4557  0.3762
  281MOL0     C37802   2.938   6.930  11.294  1.2521  0.2673 -0.8524
  281MOL0     O37803   3.069   6.887  11.283 -0.1441  0.2028  0.2819
  281MOL0     C37804   3.154   6.990  11.238  0.2233  0.0913  0.3817
  281MOL0     C37805   3.135   7.064  11.120  0.0215 -0.1970  0.0804
  281MOL0     C37806   3.236   7.149  11.069 -1.0676 -0.5235 -0.1783
  281MOL0     C37807   3.356   7.175  11.142 -0.0424  0.3366  0.2909
  281MOL0     O37808   3.461   7.239  11.091 -1.1073 -0.0346  0.4349
  281MOL0     C37809   3.444   7.330  10.986 -0.2881  0.0503  0.0655
  281MOL0     C37810   3.552   7.428  10.980 -0.5659 -0.7256 -0.1143
  281MOL0     C37811   3.700   7.378  10.982  0.5220  0.6772 -0.5841
  281MOL0     C37812   3.803   7.481  10.920  0.3606  0.1365  0.1130
  281MOL0     C37813   3.947   7.442  10.925 -0.1630  0.4257  0.2905
  281MOL0     C37814   4.046   7.533  10.849 -0.6079 -0.3202  0.3160
  281MOL0     C37815   4.183   7.469  10.843 -0.3190  0.0313  0.7580
  281MOL0     C37816   4.243   7.445  10.973 -1.0019 -0.3759  0.5232
  281MOL0     N37817   4.386   7.401  10.966 -0.0268 -0.6487  0.1385
  281MOL0     C37818   4.500   7.472  10.942 -0.7434  0.6052 -0.0452
  281MOL0     C37819   4.597   7.371  10.931  0.3915 -0.1360 -0.2129
  281MOL0     C37820   4.742   7.386  10.909  0.7668  0.0121  0.2116
  281MOL0     C37821   4.788   7.536  10.931 -0.8269 -0.3684 -0.1078
  281MOL0     C37822   4.936   7.561  10.901 -0.2751 -0.2131 -0.4911
  281MOL0     C37823   5.024   7.457  10.963  0.1893  0.3202 -0.5529
  281MOL0     O37824   5.149   7.521  10.984 -0.0092 -0.2033  0.5252
  281MOL0     C37825   5.244   7.551  10.888  0.0691 -1.3260  0.1701
  281MOL0     C37826   5.369   7.599  10.923 -1.3184  0.1263  0.7061
  281MOL0     C37827   5.467   7.633  10.826 -0.4570  0.8249 -0.5980
  281MOL0     C37828   5.448   7.601  10.692  0.3724 -0.9851  0.4358
  281MOL0     C37829   5.567   7.608  10.602 -0.0031 -0.2647 -0.1891
  281MOL0     O37830   5.680   7.671  10.661 -0.2759  0.1783  0.3587
  281MOL0     C37831   5.785   7.709  10.580 -0.0018  0.5006 -0.2401
  281MOL0     C37832   5.903   7.694  10.640 -0.6623 -1.1196 -0.2573
  281MOL0     C37833   6.022   7.727  10.569 -0.9937  0.0784 -0.2318
  281MOL0     C37834   6.034   7.777  10.443  0.2117  0.5433  0.2967
  281MOL0     O37835   6.149   7.805  10.379  0.2733  0.3610  0.3384
  281MOL0     C37836   6.132   7.892  10.264 -0.2006 -0.3162 -1.1561
  281MOL0     C37837   6.274   7.939  10.229 -0.6928 -0.5325  0.0675
  281MOL0     C37838   6.282   8.027  10.103  0.0691 -0.6347  0.1243
  281MOL0     C37839   6.426   8.069  10.070  0.4274  0.9225 -0.4872
  281MOL0     C37840   6.422   8.152   9.941 -0.9249  0.1388 -1.0435
  281MOL0     C37841   6.551   8.228   9.934 -0.2186  0.4331  0.8550
  281MOL0     C37842   6.536   8.334   9.821 -0.6458 -0.1210  0.6101
  281MOL0     C37843   6.681   8.371   9.779  0.4349  0.7535 -0.0832
  281MOL0    Cl37844   6.680   8.522   9.693  0.4140  0.4211  0.3226
  281MOL0     C37845   5.900   7.787  10.381  0.3347  0.5719 -0.0005
  281MOL0     C37846   5.781   7.759  10.451  0.2898 -0.2913  0.1091
  281MOL0     O37847   5.556   7.560  10.489  0.3078 -0.1476  0.6226
  281MOL0     C37848   5.318   7.568  10.650  0.0091  0.0055  0.3587
  281MOL0     C37849   5.217   7.533  10.750  0.0269 -0.1253 -0.7209
  281MOL0     N37850   4.541   7.247  10.962 -0.3608  0.0343 -0.0101
  281MOL0     N37851   4.418   7.269  10.985  0.0828 -0.6751  0.1058
  281MOL0     C37852   3.367   7.104  11.266  0.2535 -0.2061  0.3936
  281MOL0     C37853   3.268   7.015  11.314  0.5800 -0.6890  0.0181
  281MOL0     C37854   2.849   6.826  11.354  0.1590  0.6005 -0.0019
  281MOL0     C37855   2.890   6.689  11.338 -0.4095 -0.3496 -0.6143
  281MOL0     C37856   2.811   6.579  11.385  0.0494 -0.0285 -0.4789
  281MOL0     C37857   2.681   6.608  11.433  0.3724 -0.0412  0.6414
  281MOL0     O37858   2.595   6.500  11.443  0.1322  0.7820  0.0581
  281MOL0     C37859   2.466   6.528  11.500 -0.2718  0.5723 -0.3096
  281MOL0     C37860   2.386   6.398  11.482  0.5402  0.4661  0.0854
  281MOL0     C37861   2.371   6.349  11.332  1.2376 -0.8612 -0.5450
  281MOL0     C37862   2.274   6.235  11.319  0.6099 -1.7030  0.5268
  281MOL0     C37863   2.326   6.102  11.373 -0.6101 -0.2396  0.1387
  281MOL0     C37864   2.361   5.989  11.400 -0.0605  0.5285 -0.3566
  281MOL0     C37865   2.641   6.742  11.444  0.1026 -0.0505 -0.4665
  281MOL0     C37866   2.722   6.849  11.410  0.0330  0.2018 -0.3942
  281MOL0     C37867   2.664   6.990  11.442  0.2933 -0.0981  0.3918
  281MOL0     H37868   3.035   7.061  11.078  0.2899 -0.0050 -0.5816
  281MOL0     H37869   3.226   7.198  10.973  0.2568 -0.1849 -0.1611
  281MOL0     H37870   3.429   7.267  10.898 -3.2153  0.0191  0.5044
  281MOL0     H37871   3.350   7.385  10.991  0.7942  1.9323  0.6617
  281MOL0     H37872   3.533   7.490  11.068  0.2760  0.0572 -0.4701
  281MOL0     H37873   3.541   7.493  10.892  1.7899 -1.1967 -0.8337
  281MOL0     H37874   3.705   7.285  10.926  3.2184  0.4344 -0.0534
  281MOL0     H37875   3.729   7.350  11.083  0.0611 -0.2269 -0.6897
  281MOL0     H37876   3.776   7.496  10.815 -0.3242 -2.3982 -0.1408
  281MOL0     H37877   3.796   7.576  10.974  3.3886  0.4894  0.0869
  281MOL0     H37878   3.985   7.411  11.023  0.6937 -0.2934 -0.2510
  281MOL0     H37879   3.937   7.355  10.859 -1.4263  0.3485  0.5551
  281MOL0     H37880   4.011   7.550  10.747  2.7694 -4.4713 -1.8674
  281MOL0     H37881   4.063   7.625  10.906  2.1284 -0.4370 -0.1644
  281MOL0     H37882   4.242   7.529  10.772 -2.0575 -0.3559 -1.1010
  281MOL0     H37883   4.174   7.375  10.787  3.2011  1.3580 -2.5437
  281MOL0     H37884   4.220   7.533  11.033  0.9650 -0.7364  1.8850
  281MOL0     H37885   4.197   7.353  11.010  2.2754 -1.1551  3.1856
  281MOL0     H37886   4.511   7.580  10.941  0.0876  0.5698 -2.8218
  281MOL0     H37887   4.799   7.308  10.960 -0.4128 -0.8219  0.2747
  281MOL0     H37888   4.762   7.362  10.804 -2.2099 -0.7975 -0.2642
  281MOL0     H37889   4.723   7.603  10.874 -0.1156 -1.4636 -2.3118
  281MOL0     H37890   4.763   7.560  11.035  0.1801 -2.4870  0.6825
  281MOL0     H37891   4.956   7.660  10.945 -4.0221 -0.1785  1.5681
  281MOL0     H37892   4.950   7.569  10.793 -0.4849  1.1442 -0.4413
  281MOL0     H37893   5.031   7.359  10.916  0.1754 -0.5050  1.0881
  281MOL0     H37894   4.987   7.438  11.064 -0.9920  3.2534 -0.3404
  281MOL0     H37895   5.388   7.591  11.030 -1.0126 -0.1259  0.6354
  281MOL0     H37896   5.565   7.661  10.863  0.5083 -0.3572 -2.1784
  281MOL0     H37897   5.904   7.659  10.742  0.2486  0.8415  0.4637
  281MOL0     H37898   6.116   7.708  10.620 -0.4293 -3.1137 -2.1539
  281MOL0     H37899   6.082   7.845  10.178 -2.3348  1.4041 -0.9462
  281MOL0     H37900   6.078   7.982  10.294 -0.4739 -0.7553 -0.3146
  281MOL0     H37901   6.311   7.997  10.314 -1.3578  1.2652 -0.8260
  281MOL0     H37902   6.331   7.848  10.211 -0.3097 -0.0594 -1.2086
  281MOL0     H37903   6.231   7.972  10.023 -0.7580 -1.2838  1.0739
  281MOL0     H37904   6.228   8.115  10.140  2.4417  0.8109  0.3042
  281MOL0     H37905   6.505   7.993  10.065  3.2080  3.5012  0.8430
  281MOL0     H37906   6.456   8.131  10.155  0.5786 -1.2533  1.1343
  281MOL0     H37907   6.334   8.217   9.934 -0.5973  0.5461 -1.4387
  281MOL0     H37908   6.422   8.087   9.854  2.4911  2.1452 -2.7540
  281MOL0     H37909   6.570   8.274  10.032  0.7011 -0.7190  1.2322
  281MOL0     H37910   6.620   8.147   9.910 -0.7537  0.1611  0.2299
  281MOL0     H37911   6.477   8.421   9.851  0.3848  1.6484 -2.0871
  281MOL0     H37912   6.491   8.293   9.731  2.6081 -3.1907  0.1800
  281MOL0     H37913   6.749   8.394   9.861  1.3528 -0.1841 -0.5634
  281MOL0     H37914   6.714   8.284   9.722 -1.7888 -2.0462  2.5664
  281MOL0     H37915   5.874   7.825  10.283 -1.3871 -0.5684 -0.0485
  281MOL0     H37916   5.688   7.779  10.398  0.3401  1.8525  0.7483
  281MOL0     H37917   5.305   7.537  10.547  1.0879 -0.5464  0.3799
  281MOL0     H37918   5.130   7.475  10.720 -1.2205  0.6374  1.2423
  281MOL0     H37919   3.451   7.134  11.328  0.2922  1.3766 -0.4034
  281MOL0     H37920   3.276   6.972  11.413 -0.5370 -1.5216 -0.2283
  281MOL0     H37921   2.984   6.668  11.289 -0.4701  0.7808 -1.2369
  281MOL0     H37922   2.835   6.474  11.376 -0.4525 -0.1137 -0.8636
  281MOL0     H37923   2.406   6.600  11.445 -0.0058 -0.9544 -2.7614
  281MOL0     H37924   2.472   6.545  11.608 -1.3711 -4.9718  0.9550
  281MOL0     H37925   2.290   6.415  11.532  1.4302  2.5656  1.1927
  281MOL0     H37926   2.435   6.320  11.541 -5.0697 -2.4458  1.7016
  281MOL0     H37927   2.470   6.324  11.293  0.6735  0.4911 -3.0648
  281MOL0     H37928   2.321   6.428  11.276 -1.8779 -2.3944 -0.1186
  281MOL0     H37929   2.181   6.245  11.375 -0.3102  1.0435 -1.2926
  281MOL0     H37930   2.244   6.225  11.215 -0.7473  1.7821  0.4700
  281MOL0     H37931   2.406   5.901  11.441 -0.8350  0.9098  1.3830
  281MOL0     H37932   2.544   6.765  11.488  0.6366  1.3712  0.0415
  281MOL0     H37933   2.558   6.995  11.470 -0.3980  0.9584 -2.1224
  281MOL0     H37934   2.710   7.018  11.537 -0.4285  0.7836  0.4938
  281MOL0     H37935   2.680   7.054  11.355  1.8446  0.6374  1.1795
  282MOL0     O37936   5.613  10.661  10.675  0.5299 -0.5513  0.4262
  282MOL0     C37937   5.569  10.551  10.679  0.1568  0.9495 -0.0352
  282MOL0     O37938   5.635  10.436  10.701  0.7448  0.0981 -0.6613
  282MOL0     C37939   5.768  10.439  10.673 -0.2030  0.2366  0.2278
  282MOL0     C37940   5.805  10.428  10.535  0.1991 -0.2097 -0.4994
  282MOL0     C37941   5.942  10.435  10.490  0.4175  0.2276  0.5153
  282MOL0     C37942   6.039  10.469  10.582 -0.5175  1.0171  0.6788
  282MOL0     O37943   6.167  10.458  10.531 -0.7977 -0.6735  0.0077
  282MOL0     C37944   6.270  10.383  10.595  0.4654 -0.2833 -0.0413
  282MOL0     C37945   6.410  10.422  10.545 -0.0221  0.6700 -0.7770
  282MOL0     C37946   6.412  10.388  10.400  0.1033  0.5707  0.3673
  282MOL0     C37947   6.533  10.427  10.314 -0.0056  0.2689  0.1795
  282MOL0     C37948   6.514  10.368  10.170  0.0277 -0.8442  0.5206
  282MOL0     C37949   6.523  10.213  10.163 -0.4760 -0.7982  0.2984
  282MOL0     C37950   6.460  10.157  10.038 -0.0758 -0.4209 -0.5570
  282MOL0     C37951   6.447  10.004  10.023 -0.6051  0.2294  0.3980
  282MOL0     N37952   6.577   9.934  10.003  0.3862 -0.1399 -0.7001
  282MOL0     C37953   6.710   9.977  10.015 -0.0405  0.4843  0.4475
  282MOL0     C37954   6.777   9.864   9.975 -0.5299 -0.0019 -0.0516
  282MOL0     C37955   6.928   9.865   9.935 -0.3950  0.2167  0.2993
  282MOL0     C37956   7.024   9.907  10.052  0.2264 -0.4158 -0.4205
  282MOL0     C37957   7.170   9.934  10.003  0.3622 -0.4227 -0.1730
  282MOL0     C37958   7.186  10.073   9.954  0.2712 -0.1522  0.4201
  282MOL0     O37959   7.325  10.092   9.909  0.1958 -0.2463  0.7880
  282MOL0     C37960   7.359  10.224   9.882 -0.3278 -0.0981  0.3992
  282MOL0     C37961   7.488  10.245   9.842  0.1502  1.3358 -0.1179
  282MOL0     C37962   7.543  10.369   9.819  0.1225  0.3310 -1.1824
  282MOL0     C37963   7.466  10.486   9.823 -0.1810 -0.0067  0.3965
  282MOL0     C37964   7.529  10.617   9.800  1.1710 -0.4074 -0.2218
  282MOL0     O37965   7.449  10.718   9.842  0.0180 -0.7122 -0.2736
  282MOL0     C37966   7.486  10.845   9.854  0.1572 -0.7213 -0.2701
  282MOL0     C37967   7.608  10.899   9.814 -0.8324 -0.9912  0.9073
  282MOL0     C37968   7.641  11.041   9.843  0.1858  1.3978 -1.2769
  282MOL0     C37969   7.541  11.115   9.902 -0.8008  0.1805 -0.2961
  282MOL0     O37970   7.563  11.252   9.914  0.2276  0.3703 -0.0459
  282MOL0     C37971   7.667  11.293  10.002 -0.2806  0.3222  0.4525
  282MOL0     C37972   7.732  11.418   9.946  0.0620 -0.4517  0.1868
  282MOL0     C37973   7.791  11.386   9.812  0.2221 -0.6919 -0.7248
  282MOL0     C37974   7.839  11.512   9.738  0.2615  0.0940 -0.3467
  282MOL0     C37975   7.877  11.478   9.590  0.3045  0.7942 -0.7256
  282MOL0     C37976   7.990  11.375   9.569  0.0038  0.9429 -0.9269
  282MOL0     C37977   8.036  11.382   9.422 -0.0729 -0.6610  0.2294
  282MOL0     C37978   8.122  11.265   9.383  0.4568 -0.6498  0.3247
  282MOL0    Cl37979   8.165  11.286   9.210  0.0769 -0.0079 -0.0576
  282MOL0     C37980   7.413  11.069   9.933  0.6136  0.2042  0.1515
  282MOL0     C37981   7.385  10.930   9.908 -0.1016 -0.1986 -0.3441
  282MOL0     O37982   7.650  10.619   9.766 -0.4214  0.4517  0.5418
  282MOL0     C37983   7.327  10.464   9.868  0.5400  0.2662  0.2325
  282MOL0     C37984   7.276  10.337   9.900 -0.6304 -0.4549  0.0792
  282MOL0     N37985   6.694   9.759   9.960 -0.5294  0.9630 -0.0046
  282MOL0     N37986   6.576   9.799   9.980 -0.2292  0.2318 -0.3687
  282MOL0     C37987   6.004  10.479  10.718 -0.2819  0.0774 -0.3873
  282MOL0     C37988   5.870  10.464  10.761  0.2110 -0.4806 -0.0319
  282MOL0     C37989   5.423  10.540  10.653 -0.1491  0.0649  0.4334
  282MOL0     C37990   5.351  10.455  10.737  0.8272  0.1397  0.0826
  282MOL0     C37991   5.208  10.453  10.728 -0.6862 -0.1664  0.9044
  282MOL0     C37992   5.142  10.528  10.628 -0.2916 -0.6492  0.4425
  282MOL0     O37993   5.005  10.505  10.619 -0.0258  0.0372  1.1578
  282MOL0     C37994   4.916  10.623  10.652 -1.0201  0.1225 -0.7751
  282MOL0     C37995   4.797  10.626  10.557 -1.3960  0.3779 -0.6446
  282MOL0     C37996   4.717  10.492  10.566 -0.5831  0.3208 -0.2789
  282MOL0     C37997   4.569  10.507  10.531 -0.4227  0.1251  0.4275
  282MOL0     C37998   4.524  10.631  10.585  0.4733 -0.3529 -0.4517
  282MOL0     C37999   4.481  10.735  10.630  0.1694  0.0164  0.0247
  282MOL0     C38000   5.220  10.593  10.531  0.6895  0.0353  0.1151
  282MOL0     C38001   5.361  10.603  10.544 -0.2083 -0.2045  0.1979
  282MOL0     C38002   5.421  10.694  10.452  0.0483 -0.3904 -0.6674
  282MOL0     H38003   5.720  10.412  10.470  0.6500  0.7397 -1.3569
  282MOL0     H38004   5.960  10.419  10.385  0.2485 -2.1432  0.7857
  282MOL0     H38005   6.256  10.409  10.700  1.6769  0.5357 -0.0779
  282MOL0     H38006   6.247  10.279  10.569 -1.2655  0.4619 -1.7426
  282MOL0     H38007   6.487  10.358  10.589 -2.7496 -2.1198  0.3774
  282MOL0     H38008   6.413  10.530  10.559 -1.3029  0.8435 -1.6619
  282MOL0     H38009   6.326  10.433  10.348 -1.1408 -1.3132  0.6833
  282MOL0     H38010   6.398  10.280  10.396 -2.5882  0.8539 -0.1068
  282MOL0     H38011   6.530  10.536  10.323 -3.7059  0.1668  2.4798
  282MOL0     H38012   6.632  10.395  10.348  1.0716 -0.7587 -3.4758
  282MOL0     H38013   6.417  10.401  10.132 -0.3609  1.0981  2.9379
  282MOL0     H38014   6.582  10.413  10.097 -0.2478  0.5246  1.0894
  282MOL0     H38015   6.627  10.184  10.179 -0.4981 -0.3342  1.3832
  282MOL0     H38016   6.468  10.161  10.241 -1.5510 -0.0395  0.0634
  282MOL0     H38017   6.506  10.208   9.953 -0.8386  2.0761  0.4441
  282MOL0     H38018   6.356  10.191  10.032  0.4292  1.3517  0.1066
  282MOL0     H38019   6.399   9.952  10.106  1.4996 -0.7549  1.0783
  282MOL0     H38020   6.394   9.996   9.927  0.8189 -0.2967 -0.3804
  282MOL0     H38021   6.753  10.073  10.043  0.8969 -0.5271  2.6858
  282MOL0     H38022   6.966   9.774   9.888  3.2730  2.7334 -2.1637
  282MOL0     H38023   6.933   9.932   9.849 -5.2296  1.4099  0.6580
  282MOL0     H38024   6.984   9.999  10.098  0.4981 -1.4226  1.9751
  282MOL0     H38025   7.019   9.819  10.117  1.1743 -0.4085 -0.3235
  282MOL0     H38026   7.205   9.861   9.930 -1.1396 -1.2801 -0.0725
  282MOL0     H38027   7.234   9.933  10.092  0.0933  1.8563  0.1013
  282MOL0     H38028   7.147  10.137  10.033 -3.1914 -1.4261 -0.0634
  282MOL0     H38029   7.124  10.077   9.864  0.5211 -2.5940  0.0452
  282MOL0     H38030   7.552  10.157   9.840 -0.7514  0.6240  0.9459
  282MOL0     H38031   7.650  10.373   9.805  0.8824 -0.7393  3.0425
  282MOL0     H38032   7.683  10.840   9.764 -0.1785  0.1169  0.5374
  282MOL0     H38033   7.742  11.073   9.821  1.5650 -2.4036 -1.2834
  282MOL0     H38034   7.622  11.311  10.100  0.5124 -2.3111  1.3975
  282MOL0     H38035   7.748  11.220  10.015  1.6143  2.4543  1.1502
  282MOL0     H38036   7.668  11.506   9.950  1.5101  0.5956  2.4446
  282MOL0     H38037   7.821  11.430  10.009  2.7024 -0.3057 -3.2661
  282MOL0     H38038   7.873  11.314   9.823 -0.6218 -1.9189 -2.0679
  282MOL0     H38039   7.715  11.349   9.743 -1.3270 -1.4139  1.2582
  282MOL0     H38040   7.922  11.558   9.793 -0.1663 -0.1854  0.5547
  282MOL0     H38041   7.754  11.580   9.743 -1.2636 -1.8020  1.1223
  282MOL0     H38042   7.895  11.573   9.540 -0.2715 -1.0226 -4.8098
  282MOL0     H38043   7.785  11.440   9.543 -0.5837  0.0349  1.4769
  282MOL0     H38044   8.083  11.390   9.624  0.7810 -3.9619 -0.4563
  282MOL0     H38045   7.941  11.279   9.587  1.1875  0.2681 -1.2221
  282MOL0     H38046   8.084  11.479   9.403  1.7560 -1.1151  2.1547
  282MOL0     H38047   7.946  11.377   9.360  1.9460  1.7020 -3.2526
  282MOL0     H38048   8.211  11.250   9.445  0.7050 -4.4335 -0.7230
  282MOL0     H38049   8.075  11.167   9.381  1.2885 -1.1163  2.1227
  282MOL0     H38050   7.335  11.113   9.993  2.3127  0.5861  2.2196
  282MOL0     H38051   7.290  10.886   9.938  0.3244  0.0421  1.4942
  282MOL0     H38052   7.260  10.550   9.871  0.6297  0.3225  2.6160
  282MOL0     H38053   7.171  10.334   9.926 -1.4054  1.1795 -2.5356
  282MOL0     H38054   6.076  10.507  10.794 -2.4079  3.4351  0.5855
  282MOL0     H38055   5.844  10.480  10.865 -1.3639  0.2943 -0.5214
  282MOL0     H38056   5.400  10.390  10.809  2.0615  0.0390 -0.8193
  282MOL0     H38057   5.160  10.385  10.796  2.8122 -2.4232  1.3581
  282MOL0     H38058   4.981  10.709  10.636  0.2801 -0.6846 -0.0764
  282MOL0     H38059   4.880  10.616  10.755 -0.9390  0.2097 -0.7406
  282MOL0     H38060   4.854  10.630  10.463  0.5082 -2.1701  0.2776
  282MOL0     H38061   4.745  10.719  10.580  1.0654  1.6020  0.3192
  282MOL0     H38062   4.741  10.452  10.665  1.1805 -1.9444 -1.5483
  282MOL0     H38063   4.760  10.425  10.492  3.1820  1.0038  1.0717
  282MOL0     H38064   4.541  10.497  10.426 -0.4448  0.9119  0.3497
  282MOL0     H38065   4.512  10.427  10.579 -0.0243 -1.7629 -2.0217
  282MOL0     H38066   4.458  10.832  10.671  1.5338  0.3553  0.0202
  282MOL0     H38067   5.175  10.638  10.443 -0.4193 -2.8924 -0.9398
  282MOL0     H38068   5.344  10.728  10.381  0.3521  0.8167 -0.4473
  282MOL0     H38069   5.460  10.779  10.509 -1.2591 -0.0618 -0.2080
  282MOL0     H38070   5.487  10.644  10.380 -3.3566 -2.2665 -2.7846
  283MOL0     O38071   5.053   7.150   2.734  0.0188  0.1394 -0.3789
  283MOL0     C38072   5.141   7.078   2.784  0.7699  0.3777 -0.8587
  283MOL0     O38073   5.249   7.135   2.843 -0.7813  0.2486  0.3537
  283MOL0     C38074   5.339   7.060   2.913 -0.5979  0.3371  0.4684
  283MOL0     C38075   5.320   7.022   3.045 -0.4788  0.7435  0.7710
  283MOL0     C38076   5.418   6.946   3.110  0.1549  0.6615  0.2822
  283MOL0     C38077   5.527   6.895   3.037 -0.0316  0.4216 -0.1259
  283MOL0     O38078   5.600   6.793   3.100  0.4840 -0.3678  1.1155
  283MOL0     C38079   5.719   6.744   3.037 -0.1084  0.4031 -0.1532
  283MOL0     C38080   5.840   6.808   3.115  0.9454 -0.5319  0.0744
  283MOL0     C38081   5.932   6.862   2.999  0.0365  0.0733  0.5702
  283MOL0     C38082   6.072   6.902   3.056  0.6422  0.0739 -0.7534
  283MOL0     C38083   6.168   6.953   2.945 -0.1940 -0.1595  0.4129
  283MOL0     C38084   6.307   7.000   2.994 -0.9252  0.4766  0.7288
  283MOL0     C38085   6.380   6.904   3.089  0.3945 -0.6660 -0.1827
  283MOL0     C38086   6.511   6.960   3.146 -0.1708  0.0644 -0.8007
  283MOL0     N38087   6.610   7.015   3.046  0.6817  0.4864 -0.6855
  283MOL0     C38088   6.679   6.951   2.946  0.2138 -0.0651  0.6445
  283MOL0     C38089   6.763   7.047   2.899 -0.7269  0.0918  0.2425
  283MOL0     C38090   6.884   7.038   2.806  0.0542 -0.1368  0.2444
  283MOL0     C38091   6.989   6.948   2.861 -0.1569  0.6549  0.3487
  283MOL0     C38092   7.037   6.993   3.000 -0.5165  0.3110  0.1997
  283MOL0     C38093   7.183   6.946   3.023  1.3018  0.0633  0.2483
  283MOL0     O38094   7.264   7.024   2.934  0.0361 -0.6367  0.2920
  283MOL0     C38095   7.401   7.002   2.941  0.5107  0.4770 -1.0816
  283MOL0     C38096   7.459   6.937   2.833 -0.4831 -0.0759 -0.1407
  283MOL0     C38097   7.596   6.919   2.825 -0.1741 -0.0440 -0.3616
  283MOL0     C38098   7.677   6.965   2.934 -0.2889  0.6473 -0.1537
  283MOL0     C38099   7.827   6.966   2.919 -0.0213  0.3640 -0.0556
  283MOL0     O38100   7.867   6.926   2.789 -0.4909  0.1064 -0.5454
  283MOL0     C38101   8.006   6.920   2.756 -1.1137  0.3993 -0.7822
  283MOL0     C38102   8.053   6.810   2.689  0.0512 -0.3890  0.5242
  283MOL0     C38103   8.181   6.812   2.633  0.5964  0.9876  0.1727
  283MOL0     C38104   8.258   6.922   2.645 -0.4928  0.4508  0.2379
  283MOL0     O38105   8.377   6.925   2.585  0.4763 -0.1037  0.0211
  283MOL0     C38106   8.463   6.804   2.581 -0.3050 -0.7544  0.8010
  283MOL0     C38107   8.555   6.794   2.704 -0.9080  0.1576 -0.4083
  283MOL0     C38108   8.665   6.685   2.688  0.4017 -0.2225 -1.1804
  283MOL0     C38109   8.714   6.636   2.825  0.0654 -0.3416 -0.5107
  283MOL0     C38110   8.809   6.738   2.890 -0.0691 -0.5885 -0.4045
  283MOL0     C38111   8.829   6.696   3.040 -0.2766 -0.2958  0.5961
  283MOL0     C38112   8.937   6.780   3.112 -0.5098  0.6151  0.6739
  283MOL0     C38113   8.946   6.733   3.259 -0.1305  0.1485  0.2022
  283MOL0    Cl38114   8.989   6.559   3.268  0.3100 -0.4765  0.0335
  283MOL0     C38115   8.210   7.036   2.710 -0.2475  0.2412 -0.2744
  283MOL0     C38116   8.085   7.036   2.768  0.0502 -0.1780 -0.7072
  283MOL0     O38117   7.900   6.996   3.015  0.6262  0.1940 -0.1901
  283MOL0     C38118   7.615   7.008   3.051 -0.2517  0.4916 -0.2888
  283MOL0     C38119   7.481   7.029   3.058  0.1410  0.3280  0.7628
  283MOL0     N38120   6.738   7.165   2.963  0.0021  0.1327 -0.2557
  283MOL0     N38121   6.639   7.147   3.042  0.6262 -0.1368  0.0194
  283MOL0     C38122   5.550   6.936   2.902  0.8249 -0.2349 -0.2611
  283MOL0     C38123   5.459   7.022   2.850 -0.2449  0.1838  0.2516
  283MOL0     C38124   5.114   6.931   2.774  0.4118 -0.1774  0.3106
  283MOL0     C38125   5.197   6.862   2.684 -1.1989 -0.2200  0.8474
  283MOL0     C38126   5.160   6.736   2.629 -0.7306 -1.1204 -0.4355
  283MOL0     C38127   5.034   6.682   2.655 -0.0979  0.0638  0.2403
  283MOL0     O38128   5.001   6.570   2.587 -0.2489 -1.0002  0.3252
  283MOL0     C38129   4.872   6.510   2.594 -0.8111 -0.1095  0.4621
  283MOL0     C38130   4.859   6.409   2.703  0.6456  0.7301 -0.3985
  283MOL0     C38131   4.720   6.369   2.744  0.5546  1.2578  0.3381
  283MOL0     C38132   4.695   6.220   2.758  0.8455 -0.1675  0.0914
  283MOL0     C38133   4.688   6.149   2.626 -0.5197 -0.9722  0.5509
  283MOL0     C38134   4.687   6.106   2.513 -0.2611 -0.1420  0.5639
  283MOL0     C38135   4.942   6.750   2.736 -0.2397  0.6003  0.3932
  283MOL0     C38136   4.987   6.874   2.789 -0.2685 -0.5039 -0.8378
  283MOL0     C38137   4.896   6.949   2.889 -0.0455 -0.0736 -0.7740
  283MOL0     H38138   5.220   7.039   3.083 -1.4444 -0.5008 -1.0480
  283MOL0     H38139   5.404   6.908   3.211  0.9554 -0.0837  0.1218
  283MOL0     H38140   5.728   6.638   3.062  1.0441  0.4659 -0.2343
  283MOL0     H38141   5.722   6.746   2.928 -2.0192 -2.9190 -0.3926
  283MOL0     H38142   5.901   6.726   3.153  0.9132 -0.0641  1.1685
  283MOL0     H38143   5.812   6.891   3.181  0.8377  0.2131 -0.8940
  283MOL0     H38144   5.883   6.946   2.949  1.7762  0.0684 -1.2583
  283MOL0     H38145   5.942   6.782   2.925 -3.9076 -0.2743  0.2127
  283MOL0     H38146   6.063   6.986   3.125  1.1690  0.3452 -1.0101
  283MOL0     H38147   6.113   6.813   3.105 -0.0693 -1.0412 -2.1098
  283MOL0     H38148   6.184   6.874   2.871 -1.1218 -1.4524  1.5648
  283MOL0     H38149   6.121   7.033   2.887  3.4666 -0.4550 -3.4741
  283MOL0     H38150   6.370   7.019   2.907  0.1766  0.8396  1.5665
  283MOL0     H38151   6.286   7.095   3.044 -2.6185  0.1375  0.6988
  283MOL0     H38152   6.410   6.819   3.027  1.5225  0.4042 -1.1572
  283MOL0     H38153   6.319   6.859   3.169  1.1093 -2.0132 -0.3604
  283MOL0     H38154   6.495   7.044   3.215  0.6380 -0.7398  0.3913
  283MOL0     H38155   6.558   6.877   3.199 -1.2211 -0.9902 -1.4768
  283MOL0     H38156   6.690   6.846   2.921  1.2483  0.0357  0.6388
  283MOL0     H38157   6.833   6.989   2.722 -0.8310 -0.3081  0.8687
  283MOL0     H38158   6.914   7.140   2.780 -3.2898  1.6936  2.8875
  283MOL0     H38159   6.955   6.844   2.865  0.6132  0.4406  2.0568
  283MOL0     H38160   7.072   6.943   2.790  0.6392  0.6927  1.2559
  283MOL0     H38161   6.977   6.946   3.079 -3.4568  1.0225 -1.4757
  283MOL0     H38162   7.030   7.102   2.996 -2.7505  0.1744 -1.1263
  283MOL0     H38163   7.197   6.840   3.001 -0.6752 -1.0387  3.4357
  283MOL0     H38164   7.212   6.964   3.127  1.4501 -0.3710  0.2821
  283MOL0     H38165   7.387   6.906   2.757 -0.4533 -1.0420  0.2142
  283MOL0     H38166   7.641   6.878   2.735 -0.3228 -0.8808 -0.0687
  283MOL0     H38167   7.988   6.725   2.672  0.3079 -0.9275  2.1359
  283MOL0     H38168   8.207   6.727   2.571 -0.4737  0.9133 -0.1981
  283MOL0     H38169   8.410   6.710   2.565  2.1535 -1.9204 -1.0208
  283MOL0     H38170   8.537   6.814   2.502 -0.0459 -1.3427  0.9681
  283MOL0     H38171   8.606   6.889   2.723 -1.9188  0.3621  1.4798
  283MOL0     H38172   8.494   6.778   2.793 -1.0004  2.4323 -0.0105
  283MOL0     H38173   8.629   6.598   2.632 -1.8022 -1.4484  1.8457
  283MOL0     H38174   8.748   6.727   2.631  0.7733  0.2406 -0.3101
  283MOL0     H38175   8.762   6.542   2.796  1.0342  0.7153 -2.4964
  283MOL0     H38176   8.629   6.624   2.893 -0.6383 -1.1298 -1.5210
  283MOL0     H38177   8.775   6.841   2.880  1.6971  0.0792  0.1644
  283MOL0     H38178   8.913   6.727   2.856  1.1323  1.4032  2.3173
  283MOL0     H38179   8.735   6.704   3.095  1.3950 -3.4966  4.4503
  283MOL0     H38180   8.859   6.590   3.038  1.3250  0.1444 -0.6410
  283MOL0     H38181   8.903   6.883   3.111 -1.2909  0.3911 -2.1310
  283MOL0     H38182   9.034   6.767   3.062 -0.1022 -1.2717  1.8299
  283MOL0     H38183   9.019   6.796   3.311  2.6270 -3.1625  0.7030
  283MOL0     H38184   8.850   6.752   3.308 -0.2256 -0.3912  0.2297
  283MOL0     H38185   8.257   7.132   2.695  2.0079 -0.7956 -0.1244
  283MOL0     H38186   8.045   7.120   2.823 -0.3072  0.1830 -1.4894
  283MOL0     H38187   7.683   7.032   3.132 -2.3811 -1.4311  2.2703
  283MOL0     H38188   7.436   7.064   3.150  2.6627  0.9968  1.8147
  283MOL0     H38189   5.628   6.916   2.830  1.3686 -0.2207  0.3112
  283MOL0     H38190   5.461   7.061   2.749  2.5673 -1.0882 -0.2921
  283MOL0     H38191   5.289   6.890   2.636 -2.2175 -0.1227 -1.1454
  283MOL0     H38192   5.232   6.686   2.564  0.1176  0.6061 -0.8955
  283MOL0     H38193   4.855   6.458   2.499  1.0443  1.9104 -1.1092
  283MOL0     H38194   4.794   6.587   2.596 -0.2721  0.4521  0.2477
  283MOL0     H38195   4.898   6.460   2.791  0.9565 -1.6629  0.9379
  283MOL0     H38196   4.927   6.327   2.676  0.0488  0.1959 -0.2934
  283MOL0     H38197   4.646   6.396   2.668 -1.4004 -0.2414  1.5998
  283MOL0     H38198   4.696   6.422   2.837 -1.2118 -2.9448  2.5925
  283MOL0     H38199   4.771   6.175   2.824  0.3489  0.9153  1.4582
  283MOL0     H38200   4.599   6.215   2.809  0.6757 -3.4240 -0.3787
  283MOL0     H38201   4.681   6.076   2.410 -2.4875  2.2690 -0.1046
  283MOL0     H38202   4.849   6.705   2.768 -0.9401  0.6818 -1.4567
  283MOL0     H38203   4.810   6.884   2.905  0.5910 -0.8797 -0.5425
  283MOL0     H38204   4.942   6.977   2.984 -2.3508  2.0592 -0.1788
  283MOL0     H38205   4.869   7.048   2.851  1.8611  0.1383 -1.6923
  284MOL0     O38206   6.920   6.771   6.331 -0.5637 -0.1959 -0.4360
  284MOL0     C38207   6.923   6.831   6.439 -0.3381 -0.1386  0.4464
  284MOL0     O38208   7.035   6.874   6.509  0.6566 -0.4599 -0.1531
  284MOL0     C38209   7.157   6.830   6.466  0.5502 -0.4174 -0.1396
  284MOL0     C38210   7.196   6.705   6.493  0.2203  0.4097  0.6080
  284MOL0     C38211   7.331   6.681   6.454 -0.5580  0.3581 -0.4176
  284MOL0     C38212   7.419   6.776   6.399  0.0247  0.0419  0.2699
  284MOL0     O38213   7.551   6.739   6.356 -0.5323 -0.2181 -0.2353
  284MOL0     C38214   7.665   6.826   6.364  0.3178 -0.2878 -0.4401
  284MOL0     C38215   7.706   6.851   6.509 -0.6341 -0.1058 -0.2516
  284MOL0     C38216   7.719   6.719   6.594  0.6358  0.1282  0.1062
  284MOL0     C38217   7.871   6.699   6.631 -0.2957 -0.3741  0.2184
  284MOL0     C38218   7.899   6.572   6.709 -0.2152  0.5050  0.5625
  284MOL0     C38219   8.043   6.574   6.753  0.7154  0.6670  0.0289
  284MOL0     C38220   8.066   6.442   6.835  0.4287 -0.2822 -0.6576
  284MOL0     C38221   8.194   6.434   6.921 -0.0658 -0.7310  0.3187
  284MOL0     N38222   8.314   6.473   6.855 -0.2734  0.5833 -0.0723
  284MOL0     C38223   8.362   6.414   6.748 -0.1987  0.7125  0.2164
  284MOL0     C38224   8.462   6.498   6.704  0.3897 -0.5744 -0.1663
  284MOL0     C38225   8.551   6.473   6.586  0.6204 -0.1104  0.0957
  284MOL0     C38226   8.687   6.518   6.603  0.4411 -0.8363 -0.3408
  284MOL0     C38227   8.765   6.480   6.479  0.2194 -0.2117  0.4836
  284MOL0     C38228   8.898   6.527   6.482 -0.4738 -0.8073 -0.5001
  284MOL0     O38229   8.943   6.536   6.341 -0.0390 -0.3873 -0.4463
  284MOL0     C38230   9.055   6.603   6.306 -0.6414 -0.9184  0.0520
  284MOL0     C38231   9.084   6.607   6.172 -0.5821 -0.2050  0.7792
  284MOL0     C38232   9.197   6.679   6.130 -0.0709 -0.7059 -0.9861
  284MOL0     C38233   9.296   6.733   6.224 -0.0490 -0.3205 -0.5185
  284MOL0     C38234   9.424   6.800   6.181 -0.4677 -0.0650 -1.1416
  284MOL0     O38235   9.468   6.772   6.059 -0.1031 -0.0610 -0.1294
  284MOL0     C38236   9.590   6.817   6.021  0.5779 -0.3104 -0.2321
  284MOL0     C38237   9.614   6.951   5.982 -0.2356 -0.7696 -1.2827
  284MOL0     C38238   9.730   6.993   5.920  1.3619  0.3282  0.8616
  284MOL0     C38239   9.839   6.908   5.923 -0.1859  0.6454 -0.4358
  284MOL0     O38240   9.951   6.931   5.858  0.1812 -0.0038  0.1543
  284MOL0     C38241   9.935   6.980   5.731  0.1384  0.1894 -1.1347
  284MOL0     C38242  10.055   6.981   5.644 -1.0778  0.1168 -0.6924
  284MOL0     C38243  10.097   6.840   5.593  0.5350  0.3545 -0.9425
  284MOL0     C38244  10.239   6.843   5.550  0.0160 -0.5578  0.2083
  284MOL0     C38245  10.303   6.715   5.505  0.4539 -0.2914  0.7738
  284MOL0     C38246  10.457   6.731   5.506  0.0702 -0.1590  0.2034
  284MOL0     C38247  10.533   6.619   5.430 -0.0830  0.3131 -0.4586
  284MOL0     C38248  10.682   6.649   5.434  0.9396 -0.3394  0.0558
  284MOL0    Cl38249  10.720   6.822   5.399  0.1882 -0.1363 -0.5787
  284MOL0     C38250   9.816   6.770   5.952  0.5037  0.0523  0.7184
  284MOL0     C38251   9.687   6.726   5.993  0.7025 -0.8233 -0.5610
  284MOL0     O38252   9.474   6.876   6.265  0.7276 -0.3659 -0.3552
  284MOL0     C38253   9.260   6.720   6.362 -0.1380  0.1213 -0.3509
  284MOL0     C38254   9.146   6.657   6.395 -0.3190 -0.5379  0.0318
  284MOL0     N38255   8.476   6.610   6.783  0.0654  0.1486 -0.7868
  284MOL0     N38256   8.375   6.591   6.869 -0.1589  0.3287 -0.6427
  284MOL0     C38257   7.376   6.904   6.386  0.1545  0.8266  0.2101
  284MOL0     C38258   7.244   6.927   6.422 -0.1850 -0.0059 -0.7231
  284MOL0     C38259   6.804   6.842   6.508  0.1370 -0.1630 -0.6424
  284MOL0     C38260   6.798   6.787   6.640 -0.1644  0.0114 -0.2974
  284MOL0     C38261   6.686   6.804   6.710 -0.4310 -0.2164 -0.2355
  284MOL0     C38262   6.564   6.845   6.655 -0.3325  0.3176 -0.3455
  284MOL0     O38263   6.437   6.834   6.714 -0.3527  0.0362 -0.3651
  284MOL0     C38264   6.430   6.808   6.855 -0.3834  1.1139 -0.5336
  284MOL0     C38265   6.289   6.836   6.903  1.0583  0.5035  0.2545
  284MOL0     C38266   6.286   6.869   7.054  0.4617  0.0573  0.5746
  284MOL0     C38267   6.168   6.964   7.093  0.6044 -0.6708  0.0065
  284MOL0     C38268   6.194   7.106   7.044 -0.4495  1.0613  0.5783
  284MOL0     C38269   6.215   7.211   6.996  1.0766  0.5707 -0.1192
  284MOL0     C38270   6.563   6.895   6.522 -0.1911 -0.2639 -0.0223
  284MOL0     C38271   6.688   6.899   6.449  0.4454  0.6066 -0.0755
  284MOL0     C38272   6.692   6.978   6.315 -0.2814 -0.0290  0.1623
  284MOL0     H38273   7.131   6.636   6.547  0.5620  0.4418  1.0672
  284MOL0     H38274   7.368   6.580   6.465 -3.6247 -0.8681 -0.4847
  284MOL0     H38275   7.742   6.766   6.314 -0.2734  1.1456 -3.2383
  284MOL0     H38276   7.643   6.920   6.313 -0.5892 -0.8085 -1.0350
  284MOL0     H38277   7.638   6.923   6.554 -0.4859 -0.3000  0.2982
  284MOL0     H38278   7.806   6.896   6.509  0.3654 -2.1381 -1.7745
  284MOL0     H38279   7.677   6.637   6.535  0.4236 -0.8696  1.5831
  284MOL0     H38280   7.659   6.726   6.686 -0.7493  1.8996 -0.8612
  284MOL0     H38281   7.937   6.709   6.544 -2.3687  0.4406 -1.3434
  284MOL0     H38282   7.898   6.779   6.700  1.8313 -1.6370  0.9354
  284MOL0     H38283   7.825   6.570   6.789 -1.6972  4.4287 -0.5166
  284MOL0     H38284   7.893   6.478   6.653  0.0117  0.9007 -0.1457
  284MOL0     H38285   8.116   6.577   6.671  0.0875  2.3338 -0.5151
  284MOL0     H38286   8.058   6.668   6.807  2.7435  1.7608 -2.2066
  284MOL0     H38287   8.063   6.358   6.764 -1.9794 -1.2405  0.4835
  284MOL0     H38288   7.982   6.425   6.902 -0.9382 -1.3892 -2.5319
  284MOL0     H38289   8.179   6.506   7.001 -2.5556 -2.8368  1.9047
  284MOL0     H38290   8.198   6.342   6.979  0.9583 -2.0863 -1.7734
  284MOL0     H38291   8.334   6.323   6.695  2.1542 -0.6990  1.1944
  284MOL0     H38292   8.545   6.366   6.562 -1.2951  0.1106 -0.6705
  284MOL0     H38293   8.505   6.526   6.502  3.7925  2.1123 -0.4052
  284MOL0     H38294   8.680   6.626   6.620 -1.3782 -0.8537 -0.8004
  284MOL0     H38295   8.733   6.476   6.693 -1.8124 -0.3435  1.1138
  284MOL0     H38296   8.711   6.519   6.392 -2.3864 -0.2338  1.9908
  284MOL0     H38297   8.763   6.371   6.473  3.2430 -0.3594  0.5096
  284MOL0     H38298   8.958   6.459   6.545  1.3928  0.4686 -0.7982
  284MOL0     H38299   8.899   6.621   6.538  0.7697 -1.7056  1.1093
  284MOL0     H38300   9.019   6.565   6.096  1.5610 -0.9108 -0.7613
  284MOL0     H38301   9.228   6.687   6.027  2.7912  0.7426 -0.1139
  284MOL0     H38302   9.543   7.032   5.996  2.7656  1.9248 -0.5264
  284MOL0     H38303   9.737   7.094   5.880  1.0921  1.2846  3.0468
  284MOL0     H38304   9.852   6.926   5.683 -1.0528  1.3811 -0.4861
  284MOL0     H38305   9.900   7.082   5.750  0.6121 -0.1014  1.6792
  284MOL0     H38306  10.024   7.049   5.564  1.3125  1.0655 -0.9127
  284MOL0     H38307  10.133   7.034   5.700 -2.0552 -0.0348  0.8702
  284MOL0     H38308  10.077   6.759   5.664  0.3511  1.6316  0.5090
  284MOL0     H38309  10.037   6.821   5.504  2.5953 -1.6158 -1.9928
  284MOL0     H38310  10.306   6.885   5.625  1.9429 -0.4937 -1.4670
  284MOL0     H38311  10.238   6.919   5.470  0.3068 -0.2302  0.5130
  284MOL0     H38312  10.267   6.695   5.403 -2.4230  1.5793  1.2812
  284MOL0     H38313  10.263   6.628   5.557  0.3247  0.1142  1.3647
  284MOL0     H38314  10.475   6.828   5.459  2.7583  0.4068  2.1621
  284MOL0     H38315  10.495   6.747   5.607  1.3942 -0.1520 -0.2711
  284MOL0     H38316  10.500   6.614   5.326  2.6681  2.3371 -1.5503
  284MOL0     H38317  10.514   6.522   5.478  2.4045  0.5407  1.1405
  284MOL0     H38318  10.718   6.636   5.536 -0.5701  0.1636  0.6795
  284MOL0     H38319  10.738   6.576   5.374  0.7685  1.2509 -2.1511
  284MOL0     H38320   9.901   6.703   5.943 -0.9802 -2.1328  1.8796
  284MOL0     H38321   9.659   6.625   6.021  2.7774 -1.3008 -0.0142
  284MOL0     H38322   9.328   6.748   6.442 -1.3488  1.8193  0.1512
  284MOL0     H38323   9.137   6.633   6.500  1.0177 -1.8034 -0.1213
  284MOL0     H38324   7.449   6.981   6.367  0.1601  0.4394 -1.5427
  284MOL0     H38325   7.209   7.026   6.396  1.1867  0.4201 -1.0207
  284MOL0     H38326   6.886   6.745   6.687 -2.0278 -2.9004  0.8794
  284MOL0     H38327   6.695   6.784   6.817  1.9299 -1.2402 -0.5698
  284MOL0     H38328   6.504   6.874   6.901  1.3785  0.8536 -2.8386
  284MOL0     H38329   6.464   6.706   6.877 -1.7349  0.8404  0.4362
  284MOL0     H38330   6.228   6.746   6.893  0.6103  0.6173  1.7333
  284MOL0     H38331   6.238   6.916   6.850  1.3412  1.5962  1.5718
  284MOL0     H38332   6.378   6.922   7.077 -0.3311  0.3779  3.4349
  284MOL0     H38333   6.284   6.776   7.111  3.2998  0.3990  1.3423
  284MOL0     H38334   6.074   6.918   7.062 -1.0926  1.1517  2.1542
  284MOL0     H38335   6.186   6.967   7.201  3.0546  0.5664 -0.3533
  284MOL0     H38336   6.217   7.302   6.938  2.7055 -1.0674 -2.8457
  284MOL0     H38337   6.470   6.926   6.475  0.0505 -2.3206 -2.0226
  284MOL0     H38338   6.762   7.060   6.336 -1.7508  0.9216  1.5895
  284MOL0     H38339   6.728   6.923   6.228 -0.6591  0.1868 -0.1333
  284MOL0     H38340   6.598   7.028   6.293  0.5019  1.7312  0.5709
  285MOL0     O38341   6.128   8.167   8.891 -0.2297 -0.1891 -0.1109
  285MOL0     C38342   6.126   8.118   9.001 -0.0034  0.4256 -0.0006
  285MOL0     O38343   6.219   8.025   9.055  0.0527  0.5184  0.7236
  285MOL0     C38344   6.333   8.017   8.980  0.0616 -0.6165 -0.3712
  285MOL0     C38345   6.337   7.970   8.841 -0.3053 -0.1224  0.1551
  285MOL0     C38346   6.461   7.963   8.778 -1.0738 -0.4329  0.2514
  285MOL0     C38347   6.581   7.995   8.837  0.6429  0.3992  1.0888
  285MOL0     O38348   6.697   7.962   8.764 -0.4637  0.7875  0.6247
  285MOL0     C38349   6.816   8.052   8.773 -0.3452  0.3897  0.6643
  285MOL0     C38350   6.782   8.201   8.741 -0.2365 -0.5802 -0.8108
  285MOL0     C38351   6.756   8.213   8.586 -0.4388  0.2848  1.0225
  285MOL0     C38352   6.665   8.335   8.559  0.1429 -0.2155 -0.3051
  285MOL0     C38353   6.603   8.332   8.420  0.5955  0.5089 -0.1127
  285MOL0     C38354   6.492   8.439   8.405  0.8695 -0.7986  0.3184
  285MOL0     C38355   6.431   8.428   8.265  0.9031  0.3220  0.5915
  285MOL0     C38356   6.515   8.483   8.150  0.7549 -0.1997 -0.2092
  285MOL0     N38357   6.507   8.625   8.126 -0.3263 -0.0080  1.1064
  285MOL0     C38358   6.452   8.680   8.013  0.0385 -0.5124 -0.1281
  285MOL0     C38359   6.473   8.815   8.028  0.2091 -0.4779  0.2192
  285MOL0     C38360   6.425   8.925   7.931 -0.1614 -0.3162  0.3813
  285MOL0     C38361   6.503   9.054   7.951 -0.4547 -0.5427  0.1802
  285MOL0     C38362   6.502   9.158   7.832 -0.0733  0.1144  0.4596
  285MOL0     C38363   6.373   9.199   7.775 -0.2459 -0.4789 -0.2816
  285MOL0     O38364   6.297   9.259   7.883  0.5276  0.6013  0.1071
  285MOL0     C38365   6.164   9.288   7.863  0.0923 -1.4813  0.1648
  285MOL0     C38366   6.097   9.277   7.739  0.4310 -0.1086 -0.1277
  285MOL0     C38367   5.961   9.311   7.725 -0.0997 -0.4295 -0.1702
  285MOL0     C38368   5.892   9.365   7.833 -0.7533  0.5057  0.2788
  285MOL0     C38369   5.741   9.380   7.816 -0.4923  0.9915  0.0486
  285MOL0     O38370   5.669   9.410   7.929 -0.8982  0.8197  0.6733
  285MOL0     C38371   5.532   9.419   7.943 -0.5320  0.0933  0.1753
  285MOL0     C38372   5.485   9.412   8.070  1.1578 -1.4030 -0.7369
  285MOL0     C38373   5.352   9.414   8.095  0.5103  0.7763  0.2709
  285MOL0     C38374   5.251   9.419   8.002  0.2057  0.8654  0.2627
  285MOL0     O38375   5.130   9.418   8.050  0.3106 -0.2205 -0.0487
  285MOL0     C38376   5.037   9.487   7.962  0.7044  0.7803  1.2543
  285MOL0     C38377   4.892   9.463   8.019  0.6858 -0.9764 -0.4511
  285MOL0     C38378   4.824   9.326   7.985  0.0500  0.0922 -0.0584
  285MOL0     C38379   4.691   9.305   8.057  0.0584  0.9900  0.4715
  285MOL0     C38380   4.639   9.166   8.017 -0.3190 -0.1942 -0.8883
  285MOL0     C38381   4.487   9.166   8.042  0.3151  0.0796  0.3065
  285MOL0     C38382   4.443   9.193   8.180 -0.0995 -0.0196  0.1549
  285MOL0     C38383   4.496   9.091   8.289  0.1473 -0.1236  0.0897
  285MOL0    Cl38384   4.415   9.130   8.445  0.4888 -0.0273 -0.4062
  285MOL0     C38385   5.305   9.428   7.875  0.2119 -0.4332  0.8108
  285MOL0     C38386   5.447   9.434   7.848  0.4505  0.9951 -0.1206
  285MOL0     O38387   5.686   9.363   7.709 -0.0012  1.1477  0.6848
  285MOL0     C38388   5.956   9.390   7.955  0.1164 -0.0922 -0.6073
  285MOL0     C38389   6.092   9.347   7.969 -0.0035 -0.0484  0.4582
  285MOL0     N38390   6.527   8.833   8.155 -0.3920  0.3316 -0.9575
  285MOL0     N38391   6.550   8.717   8.214  0.3555 -0.4188  0.6444
  285MOL0     C38392   6.576   8.019   8.971  0.2372  0.0950 -0.0812
  285MOL0     C38393   6.453   8.030   9.045  1.2600  0.0274 -0.0612
  285MOL0     C38394   6.009   8.150   9.089 -0.1971  1.1441  0.1222
  285MOL0     C38395   5.981   8.058   9.193  0.4648 -0.3275  0.4902
  285MOL0     C38396   5.888   8.090   9.291 -0.3318  0.0348 -1.1655
  285MOL0     C38397   5.821   8.220   9.298 -0.7450  0.8852  0.6726
  285MOL0     O38398   5.750   8.251   9.407  0.3074  0.2059 -0.3465
  285MOL0     C38399   5.718   8.395   9.418 -0.6413 -0.0745 -0.0558
  285MOL0     C38400   5.618   8.414   9.538 -0.3766  0.3496  0.3603
  285MOL0     C38401   5.571   8.561   9.568 -0.2252  0.2443  0.5067
  285MOL0     C38402   5.467   8.611   9.466  0.1346 -0.5184 -0.1821
  285MOL0     C38403   5.352   8.527   9.448  0.0004 -0.5293  0.2068
  285MOL0     C38404   5.259   8.452   9.422  0.1573  0.2595  0.1388
  285MOL0     C38405   5.840   8.309   9.190  0.0333 -0.2964  0.4606
  285MOL0     C38406   5.926   8.271   9.081  0.2573 -0.4668  0.0891
  285MOL0     C38407   5.942   8.382   8.977 -0.2573 -0.2832  0.0830
  285MOL0     H38408   6.254   7.929   8.786 -0.1907 -0.9000  0.5423
  285MOL0     H38409   6.469   7.950   8.670  1.7800 -0.9954  0.4484
  285MOL0     H38410   6.865   8.054   8.871  1.1675  3.2343 -0.0203
  285MOL0     H38411   6.898   8.018   8.709  0.5695 -0.0730  2.0361
  285MOL0     H38412   6.868   8.261   8.768 -1.9089  1.1314  1.0003
  285MOL0     H38413   6.697   8.238   8.799  0.9086  0.6980  0.0795
  285MOL0     H38414   6.686   8.133   8.560  0.4991 -1.7502  4.1609
  285MOL0     H38415   6.839   8.213   8.515 -2.3020 -0.5066 -1.2685
  285MOL0     H38416   6.584   8.338   8.633 -0.3743 -1.9202 -0.7755
  285MOL0     H38417   6.721   8.428   8.575 -0.1075  0.5189 -3.1738
  285MOL0     H38418   6.676   8.341   8.340  0.8475  1.2772  0.1936
  285MOL0     H38419   6.563   8.230   8.419  2.1438 -0.2729  3.0983
  285MOL0     H38420   6.426   8.417   8.489  0.3193 -2.2721 -0.4606
  285MOL0     H38421   6.537   8.537   8.424  0.5965 -1.0804  2.7576
  285MOL0     H38422   6.330   8.471   8.261 -0.3290 -2.3619  0.7586
  285MOL0     H38423   6.411   8.322   8.247  0.5846  0.3073  1.0164
  285MOL0     H38424   6.620   8.460   8.172  1.1267  0.7143 -0.9767
  285MOL0     H38425   6.487   8.435   8.056 -1.5997 -1.3112  0.9849
  285MOL0     H38426   6.397   8.627   7.937 -3.0200 -5.1254  4.6036
  285MOL0     H38427   6.445   8.886   7.831  1.0279  1.5060 -0.1402
  285MOL0     H38428   6.318   8.942   7.937 -0.0018  0.9878 -0.0927
  285MOL0     H38429   6.476   9.100   8.047  1.8247 -0.5804  0.9047
  285MOL0     H38430   6.610   9.031   7.960 -0.7775 -4.0973 -2.6658
  285MOL0     H38431   6.553   9.105   7.751  0.9517  1.6640  0.0588
  285MOL0     H38432   6.550   9.253   7.855 -2.2934  2.0301 -2.1873
  285MOL0     H38433   6.329   9.106   7.738  0.5146 -1.1407  0.4217
  285MOL0     H38434   6.387   9.261   7.686 -1.2839  0.7698  0.4114
  285MOL0     H38435   6.150   9.246   7.650 -0.2057 -1.0939 -0.1837
  285MOL0     H38436   5.918   9.282   7.630  0.9548 -0.3050 -0.7109
  285MOL0     H38437   5.552   9.389   8.153  1.0279  1.1194  0.1672
  285MOL0     H38438   5.315   9.414   8.197  2.5012  1.9508  1.0536
  285MOL0     H38439   5.057   9.593   7.948 -0.7671  0.6440 -4.0819
  285MOL0     H38440   5.040   9.447   7.860 -0.9830  3.0453  0.2494
  285MOL0     H38441   4.912   9.471   8.126  0.0445  1.1466 -0.4543
  285MOL0     H38442   4.828   9.549   8.000  0.4489 -0.8212  0.9497
  285MOL0     H38443   4.812   9.325   7.876  0.4193 -2.0996 -0.1201
  285MOL0     H38444   4.887   9.240   8.007 -0.3970 -0.6884 -1.6390
  285MOL0     H38445   4.625   9.384   8.020 -1.2240 -0.9357 -1.6969
  285MOL0     H38446   4.694   9.290   8.165 -0.7453 -0.8539  0.2874
  285MOL0     H38447   4.686   9.078   8.063 -1.7509 -0.6488 -0.2077
  285MOL0     H38448   4.651   9.164   7.908 -1.0353 -0.9136 -0.9698
  285MOL0     H38449   4.442   9.232   7.967 -1.4821  0.0974  1.3332
  285MOL0     H38450   4.443   9.068   8.022  2.4048 -0.8492  0.0000
  285MOL0     H38451   4.334   9.195   8.177 -0.1399 -1.3442 -2.6342
  285MOL0     H38452   4.467   9.296   8.208  1.0878  0.1074 -1.1885
  285MOL0     H38453   4.482   8.989   8.250  0.1505 -0.1877  0.2537
  285MOL0     H38454   4.605   9.091   8.297  0.1205 -1.4625  0.7348
  285MOL0     H38455   5.237   9.444   7.792  1.2010  0.7646  0.1968
  285MOL0     H38456   5.461   9.431   7.740 -2.5742 -2.8373 -0.6177
  285MOL0     H38457   5.905   9.435   8.040 -0.1131 -1.5321  0.0514
  285MOL0     H38458   6.145   9.362   8.062  1.1306 -1.0364  0.0029
  285MOL0     H38459   6.667   8.039   9.025  1.3058 -2.1462 -0.9342
  285MOL0     H38460   6.463   8.045   9.152  3.5512  2.9948 -0.5596
  285MOL0     H38461   6.040   7.967   9.191  1.3893  0.2756  0.0712
  285MOL0     H38462   5.872   8.017   9.371 -1.3400 -1.2290 -2.4734
  285MOL0     H38463   5.673   8.443   9.331  0.4120 -1.4318 -1.4058
  285MOL0     H38464   5.815   8.443   9.435 -0.0184 -0.9289 -1.0553
  285MOL0     H38465   5.664   8.379   9.631  0.6096 -1.0483 -0.6218
  285MOL0     H38466   5.528   8.356   9.516 -1.2585  1.2367  1.4476
  285MOL0     H38467   5.653   8.631   9.551 -0.1382  0.5079  1.8495
  285MOL0     H38468   5.529   8.582   9.667  1.0746  2.9347  0.5737
  285MOL0     H38469   5.429   8.709   9.497  4.1030  0.1783  3.4154
  285MOL0     H38470   5.507   8.633   9.366 -2.4649  4.0659 -0.5077
  285MOL0     H38471   5.175   8.400   9.380 -0.4077  1.9566 -0.9475
  285MOL0     H38472   5.818   8.415   9.200  0.1148  0.0417 -2.1040
  285MOL0     H38473   5.988   8.347   8.884  1.2863 -1.8922  1.3983
  285MOL0     H38474   5.841   8.423   8.961 -0.4110 -0.4426  0.6296
  285MOL0     H38475   5.998   8.465   9.020 -0.2686 -0.1275 -0.1970
  286MOL0     O38476   1.818   4.549  10.932  0.0740 -0.0447 -0.0328
  286MOL0     C38477   1.707   4.533  10.889 -0.0201  0.8415  0.9967
  286MOL0     O38478   1.669   4.508  10.759 -0.2549 -0.3102  0.1773
  286MOL0     C38479   1.766   4.471  10.670  0.1777 -0.1609 -0.8581
  286MOL0     C38480   1.796   4.335  10.640 -0.1196  0.3519  0.2467
  286MOL0     C38481   1.900   4.306  10.543  0.7137 -0.1817 -0.1877
  286MOL0     C38482   1.982   4.410  10.498 -0.7821  0.7145  0.3099
  286MOL0     O38483   2.082   4.380  10.408 -0.1972 -0.8284 -0.0766
  286MOL0     C38484   2.189   4.288  10.453  1.1470 -0.7633  0.3971
  286MOL0     C38485   2.294   4.363  10.540  0.5348  0.1159 -0.9389
  286MOL0     C38486   2.355   4.473  10.459 -0.8375  0.4075 -0.3513
  286MOL0     C38487   2.463   4.536  10.549 -0.0189  0.6762 -0.2601
  286MOL0     C38488   2.546   4.643  10.484  0.2359 -0.0482  0.3459
  286MOL0     C38489   2.654   4.688  10.579 -0.1884  0.0305 -0.0090
  286MOL0     C38490   2.721   4.820  10.528  0.0237  0.3842 -1.0505
  286MOL0     C38491   2.773   4.807  10.383  0.3669  0.6821  0.3272
  286MOL0     N38492   2.830   4.938  10.345 -0.6235 -0.9653 -0.4165
  286MOL0     C38493   2.756   5.049  10.296  0.3187 -0.6086 -0.1800
  286MOL0     C38494   2.852   5.149  10.287  0.6859  0.7307 -0.1749
  286MOL0     C38495   2.839   5.301  10.260  0.5155  0.7226  0.6360
  286MOL0     C38496   2.739   5.326  10.147  0.8999  0.5672 -0.9187
  286MOL0     C38497   2.741   5.472  10.107  0.3411 -0.7474  0.2892
  286MOL0     C38498   2.639   5.500   9.991 -0.0358 -0.4388 -1.0478
  286MOL0     O38499   2.499   5.476  10.042 -0.4705 -0.3351  0.7427
  286MOL0     C38500   2.390   5.525   9.977 -0.2299 -1.3016  0.3390
  286MOL0     C38501   2.409   5.614   9.866  0.3316  0.0069  0.3374
  286MOL0     C38502   2.298   5.673   9.808  0.1634 -0.7191 -0.4614
  286MOL0     C38503   2.163   5.648   9.852 -0.0139 -0.2398 -0.0090
  286MOL0     C38504   2.044   5.690   9.770  1.3354  0.7663  0.0110
  286MOL0     O38505   1.921   5.632   9.801 -0.3862  0.1411  0.4372
  286MOL0     C38506   1.816   5.663   9.712 -0.3734 -0.3733 -0.8202
  286MOL0     C38507   1.777   5.563   9.626 -0.6255  0.1030 -0.5479
  286MOL0     C38508   1.665   5.590   9.545 -0.3798  0.0046 -0.0530
  286MOL0     C38509   1.595   5.717   9.543  0.7448 -0.2253 -0.1750
  286MOL0     O38510   1.485   5.745   9.472 -0.6583  0.2159  0.1310
  286MOL0     C38511   1.412   5.869   9.491 -1.0622  0.4430  0.4454
  286MOL0     C38512   1.287   5.851   9.403  0.3328  0.1480  0.3132
  286MOL0     C38513   1.193   5.738   9.466 -0.7733 -0.5648 -0.0157
  286MOL0     C38514   1.058   5.741   9.393 -0.1453  0.7183  0.6590
  286MOL0     C38515   0.962   5.637   9.439 -0.3819 -0.4131  0.4103
  286MOL0     C38516   0.845   5.648   9.347  1.0151  1.1142  0.3589
  286MOL0     C38517   0.727   5.569   9.405  0.6421  0.5587 -0.0405
  286MOL0     C38518   0.602   5.560   9.312 -0.2569  0.0698 -0.3030
  286MOL0    Cl38519   0.484   5.432   9.352  0.0108  0.1726  0.3617
  286MOL0     C38520   1.642   5.813   9.629  0.3944  1.0505  0.2458
  286MOL0     C38521   1.753   5.796   9.706  0.6638  0.2238  0.4969
  286MOL0     O38522   2.063   5.776   9.687 -0.6181 -0.4195 -0.1802
  286MOL0     C38523   2.147   5.550   9.952  0.0085 -0.5488 -0.2040
  286MOL0     C38524   2.260   5.494  10.015 -0.6253 -0.0606  0.8813
  286MOL0     N38525   2.968   5.088  10.331  0.0045 -0.7726  0.7946
  286MOL0     N38526   2.959   4.973  10.370 -0.0134 -0.3427  0.1092
  286MOL0     C38527   1.954   4.545  10.538  0.0833  0.2746  0.4548
  286MOL0     C38528   1.845   4.579  10.619  0.1228 -0.5650 -0.8129
  286MOL0     C38529   1.601   4.552  10.981 -0.7631  0.9992 -1.3065
  286MOL0     C38530   1.499   4.621  10.920 -0.0689 -0.3203 -0.2779
  286MOL0     C38531   1.383   4.658  11.000 -0.0599 -0.5906  0.6324
  286MOL0     C38532   1.378   4.629  11.128 -0.4641 -0.4060  0.5190
  286MOL0     O38533   1.271   4.647  11.197 -0.1279  0.2822 -0.2441
  286MOL0     C38534   1.259   4.777  11.257  0.8426  1.2618 -0.5705
  286MOL0     C38535   1.351   4.784  11.379  1.2717 -0.5677  0.9145
  286MOL0     C38536   1.318   4.693  11.507  0.9519 -0.4377 -0.9090
  286MOL0     C38537   1.419   4.703  11.613 -0.0800 -0.1544 -0.2661
  286MOL0     C38538   1.551   4.656  11.574 -0.4084  0.1670 -0.6289
  286MOL0     C38539   1.663   4.607  11.550  0.1120  0.4236 -0.2613
  286MOL0     C38540   1.478   4.552  11.186 -0.2992  0.6448 -0.4913
  286MOL0     C38541   1.598   4.525  11.122 -0.4989 -0.9035  0.2723
  286MOL0     C38542   1.703   4.459  11.202  0.3564  0.0685  0.8540
  286MOL0     H38543   1.738   4.264  10.698  1.4896  1.0168  2.8470
  286MOL0     H38544   1.927   4.204  10.518  1.2525 -0.0086 -0.3240
  286MOL0     H38545   2.147   4.209  10.515  2.2323  0.3623  2.7045
  286MOL0     H38546   2.233   4.230  10.372 -0.0237 -2.5847  1.0074
  286MOL0     H38547   2.384   4.312  10.574 -0.8148 -0.5067  2.0434
  286MOL0     H38548   2.242   4.395  10.631  0.2425 -2.0683 -0.2865
  286MOL0     H38549   2.300   4.558  10.420  1.5435  1.2675 -2.0734
  286MOL0     H38550   2.405   4.424  10.375 -0.3468 -2.0079  1.2346
  286MOL0     H38551   2.432   4.569  10.649 -0.8115 -0.5441 -0.0815
  286MOL0     H38552   2.538   4.458  10.567 -0.8020 -0.2731 -1.0199
  286MOL0     H38553   2.590   4.603  10.392 -0.8698 -0.1340 -0.1640
  286MOL0     H38554   2.488   4.735  10.469  2.4397  1.5115  0.9354
  286MOL0     H38555   2.610   4.702  10.679 -2.1181 -1.1431 -0.6296
  286MOL0     H38556   2.728   4.612  10.605  0.7752  1.6581  2.3658
  286MOL0     H38557   2.807   4.847  10.591 -0.1974  0.7360 -0.8990
  286MOL0     H38558   2.650   4.903  10.526  0.8999  1.2073  0.2951
  286MOL0     H38559   2.851   4.731  10.384 -1.0616 -0.8591  0.0772
  286MOL0     H38560   2.704   4.773  10.304  1.3809 -2.8991  0.8309
  286MOL0     H38561   2.652   5.050  10.265  0.2583 -0.3219  0.0273
  286MOL0     H38562   2.809   5.353  10.351 -1.0596  0.0528  0.5172
  286MOL0     H38563   2.937   5.342  10.234  1.1258 -1.3430 -0.5663
  286MOL0     H38564   2.761   5.263  10.060 -1.4288  1.0599 -1.9759
  286MOL0     H38565   2.638   5.299  10.180  2.0036 -3.4845 -0.3818
  286MOL0     H38566   2.835   5.502  10.060  0.4616 -1.8845 -0.2391
  286MOL0     H38567   2.729   5.540  10.191  1.1497  0.5841 -0.6424
  286MOL0     H38568   2.652   5.432   9.907 -3.5316 -1.3154 -1.0522
  286MOL0     H38569   2.655   5.606   9.969  1.1796 -0.3617  0.1093
  286MOL0     H38570   2.507   5.640   9.827  0.6133 -0.4161  0.7625
  286MOL0     H38571   2.305   5.721   9.711  0.5473 -1.9819 -1.0826
  286MOL0     H38572   1.823   5.465   9.620  0.9446  0.8183 -0.7508
  286MOL0     H38573   1.630   5.523   9.468  1.8634  1.6367 -2.6583
  286MOL0     H38574   1.385   5.871   9.597  0.8948 -1.3026  1.0492
  286MOL0     H38575   1.460   5.960   9.454 -0.1377 -0.3083 -0.2495
  286MOL0     H38576   1.230   5.944   9.412 -1.1208 -0.6947 -0.0600
  286MOL0     H38577   1.317   5.820   9.302  1.8905  2.8507 -0.1801
  286MOL0     H38578   1.239   5.641   9.442 -0.9578 -1.8017  3.8726
  286MOL0     H38579   1.185   5.747   9.575 -0.6967 -0.2419 -0.0361
  286MOL0     H38580   1.072   5.724   9.286 -2.4034 -0.0757  0.4456
  286MOL0     H38581   1.024   5.844   9.410  1.6681  1.1714  1.8309
  286MOL0     H38582   0.932   5.663   9.541 -0.1800  1.7244 -0.0199
  286MOL0     H38583   1.009   5.538   9.435  1.0170  0.2001  1.2446
  286MOL0     H38584   0.816   5.753   9.344 -1.5008  0.6433  3.2370
  286MOL0     H38585   0.862   5.600   9.250 -1.2748  1.0207 -0.0414
  286MOL0     H38586   0.687   5.619   9.493 -2.8675  0.1320 -1.2269
  286MOL0     H38587   0.753   5.465   9.428 -0.0022  0.0855 -1.3608
  286MOL0     H38588   0.559   5.661   9.319  2.6583  1.3246  1.1334
  286MOL0     H38589   0.646   5.541   9.214 -1.1740 -0.7249 -0.5763
  286MOL0     H38590   1.588   5.906   9.645 -2.9118  0.3299 -4.6163
  286MOL0     H38591   1.784   5.881   9.765 -4.1327  2.0253  0.8552
  286MOL0     H38592   2.050   5.519   9.989 -0.0956  2.7965  3.0423
  286MOL0     H38593   2.247   5.420  10.093 -0.9596  0.2257  1.1038
  286MOL0     H38594   2.009   4.615  10.475 -1.2663 -2.3156 -4.0747
  286MOL0     H38595   1.826   4.683  10.643  0.7834 -0.7741  0.6992
  286MOL0     H38596   1.507   4.657  10.818  1.0528 -1.1482 -0.5026
  286MOL0     H38597   1.311   4.718  10.945  1.0643  1.1307  0.9546
  286MOL0     H38598   1.157   4.793  11.296  0.9049  1.0043 -0.2945
  286MOL0     H38599   1.269   4.855  11.181  0.0536  2.1061  0.1446
  286MOL0     H38600   1.354   4.888  11.412 -1.2033  0.3023 -1.3294
  286MOL0     H38601   1.456   4.763  11.355  0.9568 -0.3459 -0.7103
  286MOL0     H38602   1.309   4.589  11.474  1.3072 -0.4445 -0.9883
  286MOL0     H38603   1.223   4.729  11.549  2.6727  0.5060  2.4696
  286MOL0     H38604   1.421   4.807  11.646  1.5925  0.8018 -3.0514
  286MOL0     H38605   1.386   4.638  11.695 -2.4339  1.4515  0.1379
  286MOL0     H38606   1.756   4.555  11.535 -0.5284  0.0495 -3.8903
  286MOL0     H38607   1.459   4.520  11.288  2.7518  0.1278  0.0169
  286MOL0     H38608   1.765   4.535  11.250  0.1665 -1.1982  3.2645
  286MOL0     H38609   1.663   4.393  11.279 -0.5066 -1.2254 -0.6271
  286MOL0     H38610   1.756   4.394  11.131 -0.6597  2.9745 -2.9248
  287MOL0     O38611  10.021   1.798   0.917 -0.5824 -0.1511 -0.0603
  287MOL0     C38612   9.976   1.912   0.924 -0.5292  0.8364 -0.7852
  287MOL0     O38613  10.054   2.025   0.923 -0.0239  0.7474  0.5501
  287MOL0     C38614  10.193   2.023   0.905  0.1747  0.1774  1.0511
  287MOL0     C38615  10.285   2.010   1.010  0.4023 -0.7457  0.0517
  287MOL0     C38616  10.424   2.014   0.978 -0.2744 -0.9803  0.0026
  287MOL0     C38617  10.459   2.022   0.843  0.0694 -1.3093  1.5097
  287MOL0     O38618  10.597   2.028   0.813 -0.0447  0.4585 -0.2242
  287MOL0     C38619  10.642   1.989   0.682  0.3568  0.2712  0.3908
  287MOL0     C38620  10.793   1.987   0.682 -0.7463  0.8953 -1.3668
  287MOL0     C38621  10.859   2.119   0.690 -0.4570  0.1929  0.3696
  287MOL0     C38622  10.992   2.123   0.620 -0.2400  0.0419 -1.1481
  287MOL0     C38623  11.078   2.241   0.674 -0.7622  0.2251 -0.0667
  287MOL0     C38624  11.191   2.270   0.575 -0.0076 -1.0719  0.7397
  287MOL0     C38625  11.259   2.404   0.597  0.2102  0.6492  0.2407
  287MOL0     C38626  11.380   2.429   0.512 -0.4741  0.5430 -0.5347
  287MOL0     N38627  11.433   2.557   0.556 -0.6398 -0.0316  0.2140
  287MOL0     C38628  11.496   2.578   0.673 -0.7087  0.0810  0.1630
  287MOL0     C38629  11.524   2.711   0.666 -0.0429 -0.6326 -0.5904
  287MOL0     C38630  11.606   2.795   0.768  0.8869 -0.3586 -0.1871
  287MOL0     C38631  11.749   2.744   0.776  0.8441 -0.2096  0.2417
  287MOL0     C38632  11.768   2.607   0.856 -0.2982  0.3011  0.2655
  287MOL0     C38633  11.915   2.586   0.909 -0.0674 -0.0654 -0.8877
  287MOL0     O38634  11.937   2.681   1.017  0.2824 -0.4294 -0.0248
  287MOL0     C38635  12.048   2.678   1.101  0.3546 -0.9002  0.2687
  287MOL0     C38636  12.013   2.700   1.235 -0.0323  0.1932 -0.0179
  287MOL0     C38637  12.105   2.700   1.334  0.3736  0.6638 -0.3260
  287MOL0     C38638  12.237   2.666   1.303  0.1000 -0.6463  0.0384
  287MOL0     C38639  12.342   2.653   1.412  0.7405  0.5489 -0.3546
  287MOL0     O38640  12.292   2.668   1.535 -0.3167  1.0915 -0.2671
  287MOL0     C38641  12.388   2.660   1.639  0.7853  0.2595 -0.4332
  287MOL0     C38642  12.336   2.593   1.755 -0.1370  0.3996 -0.3154
  287MOL0     C38643  12.413   2.595   1.873  0.1120 -0.3406  0.5253
  287MOL0     C38644  12.539   2.651   1.880  0.1823  0.3229 -0.0206
  287MOL0     O38645  12.611   2.673   1.986  0.2722 -0.3644  0.0237
  287MOL0     C38646  12.623   2.564   2.087 -0.4852  0.1038 -0.6605
  287MOL0     C38647  12.772   2.552   2.119  0.2072 -0.2366  0.0966
  287MOL0     C38648  12.850   2.504   2.003 -0.3167  0.0337  0.0741
  287MOL0     C38649  12.998   2.494   2.057 -0.0587 -0.5283 -0.6711
  287MOL0     C38650  13.100   2.439   1.955  0.1078 -0.0824  0.0505
  287MOL0     C38651  13.260   2.441   1.987 -1.0077 -0.2254  0.2093
  287MOL0     C38652  13.332   2.336   1.903  0.1328 -0.6962  0.4032
  287MOL0     C38653  13.337   2.388   1.757 -0.0956  0.0795 -0.8294
  287MOL0    Cl38654  13.424   2.266   1.669  0.5102  0.0627  0.2771
  287MOL0     C38655  12.595   2.696   1.760  0.3424 -0.6875  0.5518
  287MOL0     C38656  12.521   2.703   1.641  0.5129 -0.0835 -0.1233
  287MOL0     O38657  12.458   2.614   1.389 -0.0758 -0.0541  0.7373
  287MOL0     C38658  12.274   2.650   1.165 -0.2434  0.2538 -0.7811
  287MOL0     C38659  12.180   2.645   1.063 -0.5831 -0.0027 -0.4991
  287MOL0     N38660  11.478   2.761   0.547  0.2054  0.6687 -0.3817
  287MOL0     N38661  11.416   2.670   0.487  0.2158 -0.3902  0.9711
  287MOL0     C38662  10.366   2.005   0.742 -0.1856 -0.0458  0.1335
  287MOL0     C38663  10.236   2.014   0.778  0.1458  0.4920 -0.3181
  287MOL0     C38664   9.832   1.924   0.935  0.3234  0.6209  0.1226
  287MOL0     C38665   9.777   2.057   0.941  0.3838 -0.2297 -0.5418
  287MOL0     C38666   9.647   2.073   0.932  0.0072 -0.3131 -0.3258
  287MOL0     C38667   9.555   1.975   0.933  0.9133 -0.3663 -0.1268
  287MOL0     O38668   9.417   2.007   0.936 -0.1470 -0.3412 -0.1576
  287MOL0     C38669   9.347   1.995   1.057 -0.1179 -0.0065 -0.3838
  287MOL0     C38670   9.200   1.962   1.029 -0.3195  0.8337 -0.0418
  287MOL0     C38671   9.124   1.957   1.165 -0.6753 -0.4970  0.3055
  287MOL0     C38672   8.975   1.960   1.147 -0.3165  0.0593  0.9429
  287MOL0     C38673   8.924   2.084   1.102  0.9870  0.3570 -0.2563
  287MOL0     C38674   8.878   2.196   1.079 -0.6522 -0.7701 -0.3396
  287MOL0     C38675   9.604   1.843   0.924  0.3906  0.0802  0.3634
  287MOL0     C38676   9.735   1.813   0.927  0.1466 -0.5773  0.3239
  287MOL0     C38677   9.766   1.673   0.948 -1.2565  0.0796  0.5438
  287MOL0     H38678  10.241   2.002   1.109 -1.4054  1.1874 -0.5193
  287MOL0     H38679  10.501   2.031   1.052  0.0424 -2.1305 -0.0407
  287MOL0     H38680  10.589   1.900   0.649 -1.4309  1.8058 -1.0556
  287MOL0     H38681  10.619   2.065   0.607  1.8176 -0.8384 -1.2865
  287MOL0     H38682  10.823   1.935   0.591 -1.1033 -2.5179  0.2913
  287MOL0     H38683  10.820   1.927   0.770  1.3700  0.5866 -2.1746
  287MOL0     H38684  10.893   2.145   0.791  1.6900 -1.7294  0.2344
  287MOL0     H38685  10.796   2.202   0.656  0.7032  1.1010  0.3523
  287MOL0     H38686  11.040   2.027   0.639 -0.3326  0.3250  0.6996
  287MOL0     H38687  10.968   2.129   0.513 -3.7694 -0.9734 -0.5570
  287MOL0     H38688  11.015   2.331   0.677 -0.3920  0.5242  4.3141
  287MOL0     H38689  11.120   2.241   0.775  3.5986  1.3615 -1.6519
  287MOL0     H38690  11.266   2.191   0.577  0.5135 -0.6705 -0.8533
  287MOL0     H38691  11.152   2.281   0.473  2.1079  1.5962  0.0860
  287MOL0     H38692  11.277   2.406   0.705 -2.7616 -0.4857  0.8387
  287MOL0     H38693  11.189   2.482   0.566 -0.0782 -0.3684 -1.8335
  287MOL0     H38694  11.452   2.349   0.530 -1.0215 -0.2837 -1.8876
  287MOL0     H38695  11.349   2.429   0.407 -3.0946  1.1858  0.1501
  287MOL0     H38696  11.529   2.502   0.743  1.2898 -0.2802 -1.0767
  287MOL0     H38697  11.606   2.903   0.750  0.0979 -0.1328  1.0878
  287MOL0     H38698  11.553   2.782   0.863 -1.1197 -0.5988 -1.2814
  287MOL0     H38699  11.783   2.730   0.673 -0.1741  2.5971 -0.5745
  287MOL0     H38700  11.820   2.820   0.810  0.9066  1.2703 -2.8420
  287MOL0     H38701  11.754   2.523   0.788  1.6352 -1.2138  1.6172
  287MOL0     H38702  11.702   2.600   0.944  0.5240 -0.8798  0.8233
  287MOL0     H38703  11.985   2.616   0.831  0.2780 -0.3095 -0.6718
  287MOL0     H38704  11.927   2.480   0.935 -2.4971 -0.8354 -2.4975
  287MOL0     H38705  11.909   2.716   1.263 -0.3032 -1.8875  0.3399
  287MOL0     H38706  12.070   2.687   1.436 -0.0320 -2.5353 -0.7766
  287MOL0     H38707  12.235   2.555   1.747  0.8306 -2.2258 -1.2372
  287MOL0     H38708  12.374   2.560   1.968 -1.1270  0.2771  0.2699
  287MOL0     H38709  12.573   2.586   2.181 -2.6694 -3.4295 -0.8139
  287MOL0     H38710  12.578   2.470   2.053  1.1333 -1.0194  0.2296
  287MOL0     H38711  12.812   2.648   2.151 -1.6277  0.0912  1.5688
  287MOL0     H38712  12.771   2.481   2.202 -1.2247  0.5387  0.7849
  287MOL0     H38713  12.823   2.402   1.974  0.6821 -0.0299 -0.7186
  287MOL0     H38714  12.848   2.577   1.922 -0.2641  0.2224  0.2410
  287MOL0     H38715  13.008   2.434   2.148  2.4603 -1.3388 -1.3861
  287MOL0     H38716  13.025   2.598   2.075 -0.0766 -0.8089  1.2072
  287MOL0     H38717  13.086   2.489   1.859  1.8456 -0.1153 -0.2552
  287MOL0     H38718  13.091   2.330   1.945  3.0744 -0.3034 -1.2650
  287MOL0     H38719  13.302   2.541   1.986 -0.7114 -0.3493  0.0680
  287MOL0     H38720  13.279   2.404   2.088  1.4621 -0.3303 -0.2481
  287MOL0     H38721  13.299   2.233   1.913 -1.0442 -0.4494 -0.7436
  287MOL0     H38722  13.438   2.343   1.930 -0.4981 -1.7422  3.5863
  287MOL0     H38723  13.235   2.389   1.718 -1.8399 -0.4812  3.1335
  287MOL0     H38724  13.390   2.483   1.753  0.4789 -0.2120 -0.4313
  287MOL0     H38725  12.699   2.725   1.760  0.0317  0.6157 -1.5006
  287MOL0     H38726  12.575   2.739   1.554 -0.7799  0.1184 -0.8803
  287MOL0     H38727  12.378   2.626   1.150  0.0603 -1.5934  3.0688
  287MOL0     H38728  12.195   2.613   0.960  0.1614 -1.0307 -0.0910
  287MOL0     H38729  10.403   1.993   0.640  0.6066 -1.0910  0.5252
  287MOL0     H38730  10.160   1.993   0.704 -2.3000  2.6469  1.3973
  287MOL0     H38731   9.833   2.150   0.936  1.6865 -1.0452 -2.7955
  287MOL0     H38732   9.612   2.176   0.938 -1.9719 -0.9015 -0.8170
  287MOL0     H38733   9.344   2.091   1.108 -2.8291 -1.0970  1.7668
  287MOL0     H38734   9.403   1.919   1.113 -0.3726 -0.5303 -0.8251
  287MOL0     H38735   9.192   1.862   0.985 -0.1096  0.7987  0.0006
  287MOL0     H38736   9.149   2.027   0.958 -4.5799 -2.7864 -0.7643
  287MOL0     H38737   9.159   2.040   1.227 -1.0811 -0.7031  0.8174
  287MOL0     H38738   9.149   1.861   1.211  0.3067 -1.9341 -2.8925
  287MOL0     H38739   8.933   1.877   1.091 -2.0437 -0.8754  3.4428
  287MOL0     H38740   8.934   1.952   1.248 -0.9355  1.2631  0.8092
  287MOL0     H38741   8.849   2.299   1.071 -0.4396 -0.6068  0.8202
  287MOL0     H38742   9.523   1.772   0.931  0.2291  0.3490  1.3479
  287MOL0     H38743   9.673   1.619   0.968 -0.6228 -1.0261  0.5672
  287MOL0     H38744   9.821   1.624   0.867 -1.5659  1.5668 -0.6208
  287MOL0     H38745   9.831   1.682   1.036  0.7573  2.2542 -1.0333
  288MOL0     O38746   1.833  11.218   4.060  0.5368  0.4603  0.1966
  288MOL0     C38747   1.798  11.099   4.064 -0.0349 -0.1664  0.5415
  288MOL0     O38748   1.885  10.999   4.051  0.0840  0.0858  0.1050
  288MOL0     C38749   2.019  11.030   4.046  0.4575  0.2137  0.7319
  288MOL0     C38750   2.091  11.051   4.161  0.2736 -0.6977 -0.0104
  288MOL0     C38751   2.226  11.093   4.154  0.6390  0.0961  0.9814
  288MOL0     C38752   2.287  11.121   4.027 -0.7097 -0.4243  0.2371
  288MOL0     O38753   2.426  11.133   4.029 -0.4908 -0.6497  0.3208
  288MOL0     C38754   2.489  11.200   3.920 -0.3811  0.1221 -0.2135
  288MOL0     C38755   2.634  11.224   3.943 -0.2742 -0.5792  0.0198
  288MOL0     C38756   2.719  11.259   3.817  0.5176  0.5970 -0.2956
  288MOL0     C38757   2.874  11.260   3.846  0.5442  0.2533  1.2523
  288MOL0     C38758   2.961  11.234   3.723  0.7423  0.4145 -0.1262
  288MOL0     C38759   3.006  11.367   3.661  0.3582 -0.2507 -0.1073
  288MOL0     C38760   3.092  11.370   3.538 -0.1117  0.3504 -0.4066
  288MOL0     C38761   3.120  11.517   3.508  0.1258 -0.2808 -0.3147
  288MOL0     N38762   3.217  11.577   3.600 -0.0091  0.2445  0.4844
  288MOL0     C38763   3.197  11.640   3.717  0.1538  0.3497 -0.1498
  288MOL0     C38764   3.312  11.680   3.768  0.2210 -0.5892  0.4208
  288MOL0     C38765   3.346  11.746   3.899 -0.3894  0.0660  0.0210
  288MOL0     C38766   3.455  11.855   3.876 -0.3732  0.6290 -0.1250
  288MOL0     C38767   3.589  11.816   3.950 -0.3328 -0.3802 -0.3097
  288MOL0     C38768   3.695  11.918   3.917 -0.1658 -0.0085 -0.2758
  288MOL0     O38769   3.797  11.915   4.017 -0.5426  0.0164 -0.7404
  288MOL0     C38770   3.923  11.980   4.015  0.7144 -0.3455 -0.0881
  288MOL0     C38771   4.017  11.963   4.117  0.4413  0.1520  0.4921
  288MOL0     C38772   4.147  11.996   4.094 -0.2116 -0.0285  0.0403
  288MOL0     C38773   4.188  12.058   3.976  0.6167  0.0669 -0.5508
  288MOL0     C38774   4.329  12.090   3.946 -0.0382  0.6294 -0.5438
  288MOL0     O38775   4.368  12.112   3.811 -0.3594 -0.0187 -0.1192
  288MOL0     C38776   4.499  12.152   3.792  0.7420  1.1272  0.0539
  288MOL0     C38777   4.535  12.282   3.810 -0.3365 -0.9176  0.8756
  288MOL0     C38778   4.665  12.325   3.776  0.0505 -0.7355 -0.2670
  288MOL0     C38779   4.753  12.237   3.718 -0.8478  0.4386  0.9004
  288MOL0     O38780   4.881  12.281   3.683 -0.1476  1.2493 -0.1053
  288MOL0     C38781   4.938  12.401   3.743 -0.1681 -0.5483 -0.4157
  288MOL0     C38782   5.081  12.420   3.707 -0.2333  0.2304 -0.4411
  288MOL0     C38783   5.162  12.298   3.733  0.5829  0.3502  0.0831
  288MOL0     C38784   5.315  12.321   3.712 -0.2536  0.4835 -0.3740
  288MOL0     C38785   5.395  12.207   3.775 -0.2864  0.4640 -0.0432
  288MOL0     C38786   5.547  12.204   3.744  0.2438  0.8121 -0.6513
  288MOL0     C38787   5.605  12.071   3.790  0.0891  0.5329 -1.1305
  288MOL0     C38788   5.752  12.055   3.763  0.1922  0.5375  0.4373
  288MOL0    Cl38789   5.820  11.896   3.822  0.0626  0.1134  0.3448
  288MOL0     C38790   4.716  12.110   3.686  0.5413  1.1917 -0.4751
  288MOL0     C38791   4.581  12.064   3.725  0.5457  0.3649  0.4844
  288MOL0     O38792   4.404  12.095   4.044 -0.7720 -0.0071  0.2984
  288MOL0     C38793   4.099  12.082   3.878  0.3406 -0.2073  0.6034
  288MOL0     C38794   3.969  12.039   3.893  0.2671 -0.1641  1.0214
  288MOL0     N38795   3.412  11.642   3.681 -0.2966  0.4147 -0.3275
  288MOL0     N38796   3.351  11.576   3.589 -0.3775 -0.3503  0.7962
  288MOL0     C38797   2.207  11.097   3.915 -0.5794  0.0703  0.1920
  288MOL0     C38798   2.075  11.057   3.926  0.2867 -1.1678  0.1558
  288MOL0     C38799   1.654  11.058   4.079 -0.4555 -0.1060 -0.2546
  288MOL0     C38800   1.606  10.932   4.020 -0.3229 -0.3023 -0.1894
  288MOL0     C38801   1.480  10.897   4.051 -0.2718  0.2242 -0.1781
  288MOL0     C38802   1.389  10.974   4.122 -0.5428  0.5071  0.1475
  288MOL0     O38803   1.264  10.938   4.148  0.1253 -0.2275  0.1764
  288MOL0     C38804   1.193  10.818   4.094  0.2158 -0.0823 -1.0545
  288MOL0     C38805   1.050  10.822   4.153  0.1319 -0.6627  0.8924
  288MOL0     C38806   0.959  10.938   4.109  0.2684 -0.4341 -0.4407
  288MOL0     C38807   0.904  10.939   3.967 -0.5394  0.3069 -0.3478
  288MOL0     C38808   0.773  10.887   3.958  0.3255  0.4079 -0.5784
  288MOL0     C38809   0.664  10.832   3.957  0.7580  0.0804  0.3126
  288MOL0     C38810   1.420  11.100   4.161  0.0356 -0.2433 -0.1911
  288MOL0     C38811   1.558  11.139   4.146 -0.2474 -1.1910 -0.2613
  288MOL0     C38812   1.583  11.283   4.191  1.0305 -0.5598  0.3004
  288MOL0     H38813   2.051  11.034   4.261  0.3935 -0.4086  0.0883
  288MOL0     H38814   2.291  11.098   4.241 -0.0549 -0.3258  1.5380
  288MOL0     H38815   2.489  11.132   3.835  0.7954 -0.6109  0.3395
  288MOL0     H38816   2.430  11.288   3.893  0.8700  1.0872  0.0912
  288MOL0     H38817   2.669  11.130   3.985 -1.6051 -2.5420 -2.9232
  288MOL0     H38818   2.638  11.306   4.016 -1.1922 -1.0645  0.6388
  288MOL0     H38819   2.683  11.360   3.795 -1.6531  0.3119  1.4730
  288MOL0     H38820   2.689  11.188   3.740  1.5940  0.3500 -0.4874
  288MOL0     H38821   2.907  11.349   3.900  0.7086 -0.5322  2.4775
  288MOL0     H38822   2.875  11.176   3.917 -0.0976 -0.3008  0.6265
  288MOL0     H38823   3.046  11.172   3.753  0.2179 -0.7623 -0.9793
  288MOL0     H38824   2.919  11.177   3.640  3.7102  0.2291 -1.6272
  288MOL0     H38825   2.922  11.434   3.638  1.6153  1.0631 -1.0740
  288MOL0     H38826   3.063  11.421   3.737 -2.4597  1.0748  1.2222
  288MOL0     H38827   3.035  11.324   3.457 -2.7872 -0.9095  2.0247
  288MOL0     H38828   3.191  11.324   3.547 -0.1273 -0.0004 -1.7445
  288MOL0     H38829   3.166  11.524   3.410 -0.0334  0.2330 -0.3599
  288MOL0     H38830   3.035  11.586   3.509  1.8044  1.9405 -1.8520
  288MOL0     H38831   3.104  11.651   3.771  0.8782 -1.0482  1.4899
  288MOL0     H38832   3.259  11.799   3.939 -0.2145  0.8123 -0.5839
  288MOL0     H38833   3.377  11.678   3.979 -2.3408 -0.1356  0.6492
  288MOL0     H38834   3.488  11.865   3.772  1.6757 -0.0079  0.4007
  288MOL0     H38835   3.415  11.945   3.923  0.5681  0.3091  1.3898
  288MOL0     H38836   3.620  11.720   3.909 -2.2744 -0.0332 -2.8649
  288MOL0     H38837   3.561  11.814   4.056 -0.5052  2.4041 -0.2233
  288MOL0     H38838   3.651  12.017   3.927  0.4517  0.1061  1.6658
  288MOL0     H38839   3.731  11.892   3.817 -0.6802  3.8249 -1.6304
  288MOL0     H38840   3.986  11.904   4.202 -1.5977  0.7960  0.2397
  288MOL0     H38841   4.220  11.964   4.167 -0.0451  0.2284 -0.0135
  288MOL0     H38842   4.468  12.360   3.845  2.3494  1.2080  1.5641
  288MOL0     H38843   4.680  12.431   3.797  0.7215 -1.0910  1.1633
  288MOL0     H38844   4.884  12.488   3.702 -2.4199  0.3455  3.9064
  288MOL0     H38845   4.913  12.407   3.849 -0.1442 -1.4790 -0.3554
  288MOL0     H38846   5.085  12.450   3.602  2.0459  0.5486 -0.3107
  288MOL0     H38847   5.117  12.505   3.765 -0.6306  0.5540 -0.6601
  288MOL0     H38848   5.150  12.273   3.838  1.7667  1.4004  0.5003
  288MOL0     H38849   5.119  12.220   3.670  1.8281  1.3342 -2.0998
  288MOL0     H38850   5.335  12.412   3.770 -0.0296  0.2516 -0.0846
  288MOL0     H38851   5.345  12.329   3.608 -1.2166 -3.4037 -1.1285
  288MOL0     H38852   5.366  12.110   3.734 -2.6303  0.6737  0.9561
  288MOL0     H38853   5.375  12.207   3.883 -0.3113  4.1566  0.0779
  288MOL0     H38854   5.551  12.216   3.636  0.7991  1.8487 -0.5360
  288MOL0     H38855   5.587  12.291   3.797  0.1037 -0.4501  1.6667
  288MOL0     H38856   5.559  11.988   3.736  1.5708  0.1019 -1.7690
  288MOL0     H38857   5.582  12.053   3.895 -1.9882  0.2735 -1.5886
  288MOL0     H38858   5.764  12.074   3.656 -2.8871  1.9515  0.2191
  288MOL0     H38859   5.799  12.133   3.824 -0.2661  1.6392 -0.5825
  288MOL0     H38860   4.779  12.038   3.635 -2.2820 -1.5513 -0.3833
  288MOL0     H38861   4.555  11.960   3.707  2.6635 -0.2937  0.8899
  288MOL0     H38862   4.127  12.119   3.779  1.1503  1.7908  1.5225
  288MOL0     H38863   3.890  12.041   3.819 -0.0137  0.8034  1.3229
  288MOL0     H38864   2.243  11.129   3.818  0.2454  3.6705  1.5405
  288MOL0     H38865   2.011  11.069   3.839  1.6612  0.7954 -0.6711
  288MOL0     H38866   1.683  10.869   3.979  0.2586 -1.0748  1.9283
  288MOL0     H38867   1.452  10.800   4.010 -0.1212  1.0818 -2.4709
  288MOL0     H38868   1.241  10.724   4.123 -1.1771  0.3054  3.2447
  288MOL0     H38869   1.183  10.820   3.985  0.6823 -0.5039 -1.1121
  288MOL0     H38870   1.058  10.816   4.262  1.5294  1.1847  0.9386
  288MOL0     H38871   1.014  10.724   4.120  1.7364 -1.3798  1.1622
  288MOL0     H38872   1.008  11.032   4.136  3.0157 -1.8862 -0.1363
  288MOL0     H38873   0.876  10.934   4.180  1.6748 -2.6723  1.1808
  288MOL0     H38874   0.894  11.040   3.924 -1.9851 -0.9242 -3.1992
  288MOL0     H38875   0.979  10.892   3.903 -0.9493 -1.1734  0.2096
  288MOL0     H38876   0.564  10.795   3.969  0.3529 -0.0022 -2.7029
  288MOL0     H38877   1.341  11.157   4.209 -0.4452 -1.2760  0.2510
  288MOL0     H38878   1.658  11.294   4.270 -1.8352 -0.6728  3.2529
  288MOL0     H38879   1.620  11.337   4.103  0.0020 -1.6232 -0.8159
  288MOL0     H38880   1.492  11.331   4.226  0.6542 -2.8253  2.6808
  289MOL0     O38881   8.932   0.307   5.288  0.5512  0.3981 -0.1088
  289MOL0     C38882   8.859   0.258   5.199 -0.8869 -0.4566  0.2012
  289MOL0     O38883   8.896   0.227   5.067  0.9357 -0.0768 -0.2004
  289MOL0     C38884   9.021   0.216   5.028 -0.2502 -0.2774 -0.6392
  289MOL0     C38885   9.135   0.234   5.102 -1.0718 -0.3762 -0.2254
  289MOL0     C38886   9.258   0.217   5.036  1.0048  0.7738  1.3696
  289MOL0     C38887   9.271   0.201   4.895  0.4952 -0.0801  0.1795
  289MOL0     O38888   9.389   0.196   4.826  0.6385 -0.3353  0.3862
  289MOL0     C38889   9.508   0.250   4.889  0.2532  0.1392 -0.5703
  289MOL0     C38890   9.626   0.240   4.785  0.1378 -0.1271  0.2764
  289MOL0     C38891   9.748   0.302   4.832  0.0855 -0.2429 -0.2284
  289MOL0     C38892   9.858   0.329   4.732 -0.5810 -0.1847  0.4380
  289MOL0     C38893   9.834   0.455   4.660  0.0606 -1.3876 -0.0888
  289MOL0     C38894   9.953   0.492   4.570 -0.7118 -0.3248 -0.1731
  289MOL0     C38895   9.950   0.636   4.509  0.2583 -0.8843 -0.1174
  289MOL0     C38896  10.058   0.657   4.396  0.2160  0.2018 -0.2245
  289MOL0     N38897  10.179   0.704   4.471 -0.4243  0.9574 -0.1741
  289MOL0     C38898  10.227   0.834   4.485 -0.3075  0.1827 -0.0440
  289MOL0     C38899  10.335   0.817   4.558 -0.1174  0.3088 -0.1797
  289MOL0     C38900  10.422   0.936   4.574  0.3660  0.2924 -0.2504
  289MOL0     C38901  10.553   0.919   4.509 -0.5210  0.4138 -0.0474
  289MOL0     C38902  10.668   0.859   4.599  0.5052  0.3930  0.5282
  289MOL0     C38903  10.807   0.869   4.522  0.7019  0.2857 -0.1579
  289MOL0     O38904  10.897   0.799   4.604 -0.6298  0.9150 -0.3093
  289MOL0     C38905  11.029   0.805   4.569 -0.5823 -0.2627  0.8710
  289MOL0     C38906  11.086   0.890   4.475 -0.5941 -0.1268  0.0964
  289MOL0     C38907  11.221   0.884   4.446  0.2390 -0.7717 -0.3855
  289MOL0     C38908  11.311   0.784   4.499  0.2438 -0.1345  0.1162
  289MOL0     C38909  11.461   0.770   4.468 -0.6210  0.0467 -0.8893
  289MOL0     O38910  11.530   0.864   4.398 -0.8106 -0.3501  0.3803
  289MOL0     C38911  11.668   0.863   4.373  0.4745  0.6550  0.2634
  289MOL0     C38912  11.757   0.764   4.427  0.2640  0.4217  0.1577
  289MOL0     C38913  11.896   0.776   4.392 -0.6488 -0.1384  0.0429
  289MOL0     C38914  11.949   0.890   4.330 -0.3449  0.6501  0.3838
  289MOL0     O38915  12.086   0.889   4.302 -0.6909 -0.6844 -0.0516
  289MOL0     C38916  12.152   0.996   4.237 -0.9042 -0.4575  0.0313
  289MOL0     C38917  12.301   0.948   4.232  0.3077  0.0933 -0.6616
  289MOL0     C38918  12.395   1.039   4.158  0.6336  0.6129  0.2786
  289MOL0     C38919  12.539   1.053   4.220  0.2809 -0.1235 -0.0770
  289MOL0     C38920  12.612   1.165   4.150  0.5789 -0.1622  0.0985
  289MOL0     C38921  12.752   1.179   4.200 -0.2686 -0.5180  0.6191
  289MOL0     C38922  12.789   1.193   4.347  0.6790  0.1600 -0.2878
  289MOL0     C38923  12.736   1.326   4.417 -0.6029  0.1701  0.2233
  289MOL0    Cl38924  12.774   1.468   4.321 -0.1163 -0.6106 -0.1960
  289MOL0     C38925  11.858   0.996   4.297  0.1222  0.4282 -0.6749
  289MOL0     C38926  11.722   0.979   4.318  0.0356 -0.3903 -0.6497
  289MOL0     O38927  11.504   0.660   4.505  0.0179  0.3447 -0.6544
  289MOL0     C38928  11.253   0.695   4.598 -0.2167 -0.0130 -0.6503
  289MOL0     C38929  11.114   0.704   4.621  0.2859  0.3559 -0.3388
  289MOL0     N38930  10.359   0.681   4.590  0.0834 -0.5426  0.3529
  289MOL0     N38931  10.262   0.613   4.534  0.1394 -0.8116  0.2772
  289MOL0     C38932   9.154   0.191   4.827 -0.0501 -1.3760  0.8696
  289MOL0     C38933   9.029   0.188   4.892 -0.2978  0.1312  0.3582
  289MOL0     C38934   8.716   0.250   5.237  0.2771 -0.1780  0.8228
  289MOL0     C38935   8.681   0.255   5.374  1.4021  0.2058 -0.2253
  289MOL0     C38936   8.550   0.266   5.412  1.2176 -0.0747 -0.2382
  289MOL0     C38937   8.442   0.251   5.317 -0.2985  0.0809  0.6333
  289MOL0     O38938   8.311   0.272   5.359 -0.6373  0.2506  0.5059
  289MOL0     C38939   8.221   0.313   5.263 -0.8886 -0.0350 -0.5957
  289MOL0     C38940   8.115   0.389   5.328  0.0998  0.8735  0.2282
  289MOL0     C38941   8.022   0.293   5.405 -0.5072  0.1442  0.8481
  289MOL0     C38942   7.908   0.378   5.466  0.8359  0.4562  0.1229
  289MOL0     C38943   7.812   0.297   5.545 -0.2763  0.5216  0.5127
  289MOL0     C38944   7.749   0.247   5.632  0.3483  0.2570 -0.5890
  289MOL0     C38945   8.480   0.225   5.181 -0.2790  0.5859  0.0420
  289MOL0     C38946   8.612   0.227   5.139  0.2325 -0.0614  0.7512
  289MOL0     C38947   8.641   0.191   4.994 -1.0329 -0.5650 -0.2770
  289MOL0     H38948   9.150   0.264   5.205  0.9806  0.4233 -0.7112
  289MOL0     H38949   9.352   0.222   5.089  2.7248 -0.4315 -1.3652
  289MOL0     H38950   9.498   0.354   4.921 -1.1479  0.0636 -0.6781
  289MOL0     H38951   9.529   0.199   4.983  0.3360 -0.2165 -0.7814
  289MOL0     H38952   9.592   0.272   4.686 -0.9904 -3.2140 -0.4559
  289MOL0     H38953   9.644   0.133   4.771 -0.1056 -0.1889  0.4404
  289MOL0     H38954   9.776   0.226   4.905 -3.1510 -1.2224  0.1429
  289MOL0     H38955   9.738   0.398   4.885  0.5266 -0.5385  0.4107
  289MOL0     H38956   9.954   0.334   4.785  0.3427  0.6241 -1.2363
  289MOL0     H38957   9.855   0.251   4.654 -3.7439  1.2592 -1.0623
  289MOL0     H38958   9.747   0.445   4.595  1.7092  1.7365 -3.0794
  289MOL0     H38959   9.831   0.537   4.733  3.6409 -0.9179 -0.2706
  289MOL0     H38960  10.049   0.478   4.621 -1.3956 -1.1643  0.9442
  289MOL0     H38961   9.945   0.421   4.487 -0.8650 -0.6914  0.1500
  289MOL0     H38962   9.977   0.709   4.587  0.6675  0.3325 -1.3650
  289MOL0     H38963   9.851   0.657   4.468  0.1458 -0.7205  0.2314
  289MOL0     H38964  10.078   0.573   4.328  1.0170 -0.5873  0.9625
  289MOL0     H38965  10.030   0.745   4.336 -0.6780  1.1047  1.4285
  289MOL0     H38966  10.180   0.928   4.458  0.9439  0.7680 -0.2083
  289MOL0     H38967  10.371   1.022   4.529 -1.5791 -1.8766 -2.5851
  289MOL0     H38968  10.437   0.961   4.679 -0.5805  1.3224 -0.3458
  289MOL0     H38969  10.537   0.853   4.423 -2.0699  0.3848  0.2194
  289MOL0     H38970  10.586   1.019   4.483  1.5641 -0.7636 -2.2850
  289MOL0     H38971  10.658   0.752   4.617  0.9018  0.0298 -1.1865
  289MOL0     H38972  10.671   0.918   4.691  0.8242 -1.2673  1.6057
  289MOL0     H38973  10.829   0.976   4.513  0.5841  0.4157  1.0108
  289MOL0     H38974  10.805   0.826   4.421  0.4591  2.5359 -1.1674
  289MOL0     H38975  11.026   0.966   4.426  1.9360  1.6255 -0.5063
  289MOL0     H38976  11.265   0.964   4.386  0.4490  1.5277  2.5964
  289MOL0     H38977  11.728   0.674   4.479  0.3660  0.6900  0.6961
  289MOL0     H38978  11.968   0.697   4.411 -2.4545 -1.2867  2.8314
  289MOL0     H38979  12.110   1.011   4.137 -0.1214 -3.2765 -0.8404
  289MOL0     H38980  12.156   1.090   4.292  1.9975 -0.8978  0.7461
  289MOL0     H38981  12.346   0.948   4.332  2.1013  0.7472 -1.4075
  289MOL0     H38982  12.307   0.847   4.190 -0.4373 -0.1748 -0.1253
  289MOL0     H38983  12.396   1.002   4.055 -0.8478 -5.3339  1.9904
  289MOL0     H38984  12.354   1.140   4.146 -0.4080  0.3239  1.2028
  289MOL0     H38985  12.596   0.960   4.214 -2.0331 -1.7351  1.5382
  289MOL0     H38986  12.528   1.061   4.328  1.2771 -2.1178  0.2266
  289MOL0     H38987  12.559   1.259   4.163 -1.5780 -1.0771 -1.3751
  289MOL0     H38988  12.602   1.153   4.041 -0.9991  1.5971  0.0168
  289MOL0     H38989  12.807   1.090   4.168 -1.0458 -1.7914  2.6475
  289MOL0     H38990  12.795   1.266   4.150 -0.9289  0.0034  0.9441
  289MOL0     H38991  12.898   1.191   4.362  1.2928  0.6844 -3.7347
  289MOL0     H38992  12.748   1.105   4.398 -1.9584  1.3926 -0.1055
  289MOL0     H38993  12.628   1.312   4.426 -0.4424 -1.8015 -0.5954
  289MOL0     H38994  12.772   1.327   4.521 -0.8847  2.5867  0.3689
  289MOL0     H38995  11.894   1.091   4.262  0.8153  1.1624  1.8233
  289MOL0     H38996  11.659   1.060   4.282 -0.0007 -0.9352 -1.8505
  289MOL0     H38997  11.312   0.619   4.648 -0.3618 -1.8856 -3.1566
  289MOL0     H38998  11.079   0.626   4.689  1.7160  1.4529  1.7800
  289MOL0     H38999   9.149   0.173   4.720 -0.0504  3.7114 -0.2199
  289MOL0     H39000   8.939   0.177   4.832 -0.2935 -1.4338  0.5888
  289MOL0     H39001   8.750   0.248   5.458 -1.4863  0.0441  2.3134
  289MOL0     H39002   8.527   0.284   5.516  0.0033 -1.0070 -0.3192
  289MOL0     H39003   8.184   0.223   5.211 -0.5725 -2.3870  2.9184
  289MOL0     H39004   8.264   0.380   5.188 -3.2055  1.0894 -1.0232
  289MOL0     H39005   8.059   0.444   5.252  1.9185  4.3410  1.1590
  289MOL0     H39006   8.156   0.468   5.391  0.2283  1.2624 -0.3326
  289MOL0     H39007   8.073   0.244   5.488 -3.8500 -0.1735  2.8559
  289MOL0     H39008   7.984   0.214   5.339 -0.3685  0.2572  0.6305
  289MOL0     H39009   7.944   0.460   5.528  0.2020  0.4732  0.4814
  289MOL0     H39010   7.853   0.429   5.386  2.5101  2.0955 -0.0371
  289MOL0     H39011   7.704   0.203   5.719  3.1736  0.0267  0.8782
  289MOL0     H39012   8.406   0.211   5.103  1.1113 -2.7139 -0.8356
  289MOL0     H39013   8.705   0.103   4.981  0.7108  0.6627 -0.3363
  289MOL0     H39014   8.555   0.156   4.936  0.0119 -0.5915 -1.8860
  289MOL0     H39015   8.690   0.271   4.937  0.6881 -2.7878 -2.1312
  290MOL0     O39016   2.956   2.600  10.244 -0.3634 -0.4287 -0.1968
  290MOL0     C39017   2.921   2.700  10.180  0.4535 -0.0244 -0.6707
  290MOL0     O39018   3.004   2.808  10.155  0.2604 -0.5248  0.6758
  290MOL0     C39019   3.144   2.819  10.186 -0.2697  0.2939 -0.2799
  290MOL0     C39020   3.213   2.724  10.266  1.0535  0.0057 -0.1512
  290MOL0     C39021   3.341   2.759  10.313 -0.1507 -0.8016  0.1501
  290MOL0     C39022   3.402   2.875  10.271  0.0124 -0.3740 -0.6173
  290MOL0     O39023   3.531   2.902  10.316 -0.1890  0.1639  0.1850
  290MOL0     C39024   3.586   3.034  10.283  0.5311  0.2899 -0.5411
  290MOL0     C39025   3.733   3.019  10.327 -0.1438 -0.5574  0.4342
  290MOL0     C39026   3.786   3.161  10.345  0.2593 -0.1366 -0.7744
  290MOL0     C39027   3.938   3.150  10.381  0.1215 -0.0221  1.1849
  290MOL0     C39028   4.002   3.279  10.426 -0.7995  0.1473 -1.0000
  290MOL0     C39029   4.148   3.249  10.467  0.2608 -0.2262  0.4176
  290MOL0     C39030   4.217   3.358  10.545 -0.4664 -0.2689 -0.6099
  290MOL0     C39031   4.245   3.481  10.463 -0.5180 -0.2371 -0.2428
  290MOL0     N39032   4.373   3.544  10.505 -1.1107 -0.5225 -0.3645
  290MOL0     C39033   4.491   3.533  10.434  0.0145  0.1433 -1.1126
  290MOL0     C39034   4.596   3.568  10.513 -0.0398 -1.8230 -0.1707
  290MOL0     C39035   4.738   3.561  10.459 -0.2446  0.6456  0.7972
  290MOL0     C39036   4.832   3.670  10.500 -0.8301  0.0173 -0.5191
  290MOL0     C39037   4.961   3.672  10.404 -0.0089 -0.2705  1.2648
  290MOL0     C39038   5.056   3.785  10.446 -1.1299  0.7066 -0.3582
  290MOL0     O39039   5.121   3.732  10.563  0.1155  0.1830  0.6332
  290MOL0     C39040   5.237   3.804  10.606  0.3114  0.1277 -0.0618
  290MOL0     C39041   5.273   3.931  10.569 -0.2641 -0.2818  0.5843
  290MOL0     C39042   5.397   3.989  10.621 -0.8838 -0.3422  0.1483
  290MOL0     C39043   5.487   3.919  10.701 -0.7044 -0.3674 -0.0246
  290MOL0     C39044   5.621   3.984  10.728 -0.1332  1.3480 -0.1613
  290MOL0     O39045   5.719   3.914  10.789  0.0613 -0.3259  0.4237
  290MOL0     C39046   5.830   3.979  10.831 -0.2581  0.0546 -0.1045
  290MOL0     C39047   5.903   4.070  10.751  0.5120 -0.2990  0.0257
  290MOL0     C39048   6.016   4.126  10.812 -0.5523  0.7843  0.1909
  290MOL0     C39049   6.064   4.095  10.934 -0.3845  0.4112 -0.6135
  290MOL0     O39050   6.172   4.166  10.975  0.5582 -0.2582  0.3297
  290MOL0     C39051   6.236   4.136  11.099  0.4187  0.2841 -0.6051
  290MOL0     C39052   6.316   4.260  11.142  0.0189 -0.3316  0.2997
  290MOL0     C39053   6.391   4.230  11.273  0.5211  0.3248 -0.2690
  290MOL0     C39054   6.504   4.342  11.281 -0.2995 -0.0681 -0.2243
  290MOL0     C39055   6.586   4.334  11.410  0.0886  0.1592 -0.3606
  290MOL0     C39056   6.723   4.396  11.381  0.1580  0.1869  0.5910
  290MOL0     C39057   6.815   4.362  11.498 -0.0866 -0.1535  0.1025
  290MOL0     C39058   6.966   4.398  11.497  0.3540  0.4981 -0.9261
  290MOL0    Cl39059   7.024   4.390  11.330  0.1351 -0.1739  0.0041
  290MOL0     C39060   5.998   3.994  11.010  0.5723  0.4790 -0.7195
  290MOL0     C39061   5.874   3.941  10.957  0.1351  0.0253 -0.0834
  290MOL0     O39062   5.632   4.104  10.698  0.3790 -0.9251 -0.0741
  290MOL0     C39063   5.446   3.795  10.743  0.6055  0.6185 -1.3145
  290MOL0     C39064   5.320   3.739  10.695  0.3681  0.1797  0.0658
  290MOL0     N39065   4.546   3.605  10.638 -0.1764 -0.5140  0.4645
  290MOL0     N39066   4.411   3.590  10.630 -0.9740  0.8323  1.0458
  290MOL0     C39067   3.337   2.964  10.187  0.0912 -0.6949 -0.5718
  290MOL0     C39068   3.210   2.935  10.140 -0.4710  0.1915 -0.1539
  290MOL0     C39069   2.784   2.702  10.124  0.0562 -0.2263  0.3039
  290MOL0     C39070   2.715   2.827  10.105  0.1497  0.1674 -0.6302
  290MOL0     C39071   2.585   2.835  10.052 -0.2033  0.2714 -0.2330
  290MOL0     C39072   2.522   2.724  10.002  0.3393 -0.2734 -0.9079
  290MOL0     O39073   2.402   2.741   9.944 -0.3870 -0.2248 -0.5532
  290MOL0     C39074   2.334   2.620   9.901 -0.0666 -0.0848 -0.7803
  290MOL0     C39075   2.214   2.665   9.829  0.4873  0.1327 -0.6220
  290MOL0     C39076   2.122   2.770   9.903  1.1017 -1.4458 -0.5591
  290MOL0     C39077   1.974   2.788   9.842 -0.2919  0.1637 -0.0106
  290MOL0     C39078   1.974   2.864   9.712  0.4531 -0.0173 -0.3591
  290MOL0     C39079   2.005   2.909   9.600 -0.2663 -0.3501 -0.6433
  290MOL0     C39080   2.591   2.597  10.014  0.4459  0.1351  0.2519
  290MOL0     C39081   2.720   2.588  10.072 -0.3962  1.1621 -0.1707
  290MOL0     C39082   2.788   2.454  10.066  1.0821  0.1823  0.4899
  290MOL0     H39083   3.177   2.635  10.315 -0.9703 -1.6339 -4.1721
  290MOL0     H39084   3.384   2.679  10.372 -0.6250 -0.0031  1.6314
  290MOL0     H39085   3.592   3.052  10.175  1.4539 -1.7754 -0.8782
  290MOL0     H39086   3.543   3.117  10.340  0.9838 -0.9094  1.6508
  290MOL0     H39087   3.795   2.986  10.243  3.9615  1.0031  2.5893
  290MOL0     H39088   3.743   2.952  10.412  1.6230 -5.4665 -3.1573
  290MOL0     H39089   3.735   3.199  10.434 -2.1328 -0.3394 -1.9605
  290MOL0     H39090   3.754   3.226  10.262 -1.6610  0.8546  0.6520
  290MOL0     H39091   3.949   3.078  10.462 -1.1435  1.7254  3.0285
  290MOL0     H39092   3.987   3.107  10.293 -0.8746  0.1693  0.5154
  290MOL0     H39093   3.989   3.346  10.340 -0.6444  1.4246 -0.0668
  290MOL0     H39094   3.952   3.317  10.516  0.9017 -1.3693  0.6723
  290MOL0     H39095   4.142   3.161  10.532 -2.8949  1.9662  3.4766
  290MOL0     H39096   4.211   3.229  10.381 -3.2663 -1.8134 -2.0532
  290MOL0     H39097   4.307   3.309  10.582  0.4725  0.4865 -1.8188
  290MOL0     H39098   4.142   3.386  10.620 -1.0101  2.9960 -2.1687
  290MOL0     H39099   4.255   3.451  10.358 -0.8371  0.3243 -0.4396
  290MOL0     H39100   4.160   3.551  10.469  0.2453  0.5964  1.4049
  290MOL0     H39101   4.506   3.485  10.338 -0.3673 -3.0527  0.2762
  290MOL0     H39102   4.789   3.479  10.512  1.9626  3.1809  2.8970
  290MOL0     H39103   4.729   3.547  10.351 -3.8492  0.4277  1.0023
  290MOL0     H39104   4.767   3.758  10.492 -1.2759 -0.0785  1.6643
  290MOL0     H39105   4.864   3.669  10.604 -0.3242  1.0207 -0.6500
  290MOL0     H39106   4.920   3.695  10.305 -0.4528 -0.6199  1.3675
  290MOL0     H39107   5.017   3.578  10.398  0.1975 -0.0683 -2.4761
  290MOL0     H39108   5.025   3.889  10.438 -1.6626  0.4662 -1.6559
  290MOL0     H39109   5.126   3.790  10.362 -0.1070  1.0208  0.4809
  290MOL0     H39110   5.212   3.984  10.496  1.3665  1.6799  0.5630
  290MOL0     H39111   5.425   4.089  10.589 -0.4848  0.6892  3.4099
  290MOL0     H39112   5.870   4.089  10.649  1.9769 -1.1028 -0.6329
  290MOL0     H39113   6.077   4.194  10.753 -0.8798  0.7112 -0.2413
  290MOL0     H39114   6.161   4.121  11.178  0.2038  2.7552 -0.2316
  290MOL0     H39115   6.297   4.047  11.085 -2.6943 -2.9835  3.6158
  290MOL0     H39116   6.388   4.294  11.067 -0.5453  1.4179  0.5176
  290MOL0     H39117   6.245   4.342  11.153 -0.6873 -0.6760 -1.4585
  290MOL0     H39118   6.325   4.232  11.360  0.2393 -1.4433 -0.4093
  290MOL0     H39119   6.430   4.128  11.281 -3.4009 -1.2716  0.9971
  290MOL0     H39120   6.470   4.443  11.259  3.7718  2.0051  1.7893
  290MOL0     H39121   6.576   4.322  11.201  2.2304 -2.4657  2.3981
  290MOL0     H39122   6.597   4.233  11.452 -0.2029  0.9090  1.6194
  290MOL0     H39123   6.535   4.403  11.477 -0.2506  0.3757 -0.8443
  290MOL0     H39124   6.755   4.341  11.292 -3.1213  0.2382 -0.7683
  290MOL0     H39125   6.725   4.501  11.348 -0.1750 -0.5699 -2.1272
  290MOL0     H39126   6.811   4.253  11.490  2.9034 -0.2655 -1.2220
  290MOL0     H39127   6.775   4.400  11.593  1.1910  1.2220  0.1239
  290MOL0     H39128   6.988   4.490  11.550  0.3159 -0.2558  0.4376
  290MOL0     H39129   7.007   4.314  11.554 -0.5698 -1.0620 -2.4493
  290MOL0     H39130   6.040   3.973  11.107  0.0582 -0.6461 -0.7198
  290MOL0     H39131   5.806   3.870  11.002 -0.8171  0.0260 -1.4658
  290MOL0     H39132   5.499   3.739  10.820 -2.3779 -0.4493  0.1089
  290MOL0     H39133   5.286   3.639  10.723  0.7393 -0.7552 -2.5205
  290MOL0     H39134   3.382   3.059  10.162 -1.2890  0.3058  0.6485
  290MOL0     H39135   3.156   3.004  10.075 -1.3425 -1.1259 -0.8639
  290MOL0     H39136   2.756   2.913  10.155  1.5468 -0.9556  0.2332
  290MOL0     H39137   2.528   2.927  10.040 -1.2611 -0.6762 -4.2525
  290MOL0     H39138   2.314   2.574   9.998  1.0713 -0.1533 -0.5565
  290MOL0     H39139   2.398   2.561   9.835  0.2895 -1.6630  0.9120
  290MOL0     H39140   2.150   2.578   9.808 -3.2917  2.1333  1.5344
  290MOL0     H39141   2.245   2.708   9.733  3.4683  2.0561  1.0488
  290MOL0     H39142   2.162   2.871   9.885 -0.7083 -0.7109 -0.6681
  290MOL0     H39143   2.125   2.758  10.012  0.8276  1.9954 -0.0435
  290MOL0     H39144   1.934   2.687   9.831 -1.0235  0.0562  2.8324
  290MOL0     H39145   1.920   2.851   9.913  0.4501  1.5736 -0.6462
  290MOL0     H39146   2.033   2.963   9.512 -0.0850 -0.4185 -0.6279
  290MOL0     H39147   2.547   2.507   9.974  1.6134  0.0029 -0.7869
  290MOL0     H39148   2.754   2.389   9.984 -0.6524  0.9359  0.5700
  290MOL0     H39149   2.896   2.468  10.053  0.8723  1.4103 -0.0968
  290MOL0     H39150   2.764   2.398  10.156 -0.8338 -0.5607 -0.4256
  291MOL0     O39151   4.207   8.637   4.405 -0.0112  0.2330  0.3958
  291MOL0     C39152   4.167   8.715   4.491  0.9395  0.4547  0.3000
  291MOL0     O39153   4.152   8.681   4.627  0.4117  0.5767  0.3649
  291MOL0     C39154   4.183   8.552   4.663 -0.5241  0.1770 -0.5320
  291MOL0     C39155   4.317   8.541   4.685 -0.2835 -0.2115 -0.2630
  291MOL0     C39156   4.371   8.416   4.725 -0.4199 -0.1930  0.6393
  291MOL0     C39157   4.285   8.310   4.738  0.0424 -0.0777  0.2255
  291MOL0     O39158   4.335   8.186   4.784  0.0412 -0.4680  0.5145
  291MOL0     C39159   4.244   8.072   4.782  0.5020 -0.9833  0.0629
  291MOL0     C39160   4.318   7.948   4.836 -0.3653 -0.3377  0.6751
  291MOL0     C39161   4.227   7.826   4.846 -0.4094 -0.7070 -0.6226
  291MOL0     C39162   4.304   7.717   4.929 -0.2396  0.3382 -0.3939
  291MOL0     C39163   4.200   7.614   4.975  0.0042  0.4671 -0.1956
  291MOL0     C39164   4.105   7.667   5.086  0.0932  0.1206  0.5838
  291MOL0     C39165   4.041   7.566   5.183 -0.7663  0.3482 -0.1416
  291MOL0     C39166   4.159   7.534   5.279 -0.7779 -0.5986 -1.1384
  291MOL0     N39167   4.150   7.559   5.423  0.3555  0.4838  0.2797
  291MOL0     C39168   4.040   7.544   5.486 -0.6233  0.4431 -0.3812
  291MOL0     C39169   4.075   7.513   5.608  0.5444  0.2627 -0.1216
  291MOL0     C39170   3.990   7.497   5.728 -0.6320 -0.0473 -0.9020
  291MOL0     C39171   3.928   7.353   5.724 -0.1507  0.3928  0.7580
  291MOL0     C39172   3.855   7.315   5.849  0.6511 -0.2688 -0.1263
  291MOL0     C39173   3.948   7.216   5.939 -0.2386 -0.2596  0.2115
  291MOL0     O39174   4.056   7.297   5.980 -0.3533 -0.3704 -0.2279
  291MOL0     C39175   4.157   7.225   6.036  0.1914 -0.3238 -0.5455
  291MOL0     C39176   4.174   7.082   6.056 -0.1874  0.3135 -0.7339
  291MOL0     C39177   4.303   7.028   6.090  0.5824  0.7256 -0.3614
  291MOL0     C39178   4.404   7.118   6.133  0.4392  0.0339  0.5413
  291MOL0     C39179   4.526   7.065   6.179 -0.2622  0.0081  0.1099
  291MOL0     O39180   4.528   6.941   6.234 -0.7175  0.9203 -1.1583
  291MOL0     C39181   4.648   6.911   6.289 -0.7054  0.4503  0.3964
  291MOL0     C39182   4.682   6.962   6.415  1.5501 -0.1231  0.2589
  291MOL0     C39183   4.802   6.927   6.482  0.3739 -0.2661 -0.2987
  291MOL0     C39184   4.886   6.840   6.408 -0.3596  1.1137 -0.0020
  291MOL0     O39185   4.996   6.788   6.464  0.7879 -0.0792  0.0611
  291MOL0     C39186   5.085   6.889   6.503 -0.1381 -0.5829  0.9003
  291MOL0     C39187   5.228   6.823   6.531 -0.0544 -0.6161 -0.9847
  291MOL0     C39188   5.321   6.918   6.606  0.2620  0.1930 -0.3702
  291MOL0     C39189   5.463   6.842   6.623  0.3272 -0.7189  0.1102
  291MOL0     C39190   5.553   6.934   6.699 -0.0620 -0.4818 -0.7503
  291MOL0     C39191   5.691   6.887   6.703 -0.5029  0.1777  0.3012
  291MOL0     C39192   5.796   6.967   6.774  0.6414  0.1340 -0.5130
  291MOL0     C39193   5.927   6.900   6.799  0.4423  0.8554 -0.1791
  291MOL0    Cl39194   5.991   6.815   6.652 -0.0599 -0.3219 -0.0888
  291MOL0     C39195   4.851   6.794   6.278  0.7880 -0.0196 -0.0778
  291MOL0     C39196   4.735   6.830   6.220  0.3047 -0.2310  0.2759
  291MOL0     O39197   4.624   7.137   6.186  0.6032 -0.3404 -0.2057
  291MOL0     C39198   4.382   7.249   6.110 -0.0631 -0.2200  0.5696
  291MOL0     C39199   4.261   7.298   6.066  0.3127  0.3576 -0.0585
  291MOL0     N39200   4.211   7.520   5.629  0.2669  0.1057  0.3488
  291MOL0     N39201   4.254   7.546   5.517 -0.3197 -0.3227  0.8865
  291MOL0     C39202   4.151   8.323   4.694  0.0607 -1.2193 -1.4538
  291MOL0     C39203   4.099   8.441   4.653  0.1811  0.4941 -1.0771
  291MOL0     C39204   4.126   8.849   4.457 -0.1157 -0.8936  0.5436
  291MOL0     C39205   4.029   8.911   4.542  1.0502 -0.1936  0.6999
  291MOL0     C39206   4.005   9.042   4.524 -0.3459  0.6992  0.6520
  291MOL0     C39207   4.050   9.112   4.413  0.1881  1.3777 -0.1167
  291MOL0     O39208   3.981   9.225   4.390 -0.3258  0.5434 -0.0787
  291MOL0     C39209   4.033   9.320   4.294 -0.8690  0.0893  0.0441
  291MOL0     C39210   3.959   9.454   4.320  0.0425  0.4756  0.1964
  291MOL0     C39211   3.802   9.468   4.310  0.2034  0.5501 -0.3276
  291MOL0     C39212   3.761   9.610   4.345  0.0454 -0.1687  0.0132
  291MOL0     C39213   3.789   9.642   4.481 -1.1304  0.3539 -0.7057
  291MOL0     C39214   3.806   9.653   4.597 -0.3331  0.2555 -0.4642
  291MOL0     C39215   4.154   9.051   4.339 -0.2173 -0.4610  0.3511
  291MOL0     C39216   4.187   8.922   4.354 -0.1955  0.0730  0.4739
  291MOL0     C39217   4.295   8.867   4.267  0.1246  0.6065 -0.8811
  291MOL0     H39218   4.384   8.626   4.675  0.8584 -0.9802  0.5700
  291MOL0     H39219   4.477   8.409   4.748 -0.9865  1.0846  4.2654
  291MOL0     H39220   4.151   8.088   4.839  0.6760  0.5478 -0.0324
  291MOL0     H39221   4.210   8.049   4.681 -1.6610 -0.0110  0.5020
  291MOL0     H39222   4.362   7.971   4.934 -0.1791  1.8061  0.1327
  291MOL0     H39223   4.403   7.923   4.772  0.2070 -2.2837  2.0876
  291MOL0     H39224   4.210   7.779   4.749  2.0098  0.4671 -1.7075
  291MOL0     H39225   4.138   7.865   4.897  2.1714  0.7344  3.1559
  291MOL0     H39226   4.390   7.662   4.889 -0.1833 -1.1856  1.6549
  291MOL0     H39227   4.348   7.773   5.012 -0.0095  2.6843 -2.0047
  291MOL0     H39228   4.132   7.577   4.897  1.1819  0.5231 -1.2745
  291MOL0     H39229   4.255   7.526   5.010  1.1296 -0.6437 -4.2528
  291MOL0     H39230   4.154   7.745   5.145 -0.7500  0.1209  1.3047
  291MOL0     H39231   4.015   7.703   5.035  0.7508  0.2812 -0.4839
  291MOL0     H39232   4.025   7.471   5.131  1.0384 -1.5201  2.4667
  291MOL0     H39233   3.955   7.614   5.230  0.4109  1.8428  0.5940
  291MOL0     H39234   4.157   7.425   5.278 -0.9553 -0.5998 -0.5993
  291MOL0     H39235   4.261   7.549   5.241 -0.6042 -1.8184 -1.1926
  291MOL0     H39236   3.934   7.549   5.461 -0.9914 -0.5564  0.8425
  291MOL0     H39237   4.052   7.504   5.818 -1.5824 -2.7475  0.0383
  291MOL0     H39238   3.914   7.572   5.754  0.0306 -0.1480  1.5630
  291MOL0     H39239   3.848   7.362   5.649 -0.2667 -1.8753  0.5215
  291MOL0     H39240   4.000   7.279   5.687 -1.8598 -1.8061  1.5288
  291MOL0     H39241   3.760   7.265   5.828  0.8878 -1.3226  1.1593
  291MOL0     H39242   3.817   7.403   5.902  0.7407  0.8237 -1.7984
  291MOL0     H39243   3.992   7.132   5.883  0.3167 -0.6476  1.1961
  291MOL0     H39244   3.895   7.165   6.020  1.9897 -0.3433  1.7040
  291MOL0     H39245   4.108   7.006   6.016  1.8292 -1.7017 -0.4448
  291MOL0     H39246   4.314   6.921   6.073 -0.6827  0.9251 -2.8576
  291MOL0     H39247   4.604   7.013   6.471  1.9999 -0.7175  1.4519
  291MOL0     H39248   4.835   6.969   6.576  0.0212  1.7092 -1.0112
  291MOL0     H39249   5.090   6.965   6.424 -1.0406 -1.0233  0.4013
  291MOL0     H39250   5.044   6.944   6.588 -1.4124 -2.7861  1.7737
  291MOL0     H39251   5.223   6.738   6.600  1.5291 -0.2086 -0.3134
  291MOL0     H39252   5.269   6.801   6.432  0.6752  0.6100 -0.9739
  291MOL0     H39253   5.337   7.010   6.549  0.1389  0.7377  0.4599
  291MOL0     H39254   5.285   6.950   6.704  2.9718 -1.6965  1.3729
  291MOL0     H39255   5.502   6.806   6.527 -0.1833 -2.0025  0.3636
  291MOL0     H39256   5.437   6.753   6.681  0.5350 -1.4577 -0.8960
  291MOL0     H39257   5.526   6.941   6.805  0.0428  0.0352 -0.7547
  291MOL0     H39258   5.548   7.030   6.647 -2.2686 -0.8297 -1.3032
  291MOL0     H39259   5.694   6.780   6.727 -1.1156 -0.0622 -0.6431
  291MOL0     H39260   5.720   6.879   6.598  0.2772 -2.6164  0.6374
  291MOL0     H39261   5.755   6.994   6.872 -0.1186  2.1239 -1.3218
  291MOL0     H39262   5.814   7.066   6.731  1.6020  0.8579  1.4161
  291MOL0     H39263   5.996   6.973   6.843 -0.4085 -0.3574  3.5527
  291MOL0     H39264   5.907   6.821   6.872  0.6716  0.4665 -0.5332
  291MOL0     H39265   4.922   6.738   6.218  0.3654 -0.0463 -0.5608
  291MOL0     H39266   4.699   6.789   6.126 -1.8623  0.8542  0.5815
  291MOL0     H39267   4.448   7.324   6.153 -1.8187  1.7436  0.0526
  291MOL0     H39268   4.248   7.406   6.062 -1.8465  0.0935 -3.7318
  291MOL0     H39269   4.085   8.238   4.685 -2.3757  0.1444  1.7782
  291MOL0     H39270   3.997   8.448   4.616 -0.4431 -1.5846  0.0934
  291MOL0     H39271   3.985   8.856   4.625 -0.9875 -0.0634 -0.2196
  291MOL0     H39272   3.942   9.089   4.598 -1.5074  1.0670 -0.5335
  291MOL0     H39273   4.004   9.295   4.192 -3.7644 -0.6286  0.9615
  291MOL0     H39274   4.141   9.331   4.312 -1.3303  5.0821  1.3025
  291MOL0     H39275   3.994   9.530   4.250 -1.4752  1.9737  0.9547
  291MOL0     H39276   3.989   9.495   4.417  2.9786  0.8838 -0.8091
  291MOL0     H39277   3.747   9.399   4.374  1.1014 -0.1811 -0.3298
  291MOL0     H39278   3.773   9.447   4.207 -1.1306 -0.3467  0.2096
  291MOL0     H39279   3.808   9.681   4.276 -2.9335  3.8307  1.6807
  291MOL0     H39280   3.653   9.621   4.339 -0.2450 -1.4589  2.0585
  291MOL0     H39281   3.827   9.656   4.702 -2.1176  0.9795 -0.0988
  291MOL0     H39282   4.199   9.096   4.251  0.7601 -0.4819  0.8229
  291MOL0     H39283   4.357   8.944   4.219  0.9885 -0.9164 -2.3110
  291MOL0     H39284   4.367   8.811   4.328  0.8331 -0.5641 -2.6971
  291MOL0     H39285   4.257   8.809   4.183 -1.8301 -1.1382  1.1021
  292MOL0     O39286   1.392   0.604   8.765 -0.2620  0.0712 -1.2730
  292MOL0     C39287   1.312   0.520   8.798 -0.4819 -0.4311  0.0045
  292MOL0     O39288   1.306   0.403   8.748 -0.4607  0.4580  1.1936
  292MOL0     C39289   1.400   0.351   8.664 -0.4630 -0.4681 -0.6758
  292MOL0     C39290   1.520   0.308   8.712  0.1947 -0.4278 -0.5438
  292MOL0     C39291   1.618   0.258   8.628  0.3846  1.7229  0.8435
  292MOL0     C39292   1.594   0.261   8.482 -1.1835 -0.0594  0.3292
  292MOL0     O39293   1.690   0.242   8.388 -0.0659 -0.2490  0.1890
  292MOL0     C39294   1.818   0.188   8.437 -0.5844  0.1684 -0.3430
  292MOL0     C39295   1.906   0.156   8.316  0.0429 -0.1932 -0.4550
  292MOL0     C39296   2.046   0.094   8.355 -0.1971  0.4882 -0.3989
  292MOL0     C39297   2.111   0.033   8.232  0.3069 -0.2165  0.2410
  292MOL0     C39298   2.260  -0.014   8.263  0.2280  0.3156 -0.1200
  292MOL0     C39299   2.361   0.106   8.286  0.6009 -0.2004 -0.2307
  292MOL0     C39300   2.500   0.057   8.331  0.4767 -0.4439  0.9418
  292MOL0     C39301   2.557  -0.039   8.217 -0.3058 -0.1455  0.4297
  292MOL0     N39302   2.700  -0.027   8.195 -0.1444  0.0619  0.4562
  292MOL0     C39303   2.797  -0.103   8.253 -0.1850  0.0210 -0.4002
  292MOL0     C39304   2.910  -0.028   8.239  0.1505  0.3551  0.7372
  292MOL0     C39305   3.041  -0.052   8.303 -0.0148  0.3964 -0.0795
  292MOL0     C39306   3.059   0.043   8.420 -0.0226 -0.2008 -0.3734
  292MOL0     C39307   3.207   0.040   8.484  0.4680  1.1042  0.9691
  292MOL0     C39308   3.299   0.147   8.449 -0.3637  0.9446 -0.6962
  292MOL0     O39309   3.399   0.156   8.554  0.3243 -0.0959  0.6663
  292MOL0     C39310   3.513   0.230   8.533 -0.1723  0.2111  0.5055
  292MOL0     C39311   3.594   0.228   8.413 -0.4714  0.6768  0.7858
  292MOL0     C39312   3.706   0.305   8.416 -0.6977 -0.0493 -0.3011
  292MOL0     C39313   3.742   0.393   8.522  0.1012 -0.9924 -0.1367
  292MOL0     C39314   3.865   0.477   8.508  0.1688 -0.6534  0.2277
  292MOL0     O39315   3.958   0.451   8.418  0.1871  0.5592  0.8324
  292MOL0     C39316   4.056   0.543   8.404  1.6265  0.4735  0.5660
  292MOL0     C39317   4.183   0.499   8.391 -0.5034 -0.1352 -0.4196
  292MOL0     C39318   4.290   0.590   8.362  0.3515  0.4187  0.1606
  292MOL0     C39319   4.266   0.723   8.340  0.9419  0.3493 -0.6179
  292MOL0     O39320   4.370   0.809   8.328 -0.0388  0.7050 -0.4399
  292MOL0     C39321   4.368   0.866   8.194  0.3001 -0.6576 -0.8194
  292MOL0     C39322   4.501   0.945   8.170  0.3486  0.6635  0.5084
  292MOL0     C39323   4.500   1.026   8.039 -0.3888  0.1751 -0.3407
  292MOL0     C39324   4.640   1.106   8.026  0.4684  0.4042  0.0553
  292MOL0     C39325   4.633   1.201   7.904  0.1016  0.3909 -0.3141
  292MOL0     C39326   4.629   1.123   7.772 -0.2764  0.9886 -0.3724
  292MOL0     C39327   4.629   1.207   7.646 -0.0447 -0.0761 -0.4992
  292MOL0     C39328   4.536   1.151   7.540  0.6093 -0.0730 -0.8026
  292MOL0    Cl39329   4.555   1.245   7.387  0.0022  0.0666 -0.1899
  292MOL0     C39330   4.130   0.766   8.340  0.2909 -0.7651  0.2372
  292MOL0     C39331   4.030   0.674   8.374  1.0763  0.4348  0.3145
  292MOL0     O39332   3.876   0.551   8.601  0.0404 -1.1945  1.0878
  292MOL0     C39333   3.651   0.409   8.634 -0.0140  0.2844 -0.1499
  292MOL0     C39334   3.539   0.318   8.643 -0.4843  0.2928  0.5896
  292MOL0     N39335   2.881   0.075   8.153  0.2823  0.4192  0.3059
  292MOL0     N39336   2.754   0.082   8.126 -0.1101  1.1965  0.6439
  292MOL0     C39337   1.480   0.317   8.436  0.5576  0.5431  0.8113
  292MOL0     C39338   1.381   0.361   8.523 -0.0097  0.1063 -0.5749
  292MOL0     C39339   1.209   0.552   8.895  0.5768 -0.2896 -0.0652
  292MOL0     C39340   1.114   0.646   8.861 -0.0019  0.5686 -0.5554
  292MOL0     C39341   1.008   0.684   8.949  0.0780 -0.1725 -0.0153
  292MOL0     C39342   0.990   0.631   9.075 -0.2984 -0.4043  0.4762
  292MOL0     O39343   0.878   0.660   9.152 -0.3798  0.1893 -0.0121
  292MOL0     C39344   0.864   0.619   9.282 -0.0145  0.3887 -0.5679
  292MOL0     C39345   0.729   0.689   9.342  0.6250 -0.4745 -0.0859
  292MOL0     C39346   0.600   0.654   9.278  0.9440 -0.4824 -0.4219
  292MOL0     C39347   0.477   0.730   9.335 -0.5970  0.8644 -0.6767
  292MOL0     C39348   0.482   0.739   9.483  0.1895  0.3927 -0.1479
  292MOL0     C39349   0.462   0.761   9.600 -0.3791  0.1413  0.9559
  292MOL0     C39350   1.095   0.537   9.111  1.0038  0.6261  0.5366
  292MOL0     C39351   1.199   0.496   9.024 -0.0588  0.3072 -0.2298
  292MOL0     C39352   1.280   0.377   9.059 -1.3078  0.0747  0.3264
  292MOL0     H39353   1.528   0.303   8.820 -0.7622  3.7196 -0.1283
  292MOL0     H39354   1.703   0.205   8.670  0.0263 -1.9125 -2.4566
  292MOL0     H39355   1.871   0.263   8.496  1.4185  1.3860 -3.3886
  292MOL0     H39356   1.803   0.090   8.483 -0.1635  0.6387  0.8162
  292MOL0     H39357   1.912   0.235   8.241 -0.8543  1.9712  1.6116
  292MOL0     H39358   1.833   0.086   8.275  0.0051 -1.4731  1.6607
  292MOL0     H39359   2.032   0.010   8.424  1.6810 -0.1681 -0.7478
  292MOL0     H39360   2.103   0.178   8.396  0.5754 -0.4398  0.4706
  292MOL0     H39361   2.051  -0.057   8.216 -0.3839 -0.0550  1.7603
  292MOL0     H39362   2.114   0.101   8.146 -1.5012 -0.3545  0.0280
  292MOL0     H39363   2.262  -0.060   8.362  2.8825 -1.2875 -0.8036
  292MOL0     H39364   2.288  -0.092   8.191 -2.2835  0.5999 -1.5020
  292MOL0     H39365   2.364   0.170   8.197 -2.4208  0.1117 -0.2065
  292MOL0     H39366   2.324   0.172   8.365  0.7164  1.7069 -1.6951
  292MOL0     H39367   2.505   0.004   8.426 -1.2247 -0.1966  1.1980
  292MOL0     H39368   2.565   0.145   8.338  1.2785 -0.6976 -1.8397
  292MOL0     H39369   2.528  -0.144   8.230  1.4871 -0.7238  0.1625
  292MOL0     H39370   2.516  -0.002   8.123 -0.2643 -0.3885  0.3143
  292MOL0     H39371   2.782  -0.191   8.314 -3.1377  0.5263 -0.2715
  292MOL0     H39372   3.038  -0.154   8.344  1.1934  1.0181  1.6642
  292MOL0     H39373   3.119  -0.062   8.226  0.8677 -1.6717  1.0022
  292MOL0     H39374   3.024   0.145   8.405  0.1866 -0.0057  0.4587
  292MOL0     H39375   2.992  -0.001   8.494 -0.5722  0.2945 -0.5710
  292MOL0     H39376   3.259  -0.054   8.466  2.5707  1.8948  2.3858
  292MOL0     H39377   3.193   0.046   8.593 -2.2389  1.4872  0.6642
  292MOL0     H39378   3.257   0.245   8.424 -2.4619  0.1862 -0.3253
  292MOL0     H39379   3.352   0.112   8.360  1.6110  2.9894 -0.4070
  292MOL0     H39380   3.576   0.179   8.318 -1.1130  1.5410  0.4507
  292MOL0     H39381   3.765   0.293   8.326 -0.0997  0.2718  0.0393
  292MOL0     H39382   4.205   0.393   8.402 -0.5119  0.0018  1.2569
  292MOL0     H39383   4.389   0.546   8.356 -0.2209 -0.6652 -3.1557
  292MOL0     H39384   4.357   0.794   8.112  2.6615  0.1723 -1.9615
  292MOL0     H39385   4.289   0.941   8.184  3.2668  2.7251 -1.1286
  292MOL0     H39386   4.522   1.007   8.257  0.5861  0.1136  0.8535
  292MOL0     H39387   4.581   0.871   8.164  2.1554  2.3480  2.5210
  292MOL0     H39388   4.494   0.955   7.956 -1.6060 -0.2076  0.0549
  292MOL0     H39389   4.407   1.083   8.035 -1.0774 -0.5961  2.4671
  292MOL0     H39390   4.725   1.040   8.012 -1.2403 -2.2638  1.4483
  292MOL0     H39391   4.659   1.172   8.111  2.7636  2.8749 -2.1816
  292MOL0     H39392   4.726   1.259   7.910  0.1341  0.2036  3.2877
  292MOL0     H39393   4.549   1.271   7.909 -0.6989 -0.6011  0.7250
  292MOL0     H39394   4.720   1.061   7.771 -0.8729  0.0982 -1.0332
  292MOL0     H39395   4.545   1.053   7.768  0.7036 -0.4827  2.0865
  292MOL0     H39396   4.732   1.202   7.612  0.4387  3.3547  0.0625
  292MOL0     H39397   4.603   1.312   7.664 -0.0092 -0.4751  2.4067
  292MOL0     H39398   4.557   1.046   7.519 -1.2693 -1.4930  3.3745
  292MOL0     H39399   4.434   1.155   7.580  0.5461 -1.4816 -0.7800
  292MOL0     H39400   4.099   0.870   8.344  0.0887 -0.6742 -2.3471
  292MOL0     H39401   3.931   0.718   8.374  0.8627 -0.0455 -0.6324
  292MOL0     H39402   3.682   0.466   8.721  1.4654  0.0496 -0.4983
  292MOL0     H39403   3.475   0.339   8.728 -1.4414  1.4203 -0.3755
  292MOL0     H39404   1.469   0.336   8.329 -2.1913 -0.1215  0.9164
  292MOL0     H39405   1.298   0.420   8.487 -0.3653  0.4810  0.7737
  292MOL0     H39406   1.105   0.692   8.762  3.1912  2.6531 -0.0253
  292MOL0     H39407   0.934   0.757   8.915 -0.9332 -1.2322 -0.1634
  292MOL0     H39408   0.954   0.654   9.333 -0.8131  2.1612 -0.3258
  292MOL0     H39409   0.850   0.512   9.302 -1.5021  0.5604 -0.6487
  292MOL0     H39410   0.736   0.797   9.331 -1.5897  0.1928  3.2302
  292MOL0     H39411   0.729   0.673   9.451 -1.0129 -0.6398 -0.0714
  292MOL0     H39412   0.582   0.546   9.269 -1.8148 -0.0015 -1.9175
  292MOL0     H39413   0.603   0.690   9.175  1.1302 -2.8253 -1.3109
  292MOL0     H39414   0.473   0.834   9.303  1.6214  1.2526  0.1080
  292MOL0     H39415   0.382   0.694   9.296 -1.4678  2.0769  0.2606
  292MOL0     H39416   0.431   0.781   9.700 -4.3644  0.4796 -0.1525
  292MOL0     H39417   1.075   0.474   9.197  1.0012 -1.8523 -1.1818
  292MOL0     H39418   1.296   0.376   9.167 -1.9800  2.1410  0.4971
  292MOL0     H39419   1.244   0.279   9.028 -0.8857 -0.6473  2.0149
  292MOL0     H39420   1.376   0.411   9.020 -0.9981  1.4189  2.1222
  293MOL0     O39421   0.052   7.371   6.639 -0.2347  0.0724  0.1629
  293MOL0     C39422   0.001   7.479   6.635  0.3606 -0.1682 -0.2737
  293MOL0     O39423   0.064   7.595   6.615  0.6730  0.2645  0.0985
  293MOL0     C39424   0.194   7.604   6.567  0.3453 -0.7760  0.4596
  293MOL0     C39425   0.258   7.502   6.482 -0.2671 -0.4409  0.1115
  293MOL0     C39426   0.382   7.527   6.426 -0.8354  0.2409  0.8365
  293MOL0     C39427   0.454   7.639   6.457 -1.1260 -0.1064  0.6628
  293MOL0     O39428   0.583   7.642   6.395  0.3712 -0.0222  0.1980
  293MOL0     C39429   0.652   7.768   6.405 -0.4283  0.0011 -0.3972
  293MOL0     C39430   0.786   7.762   6.319 -1.3047  0.4819 -0.1826
  293MOL0     C39431   0.878   7.667   6.381 -0.4840 -0.2571 -0.0067
  293MOL0     C39432   1.020   7.689   6.328 -0.1369  1.1706 -0.6203
  293MOL0     C39433   1.120   7.589   6.383  0.8986  0.0635 -0.9148
  293MOL0     C39434   1.142   7.594   6.539 -0.0757  0.5873 -0.0551
  293MOL0     C39435   1.220   7.473   6.600 -0.0176  1.2684  1.0007
  293MOL0     C39436   1.336   7.427   6.503 -0.8273 -0.6082 -0.6732
  293MOL0     N39437   1.442   7.536   6.487 -0.5034 -0.1802  0.0220
  293MOL0     C39438   1.580   7.501   6.468  0.0081 -0.0338  0.1866
  293MOL0     C39439   1.638   7.611   6.426  0.0767 -0.5187 -0.2469
  293MOL0     C39440   1.779   7.620   6.393  0.9063  1.0023 -0.7979
  293MOL0     C39441   1.843   7.765   6.400  0.4359 -0.3842 -0.1343
  293MOL0     C39442   1.822   7.845   6.268 -0.2760 -0.5311 -0.7247
  293MOL0     C39443   1.941   7.830   6.171  0.1999 -0.2353  0.3844
  293MOL0     O39444   2.026   7.930   6.224  0.4706  0.4578 -0.0126
  293MOL0     C39445   2.159   7.913   6.203 -0.0711  0.5830  0.5302
  293MOL0     C39446   2.218   7.841   6.092 -0.1508  0.3873  0.4867
  293MOL0     C39447   2.356   7.844   6.059  0.2019 -0.3612 -0.2495
  293MOL0     C39448   2.444   7.912   6.141  0.6946  0.2533  0.1782
  293MOL0     C39449   2.584   7.919   6.104 -0.9549 -0.1606 -0.2066
  293MOL0     O39450   2.623   7.890   5.978 -0.1329  0.4740  0.5705
  293MOL0     C39451   2.750   7.918   5.946 -0.6152  0.5248 -0.2275
  293MOL0     C39452   2.809   8.043   5.971  0.0359  0.4987  0.1598
  293MOL0     C39453   2.928   8.078   5.917  0.6106 -0.1497  0.3066
  293MOL0     C39454   3.000   7.990   5.842  0.7842  0.5745 -0.4924
  293MOL0     O39455   3.113   8.035   5.788 -0.1545  0.5652  0.2989
  293MOL0     C39456   3.122   8.031   5.646  0.6095  0.3318 -0.4683
  293MOL0     C39457   3.266   8.043   5.620  0.7068  0.4015 -0.3036
  293MOL0     C39458   3.347   7.926   5.675 -0.0417  0.5207 -0.0548
  293MOL0     C39459   3.489   7.928   5.604  0.1890  0.3605  0.7977
  293MOL0     C39460   3.587   7.853   5.692  0.1584 -0.4851 -0.1199
  293MOL0     C39461   3.716   7.807   5.616  0.1699 -0.1966 -0.1287
  293MOL0     C39462   3.819   7.925   5.588  0.5726  0.0830 -0.2031
  293MOL0     C39463   3.889   7.908   5.467  0.1679 -0.2616 -0.1649
  293MOL0    Cl39464   3.770   7.932   5.333  0.1925  0.7680  0.0067
  293MOL0     C39465   2.955   7.857   5.843 -0.0243 -0.2520  1.7361
  293MOL0     C39466   2.830   7.830   5.885  0.9408  0.0442 -0.0175
  293MOL0     O39467   2.664   7.949   6.200  0.4453  0.0522 -0.7295
  293MOL0     C39468   2.385   7.966   6.258 -0.2979 -0.1377 -0.1730
  293MOL0     C39469   2.247   7.966   6.280 -0.4928  0.1505  0.7564
  293MOL0     N39470   1.539   7.712   6.426 -0.2653  0.0288 -1.4214
  293MOL0     N39471   1.424   7.665   6.455 -0.9163 -0.0737  0.1749
  293MOL0     C39472   0.386   7.741   6.531 -0.0007 -0.0668  0.8335
  293MOL0     C39473   0.261   7.725   6.587  0.0970  0.0368  0.2464
  293MOL0     C39474  -0.136   7.482   6.688 -0.4951 -1.2629  0.6227
  293MOL0     C39475  -0.214   7.590   6.644  0.0632 -0.1455  0.7307
  293MOL0     C39476  -0.349   7.595   6.694 -0.5673  0.1919  0.0491
  293MOL0     C39477  -0.402   7.499   6.784  0.8481 -0.1441  0.0520
  293MOL0     O39478  -0.533   7.508   6.847 -0.2026 -0.3896  1.0116
  293MOL0     C39479  -0.604   7.395   6.900 -0.4513 -0.0408  0.3874
  293MOL0     C39480  -0.754   7.433   6.939  0.0698 -0.3909 -0.2958
  293MOL0     C39481  -0.807   7.564   6.866 -0.1982 -0.1641  0.2411
  293MOL0     C39482  -0.959   7.569   6.857 -0.0224 -0.5007 -0.6631
  293MOL0     C39483  -1.033   7.568   6.982  1.3273  0.2848  0.1335
  293MOL0     C39484  -1.098   7.579   7.088  0.1996 -0.0036  0.7315
  293MOL0     C39485  -0.322   7.395   6.820  0.7790 -0.6584  0.0286
  293MOL0     C39486  -0.185   7.384   6.781  0.3676  0.3076 -0.3523
  293MOL0     C39487  -0.110   7.261   6.845  1.1017 -0.1607  0.0357
  293MOL0     H39488   0.232   7.398   6.467 -1.7222 -0.1546  0.4949
  293MOL0     H39489   0.429   7.450   6.366 -0.6956  2.1657 -1.6793
  293MOL0     H39490   0.595   7.855   6.371  0.7191  1.0039  0.1687
  293MOL0     H39491   0.668   7.783   6.512  0.0377  0.0984 -0.4792
  293MOL0     H39492   0.837   7.859   6.319  0.9106 -0.6157 -0.7425
  293MOL0     H39493   0.767   7.744   6.213  2.0932  1.2453 -1.0226
  293MOL0     H39494   0.847   7.564   6.364  1.5575 -1.2129  1.6488
  293MOL0     H39495   0.872   7.674   6.490  1.6003  0.8745  0.0851
  293MOL0     H39496   1.022   7.676   6.219 -2.3549 -0.1287 -0.5677
  293MOL0     H39497   1.066   7.785   6.352  0.4655  1.2114 -1.8743
  293MOL0     H39498   1.076   7.490   6.369 -1.0482  0.3755  1.8903
  293MOL0     H39499   1.209   7.608   6.324 -0.3480 -0.4143 -3.0400
  293MOL0     H39500   1.187   7.688   6.572 -1.5931  0.5632  2.2939
  293MOL0     H39501   1.039   7.597   6.577 -1.2819  4.2044 -2.9654
  293MOL0     H39502   1.158   7.385   6.620  0.7337 -0.2039 -2.5475
  293MOL0     H39503   1.260   7.511   6.695 -1.1974  4.2434  0.4307
  293MOL0     H39504   1.386   7.336   6.539  0.3680 -0.4513 -1.8876
  293MOL0     H39505   1.294   7.397   6.407 -2.8235 -0.6502  0.1454
  293MOL0     H39506   1.637   7.411   6.491  2.7228  0.9519 -2.1463
  293MOL0     H39507   1.831   7.553   6.462 -0.8952  1.4447  1.1046
  293MOL0     H39508   1.796   7.568   6.299  0.6324  1.9227 -1.3722
  293MOL0     H39509   1.810   7.824   6.486  1.4456 -0.5255  0.3663
  293MOL0     H39510   1.946   7.750   6.432  0.9900  3.0333  0.0489
  293MOL0     H39511   1.807   7.953   6.276  2.6974 -0.0901 -0.1731
  293MOL0     H39512   1.742   7.805   6.205 -1.3885  2.1943 -1.1973
  293MOL0     H39513   1.912   7.851   6.067 -1.1712 -1.6187  0.4492
  293MOL0     H39514   1.963   7.723   6.173  0.4148 -0.1899  0.4548
  293MOL0     H39515   2.159   7.775   6.029  0.9547 -1.5525  1.3726
  293MOL0     H39516   2.403   7.803   5.971  1.8403  0.2123  0.3142
  293MOL0     H39517   2.757   8.126   6.018  1.9658  1.1150  1.3435
  293MOL0     H39518   2.970   8.178   5.924 -2.1060  1.0631  0.4839
  293MOL0     H39519   3.090   7.933   5.610 -1.4053 -0.2124  2.4663
  293MOL0     H39520   3.059   8.107   5.601  1.9869  1.5636 -0.4153
  293MOL0     H39521   3.287   8.061   5.514 -0.0163  2.5357 -0.1206
  293MOL0     H39522   3.296   8.136   5.667 -2.7783  1.3886  0.2926
  293MOL0     H39523   3.367   7.924   5.782  3.3034 -2.5667 -0.5364
  293MOL0     H39524   3.301   7.829   5.652 -1.2091  1.1316 -0.3852
  293MOL0     H39525   3.522   8.031   5.586  2.4331 -0.9601 -4.7400
  293MOL0     H39526   3.488   7.880   5.506  0.5033  0.2587  0.8412
  293MOL0     H39527   3.535   7.765   5.729 -0.2833  0.2416  1.0339
  293MOL0     H39528   3.618   7.916   5.776 -0.1183 -0.0311 -0.3465
  293MOL0     H39529   3.765   7.732   5.679  2.9979  1.0832 -0.6618
  293MOL0     H39530   3.688   7.759   5.521 -1.7616 -0.4934  0.5315
  293MOL0     H39531   3.899   7.915   5.662  0.8482 -2.8383 -0.7810
  293MOL0     H39532   3.769   8.022   5.599 -0.3306 -0.4937  0.9627
  293MOL0     H39533   3.979   7.969   5.462  0.1483 -0.1657  0.4832
  293MOL0     H39534   3.938   7.811   5.454  1.9312  0.1855  2.3532
  293MOL0     H39535   3.007   7.769   5.806  0.6349  0.8180 -0.0140
  293MOL0     H39536   2.781   7.736   5.860 -0.8869  1.1986 -0.9102
  293MOL0     H39537   2.453   8.011   6.330  1.1586 -1.1979 -0.8465
  293MOL0     H39538   2.222   8.013   6.375  1.2322  0.9458  0.8481
  293MOL0     H39539   0.450   7.827   6.550 -0.8529  0.4841  1.2637
  293MOL0     H39540   0.214   7.806   6.642 -0.5665  0.2499 -0.6105
  293MOL0     H39541  -0.182   7.664   6.571  1.7843 -1.8476 -0.3554
  293MOL0     H39542  -0.401   7.690   6.682 -0.1566  0.2769 -1.2890
  293MOL0     H39543  -0.545   7.357   6.984 -1.7053 -0.9201  0.9145
  293MOL0     H39544  -0.616   7.327   6.816  2.5073 -0.5963  0.3293
  293MOL0     H39545  -0.757   7.466   7.043 -1.6579 -1.0507 -0.0983
  293MOL0     H39546  -0.823   7.350   6.921 -0.8680  0.4651 -0.7949
  293MOL0     H39547  -0.767   7.561   6.765 -2.2815 -0.6631 -0.6258
  293MOL0     H39548  -0.776   7.654   6.920  1.6939  0.2891 -1.5077
  293MOL0     H39549  -0.989   7.661   6.806 -2.7023 -1.5264 -1.0976
  293MOL0     H39550  -0.989   7.479   6.803 -0.8904 -0.1764 -0.7267
  293MOL0     H39551  -1.131   7.592   7.189  0.8589 -0.5359  1.0247
  293MOL0     H39552  -0.358   7.327   6.896 -1.1539  1.0622  0.7238
  293MOL0     H39553  -0.178   7.193   6.897 -0.4287  2.0198  0.9962
  293MOL0     H39554  -0.070   7.193   6.769  0.4876 -3.5555  2.5223
  293MOL0     H39555  -0.027   7.297   6.907  0.4767 -1.8839  1.9875
  294MOL0     O39556   2.997   4.284   5.648  0.4633  0.9653 -0.2550
  294MOL0     C39557   3.005   4.327   5.535  0.4859  0.1759 -0.5885
  294MOL0     O39558   3.119   4.349   5.467  0.1249 -0.1045  0.3672
  294MOL0     C39559   3.244   4.357   5.529  0.4590 -0.1114 -0.3659
  294MOL0     C39560   3.361   4.330   5.453  0.6806 -0.4824 -0.2437
  294MOL0     C39561   3.493   4.335   5.500 -1.1196  0.1480 -0.4674
  294MOL0     C39562   3.508   4.353   5.640 -0.3099 -0.0842  0.1898
  294MOL0     O39563   3.631   4.347   5.690 -0.0183  0.3908 -0.4495
  294MOL0     C39564   3.663   4.226   5.763  0.7329 -0.3255  0.0010
  294MOL0     C39565   3.791   4.266   5.836 -0.5159  0.6853  0.1979
  294MOL0     C39566   3.862   4.157   5.913  0.0787  0.7703  0.1771
  294MOL0     C39567   3.946   4.198   6.040  0.0891 -0.4131  0.6311
  294MOL0     C39568   4.070   4.266   5.995 -0.1343  0.4351 -0.0123
  294MOL0     C39569   4.166   4.298   6.111 -0.0445  0.6021 -0.5747
  294MOL0     C39570   4.284   4.358   6.035  0.2021  0.1442  0.2283
  294MOL0     C39571   4.397   4.399   6.120 -0.0686  0.1212  1.5757
  294MOL0     N39572   4.517   4.433   6.048  0.2115 -0.3584  0.3627
  294MOL0     C39573   4.534   4.521   5.943 -0.2732  0.0116 -0.5270
  294MOL0     C39574   4.662   4.502   5.911  0.0091  0.0068 -0.7579
  294MOL0     C39575   4.733   4.549   5.796 -0.4317 -0.4231 -0.5107
  294MOL0     C39576   4.817   4.439   5.728 -0.1085  0.4624  0.2393
  294MOL0     C39577   4.950   4.419   5.804  0.6507  0.0949 -0.2227
  294MOL0     C39578   5.038   4.328   5.725  0.1045  0.4166 -0.1169
  294MOL0     O39579   5.156   4.297   5.795 -0.4696 -0.6247  0.5092
  294MOL0     C39580   5.231   4.199   5.744 -0.4307 -0.1002  0.1569
  294MOL0     C39581   5.219   4.068   5.797  0.2642 -0.1537  0.4408
  294MOL0     C39582   5.290   3.965   5.737  0.0775 -0.0767 -0.7641
  294MOL0     C39583   5.390   3.989   5.639  0.7797 -0.0461 -0.0128
  294MOL0     C39584   5.463   3.876   5.578  0.5278  0.6380 -0.1001
  294MOL0     O39585   5.441   3.747   5.622  0.8394 -0.6135  0.6367
  294MOL0     C39586   5.463   3.643   5.540 -0.4002 -0.5495 -0.6191
  294MOL0     C39587   5.459   3.533   5.610 -0.0251 -0.0405 -0.3045
  294MOL0     C39588   5.473   3.408   5.546  0.0427  0.3125 -0.0486
  294MOL0     C39589   5.498   3.396   5.412 -0.3829 -0.0815  0.5223
  294MOL0     O39590   5.532   3.265   5.367  0.2426 -0.6471 -0.1513
  294MOL0     C39591   5.518   3.231   5.223 -0.5806  0.7402 -0.4261
  294MOL0     C39592   5.528   3.079   5.202  0.1306 -0.1879 -0.7534
  294MOL0     C39593   5.671   3.024   5.224 -0.1905  0.0964  0.0699
  294MOL0     C39594   5.684   2.870   5.243 -0.1083  0.3291 -0.3583
  294MOL0     C39595   5.819   2.812   5.281  0.4058 -0.0866 -0.3583
  294MOL0     C39596   5.858   2.859   5.420  0.9171  0.2211 -0.7396
  294MOL0     C39597   5.986   2.786   5.476 -0.2809 -0.5241 -0.0318
  294MOL0     C39598   6.010   2.798   5.623  0.2274 -0.0638  0.1813
  294MOL0    Cl39599   5.888   2.687   5.705  0.0069 -0.1426 -0.1103
  294MOL0     C39600   5.504   3.514   5.334 -0.1626 -0.5592  0.0164
  294MOL0     C39601   5.470   3.639   5.398  0.0051  0.4924  0.4143
  294MOL0     O39602   5.549   3.908   5.497  0.2998  0.0579  0.4711
  294MOL0     C39603   5.413   4.116   5.605 -0.6733 -0.7923  0.6528
  294MOL0     C39604   5.335   4.223   5.652 -0.6323  0.5707  0.4376
  294MOL0     N39605   4.717   4.405   5.995  0.6832 -0.2160  0.3834
  294MOL0     N39606   4.625   4.357   6.068 -0.5905  0.9218  0.5196
  294MOL0     C39607   3.390   4.371   5.713 -0.2946  0.3193  0.2464
  294MOL0     C39608   3.262   4.369   5.670 -0.3743 -0.4583  0.1065
  294MOL0     C39609   2.874   4.362   5.466 -0.1327  0.0408  0.6601
  294MOL0     C39610   2.763   4.315   5.529 -0.0870  0.8569 -0.1989
  294MOL0     C39611   2.642   4.311   5.459  0.2308 -0.3091  0.4009
  294MOL0     C39612   2.629   4.366   5.330  0.6006  0.9242 -1.7851
  294MOL0     O39613   2.504   4.343   5.281 -0.2026 -0.6316 -0.2813
  294MOL0     C39614   2.479   4.369   5.144  0.5824 -0.1279  1.1849
  294MOL0     C39615   2.536   4.256   5.061 -0.6148 -0.3259  0.1663
  294MOL0     C39616   2.496   4.250   4.912 -0.3495 -0.0748  0.6167
  294MOL0     C39617   2.349   4.199   4.904  0.1962  0.8826 -0.4944
  294MOL0     C39618   2.327   4.050   4.926 -0.2641 -0.2235  0.4503
  294MOL0     C39619   2.302   3.929   4.930 -0.8793 -0.4734 -0.4543
  294MOL0     C39620   2.735   4.435   5.272 -0.5232 -0.4787  0.5548
  294MOL0     C39621   2.860   4.430   5.336 -0.0857  0.2086 -0.4313
  294MOL0     C39622   2.973   4.506   5.274 -0.1698  0.5528 -1.0190
  294MOL0     H39623   3.343   4.311   5.348  0.5113  0.2357 -0.3523
  294MOL0     H39624   3.576   4.301   5.439 -0.2866 -0.4654  0.9456
  294MOL0     H39625   3.582   4.197   5.831  0.2908  0.0939 -0.3455
  294MOL0     H39626   3.676   4.139   5.697  1.6454 -1.7811  1.9750
  294MOL0     H39627   3.763   4.348   5.902 -2.2635 -0.1623  0.5759
  294MOL0     H39628   3.860   4.303   5.759  1.0153  1.4420  1.8754
  294MOL0     H39629   3.928   4.104   5.844  0.3125 -1.4127  1.9768
  294MOL0     H39630   3.791   4.088   5.959 -0.9493  2.3155  0.9801
  294MOL0     H39631   3.889   4.268   6.102 -1.1750  2.1124 -3.0387
  294MOL0     H39632   3.957   4.103   6.093 -0.2782 -1.1896 -0.6430
  294MOL0     H39633   4.119   4.201   5.921 -0.7272  1.6662 -1.5384
  294MOL0     H39634   4.043   4.360   5.947 -0.3033  0.3342 -0.1134
  294MOL0     H39635   4.126   4.364   6.189  0.9394  0.8114 -0.2326
  294MOL0     H39636   4.209   4.209   6.158  0.0400  1.0316  0.1794
  294MOL0     H39637   4.254   4.449   5.982  0.5728  2.1679  3.2720
  294MOL0     H39638   4.320   4.287   5.959 -2.1438 -1.7366  0.7211
  294MOL0     H39639   4.370   4.489   6.176  1.1982 -0.4315  3.1693
  294MOL0     H39640   4.416   4.319   6.192 -2.5289 -2.0353  0.0109
  294MOL0     H39641   4.462   4.592   5.904 -2.0102 -0.1701  2.1305
  294MOL0     H39642   4.665   4.590   5.721  1.5893 -0.9968 -2.7590
  294MOL0     H39643   4.796   4.628   5.838 -0.7633  0.2068 -1.1750
  294MOL0     H39644   4.758   4.349   5.713  0.2273 -0.1311  2.2106
  294MOL0     H39645   4.833   4.465   5.623 -0.7423 -0.7125 -0.1614
  294MOL0     H39646   4.934   4.378   5.904  0.0797 -0.0922 -0.3848
  294MOL0     H39647   5.000   4.516   5.807 -0.1228  0.5225 -0.7262
  294MOL0     H39648   5.070   4.391   5.641  0.1405  1.8602  0.9262
  294MOL0     H39649   4.984   4.237   5.697  0.4268  0.2363 -0.1512
  294MOL0     H39650   5.145   4.037   5.870 -1.1591 -0.9221 -1.2545
  294MOL0     H39651   5.277   3.866   5.779  1.7185 -0.1018 -0.2061
  294MOL0     H39652   5.426   3.539   5.714  0.8260  1.2632 -0.0786
  294MOL0     H39653   5.469   3.322   5.613 -0.6353  0.4605  0.1072
  294MOL0     H39654   5.420   3.271   5.194 -1.9165  0.5440  3.2454
  294MOL0     H39655   5.601   3.278   5.169  1.1996 -0.1821  1.3649
  294MOL0     H39656   5.472   3.040   5.288  0.5456  0.9139  0.0398
  294MOL0     H39657   5.493   3.049   5.103  1.9189 -1.3774 -1.0815
  294MOL0     H39658   5.711   3.032   5.123  0.6865 -0.6115  0.3398
  294MOL0     H39659   5.732   3.082   5.294 -0.8183 -3.8680  4.4175
  294MOL0     H39660   5.645   2.818   5.155  1.4850 -0.0775 -0.8542
  294MOL0     H39661   5.624   2.832   5.326  2.0932 -1.3713  0.5598
  294MOL0     H39662   5.885   2.839   5.199  1.5275 -2.0998 -0.1700
  294MOL0     H39663   5.815   2.703   5.281  0.8555 -0.1031 -0.3522
  294MOL0     H39664   5.868   2.967   5.426  2.6944  0.1823 -2.2745
  294MOL0     H39665   5.772   2.836   5.484 -0.7677  3.6595 -1.5436
  294MOL0     H39666   6.070   2.825   5.418 -1.4387 -0.0629 -1.4625
  294MOL0     H39667   5.978   2.680   5.451  0.2999 -0.6814  0.4274
  294MOL0     H39668   6.109   2.756   5.640 -0.1979 -1.1187  0.1147
  294MOL0     H39669   6.000   2.899   5.664 -0.7294  0.3907 -1.1288
  294MOL0     H39670   5.516   3.507   5.226 -0.9695 -0.1596 -0.1122
  294MOL0     H39671   5.456   3.724   5.331 -0.9881  1.5855  1.9600
  294MOL0     H39672   5.492   4.141   5.536  2.5103 -0.1690  4.1947
  294MOL0     H39673   5.350   4.322   5.610 -0.9484  0.4039 -0.0708
  294MOL0     H39674   3.396   4.390   5.820 -1.5044  1.4349  0.1521
  294MOL0     H39675   3.186   4.377   5.747 -0.1332  1.4011  0.2100
  294MOL0     H39676   2.772   4.266   5.626  2.0594 -3.3212 -2.2106
  294MOL0     H39677   2.552   4.267   5.502 -2.0003  2.8205 -0.6630
  294MOL0     H39678   2.521   4.463   5.105 -0.1465 -1.2440 -2.6907
  294MOL0     H39679   2.371   4.375   5.131  0.8052 -0.8480 -1.6749
  294MOL0     H39680   2.501   4.160   5.102  0.8957  0.6163  4.0900
  294MOL0     H39681   2.644   4.266   5.072 -0.2666  0.1605 -2.8800
  294MOL0     H39682   2.562   4.178   4.862 -1.0414 -0.7291  0.6190
  294MOL0     H39683   2.515   4.351   4.875 -1.8232  0.2897  0.7747
  294MOL0     H39684   2.296   4.251   4.984  0.8116  0.2347  0.3608
  294MOL0     H39685   2.301   4.233   4.812  0.6951 -1.2114 -1.6204
  294MOL0     H39686   2.277   3.825   4.938 -0.3153 -0.7611 -2.1636
  294MOL0     H39687   2.725   4.499   5.185  2.5738 -1.2061 -0.4856
  294MOL0     H39688   2.937   4.596   5.224 -3.2858  1.1420  1.8466
  294MOL0     H39689   3.044   4.545   5.347 -0.5247 -0.6837  0.0181
  294MOL0     H39690   3.018   4.431   5.209 -0.2344 -2.7758  2.4152
  295MOL0     O39691   0.768   3.809   9.527 -0.6392  0.3423 -0.6499
  295MOL0     C39692   0.679   3.891   9.547  0.4203 -0.0508  0.3027
  295MOL0     O39693   0.694   4.024   9.535  0.0540 -0.4157  0.0670
  295MOL0     C39694   0.820   4.067   9.501 -0.0924 -0.9001 -0.5183
  295MOL0     C39695   0.841   4.092   9.365 -0.0494  0.2303  0.8142
  295MOL0     C39696   0.958   4.153   9.322 -0.5445 -0.1719 -0.4670
  295MOL0     C39697   1.068   4.150   9.415 -0.1955 -0.1959 -0.0092
  295MOL0     O39698   1.204   4.190   9.393  0.4272  0.0757  0.4701
  295MOL0     C39699   1.242   4.185   9.255 -0.7252 -0.3162 -0.3985
  295MOL0     C39700   1.396   4.167   9.247  0.4498  0.3931  0.0717
  295MOL0     C39701   1.451   4.026   9.261 -0.1003 -0.2055  0.1960
  295MOL0     C39702   1.599   4.032   9.297  0.5410  0.2381  0.0444
  295MOL0     C39703   1.650   3.900   9.344  0.6330 -0.1403 -0.2516
  295MOL0     C39704   1.658   3.789   9.230  0.5786  0.2909  0.0749
  295MOL0     C39705   1.763   3.672   9.269  1.0486 -0.4884 -0.1117
  295MOL0     C39706   1.910   3.701   9.270  0.1384 -0.1514 -0.4231
  295MOL0     N39707   1.987   3.581   9.318 -0.1922 -0.1932  1.0493
  295MOL0     C39708   2.021   3.484   9.232 -0.5742  0.0913 -0.4951
  295MOL0     C39709   2.110   3.414   9.303  0.3675 -1.0860 -0.6355
  295MOL0     C39710   2.189   3.305   9.238  0.3790 -0.2263 -0.6002
  295MOL0     C39711   2.338   3.333   9.267  0.1714  0.2918  0.0635
  295MOL0     C39712   2.398   3.472   9.246  0.2444  0.2915  0.2113
  295MOL0     C39713   2.539   3.481   9.304 -0.6758 -1.4418  0.5787
  295MOL0     O39714   2.625   3.386   9.260 -0.0061  0.1999 -0.5960
  295MOL0     C39715   2.762   3.414   9.242  0.3785  0.0124  0.5742
  295MOL0     C39716   2.840   3.311   9.190 -0.3255  0.3076  0.9784
  295MOL0     C39717   2.973   3.321   9.163 -0.9006 -0.5877 -0.4496
  295MOL0     C39718   3.035   3.441   9.196  0.0510  0.6566  0.2096
  295MOL0     C39719   3.172   3.457   9.163  0.3299  0.3804  0.3606
  295MOL0     O39720   3.238   3.348   9.115 -1.2353  0.2074 -0.1776
  295MOL0     C39721   3.357   3.367   9.050  0.4591 -0.3274  0.0051
  295MOL0     C39722   3.471   3.280   9.063 -0.4961 -0.4087  0.3215
  295MOL0     C39723   3.578   3.292   8.979  0.3385  0.1740  1.0583
  295MOL0     C39724   3.581   3.384   8.874 -0.0714 -0.8339 -0.8221
  295MOL0     O39725   3.703   3.387   8.802  0.3216  0.0987 -0.4036
  295MOL0     C39726   3.726   3.492   8.702 -0.7575  0.1092 -0.9138
  295MOL0     C39727   3.837   3.436   8.621  0.2782 -0.2897  0.3849
  295MOL0     C39728   3.894   3.517   8.506 -0.9587 -0.6798  0.5664
  295MOL0     C39729   3.971   3.640   8.530 -0.6282  0.0806 -0.3317
  295MOL0     C39730   4.120   3.607   8.567 -0.3530  0.0835  1.0225
  295MOL0     C39731   4.203   3.584   8.444 -0.1794 -0.2935 -0.6336
  295MOL0     C39732   4.354   3.566   8.488 -0.3568  0.7121  0.5273
  295MOL0     C39733   4.433   3.699   8.495  0.9486 -0.5124  0.7002
  295MOL0    Cl39734   4.598   3.663   8.568 -0.4825 -0.0667 -0.1920
  295MOL0     C39735   3.470   3.470   8.856 -0.3458  0.4111 -0.0038
  295MOL0     C39736   3.352   3.461   8.938 -0.6562  0.4808  0.1970
  295MOL0     O39737   3.216   3.569   9.180 -0.5558 -0.4812  0.5960
  295MOL0     C39738   2.960   3.544   9.265 -0.3509  1.2752 -0.0604
  295MOL0     C39739   2.823   3.531   9.283 -0.1943  0.5128 -0.2984
  295MOL0     N39740   2.111   3.462   9.429  0.1316 -0.0082  0.5333
  295MOL0     N39741   2.043   3.560   9.439  0.2925 -0.5410  0.0310
  295MOL0     C39742   1.049   4.107   9.543 -1.0569 -0.8603 -0.6742
  295MOL0     C39743   0.924   4.069   9.592 -0.5445  0.0777 -0.3446
  295MOL0     C39744   0.550   3.842   9.574 -0.0425  0.6709  0.4394
  295MOL0     C39745   0.449   3.889   9.490 -0.5364  0.3468  0.0263
  295MOL0     C39746   0.324   3.849   9.519 -0.1210  0.1318  0.3653
  295MOL0     C39747   0.284   3.752   9.608  0.1286  0.2260 -0.1403
  295MOL0     O39748   0.158   3.706   9.629 -0.1833  0.8907 -0.3312
  295MOL0     C39749   0.051   3.764   9.563  0.2106  0.4719  0.4612
  295MOL0     C39750  -0.073   3.758   9.658 -0.4994  0.0837  1.0927
  295MOL0     C39751  -0.122   3.613   9.671  0.2198 -0.0145  1.1021
  295MOL0     C39752  -0.273   3.599   9.699  0.2953 -0.0948  0.8988
  295MOL0     C39753  -0.301   3.615   9.842 -0.4346  0.1822 -0.0346
  295MOL0     C39754  -0.317   3.643   9.959 -0.1747  0.1388  0.1180
  295MOL0     C39755   0.388   3.696   9.684 -0.3343 -0.9299 -0.5670
  295MOL0     C39756   0.521   3.734   9.669 -0.0450 -0.7404  0.7642
  295MOL0     C39757   0.622   3.673   9.762 -0.9527  0.3723 -0.2066
  295MOL0     H39758   0.746   4.075   9.316  0.5497 -1.0389  0.0560
  295MOL0     H39759   0.971   4.191   9.221  3.3677  1.5219  0.4924
  295MOL0     H39760   1.186   4.111   9.197  0.0648 -0.6947 -0.6913
  295MOL0     H39761   1.215   4.277   9.204 -0.4250 -0.2069 -0.3624
  295MOL0     H39762   1.453   4.239   9.307 -0.9004 -0.2408  2.2165
  295MOL0     H39763   1.420   4.196   9.144  2.3398  1.4015  0.7527
  295MOL0     H39764   1.442   3.969   9.168  3.8740 -3.4039  1.4569
  295MOL0     H39765   1.393   3.971   9.334  1.5540 -3.2303 -0.6047
  295MOL0     H39766   1.663   4.066   9.215 -1.9284 -1.6678 -2.9061
  295MOL0     H39767   1.597   4.102   9.380 -2.5144  0.6520 -0.2419
  295MOL0     H39768   1.754   3.913   9.376  1.7510  0.7911 -3.8348
  295MOL0     H39769   1.587   3.876   9.430  1.3513  0.4130  0.4449
  295MOL0     H39770   1.556   3.750   9.219  0.7972 -0.7262  1.3617
  295MOL0     H39771   1.684   3.835   9.135  1.0217 -0.5499 -0.2203
  295MOL0     H39772   1.747   3.584   9.205 -2.2703  0.5162 -0.8658
  295MOL0     H39773   1.735   3.630   9.367 -4.7252  1.1038 -0.7146
  295MOL0     H39774   1.940   3.722   9.167  0.2308  0.4446 -0.2797
  295MOL0     H39775   1.922   3.782   9.343 -0.9837  0.6396 -1.0762
  295MOL0     H39776   1.994   3.467   9.128  1.3507 -2.8251 -0.6419
  295MOL0     H39777   2.160   3.211   9.285  0.3444 -0.5676 -1.2859
  295MOL0     H39778   2.166   3.317   9.132 -1.8100  1.5781 -0.0086
  295MOL0     H39779   2.349   3.298   9.370 -2.4555 -1.5610 -0.1511
  295MOL0     H39780   2.398   3.262   9.210 -2.0660 -1.1510 -0.6423
  295MOL0     H39781   2.338   3.542   9.304 -0.0774  1.2126 -1.1947
  295MOL0     H39782   2.397   3.503   9.142  0.6656  1.7551  0.6297
  295MOL0     H39783   2.542   3.487   9.414  0.4496 -2.8878  0.6533
  295MOL0     H39784   2.568   3.579   9.266 -2.7204 -1.4644 -1.2105
  295MOL0     H39785   2.797   3.217   9.157 -0.5947  1.6537 -3.0183
  295MOL0     H39786   3.021   3.242   9.107 -0.6393  1.7495 -3.8701
  295MOL0     H39787   3.469   3.198   9.134  1.6513  1.2910  2.5234
  295MOL0     H39788   3.664   3.226   8.990  1.6529  1.1623 -2.1059
  295MOL0     H39789   3.644   3.506   8.631 -0.3101 -1.3676 -1.7593
  295MOL0     H39790   3.750   3.593   8.738  3.0910 -0.8995 -0.1799
  295MOL0     H39791   3.924   3.416   8.684  0.8987  0.1683 -0.3123
  295MOL0     H39792   3.793   3.345   8.579 -3.8241  1.5705  0.2172
  295MOL0     H39793   3.963   3.460   8.442 -1.4785  0.3484 -0.9584
  295MOL0     H39794   3.814   3.546   8.437  1.6832  2.3412 -1.4914
  295MOL0     H39795   3.925   3.696   8.612  1.1469  1.8261 -0.4355
  295MOL0     H39796   3.972   3.704   8.441  1.2351  1.1409  0.3901
  295MOL0     H39797   4.128   3.524   8.638 -0.3979 -0.0728  0.8435
  295MOL0     H39798   4.153   3.693   8.626 -1.8870  0.8322  0.8514
  295MOL0     H39799   4.166   3.499   8.385  0.0766 -1.5059  0.8905
  295MOL0     H39800   4.199   3.673   8.380 -1.1030 -0.5102 -0.8955
  295MOL0     H39801   4.401   3.497   8.417  0.1407  0.8167  0.7509
  295MOL0     H39802   4.366   3.524   8.588 -0.1623 -0.3448  0.0771
  295MOL0     H39803   4.443   3.729   8.391  1.3935 -1.6784  0.3850
  295MOL0     H39804   4.375   3.766   8.560  0.2052 -0.9517  0.5102
  295MOL0     H39805   3.474   3.541   8.773 -0.5373 -0.8107 -1.0923
  295MOL0     H39806   3.268   3.527   8.919 -3.6368 -2.1750  2.8857
  295MOL0     H39807   3.010   3.635   9.298  1.7333  0.2123 -0.1133
  295MOL0     H39808   2.768   3.607   9.339 -2.6632 -0.7168 -0.9238
  295MOL0     H39809   1.133   4.098   9.611 -0.5744 -4.1252 -1.5467
  295MOL0     H39810   0.903   4.037   9.693  1.4038  0.3148  0.1769
  295MOL0     H39811   0.481   3.969   9.424  3.0792  0.8251  2.1197
  295MOL0     H39812   0.248   3.892   9.454 -2.1261  1.1789  3.1892
  295MOL0     H39813   0.029   3.719   9.466 -1.0111 -0.7778  1.2873
  295MOL0     H39814   0.071   3.871   9.553 -0.2053  0.2979 -4.5259
  295MOL0     H39815  -0.156   3.821   9.626  0.5983  0.5936 -0.8893
  295MOL0     H39816  -0.033   3.791   9.755 -1.4301 -1.4468  2.0446
  295MOL0     H39817  -0.073   3.560   9.753  1.1519 -0.1100  0.4999
  295MOL0     H39818  -0.094   3.555   9.582 -2.2349 -1.0966  0.9605
  295MOL0     H39819  -0.326   3.680   9.647 -1.1414  0.2280  2.7667
  295MOL0     H39820  -0.308   3.501   9.666  0.4958 -0.0320  0.4908
  295MOL0     H39821  -0.354   3.662  10.057 -0.4495  0.2960 -0.0176
  295MOL0     H39822   0.359   3.614   9.750 -0.5223 -1.9481 -1.8877
  295MOL0     H39823   0.647   3.747   9.838  0.4733 -0.4292  0.1415
  295MOL0     H39824   0.584   3.585   9.817 -0.4620 -0.2378 -0.8253
  295MOL0     H39825   0.722   3.651   9.724  0.3095  1.8127  2.0204
  296MOL0     O39826   2.811   6.183   0.799  0.1324 -0.5726  0.1086
  296MOL0     C39827   2.829   6.065   0.779  0.5957 -0.0171 -0.0127
  296MOL0     O39828   2.940   6.005   0.728  0.7201  0.0804  0.6162
  296MOL0     C39829   3.041   6.077   0.671 -0.7935 -0.0794 -0.4627
  296MOL0     C39830   3.106   6.187   0.735  0.2111  0.7014  0.5769
  296MOL0     C39831   3.226   6.239   0.680  0.1940  0.2890 -0.2860
  296MOL0     C39832   3.279   6.192   0.558  0.9184  0.3670 -0.0488
  296MOL0     O39833   3.386   6.258   0.511  0.6503  0.1467  0.2195
  296MOL0     C39834   3.423   6.240   0.383  0.5904  0.0228  0.6027
  296MOL0     C39835   3.547   6.329   0.351  0.4062  0.4981  1.3775
  296MOL0     C39836   3.595   6.319   0.200  0.2669  0.0904 -0.2571
  296MOL0     C39837   3.719   6.396   0.189 -0.8653 -0.0553  0.5159
  296MOL0     C39838   3.778   6.426   0.048  0.3024 -0.5771  0.0321
  296MOL0     C39839   3.901   6.511   0.055 -0.5543  0.3416 -0.1190
  296MOL0     C39840   3.947   6.549  -0.080  0.0150  0.6665  0.6046
  296MOL0     C39841   4.070   6.652  -0.071  0.1813  0.4792 -0.6854
  296MOL0     N39842   4.188   6.604   0.001 -0.4439  0.8645 -0.0610
  296MOL0     C39843   4.276   6.514  -0.061 -0.1210  0.0323 -0.0149
  296MOL0     C39844   4.369   6.488   0.034  0.8106  0.8670  0.0744
  296MOL0     C39845   4.492   6.393   0.025  1.2976 -0.3601 -0.3723
  296MOL0     C39846   4.610   6.444   0.109  0.2038 -0.3765 -0.1879
  296MOL0     C39847   4.676   6.575   0.066  0.9120  0.1339  0.0062
  296MOL0     C39848   4.681   6.687   0.173  0.0417  0.5697 -0.3224
  296MOL0     O39849   4.728   6.655   0.301  0.7741 -0.1275 -0.4501
  296MOL0     C39850   4.857   6.596   0.307 -0.4164 -0.6754  1.2323
  296MOL0     C39851   4.878   6.469   0.369  0.1980  0.3685  0.6521
  296MOL0     C39852   4.997   6.396   0.368  1.0382 -0.0659 -0.4283
  296MOL0     C39853   5.102   6.467   0.306 -0.3830 -0.5944  0.4621
  296MOL0     C39854   5.239   6.405   0.301 -0.2163  0.4068 -0.2001
  296MOL0     O39855   5.251   6.273   0.335 -0.0281  0.3390 -0.5924
  296MOL0     C39856   5.357   6.192   0.298 -0.2242  0.1380 -0.9807
  296MOL0     C39857   5.484   6.233   0.248  0.9947 -0.6284 -0.4089
  296MOL0     C39858   5.596   6.150   0.229 -0.0056  0.8073 -0.4002
  296MOL0     C39859   5.571   6.010   0.241  0.2674 -0.1627  0.2941
  296MOL0     O39860   5.666   5.922   0.202 -0.1097  0.2794  0.3302
  296MOL0     C39861   5.803   5.960   0.199 -0.3658 -0.3521 -0.7448
  296MOL0     C39862   5.848   5.975   0.058 -0.3716  0.0928 -0.1489
  296MOL0     C39863   5.989   6.044   0.037  0.6966  0.1116  0.3119
  296MOL0     C39864   6.030   6.137   0.155  0.0387  0.7882  0.1802
  296MOL0     C39865   6.175   6.182   0.141  0.1724  0.4191 -0.6809
  296MOL0     C39866   6.206   6.273   0.022 -0.1485  0.2274 -0.7910
  296MOL0     C39867   6.094   6.374   0.007  0.1520  0.0775 -0.1960
  296MOL0     C39868   6.147   6.499  -0.068  0.4306  0.5599  0.3011
  296MOL0    Cl39869   6.210   6.437  -0.221  0.4947 -0.2099 -0.0980
  296MOL0     C39870   5.456   5.961   0.300 -0.6666 -0.9789 -0.3045
  296MOL0     C39871   5.352   6.052   0.326  0.4019 -0.3326 -1.0907
  296MOL0     O39872   5.333   6.488   0.279  0.3673  0.0152 -0.3023
  296MOL0     C39873   5.095   6.603   0.254 -0.4718  0.2972 -1.1066
  296MOL0     C39874   4.971   6.665   0.256  0.3848 -0.3222 -0.3007
  296MOL0     N39875   4.337   6.558   0.151 -0.1146  0.5930  0.1597
  296MOL0     N39876   4.223   6.614   0.131 -0.0596 -0.6682  0.3333
  296MOL0     C39877   3.210   6.091   0.492  0.4307  0.1306 -0.1190
  296MOL0     C39878   3.094   6.028   0.555  0.3478 -0.1641  1.0578
  296MOL0     C39879   2.711   5.984   0.802 -1.0112  0.0828 -0.3908
  296MOL0     C39880   2.609   6.040   0.881  1.5087  0.0314 -0.7419
  296MOL0     C39881   2.502   5.966   0.926  0.1264 -0.7593  0.3140
  296MOL0     C39882   2.498   5.824   0.888  0.5286 -0.2699  1.3903
  296MOL0     O39883   2.381   5.768   0.932 -0.2967  0.0710  0.2192
  296MOL0     C39884   2.372   5.625   0.914  0.4417 -0.1216 -0.1329
  296MOL0     C39885   2.246   5.564   0.969 -0.5125 -0.1465  0.1695
  296MOL0     C39886   2.206   5.594   1.119 -0.3427 -0.3050 -0.6774
  296MOL0     C39887   2.070   5.528   1.146  0.1663 -0.1978 -0.4361
  296MOL0     C39888   2.017   5.544   1.282 -0.0534 -0.2458 -0.0088
  296MOL0     C39889   1.957   5.580   1.374 -0.2033 -0.1372 -0.2318
  296MOL0     C39890   2.593   5.772   0.805 -0.1540 -0.0268  0.4502
  296MOL0     C39891   2.698   5.849   0.761  0.3952  0.7071 -0.8004
  296MOL0     C39892   2.783   5.787   0.651 -0.3532 -0.3274 -0.5572
  296MOL0     H39893   3.069   6.233   0.826  1.2865 -0.6083  1.7189
  296MOL0     H39894   3.294   6.299   0.740  0.4255  0.5742 -0.8233
  296MOL0     H39895   3.454   6.141   0.349  0.2465  0.7732 -2.2104
  296MOL0     H39896   3.342   6.279   0.321  2.2121  0.4090 -1.4081
  296MOL0     H39897   3.625   6.278   0.409  0.8924 -3.1620 -2.0338
  296MOL0     H39898   3.534   6.433   0.380  0.3565  0.5654  1.1177
  296MOL0     H39899   3.522   6.357   0.128 -1.4027 -0.0121  1.3072
  296MOL0     H39900   3.612   6.215   0.171  4.2112  0.3895  0.3957
  296MOL0     H39901   3.693   6.494   0.230  1.7999  0.7492  0.4357
  296MOL0     H39902   3.801   6.362   0.253 -1.1147  2.6699  2.4443
  296MOL0     H39903   3.790   6.334  -0.009 -3.1243 -0.0743 -1.7041
  296MOL0     H39904   3.703   6.478  -0.011 -0.6968 -0.7393  1.1279
  296MOL0     H39905   3.887   6.599   0.117 -1.9687 -0.1937  0.3476
  296MOL0     H39906   3.966   6.447   0.115 -0.1385  1.0167  0.1675
  296MOL0     H39907   3.864   6.604  -0.126 -1.2471 -0.8074  1.0265
  296MOL0     H39908   3.965   6.457  -0.136 -1.3399  0.4575  0.4881
  296MOL0     H39909   4.116   6.682  -0.166  0.7318  3.7117  0.4709
  296MOL0     H39910   4.039   6.743  -0.019  5.9433  2.8521 -0.7498
  296MOL0     H39911   4.271   6.479  -0.164 -1.2989  0.5351 -0.1433
  296MOL0     H39912   4.462   6.299   0.072 -2.9334  0.9668  0.0336
  296MOL0     H39913   4.531   6.377  -0.076  0.3434 -0.3161 -0.7614
  296MOL0     H39914   4.574   6.450   0.212  0.4957 -1.4407 -0.0034
  296MOL0     H39915   4.695   6.375   0.106  0.7878  0.3296 -0.0443
  296MOL0     H39916   4.627   6.606  -0.027  2.9162  1.4445 -0.6875
  296MOL0     H39917   4.780   6.550   0.040  0.9425  1.4322 -1.2862
  296MOL0     H39918   4.577   6.720   0.180 -0.8037 -0.6352 -4.4234
  296MOL0     H39919   4.747   6.767   0.139 -0.3705  1.2548  0.4672
  296MOL0     H39920   4.794   6.425   0.422  0.5150 -2.2935 -0.8576
  296MOL0     H39921   4.995   6.299   0.415 -2.0876 -1.1286 -2.4584
  296MOL0     H39922   5.514   6.336   0.227  0.3356 -0.4409 -0.4408
  296MOL0     H39923   5.682   6.194   0.180 -0.2454 -0.4185 -2.0123
  296MOL0     H39924   5.816   6.054   0.253 -3.0734 -1.1379  1.5394
  296MOL0     H39925   5.872   5.886   0.241  0.5807  2.0258  2.2077
  296MOL0     H39926   5.847   5.887  -0.007 -0.5717 -0.5836  0.7508
  296MOL0     H39927   5.780   6.050   0.016  0.6491  0.8809 -0.4217
  296MOL0     H39928   6.055   5.957   0.037 -3.2652 -3.2292  0.9494
  296MOL0     H39929   5.996   6.092  -0.061  1.4311  1.5231  1.0152
  296MOL0     H39930   6.026   6.083   0.250 -1.5886  2.0796  0.9046
  296MOL0     H39931   5.961   6.220   0.175 -1.6928 -0.8575  1.3639
  296MOL0     H39932   6.240   6.095   0.135 -0.9703 -1.1280  4.5732
  296MOL0     H39933   6.205   6.240   0.228  1.6887  0.2909 -1.0979
  296MOL0     H39934   6.293   6.328   0.059 -1.0242  0.9371  0.3066
  296MOL0     H39935   6.218   6.221  -0.073 -5.4132 -1.4477 -0.8932
  296MOL0     H39936   6.064   6.394   0.111  1.3115  0.7710  0.0121
  296MOL0     H39937   6.005   6.335  -0.044  0.3514  0.5244 -0.8980
  296MOL0     H39938   6.068   6.572  -0.087  0.2845  0.1434 -0.7332
  296MOL0     H39939   6.224   6.547  -0.006 -0.9042  1.1124  1.5896
  296MOL0     H39940   5.436   5.854   0.304 -1.7825 -0.8654 -2.0811
  296MOL0     H39941   5.259   6.017   0.371 -0.6538 -0.3021 -3.1376
  296MOL0     H39942   5.180   6.653   0.209 -0.7156  0.0058 -1.9175
  296MOL0     H39943   4.951   6.768   0.227 -1.1301 -0.8099 -1.0962
  296MOL0     H39944   3.243   6.059   0.394  0.3210 -0.8597  0.1610
  296MOL0     H39945   3.060   5.937   0.507  1.2555 -0.4253  0.8979
  296MOL0     H39946   2.618   6.147   0.899  1.6527  0.1571 -1.5227
  296MOL0     H39947   2.424   6.003   0.991  0.9404 -0.3063  1.0521
  296MOL0     H39948   2.459   5.582   0.964  0.7611  0.3067 -0.3155
  296MOL0     H39949   2.384   5.606   0.807 -0.9426  0.7826 -0.4737
  296MOL0     H39950   2.241   5.457   0.946 -2.9753  0.4351 -2.6135
  296MOL0     H39951   2.171   5.614   0.907 -0.0790  1.4401  0.8850
  296MOL0     H39952   2.204   5.701   1.137 -3.1175  0.1000 -2.6713
  296MOL0     H39953   2.277   5.553   1.192 -0.2131  1.6606  0.3477
  296MOL0     H39954   1.994   5.563   1.075  0.5722 -1.0370 -1.3042
  296MOL0     H39955   2.074   5.419   1.132 -1.0485 -0.4802  1.1605
  296MOL0     H39956   1.900   5.610   1.459 -0.9842 -2.7726  0.2589
  296MOL0     H39957   2.589   5.674   0.759  0.2943 -0.3221  1.0210
  296MOL0     H39958   2.736   5.702   0.601  1.0283 -1.1901 -0.4187
  296MOL0     H39959   2.798   5.860   0.571  0.3165 -1.7271 -1.7377
  296MOL0     H39960   2.879   5.765   0.699 -0.5372  2.5361  1.4119
  297MOL0     O39961   8.666   5.776   9.519  0.0121 -0.1848 -0.0207
  297MOL0     C39962   8.642   5.760   9.638  0.3969 -0.4075 -0.7320
  297MOL0     O39963   8.739   5.754   9.739  0.1271 -0.1499 -0.9175
  297MOL0     C39964   8.875   5.758   9.712  0.1826  0.8528  0.7561
  297MOL0     C39965   8.944   5.674   9.615  0.8919 -0.1068  0.0292
  297MOL0     C39966   9.074   5.677   9.608  0.0224 -0.1282 -0.4515
  297MOL0     C39967   9.152   5.760   9.696  0.7997  0.2435 -0.5331
  297MOL0     O39968   9.284   5.747   9.678 -0.3026  0.5079 -0.1863
  297MOL0     C39969   9.374   5.789   9.784  0.0365 -0.0889 -0.1855
  297MOL0     C39970   9.514   5.770   9.739  0.2930  0.6031  0.0476
  297MOL0     C39971   9.617   5.834   9.825  0.1031 -0.5724  0.6013
  297MOL0     C39972   9.679   5.961   9.759 -0.4434 -0.5944  0.1307
  297MOL0     C39973   9.758   6.057   9.856 -0.1480 -0.3897  0.0211
  297MOL0     C39974   9.850   6.005   9.967  0.8465  0.3732 -0.0240
  297MOL0     C39975   9.924   6.114  10.046 -0.1727 -0.2148 -0.1479
  297MOL0     C39976  10.045   6.179   9.978 -0.4959  0.5329 -0.5298
  297MOL0     N39977  10.109   6.291  10.058  0.3594 -0.3750 -0.4533
  297MOL0     C39978  10.184   6.386   9.985 -0.3294 -0.7885 -0.1431
  297MOL0     C39979  10.247   6.463  10.078  1.0900 -0.6070 -0.9923
  297MOL0     C39980  10.352   6.570  10.050  0.1803 -0.2090  0.2762
  297MOL0     C39981  10.372   6.671  10.165 -0.1782 -0.2355 -0.3216
  297MOL0     C39982  10.249   6.755  10.187  0.2981 -0.1211 -0.6413
  297MOL0     C39983  10.280   6.869  10.288 -0.1521 -0.4058 -0.6991
  297MOL0     O39984  10.358   6.969  10.220  0.6066 -0.3594 -0.6414
  297MOL0     C39985  10.411   7.063  10.300 -0.1156 -0.9100  0.2018
  297MOL0     C39986  10.382   7.096  10.434 -1.1304  0.1695 -0.0945
  297MOL0     C39987  10.435   7.205  10.499  1.0012 -0.1049  0.7183
  297MOL0     C39988  10.511   7.304  10.432 -0.1935  0.6147  0.2454
  297MOL0     C39989  10.562   7.428  10.511  0.3342  1.0018  0.5371
  297MOL0     O39990  10.516   7.457  10.631  0.2007  0.0475 -0.3455
  297MOL0     C39991  10.567   7.562  10.695 -1.0172 -0.0657  0.4993
  297MOL0     C39992  10.471   7.637  10.746 -0.0773  0.5505  0.3959
  297MOL0     C39993  10.495   7.742  10.835  0.4389 -0.4463 -0.1199
  297MOL0     C39994  10.633   7.785  10.848  0.2075  0.2937  0.5354
  297MOL0     O39995  10.656   7.896  10.924 -0.9545  0.2829  0.3940
  297MOL0     C39996  10.788   7.955  10.932  0.1576 -0.2699  0.2124
  297MOL0     C39997  10.772   8.093  11.004 -1.2352  0.7928  0.7878
  297MOL0     C39998  10.906   8.153  11.034  0.2251 -0.0528 -0.0273
  297MOL0     C39999  10.971   8.241  10.928 -0.0290  0.6725 -0.1020
  297MOL0     C40000  11.085   8.315  10.989  0.7949  0.7858  0.1605
  297MOL0     C40001  11.218   8.236  10.974 -0.1957 -0.5305  0.1247
  297MOL0     C40002  11.328   8.321  11.057 -0.7745 -0.0113 -0.3394
  297MOL0     C40003  11.447   8.233  11.107  0.6511  0.4867 -0.1563
  297MOL0    Cl40004  11.489   8.106  10.985 -0.2589  0.0775  0.0234
  297MOL0     C40005  10.737   7.699  10.797  0.2785 -0.4460 -1.5982
  297MOL0     C40006  10.704   7.587  10.722  0.2574 -0.4402  0.7526
  297MOL0     O40007  10.642   7.499  10.450 -0.7988  0.8181  0.2672
  297MOL0     C40008  10.540   7.281  10.293 -0.4030  0.7730  0.1344
  297MOL0     C40009  10.504   7.153  10.238  0.6347 -0.2073 -0.0886
  297MOL0     N40010  10.197   6.417  10.202 -0.7753  0.6038  0.1675
  297MOL0     N40011  10.119   6.317  10.196 -0.7045  0.8369 -0.3346
  297MOL0     C40012   9.088   5.848   9.782  0.0018  0.2216  0.5032
  297MOL0     C40013   8.948   5.847   9.787 -0.4003  0.2965  0.8660
  297MOL0     C40014   8.498   5.725   9.674  0.2667 -0.2259 -0.2120
  297MOL0     C40015   8.478   5.657   9.789 -0.3375  0.1906 -0.5063
  297MOL0     C40016   8.345   5.612   9.831  0.3005 -0.5632 -0.3308
  297MOL0     C40017   8.237   5.644   9.756  0.2533 -0.5793  0.2234
  297MOL0     O40018   8.118   5.594   9.806  0.0357 -1.0015 -0.2216
  297MOL0     C40019   7.996   5.624   9.741  0.5939 -0.4080  1.1357
  297MOL0     C40020   7.944   5.761   9.786 -0.3863  0.4060  0.0405
  297MOL0     C40021   7.808   5.800   9.717 -0.4612 -0.1391 -0.1719
  297MOL0     C40022   7.718   5.902   9.785 -0.7142  0.0086  0.2541
  297MOL0     C40023   7.790   6.020   9.842 -0.1581  1.2175 -0.2008
  297MOL0     C40024   7.842   6.118   9.888  0.5357 -0.1523  0.9102
  297MOL0     C40025   8.260   5.713   9.643  0.0812  0.3740  0.1455
  297MOL0     C40026   8.385   5.758   9.594  0.3335  0.0877  1.3882
  297MOL0     C40027   8.375   5.838   9.457 -0.3058 -0.3853  0.1901
  297MOL0     H40028   8.902   5.596   9.552  1.7903 -0.6279  0.0596
  297MOL0     H40029   9.135   5.608   9.551  1.1728 -2.3059  3.1740
  297MOL0     H40030   9.354   5.893   9.812 -0.3358 -0.2037 -0.0196
  297MOL0     H40031   9.362   5.729   9.875  1.0347  0.9969  0.7050
  297MOL0     H40032   9.515   5.809   9.637 -2.8017 -0.5881 -0.5487
  297MOL0     H40033   9.535   5.662   9.742 -0.9360  0.3462  0.0516
  297MOL0     H40034   9.693   5.759   9.847  0.5883 -0.5855 -0.9822
  297MOL0     H40035   9.572   5.863   9.920  1.0057  0.5275  0.7022
  297MOL0     H40036   9.758   5.915   9.700  0.6021 -0.3386  1.2791
  297MOL0     H40037   9.618   6.015   9.686  1.8637 -0.7927 -2.0818
  297MOL0     H40038   9.819   6.122   9.793 -0.1375  1.0776  1.4940
  297MOL0     H40039   9.687   6.119   9.912  1.2637  1.2825  0.0222
  297MOL0     H40040   9.791   5.943  10.035 -1.3401  0.0966 -2.0743
  297MOL0     H40041   9.930   5.943   9.926  1.9460  2.2187 -0.8133
  297MOL0     H40042   9.966   6.078  10.140  0.9228  3.3397  0.8767
  297MOL0     H40043   9.850   6.193  10.065  1.2518  1.1166  0.0994
  297MOL0     H40044  10.122   6.103   9.956  0.4016  0.8937  1.2095
  297MOL0     H40045  10.019   6.231   9.886 -1.3701  2.3731  0.7094
  297MOL0     H40046  10.189   6.399   9.877  1.2727  1.8406  0.1568
  297MOL0     H40047  10.450   6.525  10.033  0.8637  2.2303 -3.6725
  297MOL0     H40048  10.328   6.625   9.958  0.7084  0.8428  0.7510
  297MOL0     H40049  10.398   6.626  10.261 -2.1706 -1.4792 -0.3157
  297MOL0     H40050  10.456   6.732  10.130  0.6382 -1.5007 -0.6455
  297MOL0     H40051  10.166   6.695  10.225 -0.1793  0.3733 -0.9082
  297MOL0     H40052  10.212   6.797  10.094  2.1630 -0.6678 -1.6967
  297MOL0     H40053  10.332   6.832  10.377  0.1114 -0.6116 -0.9362
  297MOL0     H40054  10.181   6.900  10.322 -0.2462 -1.2658 -0.1477
  297MOL0     H40055  10.308   7.030  10.480  0.1391  0.0121  1.8247
  297MOL0     H40056  10.403   7.234  10.599  0.6001 -1.3824  0.9752
  297MOL0     H40057  10.364   7.625  10.727 -0.0763 -1.1287  1.3334
  297MOL0     H40058  10.419   7.808  10.875  0.8245 -0.6066  0.8934
  297MOL0     H40059  10.857   7.885  10.980 -1.2174  0.8575  4.2113
  297MOL0     H40060  10.828   7.987  10.835  1.2393  2.2217  1.3851
  297MOL0     H40061  10.701   8.159  10.954 -0.8267  0.5831 -0.0926
  297MOL0     H40062  10.733   8.071  11.104  0.1516 -0.9712  1.0097
  297MOL0     H40063  10.885   8.219  11.118 -3.5407 -0.5735 -0.4083
  297MOL0     H40064  10.976   8.074  11.063  0.4428 -0.3276 -1.2540
  297MOL0     H40065  10.899   8.314  10.890 -1.8077  0.3602  2.4259
  297MOL0     H40066  11.004   8.181  10.843 -1.9963  0.8796 -1.0677
  297MOL0     H40067  11.057   8.337  11.092 -3.0517  1.3559 -0.8471
  297MOL0     H40068  11.099   8.418  10.953  2.1967 -0.5657 -3.6876
  297MOL0     H40069  11.196   8.140  11.021 -0.8796  0.9333  3.0226
  297MOL0     H40070  11.254   8.212  10.873  0.6916 -3.6695  1.0917
  297MOL0     H40071  11.285   8.380  11.138 -1.8308 -1.2550  0.0324
  297MOL0     H40072  11.373   8.398  10.993 -3.8615  2.5662  0.3343
  297MOL0     H40073  11.540   8.281  11.140  0.2361  1.3496 -0.2115
  297MOL0     H40074  11.401   8.187  11.194  0.6250  2.2124  0.7972
  297MOL0     H40075  10.840   7.732  10.802  0.1847  0.1292 -3.1350
  297MOL0     H40076  10.782   7.518  10.692  0.3241 -0.2545  0.4991
  297MOL0     H40077  10.593   7.351  10.229 -0.9106 -2.5259 -4.4002
  297MOL0     H40078  10.519   7.129  10.133  0.2424  3.0613 -0.9960
  297MOL0     H40079   9.143   5.908   9.853  0.0708  1.7692 -0.8259
  297MOL0     H40080   8.902   5.914   9.858  0.3080 -0.2698  1.8855
  297MOL0     H40081   8.565   5.635   9.850 -0.1791 -2.1155 -1.4878
  297MOL0     H40082   8.341   5.541   9.913 -0.4016  0.6020  0.6992
  297MOL0     H40083   7.918   5.551   9.765  0.2069 -0.3298  0.1957
  297MOL0     H40084   7.988   5.613   9.632 -2.3992  0.9714  1.0979
  297MOL0     H40085   8.023   5.835   9.771 -1.2613  1.7554  1.8024
  297MOL0     H40086   7.924   5.743   9.892 -0.6354  2.8549  0.4681
  297MOL0     H40087   7.740   5.715   9.702  0.6684 -1.7850  3.1529
  297MOL0     H40088   7.833   5.856   9.626 -1.6588  1.7303  0.6048
  297MOL0     H40089   7.645   5.934   9.710 -1.2469 -0.8006  0.4151
  297MOL0     H40090   7.670   5.845   9.865  2.8455 -0.5441  2.2284
  297MOL0     H40091   7.884   6.209   9.925  0.0699 -0.0800  1.2745
  297MOL0     H40092   8.174   5.740   9.582 -1.2867 -3.0960  0.3131
  297MOL0     H40093   8.273   5.851   9.420 -0.4016  1.5298  1.0227
  297MOL0     H40094   8.425   5.934   9.472 -1.2343  0.3796 -1.3620
  297MOL0     H40095   8.438   5.783   9.388  2.4516  1.4692  1.0553
  298MOL0     O40096   7.519   0.799   3.677 -0.5525 -0.5983 -0.3319
  298MOL0     C40097   7.442   0.843   3.766 -0.6546  0.3771 -0.0717
  298MOL0     O40098   7.482   0.928   3.871  0.7044  0.4059  0.1952
  298MOL0     C40099   7.618   0.940   3.905 -0.0034 -0.4643  0.2243
  298MOL0     C40100   7.702   1.020   3.827 -0.8582 -0.4117  0.3632
  298MOL0     C40101   7.838   1.040   3.861 -0.5691  0.9839 -0.0046
  298MOL0     C40102   7.891   0.980   3.971  0.5667  0.0704 -0.6623
  298MOL0     O40103   8.027   0.992   3.998  0.2797  0.5148 -0.2316
  298MOL0     C40104   8.088   0.913   4.103  1.3013 -0.1710  1.1626
  298MOL0     C40105   8.232   0.913   4.081  0.6489 -0.2156  0.4931
  298MOL0     C40106   8.288   1.053   4.099  0.8445  0.6345  0.1177
  298MOL0     C40107   8.441   1.048   4.120 -0.1707  0.8180  0.7882
  298MOL0     C40108   8.521   1.178   4.094  0.1176  0.0450 -0.3136
  298MOL0     C40109   8.669   1.151   4.116  0.3641 -0.7230  0.7957
  298MOL0     C40110   8.749   1.269   4.074 -0.1102 -0.2981 -0.2601
  298MOL0     C40111   8.896   1.245   4.100 -0.2699  0.3231 -0.0026
  298MOL0     N40112   8.978   1.370   4.085 -0.3660 -0.1278  0.0409
  298MOL0     C40113   9.075   1.375   3.986 -0.1872  0.8030 -0.0986
  298MOL0     C40114   9.126   1.499   3.995  0.3162 -0.6707 -0.4085
  298MOL0     C40115   9.242   1.557   3.926 -0.8123 -1.0347  0.8345
  298MOL0     C40116   9.343   1.629   4.023  0.4546  0.4211 -0.0832
  298MOL0     C40117   9.460   1.682   3.938  0.0403 -0.3972  0.2649
  298MOL0     C40118   9.554   1.754   4.028  0.1851  0.7050  0.4892
  298MOL0     O40119   9.503   1.876   4.056 -0.4584 -0.1963  0.5586
  298MOL0     C40120   9.568   1.973   4.137  0.6554 -0.4550  0.4770
  298MOL0     C40121   9.703   1.954   4.189 -0.2336 -0.2809  1.1836
  298MOL0     C40122   9.752   2.051   4.273 -0.5194  0.1500 -0.8283
  298MOL0     C40123   9.678   2.160   4.321  1.0393  0.2045 -0.9259
  298MOL0     C40124   9.744   2.261   4.411 -0.4169  0.6506  0.1283
  298MOL0     O40125   9.673   2.383   4.431  0.6742 -0.1345 -0.5344
  298MOL0     C40126   9.694   2.441   4.552 -0.6379  0.0818 -0.1109
  298MOL0     C40127   9.616   2.402   4.659 -0.6444  0.6567 -0.2598
  298MOL0     C40128   9.635   2.479   4.780 -0.3564 -0.0653  0.4608
  298MOL0     C40129   9.751   2.564   4.802  0.7897  0.8219  0.0981
  298MOL0     O40130   9.773   2.613   4.930 -0.2337 -0.3597  0.5055
  298MOL0     C40131   9.691   2.571   5.042 -0.2830  0.2369  0.3448
  298MOL0     C40132   9.744   2.609   5.175  0.5767 -0.1217  0.0016
  298MOL0     C40133   9.739   2.768   5.189  0.7443  0.5985 -0.2788
  298MOL0     C40134   9.805   2.830   5.313  0.2614  0.0108 -0.1859
  298MOL0     C40135   9.770   2.786   5.456  0.5567 -0.0136 -0.6871
  298MOL0     C40136   9.834   2.872   5.567 -0.4448 -0.0581  0.6780
  298MOL0     C40137   9.986   2.849   5.582 -0.9189  0.2646 -0.0773
  298MOL0     C40138  10.075   2.957   5.522 -0.2436 -0.5248  0.5210
  298MOL0    Cl40139  10.247   2.908   5.533 -0.0712  0.5461 -0.3131
  298MOL0     C40140   9.830   2.590   4.698  0.3828 -0.5685 -0.7115
  298MOL0     C40141   9.800   2.536   4.569 -0.1538 -0.2129  0.2404
  298MOL0     O40142   9.860   2.242   4.451 -0.2756 -0.0350  0.2972
  298MOL0     C40143   9.551   2.173   4.270  0.5890 -0.2718  0.2459
  298MOL0     C40144   9.498   2.078   4.178  0.2901  0.4034 -0.7251
  298MOL0     N40145   9.063   1.567   4.096  0.8032  0.4985  0.1222
  298MOL0     N40146   8.970   1.495   4.147  0.1349  0.8071  0.6907
  298MOL0     C40147   7.796   0.912   4.058  0.4744 -0.4223 -0.0510
  298MOL0     C40148   7.661   0.893   4.030  0.2543  0.1323  1.0623
  298MOL0     C40149   7.299   0.807   3.758 -0.3349  1.0026  0.5571
  298MOL0     C40150   7.206   0.882   3.837  0.0599  0.1873  0.3996
  298MOL0     C40151   7.070   0.857   3.832  0.6357  1.2521  0.1838
  298MOL0     C40152   7.025   0.758   3.742  0.5455  0.2198  0.1328
  298MOL0     O40153   6.891   0.716   3.716 -0.7608  0.3863 -0.4500
  298MOL0     C40154   6.785   0.799   3.745 -0.0411  0.0401 -0.0440
  298MOL0     C40155   6.660   0.747   3.676 -0.1143 -0.4665 -0.9453
  298MOL0     C40156   6.591   0.626   3.720  0.9357 -0.4456 -0.6816
  298MOL0     C40157   6.529   0.635   3.855 -0.6519  0.1414 -0.0139
  298MOL0     C40158   6.410   0.719   3.844 -0.9054 -0.1464 -0.0059
  298MOL0     C40159   6.309   0.778   3.845  1.1865  0.0117 -0.5938
  298MOL0     C40160   7.114   0.690   3.663  0.3698  0.3491 -0.0047
  298MOL0     C40161   7.253   0.703   3.668  0.7283 -0.3714 -0.0081
  298MOL0     C40162   7.331   0.615   3.573 -0.2434  0.5186 -0.1356
  298MOL0     H40163   7.650   1.069   3.746 -1.7175  0.5283  1.4444
  298MOL0     H40164   7.911   1.086   3.795 -0.5565 -1.8287 -2.1615
  298MOL0     H40165   8.058   0.945   4.203 -1.3693  1.9329 -0.1846
  298MOL0     H40166   8.051   0.810   4.098 -2.4475  1.0979 -0.8810
  298MOL0     H40167   8.252   0.877   3.979  1.4091  0.3695  0.4272
  298MOL0     H40168   8.277   0.843   4.151  0.0786 -1.3301 -0.2126
  298MOL0     H40169   8.234   1.098   4.183 -1.3939 -1.1335 -0.2791
  298MOL0     H40170   8.263   1.105   4.005  0.1957 -0.5357 -0.3701
  298MOL0     H40171   8.472   0.997   4.212  0.0194 -0.8314 -0.1460
  298MOL0     H40172   8.475   0.989   4.034 -1.5372 -0.7218  1.2481
  298MOL0     H40173   8.509   1.227   3.997 -1.6285  0.6104  0.1447
  298MOL0     H40174   8.503   1.249   4.176  3.4687  0.8762 -0.1491
  298MOL0     H40175   8.696   1.128   4.220 -1.2198  1.6755  1.8295
  298MOL0     H40176   8.703   1.070   4.052  1.5733  0.6768 -0.4303
  298MOL0     H40177   8.724   1.356   4.136 -0.3185  0.8104 -1.8419
  298MOL0     H40178   8.735   1.291   3.968  2.7815  0.5110 -0.5753
  298MOL0     H40179   8.895   1.216   4.206 -2.0307 -0.6188 -0.2411
  298MOL0     H40180   8.926   1.163   4.035 -1.4511 -0.0350 -0.1204
  298MOL0     H40181   9.115   1.296   3.924  0.1880  1.1254 -0.2739
  298MOL0     H40182   9.303   1.479   3.879 -0.9960 -2.3106  2.6193
  298MOL0     H40183   9.194   1.615   3.846  2.1357  0.4320 -0.0237
  298MOL0     H40184   9.286   1.706   4.076 -2.9378 -2.2883  0.5651
  298MOL0     H40185   9.381   1.564   4.102  2.1839 -0.2073 -1.3540
  298MOL0     H40186   9.439   1.755   3.859  1.0779  1.9540  2.0423
  298MOL0     H40187   9.515   1.604   3.886 -0.9376 -0.9192 -0.0071
  298MOL0     H40188   9.644   1.773   3.969 -0.4270 -0.7375 -0.9797
  298MOL0     H40189   9.561   1.695   4.120 -3.9458  0.3047  0.7669
  298MOL0     H40190   9.762   1.871   4.152 -0.2921 -0.8453  2.3142
  298MOL0     H40191   9.854   2.046   4.311 -1.0506 -4.7753  0.7184
  298MOL0     H40192   9.543   2.324   4.640 -1.8572  1.1558  1.9549
  298MOL0     H40193   9.562   2.457   4.858 -0.2930 -1.6316  0.1195
  298MOL0     H40194   9.589   2.606   5.023 -1.3458 -3.0794 -0.9321
  298MOL0     H40195   9.690   2.461   5.040  0.7344  0.1999 -1.9767
  298MOL0     H40196   9.692   2.541   5.244 -1.9660  0.5260 -1.1542
  298MOL0     H40197   9.850   2.585   5.179  0.8943  1.3274  0.8071
  298MOL0     H40198   9.800   2.813   5.111 -0.2835  2.5151 -0.0290
  298MOL0     H40199   9.638   2.810   5.183 -0.2824 -1.2780  2.1578
  298MOL0     H40200   9.758   2.928   5.310 -1.1068 -0.5787  0.5790
  298MOL0     H40201   9.913   2.832   5.297  0.0282  2.6585 -2.0503
  298MOL0     H40202   9.799   2.682   5.475  0.2358 -0.2181 -1.3018
  298MOL0     H40203   9.662   2.794   5.464  0.8376  3.2346  3.4347
  298MOL0     H40204   9.815   2.976   5.540 -1.2626  0.2034  2.1167
  298MOL0     H40205   9.784   2.862   5.664 -0.0349  4.0223  1.4601
  298MOL0     H40206  10.002   2.751   5.535 -2.7244 -0.3871  0.5483
  298MOL0     H40207  10.008   2.839   5.689 -0.8927 -0.3121 -0.1306
  298MOL0     H40208  10.046   2.982   5.420  0.5992 -1.4899  0.0319
  298MOL0     H40209  10.067   3.043   5.589 -1.5235 -0.3023  0.1099
  298MOL0     H40210   9.913   2.653   4.729 -1.1827  0.8093  0.9158
  298MOL0     H40211   9.870   2.565   4.490 -3.3482  2.3619 -1.9005
  298MOL0     H40212   9.496   2.262   4.298 -0.7981 -1.3425  1.0516
  298MOL0     H40213   9.400   2.103   4.140 -1.3026  0.5404  2.9912
  298MOL0     H40214   7.829   0.889   4.159  2.1034  2.6106  0.2384
  298MOL0     H40215   7.595   0.857   4.108  0.1673  1.9443  1.8573
  298MOL0     H40216   7.237   0.971   3.890 -1.8401  2.3614 -1.8705
  298MOL0     H40217   6.991   0.903   3.891 -0.7886  0.3263 -0.9310
  298MOL0     H40218   6.803   0.891   3.688 -0.6659  0.8874  1.0969
  298MOL0     H40219   6.771   0.825   3.850  1.0196  0.1703  0.0738
  298MOL0     H40220   6.697   0.718   3.577 -0.2932  0.6358 -1.3478
  298MOL0     H40221   6.589   0.829   3.663 -0.4417 -0.7847 -1.2084
  298MOL0     H40222   6.670   0.551   3.737 -0.7721 -1.8751  1.5204
  298MOL0     H40223   6.525   0.594   3.638  0.7199  0.1315 -0.7341
  298MOL0     H40224   6.501   0.535   3.890  0.5599  0.0347  0.7155
  298MOL0     H40225   6.601   0.675   3.927  1.0419 -0.4417 -1.3043
  298MOL0     H40226   6.221   0.839   3.855  3.6606  3.7227  0.9034
  298MOL0     H40227   7.090   0.617   3.586  0.2414 -0.0992  0.4528
  298MOL0     H40228   7.378   0.659   3.484  3.7514 -2.5256  0.1615
  298MOL0     H40229   7.421   0.584   3.627 -0.5811  1.1652  0.8174
  298MOL0     H40230   7.268   0.534   3.535  0.5248 -0.3989  0.4840
  299MOL0     O40231   8.114   7.404   0.959 -0.4347  0.3930 -0.0531
  299MOL0     C40232   8.011   7.354   1.005 -0.3481 -0.0584 -1.2642
  299MOL0     O40233   8.007   7.262   1.108  0.4833  0.4226  0.2316
  299MOL0     C40234   8.116   7.195   1.140 -0.1676 -0.4106 -0.7984
  299MOL0     C40235   8.213   7.263   1.217 -0.6855  0.5558  0.3638
  299MOL0     C40236   8.338   7.189   1.232  0.2059  0.2340 -0.8273
  299MOL0     C40237   8.358   7.062   1.182  0.0998 -0.5501  0.1901
  299MOL0     O40238   8.465   6.990   1.205 -0.3123  0.6198 -0.0200
  299MOL0     C40239   8.499   6.928   1.330 -0.0467 -0.7596  0.6989
  299MOL0     C40240   8.548   6.785   1.310  0.0110  1.0233 -0.0771
  299MOL0     C40241   8.674   6.753   1.394  0.6828  0.4139 -0.3935
  299MOL0     C40242   8.748   6.634   1.333 -0.1369 -1.2450 -0.1675
  299MOL0     C40243   8.838   6.554   1.432  0.4527 -0.4079  0.1988
  299MOL0     C40244   8.947   6.644   1.488 -0.8552  0.1657  0.8391
  299MOL0     C40245   9.090   6.583   1.497 -0.3195  0.2205 -0.5356
  299MOL0     C40246   9.108   6.476   1.601  0.3067 -0.5674  0.0440
  299MOL0     N40247   9.247   6.456   1.647 -0.0796  0.1581 -0.7951
  299MOL0     C40248   9.329   6.348   1.612 -0.0154 -0.5869  0.5645
  299MOL0     C40249   9.429   6.341   1.703  0.7360  0.4713  0.6188
  299MOL0     C40250   9.542   6.247   1.706  0.3276 -0.0936  0.1786
  299MOL0     C40251   9.679   6.319   1.708 -0.3574  0.1948 -0.1413
  299MOL0     C40252   9.683   6.451   1.632 -0.2434 -0.3650 -0.1589
  299MOL0     C40253   9.825   6.522   1.623 -0.0828  1.4366 -0.1570
  299MOL0     O40254   9.891   6.541   1.756  0.0690  1.0802  0.5880
  299MOL0     C40255  10.023   6.568   1.743 -0.0516 -0.3169 -0.2965
  299MOL0     C40256  10.127   6.481   1.787  0.6882 -0.6677  0.6027
  299MOL0     C40257  10.260   6.507   1.762 -0.3849 -0.3860 -0.1056
  299MOL0     C40258  10.300   6.627   1.693  0.7882  0.0172  0.2395
  299MOL0     C40259  10.444   6.652   1.658  0.1336  1.1114 -0.4503
  299MOL0     O40260  10.488   6.773   1.605 -0.0765 -0.7924 -0.6928
  299MOL0     C40261  10.611   6.797   1.555  0.9906  0.0530  0.1937
  299MOL0     C40262  10.641   6.927   1.532  0.2001  0.4794 -0.9108
  299MOL0     C40263  10.757   6.963   1.469 -0.7504 -0.3117 -0.6924
  299MOL0     C40264  10.852   6.863   1.421  0.1451 -0.2911  0.5625
  299MOL0     O40265  10.942   6.902   1.325  0.1845 -0.4211  0.1591
  299MOL0     C40266  11.081   6.858   1.327  0.5220 -0.6322  0.1441
  299MOL0     C40267  11.167   6.977   1.278  0.1233  0.1088  0.3113
  299MOL0     C40268  11.308   6.928   1.245  0.0762 -0.2115 -0.5113
  299MOL0     C40269  11.373   6.851   1.360 -0.0514  0.1056  0.0711
  299MOL0     C40270  11.515   6.813   1.331  0.4011  0.2941 -0.9154
  299MOL0     C40271  11.576   6.732   1.440 -0.4998 -0.6425 -0.2782
  299MOL0     C40272  11.711   6.681   1.399  0.6645  0.3175 -0.6630
  299MOL0     C40273  11.718   6.576   1.290 -0.1189  0.6806  0.1469
  299MOL0    Cl40274  11.616   6.434   1.324  0.1880 -0.0291  0.0716
  299MOL0     C40275  10.816   6.731   1.434 -0.1568 -0.0573  0.4194
  299MOL0     C40276  10.704   6.702   1.510 -0.4971  0.0017  0.4852
  299MOL0     O40277  10.514   6.553   1.671 -0.2903 -0.1988 -0.5315
  299MOL0     C40278  10.196   6.717   1.652  0.0457  0.0812  0.0390
  299MOL0     C40279  10.059   6.693   1.684  0.0138  0.9017 -0.0674
  299MOL0     N40280   9.407   6.447   1.793  0.1808  0.2288 -0.3230
  299MOL0     N40281   9.303   6.510   1.757  0.5391  0.0957 -0.2051
  299MOL0     C40282   8.251   6.985   1.127  0.1772 -0.2598  0.0777
  299MOL0     C40283   8.135   7.059   1.095 -0.8896 -0.3079 -0.5099
  299MOL0     C40284   7.884   7.410   0.946  0.1816 -0.9193  0.4640
  299MOL0     C40285   7.870   7.551   0.921 -0.3085  1.2573 -0.7152
  299MOL0     C40286   7.773   7.602   0.847  0.6419  0.3819  0.3134
  299MOL0     C40287   7.683   7.518   0.782 -0.5523  0.5177  0.2184
  299MOL0     O40288   7.601   7.577   0.684  0.8230  0.0363 -0.6842
  299MOL0     C40289   7.558   7.490   0.576  0.5799 -0.3821  0.0370
  299MOL0     C40290   7.479   7.582   0.484  0.5745 -0.3304  1.1986
  299MOL0     C40291   7.375   7.504   0.390  0.2027 -0.2754 -0.0814
  299MOL0     C40292   7.440   7.466   0.257  0.8992  0.7327 -0.2694
  299MOL0     C40293   7.374   7.354   0.198 -1.0601  0.6658  0.5008
  299MOL0     C40294   7.308   7.274   0.131 -0.6621 -0.4324 -0.2916
  299MOL0     C40295   7.687   7.379   0.813 -1.0660 -0.4739 -1.0077
  299MOL0     C40296   7.781   7.329   0.905  0.8993 -0.0745 -0.5584
  299MOL0     C40297   7.780   7.182   0.934 -0.3187 -0.0004  0.4242
  299MOL0     H40298   8.206   7.368   1.246 -2.9749 -0.2834  3.5051
  299MOL0     H40299   8.419   7.233   1.289 -0.2995  0.0331  0.0740
  299MOL0     H40300   8.573   6.995   1.374 -2.5424  2.3955  0.4735
  299MOL0     H40301   8.417   6.930   1.402 -1.8087 -0.2915 -1.2236
  299MOL0     H40302   8.564   6.763   1.204  1.6725 -0.9317  0.5079
  299MOL0     H40303   8.468   6.718   1.341  2.6591 -2.6058 -0.3900
  299MOL0     H40304   8.643   6.728   1.495  1.3016  0.5133 -0.1774
  299MOL0     H40305   8.738   6.841   1.410 -0.5784  1.1066  1.0181
  299MOL0     H40306   8.679   6.563   1.286  0.7757 -2.0496 -0.3308
  299MOL0     H40307   8.816   6.673   1.256 -0.4114 -1.3132 -0.4464
  299MOL0     H40308   8.780   6.527   1.521  1.9441  0.8304  1.6333
  299MOL0     H40309   8.878   6.465   1.384 -2.2618 -0.2170 -2.7776
  299MOL0     H40310   8.954   6.726   1.417 -1.2216 -0.2721  0.2845
  299MOL0     H40311   8.912   6.688   1.582  0.3185  1.9728  0.4610
  299MOL0     H40312   9.150   6.669   1.525 -1.6109  1.0092 -0.1016
  299MOL0     H40313   9.131   6.533   1.409  1.1165 -1.0225  0.7861
  299MOL0     H40314   9.048   6.508   1.686 -1.3404  1.0064 -1.6109
  299MOL0     H40315   9.074   6.379   1.562 -0.6376 -0.2800  0.1236
  299MOL0     H40316   9.296   6.279   1.535  1.8491 -1.7502  0.7471
  299MOL0     H40317   9.540   6.182   1.793 -1.7197  0.9640  0.9949
  299MOL0     H40318   9.536   6.183   1.617 -2.1988 -0.0745  0.2716
  299MOL0     H40319   9.705   6.341   1.812 -3.0983  1.6952  0.3090
  299MOL0     H40320   9.748   6.254   1.652  0.8415  1.2988  0.0040
  299MOL0     H40321   9.615   6.519   1.685  0.8834  1.2112 -0.6554
  299MOL0     H40322   9.651   6.433   1.529  0.9476  1.0720 -0.8205
  299MOL0     H40323   9.817   6.620   1.576  0.1069  1.7597  0.4776
  299MOL0     H40324   9.880   6.455   1.556 -0.5713  1.6315 -0.7610
  299MOL0     H40325  10.100   6.392   1.843 -0.5148  0.3575  1.7197
  299MOL0     H40326  10.337   6.437   1.791  1.0283 -0.0491 -2.7171
  299MOL0     H40327  10.574   7.010   1.556 -2.2194 -1.3081 -1.1087
  299MOL0     H40328  10.779   7.069   1.456  4.1341 -1.2593 -2.2243
  299MOL0     H40329  11.112   6.829   1.428 -0.5170 -3.1474 -0.2058
  299MOL0     H40330  11.085   6.775   1.257 -3.5440  0.1959 -1.3518
  299MOL0     H40331  11.131   7.027   1.188  2.1078 -1.1433 -1.2548
  299MOL0     H40332  11.178   7.044   1.363  1.7749 -2.3592  2.1803
  299MOL0     H40333  11.298   6.866   1.155  0.1753  0.6228 -1.1165
  299MOL0     H40334  11.378   7.005   1.212 -0.1549 -0.7489 -2.3591
  299MOL0     H40335  11.317   6.760   1.385  1.7233 -0.4191  2.5523
  299MOL0     H40336  11.375   6.916   1.448  0.7399  1.3158 -0.8212
  299MOL0     H40337  11.574   6.903   1.312  0.8598 -0.6035 -4.3241
  299MOL0     H40338  11.523   6.762   1.235  0.4902 -0.8959 -0.2953
  299MOL0     H40339  11.586   6.795   1.529  0.9397 -0.9350 -0.2072
  299MOL0     H40340  11.506   6.655   1.476  0.4338 -0.8767  1.1219
  299MOL0     H40341  11.744   6.633   1.492 -1.9538 -1.4516 -0.5454
  299MOL0     H40342  11.781   6.762   1.376 -0.9499  1.8968 -0.2432
  299MOL0     H40343  11.689   6.623   1.195 -0.5102 -1.1951 -0.7075
  299MOL0     H40344  11.825   6.558   1.278 -0.1250  1.7089 -1.7853
  299MOL0     H40345  10.879   6.652   1.392  0.6708 -0.5537  2.4672
  299MOL0     H40346  10.693   6.595   1.519  2.1490 -0.3143  0.9426
  299MOL0     H40347  10.220   6.802   1.589 -1.0704  0.2732 -0.1374
  299MOL0     H40348   9.982   6.769   1.678  0.9963  1.8314 -1.4507
  299MOL0     H40349   8.247   6.878   1.112  1.3556 -0.2200 -0.6867
  299MOL0     H40350   8.048   7.014   1.049 -2.0631  1.3491 -0.0284
  299MOL0     H40351   7.937   7.619   0.973 -0.3822  0.4874  0.4122
  299MOL0     H40352   7.766   7.708   0.827 -3.0530  0.3230  0.6459
  299MOL0     H40353   7.499   7.400   0.594 -0.7103  0.3962 -0.1630
  299MOL0     H40354   7.638   7.456   0.510  0.7370 -0.8751  0.4805
  299MOL0     H40355   7.543   7.647   0.423  0.6296 -2.6945 -1.4855
  299MOL0     H40356   7.416   7.644   0.547  3.8996  2.3689  2.1281
  299MOL0     H40357   7.295   7.577   0.371  1.5676  1.2416 -0.2226
  299MOL0     H40358   7.336   7.410   0.430  0.7040 -0.4101  0.0936
  299MOL0     H40359   7.429   7.541   0.179 -3.2257  0.7798  0.1325
  299MOL0     H40360   7.542   7.427   0.264  0.3768 -0.7199 -0.2014
  299MOL0     H40361   7.240   7.205   0.086 -0.0523 -0.7000 -0.8273
  299MOL0     H40362   7.618   7.312   0.763 -0.3104 -1.8824 -0.2275
  299MOL0     H40363   7.770   7.158   1.040 -0.2499  1.4047  0.7689
  299MOL0     H40364   7.691   7.138   0.889 -0.1097 -1.4446  1.3554
  299MOL0     H40365   7.866   7.129   0.892 -0.1437 -1.3066  2.2959
  300MOL0     O40366   2.145   8.493   9.376 -0.6158 -0.0137 -0.5357
  300MOL0     C40367   2.089   8.381   9.387 -0.0650  0.2836  0.0139
  300MOL0     O40368   2.154   8.272   9.432 -0.6360 -0.3889  0.3934
  300MOL0     C40369   2.284   8.266   9.479 -0.2581  1.0247  0.1640
  300MOL0     C40370   2.389   8.348   9.435 -0.1786 -0.8117 -0.0688
  300MOL0     C40371   2.520   8.329   9.473  0.5644 -0.0415 -0.1762
  300MOL0     C40372   2.554   8.231   9.572  0.2114  0.1747  0.9176
  300MOL0     O40373   2.669   8.213   9.630 -0.2056  0.0263 -0.4639
  300MOL0     C40374   2.794   8.252   9.558  0.7166  0.0146  0.5096
  300MOL0     C40375   2.839   8.382   9.615  0.1912 -0.3076  0.0066
  300MOL0     C40376   2.938   8.471   9.539 -0.9592  0.7196  0.3442
  300MOL0     C40377   2.993   8.575   9.629 -0.2849 -0.8028  0.3866
  300MOL0     C40378   3.093   8.656   9.549 -1.0228 -0.3735 -0.2154
  300MOL0     C40379   3.140   8.770   9.646 -0.6891 -0.9006  0.7085
  300MOL0     C40380   3.256   8.853   9.579  0.2544  0.1618  0.6381
  300MOL0     C40381   3.200   8.943   9.465  0.6966  0.4848 -0.6330
  300MOL0     N40382   3.326   8.996   9.402  0.5967 -0.4228  0.4249
  300MOL0     C40383   3.432   9.068   9.461  0.5503 -0.5230 -0.8912
  300MOL0     C40384   3.519   9.096   9.351 -0.5239  0.1105 -1.2134
  300MOL0     C40385   3.651   9.164   9.351 -0.8568 -0.7332  0.5627
  300MOL0     C40386   3.708   9.187   9.203  0.4916 -0.0782 -0.9374
  300MOL0     C40387   3.836   9.276   9.196  0.1916 -0.1043  1.1198
  300MOL0     C40388   3.953   9.219   9.284 -0.4636  0.2313  0.4075
  300MOL0     O40389   4.081   9.270   9.240  0.0337 -0.2895  0.0218
  300MOL0     C40390   4.115   9.404   9.236 -0.2136  0.1052  0.3671
  300MOL0     C40391   4.044   9.501   9.305 -0.8074 -0.4983 -0.4174
  300MOL0     C40392   4.076   9.637   9.302 -0.4416 -0.1045  0.1822
  300MOL0     C40393   4.189   9.678   9.228 -0.0025  1.5134  0.4223
  300MOL0     C40394   4.226   9.819   9.244 -0.5557  0.0145  0.2503
  300MOL0     O40395   4.358   9.845   9.202  0.2044 -0.3801  0.2925
  300MOL0     C40396   4.417   9.969   9.219  0.0108 -0.2183  0.1205
  300MOL0     C40397   4.350  10.095   9.187  0.1793  0.0909 -0.0742
  300MOL0     C40398   4.424  10.213   9.204  0.4081 -0.8967  0.1961
  300MOL0     C40399   4.557  10.217   9.255  0.2437 -0.5652 -0.2140
  300MOL0     O40400   4.636  10.319   9.293  0.5342 -0.0288  0.0259
  300MOL0     C40401   4.607  10.446   9.231 -0.2881  0.4501  0.4504
  300MOL0     C40402   4.741  10.521   9.220 -0.4162 -0.1616 -0.6791
  300MOL0     C40403   4.830  10.456   9.129 -0.2430 -0.3115 -0.1200
  300MOL0     C40404   4.952  10.546   9.124  0.1203 -0.5179 -0.3168
  300MOL0     C40405   5.062  10.498   9.037 -0.6003 -0.2542 -0.0515
  300MOL0     C40406   5.190  10.588   9.054  0.1983 -0.7574  0.2463
  300MOL0     C40407   5.314  10.535   8.973 -0.3834 -0.6963 -0.3729
  300MOL0     C40408   5.373  10.409   9.054  0.1602 -0.4909  0.5510
  300MOL0    Cl40409   5.444  10.469   9.207  0.1370  0.5965 -0.2854
  300MOL0     C40410   4.611  10.094   9.285  0.0300  0.6725  0.4825
  300MOL0     C40411   4.547   9.976   9.267 -0.1022  0.5148  1.0283
  300MOL0     O40412   4.157   9.907   9.288 -0.0828  0.8518  0.2387
  300MOL0     C40413   4.268   9.589   9.167 -0.6117  0.5077 -0.4188
  300MOL0     C40414   4.230   9.450   9.171  0.3025 -1.0330 -0.2033
  300MOL0     N40415   3.469   9.033   9.239  0.2845 -0.0299  0.4718
  300MOL0     N40416   3.359   8.970   9.267  0.3666  0.3001  0.4836
  300MOL0     C40417   2.449   8.151   9.621  0.0489 -0.3595 -0.2048
  300MOL0     C40418   2.316   8.166   9.575 -0.3740 -0.7033  0.0987
  300MOL0     C40419   1.945   8.387   9.372  0.1452  0.5480 -0.0682
  300MOL0     C40420   1.862   8.335   9.470 -0.7776  0.3076 -0.1809
  300MOL0     C40421   1.724   8.324   9.440 -0.6986  0.1369  0.1823
  300MOL0     C40422   1.675   8.370   9.310  0.7854  0.0585 -0.9882
  300MOL0     O40423   1.537   8.350   9.290  0.2779  0.0176  0.3730
  300MOL0     C40424   1.492   8.378   9.158  0.4503  0.1181 -0.4334
  300MOL0     C40425   1.341   8.394   9.157  0.0054 -0.8909 -0.0367
  300MOL0     C40426   1.278   8.490   9.259  0.0749 -1.2230 -0.1385
  300MOL0     C40427   1.313   8.644   9.236 -0.3678 -0.0454  0.5443
  300MOL0     C40428   1.216   8.736   9.294 -0.5396  0.5476 -0.5856
  300MOL0     C40429   1.134   8.807   9.357  0.5194 -0.7556  0.1234
  300MOL0     C40430   1.761   8.424   9.215 -0.1885  0.0762  1.1103
  300MOL0     C40431   1.898   8.440   9.246  0.6605 -0.9100 -0.4839
  300MOL0     C40432   1.985   8.497   9.138 -0.4465 -0.1801  0.1121
  300MOL0     H40433   2.374   8.430   9.366 -0.4593  0.2278  1.1954
  300MOL0     H40434   2.599   8.399   9.447 -1.7352  2.0520 -2.0471
  300MOL0     H40435   2.875   8.179   9.572  1.3569  0.8559  1.3547
  300MOL0     H40436   2.780   8.258   9.450 -1.8576  0.1442  0.7919
  300MOL0     H40437   2.883   8.353   9.711 -0.9343 -1.6662  0.1474
  300MOL0     H40438   2.746   8.439   9.626  0.5305  0.0339  1.3610
  300MOL0     H40439   2.880   8.509   9.455 -0.3403 -1.5806 -1.2305
  300MOL0     H40440   3.016   8.410   9.492 -1.9313 -0.6661  0.4683
  300MOL0     H40441   2.928   8.653   9.671  0.2133 -0.0477 -0.2160
  300MOL0     H40442   3.039   8.530   9.718  0.9906 -0.3213  0.0036
  300MOL0     H40443   3.173   8.591   9.512  1.7189  2.4575  0.3078
  300MOL0     H40444   3.039   8.698   9.463 -2.1790 -1.1442  0.1052
  300MOL0     H40445   3.054   8.836   9.664  1.3482  0.9999  4.5348
  300MOL0     H40446   3.167   8.734   9.746 -1.8721 -4.6712 -0.1549
  300MOL0     H40447   3.333   8.785   9.543 -0.5681 -0.9297  0.8684
  300MOL0     H40448   3.292   8.927   9.651 -2.2399  1.8133  0.3238
  300MOL0     H40449   3.147   8.881   9.393 -1.9118  4.0598 -2.0798
  300MOL0     H40450   3.128   9.021   9.492 -0.5348 -1.1328  1.0524
  300MOL0     H40451   3.446   9.097   9.565  0.6228  0.1597 -1.0910
  300MOL0     H40452   3.648   9.254   9.412 -3.1464 -1.0324  0.9965
  300MOL0     H40453   3.715   9.089   9.399 -0.9142 -0.4652  1.0539
  300MOL0     H40454   3.736   9.090   9.162  0.3899  0.1024 -1.4370
  300MOL0     H40455   3.626   9.236   9.149 -2.6582 -1.5220  2.1528
  300MOL0     H40456   3.821   9.382   9.222  1.7170  0.3584  0.2542
  300MOL0     H40457   3.869   9.291   9.092  2.5957  4.9638  2.2892
  300MOL0     H40458   3.963   9.111   9.274  1.3888  0.4076 -0.0096
  300MOL0     H40459   3.937   9.239   9.391  2.1556  3.5258  0.3663
  300MOL0     H40460   3.952   9.476   9.357 -1.9957  1.7613 -1.2790
  300MOL0     H40461   4.011   9.709   9.352  0.6010 -0.3625  1.9702
  300MOL0     H40462   4.245  10.090   9.157 -0.0234  2.8554 -0.1093
  300MOL0     H40463   4.365  10.304   9.194  0.3188 -0.8321  1.2273
  300MOL0     H40464   4.561  10.438   9.133 -0.2236 -2.0100  0.5412
  300MOL0     H40465   4.550  10.502   9.305 -1.3241 -0.5802  0.4561
  300MOL0     H40466   4.721  10.623   9.185 -0.5760  1.0362  2.5527
  300MOL0     H40467   4.777  10.526   9.323 -1.6870  0.8909 -0.2523
  300MOL0     H40468   4.854  10.358   9.172 -2.5962 -0.8073  0.1763
  300MOL0     H40469   4.793  10.442   9.027 -0.4638 -0.8266  0.0282
  300MOL0     H40470   4.997  10.561   9.223 -0.0435 -1.1223 -0.1411
  300MOL0     H40471   4.933  10.650   9.100  0.8033  0.2434  2.1126
  300MOL0     H40472   5.035  10.490   8.931  0.3585  0.4881 -0.3631
  300MOL0     H40473   5.093  10.397   9.066  2.4295  0.7353  0.5023
  300MOL0     H40474   5.137  10.672   9.010 -2.3559 -0.9900  2.6239
  300MOL0     H40475   5.210  10.618   9.157  1.1133 -0.4980  0.0003
  300MOL0     H40476   5.388  10.615   8.958  0.3851 -1.2022  0.6141
  300MOL0     H40477   5.279  10.497   8.877 -1.9591 -0.1428 -0.0521
  300MOL0     H40478   5.300  10.328   9.066 -1.3005  0.1167 -2.9690
  300MOL0     H40479   5.451  10.367   8.990  0.3835  0.1190  0.4176
  300MOL0     H40480   4.714  10.088   9.317  0.3098  1.7326 -0.1855
  300MOL0     H40481   4.607   9.887   9.279  0.9108  1.0155  0.0232
  300MOL0     H40482   4.357   9.612   9.108  1.5468 -2.8673  1.1937
  300MOL0     H40483   4.294   9.378   9.121 -0.5587 -3.2216  1.6155
  300MOL0     H40484   2.473   8.072   9.692  0.3555  2.8721  3.6594
  300MOL0     H40485   2.242   8.095   9.610 -0.7644 -1.6451 -2.4489
  300MOL0     H40486   1.898   8.299   9.566  1.4056  0.7688 -0.7738
  300MOL0     H40487   1.674   8.273   9.521 -1.2689 -1.3739 -1.0600
  300MOL0     H40488   1.524   8.301   9.088  1.0448  1.7325 -2.0129
  300MOL0     H40489   1.531   8.472   9.118 -1.5584  1.5848  0.8429
  300MOL0     H40490   1.291   8.298   9.172 -0.3481 -0.8035 -0.6311
  300MOL0     H40491   1.308   8.422   9.057 -2.6797 -0.6883  0.8417
  300MOL0     H40492   1.305   8.463   9.361  1.6462  1.0282  0.1218
  300MOL0     H40493   1.171   8.471   9.252  0.5250 -3.3458 -2.4954
  300MOL0     H40494   1.411   8.676   9.274 -0.1776 -0.1274  0.1192
  300MOL0     H40495   1.319   8.665   9.129 -0.1403 -2.8290 -0.0470
  300MOL0     H40496   1.061   8.872   9.401  0.8482 -1.1195  1.2235
  300MOL0     H40497   1.738   8.462   9.116  2.4477 -2.5036 -0.6550
  300MOL0     H40498   2.047   8.415   9.100  0.3344  1.1851 -1.6557
  300MOL0     H40499   1.931   8.547   9.057  1.6344  2.0721  0.0139
  300MOL0     H40500   2.051   8.574   9.179 -1.5143  1.0833 -0.4686
  301MOL0     O40501   5.218   3.233   5.701  0.3326  0.4419  0.7031
  301MOL0     C40502   5.108   3.248   5.754  0.6343  0.4248  0.2902
  301MOL0     O40503   5.087   3.316   5.873  0.0703  0.9965 -0.6316
  301MOL0     C40504   5.196   3.380   5.920 -0.6083 -0.4174 -0.3786
  301MOL0     C40505   5.201   3.520   5.897  0.1349  0.0211  0.0601
  301MOL0     C40506   5.308   3.593   5.954  0.0386 -0.1376  0.0325
  301MOL0     C40507   5.407   3.526   6.028 -0.1234 -0.1582 -0.2144
  301MOL0     O40508   5.512   3.599   6.078  0.5775  0.8434 -0.0390
  301MOL0     C40509   5.640   3.539   6.051  0.1129  0.3379 -1.0184
  301MOL0     C40510   5.747   3.600   6.158  1.9408  0.2783  0.6580
  301MOL0     C40511   5.707   3.560   6.307 -0.0776 -0.3651 -0.3263
  301MOL0     C40512   5.621   3.659   6.374 -0.0973 -0.1912 -0.6482
  301MOL0     C40513   5.619   3.642   6.523 -0.3493 -0.2623  0.1538
  301MOL0     C40514   5.506   3.716   6.581 -0.3530 -1.3404 -0.4105
  301MOL0     C40515   5.519   3.734   6.732 -0.3524  0.9955 -0.9602
  301MOL0     C40516   5.388   3.778   6.814  0.0118 -0.1061  0.3903
  301MOL0     N40517   5.285   3.667   6.810 -0.5752 -0.3133 -0.5444
  301MOL0     C40518   5.244   3.592   6.910 -0.2492 -0.0080 -0.6160
  301MOL0     C40519   5.129   3.532   6.872 -0.6550  0.3297 -0.4349
  301MOL0     C40520   5.027   3.441   6.934 -0.8004 -0.3037 -0.1878
  301MOL0     C40521   5.091   3.338   7.034 -1.0087  0.6129  0.1531
  301MOL0     C40522   5.011   3.208   7.055  0.8329  0.4184 -0.4221
  301MOL0     C40523   5.086   3.094   7.112 -0.8442 -0.5657  0.6135
  301MOL0     O40524   5.155   3.024   6.998  0.3008 -0.5685 -0.0671
  301MOL0     C40525   5.279   2.985   7.038 -0.1454  0.4447  0.8502
  301MOL0     C40526   5.382   3.057   7.099  0.0448  0.5412  1.0671
  301MOL0     C40527   5.502   2.988   7.143 -0.0355  0.0397 -0.4703
  301MOL0     C40528   5.524   2.848   7.116 -0.1387 -0.3390 -1.0659
  301MOL0     C40529   5.635   2.774   7.177  0.6735  1.1065  0.3934
  301MOL0     O40530   5.727   2.848   7.254 -0.0096 -0.1502 -0.4415
  301MOL0     C40531   5.825   2.782   7.328  0.4580  0.1429  0.1610
  301MOL0     C40532   5.919   2.704   7.273 -0.4348 -1.2496  0.3770
  301MOL0     C40533   6.022   2.653   7.347 -0.8361 -0.0794  0.3527
  301MOL0     C40534   6.044   2.678   7.479 -0.0420 -1.1465 -0.5191
  301MOL0     O40535   6.144   2.634   7.550 -0.5379 -0.0996 -0.4835
  301MOL0     C40536   6.193   2.698   7.664 -0.2673  0.2277  0.6054
  301MOL0     C40537   6.320   2.656   7.728  0.3211  0.6830 -0.4896
  301MOL0     C40538   6.336   2.510   7.751  0.8789 -0.3672 -0.6949
  301MOL0     C40539   6.480   2.487   7.790  0.5174  0.0379  0.5430
  301MOL0     C40540   6.498   2.341   7.839 -0.2844 -0.2827 -0.2076
  301MOL0     C40541   6.598   2.340   7.953 -0.0170  0.3033 -0.3686
  301MOL0     C40542   6.747   2.370   7.903  0.4780 -0.0577  0.2035
  301MOL0     C40543   6.842   2.365   8.023  0.1021  0.8436  0.8501
  301MOL0    Cl40544   7.014   2.370   7.963 -0.1911  0.5374  0.2373
  301MOL0     C40545   5.946   2.773   7.541 -0.2062 -0.0645  0.1803
  301MOL0     C40546   5.846   2.821   7.463  0.2773  0.1231  0.6305
  301MOL0     O40547   5.630   2.651   7.169  0.3861 -0.1389  0.1120
  301MOL0     C40548   5.413   2.780   7.057 -1.0038 -0.3174  0.5438
  301MOL0     C40549   5.292   2.842   7.024  0.4671 -0.1278  0.4733
  301MOL0     N40550   5.102   3.588   6.743  0.4236 -0.4213  0.1777
  301MOL0     N40551   5.198   3.658   6.703 -0.1874  1.2017 -0.2653
  301MOL0     C40552   5.388   3.390   6.067 -0.2524 -1.4973  0.2375
  301MOL0     C40553   5.278   3.319   6.014 -0.1016 -0.7622 -1.9100
  301MOL0     C40554   4.991   3.208   5.686  0.1841  0.1691  0.7245
  301MOL0     C40555   4.874   3.188   5.762  1.1274 -1.0215  0.2478
  301MOL0     C40556   4.754   3.147   5.696 -0.2735 -0.5857 -0.3783
  301MOL0     C40557   4.754   3.124   5.557 -0.4479  0.4097 -0.4834
  301MOL0     O40558   4.640   3.079   5.481  0.0662  0.4023 -0.0486
  301MOL0     C40559   4.513   3.045   5.545 -0.7114  0.1962 -0.0796
  301MOL0     C40560   4.514   2.905   5.611  0.5291 -0.4789  0.0565
  301MOL0     C40561   4.539   2.795   5.514 -0.0230  0.0795  0.7111
  301MOL0     C40562   4.540   2.651   5.584 -0.5332 -0.0143  0.2200
  301MOL0     C40563   4.612   2.560   5.495 -0.4301 -0.0687  0.2029
  301MOL0     C40564   4.652   2.472   5.421  0.5699 -0.0586  0.0254
  301MOL0     C40565   4.870   3.149   5.483  0.9179  0.3624  0.5402
  301MOL0     C40566   4.987   3.194   5.543 -0.2738  0.5660 -0.0951
  301MOL0     C40567   5.110   3.225   5.450  0.2992  0.2564  0.3466
  301MOL0     H40568   5.124   3.576   5.846 -2.9150 -1.9213  2.1968
  301MOL0     H40569   5.315   3.701   5.944  0.0681 -0.2747 -1.7317
  301MOL0     H40570   5.645   3.430   6.065  3.8002  0.7171  2.4354
  301MOL0     H40571   5.662   3.571   5.949 -1.4747  1.3284 -1.0879
  301MOL0     H40572   5.757   3.709   6.151  1.1611  0.2797 -0.9689
  301MOL0     H40573   5.841   3.560   6.119  0.4085 -1.4512 -1.5308
  301MOL0     H40574   5.800   3.564   6.363 -0.2320  3.5515 -0.0477
  301MOL0     H40575   5.662   3.461   6.302 -0.4212 -0.1623 -1.9311
  301MOL0     H40576   5.664   3.756   6.346  0.4114 -0.3855 -0.5474
  301MOL0     H40577   5.519   3.654   6.335  0.0508  2.4373 -1.6157
  301MOL0     H40578   5.628   3.536   6.546  1.1720 -0.3697 -0.8302
  301MOL0     H40579   5.705   3.689   6.572 -2.3175  3.3168  0.5514
  301MOL0     H40580   5.489   3.811   6.530  1.8285  0.6740  2.2841
  301MOL0     H40581   5.416   3.663   6.550 -1.1809  0.2345 -0.7907
  301MOL0     H40582   5.602   3.801   6.755 -0.6555  1.5595 -1.4996
  301MOL0     H40583   5.547   3.638   6.777 -3.3234  0.5494  0.2022
  301MOL0     H40584   5.428   3.803   6.913 -0.4320  3.7828 -0.2784
  301MOL0     H40585   5.348   3.867   6.766 -2.0971 -1.7475 -1.0675
  301MOL0     H40586   5.308   3.572   6.995  0.2016  0.8933 -0.7300
  301MOL0     H40587   4.950   3.503   6.980 -1.9712 -0.1011 -2.3245
  301MOL0     H40588   4.977   3.378   6.860  0.2771 -1.0168 -0.3420
  301MOL0     H40589   5.189   3.306   6.999 -1.4382  1.2584 -1.8088
  301MOL0     H40590   5.098   3.384   7.133 -4.3190 -0.6117  1.1068
  301MOL0     H40591   4.967   3.170   6.962  0.3992  4.0189 -1.8510
  301MOL0     H40592   4.924   3.222   7.120  0.7844 -3.1398  0.4531
  301MOL0     H40593   5.016   3.022   7.156 -1.3835  0.1311  0.9066
  301MOL0     H40594   5.156   3.126   7.190  0.7242 -2.2176 -0.0464
  301MOL0     H40595   5.370   3.163   7.117 -0.4171  1.0768 -1.8338
  301MOL0     H40596   5.583   3.035   7.197 -1.6490 -0.5014  2.6198
  301MOL0     H40597   5.917   2.691   7.165  3.0178  0.6689 -0.0598
  301MOL0     H40598   6.074   2.572   7.296 -2.0395 -0.9745  0.4966
  301MOL0     H40599   6.218   2.803   7.648  1.0273  0.4858  3.6304
  301MOL0     H40600   6.114   2.682   7.738 -1.3754  0.4542 -0.4850
  301MOL0     H40601   6.410   2.693   7.678  1.2068 -2.3447 -1.3140
  301MOL0     H40602   6.322   2.698   7.829 -0.1435  1.8197 -0.9309
  301MOL0     H40603   6.277   2.471   7.834  1.6921 -1.8781 -0.7834
  301MOL0     H40604   6.307   2.462   7.657 -1.8765  0.2248 -0.2404
  301MOL0     H40605   6.499   2.560   7.869 -0.6493  0.2532  0.6386
  301MOL0     H40606   6.557   2.503   7.714 -1.3662 -0.1461 -1.5241
  301MOL0     H40607   6.535   2.269   7.766  2.6890  0.3255  0.5810
  301MOL0     H40608   6.400   2.303   7.872  0.9886  0.3832  5.2926
  301MOL0     H40609   6.561   2.411   8.028  0.3545 -1.0844  1.1688
  301MOL0     H40610   6.600   2.240   7.996 -0.4210 -1.4467 -4.0328
  301MOL0     H40611   6.752   2.471   7.861 -1.3310 -0.5425 -1.3187
  301MOL0     H40612   6.777   2.290   7.835 -1.2666 -1.7210  1.2796
  301MOL0     H40613   6.821   2.452   8.085 -1.3579  0.3651  1.0687
  301MOL0     H40614   6.834   2.275   8.084  2.3570 -0.8443 -1.1390
  301MOL0     H40615   5.948   2.798   7.647 -0.9640  1.7875 -0.2080
  301MOL0     H40616   5.768   2.890   7.495 -0.7862  0.1430 -1.7752
  301MOL0     H40617   5.415   2.671   7.054 -1.4201 -0.3004 -1.3650
  301MOL0     H40618   5.212   2.780   6.985 -1.0611  0.0891  3.0787
  301MOL0     H40619   5.454   3.331   6.130 -1.2664 -4.0948 -1.0099
  301MOL0     H40620   5.241   3.218   6.031 -1.9314 -0.7996 -5.1553
  301MOL0     H40621   4.857   3.200   5.868  0.0321  0.5655 -0.0772
  301MOL0     H40622   4.663   3.120   5.748 -0.2420 -0.0948 -0.0622
  301MOL0     H40623   4.425   3.047   5.480 -3.1399  2.0586  3.0135
  301MOL0     H40624   4.504   3.129   5.614  1.4667 -0.6810  1.3927
  301MOL0     H40625   4.419   2.886   5.661 -0.6564 -2.8530 -2.7821
  301MOL0     H40626   4.591   2.906   5.688  0.9065  1.9018 -0.2673
  301MOL0     H40627   4.637   2.820   5.472 -0.0117 -1.1664 -0.0250
  301MOL0     H40628   4.459   2.789   5.441  0.0612 -1.1399  0.6943
  301MOL0     H40629   4.594   2.650   5.679  0.4299 -1.8705 -0.3022
  301MOL0     H40630   4.439   2.618   5.611 -0.9245 -0.6799 -1.8962
  301MOL0     H40631   4.682   2.383   5.369 -0.2528 -1.2120  1.4529
  301MOL0     H40632   4.872   3.118   5.379  0.2301 -2.1044  1.1848
  301MOL0     H40633   5.184   3.146   5.462  0.0004 -0.2138 -0.7494
  301MOL0     H40634   5.101   3.244   5.343  2.9786  0.1625  0.0455
  301MOL0     H40635   5.146   3.321   5.486  1.5757 -0.0078 -0.1650
  302MOL0     O40636   6.732   4.314  10.645 -0.2848 -0.9663 -0.2575
  302MOL0     C40637   6.683   4.337  10.533 -0.8042  0.4462  0.7365
  302MOL0     O40638   6.756   4.375  10.421  0.4402  0.8371  0.7886
  302MOL0     C40639   6.894   4.375  10.428  0.0262  1.6600  0.7347
  302MOL0     C40640   6.980   4.267  10.474  0.9398 -0.7103 -0.5280
  302MOL0     C40641   7.114   4.279  10.468  0.5209 -0.0119  0.1284
  302MOL0     C40642   7.167   4.404  10.417  0.0976  1.1061 -0.0463
  302MOL0     O40643   7.296   4.438  10.419  0.0214 -0.0352  0.4513
  302MOL0     C40644   7.371   4.382  10.524 -0.0714  0.1999 -0.8820
  302MOL0     C40645   7.488   4.466  10.581  0.4388  0.6359 -0.4020
  302MOL0     C40646   7.588   4.504  10.468  0.7825  0.4924 -0.7958
  302MOL0     C40647   7.717   4.583  10.528  0.8922 -0.0012 -0.6475
  302MOL0     C40648   7.840   4.602  10.437  0.3310  0.2887 -0.2348
  302MOL0     C40649   7.912   4.732  10.471 -0.4693  0.2425 -0.2663
  302MOL0     C40650   7.975   4.723  10.615 -0.5768 -0.2281  0.8172
  302MOL0     C40651   8.081   4.829  10.649  0.4135 -0.4987  0.3255
  302MOL0     N40652   8.172   4.781  10.750 -0.2434 -0.0907  0.3869
  302MOL0     C40653   8.137   4.745  10.878 -0.5609 -0.3496  0.7221
  302MOL0     C40654   8.252   4.694  10.925  0.6526  0.2759  0.3283
  302MOL0     C40655   8.277   4.649  11.071  0.3202 -0.4367 -0.7036
  302MOL0     C40656   8.307   4.770  11.158  0.4638 -0.1028 -0.4563
  302MOL0     C40657   8.429   4.852  11.110  0.2751  1.1009  0.0025
  302MOL0     C40658   8.558   4.776  11.127  0.7409 -0.4791  0.1846
  302MOL0     O40659   8.591   4.729  11.262 -0.8347 -0.2268  0.3169
  302MOL0     C40660   8.724   4.732  11.290 -0.3300 -0.7624 -1.0123
  302MOL0     C40661   8.791   4.854  11.307  0.2723  0.1970 -0.5320
  302MOL0     C40662   8.932   4.839  11.326  0.2023  0.3312 -0.2697
  302MOL0     C40663   8.997   4.713  11.336 -0.0493 -0.5374 -0.6422
  302MOL0     C40664   9.146   4.708  11.354  0.2724 -0.0496  0.5696
  302MOL0     O40665   9.200   4.813  11.419 -0.1291 -0.0554 -0.0060
  302MOL0     C40666   9.330   4.823  11.459 -0.6553  0.7978 -0.0750
  302MOL0     C40667   9.352   4.953  11.504 -0.1274  0.1382  0.4392
  302MOL0     C40668   9.474   4.982  11.571 -0.4057  1.0454 -0.0968
  302MOL0     C40669   9.576   4.892  11.593  0.0168 -0.5495  0.7740
  302MOL0     O40670   9.689   4.937  11.658 -0.8307 -0.2223 -0.8435
  302MOL0     C40671   9.804   4.846  11.673  0.3864 -0.1243  1.3114
  302MOL0     C40672   9.912   4.915  11.747 -0.3886 -0.5733  0.5944
  302MOL0     C40673  10.047   4.842  11.759  0.7575 -0.4298  0.1494
  302MOL0     C40674  10.146   4.919  11.851  0.1480  0.1158 -0.5426
  302MOL0     C40675  10.290   4.846  11.855 -0.6881  0.0862  0.1651
  302MOL0     C40676  10.372   4.916  11.968 -0.5821 -0.1177  0.3178
  302MOL0     C40677  10.519   4.906  11.936 -0.2759 -0.1982 -0.1393
  302MOL0     C40678  10.605   4.993  12.023  0.2905 -0.1420 -0.1455
  302MOL0    Cl40679  10.580   4.954  12.187 -0.0097 -0.3473 -0.0958
  302MOL0     C40680   9.557   4.770  11.531  0.1769  0.8116  0.5670
  302MOL0     C40681   9.437   4.729  11.467  0.2396  0.2314  0.4566
  302MOL0     O40682   9.202   4.607  11.324  0.5489  0.5925  0.4482
  302MOL0     C40683   8.919   4.598  11.335 -0.1038 -0.6820 -0.0648
  302MOL0     C40684   8.786   4.613  11.319  0.2778 -0.4605  0.3042
  302MOL0     N40685   8.355   4.693  10.829  0.5102 -0.7190 -0.4264
  302MOL0     N40686   8.305   4.742  10.723  0.4719  0.0067 -0.0547
  302MOL0     C40687   7.091   4.503  10.370  0.7573  0.1768 -0.8518
  302MOL0     C40688   6.951   4.489  10.377  0.2669 -0.5330  0.2808
  302MOL0     C40689   6.537   4.322  10.523 -0.1468  0.0261 -0.3790
  302MOL0     C40690   6.491   4.277  10.394  0.2527 -0.0880 -0.0311
  302MOL0     C40691   6.359   4.261  10.372 -0.2581  0.7556  0.1307
  302MOL0     C40692   6.261   4.287  10.460  0.5197  0.2128 -0.3759
  302MOL0     O40693   6.125   4.308  10.443 -0.0849 -0.0002  0.3311
  302MOL0     C40694   6.072   4.262  10.317  0.9308  0.0640 -0.8160
  302MOL0     C40695   5.909   4.278  10.317 -0.3451 -0.4652 -0.0904
  302MOL0     C40696   5.849   4.177  10.209  0.3560 -0.2697  0.7902
  302MOL0     C40697   5.714   4.224  10.148 -0.4482 -0.0683 -0.7583
  302MOL0     C40698   5.696   4.177  10.016 -0.0123 -0.3471 -0.2564
  302MOL0     C40699   5.684   4.137   9.904  0.8762 -0.0187 -0.8055
  302MOL0     C40700   6.297   4.329  10.590 -0.0418  1.5275  0.1986
  302MOL0     C40701   6.435   4.336  10.626  1.0931  0.9040 -0.4349
  302MOL0     C40702   6.459   4.362  10.764 -0.0937  0.1961 -0.0842
  302MOL0     H40703   6.932   4.187  10.529  0.7781  0.2400  0.7512
  302MOL0     H40704   7.182   4.203  10.507  4.6847  2.2474 -2.0269
  302MOL0     H40705   7.315   4.351  10.614  2.5995 -3.0637 -0.1392
  302MOL0     H40706   7.415   4.286  10.496  0.3662  0.4816 -1.1614
  302MOL0     H40707   7.552   4.413  10.652 -0.4884 -0.7727 -0.5881
  302MOL0     H40708   7.453   4.562  10.618  0.4069  0.2367  0.6148
  302MOL0     H40709   7.549   4.558  10.382 -0.3543 -1.4438 -1.5643
  302MOL0     H40710   7.631   4.413  10.425  0.7119  1.0012 -1.9880
  302MOL0     H40711   7.682   4.684  10.551  2.7949  0.0553  2.6561
  302MOL0     H40712   7.736   4.540  10.626 -5.4161 -0.9194  0.6327
  302MOL0     H40713   7.911   4.519  10.442 -1.5295 -1.5709 -2.1706
  302MOL0     H40714   7.800   4.611  10.335 -2.5048 -0.4518  0.7483
  302MOL0     H40715   7.995   4.746  10.401 -2.2101 -0.0262 -2.4946
  302MOL0     H40716   7.845   4.818  10.459 -0.2605  0.4174 -0.2071
  302MOL0     H40717   8.020   4.623  10.619 -0.5359 -0.3159 -0.8992
  302MOL0     H40718   7.897   4.733  10.692  0.6947 -2.4983  2.5322
  302MOL0     H40719   8.137   4.849  10.558  1.2083 -1.4249  0.5942
  302MOL0     H40720   8.032   4.925  10.669 -0.1518 -0.6038 -0.5168
  302MOL0     H40721   8.043   4.773  10.925  0.5464  3.0688  1.1217
  302MOL0     H40722   8.181   4.605  11.098 -0.3259  0.8294 -0.8569
  302MOL0     H40723   8.354   4.571  11.063 -0.3666 -1.4758  1.9426
  302MOL0     H40724   8.222   4.838  11.152  0.6679  0.0269 -2.9656
  302MOL0     H40725   8.328   4.735  11.260 -2.0791 -3.4848 -0.9289
  302MOL0     H40726   8.426   4.937  11.179 -2.8418  0.7231  0.5087
  302MOL0     H40727   8.397   4.892  11.013  1.2887 -0.4231 -0.9918
  302MOL0     H40728   8.632   4.840  11.077 -1.0400 -0.5816 -2.8144
  302MOL0     H40729   8.554   4.677  11.081 -1.2613 -0.2295 -0.2423
  302MOL0     H40730   8.744   4.951  11.297 -0.3795  0.0743  1.0246
  302MOL0     H40731   8.990   4.931  11.335  1.5051 -0.5228  0.4450
  302MOL0     H40732   9.282   5.035  11.485 -0.4939 -0.0247  1.0742
  302MOL0     H40733   9.489   5.081  11.612  0.5001  0.2463  1.6237
  302MOL0     H40734   9.777   4.759  11.734  0.4492 -0.6806  0.5585
  302MOL0     H40735   9.851   4.814  11.579 -0.0930 -0.2925  1.1262
  302MOL0     H40736   9.937   5.004  11.689 -0.5705 -0.7021  0.3174
  302MOL0     H40737   9.872   4.953  11.842  0.7781 -0.0143  0.8790
  302MOL0     H40738  10.033   4.750  11.816 -1.2744 -0.0922  0.2668
  302MOL0     H40739  10.087   4.822  11.659 -0.6775  0.7937 -0.7136
  302MOL0     H40740  10.115   4.924  11.955  2.1106 -0.9881  0.1353
  302MOL0     H40741  10.149   5.023  11.815  1.6075  0.1111 -0.4881
  302MOL0     H40742  10.342   4.841  11.759  2.1979 -0.7612  1.6470
  302MOL0     H40743  10.252   4.751  11.894 -3.5321  2.4518  3.9522
  302MOL0     H40744  10.352   5.024  11.975 -1.8618 -0.3120 -0.1655
  302MOL0     H40745  10.347   4.867  12.062  1.1578 -1.6348  0.0558
  302MOL0     H40746  10.540   4.928  11.831 -0.4115  2.1875  0.2786
  302MOL0     H40747  10.546   4.806  11.971 -1.9056  0.3942  3.2971
  302MOL0     H40748  10.709   4.967  12.000 -0.4948 -2.4837 -1.4329
  302MOL0     H40749  10.585   5.100  12.012  1.4008  0.1942  0.8941
  302MOL0     H40750   9.640   4.703  11.545 -1.9426 -1.6676  2.2074
  302MOL0     H40751   9.433   4.631  11.420  0.3891  1.8146 -3.1945
  302MOL0     H40752   8.969   4.504  11.355  0.5199 -0.7864 -1.9446
  302MOL0     H40753   8.714   4.535  11.344 -0.3910  0.7416  2.3708
  302MOL0     H40754   7.131   4.598  10.334  1.3961  0.3023  0.1522
  302MOL0     H40755   6.877   4.560  10.341 -1.6649 -2.3340  0.4348
  302MOL0     H40756   6.564   4.270  10.313 -0.3046 -3.2156 -0.3868
  302MOL0     H40757   6.340   4.239  10.267 -0.9946  0.8064  0.2491
  302MOL0     H40758   6.096   4.157  10.302 -0.9607 -0.6831  0.9961
  302MOL0     H40759   6.115   4.331  10.244 -1.5636  1.9700 -0.6021
  302MOL0     H40760   5.872   4.378  10.292 -0.0772 -1.0125 -3.0303
  302MOL0     H40761   5.888   4.255  10.422  2.1921  2.2264  1.1561
  302MOL0     H40762   5.831   4.083  10.262 -0.7686 -0.0076  0.9013
  302MOL0     H40763   5.914   4.159  10.123 -0.1854  1.8563 -0.1352
  302MOL0     H40764   5.637   4.189  10.217 -0.2683  2.9114  1.1818
  302MOL0     H40765   5.706   4.333  10.151  1.8385  0.1465  1.7500
  302MOL0     H40766   5.680   4.087   9.810  0.4856 -2.0131  0.2216
  302MOL0     H40767   6.218   4.361  10.656 -1.4996  1.8535 -1.6343
  302MOL0     H40768   6.532   4.290  10.803 -0.9088 -0.1005  0.9355
  302MOL0     H40769   6.500   4.461  10.784 -0.8068  0.2064  1.5201
  302MOL0     H40770   6.373   4.367  10.831  0.5236  4.0890  0.6333
  303MOL0     O40771   0.282   5.151   1.816  0.1839 -0.4523 -0.0589
  303MOL0     C40772   0.357   5.106   1.898 -0.1385  0.0671  0.3716
  303MOL0     O40773   0.495   5.067   1.878 -0.3060  0.3006 -0.3666
  303MOL0     C40774   0.560   5.051   1.756  1.0092  0.2433  0.8521
  303MOL0     C40775   0.489   5.043   1.635 -0.8208  0.9175  0.3888
  303MOL0     C40776   0.554   4.988   1.523 -1.1479 -0.0671 -0.6541
  303MOL0     C40777   0.689   4.962   1.530 -0.1382  0.2669 -0.1486
  303MOL0     O40778   0.755   4.936   1.418  0.6858  0.5234  0.3262
  303MOL0     C40779   0.817   4.814   1.395 -0.7005  0.6630 -0.1109
  303MOL0     C40780   0.724   4.693   1.415  0.5695  0.7973  0.3557
  303MOL0     C40781   0.795   4.563   1.376  0.4801 -0.2682  0.1776
  303MOL0     C40782   0.844   4.468   1.489  0.4224 -1.4689  0.2713
  303MOL0     C40783   0.929   4.354   1.440  0.7471 -0.0589 -0.5020
  303MOL0     C40784   0.944   4.237   1.539  0.1425 -0.7386 -0.3370
  303MOL0     C40785   0.890   4.110   1.460  0.4035  0.1846 -1.5653
  303MOL0     C40786   0.863   3.987   1.552 -0.0430 -0.2225  0.4030
  303MOL0     N40787   0.848   3.862   1.471  0.4065 -0.4421  0.1790
  303MOL0     C40788   0.728   3.814   1.428  0.7526  0.1110 -0.1078
  303MOL0     C40789   0.765   3.701   1.361  0.5060 -0.4392  0.2778
  303MOL0     C40790   0.666   3.607   1.295 -0.1619  0.0844  0.2181
  303MOL0     C40791   0.725   3.498   1.192 -0.0223 -0.0568 -0.5512
  303MOL0     C40792   0.818   3.395   1.248  0.6693 -0.1203 -0.1309
  303MOL0     C40793   0.824   3.277   1.145  0.4537 -0.7200  0.1565
  303MOL0     O40794   0.903   3.309   1.024  0.0124  0.2340  0.2161
  303MOL0     C40795   0.974   3.197   0.998 -0.7567 -0.2863  0.0082
  303MOL0     C40796   1.108   3.231   0.962  0.9588 -0.4902 -0.2056
  303MOL0     C40797   1.205   3.140   0.945 -0.1184  0.2666  0.3529
  303MOL0     C40798   1.171   2.999   0.952  0.3164  0.6113  0.2196
  303MOL0     C40799   1.263   2.898   0.902  0.1877 -0.0275  0.2052
  303MOL0     O40800   1.386   2.947   0.878 -0.2731 -0.3332  0.5574
  303MOL0     C40801   1.493   2.869   0.843 -0.3174 -0.1016  0.4695
  303MOL0     C40802   1.525   2.744   0.896 -0.4441 -0.6580 -0.3864
  303MOL0     C40803   1.633   2.674   0.842 -0.4021 -0.3182  0.4582
  303MOL0     C40804   1.724   2.732   0.756 -0.1403  0.6899 -0.5443
  303MOL0     O40805   1.842   2.662   0.729 -0.2976 -0.8983 -0.1414
  303MOL0     C40806   1.862   2.524   0.765  0.3677  0.7354  0.5353
  303MOL0     C40807   1.989   2.474   0.688  0.3031  0.0035 -0.0036
  303MOL0     C40808   1.995   2.507   0.537 -0.8083 -0.3072  0.3828
  303MOL0     C40809   2.110   2.424   0.475 -0.1041 -0.5241 -1.4340
  303MOL0     C40810   2.135   2.479   0.335  0.5739 -0.4787  0.0867
  303MOL0     C40811   2.232   2.407   0.246  0.9322 -0.0473  0.1160
  303MOL0     C40812   2.245   2.478   0.111  0.9225  0.1816  0.0788
  303MOL0     C40813   2.352   2.399   0.033 -0.3834  0.9525 -0.5363
  303MOL0    Cl40814   2.314   2.235  -0.032 -0.0551  0.1990  0.2987
  303MOL0     C40815   1.698   2.858   0.709  1.0845  0.6287 -0.5405
  303MOL0     C40816   1.581   2.924   0.745  0.3511  0.4440  1.1860
  303MOL0     O40817   1.230   2.786   0.889 -0.1743  0.5555 -0.2367
  303MOL0     C40818   1.038   2.968   0.986 -0.2737 -0.0098 -0.4455
  303MOL0     C40819   0.942   3.066   1.004  0.6020 -0.1288  0.1347
  303MOL0     N40820   0.900   3.688   1.361 -0.4978 -0.9025 -0.5177
  303MOL0     N40821   0.952   3.783   1.431  1.0715  0.9565  0.5596
  303MOL0     C40822   0.762   4.986   1.648 -0.5026 -0.1568  0.7860
  303MOL0     C40823   0.695   5.035   1.763  0.0055 -1.1312 -0.0419
  303MOL0     C40824   0.291   5.092   2.034  0.5146  0.0644 -0.6373
  303MOL0     C40825   0.358   4.997   2.109  0.5619  0.5594 -0.2792
  303MOL0     C40826   0.328   4.967   2.240  0.1909  0.1835  0.6294
  303MOL0     C40827   0.220   5.039   2.297  0.1735 -0.3916  0.1569
  303MOL0     O40828   0.193   5.005   2.426 -0.0483  0.1794  0.8774
  303MOL0     C40829   0.059   5.016   2.475 -0.0258  0.3214  0.3750
  303MOL0     C40830   0.045   4.907   2.581  0.2672  0.1869  0.0751
  303MOL0     C40831  -0.094   4.908   2.645 -0.1825  0.0293 -0.1782
  303MOL0     C40832  -0.208   4.876   2.536  0.3280 -0.5816 -0.6843
  303MOL0     C40833  -0.336   4.890   2.614  0.6961 -0.2652 -0.1005
  303MOL0     C40834  -0.439   4.896   2.679  0.0944 -0.2343  1.4487
  303MOL0     C40835   0.144   5.124   2.221  0.4567  0.1650  0.1878
  303MOL0     C40836   0.171   5.150   2.087 -0.6209 -0.3679  0.7673
  303MOL0     C40837   0.068   5.220   2.011  0.1416 -0.4865  1.2607
  303MOL0     H40838   0.381   5.032   1.631 -1.1036  2.1640  2.8061
  303MOL0     H40839   0.501   4.978   1.429 -0.6298  2.1661 -1.2345
  303MOL0     H40840   0.850   4.810   1.291  2.8734 -3.5231  0.8663
  303MOL0     H40841   0.912   4.804   1.448 -0.1543  2.2768 -0.7278
  303MOL0     H40842   0.632   4.698   1.356  2.4405 -2.2791 -3.2884
  303MOL0     H40843   0.694   4.688   1.520 -0.0118  0.3674  0.1777
  303MOL0     H40844   0.876   4.582   1.305  1.1968 -2.7693  0.2236
  303MOL0     H40845   0.727   4.509   1.308  1.7157 -0.0510 -1.2844
  303MOL0     H40846   0.898   4.528   1.563  0.1251 -2.3746  1.2468
  303MOL0     H40847   0.759   4.426   1.542  1.1801 -1.7734  1.2861
  303MOL0     H40848   0.878   4.315   1.351  2.0995 -4.1903  0.3118
  303MOL0     H40849   1.026   4.392   1.409  0.5405  1.4577  0.5999
  303MOL0     H40850   1.051   4.214   1.542  0.2948 -0.0641 -0.4574
  303MOL0     H40851   0.898   4.262   1.636 -0.5957  1.9844 -1.3042
  303MOL0     H40852   0.963   4.086   1.382  1.2790 -1.5332 -0.2896
  303MOL0     H40853   0.793   4.136   1.416 -0.1553 -1.2723 -1.2204
  303MOL0     H40854   0.947   3.966   1.618 -3.3966 -1.0650  4.8579
  303MOL0     H40855   0.784   4.008   1.625 -0.8742 -0.1926 -0.4781
  303MOL0     H40856   0.630   3.859   1.428 -0.1391 -1.4533  3.5331
  303MOL0     H40857   0.602   3.569   1.374  0.2510 -1.1058  0.0031
  303MOL0     H40858   0.604   3.670   1.231 -1.9010  0.7868  2.4953
  303MOL0     H40859   0.638   3.454   1.144 -0.0910 -2.2392  1.4030
  303MOL0     H40860   0.788   3.545   1.116  0.5783  0.0925  0.0289
  303MOL0     H40861   0.761   3.358   1.334 -2.3650  1.8900 -1.1385
  303MOL0     H40862   0.918   3.427   1.279  0.8557  0.5631 -1.4036
  303MOL0     H40863   0.720   3.260   1.117  0.5054  1.9499 -2.1620
  303MOL0     H40864   0.864   3.193   1.204 -4.2197 -1.7184  2.3153
  303MOL0     H40865   1.123   3.336   0.937 -1.7785  0.6825  2.3733
  303MOL0     H40866   1.308   3.172   0.931 -0.1916 -0.3613 -1.9936
  303MOL0     H40867   1.465   2.691   0.970 -1.4779  1.9128  0.7103
  303MOL0     H40868   1.638   2.571   0.874 -0.2955 -0.6349 -0.5450
  303MOL0     H40869   1.875   2.506   0.873  0.6486 -0.1940  0.3561
  303MOL0     H40870   1.773   2.471   0.731  2.7996 -1.8645 -2.4601
  303MOL0     H40871   2.077   2.517   0.735 -1.4595  4.3315 -0.2075
  303MOL0     H40872   2.003   2.365   0.692  0.3779 -0.1286 -2.3725
  303MOL0     H40873   1.902   2.487   0.484  0.0652 -0.7961 -1.0363
  303MOL0     H40874   2.015   2.613   0.519 -3.3633 -0.1223 -1.8737
  303MOL0     H40875   2.077   2.321   0.463 -2.8473  0.1647 -0.4672
  303MOL0     H40876   2.197   2.439   0.540 -0.4643 -0.5780 -0.9324
  303MOL0     H40877   2.165   2.583   0.351  0.9805 -0.1273 -2.4362
  303MOL0     H40878   2.043   2.490   0.276  0.8069 -0.1724 -0.2294
  303MOL0     H40879   2.324   2.406   0.305  1.2381 -1.5712 -0.3594
  303MOL0     H40880   2.188   2.309   0.226 -0.0126  0.4927 -0.5307
  303MOL0     H40881   2.288   2.579   0.120  0.0705  0.9421 -3.0289
  303MOL0     H40882   2.146   2.481   0.065  0.7891 -2.5044  0.0316
  303MOL0     H40883   2.392   2.468  -0.043  0.9873 -0.7150 -1.4046
  303MOL0     H40884   2.426   2.388   0.113 -0.5272  1.5844 -0.3132
  303MOL0     H40885   1.761   2.901   0.632 -0.8885 -0.8959 -3.1693
  303MOL0     H40886   1.560   3.023   0.706 -1.3524  0.4579  2.0440
  303MOL0     H40887   0.994   2.870   1.000 -1.0246  0.4120  0.1809
  303MOL0     H40888   0.837   3.040   1.017  0.9792 -4.5319 -3.3224
  303MOL0     H40889   0.864   4.951   1.646  0.5158  2.6323 -0.0009
  303MOL0     H40890   0.750   5.038   1.856 -0.0755 -3.2668  0.1413
  303MOL0     H40891   0.441   4.943   2.064  1.1700  1.4927 -0.3281
  303MOL0     H40892   0.398   4.899   2.287  3.3898 -0.0935 -3.9083
  303MOL0     H40893  -0.008   4.980   2.397  2.2324  0.4839 -1.7631
  303MOL0     H40894   0.030   5.114   2.514  1.3065  1.0066 -0.2829
  303MOL0     H40895   0.129   4.908   2.651 -1.2840 -0.5493  2.0234
  303MOL0     H40896   0.063   4.810   2.532 -1.4341  0.1586 -0.5381
  303MOL0     H40897  -0.102   5.004   2.697 -0.3708 -0.4735  0.7539
  303MOL0     H40898  -0.104   4.834   2.725 -1.6557  1.1576  0.7436
  303MOL0     H40899  -0.212   4.949   2.455 -0.8156 -0.1871 -0.2868
  303MOL0     H40900  -0.185   4.778   2.493  1.6689  0.0664 -1.4954
  303MOL0     H40901  -0.518   4.905   2.750 -0.1059 -0.0066  1.1993
  303MOL0     H40902   0.058   5.172   2.266 -0.0491 -0.5271 -0.0192
  303MOL0     H40903  -0.014   5.238   2.081  0.2106 -0.2654  1.2852
  303MOL0     H40904   0.094   5.319   1.973 -0.1161  0.3463  3.1631
  303MOL0     H40905   0.031   5.158   1.928  0.4323  0.4281  0.4184
  304MOL0     O40906   1.885   5.593   7.331 -0.3735  0.0273  0.1621
  304MOL0     C40907   1.868   5.657   7.229  0.2766  0.1227  0.0706
  304MOL0     O40908   1.960   5.703   7.148 -0.9841  0.0495  0.9425
  304MOL0     C40909   2.088   5.648   7.152  0.1912 -0.2753 -1.1624
  304MOL0     C40910   2.170   5.680   7.261 -0.3140 -0.7472 -0.1597
  304MOL0     C40911   2.296   5.614   7.275 -0.1885  0.7976 -0.2235
  304MOL0     C40912   2.342   5.529   7.170  0.4041 -0.4191 -0.6763
  304MOL0     O40913   2.453   5.458   7.183 -0.0264 -0.3959  0.0556
  304MOL0     C40914   2.556   5.524   7.109 -0.6075  0.3561  0.0744
  304MOL0     C40915   2.606   5.660   7.154  0.7275 -0.1246 -0.1182
  304MOL0     C40916   2.703   5.649   7.266 -0.6312 -0.5795  0.0462
  304MOL0     C40917   2.848   5.614   7.225  0.1846 -1.0541 -0.1671
  304MOL0     C40918   2.943   5.572   7.338 -0.2660 -0.0882 -0.2328
  304MOL0     C40919   3.078   5.527   7.270 -0.2257 -0.0812  0.4052
  304MOL0     C40920   3.154   5.437   7.360 -0.1026  1.1196  0.5733
  304MOL0     C40921   3.278   5.376   7.283  1.2869  0.5581  0.5083
  304MOL0     N40922   3.348   5.293   7.381  0.2029 -0.2613  0.0353
  304MOL0     C40923   3.288   5.178   7.432 -0.2137 -0.1898  0.0796
  304MOL0     C40924   3.375   5.131   7.534 -0.0975 -1.0646  0.2353
  304MOL0     C40925   3.345   5.018   7.625 -0.0642  0.4155 -0.3141
  304MOL0     C40926   3.458   4.911   7.621 -0.1060  0.2980 -0.5593
  304MOL0     C40927   3.599   4.964   7.674 -0.6473  0.1041 -0.3162
  304MOL0     C40928   3.706   4.863   7.681 -0.1285  0.2249 -0.2154
  304MOL0     O40929   3.836   4.928   7.686  0.0167 -0.7364 -0.1566
  304MOL0     C40930   3.947   4.853   7.668 -0.1579  0.1273 -0.1357
  304MOL0     C40931   3.940   4.711   7.647 -0.3427 -0.0320 -0.1617
  304MOL0     C40932   4.056   4.638   7.648 -0.3703 -0.7861 -0.5202
  304MOL0     C40933   4.175   4.698   7.641 -0.4718 -0.0549 -0.2127
  304MOL0     C40934   4.304   4.627   7.611  0.4641  0.6074 -0.1171
  304MOL0     O40935   4.392   4.695   7.535  0.0115 -0.3625 -0.4024
  304MOL0     C40936   4.526   4.645   7.543 -0.2862  0.4528  0.0151
  304MOL0     C40937   4.569   4.551   7.451  0.6345  0.1489 -0.1326
  304MOL0     C40938   4.694   4.498   7.452  0.6797 -0.0950  0.2006
  304MOL0     C40939   4.783   4.545   7.540 -0.4338 -1.3125  0.1059
  304MOL0     O40940   4.903   4.479   7.530 -0.1928  0.3303  0.0708
  304MOL0     C40941   4.967   4.430   7.651  0.6525 -0.3312  0.2940
  304MOL0     C40942   5.081   4.334   7.619 -0.1021 -0.1987  0.6097
  304MOL0     C40943   5.119   4.261   7.748 -0.2231 -0.5648 -0.2621
  304MOL0     C40944   5.236   4.339   7.815 -0.1496 -0.4931 -0.3919
  304MOL0     C40945   5.369   4.301   7.751  0.1749  0.1515  0.0972
  304MOL0     C40946   5.482   4.354   7.840 -0.5501  0.2405  0.1483
  304MOL0     C40947   5.613   4.356   7.771  0.4855  0.4333  0.2022
  304MOL0     C40948   5.715   4.456   7.815  0.4706 -0.4199  0.0727
  304MOL0    Cl40949   5.756   4.446   7.988 -0.1776 -0.0763 -0.1893
  304MOL0     C40950   4.748   4.640   7.640 -0.0112  0.0172 -0.2112
  304MOL0     C40951   4.618   4.693   7.633 -0.3905 -0.0460 -1.1711
  304MOL0     O40952   4.301   4.504   7.633  0.4079  0.0963  0.2628
  304MOL0     C40953   4.187   4.843   7.641 -0.5700  0.2038  0.5418
  304MOL0     C40954   4.071   4.913   7.671  0.0740  0.0665  0.4444
  304MOL0     N40955   3.463   5.233   7.548 -0.1091 -0.5736 -0.0028
  304MOL0     N40956   3.453   5.330   7.461 -0.6453  0.2801 -0.4463
  304MOL0     C40957   2.268   5.521   7.056  0.0270  0.3294 -0.2213
  304MOL0     C40958   2.141   5.576   7.045  0.7262  0.2122 -0.7125
  304MOL0     C40959   1.728   5.694   7.204 -0.4437 -0.1963 -0.5014
  304MOL0     C40960   1.636   5.674   7.307 -0.0683 -0.5508 -0.2966
  304MOL0     C40961   1.502   5.702   7.298  0.9930 -0.1306  0.3656
  304MOL0     C40962   1.453   5.762   7.179  0.6906  0.0453 -0.4111
  304MOL0     O40963   1.316   5.782   7.175 -0.0132 -0.2208  0.4031
  304MOL0     C40964   1.268   5.885   7.085  0.3586  0.1600  0.3589
  304MOL0     C40965   1.115   5.900   7.103  0.6259 -0.3681  1.0586
  304MOL0     C40966   1.033   5.767   7.070 -0.5033 -0.0491 -0.5703
  304MOL0     C40967   0.885   5.802   7.070 -0.1593 -0.7574 -0.7745
  304MOL0     C40968   0.849   5.810   7.218 -0.8817  0.5798  0.5197
  304MOL0     C40969   0.832   5.816   7.338 -0.2577 -0.6550  0.5847
  304MOL0     C40970   1.542   5.785   7.074  0.6930  0.5250 -0.3904
  304MOL0     C40971   1.679   5.757   7.084 -0.2714  0.2238 -0.0604
  304MOL0     C40972   1.763   5.785   6.961 -0.0876 -0.5069  0.7696
  304MOL0     H40973   2.143   5.746   7.343 -1.7046 -1.6792  0.1635
  304MOL0     H40974   2.364   5.642   7.355  1.4439 -0.7745 -1.0059
  304MOL0     H40975   2.643   5.458   7.120 -1.5364 -0.8757  0.2436
  304MOL0     H40976   2.529   5.519   7.003  0.0039  0.7205 -0.0993
  304MOL0     H40977   2.524   5.731   7.168 -0.6187 -1.0385 -2.7047
  304MOL0     H40978   2.668   5.694   7.070  2.3289  2.5352  1.9730
  304MOL0     H40979   2.672   5.571   7.337  0.9548 -1.9761 -0.7141
  304MOL0     H40980   2.708   5.745   7.319 -0.5918 -0.4795 -0.1397
  304MOL0     H40981   2.841   5.535   7.150  0.0502 -1.0975 -0.1088
  304MOL0     H40982   2.884   5.708   7.182  2.1110 -1.3004  0.8311
  304MOL0     H40983   2.963   5.648   7.414  1.1912  0.4668 -1.1318
  304MOL0     H40984   2.907   5.486   7.394  0.7528 -0.7327 -0.5447
  304MOL0     H40985   3.060   5.474   7.176  1.2121  0.4139 -0.1764
  304MOL0     H40986   3.150   5.605   7.244  0.2651 -1.4579 -2.9252
  304MOL0     H40987   3.089   5.357   7.397 -0.6248  1.7353  1.0039
  304MOL0     H40988   3.199   5.490   7.443  1.5823 -0.1134  0.4929
  304MOL0     H40989   3.259   5.310   7.198 -0.1580  1.4846  0.0897
  304MOL0     H40990   3.331   5.466   7.249  1.7067  0.7479  1.6158
  304MOL0     H40991   3.207   5.120   7.389 -1.8006  2.1495 -0.3047
  304MOL0     H40992   3.334   5.053   7.729 -2.1109 -0.2698 -0.2473
  304MOL0     H40993   3.246   4.975   7.608  0.8380 -1.8514 -0.1349
  304MOL0     H40994   3.423   4.831   7.687  0.7235 -1.2343 -1.9021
  304MOL0     H40995   3.467   4.874   7.519 -0.6372 -0.1386 -0.4493
  304MOL0     H40996   3.587   4.997   7.777  1.0430 -2.2404  0.7397
  304MOL0     H40997   3.633   5.041   7.604 -1.1160 -1.3479 -2.2621
  304MOL0     H40998   3.702   4.803   7.590  2.3899 -3.5653  1.9007
  304MOL0     H40999   3.692   4.789   7.760  0.7310 -1.0892 -1.2586
  304MOL0     H41000   3.848   4.654   7.651  0.6212 -1.6310 -0.2744
  304MOL0     H41001   4.056   4.530   7.644  0.8097 -0.7811 -1.0635
  304MOL0     H41002   4.495   4.515   7.380 -0.6465  2.1121  0.1243
  304MOL0     H41003   4.730   4.438   7.369 -0.5368 -1.7421  0.8139
  304MOL0     H41004   5.006   4.509   7.716 -0.8306  2.0709 -1.5789
  304MOL0     H41005   4.880   4.377   7.693 -0.2941  0.8410 -0.1434
  304MOL0     H41006   5.053   4.256   7.548 -0.9180  1.7866 -1.3989
  304MOL0     H41007   5.169   4.390   7.585  0.6730 -0.9486  1.3376
  304MOL0     H41008   5.035   4.258   7.818 -0.5528 -0.5965 -0.6587
  304MOL0     H41009   5.149   4.156   7.740  2.5331 -0.1344  2.3413
  304MOL0     H41010   5.239   4.317   7.922  0.9797  0.2609 -0.2600
  304MOL0     H41011   5.218   4.447   7.817 -0.0510 -0.4124 -2.3212
  304MOL0     H41012   5.376   4.332   7.646 -0.0256 -2.9471 -0.9547
  304MOL0     H41013   5.356   4.192   7.745  1.1562  0.0869 -1.3630
  304MOL0     H41014   5.462   4.457   7.873  3.2466  1.0177  0.5347
  304MOL0     H41015   5.495   4.291   7.928  2.9625  0.1790 -0.2894
  304MOL0     H41016   5.585   4.366   7.666 -1.0246 -1.8137  0.3231
  304MOL0     H41017   5.650   4.254   7.783 -2.0885 -0.6637 -0.4290
  304MOL0     H41018   5.801   4.428   7.754 -0.7974 -0.7522 -1.6576
  304MOL0     H41019   5.668   4.553   7.792 -2.1238 -1.3417  1.0637
  304MOL0     H41020   4.823   4.672   7.712 -0.9850  3.3667 -0.4838
  304MOL0     H41021   4.597   4.774   7.702  0.2966 -0.2930 -0.6593
  304MOL0     H41022   4.278   4.901   7.635 -0.2601 -0.3158 -0.0053
  304MOL0     H41023   4.070   5.019   7.694 -1.2934  0.6207 -1.8503
  304MOL0     H41024   2.310   5.474   6.968  0.8708  0.5209  0.0718
  304MOL0     H41025   2.092   5.546   6.952 -0.2725  0.3546 -0.2518
  304MOL0     H41026   1.672   5.645   7.406  0.3303  0.5638 -0.1019
  304MOL0     H41027   1.436   5.684   7.382 -1.3130  2.2166 -0.8078
  304MOL0     H41028   1.280   5.871   6.977 -0.5130  2.4734 -0.0963
  304MOL0     H41029   1.308   5.984   7.111 -1.7366  1.0459  0.4566
  304MOL0     H41030   1.083   5.986   7.043  0.4562 -1.2190 -0.1014
  304MOL0     H41031   1.110   5.926   7.209 -1.0375 -0.6689  1.0761
  304MOL0     H41032   1.059   5.682   7.133  0.8612 -1.2031 -2.5806
  304MOL0     H41033   1.061   5.732   6.970 -2.8493 -1.0635 -0.9380
  304MOL0     H41034   0.867   5.896   7.018 -0.2987  0.3743  1.2064
  304MOL0     H41035   0.827   5.731   7.011 -1.5437  2.4214 -3.5544
  304MOL0     H41036   0.805   5.823   7.442 -0.7248  0.7133  0.3914
  304MOL0     H41037   1.503   5.819   6.979 -2.4883  1.3594  1.0639
  304MOL0     H41038   1.824   5.695   6.943 -1.0518 -1.4957  2.2584
  304MOL0     H41039   1.694   5.805   6.879 -0.3300 -1.8404  0.6191
  304MOL0     H41040   1.838   5.864   6.968  2.5878 -2.8524  0.6516
  305MOL0     O41041   5.312   2.406   9.488 -0.1025 -0.1434 -0.1471
  305MOL0     C41042   5.263   2.475   9.392 -1.2551 -0.4303  0.3676
  305MOL0     O41043   5.319   2.584   9.333 -0.4659 -0.1386 -0.7271
  305MOL0     C41044   5.439   2.636   9.370  0.2534 -0.3366 -0.4238
  305MOL0     C41045   5.536   2.570   9.449 -0.3563  0.5059  0.9318
  305MOL0     C41046   5.646   2.639   9.499  0.7693  0.5238  0.1726
  305MOL0     C41047   5.666   2.775   9.478 -0.5791  1.0231  0.2897
  305MOL0     O41048   5.769   2.840   9.541 -0.7005 -0.5206 -0.7404
  305MOL0     C41049   5.847   2.782   9.641 -0.1746  0.1989  0.1139
  305MOL0     C41050   5.945   2.887   9.688 -0.2189 -0.5963 -0.0081
  305MOL0     C41051   6.075   2.829   9.735  0.7187 -1.0267  0.2178
  305MOL0     C41052   6.164   2.946   9.779  0.3334 -0.0652 -0.0969
  305MOL0     C41053   6.114   3.009   9.910  0.0971 -0.4140  0.3069
  305MOL0     C41054   6.234   3.068   9.977  0.2721 -1.1478  0.2850
  305MOL0     C41055   6.197   3.102  10.125 -0.1974  0.0485  0.7083
  305MOL0     C41056   6.108   3.222  10.138 -0.1850  0.4875  0.3806
  305MOL0     N41057   6.061   3.233  10.267  0.4603 -0.4190  0.1552
  305MOL0     C41058   5.933   3.244  10.316 -0.9404  0.5407  0.3778
  305MOL0     C41059   5.940   3.266  10.446 -0.0905 -0.3120 -1.6498
  305MOL0     C41060   5.818   3.263  10.536 -0.2268  0.1978  0.9997
  305MOL0     C41061   5.722   3.380  10.497 -0.3879  0.3551 -0.5864
  305MOL0     C41062   5.631   3.408  10.609  0.9555  0.5288  0.3915
  305MOL0     C41063   5.495   3.446  10.569  0.5911 -0.8185  0.0095
  305MOL0     O41064   5.432   3.339  10.497  0.0811  0.0659  0.3008
  305MOL0     C41065   5.297   3.316  10.508 -0.0325  0.1909  0.4456
  305MOL0     C41066   5.196   3.406  10.546  0.0751 -0.3923  0.2448
  305MOL0     C41067   5.065   3.365  10.562  0.2561  0.0932 -0.1781
  305MOL0     C41068   5.020   3.236  10.522  0.0241  0.0645  0.2815
  305MOL0     C41069   4.885   3.191  10.524  0.6773 -0.0503  0.3253
  305MOL0     O41070   4.862   3.075  10.457  0.6477 -0.8519 -0.1470
  305MOL0     C41071   4.728   3.029  10.447  0.1603  0.3485  0.7120
  305MOL0     C41072   4.703   2.888  10.435  0.4639 -0.5745  0.7944
  305MOL0     C41073   4.578   2.844  10.419  1.0688  0.0929 -0.2374
  305MOL0     C41074   4.460   2.921  10.417 -1.2604  0.2786  0.8885
  305MOL0     O41075   4.332   2.881  10.420  0.6137 -0.8549  1.0764
  305MOL0     C41076   4.293   2.741  10.389 -0.8428 -0.5032 -0.3605
  305MOL0     C41077   4.149   2.736  10.372 -0.3788  0.2317 -0.3756
  305MOL0     C41078   4.080   2.603  10.392 -0.6623  0.4063 -0.4940
  305MOL0     C41079   3.928   2.607  10.396 -0.1183 -0.3011 -0.2249
  305MOL0     C41080   3.871   2.469  10.439  0.2324 -0.4057 -0.2587
  305MOL0     C41081   3.724   2.463  10.400  0.5094 -0.7472 -0.6363
  305MOL0     C41082   3.676   2.323  10.458  0.4270  0.0057 -0.3465
  305MOL0     C41083   3.525   2.292  10.424  0.6391 -0.2733 -0.4291
  305MOL0    Cl41084   3.428   2.437  10.449  0.1819  0.2149 -0.2452
  305MOL0     C41085   4.481   3.059  10.419  0.3791  0.3952 -0.0514
  305MOL0     C41086   4.607   3.108  10.429  1.2818 -0.5864  0.2055
  305MOL0     O41087   4.802   3.261  10.590  0.4056 -0.4350  0.4459
  305MOL0     C41088   5.123   3.151  10.480  0.1658  0.5225 -0.5839
  305MOL0     C41089   5.259   3.182  10.484  0.3948  0.1666  0.9094
  305MOL0     N41090   6.078   3.272  10.478 -0.9784 -0.2701  0.0548
  305MOL0     N41091   6.141   3.270  10.364  0.3491  0.5805 -0.3830
  305MOL0     C41092   5.573   2.844   9.397 -0.4334  0.3830 -0.0873
  305MOL0     C41093   5.459   2.777   9.345  0.5576  0.1475  0.0877
  305MOL0     C41094   5.145   2.429   9.321  0.5294  1.0490 -0.3310
  305MOL0     C41095   5.115   2.487   9.201 -0.2632 -1.0560  0.3750
  305MOL0     C41096   4.998   2.457   9.130  0.7833  0.0800 -0.8178
  305MOL0     C41097   4.919   2.348   9.162 -0.5305 -0.8326  0.4124
  305MOL0     O41098   4.818   2.296   9.081 -0.4101 -0.4649 -0.2884
  305MOL0     C41099   4.791   2.379   8.965 -0.1369 -0.2249 -0.2429
  305MOL0     C41100   4.671   2.333   8.882 -0.9349 -0.3959 -0.0689
  305MOL0     C41101   4.540   2.312   8.962 -0.2295 -0.0549  0.0001
  305MOL0     C41102   4.422   2.310   8.876 -0.5582 -0.0421 -0.1251
  305MOL0     C41103   4.300   2.249   8.935  0.3897 -0.6590  1.2480
  305MOL0     C41104   4.197   2.188   8.943 -0.5542 -0.1189 -0.4984
  305MOL0     C41105   4.949   2.282   9.277 -0.5675 -0.2236 -0.1372
  305MOL0     C41106   5.058   2.320   9.364  0.3022 -0.9349 -0.4950
  305MOL0     C41107   5.068   2.263   9.506 -0.2983  0.0969  0.6153
  305MOL0     H41108   5.521   2.464   9.466 -1.7296  0.7395  1.2930
  305MOL0     H41109   5.719   2.588   9.561 -0.8290 -1.4250  0.5329
  305MOL0     H41110   5.784   2.745   9.723 -1.8170 -0.0486 -1.2086
  305MOL0     H41111   5.905   2.698   9.603  1.3262  1.2676 -0.0165
  305MOL0     H41112   5.895   2.955   9.758  0.1612  0.4896 -0.7711
  305MOL0     H41113   5.970   2.951   9.603  0.5380  0.5919  1.0716
  305MOL0     H41114   6.126   2.766   9.662 -0.6409  0.2837 -1.9857
  305MOL0     H41115   6.040   2.764   9.817  1.0722  0.3174  1.4789
  305MOL0     H41116   6.258   2.894   9.797  0.9653  0.8922 -0.5739
  305MOL0     H41117   6.177   3.021   9.700  3.2800  1.1725  1.4281
  305MOL0     H41118   6.038   3.084   9.888 -2.0970 -1.5310  3.3922
  305MOL0     H41119   6.063   2.936   9.973 -2.1164  1.5818  0.9641
  305MOL0     H41120   6.315   2.995   9.968  1.5409  0.4722 -3.0792
  305MOL0     H41121   6.277   3.158   9.931  1.4875 -2.0259 -0.3421
  305MOL0     H41122   6.288   3.130  10.179  1.2910  0.1219 -1.6731
  305MOL0     H41123   6.160   3.008  10.166 -0.2873 -0.2486 -0.0486
  305MOL0     H41124   6.156   3.315  10.109 -1.4244  0.9797 -0.1647
  305MOL0     H41125   6.024   3.211  10.068 -1.4808 -1.0201  2.0651
  305MOL0     H41126   5.845   3.242  10.252 -0.2043  1.6462 -0.6959
  305MOL0     H41127   5.762   3.170  10.523  0.9264 -0.2507 -1.1703
  305MOL0     H41128   5.859   3.275  10.637 -0.1983  3.7433  0.7169
  305MOL0     H41129   5.777   3.473  10.481  0.2298  0.1141  0.0529
  305MOL0     H41130   5.672   3.352  10.404  0.6379 -2.4154 -0.3896
  305MOL0     H41131   5.674   3.481  10.679  0.1392  2.3114 -0.8982
  305MOL0     H41132   5.616   3.317  10.668 -3.9202  2.4684  2.6635
  305MOL0     H41133   5.492   3.538  10.509  1.5560 -1.1818 -0.6270
  305MOL0     H41134   5.433   3.471  10.655 -0.9747  0.7208 -1.4725
  305MOL0     H41135   5.227   3.504  10.581  2.7065 -0.7052 -0.9693
  305MOL0     H41136   5.002   3.443  10.603  1.9699  1.1691  0.5148
  305MOL0     H41137   4.784   2.815  10.438  0.5896 -0.5840 -1.6301
  305MOL0     H41138   4.577   2.736  10.408  3.1442  0.1130 -0.9945
  305MOL0     H41139   4.356   2.714  10.304 -0.8383  1.1822 -0.9439
  305MOL0     H41140   4.326   2.689  10.480  0.9225 -1.8117 -1.6871
  305MOL0     H41141   4.112   2.804  10.449  1.4487 -0.3230  1.0589
  305MOL0     H41142   4.116   2.771  10.273 -0.9774  0.2622 -0.1696
  305MOL0     H41143   4.111   2.525  10.322  0.0557 -1.1728  1.5075
  305MOL0     H41144   4.106   2.555  10.486 -2.1329 -1.3159 -0.9111
  305MOL0     H41145   3.892   2.631  10.295 -1.7816 -1.1020  0.1401
  305MOL0     H41146   3.895   2.685  10.466  0.0738  0.6171 -1.1245
  305MOL0     H41147   3.890   2.445  10.544 -3.8480 -1.5946  0.4185
  305MOL0     H41148   3.932   2.401  10.379  1.0113 -0.1644  0.2540
  305MOL0     H41149   3.670   2.547  10.444 -0.0362 -1.1969 -0.4238
  305MOL0     H41150   3.720   2.447  10.292  1.8812 -1.7416 -0.5723
  305MOL0     H41151   3.697   2.333  10.565  1.8111  0.5448 -0.6402
  305MOL0     H41152   3.733   2.234  10.430 -0.4395 -1.8979  3.3596
  305MOL0     H41153   3.508   2.261  10.320 -2.5059 -0.5655  0.0810
  305MOL0     H41154   3.484   2.211  10.484  0.8037 -0.8181 -1.0424
  305MOL0     H41155   4.395   3.123  10.403  0.3493  0.6649  1.0743
  305MOL0     H41156   4.612   3.216  10.432 -1.8487 -0.3474  0.5028
  305MOL0     H41157   5.097   3.055  10.438  0.8374  0.4834 -0.9245
  305MOL0     H41158   5.327   3.099  10.471  0.3025 -0.1243  2.1220
  305MOL0     H41159   5.594   2.949   9.383 -0.1007  0.5083  1.2190
  305MOL0     H41160   5.382   2.836   9.297  0.1082 -1.5086 -1.3184
  305MOL0     H41161   5.169   2.575   9.167  1.1667 -2.3948 -0.9701
  305MOL0     H41162   4.974   2.523   9.047 -2.1437 -1.3693 -1.2631
  305MOL0     H41163   4.876   2.401   8.901  0.3836 -0.9000  0.1999
  305MOL0     H41164   4.760   2.480   8.993  0.0382  0.7977 -3.3395
  305MOL0     H41165   4.695   2.242   8.826  1.3169 -0.2853  0.5905
  305MOL0     H41166   4.638   2.415   8.817 -2.2168  0.7983  1.9858
  305MOL0     H41167   4.535   2.393   9.035  2.5049  0.7184 -0.5433
  305MOL0     H41168   4.549   2.212   9.005  0.2980  0.3729  0.9318
  305MOL0     H41169   4.399   2.416   8.860 -1.3007 -0.2558 -0.5078
  305MOL0     H41170   4.445   2.260   8.781 -1.1013  1.5273 -1.1243
  305MOL0     H41171   4.104   2.138   8.961 -1.2367  0.1491 -2.8690
  305MOL0     H41172   4.885   2.197   9.297 -2.3778  1.0546 -0.2575
  305MOL0     H41173   5.140   2.181   9.502 -0.5366 -0.0790 -1.0985
  305MOL0     H41174   5.094   2.343   9.576 -1.0756  1.8259 -0.9758
  305MOL0     H41175   4.973   2.234   9.553  0.6672 -0.6212  2.2170
  306MOL0     O41176  10.117   6.069   3.305 -0.1987  0.2642  0.3280
  306MOL0     C41177  10.064   6.160   3.239 -0.2396  0.5395  0.6418
  306MOL0     O41178  10.124   6.233   3.140  0.1659 -0.0230  0.4561
  306MOL0     C41179  10.259   6.231   3.114 -0.6342  0.5735 -0.4416
  306MOL0     C41180  10.297   6.276   2.991  0.0923  0.0475 -0.5084
  306MOL0     C41181  10.423   6.287   2.953 -0.0047 -0.4391 -0.2260
  306MOL0     C41182  10.530   6.242   3.037 -0.1021 -1.1823 -0.7384
  306MOL0     O41183  10.662   6.242   3.004  0.1379 -0.1293 -0.3640
  306MOL0     C41184  10.694   6.164   2.895  1.4699 -0.2031 -0.1460
  306MOL0     C41185  10.838   6.156   2.852  0.0612  0.4601  0.3991
  306MOL0     C41186  10.937   6.111   2.958 -0.5749 -0.9470  0.3077
  306MOL0     C41187  11.070   6.087   2.894 -0.3772 -0.6598 -0.3337
  306MOL0     C41188  11.170   6.046   3.007 -0.1801 -0.2726  0.3893
  306MOL0     C41189  11.304   5.997   2.957  0.2755 -0.3354 -0.0006
  306MOL0     C41190  11.392   5.969   3.077 -0.8343 -0.0387  0.3619
  306MOL0     C41191  11.517   5.892   3.041  0.3190 -1.1515 -0.5514
  306MOL0     N41192  11.483   5.757   2.995 -0.1611  0.6225 -0.2107
  306MOL0     C41193  11.530   5.705   2.877 -0.4516  0.1546 -0.5120
  306MOL0     C41194  11.477   5.582   2.863  0.1083 -0.3390  0.0952
  306MOL0     C41195  11.467   5.476   2.763 -0.3563 -0.2426  0.1930
  306MOL0     C41196  11.600   5.455   2.683 -0.2444  0.8237  1.0177
  306MOL0     C41197  11.588   5.332   2.593  0.1638 -0.3930 -0.5944
  306MOL0     C41198  11.708   5.325   2.508  0.6345  0.2948 -0.6430
  306MOL0     O41199  11.715   5.424   2.409 -0.5530 -0.1956 -0.4911
  306MOL0     C41200  11.813   5.401   2.303 -0.2519 -0.6908 -0.3786
  306MOL0     C41201  11.818   5.503   2.212 -0.3041  0.0161  0.8307
  306MOL0     C41202  11.923   5.511   2.118  1.1253 -0.0369 -0.8780
  306MOL0     C41203  12.017   5.404   2.108  0.2240 -0.5419  0.1317
  306MOL0     C41204  12.122   5.411   2.003 -0.9749  0.7717 -0.3304
  306MOL0     O41205  12.080   5.418   1.871  0.0973 -0.2411 -0.5357
  306MOL0     C41206  12.177   5.444   1.783 -0.2916  0.7618  0.8065
  306MOL0     C41207  12.273   5.553   1.802  0.6658  0.1062 -1.0376
  306MOL0     C41208  12.356   5.581   1.701 -0.2634 -0.1052  0.6571
  306MOL0     C41209  12.347   5.509   1.580 -0.2927 -0.4222 -0.1193
  306MOL0     O41210  12.422   5.543   1.462 -0.5960 -0.5544 -0.6298
  306MOL0     C41211  12.473   5.677   1.462 -0.6905  0.8432 -0.5136
  306MOL0     C41212  12.555   5.710   1.336 -0.0276 -0.5147  0.4308
  306MOL0     C41213  12.474   5.687   1.209  0.5853  0.5645 -0.1948
  306MOL0     C41214  12.547   5.732   1.094 -0.3859  0.0075 -0.4745
  306MOL0     C41215  12.487   5.675   0.972  0.2517  0.4635  0.3256
  306MOL0     C41216  12.548   5.733   0.846  0.0949  0.5753 -0.2182
  306MOL0     C41217  12.586   5.615   0.754  0.4525 -0.2607  1.0362
  306MOL0     C41218  12.692   5.657   0.658  1.0688  0.7058 -0.3683
  306MOL0    Cl41219  12.712   5.551   0.505  0.1940 -0.0165 -0.3266
  306MOL0     C41220  12.279   5.388   1.576 -0.8353 -0.1346  0.1268
  306MOL0     C41221  12.185   5.365   1.676 -0.3905  0.5524  0.2476
  306MOL0     O41222  12.241   5.411   2.038 -0.9985  0.2201 -0.4236
  306MOL0     C41223  12.006   5.298   2.203  0.0206 -0.2456  0.0534
  306MOL0     C41224  11.911   5.302   2.304  0.5858  0.8531 -0.2980
  306MOL0     N41225  11.396   5.562   2.976  0.3288  0.9822 -0.3739
  306MOL0     N41226  11.397   5.667   3.050  0.4856 -0.5317 -0.0370
  306MOL0     C41227  10.494   6.200   3.173 -0.1425 -0.7281  0.0046
  306MOL0     C41228  10.360   6.197   3.206 -0.2174 -0.4102  0.1694
  306MOL0     C41229   9.922   6.174   3.273  0.7425  0.5033  1.3835
  306MOL0     C41230   9.853   6.254   3.181  0.1601 -0.2276  0.6854
  306MOL0     C41231   9.721   6.291   3.201 -0.1122  0.0794 -0.2331
  306MOL0     C41232   9.649   6.241   3.313 -0.5293  0.2507  0.4139
  306MOL0     O41233   9.526   6.269   3.351  0.0626  0.5355 -1.0543
  306MOL0     C41234   9.446   6.343   3.258 -0.2057 -0.4310  0.3904
  306MOL0     C41235   9.307   6.367   3.321 -0.2389 -1.0280  0.3182
  306MOL0     C41236   9.225   6.241   3.352 -0.9817 -0.2751 -0.1981
  306MOL0     C41237   9.175   6.164   3.227  0.3444  0.1624 -0.1601
  306MOL0     C41238   9.076   6.232   3.141 -0.2209  0.1278 -0.0329
  306MOL0     C41239   8.991   6.293   3.076 -0.3221  0.3618 -0.2425
  306MOL0     C41240   9.709   6.149   3.397  0.0208 -0.5060 -0.0028
  306MOL0     C41241   9.846   6.116   3.380 -0.3429  0.0097 -0.2905
  306MOL0     C41242   9.910   6.030   3.497 -0.1440 -0.2735  0.1954
  306MOL0     H41243  10.221   6.306   2.920  1.7737  1.0722 -1.9285
  306MOL0     H41244  10.437   6.336   2.857  0.9035 -2.8735 -1.4296
  306MOL0     H41245  10.656   6.062   2.905 -0.3925 -0.1188 -4.3371
  306MOL0     H41246  10.631   6.196   2.811 -0.0379 -1.0731  0.6053
  306MOL0     H41247  10.868   6.253   2.810  0.4219 -0.9833 -3.0403
  306MOL0     H41248  10.849   6.089   2.766 -0.3720  0.6464  0.1921
  306MOL0     H41249  10.901   6.020   3.006 -1.8114 -1.0031 -0.6860
  306MOL0     H41250  10.939   6.188   3.036  0.4642 -1.4170  0.7564
  306MOL0     H41251  11.064   6.013   2.813 -2.3415 -1.8834  0.8494
  306MOL0     H41252  11.106   6.179   2.847  0.8564 -0.4942  0.8810
  306MOL0     H41253  11.192   6.135   3.067 -0.8988 -1.4294  2.4522
  306MOL0     H41254  11.115   5.976   3.070  0.3919 -0.6225  0.4999
  306MOL0     H41255  11.297   5.906   2.897 -1.5544  0.1408 -0.5795
  306MOL0     H41256  11.354   6.068   2.890 -1.4403 -1.7778 -3.0648
  306MOL0     H41257  11.337   5.904   3.146 -0.9988 -1.1525 -0.7682
  306MOL0     H41258  11.418   6.064   3.123  1.4462 -0.0789 -0.6859
  306MOL0     H41259  11.551   5.940   2.949  1.9724 -0.2039  0.5105
  306MOL0     H41260  11.589   5.882   3.122 -0.9144 -2.0275  0.4831
  306MOL0     H41261  11.579   5.758   2.795  0.7285  1.3111  0.8809
  306MOL0     H41262  11.453   5.382   2.816  2.0500 -2.5106 -2.8265
  306MOL0     H41263  11.384   5.492   2.693 -0.8271  0.1188  0.8266
  306MOL0     H41264  11.631   5.549   2.637  2.5214  0.3373  1.7268
  306MOL0     H41265  11.677   5.438   2.759  0.0383 -0.5452  0.4628
  306MOL0     H41266  11.498   5.344   2.533  0.4363 -0.6296 -1.0531
  306MOL0     H41267  11.571   5.251   2.665 -1.4104 -0.7387 -1.3089
  306MOL0     H41268  11.705   5.224   2.465 -0.7015  0.6314 -1.4111
  306MOL0     H41269  11.808   5.337   2.549  0.2889 -2.8995  1.4633
  306MOL0     H41270  11.744   5.583   2.206 -1.4719 -1.0223  0.9618
  306MOL0     H41271  11.951   5.591   2.051  0.6899 -1.7881 -3.3120
  306MOL0     H41272  12.278   5.602   1.899 -0.7067 -0.8310 -0.4595
  306MOL0     H41273  12.422   5.665   1.719 -0.8120  0.2571  1.0218
  306MOL0     H41274  12.395   5.753   1.474 -1.1173  0.9991 -3.5401
  306MOL0     H41275  12.542   5.684   1.546 -2.6227 -1.3359  1.4288
  306MOL0     H41276  12.567   5.819   1.340  0.7057 -0.6173  2.5031
  306MOL0     H41277  12.649   5.656   1.330 -0.1307 -0.6763  0.2713
  306MOL0     H41278  12.448   5.581   1.204 -3.7959  1.5037 -1.4722
  306MOL0     H41279  12.384   5.746   1.230 -1.0779 -1.3490 -1.6058
  306MOL0     H41280  12.648   5.690   1.103  0.1322  1.2868 -0.0476
  306MOL0     H41281  12.554   5.841   1.095 -2.0944  0.1382  0.0245
  306MOL0     H41282  12.380   5.694   0.962  0.6870  1.8073 -3.7234
  306MOL0     H41283  12.501   5.567   0.982  0.8514  0.2313 -2.2104
  306MOL0     H41284  12.480   5.805   0.801 -0.6200  0.5245  0.7481
  306MOL0     H41285  12.642   5.785   0.868  1.0220 -1.3879  0.6985
  306MOL0     H41286  12.493   5.600   0.698  0.4512  1.0676  0.6336
  306MOL0     H41287  12.607   5.520   0.803  1.2284  0.3285  1.8679
  306MOL0     H41288  12.681   5.764   0.640 -1.2659  0.5120 -0.3876
  306MOL0     H41289  12.783   5.646   0.716  1.6599  0.1237 -1.3726
  306MOL0     H41290  12.273   5.315   1.495  3.1747 -0.8421  0.2948
  306MOL0     H41291  12.111   5.286   1.668 -0.8223  1.1347 -2.1020
  306MOL0     H41292  12.072   5.216   2.178 -0.1997 -0.0818 -1.1356
  306MOL0     H41293  11.898   5.233   2.387 -2.4905  4.1457  2.3171
  306MOL0     H41294  10.574   6.183   3.246 -2.6390 -0.7875  2.9368
  306MOL0     H41295  10.345   6.164   3.309  0.7698  0.6645  0.6752
  306MOL0     H41296   9.907   6.308   3.104  2.1362  0.0996  2.2029
  306MOL0     H41297   9.688   6.354   3.119  0.9279  0.0577 -0.6843
  306MOL0     H41298   9.432   6.290   3.163  0.1719  0.8635 -0.4031
  306MOL0     H41299   9.491   6.441   3.242 -0.2707 -0.2999  0.9906
  306MOL0     H41300   9.245   6.434   3.261 -0.0930  1.0708  2.3606
  306MOL0     H41301   9.335   6.417   3.414  0.2160 -0.4845 -0.1045
  306MOL0     H41302   9.154   6.259   3.433 -0.2597 -0.2889  0.4548
  306MOL0     H41303   9.295   6.168   3.394  1.3415  1.0201 -1.5590
  306MOL0     H41304   9.259   6.155   3.157 -0.6817 -1.9985 -1.2329
  306MOL0     H41305   9.144   6.060   3.246 -0.9226  0.4256 -0.7025
  306MOL0     H41306   8.931   6.356   3.012 -1.0101  0.2887  0.3178
  306MOL0     H41307   9.650   6.102   3.475 -0.9037 -1.1406 -1.0674
  306MOL0     H41308  10.000   6.074   3.542 -0.9089 -0.5910  2.1674
  306MOL0     H41309   9.846   6.002   3.582  0.3934 -0.6503  0.4840
  306MOL0     H41310   9.946   5.938   3.451 -0.3912 -0.1781 -0.1895
  307MOL0     O41311   5.958   4.336   0.061  0.0590 -0.3526  0.4978
  307MOL0     C41312   5.995   4.446   0.012  0.5386  0.7115 -0.6785
  307MOL0     O41313   5.931   4.510  -0.087 -0.2645  0.2916  0.2977
  307MOL0     C41314   5.827   4.446  -0.144 -0.0313  0.3697 -0.0788
  307MOL0     C41315   5.835   4.337  -0.236  0.1386 -0.3193 -0.4315
  307MOL0     C41316   5.715   4.291  -0.296 -0.7010  0.1524 -1.0088
  307MOL0     C41317   5.591   4.333  -0.256  0.4134 -0.5532 -0.3091
  307MOL0     O41318   5.481   4.292  -0.323 -0.4485  0.2054 -0.2347
  307MOL0     C41319   5.480   4.321  -0.466  0.5347  0.3744 -0.0779
  307MOL0     C41320   5.357   4.391  -0.501  0.7858  0.9905  0.1321
  307MOL0     C41321   5.228   4.309  -0.456 -1.4525 -0.0864 -0.7708
  307MOL0     C41322   5.122   4.409  -0.423  1.0175 -0.3109 -0.5262
  307MOL0     C41323   4.982   4.339  -0.412 -0.5693 -0.3215 -0.0626
  307MOL0     C41324   4.899   4.331  -0.542 -0.9175 -0.0102  1.0437
  307MOL0     C41325   4.913   4.204  -0.618 -0.0468  0.0433 -0.7633
  307MOL0     C41326   4.881   4.215  -0.768 -0.6401 -0.1183  0.0386
  307MOL0     N41327   4.996   4.256  -0.855  0.0911 -0.2397 -0.1326
  307MOL0     C41328   5.088   4.360  -0.831 -1.0034  1.0611  0.0967
  307MOL0     C41329   5.184   4.340  -0.923 -0.4548  0.7946 -0.8242
  307MOL0     C41330   5.303   4.422  -0.939  0.4146  1.1449 -0.8404
  307MOL0     C41331   5.429   4.339  -0.900  0.0660 -0.4143  1.1054
  307MOL0     C41332   5.559   4.419  -0.925 -0.8872 -0.7223 -0.4779
  307MOL0     C41333   5.675   4.414  -0.818 -0.1211 -0.1356 -0.0002
  307MOL0     O41334   5.786   4.487  -0.859 -1.1489  0.5215  0.6967
  307MOL0     C41335   5.895   4.517  -0.775 -0.4192  0.5397  0.3126
  307MOL0     C41336   6.007   4.581  -0.828  0.2164  0.6761 -0.4835
  307MOL0     C41337   6.108   4.620  -0.744  0.3517 -0.4219 -0.5528
  307MOL0     C41338   6.108   4.584  -0.599  1.1181  0.7496  0.4516
  307MOL0     C41339   6.220   4.625  -0.511 -0.0267  0.2491 -1.1115
  307MOL0     O41340   6.320   4.694  -0.561  0.4706 -0.6841 -0.6064
  307MOL0     C41341   6.433   4.723  -0.481  0.5117 -0.8530 -1.1308
  307MOL0     C41342   6.515   4.829  -0.527 -0.7898 -0.8334  0.1162
  307MOL0     C41343   6.636   4.852  -0.458  0.5949  0.0063 -0.1239
  307MOL0     C41344   6.679   4.791  -0.346 -0.4089 -0.2128 -0.5185
  307MOL0     O41345   6.789   4.817  -0.269  0.1053 -0.1059  0.1083
  307MOL0     C41346   6.809   4.953  -0.247  0.4035 -0.3073 -0.2419
  307MOL0     C41347   6.941   4.967  -0.171 -0.1711  0.0449  0.3858
  307MOL0     C41348   7.065   4.944  -0.263 -0.0864 -0.0795 -0.6062
  307MOL0     C41349   7.189   4.988  -0.189 -0.0341  0.4786  0.1426
  307MOL0     C41350   7.305   4.905  -0.247  0.9887 -0.5986  0.1680
  307MOL0     C41351   7.351   4.789  -0.153 -0.5127  0.1436  0.2800
  307MOL0     C41352   7.457   4.699  -0.209  0.1249  0.1272 -0.4739
  307MOL0     C41353   7.399   4.625  -0.326  0.0975 -0.3851 -0.3077
  307MOL0    Cl41354   7.533   4.563  -0.435  0.2774 -0.4855 -0.9708
  307MOL0     C41355   6.600   4.684  -0.303  0.1578  0.0045 -0.4691
  307MOL0     C41356   6.475   4.652  -0.365  0.3626  0.6259  0.6714
  307MOL0     O41357   6.204   4.591  -0.391 -0.9828 -0.5737  0.0226
  307MOL0     C41358   5.997   4.510  -0.544  0.9103  0.1014  0.8781
  307MOL0     C41359   5.892   4.478  -0.635 -0.6501 -0.4160 -0.5868
  307MOL0     N41360   5.148   4.234  -1.004 -0.1436 -0.1744 -0.2344
  307MOL0     N41361   5.032   4.184  -0.965  0.1603 -0.0555 -0.0860
  307MOL0     C41362   5.580   4.442  -0.162 -0.3549 -0.5013 -0.0541
  307MOL0     C41363   5.697   4.491  -0.107  0.1670 -0.6935  0.2518
  307MOL0     C41364   6.116   4.512   0.055 -1.0632 -0.0601 -0.5436
  307MOL0     C41365   6.163   4.628  -0.021  1.6958  0.1353 -0.1406
  307MOL0     C41366   6.280   4.705   0.004  0.1870  0.5254  0.4540
  307MOL0     C41367   6.358   4.658   0.114 -0.0345  0.2516 -0.4366
  307MOL0     O41368   6.480   4.710   0.153 -0.6387  0.7823 -0.3157
  307MOL0     C41369   6.527   4.831   0.100 -0.0622  0.9394 -0.2092
  307MOL0     C41370   6.670   4.853   0.132 -0.2843 -0.9044  0.0433
  307MOL0     C41371   6.699   4.883   0.285 -0.3786  0.5179 -0.0463
  307MOL0     C41372   6.842   4.880   0.332 -0.3198 -0.3477 -0.6296
  307MOL0     C41373   6.927   4.977   0.255 -0.2836  0.1407  0.0907
  307MOL0     C41374   6.998   5.053   0.187 -0.2127  0.4125  0.5816
  307MOL0     C41375   6.310   4.553   0.192 -0.2859 -0.0620 -0.2966
  307MOL0     C41376   6.195   4.477   0.165 -0.0549 -0.4299 -0.1496
  307MOL0     C41377   6.155   4.372   0.266  0.0522 -0.4605  0.1628
  307MOL0     H41378   5.931   4.302  -0.275 -0.3878 -1.0157 -1.1546
  307MOL0     H41379   5.714   4.208  -0.365 -1.3111  0.2600 -1.1346
  307MOL0     H41380   5.569   4.380  -0.491 -0.5423  1.5011 -1.4543
  307MOL0     H41381   5.483   4.233  -0.531 -2.5495  1.9027 -2.5870
  307MOL0     H41382   5.361   4.407  -0.609  4.7089 -1.8754 -0.3704
  307MOL0     H41383   5.366   4.489  -0.454  2.3510  0.8542  0.1968
  307MOL0     H41384   5.251   4.245  -0.371  0.9287 -0.2106 -1.4366
  307MOL0     H41385   5.196   4.240  -0.535  1.3534  0.2681 -2.3594
  307MOL0     H41386   5.151   4.466  -0.334  0.9756  0.7509 -1.1780
  307MOL0     H41387   5.109   4.491  -0.493  3.0554  1.1103  0.6497
  307MOL0     H41388   5.001   4.244  -0.362  1.7043  0.4963  0.7704
  307MOL0     H41389   4.923   4.411  -0.354 -3.9214 -1.8112 -1.3905
  307MOL0     H41390   4.795   4.343  -0.509 -1.1202  0.2468  0.3398
  307MOL0     H41391   4.918   4.422  -0.599  1.1921  0.2976  2.1368
  307MOL0     H41392   4.829   4.142  -0.588 -0.4355 -1.3885 -4.3521
  307MOL0     H41393   5.005   4.146  -0.607 -0.2170 -1.0704 -3.9754
  307MOL0     H41394   4.849   4.117  -0.804  1.1211 -0.2868 -1.2266
  307MOL0     H41395   4.790   4.276  -0.774 -0.8418 -0.2517  1.4124
  307MOL0     H41396   5.080   4.427  -0.746  2.0222  1.5518  0.1022
  307MOL0     H41397   5.309   4.441  -1.046  3.5373 -1.8376 -1.3538
  307MOL0     H41398   5.307   4.511  -0.874  0.7132 -0.3919  1.3757
  307MOL0     H41399   5.433   4.318  -0.793  0.9967  0.3648  1.2413
  307MOL0     H41400   5.440   4.245  -0.954 -0.9771  0.5478 -0.8854
  307MOL0     H41401   5.528   4.523  -0.933 -0.5511 -0.6036 -0.2584
  307MOL0     H41402   5.618   4.400  -1.016  0.3692  1.1826 -0.1102
  307MOL0     H41403   5.704   4.310  -0.799 -0.8120 -0.4040 -0.3788
  307MOL0     H41404   5.638   4.447  -0.720  2.3422  0.4792  0.7864
  307MOL0     H41405   6.009   4.606  -0.934  1.3498 -0.9151 -0.8775
  307MOL0     H41406   6.185   4.684  -0.786  0.1776 -0.0659 -0.3367
  307MOL0     H41407   6.482   4.885  -0.614  0.9534 -0.0123 -0.0563
  307MOL0     H41408   6.711   4.920  -0.500  1.7132  0.0396  1.7940
  307MOL0     H41409   6.817   5.008  -0.341  1.2929  0.8728  0.4920
  307MOL0     H41410   6.725   4.992  -0.189  0.5167 -0.7046  0.1985
  307MOL0     H41411   6.943   5.067  -0.128  1.2400  0.1756  0.0768
  307MOL0     H41412   6.933   4.887  -0.097 -0.0200 -1.3069 -1.0138
  307MOL0     H41413   7.056   4.841  -0.299  1.9379  0.0308 -1.5313
  307MOL0     H41414   7.055   5.005  -0.354 -0.1929 -3.4861 -3.0710
  307MOL0     H41415   7.175   4.957  -0.085 -0.3473 -1.2569 -0.3805
  307MOL0     H41416   7.204   5.096  -0.191 -3.0311  0.9947 -1.9830
  307MOL0     H41417   7.378   4.985  -0.260 -1.2812  2.0745  2.5926
  307MOL0     H41418   7.276   4.860  -0.343 -0.7149 -0.4661  0.6005
  307MOL0     H41419   7.388   4.827  -0.058  0.0395  0.5251 -0.0843
  307MOL0     H41420   7.265   4.725  -0.130  0.4486 -1.2055  0.2479
  307MOL0     H41421   7.498   4.624  -0.141  1.3196  0.1157 -1.1785
  307MOL0     H41422   7.541   4.763  -0.239  0.7097  0.5458  1.8935
  307MOL0     H41423   7.343   4.545  -0.278  1.2605 -0.4290  1.0277
  307MOL0     H41424   7.332   4.678  -0.395  1.5380 -1.1862 -2.4238
  307MOL0     H41425   6.640   4.621  -0.225  1.5872 -0.0749 -1.2356
  307MOL0     H41426   6.428   4.561  -0.328 -1.5756 -0.0277 -2.8889
  307MOL0     H41427   5.992   4.498  -0.436 -2.2218  1.4439  0.9750
  307MOL0     H41428   5.811   4.417  -0.596 -0.3376  0.4523  1.5037
  307MOL0     H41429   5.486   4.494  -0.141  1.2323  2.8635 -0.5006
  307MOL0     H41430   5.690   4.569  -0.032  2.2178 -0.0242 -0.1699
  307MOL0     H41431   6.124   4.673  -0.112  2.6022  4.9262  1.5553
  307MOL0     H41432   6.304   4.789  -0.060  1.2385  0.9383  1.3639
  307MOL0     H41433   6.468   4.916   0.136  0.8839  1.5057  0.0577
  307MOL0     H41434   6.504   4.829  -0.007 -2.4650  2.1947  0.2223
  307MOL0     H41435   6.719   4.924   0.064  3.8136 -2.8039  0.7034
  307MOL0     H41436   6.726   4.761   0.114  1.6223  0.2133 -0.0524
  307MOL0     H41437   6.648   4.804   0.341  0.3636 -0.2096 -0.3793
  307MOL0     H41438   6.659   4.978   0.323 -3.3368 -0.7952  0.4206
  307MOL0     H41439   6.840   4.915   0.436 -1.8691  0.6825 -0.9749
  307MOL0     H41440   6.873   4.776   0.316  1.9115  0.3186 -1.0506
  307MOL0     H41441   7.051   5.124   0.127  1.2345 -1.9576 -1.1482
  307MOL0     H41442   6.369   4.531   0.280  0.9870  2.4454 -0.4683
  307MOL0     H41443   6.141   4.277   0.216 -4.2442  0.9152 -1.6726
  307MOL0     H41444   6.237   4.379   0.338  0.8676  1.0173 -0.8363
  307MOL0     H41445   6.065   4.400   0.322  1.5737 -1.4246  3.3528
  308MOL0     O41446   5.360   6.966   7.340 -0.3105  0.8677 -0.0248
  308MOL0     C41447   5.392   6.981   7.222  0.3222 -0.0101 -0.9860
  308MOL0     O41448   5.521   7.020   7.182 -0.0747 -0.9223 -0.4710
  308MOL0     C41449   5.638   7.014   7.258  0.2443  0.5547  0.0348
  308MOL0     C41450   5.757   7.062   7.191  0.3829 -1.1312 -0.3894
  308MOL0     C41451   5.881   7.060   7.255 -0.1459 -0.2598 -0.7421
  308MOL0     C41452   5.894   7.024   7.388 -0.5475  0.5742 -0.0340
  308MOL0     O41453   6.015   7.019   7.449  0.1274 -0.7611 -0.0098
  308MOL0     C41454   6.027   7.019   7.600 -0.2615 -0.4934 -0.2153
  308MOL0     C41455   6.178   7.036   7.630  0.3240 -0.4457  0.0824
  308MOL0     C41456   6.264   6.931   7.558  0.1356  0.0002  0.7607
  308MOL0     C41457   6.406   6.948   7.623  0.6996 -0.2016 -0.2342
  308MOL0     C41458   6.502   6.860   7.554 -0.3885 -0.7547  0.1244
  308MOL0     C41459   6.519   6.883   7.403 -0.7552  0.0769 -0.3006
  308MOL0     C41460   6.640   6.797   7.355 -0.1691  0.4752 -0.7808
  308MOL0     C41461   6.678   6.819   7.205 -0.4446  0.3256 -0.1110
  308MOL0     N41462   6.807   6.762   7.173 -0.4834  0.2456  0.6042
  308MOL0     C41463   6.914   6.835   7.146 -0.7051  0.7934 -0.8001
  308MOL0     C41464   7.017   6.746   7.136  0.3771  0.2020  0.1547
  308MOL0     C41465   7.162   6.784   7.116  0.1095 -0.2421 -0.4441
  308MOL0     C41466   7.261   6.748   7.234 -0.5167 -0.7668  0.0657
  308MOL0     C41467   7.396   6.825   7.224 -0.1603  0.5140 -0.2520
  308MOL0     C41468   7.509   6.778   7.323  0.3741  0.5004  0.2922
  308MOL0     O41469   7.564   6.658   7.268  0.5536  0.2802  0.8982
  308MOL0     C41470   7.696   6.637   7.292 -0.9213  0.8149 -0.1510
  308MOL0     C41471   7.765   6.691   7.403  0.3104  0.0196  0.2012
  308MOL0     C41472   7.897   6.663   7.422 -0.0828 -0.2669  0.1807
  308MOL0     C41473   7.978   6.601   7.324  0.5249  0.3216  0.0325
  308MOL0     C41474   8.122   6.569   7.346  0.4978  0.3234 -0.0662
  308MOL0     O41475   8.183   6.602   7.458  0.0181  0.1288  0.1281
  308MOL0     C41476   8.290   6.527   7.503  1.0483 -0.3226  0.9213
  308MOL0     C41477   8.384   6.585   7.584  0.7219 -0.5926 -0.0990
  308MOL0     C41478   8.483   6.513   7.645  0.3615 -0.4863 -0.6459
  308MOL0     C41479   8.498   6.380   7.620 -0.4253  0.1145 -0.5045
  308MOL0     O41480   8.606   6.299   7.667 -0.4248 -0.5102  0.0997
  308MOL0     C41481   8.736   6.355   7.627  0.4821 -0.4080  0.5485
  308MOL0     C41482   8.842   6.244   7.629  0.5069  1.5810 -0.3850
  308MOL0     C41483   8.863   6.160   7.502 -0.1553  0.7393  0.4561
  308MOL0     C41484   8.733   6.088   7.459 -0.5719  0.9068  0.4172
  308MOL0     C41485   8.756   6.000   7.331 -0.0611 -0.7328  0.2818
  308MOL0     C41486   8.877   5.918   7.323  0.4017 -1.0358  0.0688
  308MOL0     C41487   8.897   5.814   7.431  0.2140 -0.3560  0.0012
  308MOL0     C41488   8.971   5.689   7.377  0.5982 -0.3254  0.3688
  308MOL0    Cl41489   9.126   5.718   7.291 -0.1713  0.1353 -0.0401
  308MOL0     C41490   8.389   6.312   7.557  0.6621  0.2910 -0.1794
  308MOL0     C41491   8.284   6.386   7.504 -0.2353  0.0588  0.0837
  308MOL0     O41492   8.171   6.507   7.252 -0.2136 -0.2600 -0.6541
  308MOL0     C41493   7.909   6.561   7.207  0.0627  0.1406  0.7656
  308MOL0     C41494   7.768   6.564   7.199  0.4296 -0.1907 -0.3619
  308MOL0     N41495   6.961   6.623   7.157  0.5872  0.4264  0.9407
  308MOL0     N41496   6.837   6.630   7.183  0.3177 -0.2688  0.0567
  308MOL0     C41497   5.781   6.971   7.456 -1.2408 -0.2377  0.4889
  308MOL0     C41498   5.661   6.962   7.391 -0.2365  0.6613  0.3819
  308MOL0     C41499   5.281   6.986   7.124 -0.5491 -0.7573  0.4669
  308MOL0     C41500   5.163   6.910   7.161 -0.4358 -0.3744  0.2480
  308MOL0     C41501   5.053   6.910   7.077  0.2062 -0.4830  0.0219
  308MOL0     C41502   5.050   6.981   6.956  0.4155  0.9508  0.1080
  308MOL0     O41503   4.945   6.983   6.869  0.0689  0.2891 -0.7422
  308MOL0     C41504   4.814   7.007   6.934  0.1845  0.7000 -0.2341
  308MOL0     C41505   4.704   7.066   6.848 -1.0418  0.0128  0.3378
  308MOL0     C41506   4.735   7.208   6.808 -0.9268 -1.3225  0.2778
  308MOL0     C41507   4.643   7.271   6.698 -0.2487 -0.0292  0.5538
  308MOL0     C41508   4.499   7.274   6.742 -0.2146  0.0908 -0.5555
  308MOL0     C41509   4.378   7.268   6.747 -0.0579 -0.2577  0.1471
  308MOL0     C41510   5.163   7.057   6.921 -0.1380 -0.0379  0.7972
  308MOL0     C41511   5.278   7.066   7.005  1.2753 -0.5241  0.7669
  308MOL0     C41512   5.390   7.158   6.962  0.0922 -0.8763 -0.0553
  308MOL0     H41513   5.732   7.111   7.097  0.2154  0.5594  0.5066
  308MOL0     H41514   5.969   7.102   7.206  0.9538 -3.0603 -1.3482
  308MOL0     H41515   5.966   7.092   7.655 -2.5775 -1.8327 -0.8963
  308MOL0     H41516   5.997   6.922   7.639 -0.0833 -0.3781  0.2059
  308MOL0     H41517   6.187   7.026   7.738  2.1214  1.0085  0.1124
  308MOL0     H41518   6.205   7.138   7.602  0.1187 -0.4582 -0.1715
  308MOL0     H41519   6.275   6.938   7.450  1.1318 -2.0806  0.6822
  308MOL0     H41520   6.226   6.830   7.571  1.5470 -0.5987  0.3932
  308MOL0     H41521   6.432   7.054   7.620  0.8245 -0.2023 -4.1817
  308MOL0     H41522   6.403   6.919   7.728  0.2221 -0.8730 -0.4227
  308MOL0     H41523   6.599   6.871   7.602 -0.7522  0.6006  0.5768
  308MOL0     H41524   6.471   6.757   7.573  3.5807 -2.1911 -0.1802
  308MOL0     H41525   6.427   6.848   7.355 -1.3078 -1.3374  1.6435
  308MOL0     H41526   6.544   6.989   7.387 -0.2056  0.4952  2.6909
  308MOL0     H41527   6.603   6.694   7.365 -1.5642  1.1406  1.4299
  308MOL0     H41528   6.728   6.809   7.418  0.5181 -2.8058 -0.9432
  308MOL0     H41529   6.600   6.782   7.138 -2.6196 -1.1966  2.9899
  308MOL0     H41530   6.675   6.925   7.177 -1.0079  0.8733  1.8564
  308MOL0     H41531   6.911   6.943   7.140 -0.3604  0.9268  0.7744
  308MOL0     H41532   7.188   6.710   7.040 -1.2737  0.0978 -1.2808
  308MOL0     H41533   7.159   6.890   7.087  1.8636 -0.1494 -0.3779
  308MOL0     H41534   7.217   6.799   7.320  2.6539  0.1446  1.3233
  308MOL0     H41535   7.273   6.640   7.249  3.8094 -0.2409  2.0031
  308MOL0     H41536   7.373   6.931   7.218 -0.3815  0.3963 -4.0308
  308MOL0     H41537   7.435   6.819   7.122 -2.3533  0.2103 -1.1251
  308MOL0     H41538   7.478   6.759   7.427  0.5463  0.6594  0.3727
  308MOL0     H41539   7.577   6.863   7.336 -1.5535  2.2414 -0.4403
  308MOL0     H41540   7.717   6.743   7.486 -1.9594 -3.4613  1.3057
  308MOL0     H41541   7.939   6.690   7.518  2.6781 -1.7193 -0.5251
  308MOL0     H41542   8.371   6.692   7.602 -1.0721 -1.0357  1.6641
  308MOL0     H41543   8.551   6.567   7.710  0.1505  1.0109 -1.6260
  308MOL0     H41544   8.745   6.401   7.528  2.0349  0.9451  1.2618
  308MOL0     H41545   8.767   6.430   7.700 -0.0685 -0.1659  0.5380
  308MOL0     H41546   8.941   6.279   7.659  2.0091 -3.5717  1.6661
  308MOL0     H41547   8.812   6.177   7.710  0.5929  1.2581 -0.6200
  308MOL0     H41548   8.887   6.235   7.427  3.4074  1.6007  2.2491
  308MOL0     H41549   8.944   6.090   7.524 -0.2705 -0.6485 -2.8971
  308MOL0     H41550   8.661   6.167   7.436 -0.4519  0.1881 -2.8639
  308MOL0     H41551   8.691   6.029   7.542 -0.3727  0.5315  0.2522
  308MOL0     H41552   8.766   6.067   7.246  0.1357  0.1704  0.9957
  308MOL0     H41553   8.673   5.929   7.325 -0.7868  0.0215  1.1369
  308MOL0     H41554   8.882   5.855   7.234 -0.8865 -3.2845  1.5091
  308MOL0     H41555   8.961   5.988   7.328 -1.0550  0.7240  1.0487
  308MOL0     H41556   8.801   5.776   7.467  1.6693 -2.4606  1.9741
  308MOL0     H41557   8.954   5.844   7.520  1.7311 -0.6106 -0.8532
  308MOL0     H41558   8.990   5.623   7.462 -2.6723  0.5089  1.9357
  308MOL0     H41559   8.905   5.629   7.314 -0.7267 -0.2520  1.6307
  308MOL0     H41560   8.395   6.205   7.541 -3.9763 -0.6615  2.6588
  308MOL0     H41561   8.212   6.325   7.449  1.6331 -1.0378 -1.2751
  308MOL0     H41562   7.964   6.513   7.127 -2.8279 -1.3762 -0.4901
  308MOL0     H41563   7.717   6.519   7.114  4.3464 -1.4087 -2.2984
  308MOL0     H41564   5.783   6.932   7.557 -3.3671 -0.4601  0.4702
  308MOL0     H41565   5.577   6.912   7.439  0.4920 -3.1555 -1.8532
  308MOL0     H41566   5.151   6.864   7.259 -0.1410 -1.8402 -0.3955
  308MOL0     H41567   4.961   6.857   7.099 -2.0815  2.9686 -0.4653
  308MOL0     H41568   4.831   7.074   7.018  0.1041  0.9838 -0.4401
  308MOL0     H41569   4.782   6.913   6.980 -1.7370  0.8763 -1.0884
  308MOL0     H41570   4.612   7.067   6.906  0.5829  1.7899  3.1482
  308MOL0     H41571   4.696   7.011   6.753  3.4191  0.5129 -0.5696
  308MOL0     H41572   4.840   7.219   6.779  0.2096 -0.5252  4.1719
  308MOL0     H41573   4.722   7.268   6.898 -1.1500  2.0870 -1.8312
  308MOL0     H41574   4.689   7.368   6.679  2.4579 -1.3090 -0.0065
  308MOL0     H41575   4.647   7.227   6.598  0.6094  1.9992 -0.3499
  308MOL0     H41576   4.271   7.265   6.759 -0.2921  0.5563 -1.5447
  308MOL0     H41577   5.161   7.118   6.832  0.6796 -3.1816 -1.5757
  308MOL0     H41578   5.378   7.198   6.862  5.6043 -2.5613 -1.7230
  308MOL0     H41579   5.408   7.230   7.042  0.0912 -2.1009  1.1052
  308MOL0     H41580   5.480   7.096   6.957 -0.0220 -0.9927 -0.6485
  309MOL0     O41581   4.622   2.149   0.768 -0.1172 -0.2116 -0.2631
  309MOL0     C41582   4.616   2.066   0.861  0.3031 -0.7676 -0.4858
  309MOL0     O41583   4.723   2.011   0.928  0.7010  0.0605 -0.1990
  309MOL0     C41584   4.850   2.005   0.881 -0.1027  0.3404  0.3467
  309MOL0     C41585   4.888   2.011   0.747  0.5988  0.5477 -0.0216
  309MOL0     C41586   5.024   1.990   0.718  1.2000  0.6750 -0.5602
  309MOL0     C41587   5.122   1.980   0.821  0.2870 -0.1168  0.6190
  309MOL0     O41588   5.246   1.947   0.781 -0.1561 -0.1088  1.0458
  309MOL0     C41589   5.336   1.885   0.869 -0.0257 -0.6735 -1.2993
  309MOL0     C41590   5.457   1.844   0.793 -0.2413 -0.0567  0.8805
  309MOL0     C41591   5.550   1.955   0.735 -0.3527 -0.8819  0.5580
  309MOL0     C41592   5.645   1.898   0.633 -1.6341  0.2667 -0.8558
  309MOL0     C41593   5.742   2.001   0.567 -0.6551  0.1094 -1.0283
  309MOL0     C41594   5.859   1.936   0.485  0.5835  0.3903 -0.4224
  309MOL0     C41595   5.954   1.850   0.572 -0.0234 -0.8460  0.7152
  309MOL0     C41596   6.047   1.790   0.465  0.1619 -0.1196 -0.1448
  309MOL0     N41597   6.168   1.722   0.518  0.4542 -0.0591 -0.0190
  309MOL0     C41598   6.221   1.732   0.653  0.6397  0.3744 -0.1738
  309MOL0     C41599   6.330   1.662   0.646 -0.1678 -0.0607  0.0835
  309MOL0     C41600   6.438   1.657   0.751 -0.0752  0.1507 -0.1046
  309MOL0     C41601   6.431   1.542   0.846 -0.3514  0.3812 -0.3485
  309MOL0     C41602   6.524   1.570   0.967 -0.3337 -1.0416  0.3714
  309MOL0     C41603   6.666   1.621   0.928 -0.1392  0.2296 -0.3510
  309MOL0     O41604   6.748   1.636   1.044  0.1872  0.1573  0.5576
  309MOL0     C41605   6.886   1.619   1.034  0.3295  0.0675 -0.1971
  309MOL0     C41606   6.951   1.629   1.151 -0.1911 -0.0489 -0.1829
  309MOL0     C41607   7.082   1.602   1.154  0.1773 -0.1664  0.2132
  309MOL0     C41608   7.162   1.581   1.032 -0.0853 -0.8679 -0.0774
  309MOL0     C41609   7.306   1.543   1.038  0.2006 -0.4919  0.2729
  309MOL0     O41610   7.388   1.542   0.924  0.1521  0.1771 -0.1056
  309MOL0     C41611   7.530   1.544   0.936  0.8286  0.2452  0.5643
  309MOL0     C41612   7.601   1.606   1.042  0.5293 -0.4973  0.4257
  309MOL0     C41613   7.743   1.620   1.037  0.0929  0.0812  0.3113
  309MOL0     C41614   7.815   1.559   0.936  0.5143  0.5407  0.9914
  309MOL0     O41615   7.956   1.580   0.923  0.1714 -0.3351 -0.1156
  309MOL0     C41616   8.032   1.544   0.811  0.2501 -0.7116 -0.1544
  309MOL0     C41617   8.179   1.524   0.858  0.9002 -0.7050  0.5317
  309MOL0     C41618   8.243   1.667   0.833 -0.3923  0.0218 -0.2580
  309MOL0     C41619   8.385   1.685   0.855 -0.2484 -0.4507 -0.4965
  309MOL0     C41620   8.434   1.838   0.876  0.2547  0.9240 -0.0152
  309MOL0     C41621   8.584   1.852   0.903  0.1807  0.1820  0.0617
  309MOL0     C41622   8.640   1.994   0.899 -0.5567 -0.4418  0.0534
  309MOL0     C41623   8.541   2.097   0.952 -0.0459  0.1084 -0.1197
  309MOL0    Cl41624   8.428   2.149   0.822 -0.0217  0.1487 -0.0344
  309MOL0     C41625   7.743   1.492   0.835 -0.5286  0.0964  0.2913
  309MOL0     C41626   7.609   1.495   0.834  0.0937 -0.2153  0.1295
  309MOL0     O41627   7.352   1.524   1.154  0.3305 -0.2674  0.8688
  309MOL0     C41628   7.096   1.592   0.909 -0.7159  0.7335 -0.0732
  309MOL0     C41629   6.954   1.603   0.915  1.0463 -0.0291  0.4615
  309MOL0     N41630   6.343   1.597   0.526 -0.6467 -0.2976 -0.7247
  309MOL0     N41631   6.246   1.635   0.452 -0.4363  0.5709  1.2525
  309MOL0     C41632   5.086   1.999   0.953  0.6451  1.1364  0.4711
  309MOL0     C41633   4.953   2.011   0.978 -0.6362 -0.2435 -0.1306
  309MOL0     C41634   4.489   2.073   0.938  0.0946  0.2693  0.4197
  309MOL0     C41635   4.489   2.022   1.069 -0.6155 -0.0703 -0.0942
  309MOL0     C41636   4.378   2.021   1.149  1.4600  0.1534  0.3391
  309MOL0     C41637   4.258   2.067   1.098 -0.0658 -0.1219 -1.1339
  309MOL0     O41638   4.142   2.074   1.174  0.3837  0.2252  0.0693
  309MOL0     C41639   4.126   1.994   1.292 -0.0122 -0.0432 -0.0985
  309MOL0     C41640   3.981   1.974   1.332 -0.7031 -0.3523 -0.4417
  309MOL0     C41641   3.908   2.108   1.375 -0.0790  0.3992  0.5873
  309MOL0     C41642   3.763   2.078   1.371  1.3929 -0.2285 -1.0214
  309MOL0     C41643   3.681   2.178   1.439  0.4246 -0.3676  0.7721
  309MOL0     C41644   3.601   2.259   1.468 -0.3267  0.1675  0.4043
  309MOL0     C41645   4.250   2.124   0.976  0.5267 -0.3626  0.5810
  309MOL0     C41646   4.363   2.124   0.891 -1.1803  0.0955 -0.0030
  309MOL0     C41647   4.338   2.187   0.756 -0.0817 -0.2010 -0.2660
  309MOL0     H41648   4.814   2.020   0.668  0.1974  0.6641  0.3642
  309MOL0     H41649   5.045   1.978   0.612  2.0552 -2.7518 -0.1222
  309MOL0     H41650   5.366   1.948   0.953 -1.1390 -2.7932  0.8192
  309MOL0     H41651   5.305   1.792   0.918  3.0667 -0.7433  0.8121
  309MOL0     H41652   5.427   1.764   0.725 -0.9420 -0.1862  1.3370
  309MOL0     H41653   5.524   1.794   0.863  1.4478  0.2398 -0.4516
  309MOL0     H41654   5.610   2.000   0.815 -0.1525 -0.8872  0.4107
  309MOL0     H41655   5.485   2.031   0.691 -0.2522 -1.6434 -0.9779
  309MOL0     H41656   5.703   1.824   0.689  0.3919  1.5407 -1.1616
  309MOL0     H41657   5.596   1.835   0.559 -0.2046 -2.9949  0.7660
  309MOL0     H41658   5.680   2.049   0.490 -1.0710 -2.1868 -2.2249
  309MOL0     H41659   5.791   2.062   0.643 -0.5890 -0.5206 -0.5585
  309MOL0     H41660   5.800   1.882   0.410 -1.4512 -1.4988  2.2893
  309MOL0     H41661   5.920   2.019   0.450  3.2576 -1.2406  0.0946
  309MOL0     H41662   5.906   1.772   0.633  2.3425 -2.4855  0.6299
  309MOL0     H41663   6.010   1.910   0.644 -1.1206  1.6854 -0.4452
  309MOL0     H41664   5.987   1.715   0.413  0.9808 -0.5314 -0.5189
  309MOL0     H41665   6.089   1.861   0.393  0.0182  1.4159  1.2256
  309MOL0     H41666   6.186   1.786   0.741  2.0322 -2.2098  2.1287
  309MOL0     H41667   6.532   1.651   0.695 -0.6544  1.5481 -1.2812
  309MOL0     H41668   6.433   1.749   0.810 -2.2201 -1.1008  1.7948
  309MOL0     H41669   6.331   1.523   0.887 -0.8568 -1.3496 -2.2091
  309MOL0     H41670   6.441   1.442   0.803  0.1531 -0.5086  1.7039
  309MOL0     H41671   6.542   1.480   1.027  1.1046  0.6099  2.5757
  309MOL0     H41672   6.471   1.637   1.034  1.2670  1.9231 -1.1004
  309MOL0     H41673   6.665   1.708   0.863  0.7310 -0.5210 -1.3967
  309MOL0     H41674   6.713   1.536   0.878  0.7773  0.5015  0.0283
  309MOL0     H41675   6.892   1.639   1.242  3.2190 -1.4626  2.4218
  309MOL0     H41676   7.127   1.596   1.252 -1.4106 -1.8151  0.9123
  309MOL0     H41677   7.545   1.666   1.114 -2.5870 -1.2467 -1.1875
  309MOL0     H41678   7.798   1.677   1.111 -2.2156  2.6571  0.2202
  309MOL0     H41679   7.991   1.448   0.779  2.0093 -1.7130  0.4322
  309MOL0     H41680   8.031   1.610   0.723  0.1859  1.6162  1.5094
  309MOL0     H41681   8.184   1.500   0.965  1.3344  0.0502  0.6890
  309MOL0     H41682   8.239   1.449   0.806  1.1077 -0.3191  0.2096
  309MOL0     H41683   8.223   1.692   0.729 -1.0659 -1.3810 -0.4911
  309MOL0     H41684   8.184   1.733   0.897  0.9495 -0.7394  1.8991
  309MOL0     H41685   8.443   1.627   0.783  1.6663  2.0624 -1.1160
  309MOL0     H41686   8.407   1.631   0.947  0.5305 -2.4408 -1.7772
  309MOL0     H41687   8.372   1.869   0.960 -2.2037 -0.4771 -1.2139
  309MOL0     H41688   8.411   1.899   0.788 -0.3838 -1.3882 -1.5237
  309MOL0     H41689   8.612   1.800   0.995 -1.2980  1.5400  1.3359
  309MOL0     H41690   8.632   1.792   0.825 -1.6235 -2.1257  0.6293
  309MOL0     H41691   8.681   2.032   0.805  0.2922 -3.3813 -0.8507
  309MOL0     H41692   8.724   1.981   0.967 -0.1139 -1.1887 -0.6202
  309MOL0     H41693   8.487   2.067   1.042 -2.3575  3.6546 -0.1427
  309MOL0     H41694   8.595   2.189   0.975  1.5459 -0.7047 -0.4241
  309MOL0     H41695   7.789   1.432   0.757 -1.2648 -0.0265 -0.0586
  309MOL0     H41696   7.553   1.449   0.754 -3.4965  0.4741  2.0544
  309MOL0     H41697   7.144   1.581   0.812  0.1187  0.2455  0.3822
  309MOL0     H41698   6.904   1.608   0.819 -0.9485 -3.7407  1.1330
  309MOL0     H41699   5.149   1.977   1.038  0.3851 -2.3956 -0.0972
  309MOL0     H41700   4.930   2.024   1.083  0.5452  1.1105 -0.0075
  309MOL0     H41701   4.572   1.984   1.129 -1.3939 -1.9815 -0.1500
  309MOL0     H41702   4.382   1.981   1.250 -1.4576 -0.0384  0.4724
  309MOL0     H41703   4.197   2.035   1.364  0.7079  2.1049 -1.8937
  309MOL0     H41704   4.166   1.895   1.269  0.2546  0.4425 -1.9515
  309MOL0     H41705   3.976   1.906   1.418  3.3291  0.3171  0.4789
  309MOL0     H41706   3.940   1.930   1.241 -0.2319 -0.6523 -0.5110
  309MOL0     H41707   3.934   2.197   1.316  1.7669 -1.2385 -1.2359
  309MOL0     H41708   3.945   2.127   1.476  0.3833  1.0342  0.3069
  309MOL0     H41709   3.722   2.069   1.270  1.1781  1.9306 -1.1671
  309MOL0     H41710   3.727   1.989   1.424 -1.6726  1.2529 -0.3775
  309MOL0     H41711   3.527   2.331   1.496 -0.9622  0.0071 -0.7961
  309MOL0     H41712   4.156   2.168   0.946  0.9891 -1.7338 -3.3906
  309MOL0     H41713   4.235   2.221   0.742 -0.7270 -1.4468  1.1109
  309MOL0     H41714   4.399   2.274   0.730 -1.2017  0.0000 -2.4627
  309MOL0     H41715   4.363   2.109   0.684 -0.8188  1.4547 -2.4258
  310MOL0     O41716   8.916  10.075   2.340 -0.2504  0.0993 -0.8627
  310MOL0     C41717   8.951   9.968   2.382  0.3693 -0.4238  0.2618
  310MOL0     O41718   9.060   9.937   2.449  0.0792  0.3502  0.5081
  310MOL0     C41719   9.157  10.027   2.462  0.9571  0.8715  0.5795
  310MOL0     C41720   9.215  10.076   2.347 -0.7381  0.0743 -0.2230
  310MOL0     C41721   9.327  10.161   2.358 -0.0105  0.6212  0.4775
  310MOL0     C41722   9.373  10.202   2.486  0.9747 -0.0404  0.1369
  310MOL0     O41723   9.482  10.283   2.491 -0.4887 -0.1566  0.3030
  310MOL0     C41724   9.476  10.407   2.420 -0.0667  0.0232 -0.0596
  310MOL0     C41725   9.605  10.479   2.432 -0.2200  0.4238  0.5726
  310MOL0     C41726   9.719  10.394   2.370 -0.6794 -0.0727 -0.5850
  310MOL0     C41727   9.850  10.446   2.429  0.5429  0.1523  0.7991
  310MOL0     C41728   9.973  10.403   2.343 -0.1370 -0.4400 -0.2453
  310MOL0     C41729  10.100  10.460   2.399 -0.2910  0.1781 -0.3027
  310MOL0     C41730  10.230  10.416   2.319 -0.0385  1.2994 -0.1666
  310MOL0     C41731  10.354  10.418   2.408  0.0261  0.6658 -0.5389
  310MOL0     N41732  10.476  10.385   2.328  0.1037  0.2535  0.1389
  310MOL0     C41733  10.601  10.353   2.369  0.3532 -0.0102 -0.6420
  310MOL0     C41734  10.676  10.310   2.264 -0.3749 -0.3195 -0.1920
  310MOL0     C41735  10.825  10.273   2.268 -0.0387 -0.0990  0.2931
  310MOL0     C41736  10.858  10.150   2.186  0.4878  0.2578 -0.1957
  310MOL0     C41737  11.001  10.092   2.217 -0.4285  0.7366 -0.0140
  310MOL0     C41738  11.122  10.163   2.188  0.0904 -0.1821  0.9424
  310MOL0     O41739  11.222  10.127   2.282 -0.5046 -0.1543  0.2875
  310MOL0     C41740  11.360  10.139   2.248 -0.3531  0.3714  0.4613
  310MOL0     C41741  11.424  10.212   2.149 -0.4847  0.2504  0.6490
  310MOL0     C41742  11.566  10.207   2.128  0.0615 -0.3322  0.2951
  310MOL0     C41743  11.644  10.117   2.210  1.2798 -0.0819  0.8069
  310MOL0     C41744  11.792  10.122   2.197  0.6221 -0.2773 -0.4252
  310MOL0     O41745  11.862  10.103   2.304 -0.5709 -0.0268  0.1484
  310MOL0     C41746  11.995  10.137   2.308 -0.2719  1.0611  0.3909
  310MOL0     C41747  12.047  10.269   2.305  0.2286  0.7050 -0.4759
  310MOL0     C41748  12.187  10.291   2.312  0.2088  0.8858 -0.4084
  310MOL0     C41749  12.267  10.182   2.309 -0.2201 -0.2217 -0.0310
  310MOL0     O41750  12.396  10.189   2.292 -0.2178  0.0044 -0.7564
  310MOL0     C41751  12.461  10.295   2.228  0.3970 -0.5112 -0.1859
  310MOL0     C41752  12.612  10.294   2.274  0.3194  0.0128 -0.0683
  310MOL0     C41753  12.686  10.162   2.232 -0.3063 -0.2452  0.1751
  310MOL0     C41754  12.835  10.188   2.235 -0.4840  0.1237  0.4891
  310MOL0     C41755  12.912  10.064   2.203  0.5186 -0.0399  0.4485
  310MOL0     C41756  13.063  10.107   2.180 -0.1824  1.4608 -0.0739
  310MOL0     C41757  13.140   9.985   2.114 -0.1339 -0.3169  0.4166
  310MOL0     C41758  13.293   9.992   2.134  0.1691  0.1930 -0.4887
  310MOL0    Cl41759  13.350  10.136   2.046 -0.2984  0.4561 -0.2756
  310MOL0     C41760  12.214  10.054   2.316 -0.2301 -0.8252 -0.1055
  310MOL0     C41761  12.080  10.032   2.308 -0.1574  0.4635 -1.1708
  310MOL0     O41762  11.837  10.143   2.089 -0.2847 -0.3391  0.8098
  310MOL0     C41763  11.578  10.037   2.297  0.7301 -0.3300 -0.8180
  310MOL0     C41764  11.439  10.043   2.322 -0.2435 -0.4244  0.3858
  310MOL0     N41765  10.602  10.329   2.150  0.3872 -0.9275  0.0637
  310MOL0     N41766  10.482  10.373   2.188  0.3635 -0.2479 -0.5109
  310MOL0     C41767   9.305  10.152   2.599  0.3571 -0.2397 -0.5544
  310MOL0     C41768   9.202  10.065   2.592  0.6152 -0.5955  1.7160
  310MOL0     C41769   8.840   9.871   2.394  0.4781  0.1281  0.3518
  310MOL0     C41770   8.809   9.813   2.522 -0.1277  0.5761 -0.1819
  310MOL0     C41771   8.708   9.720   2.540  0.0650  0.1370 -0.8812
  310MOL0     C41772   8.616   9.691   2.444  0.5237  0.0200 -0.5927
  310MOL0     O41773   8.515   9.591   2.451  0.4235  0.0493  0.5610
  310MOL0     C41774   8.481   9.521   2.568  0.2054  0.3087 -0.0084
  310MOL0     C41775   8.372   9.424   2.539 -0.1815 -0.8730 -0.7547
  310MOL0     C41776   8.238   9.482   2.579  0.4827  0.6516  0.5981
  310MOL0     C41777   8.129   9.381   2.605  0.9247  0.0287  0.3642
  310MOL0     C41778   8.151   9.314   2.733 -0.0607  0.7996 -0.4348
  310MOL0     C41779   8.172   9.242   2.824 -0.0622  0.3100 -0.0446
  310MOL0     C41780   8.630   9.763   2.323 -0.5342 -0.9337  0.1450
  310MOL0     C41781   8.743   9.844   2.286 -0.7144 -0.9379 -0.3137
  310MOL0     C41782   8.747   9.910   2.150  0.4700 -0.4400 -0.4388
  310MOL0     H41783   9.181  10.052   2.247  1.4710  0.4552 -1.1404
  310MOL0     H41784   9.360  10.211   2.268  1.1020  1.8962  1.5573
  310MOL0     H41785   9.448  10.391   2.315 -0.4512  0.4137 -0.0184
  310MOL0     H41786   9.410  10.477   2.471 -0.1164 -0.1265  0.0838
  310MOL0     H41787   9.613  10.497   2.540 -1.8166  0.1943  0.7646
  310MOL0     H41788   9.606  10.576   2.381 -0.4182  0.6538  0.9958
  310MOL0     H41789   9.725  10.398   2.261  2.6706  0.8614 -0.4879
  310MOL0     H41790   9.716  10.287   2.389  0.9058 -0.8211 -3.9603
  310MOL0     H41791   9.839  10.555   2.422 -2.4544 -0.1062 -0.0293
  310MOL0     H41792   9.871  10.422   2.533  0.2356 -2.3968  0.3447
  310MOL0     H41793   9.983  10.294   2.342  1.5019 -0.3804 -3.5174
  310MOL0     H41794   9.970  10.438   2.240 -0.2168 -0.5378 -0.2760
  310MOL0     H41795  10.103  10.569   2.404  0.1153  0.2134 -1.1561
  310MOL0     H41796  10.119  10.423   2.501  0.8446 -0.6664 -0.7958
  310MOL0     H41797  10.257  10.487   2.240  0.9857  1.1814  0.0684
  310MOL0     H41798  10.209  10.319   2.273 -2.2648  1.6221  0.0525
  310MOL0     H41799  10.367  10.515   2.457  0.1888  0.3773  0.0041
  310MOL0     H41800  10.347  10.340   2.484 -1.5093  1.4291  0.1408
  310MOL0     H41801  10.645  10.358   2.468 -0.6111  0.1436 -0.2211
  310MOL0     H41802  10.888  10.357   2.239 -3.8883  2.2475 -2.2442
  310MOL0     H41803  10.845  10.261   2.375  0.0807  1.1735  0.4279
  310MOL0     H41804  10.780  10.077   2.209 -0.0445  0.1966 -2.0463
  310MOL0     H41805  10.845  10.167   2.079  0.1272 -2.7902 -0.7477
  310MOL0     H41806  11.004   9.992   2.172  0.1678  0.3810  0.8013
  310MOL0     H41807  10.998  10.062   2.322 -0.7262 -4.3560 -1.2089
  310MOL0     H41808  11.103  10.271   2.190 -0.4037 -0.2723  1.2315
  310MOL0     H41809  11.155  10.140   2.086  0.0161  0.6637  0.7139
  310MOL0     H41810  11.362  10.271   2.082  1.9218 -0.1303 -2.1361
  310MOL0     H41811  11.609  10.263   2.047  1.4680 -4.5132 -2.1408
  310MOL0     H41812  11.975  10.350   2.315 -0.5277 -0.1993  2.0826
  310MOL0     H41813  12.232  10.390   2.320  1.1571  0.3553  2.0020
  310MOL0     H41814  12.454  10.291   2.119  1.9345  0.4881 -0.3648
  310MOL0     H41815  12.417  10.394   2.244  1.2551 -0.1214 -0.1720
  310MOL0     H41816  12.661  10.385   2.240  0.7014  0.4090  1.4579
  310MOL0     H41817  12.613  10.304   2.383 -0.5786  0.1738 -0.0713
  310MOL0     H41818  12.650  10.085   2.301 -1.2965 -0.0005 -0.0606
  310MOL0     H41819  12.652  10.137   2.132  0.8145 -2.4330  0.2768
  310MOL0     H41820  12.866  10.227   2.332 -0.8270  0.0175  0.6425
  310MOL0     H41821  12.858  10.269   2.165 -3.0273  0.3066 -0.2336
  310MOL0     H41822  12.869  10.018   2.113 -1.1002 -0.0116  1.1714
  310MOL0     H41823  12.893   9.990   2.282 -3.2386  0.1990 -0.0477
  310MOL0     H41824  13.065  10.191   2.109 -0.5556  1.2334 -0.3588
  310MOL0     H41825  13.101  10.127   2.281  1.8390  1.4795 -0.7947
  310MOL0     H41826  13.112   9.982   2.008  2.2179 -0.6633 -0.2496
  310MOL0     H41827  13.106   9.887   2.150  1.5077 -0.4687  1.6430
  310MOL0     H41828  13.313  10.003   2.241  1.3297  1.3106 -0.7988
  310MOL0     H41829  13.344   9.901   2.101 -2.2218 -1.9845  1.4384
  310MOL0     H41830  12.278   9.967   2.307 -1.3372 -1.9025  1.6997
  310MOL0     H41831  12.036   9.933   2.294  0.6145 -0.0036 -0.4029
  310MOL0     H41832  11.638   9.968   2.357  2.4232 -0.2373 -2.3406
  310MOL0     H41833  11.386   9.980   2.393 -1.3392  0.1422  0.0932
  310MOL0     H41834   9.330  10.187   2.698  1.8804  1.0346 -1.3339
  310MOL0     H41835   9.139  10.021   2.668 -1.1039 -3.4400 -1.1315
  310MOL0     H41836   8.881   9.841   2.598 -1.4633  4.8197 -0.2067
  310MOL0     H41837   8.710   9.650   2.623  1.9363 -1.1867 -1.9609
  310MOL0     H41838   8.451   9.598   2.640 -1.6078  0.9971 -1.4207
  310MOL0     H41839   8.572   9.471   2.603  1.5057  0.9312 -2.2531
  310MOL0     H41840   8.388   9.337   2.604 -0.1917  1.1831  2.2500
  310MOL0     H41841   8.365   9.387   2.437  0.0581 -0.2293 -1.0117
  310MOL0     H41842   8.213   9.537   2.487  3.4587 -1.5286 -1.7468
  310MOL0     H41843   8.248   9.552   2.662  1.4983 -0.7031  1.6485
  310MOL0     H41844   8.029   9.426   2.602  1.8208  2.2199  1.0226
  310MOL0     H41845   8.123   9.308   2.523  0.5891  2.7383 -2.2131
  310MOL0     H41846   8.187   9.179   2.910 -2.1133 -0.6596 -0.3384
  310MOL0     H41847   8.566   9.754   2.236  0.5277 -0.4967 -0.7025
  310MOL0     H41848   8.839   9.963   2.126 -0.5744  0.8503 -1.8189
  310MOL0     H41849   8.736   9.843   2.064  1.0381 -0.6281 -0.3632
  310MOL0     H41850   8.668   9.986   2.141  1.3348  0.5676  0.2570
  311MOL0     O41851   6.965   3.231   6.715  0.6270  0.0884 -0.0983
  311MOL0     C41852   6.857   3.279   6.748 -0.8466 -0.3138 -0.0466
  311MOL0     O41853   6.773   3.225   6.840 -0.1568  0.3904  0.0555
  311MOL0     C41854   6.805   3.118   6.916 -0.0497  0.1104  0.1161
  311MOL0     C41855   6.717   3.003   6.915 -0.1987 -0.4360  1.1474
  311MOL0     C41856   6.752   2.906   7.008  0.1927  0.3684  0.3966
  311MOL0     C41857   6.870   2.902   7.081 -0.1048 -0.4132 -0.4889
  311MOL0     O41858   6.884   2.795   7.178  0.4541 -0.1406 -0.4144
  311MOL0     C41859   7.012   2.760   7.211  0.8662  0.4552 -0.7227
  311MOL0     C41860   6.999   2.630   7.302  0.8779  0.4061 -0.7071
  311MOL0     C41861   7.140   2.578   7.334 -0.6282  0.2774  0.7399
  311MOL0     C41862   7.139   2.456   7.422 -0.0624 -1.0783  0.6428
  311MOL0     C41863   7.285   2.422   7.469 -0.1037  0.9892 -0.2985
  311MOL0     C41864   7.396   2.408   7.366  1.1485  0.0953  0.6152
  311MOL0     C41865   7.540   2.401   7.434  0.7525 -0.2790 -0.2045
  311MOL0     C41866   7.643   2.419   7.311 -0.0974  0.1677 -0.7578
  311MOL0     N41867   7.783   2.394   7.356 -0.1164  0.2496  0.6049
  311MOL0     C41868   7.891   2.424   7.276  0.4719 -0.5274 -0.7000
  311MOL0     C41869   7.976   2.324   7.304 -0.1574 -0.4102 -1.1866
  311MOL0     C41870   8.115   2.310   7.245  0.2272  0.0682 -0.5114
  311MOL0     C41871   8.223   2.415   7.291 -0.5591 -0.4655  0.8819
  311MOL0     C41872   8.252   2.421   7.442  0.8765 -0.0605  1.0323
  311MOL0     C41873   8.364   2.521   7.467 -0.0610  0.3268 -0.1699
  311MOL0     O41874   8.493   2.462   7.438  0.1265  0.1520  0.1188
  311MOL0     C41875   8.601   2.555   7.456  0.3107 -0.4378 -0.1992
  311MOL0     C41876   8.730   2.515   7.417 -0.3286 -0.3322 -0.2158
  311MOL0     C41877   8.835   2.607   7.413 -0.3322  0.0184  0.2770
  311MOL0     C41878   8.820   2.728   7.469  0.1117 -0.0119 -1.2582
  311MOL0     C41879   8.936   2.823   7.474 -0.4764  0.0874  0.4988
  311MOL0     O41880   9.032   2.801   7.376 -0.1909  0.5794 -0.3985
  311MOL0     C41881   9.146   2.872   7.365 -0.4690  1.3413  0.2722
  311MOL0     C41882   9.159   3.005   7.401  0.1202 -0.5822  0.2198
  311MOL0     C41883   9.274   3.078   7.377 -0.3303  0.5795  0.2907
  311MOL0     C41884   9.388   3.012   7.317  1.4155  0.7481  0.4416
  311MOL0     O41885   9.496   3.070   7.272  0.0534 -0.0148  0.1180
  311MOL0     C41886   9.543   3.167   7.368  0.2636 -0.4346  0.6226
  311MOL0     C41887   9.691   3.210   7.345  0.2508 -0.7125  0.0472
  311MOL0     C41888   9.744   3.270   7.481  0.2472 -0.9176  0.4567
  311MOL0     C41889   9.880   3.333   7.452  0.2622  0.0073 -0.2809
  311MOL0     C41890   9.947   3.405   7.577  0.3073 -0.4715  0.1472
  311MOL0     C41891  10.082   3.346   7.614  0.2476  0.5957  0.1640
  311MOL0     C41892  10.158   3.416   7.730  0.1720  0.1665 -0.4708
  311MOL0     C41893  10.304   3.430   7.678 -0.0646 -0.0153  0.1657
  311MOL0    Cl41894  10.393   3.479   7.822  0.2888 -0.0824  0.0699
  311MOL0     C41895   9.370   2.878   7.278  0.1822 -0.6251  0.9388
  311MOL0     C41896   9.254   2.811   7.299  0.0382 -1.0089 -0.1994
  311MOL0     O41897   8.939   2.904   7.565 -0.4079 -0.3986 -0.3490
  311MOL0     C41898   8.686   2.774   7.514 -0.5717  0.2147 -0.1706
  311MOL0     C41899   8.580   2.688   7.501 -0.3018  0.0641  0.1476
  311MOL0     N41900   7.929   2.252   7.412 -0.7480  0.6746  0.3310
  311MOL0     N41901   7.819   2.301   7.447 -0.2583 -0.2707 -0.1303
  311MOL0     C41902   6.960   3.012   7.065  0.0098 -0.0940 -0.2634
  311MOL0     C41903   6.917   3.127   6.997 -0.0357 -0.2064 -0.1812
  311MOL0     C41904   6.812   3.395   6.672 -0.3774 -0.3676 -0.5149
  311MOL0     C41905   6.719   3.474   6.733  0.6883  0.3112 -1.0068
  311MOL0     C41906   6.673   3.600   6.691  0.3545  0.1387 -0.0870
  311MOL0     C41907   6.718   3.647   6.567 -0.3410 -0.5984 -0.1831
  311MOL0     O41908   6.669   3.771   6.518  0.4002  0.4030  0.3189
  311MOL0     C41909   6.732   3.849   6.427 -0.7030 -0.6426 -0.8113
  311MOL0     C41910   6.628   3.894   6.324 -0.0286 -0.0040  0.4576
  311MOL0     C41911   6.510   3.985   6.383 -1.1340  1.2330  0.0996
  311MOL0     C41912   6.514   4.130   6.334  0.1511 -0.5991 -0.2324
  311MOL0     C41913   6.381   4.185   6.351  0.3848  0.8282  0.5047
  311MOL0     C41914   6.265   4.212   6.345 -0.6514 -0.1614  0.7615
  311MOL0     C41915   6.814   3.570   6.500 -0.1057  0.0657 -0.1735
  311MOL0     C41916   6.860   3.448   6.550 -0.1699  0.5329  0.1289
  311MOL0     C41917   6.948   3.370   6.459 -0.1638  0.2232 -0.6864
  311MOL0     H41918   6.628   3.012   6.853  0.9646  2.7624 -0.2854
  311MOL0     H41919   6.700   2.811   7.010  1.7652 -0.5473  2.7624
  311MOL0     H41920   7.089   2.737   7.137  0.6968 -3.6736  0.1563
  311MOL0     H41921   7.049   2.822   7.293  2.9892 -3.1253  1.2741
  311MOL0     H41922   6.947   2.560   7.237  1.3987  0.8053 -1.5631
  311MOL0     H41923   6.927   2.630   7.385  0.2917  0.6207 -1.2091
  311MOL0     H41924   7.195   2.657   7.385  0.2067 -0.8908  1.7310
  311MOL0     H41925   7.196   2.552   7.243 -2.8910 -1.2799 -0.3015
  311MOL0     H41926   7.078   2.482   7.509 -0.8581 -0.2458 -0.1480
  311MOL0     H41927   7.092   2.371   7.371 -2.0572 -1.1310  2.4495
  311MOL0     H41928   7.307   2.492   7.550 -1.6601  0.5538  0.5502
  311MOL0     H41929   7.278   2.327   7.521  1.4282  1.2326  0.3912
  311MOL0     H41930   7.358   2.332   7.297  1.3822  1.8174 -1.5064
  311MOL0     H41931   7.393   2.495   7.299 -1.1643  0.6232  1.3182
  311MOL0     H41932   7.554   2.307   7.488  0.6623 -0.1604  0.0238
  311MOL0     H41933   7.560   2.485   7.500  2.8084 -0.3400 -0.6629
  311MOL0     H41934   7.627   2.356   7.223  2.7326 -0.3273 -0.9963
  311MOL0     H41935   7.640   2.524   7.281 -0.4926  1.2141  2.5471
  311MOL0     H41936   7.899   2.499   7.198  2.2039 -1.0817 -1.1083
  311MOL0     H41937   8.154   2.211   7.272  0.2311 -0.0604 -0.9849
  311MOL0     H41938   8.104   2.299   7.137 -2.0659 -0.6514 -0.2744
  311MOL0     H41939   8.315   2.396   7.235 -1.4237  1.5537 -1.4127
  311MOL0     H41940   8.200   2.519   7.265  1.2010  0.0485  1.2011
  311MOL0     H41941   8.263   2.316   7.470  0.2846 -0.1322  1.0041
  311MOL0     H41942   8.158   2.454   7.488  0.0019  0.7444 -1.1763
  311MOL0     H41943   8.362   2.540   7.574 -0.1904 -2.2089  0.3402
  311MOL0     H41944   8.343   2.616   7.417 -2.2869  0.4544  0.9068
  311MOL0     H41945   8.734   2.418   7.368 -2.4012  0.0498 -1.2138
  311MOL0     H41946   8.935   2.574   7.387  0.8486  1.3812  2.7954
  311MOL0     H41947   9.075   3.061   7.442  0.3459  3.7661 -4.3359
  311MOL0     H41948   9.279   3.181   7.412  0.7415  0.5012  0.3727
  311MOL0     H41949   9.480   3.256   7.371 -0.2946 -0.8464  2.3349
  311MOL0     H41950   9.537   3.127   7.470  1.0203  1.7470  1.5848
  311MOL0     H41951   9.750   3.126   7.307 -0.0643  0.0838 -2.3915
  311MOL0     H41952   9.692   3.293   7.274  2.0932  2.2733  3.2283
  311MOL0     H41953   9.680   3.352   7.515  1.9997  0.0317  1.6272
  311MOL0     H41954   9.747   3.191   7.556  0.1745 -1.0461  0.3246
  311MOL0     H41955   9.871   3.424   7.392 -0.0258  1.3271  1.6608
  311MOL0     H41956   9.946   3.269   7.392 -0.1122 -1.0663  0.4162
  311MOL0     H41957   9.876   3.386   7.658 -1.4768 -0.5159 -1.3567
  311MOL0     H41958   9.961   3.510   7.551  1.3005 -1.0548 -1.8924
  311MOL0     H41959  10.080   3.238   7.629  1.9265  0.5282  0.1229
  311MOL0     H41960  10.133   3.367   7.520  5.1143  1.1930  2.6261
  311MOL0     H41961  10.151   3.346   7.815  2.8140 -0.8451 -0.9945
  311MOL0     H41962  10.105   3.507   7.757 -0.1041 -0.6509  2.0658
  311MOL0     H41963  10.337   3.331   7.644  1.5109  0.2765  0.7773
  311MOL0     H41964  10.318   3.494   7.590 -2.1416 -2.2202 -1.9428
  311MOL0     H41965   9.445   2.821   7.225 -0.3566 -0.3206 -0.1963
  311MOL0     H41966   9.239   2.713   7.255  0.1791 -1.5642  0.9504
  311MOL0     H41967   8.664   2.874   7.549  4.0840  1.2197  0.5807
  311MOL0     H41968   8.486   2.735   7.529  0.2870  1.2491  0.2243
  311MOL0     H41969   7.048   3.017   7.128 -0.1065  1.2619 -0.1740
  311MOL0     H41970   6.984   3.212   6.990 -1.9768  1.4278  0.1973
  311MOL0     H41971   6.676   3.437   6.825  0.1567  2.3439 -0.3776
  311MOL0     H41972   6.598   3.650   6.752  1.9948  1.4888  0.9377
  311MOL0     H41973   6.812   3.806   6.366  0.6475  2.9950 -1.8918
  311MOL0     H41974   6.777   3.935   6.478 -0.2591 -0.0114 -2.2017
  311MOL0     H41975   6.591   3.803   6.275 -1.7720  1.3247 -0.8107
  311MOL0     H41976   6.676   3.947   6.242 -1.8156  0.0871 -0.5885
  311MOL0     H41977   6.510   3.981   6.493 -2.2894 -0.5637  0.0721
  311MOL0     H41978   6.416   3.932   6.365 -0.1631 -1.2822  1.8465
  311MOL0     H41979   6.581   4.184   6.402 -1.2057 -3.3970  3.6640
  311MOL0     H41980   6.539   4.150   6.229 -1.9132 -2.6475 -1.2040
  311MOL0     H41981   6.158   4.218   6.339 -0.6106  0.9748  0.9340
  311MOL0     H41982   6.870   3.610   6.416  1.7046  1.4668  1.5879
  311MOL0     H41983   7.054   3.390   6.478 -1.3025  3.0625  4.6551
  311MOL0     H41984   6.953   3.262   6.476  1.2761  0.4227  0.3540
  311MOL0     H41985   6.915   3.394   6.357  0.2338 -0.2661 -0.9370
  312MOL0     O41986   6.487   6.324   2.146  0.3633  0.1111  0.1267
  312MOL0     C41987   6.452   6.236   2.230 -0.7089 -0.0748  0.0201
  312MOL0     O41988   6.521   6.121   2.259  0.1760  0.8780  0.7342
  312MOL0     C41989   6.635   6.092   2.179 -0.8259 -0.4689  0.1215
  312MOL0     C41990   6.634   6.019   2.058  0.6565  1.5217  0.0620
  312MOL0     C41991   6.747   5.988   1.985  0.4860  1.1801  0.3345
  312MOL0     C41992   6.874   6.029   2.037 -0.1849 -0.4581  0.7557
  312MOL0     O41993   6.992   6.016   1.966 -0.1623 -0.7459 -0.4653
  312MOL0     C41994   6.992   6.060   1.822 -0.4902  0.8143 -1.3255
  312MOL0     C41995   7.129   6.042   1.751  0.6547  0.1662 -0.3530
  312MOL0     C41996   7.197   5.905   1.756  0.0145 -0.6532 -0.0713
  312MOL0     C41997   7.348   5.901   1.712 -0.3462  0.7632 -0.2451
  312MOL0     C41998   7.376   5.973   1.581  0.4871  0.5575  0.1523
  312MOL0     C41999   7.485   5.904   1.498  0.0218  0.1814  0.2773
  312MOL0     C42000   7.507   5.981   1.363  0.3406  0.0832 -0.5199
  312MOL0     C42001   7.621   5.924   1.272 -0.2928 -0.2460 -1.1524
  312MOL0     N42002   7.744   5.913   1.355 -0.3923 -0.2665  0.8112
  312MOL0     C42003   7.808   5.791   1.368  0.8078  0.2177  0.2625
  312MOL0     C42004   7.923   5.833   1.427 -0.5289  0.7132  0.0019
  312MOL0     C42005   8.051   5.751   1.475 -0.0132 -0.5746 -0.6096
  312MOL0     C42006   8.076   5.753   1.623 -1.1712  0.2312 -0.5581
  312MOL0     C42007   8.130   5.872   1.683  0.2951  0.4646 -0.4918
  312MOL0     C42008   8.273   5.903   1.635 -0.0264 -0.3748 -0.4941
  312MOL0     O42009   8.339   5.804   1.711 -0.8546  0.2700  0.0833
  312MOL0     C42010   8.469   5.797   1.673 -0.5917 -0.4100  0.5001
  312MOL0     C42011   8.566   5.862   1.750 -0.5246  0.0552 -0.8477
  312MOL0     C42012   8.703   5.843   1.732  0.2244  0.2120  0.0929
  312MOL0     C42013   8.745   5.762   1.623  0.0208  1.0226 -0.5941
  312MOL0     C42014   8.886   5.736   1.600  0.1930 -0.4241  0.3909
  312MOL0     O42015   8.976   5.831   1.649 -0.3168  0.1993  0.5249
  312MOL0     C42016   9.111   5.838   1.643 -0.4043  0.4309 -0.4454
  312MOL0     C42017   9.195   5.746   1.573 -0.2073  0.0387 -0.4468
  312MOL0     C42018   9.338   5.745   1.582  0.0314  0.0176  0.3739
  312MOL0     C42019   9.406   5.862   1.637 -0.8616 -0.2641  0.8509
  312MOL0     O42020   9.541   5.877   1.654 -0.4342 -0.3951  0.2110
  312MOL0     C42021   9.634   5.770   1.620 -0.3041  0.1396  0.1298
  312MOL0     C42022   9.765   5.811   1.681 -0.9113 -0.3122 -0.1215
  312MOL0     C42023   9.812   5.950   1.647  1.0237  0.3021  0.1094
  312MOL0     C42024   9.960   5.977   1.687  0.2072  0.0482 -0.5080
  312MOL0     C42025  10.019   6.092   1.604 -0.4507 -0.4544  0.1090
  312MOL0     C42026  10.170   6.106   1.632  0.1079 -0.7858  0.7149
  312MOL0     C42027  10.234   6.210   1.554 -0.1130 -0.2797 -0.4538
  312MOL0     C42028  10.378   6.235   1.606  0.2482  0.5352 -0.9019
  312MOL0    Cl42029  10.489   6.100   1.556  0.2455  0.1454 -0.0942
  312MOL0     C42030   9.327   5.966   1.681 -0.1001 -0.0616 -0.5631
  312MOL0     C42031   9.184   5.954   1.686  0.1893  0.5951  0.0415
  312MOL0     O42032   8.913   5.634   1.538 -0.3195 -0.0042 -0.3594
  312MOL0     C42033   8.649   5.707   1.531  0.3552  0.1649 -0.1790
  312MOL0     C42034   8.511   5.729   1.562 -0.5918 -0.6491 -0.2500
  312MOL0     N42035   7.922   5.973   1.447 -0.0358 -0.8578  0.2161
  312MOL0     N42036   7.814   6.013   1.398 -0.8876  0.1023 -0.1763
  312MOL0     C42037   6.882   6.104   2.160 -0.6491 -0.2705  0.4618
  312MOL0     C42038   6.760   6.133   2.220 -0.1157 -0.2101  0.4763
  312MOL0     C42039   6.326   6.272   2.293 -0.5529  0.8703 -0.1578
  312MOL0     C42040   6.265   6.165   2.364  0.0072 -0.3505  0.4735
  312MOL0     C42041   6.143   6.177   2.420 -0.6036  0.1779 -0.0570
  312MOL0     C42042   6.074   6.296   2.417 -0.0160  0.2725 -0.8671
  312MOL0     O42043   5.954   6.313   2.471  0.5121 -0.5227 -0.9970
  312MOL0     C42044   5.855   6.340   2.369 -0.9595 -0.3751 -0.1059
  312MOL0     C42045   5.724   6.245   2.375 -1.3794 -0.4759 -0.3145
  312MOL0     C42046   5.658   6.234   2.515  0.2096  0.6013  0.0436
  312MOL0     C42047   5.517   6.169   2.506  0.6112 -0.8630  1.1808
  312MOL0     C42048   5.504   6.054   2.417 -0.2361  0.6079  1.2137
  312MOL0     C42049   5.506   5.968   2.330 -0.5691 -0.6426  0.5483
  312MOL0     C42050   6.134   6.400   2.350  0.1087 -0.1871 -0.0942
  312MOL0     C42051   6.256   6.391   2.282  0.3220  0.1905  0.5041
  312MOL0     C42052   6.273   6.513   2.199  0.2149  0.0230 -0.4422
  312MOL0     H42053   6.536   5.988   2.024  1.6112 -1.7127 -0.0883
  312MOL0     H42054   6.737   5.932   1.892 -0.6631  0.8366  0.6418
  312MOL0     H42055   6.905   6.017   1.772 -2.0556 -3.3558  4.0619
  312MOL0     H42056   6.981   6.169   1.823  0.4565  1.0105  2.1983
  312MOL0     H42057   7.200   6.107   1.804 -1.6405  0.4820  2.6073
  312MOL0     H42058   7.110   6.072   1.647  0.6782  1.9069  0.1154
  312MOL0     H42059   7.139   5.840   1.689 -0.3397 -0.3267 -0.0823
  312MOL0     H42060   7.186   5.865   1.857  3.0263 -0.3881  0.4566
  312MOL0     H42061   7.412   5.946   1.788 -1.1692  1.0467  0.3019
  312MOL0     H42062   7.380   5.797   1.706 -0.7698  0.6680 -0.9642
  312MOL0     H42063   7.287   5.961   1.518 -0.4675 -0.9723  1.7052
  312MOL0     H42064   7.403   6.078   1.591  2.0175  0.2185 -0.1701
  312MOL0     H42065   7.574   5.912   1.562 -0.0352  1.1698  0.2476
  312MOL0     H42066   7.459   5.799   1.484 -0.8629  0.3359  0.6717
  312MOL0     H42067   7.515   6.087   1.389  0.0777 -0.0452  0.1009
  312MOL0     H42068   7.413   5.953   1.314 -0.6226 -2.9815  2.6706
  312MOL0     H42069   7.588   5.827   1.234 -0.9265 -0.2528 -0.5979
  312MOL0     H42070   7.635   5.999   1.193  0.7103  1.8098  0.8533
  312MOL0     H42071   7.790   5.687   1.342  3.0285 -0.4480  1.1794
  312MOL0     H42072   8.023   5.651   1.441  0.6521 -0.6900 -0.8272
  312MOL0     H42073   8.127   5.792   1.407  0.0278 -1.3283 -1.0201
  312MOL0     H42074   7.984   5.736   1.679 -0.4051  0.1745  0.7265
  312MOL0     H42075   8.141   5.669   1.648  0.3024  1.2158 -0.9256
  312MOL0     H42076   8.127   5.868   1.793 -0.2004  0.7752 -0.4865
  312MOL0     H42077   8.064   5.956   1.657 -0.7901 -0.3812 -0.5792
  312MOL0     H42078   8.311   6.002   1.661  1.1271 -0.8880 -0.1605
  312MOL0     H42079   8.281   5.875   1.529 -0.9042 -4.0792  0.2785
  312MOL0     H42080   8.530   5.928   1.828  3.6028  2.8241 -0.9617
  312MOL0     H42081   8.777   5.881   1.802 -0.9389  0.2942  1.3090
  312MOL0     H42082   9.148   5.664   1.518 -0.0095  1.5330 -2.9976
  312MOL0     H42083   9.389   5.670   1.521 -0.1841  1.6130 -1.8689
  312MOL0     H42084   9.604   5.672   1.659 -2.5432  0.2365 -1.2012
  312MOL0     H42085   9.641   5.754   1.512 -2.5340 -1.8683  0.1978
  312MOL0     H42086   9.761   5.794   1.789 -0.8686  0.3897 -0.0007
  312MOL0     H42087   9.838   5.740   1.643  1.6190  2.6432 -1.2830
  312MOL0     H42088   9.785   5.988   1.548 -1.0144  0.8497  0.8203
  312MOL0     H42089   9.751   6.014   1.711  1.7783 -0.3709  1.5684
  312MOL0     H42090  10.026   5.894   1.660 -1.2909 -1.0170 -1.0038
  312MOL0     H42091   9.955   5.992   1.795 -2.2692  0.1841 -0.5751
  312MOL0     H42092   9.963   6.182   1.633 -0.7387 -0.3006 -0.8741
  312MOL0     H42093  10.000   6.070   1.498 -3.7798  2.0741 -0.0220
  312MOL0     H42094  10.185   6.133   1.737 -1.4339  1.0202  0.5325
  312MOL0     H42095  10.211   6.007   1.615  0.1042 -0.6887  0.1250
  312MOL0     H42096  10.177   6.303   1.564 -1.4522 -0.9391 -1.5574
  312MOL0     H42097  10.246   6.184   1.448  0.2054  0.3884 -0.5889
  312MOL0     H42098  10.415   6.330   1.565 -0.1376  0.9793 -0.2446
  312MOL0     H42099  10.369   6.228   1.715  0.9507  1.0477 -0.8044
  312MOL0     H42100   9.372   6.054   1.725 -2.3747  1.2756 -0.7551
  312MOL0     H42101   9.134   6.033   1.741  1.1578  0.8630  0.5533
  312MOL0     H42102   8.686   5.663   1.439  0.5556  1.4820 -0.7527
  312MOL0     H42103   8.444   5.674   1.497  3.2451 -2.7152 -2.8492
  312MOL0     H42104   6.972   6.142   2.207  0.4321 -0.6810 -1.2088
  312MOL0     H42105   6.769   6.188   2.314  0.5010  0.4923  0.0142
  312MOL0     H42106   6.298   6.061   2.362  0.9088 -0.0674 -1.1953
  312MOL0     H42107   6.093   6.096   2.471  0.0458  0.2737  0.7532
  312MOL0     H42108   5.897   6.336   2.268  1.2254  0.2918  0.7199
  312MOL0     H42109   5.823   6.443   2.384  1.8987  0.6238 -0.2198
  312MOL0     H42110   5.745   6.156   2.315 -0.4424  0.7892 -1.9310
  312MOL0     H42111   5.646   6.284   2.309 -1.5273 -1.5358 -0.7877
  312MOL0     H42112   5.653   6.328   2.571  3.1383  1.4190 -0.8619
  312MOL0     H42113   5.716   6.165   2.577 -1.9201 -1.5582 -0.2305
  312MOL0     H42114   5.471   6.135   2.599 -0.9549  0.5535  0.9566
  312MOL0     H42115   5.454   6.253   2.476 -1.9470 -2.8335  0.6533
  312MOL0     H42116   5.515   5.894   2.254 -0.7061  2.4703 -2.7625
  312MOL0     H42117   6.067   6.485   2.343 -0.2031 -0.3611  0.6503
  312MOL0     H42118   6.377   6.547   2.189  0.6260 -1.7235 -3.2264
  312MOL0     H42119   6.243   6.488   2.097 -2.0823 -2.6753  0.7537
  312MOL0     H42120   6.203   6.590   2.230 -1.3958 -1.5714  0.0827
  313MOL0     O42121  10.255   4.905  10.967  0.4563  0.3537  0.1038
  313MOL0     C42122  10.162   4.991  10.963 -0.8382  0.6982  0.6518
  313MOL0     O42123  10.172   5.119  10.982  0.3035 -0.0138 -0.3451
  313MOL0     C42124  10.298   5.164  11.008  0.3287 -0.5384 -0.8131
  313MOL0     C42125  10.342   5.195  11.134 -0.6444 -1.0434 -0.6713
  313MOL0     C42126  10.470   5.243  11.159  0.3499  0.2572 -0.7064
  313MOL0     C42127  10.560   5.264  11.057 -0.1839 -0.2863 -0.3390
  313MOL0     O42128  10.693   5.313  11.082  0.7973 -0.8382  0.2883
  313MOL0     C42129  10.749   5.248  11.198 -0.3849 -0.1577 -1.2023
  313MOL0     C42130  10.899   5.223  11.178  0.8857  0.1711  0.0694
  313MOL0     C42131  10.969   5.355  11.168 -0.0941 -0.3874 -0.9130
  313MOL0     C42132  10.995   5.410  11.311  0.2693  1.1124  1.0165
  313MOL0     C42133  11.089   5.532  11.316  0.5114 -0.1654 -0.1783
  313MOL0     C42134  11.008   5.666  11.290 -0.9216  0.7877  0.7095
  313MOL0     C42135  11.072   5.791  11.340 -0.4318  0.4456 -0.3650
  313MOL0     C42136  11.186   5.841  11.247 -1.3188 -0.6941  1.2710
  313MOL0     N42137  11.212   5.986  11.261 -0.5499  0.4203 -0.2059
  313MOL0     C42138  11.290   6.025  11.363  0.2782  0.0394 -0.1798
  313MOL0     C42139  11.253   6.151  11.392  0.2751 -0.0228  0.2061
  313MOL0     C42140  11.321   6.232  11.501 -0.3568  1.0258  0.8393
  313MOL0     C42141  11.466   6.272  11.465 -0.1931  0.1693  0.0822
  313MOL0     C42142  11.555   6.263  11.591  0.4567 -0.3046 -0.5371
  313MOL0     C42143  11.692   6.318  11.569  0.2134 -0.2943  1.2081
  313MOL0     O42144  11.790   6.263  11.660 -0.0649  0.6579 -0.0037
  313MOL0     C42145  11.917   6.316  11.656  0.5373 -0.2583 -0.2795
  313MOL0     C42146  11.960   6.405  11.564 -0.0834 -0.3373 -0.3579
  313MOL0     C42147  12.096   6.443  11.558 -0.5952 -0.3001 -0.3505
  313MOL0     C42148  12.189   6.385  11.648  0.8309  0.5098 -0.1382
  313MOL0     C42149  12.336   6.408  11.631  0.6369  0.6432 -0.3036
  313MOL0     O42150  12.367   6.515  11.548  0.1170 -0.1600  0.0054
  313MOL0     C42151  12.498   6.547  11.528 -0.0147 -0.5186  0.7324
  313MOL0     C42152  12.611   6.518  11.606  0.5835  0.2770  0.0430
  313MOL0     C42153  12.739   6.560  11.572 -0.3303 -0.4049 -0.0786
  313MOL0     C42154  12.749   6.649  11.458 -0.7034 -0.9401 -0.1681
  313MOL0     O42155  12.888   6.688  11.435  0.2194  0.5826 -0.6117
  313MOL0     C42156  12.907   6.783  11.330 -0.6709 -0.0712  0.6285
  313MOL0     C42157  13.051   6.766  11.278 -0.4929  0.9671 -0.1034
  313MOL0     C42158  13.069   6.864  11.158 -1.1230 -0.0782  0.2660
  313MOL0     C42159  13.216   6.874  11.108  0.9624  0.0828  0.2936
  313MOL0     C42160  13.236   7.004  11.020 -0.5676  0.2390 -0.3920
  313MOL0     C42161  13.201   7.131  11.094 -0.2121  0.0357 -0.1876
  313MOL0     C42162  13.231   7.264  11.029 -0.1783 -0.0407  0.2222
  313MOL0     C42163  13.240   7.381  11.126  0.2432 -0.3926 -0.2306
  313MOL0    Cl42164  13.269   7.533  11.019 -0.2472  0.3152 -0.0045
  313MOL0     C42165  12.638   6.689  11.383 -0.3876  0.0786  0.3617
  313MOL0     C42166  12.520   6.627  11.413  0.8399  0.0553 -0.5411
  313MOL0     O42167  12.413   6.338  11.697  0.0323 -0.3086 -0.0940
  313MOL0     C42168  12.136   6.303  11.753 -0.3384 -0.2826 -0.1246
  313MOL0     C42169  12.004   6.271  11.754  0.4747 -0.2434 -0.8725
  313MOL0     N42170  11.166   6.192  11.293  0.6643  0.2468 -0.6649
  313MOL0     N42171  11.132   6.089  11.219 -0.5400 -0.6386 -0.5745
  313MOL0     C42172  10.521   5.243  10.923  0.1043 -0.1157 -0.1480
  313MOL0     C42173  10.391   5.196  10.903 -0.2474 -0.0335  0.5372
  313MOL0     C42174  10.028   4.932  10.932  0.7907  0.3763 -0.1418
  313MOL0     C42175   9.917   5.021  10.933 -0.0139  0.5922  0.5301
  313MOL0     C42176   9.781   4.986  10.896 -0.3279  0.0840 -0.4166
  313MOL0     C42177   9.748   4.850  10.873 -1.5223  0.7568  0.1436
  313MOL0     O42178   9.629   4.797  10.841 -0.2727  0.3156  0.0473
  313MOL0     C42179   9.517   4.880  10.825  0.3362 -0.4710  0.3850
  313MOL0     C42180   9.414   4.819  10.728 -0.1272  0.4775 -0.0483
  313MOL0     C42181   9.297   4.910  10.702  0.3981  0.3002 -0.0723
  313MOL0     C42182   9.199   4.845  10.606  0.2890 -0.1851 -0.4549
  313MOL0     C42183   9.102   4.944  10.567  0.9922 -0.1093 -0.1372
  313MOL0     C42184   9.029   5.039  10.563 -0.5514  0.5668 -0.0260
  313MOL0     C42185   9.860   4.753  10.888  0.2223  0.0353 -0.0856
  313MOL0     C42186   9.992   4.789  10.923  0.9879 -0.5840 -0.0474
  313MOL0     C42187  10.090   4.670  10.943  0.2136 -0.3489  0.3966
  313MOL0     H42188  10.274   5.190  11.218 -0.2461 -0.7471 -0.3308
  313MOL0     H42189  10.500   5.270  11.260 -0.5915 -2.2894  0.3336
  313MOL0     H42190  10.728   5.314  11.283 -0.0776 -1.1269 -0.3582
  313MOL0     H42191  10.703   5.154  11.227  0.6925  0.0479  1.5752
  313MOL0     H42192  10.911   5.157  11.092 -0.4835 -2.8357  2.0013
  313MOL0     H42193  10.942   5.161  11.257 -0.9597 -1.4366 -0.1157
  313MOL0     H42194  10.903   5.424  11.115 -1.0533 -0.8496 -0.3466
  313MOL0     H42195  11.062   5.339  11.112 -0.7515 -3.3099 -1.3659
  313MOL0     H42196  10.894   5.440  11.341 -0.4037  0.4133 -0.4828
  313MOL0     H42197  11.028   5.327  11.375 -1.2405  0.2824  0.7540
  313MOL0     H42198  11.132   5.541  11.416 -0.5283  2.1045  0.1238
  313MOL0     H42199  11.168   5.511  11.243 -0.5857  0.3717 -1.5598
  313MOL0     H42200  10.982   5.674  11.184 -0.5019 -0.3948  0.4994
  313MOL0     H42201  10.909   5.666  11.337  0.1607  0.8901  3.1832
  313MOL0     H42202  11.099   5.778  11.445 -0.0130  2.5031 -0.1721
  313MOL0     H42203  10.988   5.861  11.333 -1.7505 -1.0161  0.2374
  313MOL0     H42204  11.278   5.784  11.262  2.1159  4.3427  1.6931
  313MOL0     H42205  11.154   5.825  11.144 -0.2232  2.1371  0.3800
  313MOL0     H42206  11.362   5.963  11.415  2.2711  1.8448 -0.6706
  313MOL0     H42207  11.259   6.318  11.529  0.5779  1.9215  0.2065
  313MOL0     H42208  11.311   6.171  11.592 -1.6768  0.3137  0.2486
  313MOL0     H42209  11.515   6.213  11.387  2.3133 -0.0189  1.6957
  313MOL0     H42210  11.455   6.373  11.424  2.2932 -0.5692 -2.7223
  313MOL0     H42211  11.559   6.158  11.621 -2.1055  0.2156  1.9383
  313MOL0     H42212  11.500   6.324  11.663 -1.1804  0.3226 -2.2322
  313MOL0     H42213  11.683   6.427  11.572 -0.7017 -0.3465  0.7497
  313MOL0     H42214  11.723   6.295  11.467 -1.2650  0.5423  0.5482
  313MOL0     H42215  11.900   6.445  11.483 -2.0288 -0.3556  1.0323
  313MOL0     H42216  12.120   6.514  11.479 -1.0767  0.3484  0.0735
  313MOL0     H42217  12.610   6.444  11.685 -3.5043 -0.1195 -0.1738
  313MOL0     H42218  12.828   6.525  11.623  1.0619  3.0564  0.1486
  313MOL0     H42219  12.848   6.749  11.245  1.9162 -0.2912 -1.2113
  313MOL0     H42220  12.893   6.888  11.354  6.0012  1.4140  0.1091
  313MOL0     H42221  13.121   6.784  11.360  0.6167 -1.9624 -0.3042
  313MOL0     H42222  13.070   6.666  11.240 -1.8310 -1.1069  4.0106
  313MOL0     H42223  13.009   6.844  11.069 -1.9224  3.1095 -0.0481
  313MOL0     H42224  13.043   6.961  11.203 -1.4358  0.0315 -0.1413
  313MOL0     H42225  13.239   6.788  11.044 -2.2794 -1.5877  1.1468
  313MOL0     H42226  13.274   6.873  11.201  0.7878  4.2682  0.6340
  313MOL0     H42227  13.176   6.996  10.928 -1.4730  0.3163  0.1823
  313MOL0     H42228  13.340   7.003  10.984 -0.9341 -2.3836 -1.6081
  313MOL0     H42229  13.096   7.136  11.126 -1.4748 -2.4434 -3.4248
  313MOL0     H42230  13.260   7.129  11.186  0.7657  3.1983 -0.6269
  313MOL0     H42231  13.143   7.287  10.968 -2.1874 -0.0687  2.8831
  313MOL0     H42232  13.315   7.263  10.959  0.0602  1.2153  0.4652
  313MOL0     H42233  13.150   7.406  11.183 -0.3418  1.3944 -1.8611
  313MOL0     H42234  13.326   7.368  11.193  1.3136  0.6336 -1.3541
  313MOL0     H42235  12.646   6.760  11.301  3.3914 -0.0234  0.4890
  313MOL0     H42236  12.438   6.657  11.349 -1.0714 -2.0014  0.8124
  313MOL0     H42237  12.204   6.251  11.819  0.5001 -0.1182 -0.8397
  313MOL0     H42238  11.963   6.216  11.839 -2.0511  2.1678 -0.3636
  313MOL0     H42239  10.575   5.262  10.831 -1.9825  0.6463 -1.3010
  313MOL0     H42240  10.365   5.182  10.799  1.6725  0.4753 -0.0436
  313MOL0     H42241   9.935   5.127  10.945 -1.5055  1.1813 -1.9384
  313MOL0     H42242   9.716   5.069  10.869 -0.3269  0.0870 -0.4101
  313MOL0     H42243   9.536   4.981  10.787 -0.6474  0.1201  1.3830
  313MOL0     H42244   9.469   4.892  10.923  0.5100 -0.2765  0.4476
  313MOL0     H42245   9.375   4.723  10.763  0.5966  0.5833  1.1006
  313MOL0     H42246   9.473   4.793  10.639  0.5013  0.8732  0.2393
  313MOL0     H42247   9.329   4.999  10.647 -0.5947  0.4319 -0.4521
  313MOL0     H42248   9.250   4.945  10.795  2.0452 -0.6057  1.1665
  313MOL0     H42249   9.251   4.806  10.518  2.4742 -3.7636  2.1707
  313MOL0     H42250   9.159   4.767  10.671  3.6276 -0.4008  1.5465
  313MOL0     H42251   8.981   5.135  10.556  0.8378  1.2750 -0.2214
  313MOL0     H42252   9.833   4.652  10.860 -2.3933  0.4406  0.7144
  313MOL0     H42253  10.155   4.661  10.856 -0.1756 -0.3307  0.1033
  313MOL0     H42254  10.142   4.662  11.039  1.8167 -1.9304 -0.5501
  313MOL0     H42255  10.016   4.590  10.937 -2.5073  1.9483  0.6500
  314MOL0     O42256   9.443  10.585   7.289 -0.2977  0.1915 -0.7400
  314MOL0     C42257   9.421  10.492   7.215 -0.0684 -0.8491  0.0037
  314MOL0     O42258   9.500  10.446   7.111  0.6888  0.1104  0.0189
  314MOL0     C42259   9.611  10.523   7.077 -0.1078 -0.5643  0.0545
  314MOL0     C42260   9.628  10.565   6.944  0.3723  0.0154  0.5476
  314MOL0     C42261   9.758  10.605   6.899 -0.6110  0.2120 -0.2629
  314MOL0     C42262   9.864  10.627   6.992  0.6855  0.1263  0.5929
  314MOL0     O42263   9.986  10.677   6.935  0.0705 -0.8695  0.1846
  314MOL0     C42264  10.074  10.748   7.020 -0.5382 -0.2194  0.3455
  314MOL0     C42265  10.178  10.791   6.922 -0.6582 -0.5197  0.8101
  314MOL0     C42266  10.126  10.885   6.808  0.3321 -0.5778  0.5684
  314MOL0     C42267  10.073  11.021   6.863  0.2862  0.2912  0.3096
  314MOL0     C42268  10.148  11.103   6.973 -0.0053 -0.4734  0.4923
  314MOL0     C42269  10.275  11.173   6.912 -0.2126 -0.1677 -0.2134
  314MOL0     C42270  10.380  11.228   7.012  0.7670 -0.5870  0.5220
  314MOL0     C42271  10.459  11.123   7.095  0.3383  0.4326  0.1868
  314MOL0     N42272  10.540  11.021   7.020  0.1460  0.6756 -0.1543
  314MOL0     C42273  10.535  10.881   7.027 -0.1410  0.4505  0.4804
  314MOL0     C42274  10.625  10.834   6.943  0.2307  0.0494  1.0288
  314MOL0     C42275  10.651  10.691   6.914  0.9263 -0.1816 -0.4549
  314MOL0     C42276  10.733  10.635   7.027 -0.9375 -0.1891 -0.2617
  314MOL0     C42277  10.810  10.502   6.999 -0.0895 -0.9965  0.4246
  314MOL0     C42278  10.948  10.535   6.940  0.1444  0.6495 -0.4513
  314MOL0     O42279  11.036  10.570   7.048  0.2312  0.2000  0.0134
  314MOL0     C42280  11.159  10.624   7.014  0.8490 -1.0092 -0.3504
  314MOL0     C42281  11.218  10.613   6.888  0.5087  0.6702 -0.2082
  314MOL0     C42282  11.327  10.689   6.867 -0.2190  0.2578  0.0215
  314MOL0     C42283  11.401  10.760   6.962 -0.1338 -0.6821  0.1441
  314MOL0     C42284  11.526  10.841   6.932  0.0822  0.0092 -0.2067
  314MOL0     O42285  11.572  10.924   7.040 -0.3743  0.3135  0.1241
  314MOL0     C42286  11.699  10.979   7.038  0.4420  0.0214  0.5901
  314MOL0     C42287  11.809  10.936   6.966  0.2465  0.0637  0.6755
  314MOL0     C42288  11.943  10.969   6.990  1.1364 -0.6867 -1.4198
  314MOL0     C42289  11.966  11.079   7.085 -0.0729  1.0182 -0.7204
  314MOL0     O42290  12.087  11.138   7.089  0.7695 -0.8971 -0.0340
  314MOL0     C42291  12.205  11.048   7.094 -0.1349  0.2626  0.7180
  314MOL0     C42292  12.325  11.122   7.166  0.7346  1.2800  1.0245
  314MOL0     C42293  12.459  11.044   7.167  0.0092 -0.4747  0.1601
  314MOL0     C42294  12.534  11.085   7.297 -0.7186  0.1352  0.1613
  314MOL0     C42295  12.669  11.011   7.298 -0.0463  0.1180 -0.3728
  314MOL0     C42296  12.733  11.010   7.438  0.0156 -0.2048 -0.6647
  314MOL0     C42297  12.870  10.941   7.444 -0.5518 -0.0190  1.0247
  314MOL0     C42298  12.932  10.922   7.584  0.3182  0.0285  0.1409
  314MOL0    Cl42299  12.827  10.786   7.653 -0.2387  0.1697  0.4119
  314MOL0     C42300  11.858  11.134   7.148  0.2463 -0.2422 -0.3970
  314MOL0     C42301  11.728  11.084   7.125 -0.6995  0.5036  0.1961
  314MOL0     O42302  11.574  10.845   6.816 -0.2430  0.2751  0.3565
  314MOL0     C42303  11.341  10.768   7.090 -0.6975 -0.1463  0.4693
  314MOL0     C42304  11.218  10.702   7.111  0.6286  0.8910  0.1205
  314MOL0     N42305  10.683  10.939   6.875 -0.2471 -0.7853 -0.1175
  314MOL0     N42306  10.638  11.057   6.922  0.5321  1.2629 -0.0342
  314MOL0     C42307   9.842  10.599   7.127 -0.3376  0.7524  0.1394
  314MOL0     C42308   9.712  10.547   7.172 -0.9672  0.2555 -0.6954
  314MOL0     C42309   9.289  10.427   7.227  0.4991 -0.4216  0.1324
  314MOL0     C42310   9.263  10.365   7.353 -0.2198  1.3164  0.3899
  314MOL0     C42311   9.139  10.312   7.386  0.1520  0.3441 -0.0940
  314MOL0     C42312   9.032  10.342   7.310 -0.4481  0.7471  1.1718
  314MOL0     O42313   8.914  10.287   7.350  0.7877 -0.1038 -1.0391
  314MOL0     C42314   8.793  10.343   7.293 -0.1973 -0.0861  0.1823
  314MOL0     C42315   8.771  10.499   7.307 -0.4111  0.1764  0.1796
  314MOL0     C42316   8.625  10.534   7.258  0.4306  0.7488 -0.3186
  314MOL0     C42317   8.590  10.683   7.286  0.4292  0.2383  0.6386
  314MOL0     C42318   8.460  10.725   7.230 -0.8652 -1.1016  0.6209
  314MOL0     C42319   8.357  10.767   7.182  0.0197  0.7228  0.9082
  314MOL0     C42320   9.048  10.406   7.182  0.2525  0.1702 -0.3449
  314MOL0     C42321   9.176  10.451   7.141  0.3770  0.5794 -0.5113
  314MOL0     C42322   9.193  10.538   7.015 -0.1233  1.1774  0.0364
  314MOL0     H42323   9.544  10.556   6.876  0.9582 -1.4625 -0.0217
  314MOL0     H42324   9.774  10.634   6.796  1.4204 -1.3603 -0.4722
  314MOL0     H42325  10.028  10.832   7.074  1.7745  1.1787  0.2488
  314MOL0     H42326  10.125  10.679   7.087  1.8124 -0.5723 -1.6559
  314MOL0     H42327  10.225  10.700   6.883 -1.8066 -1.1232  0.7867
  314MOL0     H42328  10.259  10.841   6.977  0.5567 -0.6181 -0.8362
  314MOL0     H42329  10.045  10.843   6.748 -0.5412  0.4753  0.9664
  314MOL0     H42330  10.217  10.895   6.748  0.2854 -2.5849  0.1062
  314MOL0     H42331  10.053  11.091   6.781  0.7209 -0.7661 -0.7289
  314MOL0     H42332   9.978  10.988   6.906 -1.4918  3.2356 -1.0190
  314MOL0     H42333  10.080  11.185   6.997 -1.7099 -1.2952 -1.2629
  314MOL0     H42334  10.171  11.030   7.052  2.4409  1.7539  1.9940
  314MOL0     H42335  10.330  11.112   6.839 -2.9332  1.0687 -3.5638
  314MOL0     H42336  10.235  11.251   6.847  0.1267 -1.4172 -2.0332
  314MOL0     H42337  10.330  11.301   7.077  1.8519 -0.2239  0.9729
  314MOL0     H42338  10.449  11.281   6.946 -2.0850  0.7830 -1.5983
  314MOL0     H42339  10.528  11.182   7.156  2.4719  1.1236 -2.6900
  314MOL0     H42340  10.383  11.072   7.156 -1.7371  1.8238 -1.1141
  314MOL0     H42341  10.486  10.808   7.092  1.4156 -1.9511 -0.9048
  314MOL0     H42342  10.564  10.632   6.883  3.0775 -2.5209 -2.5882
  314MOL0     H42343  10.712  10.696   6.822  0.2037  1.8948 -0.8788
  314MOL0     H42344  10.799  10.719   7.049  0.1567 -0.9553 -0.5049
  314MOL0     H42345  10.672  10.625   7.117 -0.9496  1.1382 -0.1065
  314MOL0     H42346  10.742  10.447   6.934 -0.3470  0.1329 -0.2937
  314MOL0     H42347  10.817  10.436   7.086 -3.4480  0.2285  1.7792
  314MOL0     H42348  10.939  10.620   6.872  0.3241  0.2066 -1.0369
  314MOL0     H42349  10.977  10.449   6.880 -2.9498 -1.1855  0.4100
  314MOL0     H42350  11.168  10.559   6.810  0.6068 -0.0992  0.2502
  314MOL0     H42351  11.378  10.669   6.773 -2.1924 -2.8007 -0.5464
  314MOL0     H42352  11.795  10.848   6.904 -3.1706  0.2386  0.9799
  314MOL0     H42353  12.024  10.914   6.943  1.7185 -0.0945 -1.1335
  314MOL0     H42354  12.179  10.964   7.158 -0.0394 -0.9349 -0.7524
  314MOL0     H42355  12.233  11.010   6.995 -1.5951 -1.5331  0.9584
  314MOL0     H42356  12.352  11.207   7.103 -2.3865  0.9779 -0.9422
  314MOL0     H42357  12.309  11.168   7.263 -0.6548  1.8176  0.5640
  314MOL0     H42358  12.440  10.936   7.173  1.1781 -0.6943  0.1051
  314MOL0     H42359  12.513  11.057   7.073 -1.3600 -2.6412 -1.0220
  314MOL0     H42360  12.476  11.043   7.380 -0.2146 -3.4696 -1.1446
  314MOL0     H42361  12.538  11.194   7.293  0.2668  0.0696 -1.1262
  314MOL0     H42362  12.743  11.063   7.237  2.0634 -0.2299  1.7445
  314MOL0     H42363  12.660  10.913   7.250 -0.5144 -0.0855  0.1164
  314MOL0     H42364  12.737  11.112   7.477  1.6504 -0.3674 -0.3366
  314MOL0     H42365  12.667  10.953   7.503  1.3633 -0.1350  0.8283
  314MOL0     H42366  12.945  10.994   7.386  3.2979  1.8494  6.7806
  314MOL0     H42367  12.844  10.843   7.404  1.1125 -0.9683  2.1442
  314MOL0     H42368  13.037  10.894   7.582  1.0813  2.5979  0.8041
  314MOL0     H42369  12.926  11.017   7.638 -0.4800  0.9216 -1.4288
  314MOL0     H42370  11.883  11.228   7.195  3.6082  0.3809 -3.0443
  314MOL0     H42371  11.655  11.134   7.187  1.1614  2.1626  1.1750
  314MOL0     H42372  11.386  10.816   7.176 -0.5350  0.8556 -0.1511
  314MOL0     H42373  11.156  10.720   7.198 -0.0119  0.1326 -0.1566
  314MOL0     H42374   9.920  10.610   7.203  1.0898  0.2834 -1.1936
  314MOL0     H42375   9.712  10.516   7.276  4.6534 -0.5282 -0.5986
  314MOL0     H42376   9.345  10.338   7.418 -1.7774 -2.0539  1.1890
  314MOL0     H42377   9.131  10.246   7.472  0.1149 -1.8049 -1.6841
  314MOL0     H42378   8.705  10.297   7.340  0.0838 -2.3423 -1.3092
  314MOL0     H42379   8.792  10.319   7.186  1.9129 -0.5101  0.2079
  314MOL0     H42380   8.836  10.557   7.242  0.1935  0.1208  0.7282
  314MOL0     H42381   8.789  10.526   7.412  2.0101  1.2516 -0.4613
  314MOL0     H42382   8.561  10.467   7.316 -1.6001  0.4580 -2.7210
  314MOL0     H42383   8.612  10.502   7.155  0.5983  1.2017 -0.4829
  314MOL0     H42384   8.575  10.701   7.393 -1.1308  4.5853 -0.1340
  314MOL0     H42385   8.672  10.746   7.250  0.5518  0.0251  0.5429
  314MOL0     H42386   8.261  10.803   7.151  1.0465  1.1924 -2.0195
  314MOL0     H42387   8.971  10.416   7.107 -0.4242  1.5744  0.5052
  314MOL0     H42388   9.174  10.473   6.930  0.4618 -0.0321  0.8030
  314MOL0     H42389   9.127  10.625   7.017 -1.0613  0.4929 -0.4229
  314MOL0     H42390   9.296  10.575   7.009  0.5195 -0.4612  0.4968
  315MOL0     O42391   2.513   6.042   7.469  0.7317 -0.5595  0.4168
  315MOL0     C42392   2.467   6.028   7.349  0.4829  0.3144 -0.3980
  315MOL0     O42393   2.543   6.021   7.237 -0.9132  0.3329  0.1362
  315MOL0     C42394   2.661   6.095   7.247 -0.2655  0.0782 -0.0776
  315MOL0     C42395   2.787   6.033   7.232  0.5905 -0.7420 -0.5024
  315MOL0     C42396   2.907   6.103   7.252  0.4780  0.1571  0.4852
  315MOL0     C42397   2.901   6.240   7.275  0.2003 -0.5455  0.6542
  315MOL0     O42398   3.026   6.304   7.301  0.0609  0.5774 -0.3548
  315MOL0     C42399   3.035   6.443   7.253  0.0662  1.3087  0.1211
  315MOL0     C42400   3.182   6.487   7.236 -0.2613 -0.9464  0.2881
  315MOL0     C42401   3.257   6.388   7.146 -0.0454 -0.1373  0.4524
  315MOL0     C42402   3.377   6.452   7.077 -0.3379 -0.3292  0.3514
  315MOL0     C42403   3.481   6.342   7.040 -0.1327  0.3564  1.2775
  315MOL0     C42404   3.618   6.402   6.977 -0.8262 -0.3113 -0.3582
  315MOL0     C42405   3.738   6.310   6.952  0.0612 -0.0418  0.2897
  315MOL0     C42406   3.692   6.207   6.846  0.4067 -0.0021 -0.1832
  315MOL0     N42407   3.796   6.146   6.773  0.6418 -0.1898  0.5400
  315MOL0     C42408   3.856   6.027   6.815 -0.3568 -0.9361 -0.0868
  315MOL0     C42409   3.965   6.014   6.726 -0.8048  0.1347  0.6578
  315MOL0     C42410   4.080   5.912   6.719 -0.3354  0.1887 -0.8842
  315MOL0     C42411   4.178   5.953   6.828 -0.5528  0.4713 -0.0874
  315MOL0     C42412   4.243   5.828   6.883  0.1514 -0.0504 -0.4922
  315MOL0     C42413   4.335   5.867   7.001  0.4385  0.2759  0.4528
  315MOL0     O42414   4.403   5.741   7.038  0.1199  0.1103  0.6147
  315MOL0     C42415   4.534   5.733   7.071 -0.2511  0.6905 -0.2452
  315MOL0     C42416   4.583   5.598   7.101  0.0062 -0.5276  0.6732
  315MOL0     C42417   4.722   5.582   7.130 -0.2117 -0.7673  0.0449
  315MOL0     C42418   4.807   5.691   7.155 -0.7142 -0.6103  0.3208
  315MOL0     C42419   4.953   5.673   7.193  0.1091  0.2967 -0.0042
  315MOL0     O42420   5.036   5.778   7.181 -0.4133  0.3265  0.0336
  315MOL0     C42421   5.179   5.777   7.205 -0.2582 -0.8540  0.5665
  315MOL0     C42422   5.262   5.869   7.133  0.8435 -0.5098 -0.3232
  315MOL0     C42423   5.394   5.869   7.141  0.2319 -0.1744  0.0105
  315MOL0     C42424   5.455   5.780   7.227  0.0464  0.1637 -0.2988
  315MOL0     O42425   5.594   5.791   7.243 -0.0510  0.2901  0.2570
  315MOL0     C42426   5.661   5.717   7.344  0.0969  0.4731  0.3399
  315MOL0     C42427   5.808   5.743   7.323 -0.4001 -0.5964  0.1956
  315MOL0     C42428   5.862   5.628   7.403 -0.6809 -0.7047  0.3244
  315MOL0     C42429   6.011   5.655   7.438  0.5106 -0.5974  0.5257
  315MOL0     C42430   6.101   5.649   7.312  0.0276  0.1788 -0.0747
  315MOL0     C42431   6.255   5.665   7.350 -0.3384  0.9312  0.2016
  315MOL0     C42432   6.303   5.801   7.389 -0.0631  0.1830 -0.3944
  315MOL0     C42433   6.272   5.907   7.287  0.7781  0.1331 -0.1213
  315MOL0    Cl42434   6.344   6.055   7.339  0.1252 -0.0106 -0.2893
  315MOL0     C42435   5.382   5.690   7.306  0.4668 -0.0277 -0.3350
  315MOL0     C42436   5.241   5.689   7.292 -0.3079  0.6656 -0.6872
  315MOL0     O42437   4.989   5.559   7.217  0.4317 -0.3910 -0.3992
  315MOL0     C42438   4.749   5.815   7.142 -0.1365  0.7096 -0.3919
  315MOL0     C42439   4.616   5.840   7.101 -0.5374 -0.3626  0.8721
  315MOL0     N42440   3.975   6.134   6.655 -0.5642  0.4221  0.0630
  315MOL0     N42441   3.869   6.210   6.680  0.2939 -0.2900 -0.2731
  315MOL0     C42442   2.778   6.306   7.302 -0.4383 -0.5581  0.4393
  315MOL0     C42443   2.658   6.235   7.287  0.1593  1.0736 -0.1946
  315MOL0     C42444   2.322   6.023   7.326 -0.2227 -1.1505 -0.3862
  315MOL0     C42445   2.269   6.021   7.193 -0.5344 -0.9955 -0.7956
  315MOL0     C42446   2.132   6.030   7.171  0.1305  0.5955 -0.2192
  315MOL0     C42447   2.038   6.037   7.271  0.0075  0.0894 -0.1004
  315MOL0     O42448   1.905   6.047   7.239  0.6422  0.1820 -0.2288
  315MOL0     C42449   1.805   6.023   7.339 -0.3713 -0.6877  0.0476
  315MOL0     C42450   1.782   6.149   7.425  0.5310  0.0397 -1.8201
  315MOL0     C42451   1.771   6.279   7.347  0.5220  0.8883  0.2597
  315MOL0     C42452   1.681   6.382   7.416  0.5557  0.5361  0.2609
  315MOL0     C42453   1.544   6.348   7.383 -0.1571  0.6080 -0.7115
  315MOL0     C42454   1.431   6.327   7.342  0.1419 -0.0230 -0.2622
  315MOL0     C42455   2.088   6.029   7.401 -0.6074 -0.3641 -0.3789
  315MOL0     C42456   2.223   6.035   7.429 -0.5302  0.8905 -0.4188
  315MOL0     C42457   2.257   6.061   7.576 -0.3032 -0.4189  0.0287
  315MOL0     H42458   2.788   5.927   7.212  1.9677 -0.7090 -0.7052
  315MOL0     H42459   3.009   6.068   7.240  0.9686  1.5438  0.3491
  315MOL0     H42460   2.972   6.443   7.164 -0.4909 -1.9897  0.3728
  315MOL0     H42461   2.994   6.521   7.318  1.5768  2.0284  0.2723
  315MOL0     H42462   3.248   6.495   7.323  2.6788  0.7414 -1.8943
  315MOL0     H42463   3.176   6.585   7.188 -2.1364 -1.8975 -1.5599
  315MOL0     H42464   3.197   6.355   7.061  2.5656 -0.6083 -1.3565
  315MOL0     H42465   3.272   6.307   7.218 -1.5595 -1.4188 -0.5940
  315MOL0     H42466   3.351   6.511   6.989 -0.6051  0.1912  0.7685
  315MOL0     H42467   3.432   6.512   7.150  0.6961 -0.8442  0.0138
  315MOL0     H42468   3.508   6.291   7.133  2.3332 -1.2779 -0.1858
  315MOL0     H42469   3.430   6.270   6.976 -2.2875  0.1407  3.1395
  315MOL0     H42470   3.587   6.443   6.881  0.8870  2.8204  0.2756
  315MOL0     H42471   3.651   6.480   7.046 -2.3506 -1.7781  2.2146
  315MOL0     H42472   3.779   6.268   7.045  0.2799 -0.6035 -0.0582
  315MOL0     H42473   3.818   6.367   6.903 -0.7454 -0.9517 -2.2276
  315MOL0     H42474   3.619   6.131   6.876 -0.2213  1.3558  1.9421
  315MOL0     H42475   3.638   6.258   6.766 -0.3790  0.7594  0.8078
  315MOL0     H42476   3.840   5.953   6.893  1.8338 -1.6567 -0.2539
  315MOL0     H42477   4.038   5.817   6.754  0.4840  0.1116 -0.0756
  315MOL0     H42478   4.129   5.914   6.622  2.5000 -1.0785  0.3982
  315MOL0     H42479   4.257   6.007   6.774  1.5042  0.0987  2.3779
  315MOL0     H42480   4.141   6.009   6.914  0.5674 -2.3041  2.3632
  315MOL0     H42481   4.300   5.779   6.804  0.6920 -1.5510  0.7565
  315MOL0     H42482   4.167   5.758   6.920  0.6164  0.1367  0.8773
  315MOL0     H42483   4.276   5.890   7.090 -0.8046  2.1393 -0.7852
  315MOL0     H42484   4.402   5.950   6.979 -0.0851  0.4437 -0.5657
  315MOL0     H42485   4.520   5.511   7.090 -0.3197 -0.5572  2.4763
  315MOL0     H42486   4.761   5.480   7.134  2.1156 -0.0741 -2.2747
  315MOL0     H42487   5.208   5.927   7.058 -2.1207  0.3219  2.1940
  315MOL0     H42488   5.462   5.932   7.084 -1.4674  0.0966 -1.8329
  315MOL0     H42489   5.610   5.730   7.440 -0.3868 -0.7781  0.2754
  315MOL0     H42490   5.642   5.611   7.323  0.6022  0.4408  0.0530
  315MOL0     H42491   5.841   5.736   7.219  0.0093 -1.7163  0.3886
  315MOL0     H42492   5.840   5.843   7.354 -1.6787 -0.0952 -0.0536
  315MOL0     H42493   5.810   5.603   7.496  1.5770 -1.4703  1.4681
  315MOL0     H42494   5.857   5.534   7.348 -1.4585 -1.3572  1.4578
  315MOL0     H42495   6.039   5.579   7.512  1.4121 -3.5818 -2.5722
  315MOL0     H42496   6.025   5.752   7.487 -0.9319  2.1411 -3.8804
  315MOL0     H42497   6.072   5.730   7.245  0.3625 -0.8216 -1.4721
  315MOL0     H42498   6.086   5.559   7.252  0.8697  2.0756 -3.4118
  315MOL0     H42499   6.282   5.583   7.418  0.6524 -1.2999 -2.6278
  315MOL0     H42500   6.309   5.640   7.258 -3.0065  0.3311 -1.3091
  315MOL0     H42501   6.410   5.811   7.409  0.0178 -0.5190 -0.4686
  315MOL0     H42502   6.242   5.827   7.476  0.6984  0.1946  0.1465
  315MOL0     H42503   6.311   5.871   7.191 -2.3392 -1.0446 -1.0831
  315MOL0     H42504   6.164   5.903   7.268  0.7576 -0.0648  0.0358
  315MOL0     H42505   5.420   5.631   7.389 -3.4659 -0.3778  1.4682
  315MOL0     H42506   5.172   5.633   7.354 -0.6991 -0.8443 -2.3918
  315MOL0     H42507   4.812   5.898   7.174 -0.9833  0.8912  0.9185
  315MOL0     H42508   4.565   5.935   7.093  0.2461 -0.0977 -3.5036
  315MOL0     H42509   2.766   6.409   7.336 -2.3071 -0.8274  0.7326
  315MOL0     H42510   2.566   6.287   7.313 -0.5935  0.3110 -1.2324
  315MOL0     H42511   2.335   6.002   7.109  1.9537 -1.6964  1.1765
  315MOL0     H42512   2.096   6.016   7.069 -1.0269  2.3112 -0.0966
  315MOL0     H42513   1.842   5.947   7.408  0.9375 -0.0286  0.1185
  315MOL0     H42514   1.721   5.981   7.283  0.7435 -1.7095 -0.9294
  315MOL0     H42515   1.863   6.156   7.498 -2.5396 -1.7722  2.1712
  315MOL0     H42516   1.693   6.139   7.488  1.4337  1.7365 -0.1808
  315MOL0     H42517   1.722   6.249   7.254 -0.4728  0.1872  0.9893
  315MOL0     H42518   1.871   6.322   7.335  0.0359  1.6766 -1.1229
  315MOL0     H42519   1.693   6.386   7.525 -0.4739  1.2069  0.3646
  315MOL0     H42520   1.698   6.484   7.380  1.3439  1.2562  2.4590
  315MOL0     H42521   1.336   6.307   7.298 -1.2897  2.7438  1.2924
  315MOL0     H42522   2.024   6.014   7.488  0.6586  0.4583  0.7373
  315MOL0     H42523   2.165   6.076   7.634 -0.7098 -1.1087 -0.4150
  315MOL0     H42524   2.322   5.987   7.624 -2.3458 -0.7457  2.4912
  315MOL0     H42525   2.312   6.155   7.572 -1.2386  0.1027 -1.2151
  316MOL0     O42526   8.139   3.262   8.591  0.7910 -0.2843  0.1227
  316MOL0     C42527   8.086   3.369   8.551  0.4513 -0.9152  0.6846
  316MOL0     O42528   8.152   3.488   8.528 -0.3236 -0.2083 -0.0627
  316MOL0     C42529   8.283   3.484   8.576  0.3303 -0.4970 -0.1604
  316MOL0     C42530   8.400   3.464   8.501  0.3617  0.1545 -0.0465
  316MOL0     C42531   8.531   3.493   8.552  0.1295  0.2967  1.1584
  316MOL0     C42532   8.540   3.532   8.686  0.7235  0.4839 -0.4567
  316MOL0     O42533   8.657   3.567   8.753 -0.6143 -0.4481  0.5243
  316MOL0     C42534   8.786   3.539   8.687  0.7675  0.4348 -0.1624
  316MOL0     C42535   8.896   3.609   8.771 -0.6062  0.4948  0.1024
  316MOL0     C42536   9.031   3.558   8.734 -0.3978  1.2565 -0.2928
  316MOL0     C42537   9.152   3.633   8.797 -0.5261  0.0167 -0.3623
  316MOL0     C42538   9.285   3.575   8.728 -0.6011 -0.5936  0.2223
  316MOL0     C42539   9.407   3.636   8.805  0.2168 -0.5172 -0.1254
  316MOL0     C42540   9.525   3.586   8.729 -1.0273 -0.0892  0.1626
  316MOL0     C42541   9.648   3.669   8.777  0.2302  1.1939 -0.7929
  316MOL0     N42542   9.646   3.806   8.725  0.0010  0.1345 -0.3248
  316MOL0     C42543   9.642   3.856   8.598 -0.0407  0.7428 -0.3717
  316MOL0     C42544   9.622   3.990   8.618 -0.7344 -0.2254  0.0591
  316MOL0     C42545   9.592   4.088   8.508  0.1765 -0.0238  0.5745
  316MOL0     C42546   9.722   4.145   8.472  0.1459 -1.1170  0.0607
  316MOL0     C42547   9.706   4.277   8.396 -0.2414 -0.1517  0.0256
  316MOL0     C42548   9.829   4.304   8.303  0.5185  0.7828 -0.7131
  316MOL0     O42549   9.943   4.327   8.390 -1.1160  0.2910 -0.3063
  316MOL0     C42550  10.064   4.332   8.328 -0.9443  0.1344  0.0660
  316MOL0     C42551  10.098   4.318   8.189 -0.0866  0.3338  0.7150
  316MOL0     C42552  10.226   4.348   8.148 -0.2287 -0.3007  0.9224
  316MOL0     C42553  10.331   4.389   8.225 -0.4047  0.7861 -0.2120
  316MOL0     C42554  10.468   4.429   8.177  0.7376  0.5090 -0.2244
  316MOL0     O42555  10.554   4.470   8.264 -0.3099 -0.1403  0.3089
  316MOL0     C42556  10.671   4.530   8.218 -0.3746  0.6628 -0.3123
  316MOL0     C42557  10.788   4.472   8.260  0.5228 -1.5266  0.0302
  316MOL0     C42558  10.911   4.544   8.259  0.1844 -0.0031 -1.4369
  316MOL0     C42559  10.918   4.665   8.195 -0.2032 -1.0092 -0.4459
  316MOL0     O42560  11.033   4.738   8.172 -0.4522  0.0684  0.8459
  316MOL0     C42561  11.144   4.726   8.259  0.2999  0.3052  0.1017
  316MOL0     C42562  11.261   4.802   8.200 -0.3057  1.2689 -0.3909
  316MOL0     C42563  11.391   4.758   8.287 -0.2683  0.1481 -0.4844
  316MOL0     C42564  11.499   4.865   8.271  0.1680 -0.2102 -0.1586
  316MOL0     C42565  11.621   4.812   8.346 -0.3764 -0.2655 -1.0482
  316MOL0     C42566  11.732   4.918   8.344 -0.4328 -0.4108 -0.6029
  316MOL0     C42567  11.859   4.859   8.390 -0.9489 -1.0869 -0.8667
  316MOL0     C42568  11.960   4.971   8.376 -0.0046  0.3131  0.2993
  316MOL0    Cl42569  12.125   4.919   8.441 -0.1460  0.2651  0.1380
  316MOL0     C42570  10.802   4.719   8.137 -0.0239  0.4162 -1.5427
  316MOL0     C42571  10.676   4.658   8.167 -0.9286 -0.2733  0.2661
  316MOL0     O42572  10.486   4.424   8.059  0.5061  0.1819  0.3634
  316MOL0     C42573  10.299   4.390   8.360 -0.6360  0.1871 -0.5758
  316MOL0     C42574  10.171   4.344   8.416 -0.3594 -0.7520  0.5122
  316MOL0     N42575   9.628   4.021   8.746 -0.0219 -0.2097 -0.3720
  316MOL0     N42576   9.632   3.913   8.811  0.7372 -0.7720 -0.0779
  316MOL0     C42577   8.419   3.531   8.764 -0.3811 -0.5138  0.3351
  316MOL0     C42578   8.291   3.514   8.710  0.4291 -0.6300 -0.5519
  316MOL0     C42579   7.943   3.374   8.522  0.3359 -0.1225 -0.5475
  316MOL0     C42580   7.888   3.492   8.464  0.1288  0.3973  0.4585
  316MOL0     C42581   7.750   3.494   8.414  0.4948  0.4263  0.1174
  316MOL0     C42582   7.671   3.383   8.436  0.0313  0.0553  0.9439
  316MOL0     O42583   7.541   3.371   8.401 -0.3581 -0.4347  0.1007
  316MOL0     C42584   7.468   3.474   8.332 -0.8027 -0.3306 -0.7526
  316MOL0     C42585   7.414   3.584   8.423  0.4946  0.7914  0.3715
  316MOL0     C42586   7.316   3.656   8.334 -0.4906  0.0128  0.4800
  316MOL0     C42587   7.275   3.791   8.404 -0.4551  0.6111  0.4662
  316MOL0     C42588   7.193   3.770   8.523  0.8178  0.1249  0.7727
  316MOL0     C42589   7.138   3.749   8.631  0.6078 -1.0866 -0.5540
  316MOL0     C42590   7.725   3.276   8.501 -0.2711 -0.8538 -1.0014
  316MOL0     C42591   7.858   3.261   8.534  0.1409  0.2684  0.4908
  316MOL0     C42592   7.892   3.125   8.580  0.9354 -0.1193 -0.0991
  316MOL0     H42593   8.402   3.452   8.393 -0.0399 -0.7053  0.0327
  316MOL0     H42594   8.613   3.478   8.481 -0.6623 -0.6076  0.4015
  316MOL0     H42595   8.803   3.431   8.690  1.0820  0.4582 -1.0855
  316MOL0     H42596   8.807   3.582   8.589  4.0007 -2.5616 -0.9997
  316MOL0     H42597   8.865   3.584   8.873 -2.4552  0.3243 -0.4578
  316MOL0     H42598   8.879   3.716   8.757 -1.8193  0.1858 -1.1033
  316MOL0     H42599   9.040   3.560   8.625  1.0194 -0.5402 -0.2643
  316MOL0     H42600   9.044   3.452   8.761 -0.9115  0.9552 -1.1876
  316MOL0     H42601   9.151   3.741   8.783  3.0505  0.9869  4.3303
  316MOL0     H42602   9.158   3.620   8.906  2.6881 -0.0862 -0.4449
  316MOL0     H42603   9.290   3.467   8.748 -0.6510 -0.6203  0.0875
  316MOL0     H42604   9.277   3.592   8.621 -3.3260 -1.2484  0.2457
  316MOL0     H42605   9.398   3.745   8.803 -4.1549 -0.6890  0.1783
  316MOL0     H42606   9.391   3.598   8.906 -0.3142  0.0542  0.0117
  316MOL0     H42607   9.512   3.596   8.620  1.9015 -0.5102 -0.2900
  316MOL0     H42608   9.551   3.482   8.746  0.0227  0.0967 -0.2360
  316MOL0     H42609   9.645   3.672   8.886  1.0137 -0.3582 -0.6949
  316MOL0     H42610   9.743   3.625   8.743 -0.4410  0.7179 -2.1470
  316MOL0     H42611   9.622   3.797   8.508  1.0103  0.6727 -0.5693
  316MOL0     H42612   9.544   4.041   8.422 -1.0799 -2.0975  2.3128
  316MOL0     H42613   9.524   4.166   8.544  1.5375  1.7244 -0.4420
  316MOL0     H42614   9.780   4.169   8.561 -2.1382  2.8775  0.7595
  316MOL0     H42615   9.784   4.080   8.410  1.2808 -0.8978  0.9391
  316MOL0     H42616   9.694   4.364   8.461  2.0424 -0.6761  1.2825
  316MOL0     H42617   9.622   4.279   8.327  0.1126  2.4658 -0.4345
  316MOL0     H42618   9.820   4.397   8.246  0.4196  0.4644 -1.2199
  316MOL0     H42619   9.845   4.220   8.235 -0.8974 -1.6913  1.7659
  316MOL0     H42620  10.039   4.289   8.103  0.6563  1.2303 -0.1148
  316MOL0     H42621  10.246   4.351   8.041 -2.2002  1.0949  0.5575
  316MOL0     H42622  10.786   4.379   8.315  0.5450 -1.3109  0.3942
  316MOL0     H42623  10.999   4.496   8.302 -1.3625 -1.7599 -0.1024
  316MOL0     H42624  11.113   4.752   8.361 -5.0291  1.3416 -1.4568
  316MOL0     H42625  11.179   4.624   8.276 -1.2218 -0.0190  1.5283
  316MOL0     H42626  11.268   4.769   8.096 -3.2135 -0.0439 -0.2731
  316MOL0     H42627  11.237   4.909   8.208  2.6329  1.9729  0.1515
  316MOL0     H42628  11.364   4.761   8.393  0.3438  3.0054 -0.3017
  316MOL0     H42629  11.431   4.660   8.260 -0.2925 -0.5860  1.9330
  316MOL0     H42630  11.460   4.964   8.295  1.0054 -0.2596  1.4967
  316MOL0     H42631  11.536   4.862   8.168  1.2699  0.8036  0.1849
  316MOL0     H42632  11.651   4.714   8.309  1.0593 -0.6579  1.0066
  316MOL0     H42633  11.595   4.791   8.450  1.2110 -1.9827 -0.9453
  316MOL0     H42634  11.744   4.936   8.236 -0.7809 -1.4020 -0.8220
  316MOL0     H42635  11.694   5.005   8.398 -1.3471 -0.6542 -0.8313
  316MOL0     H42636  11.894   4.774   8.331  1.7500 -0.8511  0.2757
  316MOL0     H42637  11.838   4.839   8.495 -2.8260  0.2009 -0.9395
  316MOL0     H42638  11.982   4.997   8.272  2.5021 -1.9647  0.1463
  316MOL0     H42639  11.927   5.058   8.432  2.5720  0.9080  1.0584
  316MOL0     H42640  10.819   4.812   8.084 -0.0452 -0.6799 -3.6028
  316MOL0     H42641  10.585   4.712   8.140  0.0769  0.6642 -1.3835
  316MOL0     H42642  10.384   4.403   8.426 -0.6618  1.2522 -0.7290
  316MOL0     H42643  10.143   4.354   8.521 -0.1233  3.6663  0.3142
  316MOL0     H42644   8.438   3.534   8.871 -1.8380 -1.5243  0.6470
  316MOL0     H42645   8.200   3.518   8.768  0.1406 -3.0665 -0.7238
  316MOL0     H42646   7.946   3.578   8.431  0.1770 -0.0068 -0.5280
  316MOL0     H42647   7.710   3.589   8.379  0.5572  0.6183  0.5544
  316MOL0     H42648   7.390   3.410   8.288  0.6971 -2.5684 -0.3103
  316MOL0     H42649   7.526   3.520   8.251  0.6573 -0.0079  0.4446
  316MOL0     H42650   7.504   3.634   8.460  0.6655  0.0078  1.0447
  316MOL0     H42651   7.369   3.530   8.506 -1.1852 -0.7043 -1.4147
  316MOL0     H42652   7.229   3.593   8.316  1.2009 -2.7516  1.3480
  316MOL0     H42653   7.367   3.686   8.242 -2.6203  1.7682 -0.2206
  316MOL0     H42654   7.357   3.858   8.432  2.1693 -3.0931  2.4763
  316MOL0     H42655   7.217   3.849   8.331 -1.2355 -2.0124 -1.1251
  316MOL0     H42656   7.089   3.724   8.723 -3.4363 -3.2276 -2.9863
  316MOL0     H42657   7.662   3.188   8.496 -1.8159  0.2034 -0.9124
  316MOL0     H42658   7.971   3.129   8.656  0.0997 -1.6860  0.9178
  316MOL0     H42659   7.809   3.087   8.642  0.6462  0.9689  0.2021
  316MOL0     H42660   7.931   3.060   8.502  1.3863 -1.5789  1.2850
  317MOL0     O42661  10.046   4.140   6.459  0.4006 -0.2748  0.2221
  317MOL0     C42662  10.042   4.141   6.334  0.0434 -0.1999  0.1765
  317MOL0     O42663  10.148   4.173   6.255  0.5233  0.7604 -0.2915
  317MOL0     C42664  10.272   4.171   6.305  0.2512 -0.5990  0.1634
  317MOL0     C42665  10.332   4.060   6.356 -0.6734 -0.1356  0.8929
  317MOL0     C42666  10.464   4.062   6.397 -0.1930  0.2222 -0.7912
  317MOL0     C42667  10.547   4.161   6.373 -0.9812  0.4751  0.6143
  317MOL0     O42668  10.678   4.137   6.370  0.4636 -0.4414  0.1361
  317MOL0     C42669  10.763   4.249   6.384  0.4541 -1.2821  0.3630
  317MOL0     C42670  10.890   4.211   6.444 -0.4402  0.7519 -0.3984
  317MOL0     C42671  10.982   4.329   6.480 -0.3583 -0.6282  0.2929
  317MOL0     C42672  11.104   4.290   6.566  0.1539  0.1377  0.0324
  317MOL0     C42673  11.222   4.386   6.583 -0.0103  0.2428 -0.7028
  317MOL0     C42674  11.324   4.370   6.469  0.0095 -1.1610 -0.6412
  317MOL0     C42675  11.395   4.237   6.474 -0.6477  0.8911 -0.0874
  317MOL0     C42676  11.520   4.231   6.388 -0.6606  0.9448  0.5512
  317MOL0     N42677  11.621   4.335   6.390  0.6615 -0.9204  0.2701
  317MOL0     C42678  11.619   4.454   6.312 -0.6942 -0.0395  0.0212
  317MOL0     C42679  11.735   4.517   6.342  0.4813 -0.1995 -0.1033
  317MOL0     C42680  11.783   4.641   6.274 -0.5174  0.6431  0.3644
  317MOL0     C42681  11.930   4.620   6.247  0.5466 -0.1698  1.2058
  317MOL0     C42682  11.992   4.750   6.191 -0.6910  0.3337  0.3023
  317MOL0     C42683  12.132   4.718   6.147 -0.0196 -0.2645  0.1053
  317MOL0     O42684  12.199   4.707   6.264  0.1639  0.0850 -0.3497
  317MOL0     C42685  12.336   4.718   6.256 -0.3318 -0.4857 -0.3949
  317MOL0     C42686  12.412   4.699   6.135 -0.0639 -0.8551 -0.6529
  317MOL0     C42687  12.548   4.721   6.139  0.2232 -0.1073  0.3900
  317MOL0     C42688  12.607   4.751   6.266 -0.6943  0.5723 -0.7590
  317MOL0     C42689  12.757   4.765   6.262  0.2379 -0.4896 -0.4686
  317MOL0     O42690  12.819   4.722   6.154  0.3229  0.4657 -0.7245
  317MOL0     C42691  12.956   4.742   6.142 -0.1531 -0.6029  0.3202
  317MOL0     C42692  13.022   4.870   6.147 -0.2480  0.3387  0.5255
  317MOL0     C42693  13.167   4.873   6.146 -0.4609 -0.4247 -1.1415
  317MOL0     C42694  13.238   4.762   6.130 -0.5425 -0.5052  0.4043
  317MOL0     O42695  13.370   4.782   6.128  0.7918  0.0449  0.2144
  317MOL0     C42696  13.450   4.697   6.052  0.4137  0.1119  0.1655
  317MOL0     C42697  13.600   4.751   6.033 -0.2319 -0.5656  0.7133
  317MOL0     C42698  13.680   4.772   6.159  0.4317  0.5220 -0.1316
  317MOL0     C42699  13.771   4.657   6.182 -0.5256 -0.0793 -0.1088
  317MOL0     C42700  13.803   4.647   6.336 -0.0308  0.8504 -0.3137
  317MOL0     C42701  13.938   4.577   6.363 -0.4793  0.6396  0.1182
  317MOL0     C42702  14.058   4.673   6.315 -0.4633 -0.0570 -0.6270
  317MOL0     C42703  14.192   4.633   6.364  0.4019  0.6822  0.1210
  317MOL0    Cl42704  14.325   4.732   6.286  0.6381  0.6162 -0.3798
  317MOL0     C42705  13.172   4.639   6.131 -0.0070 -0.9917 -0.2665
  317MOL0     C42706  13.034   4.630   6.136  0.6034 -0.5702 -0.2713
  317MOL0     O42707  12.811   4.817   6.360 -0.3615 -0.5315 -0.8343
  317MOL0     C42708  12.537   4.745   6.382 -0.4548 -0.3322 -0.7559
  317MOL0     C42709  12.398   4.736   6.383 -0.5178 -0.6332  0.4670
  317MOL0     N42710  11.803   4.443   6.437  0.1900  0.4953 -0.3928
  317MOL0     N42711  11.734   4.341   6.475  0.5509 -0.5182  0.3049
  317MOL0     C42712  10.482   4.281   6.338  0.5706  0.0288 -0.6801
  317MOL0     C42713  10.346   4.284   6.299  0.3488 -0.1443 -0.3664
  317MOL0     C42714   9.917   4.102   6.272  0.5423 -0.4064  0.1960
  317MOL0     C42715   9.796   4.124   6.345  0.4518  0.7140 -0.8113
  317MOL0     C42716   9.676   4.076   6.295  0.7518 -0.5458  0.5353
  317MOL0     C42717   9.666   4.006   6.176  0.7519 -0.3733 -0.2187
  317MOL0     O42718   9.546   3.963   6.123 -0.5408 -0.3031  0.4691
  317MOL0     C42719   9.429   3.976   6.194 -0.3454  0.4021  0.3283
  317MOL0     C42720   9.312   3.934   6.102  0.5770  0.1431  0.5192
  317MOL0     C42721   9.175   3.926   6.169  0.4319  0.4534 -0.2325
  317MOL0     C42722   9.183   3.817   6.278  0.4285 -0.5090  0.1372
  317MOL0     C42723   9.205   3.879   6.407  0.2161 -0.6671 -0.0861
  317MOL0     C42724   9.232   3.928   6.520  0.2697 -0.4387 -0.0131
  317MOL0     C42725   9.776   4.000   6.099 -0.2606 -0.2876  0.5911
  317MOL0     C42726   9.904   4.038   6.152 -0.1539  0.3584  0.2695
  317MOL0     C42727  10.030   3.988   6.073 -0.4735 -0.1157 -0.2898
  317MOL0     H42728  10.279   3.966   6.368 -3.7626  1.6389  2.5080
  317MOL0     H42729  10.509   3.971   6.435 -0.5386  1.5610  3.3710
  317MOL0     H42730  10.784   4.289   6.284 -2.2933 -1.3344 -0.3378
  317MOL0     H42731  10.728   4.332   6.445  1.7128  0.3905 -1.0876
  317MOL0     H42732  10.936   4.140   6.376 -1.1575 -0.1152 -0.0033
  317MOL0     H42733  10.861   4.153   6.533  0.3297  0.1282 -0.5487
  317MOL0     H42734  10.925   4.412   6.523 -2.3716 -2.5207  1.5387
  317MOL0     H42735  11.024   4.354   6.382 -0.0585  2.5043  1.1091
  317MOL0     H42736  11.054   4.286   6.663 -1.0150 -1.5779 -0.5887
  317MOL0     H42737  11.129   4.184   6.555 -0.9312 -0.1509  0.2151
  317MOL0     H42738  11.178   4.486   6.588  0.9865  0.7290 -1.4688
  317MOL0     H42739  11.277   4.373   6.677  1.9708  0.6013 -1.7805
  317MOL0     H42740  11.274   4.393   6.375  2.0720 -0.2167 -1.5593
  317MOL0     H42741  11.399   4.447   6.487  0.3080 -0.9529 -2.6201
  317MOL0     H42742  11.318   4.168   6.437 -2.6385  4.0009 -2.3077
  317MOL0     H42743  11.423   4.219   6.578 -0.8266 -4.4836 -0.6814
  317MOL0     H42744  11.573   4.138   6.412  0.2050  1.3681  0.3136
  317MOL0     H42745  11.472   4.220   6.290 -0.8426  0.1379  0.7245
  317MOL0     H42746  11.544   4.482   6.239 -0.3544 -0.7011 -0.5862
  317MOL0     H42747  11.726   4.653   6.181 -0.6108 -5.1583 -0.6781
  317MOL0     H42748  11.768   4.725   6.342  1.0742  2.3455 -1.2807
  317MOL0     H42749  11.987   4.587   6.335  0.3777 -0.2685  1.2799
  317MOL0     H42750  11.929   4.545   6.167 -3.0421  1.0537 -0.1030
  317MOL0     H42751  11.985   4.830   6.266 -1.5177  0.9982 -0.4561
  317MOL0     H42752  11.936   4.785   6.104  0.3244  0.3452 -0.3562
  317MOL0     H42753  12.163   4.800   6.082  0.5990 -0.8837 -0.3958
  317MOL0     H42754  12.141   4.627   6.087  2.9436 -1.1126  1.6627
  317MOL0     H42755  12.367   4.684   6.038 -3.0654  0.1032  0.4579
  317MOL0     H42756  12.606   4.722   6.047 -1.3938  0.2229 -0.6582
  317MOL0     H42757  12.960   4.959   6.162 -3.3361 -0.6619 -4.1748
  317MOL0     H42758  13.214   4.966   6.176  0.0456 -0.7506 -0.9080
  317MOL0     H42759  13.459   4.606   6.113 -2.3820  1.6695  3.1672
  317MOL0     H42760  13.414   4.675   5.951  2.3184 -6.7235  0.4657
  317MOL0     H42761  13.650   4.690   5.957  2.7139  0.1518  1.9697
  317MOL0     H42762  13.577   4.848   5.988 -0.2395 -0.9168 -0.0559
  317MOL0     H42763  13.738   4.865   6.157  1.7177 -0.2175 -3.5714
  317MOL0     H42764  13.614   4.783   6.246 -0.0297  2.9324 -0.7132
  317MOL0     H42765  13.865   4.677   6.131 -0.7849  3.4199  0.5154
  317MOL0     H42766  13.742   4.556   6.152 -0.1491 -0.5197  0.9477
  317MOL0     H42767  13.717   4.607   6.390 -0.2620  1.8376  0.0572
  317MOL0     H42768  13.813   4.748   6.376  1.6271  1.5751 -2.3321
  317MOL0     H42769  13.944   4.559   6.471  0.0907  3.8023  0.7281
  317MOL0     H42770  13.936   4.478   6.318  0.0314 -0.9388  3.2882
  317MOL0     H42771  14.036   4.776   6.342 -0.6710 -0.0658 -0.7554
  317MOL0     H42772  14.070   4.669   6.206  1.3751  0.4340 -0.4748
  317MOL0     H42773  14.199   4.620   6.472 -0.4045  0.1070  0.1149
  317MOL0     H42774  14.211   4.533   6.325 -1.2320  0.4396 -0.1258
  317MOL0     H42775  13.227   4.549   6.106  0.5551 -0.2035 -2.0720
  317MOL0     H42776  12.998   4.527   6.141  1.6008 -0.9739 -1.1478
  317MOL0     H42777  12.593   4.750   6.474 -1.3116  0.7600 -0.2595
  317MOL0     H42778  12.340   4.737   6.475  0.0202  0.0894  0.8058
  317MOL0     H42779  10.548   4.364   6.316 -0.0094  0.5786 -0.3811
  317MOL0     H42780  10.300   4.375   6.260  0.7656 -0.0252 -0.5981
  317MOL0     H42781   9.817   4.164   6.443  1.0677  0.2681 -0.7512
  317MOL0     H42782   9.595   4.084   6.366 -1.0679 -0.2306 -1.4825
  317MOL0     H42783   9.409   4.073   6.242 -0.2149  0.3592  0.4699
  317MOL0     H42784   9.442   3.911   6.281 -1.8621 -0.2803  0.0806
  317MOL0     H42785   9.349   3.846   6.047 -2.2336 -0.1149 -1.1437
  317MOL0     H42786   9.302   4.010   6.024 -0.7898  0.5422  1.0671
  317MOL0     H42787   9.103   3.897   6.092  0.5056  0.4272 -0.2905
  317MOL0     H42788   9.133   4.018   6.210  0.2206 -0.7275  2.4285
  317MOL0     H42789   9.084   3.770   6.285 -0.1287  0.6167 -0.0669
  317MOL0     H42790   9.269   3.750   6.267  0.6481 -0.1486 -0.3349
  317MOL0     H42791   9.251   3.971   6.616  3.1407 -1.5670  0.0260
  317MOL0     H42792   9.770   3.966   5.996  0.1962  0.0111  0.4626
  317MOL0     H42793   9.994   3.947   5.978 -2.7415 -0.3932  0.6259
  317MOL0     H42794  10.081   4.079   6.039 -3.0303  1.1814 -0.9487
  317MOL0     H42795  10.087   3.914   6.129  0.7348 -0.3673 -1.7971
  318MOL0     O42796   1.579  10.556   6.815 -0.1716  0.0210  0.3451
  318MOL0     C42797   1.612  10.508   6.704 -0.1818 -0.4126  0.3494
  318MOL0     O42798   1.729  10.534   6.635 -0.6399  0.0138 -0.0684
  318MOL0     C42799   1.825  10.600   6.709 -0.1311  0.2822  0.3165
  318MOL0     C42800   1.908  10.527   6.794 -0.0753 -0.0284  0.6355
  318MOL0     C42801   1.997  10.601   6.872  0.0145  0.5796  0.7207
  318MOL0     C42802   2.030  10.735   6.852  0.1956 -0.6297 -0.3925
  318MOL0     O42803   2.128  10.799   6.923  0.5940 -0.1426 -0.5448
  318MOL0     C42804   2.159  10.936   6.894 -1.3104 -0.2105  0.2718
  318MOL0     C42805   2.276  10.980   6.985  0.2438 -0.2164  0.1358
  318MOL0     C42806   2.405  10.904   6.938 -1.0994  0.3949 -0.4055
  318MOL0     C42807   2.519  10.908   7.040 -0.2362  0.3485  0.2276
  318MOL0     C42808   2.621  10.812   6.999 -1.0210  0.7088 -0.1707
  318MOL0     C42809   2.726  10.877   6.902 -0.1228  0.2723  0.0278
  318MOL0     C42810   2.866  10.815   6.922  0.0174  0.5225  0.3543
  318MOL0     C42811   2.950  10.897   7.029 -0.0922  0.5970 -0.4074
  318MOL0     N42812   3.079  10.824   7.053  0.4679  0.5382  0.0448
  318MOL0     C42813   3.199  10.867   7.002  0.0316  1.2251  0.5177
  318MOL0     C42814   3.277  10.750   7.026  1.1806  0.2452  0.6750
  318MOL0     C42815   3.407  10.739   6.969 -0.3356 -0.1770  0.8080
  318MOL0     C42816   3.447  10.615   6.883 -0.1333 -0.1462  0.3679
  318MOL0     C42817   3.458  10.483   6.966  0.3825 -0.1235 -0.2105
  318MOL0     C42818   3.566  10.495   7.073  0.3321 -0.0943 -0.1180
  318MOL0     O42819   3.562  10.362   7.136  0.4430  0.0517  0.2520
  318MOL0     C42820   3.672  10.335   7.209 -0.3611 -0.3713 -0.6907
  318MOL0     C42821   3.742  10.218   7.191  0.2875  0.8078 -0.3003
  318MOL0     C42822   3.852  10.179   7.263 -0.0822 -0.7453 -0.1952
  318MOL0     C42823   3.901  10.264   7.370  0.0507 -1.3545  0.5281
  318MOL0     C42824   4.018  10.224   7.450  0.3541 -0.1196 -0.2005
  318MOL0     O42825   4.096  10.332   7.496 -0.0684  0.2493  0.6838
  318MOL0     C42826   4.221  10.308   7.532 -1.5419  0.0904 -0.4505
  318MOL0     C42827   4.334  10.357   7.454 -0.0783 -0.8764  0.3354
  318MOL0     C42828   4.464  10.318   7.497 -0.1254 -0.1550 -0.0580
  318MOL0     C42829   4.493  10.262   7.625 -0.4976  0.8682 -0.2904
  318MOL0     O42830   4.617  10.236   7.668 -0.8239 -0.8926  0.0230
  318MOL0     C42831   4.641  10.175   7.800 -0.3719 -0.2975  0.6034
  318MOL0     C42832   4.787  10.191   7.844 -0.2151 -0.6654 -0.6871
  318MOL0     C42833   4.861  10.106   7.743 -0.0477  0.2921 -0.4174
  318MOL0     C42834   5.017  10.113   7.767 -0.1394  0.7616  0.8799
  318MOL0     C42835   5.081  10.008   7.677  0.0837 -0.2473 -0.1297
  318MOL0     C42836   5.238  10.009   7.668  1.0080  0.5345 -0.2236
  318MOL0     C42837   5.293  10.145   7.623 -0.1791  0.2927 -0.6030
  318MOL0     C42838   5.367  10.213   7.743  0.0940  1.0957  0.3295
  318MOL0    Cl42839   5.491  10.103   7.796  0.1156  0.5340  0.5573
  318MOL0     C42840   4.376  10.233   7.710 -0.5389  0.4627 -0.6411
  318MOL0     C42841   4.247  10.247   7.659  0.3308  0.6172 -0.4865
  318MOL0     O42842   4.041  10.107   7.469  0.6771 -0.2588 -0.2227
  318MOL0     C42843   3.832  10.389   7.387 -0.5660  0.1449 -0.7919
  318MOL0     C42844   3.725  10.424   7.305  0.0986 -0.2451 -0.2446
  318MOL0     N42845   3.205  10.653   7.097 -0.4990  0.6758 -0.2027
  318MOL0     N42846   3.082  10.703   7.104 -0.5163  0.4688 -1.2590
  318MOL0     C42847   1.951  10.802   6.758  0.2366 -0.2909  0.0356
  318MOL0     C42848   1.848  10.739   6.690 -1.1024 -0.1915 -0.7889
  318MOL0     C42849   1.522  10.412   6.635  0.6008  1.0781 -0.5235
  318MOL0     C42850   1.556  10.359   6.510 -0.4337  0.2876 -0.4335
  318MOL0     C42851   1.475  10.268   6.443  0.0767  0.5461 -0.0581
  318MOL0     C42852   1.353  10.227   6.497 -0.2989 -0.8192  0.3148
  318MOL0     O42853   1.287  10.120   6.435 -0.1683  0.0947  0.6671
  318MOL0     C42854   1.315   9.992   6.490 -0.9089  0.0922 -0.5656
  318MOL0     C42855   1.206   9.889   6.484  0.7488 -0.1919  0.1576
  318MOL0     C42856   1.105   9.888   6.372  0.2203 -0.7188 -0.2151
  318MOL0     C42857   0.971   9.824   6.419  0.1926  0.4912  0.7332
  318MOL0     C42858   0.888   9.804   6.304  1.1208  0.1084  0.6690
  318MOL0     C42859   0.816   9.783   6.206  0.3812 -0.0322 -0.2240
  318MOL0     C42860   1.309  10.282   6.618 -0.1522 -0.3626 -0.1270
  318MOL0     C42861   1.387  10.384   6.683 -0.0716  0.4498  0.0669
  318MOL0     C42862   1.314  10.463   6.791  0.0504 -0.1418  0.1926
  318MOL0     H42863   1.909  10.418   6.800  0.0815 -0.4637 -3.5858
  318MOL0     H42864   2.057  10.549   6.946  1.8946 -1.7388 -2.2128
  318MOL0     H42865   2.189  10.951   6.789 -1.0990  3.6126  0.7110
  318MOL0     H42866   2.080  11.012   6.903 -1.1530  0.0137 -0.1830
  318MOL0     H42867   2.248  10.971   7.090  2.3567 -1.4102  0.6625
  318MOL0     H42868   2.305  11.085   6.972 -0.1137 -0.3429 -2.2756
  318MOL0     H42869   2.433  10.943   6.840 -1.3368 -3.1304 -1.9989
  318MOL0     H42870   2.389  10.799   6.913 -2.0948  0.4709 -0.0945
  318MOL0     H42871   2.561  11.008   7.052  0.2118  0.3663 -1.2748
  318MOL0     H42872   2.490  10.887   7.143  2.1144 -1.6626  0.5922
  318MOL0     H42873   2.683  10.775   7.081 -1.1280 -1.5404 -1.0306
  318MOL0     H42874   2.582  10.719   6.956 -0.7152  0.2249  0.5620
  318MOL0     H42875   2.691  10.872   6.798  0.3468  0.6128 -0.1525
  318MOL0     H42876   2.750  10.981   6.927 -2.4512  1.3077 -1.5920
  318MOL0     H42877   2.912  10.813   6.823 -1.9717  1.8877 -0.6658
  318MOL0     H42878   2.857  10.706   6.924  1.2964  0.2783 -2.4391
  318MOL0     H42879   2.971  11.000   6.999  1.5375 -0.0640 -1.6912
  318MOL0     H42880   2.894  10.900   7.123 -0.9323 -3.6704 -0.6083
  318MOL0     H42881   3.220  10.961   6.953 -0.1303  1.1254  0.2527
  318MOL0     H42882   3.424  10.815   6.892  3.8763 -2.0972 -0.4586
  318MOL0     H42883   3.482  10.742   7.049 -0.8143  0.2806  1.2417
  318MOL0     H42884   3.360  10.595   6.820 -1.0563  0.8286  1.2856
  318MOL0     H42885   3.534  10.647   6.826  0.1945  2.2033  2.0047
  318MOL0     H42886   3.475  10.399   6.898 -3.0832 -0.7108 -0.5146
  318MOL0     H42887   3.363  10.460   7.014  0.2911 -0.6727 -0.6439
  318MOL0     H42888   3.536  10.561   7.155 -0.6087  0.2289 -0.7042
  318MOL0     H42889   3.661  10.515   7.023 -0.3561 -1.9010 -2.3416
  318MOL0     H42890   3.711  10.137   7.125  0.1691 -2.0617  2.9725
  318MOL0     H42891   3.907  10.090   7.236  3.0160  1.5191 -2.1351
  318MOL0     H42892   4.317  10.393   7.353  1.5920 -0.5178  0.1589
  318MOL0     H42893   4.544  10.353   7.433  1.3162  0.6645  2.0697
  318MOL0     H42894   4.578  10.224   7.875 -1.2760 -0.0918 -0.2708
  318MOL0     H42895   4.615  10.069   7.794 -1.4286 -0.0803  1.1579
  318MOL0     H42896   4.830  10.291   7.837  0.6980 -1.0317 -0.4236
  318MOL0     H42897   4.810  10.155   7.945  0.0198  1.3712  0.0315
  318MOL0     H42898   4.831  10.002   7.758  0.3873  0.5025  2.2512
  318MOL0     H42899   4.855  10.133   7.637  1.7818 -0.0264 -0.6364
  318MOL0     H42900   5.049  10.099   7.870 -1.0693  0.1473  1.0912
  318MOL0     H42901   5.070  10.208   7.750  0.3107  0.1805 -1.2057
  318MOL0     H42902   5.034  10.006   7.578 -0.0585 -0.1344 -0.0666
  318MOL0     H42903   5.057   9.910   7.718  1.5451 -1.4681 -2.0459
  318MOL0     H42904   5.262   9.984   7.772 -0.5212 -1.9634 -0.3911
  318MOL0     H42905   5.268   9.930   7.597  0.1271 -1.4852  1.5441
  318MOL0     H42906   5.218  10.210   7.578  2.3756  1.2220 -3.9374
  318MOL0     H42907   5.361  10.129   7.538 -2.2791 -2.1771 -1.9633
  318MOL0     H42908   5.403  10.312   7.714  1.3523  0.4836 -0.2667
  318MOL0     H42909   5.291  10.233   7.820 -0.7338  0.4388 -0.2930
  318MOL0     H42910   4.377  10.178   7.804 -1.1842 -2.3359 -2.1532
  318MOL0     H42911   4.168  10.215   7.727  1.8322 -2.9884 -0.2189
  318MOL0     H42912   3.862  10.463   7.460  0.4772 -1.3466  0.3690
  318MOL0     H42913   3.682  10.521   7.328 -0.6500 -1.0070  1.8470
  318MOL0     H42914   1.963  10.906   6.727 -0.3365 -0.5578 -1.1019
  318MOL0     H42915   1.785  10.790   6.618 -2.4203 -3.1732 -1.9122
  318MOL0     H42916   1.659  10.371   6.477 -0.4820 -2.7040 -1.9842
  318MOL0     H42917   1.523  10.212   6.363  0.2405 -1.1482  1.1796
  318MOL0     H42918   1.342   9.993   6.596 -0.8649  0.0222 -0.5761
  318MOL0     H42919   1.398   9.948   6.434 -1.0502 -0.4627 -0.3375
  318MOL0     H42920   1.148   9.896   6.577 -0.4212 -0.7605 -0.5061
  318MOL0     H42921   1.252   9.794   6.508  2.0820  0.8949  2.1866
  318MOL0     H42922   1.143   9.827   6.290  2.5379  0.0507  0.2128
  318MOL0     H42923   1.095   9.989   6.330 -0.1059 -0.8384 -0.4265
  318MOL0     H42924   0.977   9.729   6.473 -1.1845 -0.3533 -0.5087
  318MOL0     H42925   0.910   9.894   6.475 -0.2352  0.1368  0.7169
  318MOL0     H42926   0.764   9.764   6.114  0.9716  2.6086 -1.1870
  318MOL0     H42927   1.213  10.252   6.659 -0.2170 -1.1669 -0.8350
  318MOL0     H42928   1.353  10.448   6.892  1.5974  0.2139 -0.3294
  318MOL0     H42929   1.330  10.569   6.771  0.8496 -0.6032 -1.8297
  318MOL0     H42930   1.208  10.434   6.793 -0.1714  0.6325  1.3139
  319MOL0     O42931   8.914   3.247   7.426  0.5374  0.1441  0.5516
  319MOL0     C42932   8.866   3.263   7.540 -0.1576 -0.8115  0.5782
  319MOL0     O42933   8.930   3.318   7.653  0.3858 -0.2435  0.2583
  319MOL0     C42934   9.053   3.356   7.637  0.0935  0.0728  0.6508
  319MOL0     C42935   9.083   3.477   7.571 -0.2192 -1.1964  0.3569
  319MOL0     C42936   9.220   3.516   7.558 -0.2012 -1.2322  0.4604
  319MOL0     C42937   9.328   3.441   7.605  0.4642 -0.1995  0.3108
  319MOL0     O42938   9.461   3.473   7.609 -0.5382 -0.2879 -0.5820
  319MOL0     C42939   9.503   3.612   7.594  0.4386  0.6516 -0.6595
  319MOL0     C42940   9.656   3.621   7.597  0.4833 -0.1078  0.7042
  319MOL0     C42941   9.709   3.757   7.582  0.0859 -0.8657 -0.1087
  319MOL0     C42942   9.706   3.845   7.701 -0.8736 -0.3415  0.2073
  319MOL0     C42943   9.748   3.990   7.662 -0.8338 -0.1566  0.1530
  319MOL0     C42944   9.795   4.062   7.780 -0.3746 -0.0998 -0.2969
  319MOL0     C42945   9.805   4.208   7.765 -0.4145  0.2601 -0.0929
  319MOL0     C42946   9.876   4.277   7.882  0.3323  0.1869 -0.6403
  319MOL0     N42947  10.023   4.277   7.842  1.1084  0.1772  0.3555
  319MOL0     C42948  10.089   4.401   7.809 -0.3664  0.7195 -0.1552
  319MOL0     C42949  10.206   4.375   7.755 -0.3836 -0.4740 -0.4752
  319MOL0     C42950  10.307   4.480   7.701 -0.3856 -0.1993 -0.0168
  319MOL0     C42951  10.446   4.483   7.759  0.6332  0.6110  0.0223
  319MOL0     C42952  10.529   4.579   7.682 -0.1152  0.2275 -0.1128
  319MOL0     C42953  10.675   4.579   7.726  0.2850 -0.1431 -1.4087
  319MOL0     O42954  10.738   4.693   7.660 -0.4235  0.0902  0.5766
  319MOL0     C42955  10.865   4.716   7.678 -0.3635 -0.5485 -0.6416
  319MOL0     C42956  10.958   4.695   7.574  0.7240  0.0455 -0.4585
  319MOL0     C42957  11.090   4.743   7.586  0.3388  0.4225  1.5597
  319MOL0     C42958  11.141   4.803   7.698 -0.5028 -0.5887 -0.0715
  319MOL0     C42959  11.282   4.857   7.719  0.1449  0.2839  0.2754
  319MOL0     O42960  11.347   4.889   7.605 -0.2136  0.0478  0.1446
  319MOL0     C42961  11.486   4.916   7.609 -0.2496  0.6105 -1.0972
  319MOL0     C42962  11.527   5.027   7.675  0.2309  0.1510 -1.1802
  319MOL0     C42963  11.664   5.056   7.675 -0.1858 -0.4081 -0.2168
  319MOL0     C42964  11.762   4.962   7.632 -0.5723 -0.0450 -0.4523
  319MOL0     O42965  11.893   5.004   7.644 -0.8097  0.3451 -0.6707
  319MOL0     C42966  12.003   4.908   7.648  0.1088 -0.5279  0.3343
  319MOL0     C42967  12.131   4.986   7.624  0.8795 -0.1155 -0.6832
  319MOL0     C42968  12.151   5.114   7.703  0.4388  0.8843  0.4783
  319MOL0     C42969  12.277   5.168   7.642 -0.1316 -0.0736  0.0813
  319MOL0     C42970  12.286   5.320   7.678  0.2127  0.6934 -0.1262
  319MOL0     C42971  12.397   5.390   7.615 -0.1606 -0.7065 -0.4179
  319MOL0     C42972  12.374   5.433   7.472  0.4048 -0.0264 -0.3553
  319MOL0     C42973  12.505   5.486   7.420 -1.1097  0.2938  0.5199
  319MOL0    Cl42974  12.563   5.640   7.495 -0.0098  0.0001  0.8424
  319MOL0     C42975  11.722   4.854   7.561  0.2743 -0.4260 -0.9732
  319MOL0     C42976  11.581   4.838   7.540 -0.1271  0.8124  0.1170
  319MOL0     O42977  11.333   4.852   7.830  0.5047 -0.2438  0.6292
  319MOL0     C42978  11.050   4.810   7.807  0.4332 -0.7023  0.3749
  319MOL0     C42979  10.913   4.775   7.798 -0.9162 -0.4453  0.3628
  319MOL0     N42980  10.218   4.231   7.769 -0.9459 -0.2602  0.3230
  319MOL0     N42981  10.114   4.175   7.816 -0.7674 -0.6203  0.1718
  319MOL0     C42982   9.294   3.321   7.655 -0.3542  1.7599 -0.2345
  319MOL0     C42983   9.157   3.270   7.664  0.0247 -0.1940  0.6635
  319MOL0     C42984   8.727   3.229   7.571 -0.4843  0.8962  0.0531
  319MOL0     C42985   8.694   3.180   7.704  0.2304  0.0291 -0.1055
  319MOL0     C42986   8.563   3.130   7.732  0.4388 -0.3148  0.0412
  319MOL0     C42987   8.462   3.126   7.629  0.1015 -0.1244  0.0933
  319MOL0     O42988   8.337   3.086   7.659  0.6597  0.9430 -0.6836
  319MOL0     C42989   8.228   3.163   7.597 -0.3672  0.2387  1.0700
  319MOL0     C42990   8.094   3.134   7.663 -0.8466 -0.0870 -0.6895
  319MOL0     C42991   8.050   2.997   7.642  0.4087 -0.0959  0.4253
  319MOL0     C42992   7.921   2.962   7.712  0.8170  0.0792  0.1516
  319MOL0     C42993   7.801   3.044   7.667  0.2152  0.2408  0.6624
  319MOL0     C42994   7.721   3.111   7.609  0.2007  0.2229  0.0599
  319MOL0     C42995   8.505   3.169   7.497  0.5913  0.4236 -0.3854
  319MOL0     C42996   8.629   3.218   7.465  0.3711  0.0806 -0.1884
  319MOL0     C42997   8.651   3.278   7.323  0.1789  0.6134 -0.3927
  319MOL0     H42998   9.001   3.542   7.541 -0.0148 -0.9872  0.2487
  319MOL0     H42999   9.250   3.612   7.517  0.1502 -0.3368  2.6907
  319MOL0     H43000   9.461   3.654   7.502  0.2019  3.0577  0.4566
  319MOL0     H43001   9.463   3.674   7.675 -3.4628 -1.2068 -0.9388
  319MOL0     H43002   9.703   3.572   7.511  1.4797  3.4815 -0.9996
  319MOL0     H43003   9.691   3.572   7.689 -1.8721  0.1628  1.8048
  319MOL0     H43004   9.648   3.802   7.503  0.5920 -2.7069 -1.6364
  319MOL0     H43005   9.812   3.747   7.545  0.2760 -0.9760  0.4468
  319MOL0     H43006   9.603   3.844   7.739 -1.1499  1.5393 -0.3622
  319MOL0     H43007   9.773   3.810   7.780  0.8767 -2.8845 -2.2308
  319MOL0     H43008   9.823   3.979   7.584 -1.1565 -1.2350 -0.0243
  319MOL0     H43009   9.657   4.035   7.621  0.2076  0.7290 -1.2758
  319MOL0     H43010   9.735   4.045   7.870  0.3118 -2.4851 -0.2141
  319MOL0     H43011   9.892   4.013   7.789  0.7750  1.0276 -4.3560
  319MOL0     H43012   9.703   4.246   7.752 -1.6837 -2.1575  1.8309
  319MOL0     H43013   9.856   4.235   7.672 -1.0657 -1.1374 -0.8875
  319MOL0     H43014   9.847   4.379   7.906 -2.2472 -1.1914  2.8684
  319MOL0     H43015   9.858   4.222   7.975  0.7955  1.3947  0.1794
  319MOL0     H43016  10.051   4.503   7.822 -1.2534  0.1895  1.7899
  319MOL0     H43017  10.310   4.475   7.592 -0.5015 -2.1657  0.0286
  319MOL0     H43018  10.254   4.576   7.711  0.8777  0.5362 -0.2379
  319MOL0     H43019  10.422   4.523   7.858  0.0260  1.8430 -0.5977
  319MOL0     H43020  10.489   4.383   7.753 -1.6437 -0.5396  1.3798
  319MOL0     H43021  10.495   4.683   7.674 -1.8234 -0.3417 -0.8520
  319MOL0     H43022  10.528   4.545   7.578 -0.3105  1.8701 -0.6882
  319MOL0     H43023  10.711   4.478   7.705 -0.8471 -1.0038  0.4923
  319MOL0     H43024  10.669   4.592   7.835  1.6847 -3.1967 -0.8832
  319MOL0     H43025  10.930   4.642   7.484 -0.1121 -2.0653  0.9714
  319MOL0     H43026  11.159   4.722   7.505 -0.6669 -3.2178  1.5154
  319MOL0     H43027  11.452   5.101   7.702 -0.8387 -1.6078  1.0608
  319MOL0     H43028  11.693   5.157   7.702  5.4369 -1.4006 -1.2587
  319MOL0     H43029  12.007   4.863   7.748 -2.0724  0.9476  1.1694
  319MOL0     H43030  11.989   4.829   7.573 -0.4594  1.0340 -1.3004
  319MOL0     H43031  12.212   4.919   7.653  0.5421  0.0691  0.7605
  319MOL0     H43032  12.136   5.012   7.518  1.3017  2.6810 -0.0616
  319MOL0     H43033  12.069   5.181   7.677  0.4626  0.0810 -1.9080
  319MOL0     H43034  12.156   5.098   7.811 -1.4820  1.7620  0.7325
  319MOL0     H43035  12.266   5.177   7.534 -1.4884  0.5713  0.2471
  319MOL0     H43036  12.369   5.112   7.659 -0.4866 -1.1483 -1.3741
  319MOL0     H43037  12.293   5.331   7.787 -0.1720 -1.4705  0.1556
  319MOL0     H43038  12.189   5.365   7.655  1.1619  3.1611  0.3292
  319MOL0     H43039  12.419   5.486   7.661 -1.8915  1.2978 -3.4854
  319MOL0     H43040  12.487   5.332   7.638  0.5624  0.4747 -0.1836
  319MOL0     H43041  12.298   5.510   7.457 -1.0028 -1.2871 -0.0026
  319MOL0     H43042  12.344   5.341   7.420 -0.1996 -0.6757  1.0833
  319MOL0     H43043  12.588   5.415   7.424  1.6146  2.9448 -2.6560
  319MOL0     H43044  12.492   5.496   7.312 -1.4164  1.5298  0.6548
  319MOL0     H43045  11.786   4.779   7.516 -2.7894 -3.3827 -0.8096
  319MOL0     H43046  11.555   4.752   7.479  5.8600 -0.4332 -1.4006
  319MOL0     H43047  11.087   4.831   7.907 -2.2862 -2.7343  1.9337
  319MOL0     H43048  10.846   4.782   7.884 -0.9386  3.5071  0.2373
  319MOL0     H43049   9.374   3.261   7.696  0.8754  4.8753  2.3159
  319MOL0     H43050   9.139   3.178   7.718 -1.9737  0.0841  0.5385
  319MOL0     H43051   8.772   3.170   7.779  0.3411  1.5908  0.0074
  319MOL0     H43052   8.542   3.094   7.832  0.4428 -0.6974 -0.0950
  319MOL0     H43053   8.219   3.142   7.490 -0.9952  3.2404  0.4265
  319MOL0     H43054   8.262   3.267   7.606  2.2258 -0.6808  3.0990
  319MOL0     H43055   8.015   3.201   7.627 -1.2360  1.6366  2.9034
  319MOL0     H43056   8.109   3.148   7.771  1.7329  0.8734 -1.0934
  319MOL0     H43057   8.125   2.930   7.684 -1.7740 -1.2545  2.7046
  319MOL0     H43058   8.040   2.966   7.538 -1.0205 -2.4414  1.1828
  319MOL0     H43059   7.904   2.856   7.694 -1.1323  0.3229  0.3462
  319MOL0     H43060   7.939   2.970   7.820  0.4838 -0.0877  0.2218
  319MOL0     H43061   7.645   3.171   7.562  0.0604  1.3942  1.7177
  319MOL0     H43062   8.429   3.174   7.420 -0.8179  3.7103  1.0375
  319MOL0     H43063   8.712   3.368   7.327  1.7128 -0.4316  1.3907
  319MOL0     H43064   8.716   3.205   7.274  1.2019  0.5266  1.0189
  319MOL0     H43065   8.554   3.293   7.275  0.7471  0.8300 -1.5113
  320MOL0     O43066   2.407   4.700   5.653 -0.7165 -0.5550  0.2584
  320MOL0     C43067   2.474   4.600   5.692 -0.0010 -0.1599 -0.2038
  320MOL0     O43068   2.434   4.472   5.676 -0.0567 -0.0195 -0.3322
  320MOL0     C43069   2.302   4.450   5.664  0.4138 -0.6032 -0.2607
  320MOL0     C43070   2.260   4.395   5.545  0.7213 -0.0874  0.5201
  320MOL0     C43071   2.122   4.361   5.534 -1.2095 -0.4041 -0.1503
  320MOL0     C43072   2.038   4.375   5.651 -0.2297  1.0234 -0.1710
  320MOL0     O43073   1.910   4.351   5.658  0.3181  0.0988  0.1822
  320MOL0     C43074   1.853   4.251   5.573 -0.5931 -1.0946  0.2054
  320MOL0     C43075   1.714   4.235   5.631  0.5536 -0.0320 -0.1675
  320MOL0     C43076   1.641   4.109   5.580  0.5669 -0.6882 -0.1547
  320MOL0     C43077   1.501   4.109   5.634  1.0136  0.4985  0.0223
  320MOL0     C43078   1.490   4.051   5.776  0.2732  0.0545  0.1188
  320MOL0     C43079   1.337   4.024   5.812 -0.1071 -1.3870 -1.4677
  320MOL0     C43080   1.327   3.940   5.943  0.3695 -0.3117  0.6954
  320MOL0     C43081   1.405   3.967   6.076  1.0138 -0.8239 -0.8142
  320MOL0     N43082   1.380   4.108   6.120 -0.0001  0.3017 -0.3549
  320MOL0     C43083   1.272   4.151   6.199 -0.4015  0.0522  0.4076
  320MOL0     C43084   1.314   4.281   6.229 -0.5330  0.5417 -0.1840
  320MOL0     C43085   1.242   4.385   6.316 -1.2185  0.2758  0.1574
  320MOL0     C43086   1.252   4.355   6.468 -0.2786 -0.1812  0.4157
  320MOL0     C43087   1.401   4.342   6.515  0.1681  0.1480  0.3619
  320MOL0     C43088   1.465   4.484   6.522  0.7930  0.0353  0.2007
  320MOL0     O43089   1.578   4.475   6.616  0.1283  0.9077  0.4959
  320MOL0     C43090   1.698   4.424   6.572  0.2639 -0.0978  0.6222
  320MOL0     C43091   1.809   4.448   6.649  0.0842 -0.3186  0.0481
  320MOL0     C43092   1.942   4.406   6.610 -0.1171 -0.4698  0.1872
  320MOL0     C43093   1.964   4.348   6.479  0.4144  0.0904 -0.0128
  320MOL0     C43094   2.092   4.345   6.424  0.2094  0.8937 -0.8808
  320MOL0     O43095   2.120   4.256   6.322  0.8025  1.0032 -0.5333
  320MOL0     C43096   2.242   4.229   6.276 -0.6274 -1.1343 -0.6638
  320MOL0     C43097   2.291   4.303   6.163 -0.2921 -0.4608 -0.7975
  320MOL0     C43098   2.420   4.283   6.128  0.5770 -0.6840 -0.6836
  320MOL0     C43099   2.515   4.205   6.190  0.6841  0.1407 -1.5568
  320MOL0     O43100   2.645   4.205   6.142  0.0599 -0.3567 -0.0516
  320MOL0     C43101   2.746   4.183   6.229  0.3156 -0.0902 -0.4933
  320MOL0     C43102   2.875   4.196   6.141  0.3878  0.0414  0.9130
  320MOL0     C43103   3.006   4.243   6.218 -0.1893  0.6450 -0.3197
  320MOL0     C43104   3.096   4.312   6.113 -0.4122  0.2479  0.2368
  320MOL0     C43105   3.245   4.329   6.157 -0.0453 -0.2004 -0.4170
  320MOL0     C43106   3.329   4.204   6.156 -0.1866  0.4331  1.1638
  320MOL0     C43107   3.355   4.141   6.013 -0.4780  0.4683 -1.0825
  320MOL0     C43108   3.459   4.024   6.019  0.0321  0.0144  0.0849
  320MOL0    Cl43109   3.502   3.969   5.859  0.4366 -0.4419  0.0339
  320MOL0     C43110   2.470   4.139   6.305 -0.4149 -0.6668 -0.2556
  320MOL0     C43111   2.338   4.160   6.348  0.5529  0.4046 -0.1510
  320MOL0     O43112   2.181   4.415   6.472 -0.0949 -0.2908 -0.1462
  320MOL0     C43113   1.847   4.326   6.398 -0.7353 -0.0922  0.9410
  320MOL0     C43114   1.717   4.364   6.445 -0.4073  0.6824  0.9181
  320MOL0     N43115   1.436   4.311   6.174 -0.2511  0.9978  0.0002
  320MOL0     N43116   1.478   4.207   6.113  0.1796 -0.3124  0.1905
  320MOL0     C43117   2.096   4.435   5.770  0.9406 -0.7242 -0.0936
  320MOL0     C43118   2.225   4.473   5.774 -0.7326 -0.3524  0.1482
  320MOL0     C43119   2.618   4.618   5.736  0.1137  0.0936 -0.5476
  320MOL0     C43120   2.682   4.501   5.782 -0.3869  0.3276 -0.0643
  320MOL0     C43121   2.809   4.499   5.807  0.7002  0.3776 -0.6301
  320MOL0     C43122   2.892   4.605   5.798 -0.3187 -0.9628 -0.5744
  320MOL0     O43123   3.022   4.593   5.834  0.6846 -0.1801 -1.0609
  320MOL0     C43124   3.114   4.701   5.805  0.3277 -0.2451  0.3808
  320MOL0     C43125   3.144   4.710   5.650  0.1100 -0.0101  0.3991
  320MOL0     C43126   3.273   4.790   5.626  0.1624 -0.0201 -0.4058
  320MOL0     C43127   3.292   4.859   5.493 -0.5970  0.0252 -1.0979
  320MOL0     C43128   3.296   4.760   5.384  0.0363 -0.9146 -0.4775
  320MOL0     C43129   3.302   4.668   5.309 -0.8920  0.4731 -0.2522
  320MOL0     C43130   2.829   4.731   5.771  1.0097 -0.3695 -0.4137
  320MOL0     C43131   2.693   4.737   5.726  0.2583 -0.4487 -0.5126
  320MOL0     C43132   2.648   4.867   5.679  0.5093 -0.2104  0.1471
  320MOL0     H43133   2.323   4.363   5.463  1.0799 -0.7463  1.0400
  320MOL0     H43134   2.087   4.341   5.434 -3.9767 -3.7430  1.2438
  320MOL0     H43135   1.851   4.284   5.469  0.8754 -0.4086  0.3674
  320MOL0     H43136   1.904   4.154   5.576 -0.1399 -0.8697 -0.1060
  320MOL0     H43137   1.656   4.326   5.621 -0.1549 -0.5444 -0.8452
  320MOL0     H43138   1.743   4.213   5.734  1.4703 -0.9394 -0.6010
  320MOL0     H43139   1.693   4.017   5.611  2.3762  0.5527  0.6645
  320MOL0     H43140   1.626   4.125   5.472 -2.3880  1.4148  0.4431
  320MOL0     H43141   1.463   4.210   5.649  1.1219  0.6085 -0.4201
  320MOL0     H43142   1.437   4.055   5.564  0.3938  1.1184  0.1041
  320MOL0     H43143   1.540   3.955   5.762  2.7141  1.4636 -1.6614
  320MOL0     H43144   1.542   4.117   5.847  2.2043  0.5379 -1.6178
  320MOL0     H43145   1.295   4.121   5.840  2.8339 -0.9670  2.1942
  320MOL0     H43146   1.283   3.985   5.725 -0.5464  0.9209 -2.2834
  320MOL0     H43147   1.352   3.836   5.921  1.6986  0.0870  0.1958
  320MOL0     H43148   1.224   3.956   5.975 -0.5290 -1.2593 -1.5704
  320MOL0     H43149   1.358   3.902   6.151 -1.6395  2.7323  0.9117
  320MOL0     H43150   1.513   3.951   6.067  1.4879  0.9640  0.9651
  320MOL0     H43151   1.179   4.104   6.229 -1.8821  2.1371 -0.6434
  320MOL0     H43152   1.298   4.479   6.309 -1.4844  0.4355  0.1855
  320MOL0     H43153   1.141   4.409   6.283 -1.2426  1.7757  1.2087
  320MOL0     H43154   1.203   4.429   6.533 -1.1041 -2.0352  2.0400
  320MOL0     H43155   1.195   4.265   6.495  0.4909 -1.5118 -2.1362
  320MOL0     H43156   1.449   4.278   6.441 -2.3421  0.3698 -1.6029
  320MOL0     H43157   1.410   4.299   6.616  0.6363  0.8607  0.6316
  320MOL0     H43158   1.391   4.546   6.572  2.0573  0.9394  0.9863
  320MOL0     H43159   1.497   4.525   6.426  0.9234 -2.9735 -1.1785
  320MOL0     H43160   1.780   4.508   6.735  1.1864  2.6985 -1.5312
  320MOL0     H43161   2.023   4.438   6.674 -0.9890 -0.3188  1.2355
  320MOL0     H43162   2.224   4.377   6.120  2.0218  1.5294 -1.2190
  320MOL0     H43163   2.450   4.334   6.038 -2.3740  1.4840 -0.5679
  320MOL0     H43164   2.751   4.248   6.317  1.2574 -1.0514  0.1956
  320MOL0     H43165   2.746   4.079   6.264  0.9152 -0.1424 -0.6395
  320MOL0     H43166   2.895   4.099   6.094  0.7481  1.6554 -2.5506
  320MOL0     H43167   2.854   4.267   6.061 -0.9153  0.2143  1.3813
  320MOL0     H43168   2.975   4.310   6.298  0.9202 -1.3047  1.8629
  320MOL0     H43169   3.060   4.159   6.262  3.0857  1.1594 -2.9136
  320MOL0     H43170   3.055   4.412   6.103 -1.9599 -0.4612 -0.9695
  320MOL0     H43171   3.089   4.267   6.013  1.1946  0.7966 -0.1719
  320MOL0     H43172   3.248   4.371   6.258 -1.2683  0.5722 -0.6810
  320MOL0     H43173   3.288   4.400   6.086 -0.1244  0.5214  0.2391
  320MOL0     H43174   3.426   4.220   6.204 -1.1639 -0.5140  3.5867
  320MOL0     H43175   3.280   4.125   6.213  2.6513 -2.8811 -0.6007
  320MOL0     H43176   3.391   4.217   5.943 -2.1271  1.7327 -0.6355
  320MOL0     H43177   3.261   4.104   5.973 -0.4022  2.4551 -3.3433
  320MOL0     H43178   3.542   4.061   6.080  1.1102 -1.2718 -0.5474
  320MOL0     H43179   3.418   3.936   6.069  1.0116 -0.3525  0.2549
  320MOL0     H43180   2.535   4.072   6.361  1.4263  1.9098  0.8983
  320MOL0     H43181   2.300   4.109   6.436 -0.8151  0.7518 -0.5308
  320MOL0     H43182   1.852   4.303   6.291  1.6800  2.5866  0.3713
  320MOL0     H43183   1.632   4.354   6.377 -0.4335 -1.5492  1.2119
  320MOL0     H43184   2.035   4.456   5.857 -0.4023 -1.6947 -0.7797
  320MOL0     H43185   2.271   4.502   5.868 -0.2158 -2.0207  0.4505
  320MOL0     H43186   2.628   4.407   5.792 -0.4733  0.5985  3.4993
  320MOL0     H43187   2.845   4.405   5.848 -1.2675 -1.5061 -2.9225
  320MOL0     H43188   3.209   4.665   5.847  1.5746  0.5277 -1.6243
  320MOL0     H43189   3.085   4.791   5.858 -0.6666  0.3064 -1.0417
  320MOL0     H43190   3.056   4.764   5.611 -1.1787 -0.4054  2.6156
  320MOL0     H43191   3.150   4.614   5.597  0.8330  1.5885 -2.6898
  320MOL0     H43192   3.360   4.728   5.650 -0.5856  0.3573  4.1916
  320MOL0     H43193   3.281   4.874   5.696 -1.7543  3.2566 -3.7928
  320MOL0     H43194   3.214   4.932   5.470 -0.6213  0.4486  0.2332
  320MOL0     H43195   3.388   4.910   5.492 -0.1314 -0.8184 -0.8053
  320MOL0     H43196   3.343   4.590   5.248 -0.6452  0.0978  0.3930
  320MOL0     H43197   2.884   4.825   5.773  2.1994 -1.0411 -0.6980
  320MOL0     H43198   2.556   4.900   5.728  0.5834  1.6256 -0.8790
  320MOL0     H43199   2.728   4.939   5.699  1.9278 -1.2146 -1.6150
  320MOL0     H43200   2.637   4.851   5.571 -1.5007 -3.7578  0.7053
  321MOL0     O43201   1.931   6.742   0.354  0.1513  0.2813 -0.3604
  321MOL0     C43202   1.856   6.825   0.401  0.7419 -0.8408 -0.7501
  321MOL0     O43203   1.868   6.958   0.382  0.5443 -0.2172  0.0277
  321MOL0     C43204   1.965   7.007   0.297 -0.2049  0.0874  0.4417
  321MOL0     C43205   2.042   7.114   0.344 -0.0590 -0.0837  0.1103
  321MOL0     C43206   2.157   7.153   0.267 -0.1344 -0.6455 -0.9777
  321MOL0     C43207   2.183   7.101   0.137 -0.5628 -0.2596 -0.8112
  321MOL0     O43208   2.299   7.134   0.070 -0.3982 -0.2414 -0.6194
  321MOL0     C43209   2.289   7.200  -0.051  0.0295 -0.7070 -0.2170
  321MOL0     C43210   2.236   7.348  -0.034 -0.2623  1.0132  0.2181
  321MOL0     C43211   2.354   7.430   0.033 -0.7377 -0.6404  0.3610
  321MOL0     C43212   2.484   7.455  -0.058  0.0626  0.7214 -0.2647
  321MOL0     C43213   2.575   7.565  -0.014 -0.0971 -0.2552 -0.5417
  321MOL0     C43214   2.502   7.698   0.003  0.4317  0.8600 -0.3726
  321MOL0     C43215   2.604   7.812  -0.006 -0.0540  0.7563 -0.0838
  321MOL0     C43216   2.539   7.947   0.007 -0.1316 -0.6109  0.5961
  321MOL0     N43217   2.495   7.982   0.143 -1.1613  0.9815 -0.7215
  321MOL0     C43218   2.422   8.093   0.165  0.0343 -0.1831  0.7681
  321MOL0     C43219   2.461   8.136   0.294 -0.5364 -0.2764  0.4092
  321MOL0     C43220   2.440   8.276   0.349  0.4291 -0.3172 -0.0609
  321MOL0     C43221   2.565   8.292   0.433 -0.1322  0.3588 -0.7875
  321MOL0     C43222   2.569   8.418   0.514 -0.1262 -0.1205 -0.0296
  321MOL0     C43223   2.443   8.437   0.612  1.1213 -0.5890 -0.1138
  321MOL0     O43224   2.476   8.534   0.710 -0.1714 -0.0602 -0.4951
  321MOL0     C43225   2.366   8.576   0.776 -0.0842  1.1110  0.1218
  321MOL0     C43226   2.279   8.670   0.719 -0.5037  0.2619 -0.2911
  321MOL0     C43227   2.180   8.735   0.789 -0.6163  0.4278  0.2532
  321MOL0     C43228   2.157   8.700   0.927 -0.8935 -0.2059 -1.5304
  321MOL0     C43229   2.050   8.765   1.000  0.0209 -0.3062 -0.4077
  321MOL0     O43230   1.970   8.841   0.923 -0.1215  0.9272 -0.0735
  321MOL0     C43231   1.863   8.911   0.971 -0.1510  0.2131 -0.4894
  321MOL0     C43232   1.876   9.023   1.054  0.0103 -0.0138 -0.5286
  321MOL0     C43233   1.774   9.110   1.091  0.2995 -0.3837  0.0065
  321MOL0     C43234   1.640   9.084   1.051 -0.1833  0.8498 -0.2627
  321MOL0     O43235   1.535   9.157   1.092  0.4588  0.0805 -0.4450
  321MOL0     C43236   1.397   9.147   1.037  0.3847  0.5345  0.3317
  321MOL0     C43237   1.297   9.223   1.128  0.4015 -0.0257  1.0532
  321MOL0     C43238   1.157   9.189   1.071  1.1821  1.3317 -0.1986
  321MOL0     C43239   1.053   9.252   1.161 -0.6053 -0.8498 -0.3579
  321MOL0     C43240   0.910   9.230   1.116  0.1331  0.1569  0.2149
  321MOL0     C43241   0.808   9.288   1.224  0.0981  0.0837 -0.6563
  321MOL0     C43242   0.673   9.280   1.163  0.1227  0.0195  0.5755
  321MOL0     C43243   0.570   9.301   1.275 -0.1862 -1.0645  0.2045
  321MOL0    Cl43244   0.400   9.270   1.223  0.1183  0.2021  0.1481
  321MOL0     C43245   1.622   8.969   0.973 -0.8790 -0.5493 -0.0927
  321MOL0     C43246   1.730   8.886   0.929 -0.9426 -0.5154  0.5064
  321MOL0     O43247   2.035   8.749   1.125  0.8312  0.2295  0.1365
  321MOL0     C43248   2.237   8.599   0.984  0.1079 -0.8787 -0.5094
  321MOL0     C43249   2.339   8.544   0.906  0.0969 -0.1968 -0.2268
  321MOL0     N43250   2.538   8.030   0.351  0.0937  0.5795  0.0128
  321MOL0     N43251   2.547   7.939   0.269 -0.1877 -0.3838  0.3989
  321MOL0     C43252   2.086   7.012   0.080 -0.0426  0.2219 -0.1922
  321MOL0     C43253   1.986   6.960   0.162  0.1136  0.0155  0.0025
  321MOL0     C43254   1.739   6.779   0.489 -0.2180 -0.8286 -0.1099
  321MOL0     C43255   1.705   6.861   0.596  0.1980  0.5504 -0.2621
  321MOL0     C43256   1.592   6.836   0.670  0.5521  0.1796 -0.0716
  321MOL0     C43257   1.506   6.729   0.648  1.2754 -0.0472 -0.9326
  321MOL0     O43258   1.389   6.717   0.720 -0.7092 -0.3845 -0.2393
  321MOL0     C43259   1.280   6.642   0.672 -0.1266 -0.2690 -0.1086
  321MOL0     C43260   1.155   6.724   0.690 -0.2761 -0.3448 -0.9717
  321MOL0     C43261   1.025   6.650   0.667  0.3894 -0.1509  0.2461
  321MOL0     C43262   0.998   6.541   0.765  0.0281 -0.0944 -0.5574
  321MOL0     C43263   0.865   6.473   0.737 -0.2534  0.1270 -0.4076
  321MOL0     C43264   0.754   6.432   0.717  0.0397 -0.2842  0.0160
  321MOL0     C43265   1.539   6.638   0.544 -0.3546 -1.1466 -0.0467
  321MOL0     C43266   1.658   6.668   0.465  0.0485  0.3122 -0.2808
  321MOL0     C43267   1.685   6.568   0.357 -0.5639 -0.0057  0.2578
  321MOL0     H43268   2.043   7.151   0.446  3.2842  2.7812 -0.7678
  321MOL0     H43269   2.222   7.227   0.314  2.0244 -1.5635 -2.3761
  321MOL0     H43270   2.381   7.214  -0.109  0.6405 -1.5699  0.5248
  321MOL0     H43271   2.221   7.140  -0.112 -2.3938 -0.6792  2.2713
  321MOL0     H43272   2.137   7.359   0.011 -0.3924 -0.1652  0.2434
  321MOL0     H43273   2.232   7.385  -0.138  2.0058  1.0784  0.1009
  321MOL0     H43274   2.398   7.391   0.125  2.0889 -0.4735 -0.8153
  321MOL0     H43275   2.311   7.527   0.061 -1.1040 -0.4218 -0.8748
  321MOL0     H43276   2.545   7.365  -0.066 -1.9369 -0.6091 -1.5348
  321MOL0     H43277   2.451   7.482  -0.159  1.0889  1.5884 -0.3820
  321MOL0     H43278   2.619   7.530   0.080 -3.5289 -0.3178  1.2258
  321MOL0     H43279   2.655   7.575  -0.088 -0.3825 -0.8742 -0.9432
  321MOL0     H43280   2.436   7.712  -0.083 -2.6575 -2.7028  1.1381
  321MOL0     H43281   2.442   7.707   0.095  0.2327 -0.4630 -0.3574
  321MOL0     H43282   2.664   7.802  -0.097  0.0302 -0.3217  0.0774
  321MOL0     H43283   2.671   7.789   0.078 -1.9347  1.6120  1.7287
  321MOL0     H43284   2.609   8.025  -0.023  2.7954 -3.3092 -0.0544
  321MOL0     H43285   2.453   7.958  -0.060  1.2738 -1.2435 -1.3777
  321MOL0     H43286   2.365   8.143   0.087 -0.0459 -2.2980 -0.6018
  321MOL0     H43287   2.427   8.351   0.270 -0.4127  0.2160  0.5790
  321MOL0     H43288   2.352   8.268   0.412 -1.6450 -3.4267 -2.9603
  321MOL0     H43289   2.570   8.204   0.499 -0.6723  1.0442  0.1918
  321MOL0     H43290   2.651   8.285   0.366  1.4520  0.6591  1.1016
  321MOL0     H43291   2.602   8.504   0.455 -0.7761  1.0895  1.3132
  321MOL0     H43292   2.653   8.414   0.584 -0.1337 -1.2993 -0.0537
  321MOL0     H43293   2.404   8.356   0.673  0.1821 -0.6257 -0.7308
  321MOL0     H43294   2.357   8.470   0.553 -1.2480 -1.4588  2.6834
  321MOL0     H43295   2.285   8.699   0.614 -1.1118  3.8923  0.5515
  321MOL0     H43296   2.132   8.813   0.731  1.4567  1.2245 -0.4566
  321MOL0     H43297   1.976   9.048   1.088 -0.4624  0.3729  0.6051
  321MOL0     H43298   1.797   9.191   1.160 -0.0308  1.4576 -1.9449
  321MOL0     H43299   1.406   9.181   0.933  1.8606  1.0921  0.6111
  321MOL0     H43300   1.354   9.047   1.038 -1.8340  1.3491 -2.3551
  321MOL0     H43301   1.287   9.174   1.226 -1.0262  0.5102  1.1922
  321MOL0     H43302   1.319   9.330   1.138 -0.6529  0.4507 -1.2441
  321MOL0     H43303   1.142   9.236   0.974 -2.2949 -0.4462 -0.7096
  321MOL0     H43304   1.131   9.084   1.052  0.7154  1.1018  1.4941
  321MOL0     H43305   1.078   9.358   1.172 -0.3245 -1.0619  1.4071
  321MOL0     H43306   1.063   9.214   1.263 -3.0904 -0.6918  0.0016
  321MOL0     H43307   0.900   9.124   1.094 -0.5774 -0.1084  1.6615
  321MOL0     H43308   0.895   9.277   1.019 -4.2097 -0.8128  0.2404
  321MOL0     H43309   0.801   9.230   1.317 -1.4797  0.6583 -0.3804
  321MOL0     H43310   0.825   9.391   1.257  1.5422 -0.8787  1.9729
  321MOL0     H43311   0.656   9.181   1.121  1.5496  0.0535 -0.1472
  321MOL0     H43312   0.663   9.349   1.078  2.6877 -1.2374 -0.8592
  321MOL0     H43313   0.587   9.223   1.349 -0.9693 -1.2466  0.2025
  321MOL0     H43314   0.583   9.398   1.324 -0.9944 -1.6650  1.6655
  321MOL0     H43315   1.531   8.921   0.939  0.4215 -2.3120 -1.3048
  321MOL0     H43316   1.709   8.817   0.848  2.0304  1.8484 -2.6063
  321MOL0     H43317   2.222   8.575   1.088 -3.2110 -0.3547 -0.7684
  321MOL0     H43318   2.409   8.479   0.959 -0.9778 -1.6146 -0.4844
  321MOL0     H43319   2.094   6.967  -0.018 -2.4438 -1.8523  0.4565
  321MOL0     H43320   1.931   6.875   0.125 -0.7066  0.7329 -0.4842
  321MOL0     H43321   1.762   6.952   0.612  1.9110  0.0672 -2.9401
  321MOL0     H43322   1.566   6.914   0.741 -1.4157 -0.3770 -0.1359
  321MOL0     H43323   1.287   6.547   0.726  3.1582 -0.2125 -0.2471
  321MOL0     H43324   1.284   6.609   0.568  1.9886 -1.7525  0.3765
  321MOL0     H43325   1.150   6.808   0.621 -0.6379 -0.1372 -0.6971
  321MOL0     H43326   1.160   6.767   0.791  3.3670 -1.4427 -0.5328
  321MOL0     H43327   1.039   6.596   0.573  2.8878 -0.3957  0.7105
  321MOL0     H43328   0.947   6.727   0.666 -1.5217 -1.9700  0.9909
  321MOL0     H43329   1.079   6.468   0.765  2.0806  1.8507  3.3011
  321MOL0     H43330   0.994   6.562   0.873  1.2821 -3.6254  0.3054
  321MOL0     H43331   0.659   6.383   0.710 -0.1843  0.0376  0.7616
  321MOL0     H43332   1.481   6.549   0.527 -3.0749  0.7803 -1.5911
  321MOL0     H43333   1.792   6.547   0.353 -0.0121  2.5887  0.1229
  321MOL0     H43334   1.637   6.472   0.379 -0.9521  0.0371 -0.3598
  321MOL0     H43335   1.649   6.602   0.260 -1.4838 -2.7718 -0.4848
  322MOL0     O43336   2.422   2.180   4.938 -0.3172  0.5272  0.0231
  322MOL0     C43337   2.426   2.124   5.051  0.2564 -0.4189  0.4151
  322MOL0     O43338   2.536   2.104   5.128  0.6776  0.2817  0.7893
  322MOL0     C43339   2.662   2.127   5.079  0.0788  0.1971  0.9138
  322MOL0     C43340   2.762   2.049   5.128  0.4425  0.3029 -0.6591
  322MOL0     C43341   2.882   2.050   5.069 -0.5551  0.5450  1.3605
  322MOL0     C43342   2.921   2.134   4.964  0.6669 -0.6010  0.3673
  322MOL0     O43343   3.050   2.120   4.907  0.0355 -0.8845 -0.7874
  322MOL0     C43344   3.151   2.112   5.004  0.0215  0.0685  0.5431
  322MOL0     C43345   3.282   2.149   4.938  0.3806 -0.0811  0.3325
  322MOL0     C43346   3.287   2.309   4.918 -0.1164 -0.3586  0.1339
  322MOL0     C43347   3.431   2.357   4.883  0.9905  0.7583 -0.1090
  322MOL0     C43348   3.494   2.302   4.753  0.8810  0.5316 -0.4804
  322MOL0     C43349   3.407   2.328   4.632 -0.2577 -0.3117  0.3545
  322MOL0     C43350   3.456   2.287   4.495  0.0245  0.8420  0.0163
  322MOL0     C43351   3.601   2.329   4.456  0.0351 -0.8305 -0.3410
  322MOL0     N43352   3.608   2.479   4.436  0.1269  0.3128  1.0070
  322MOL0     C43353   3.652   2.577   4.522  1.0129 -0.7071 -0.5202
  322MOL0     C43354   3.660   2.690   4.446 -1.7120  0.4117 -0.1153
  322MOL0     C43355   3.674   2.826   4.500 -0.3046 -0.3880 -0.4612
  322MOL0     C43356   3.555   2.866   4.591 -0.6243 -0.1434  0.2905
  322MOL0     C43357   3.554   2.780   4.729  0.3756 -0.4455  0.3409
  322MOL0     C43358   3.518   2.843   4.859 -0.4521 -0.1719 -0.2145
  322MOL0     O43359   3.397   2.918   4.817 -0.4059  0.0980 -0.3212
  322MOL0     C43360   3.285   2.843   4.785  1.1012 -0.4534  0.4432
  322MOL0     C43361   3.247   2.724   4.852  0.4429 -0.5933 -0.1903
  322MOL0     C43362   3.131   2.646   4.811  0.0403 -0.4623  0.5550
  322MOL0     C43363   3.052   2.696   4.710  0.1260  0.2165 -0.1217
  322MOL0     C43364   2.918   2.637   4.671  0.1596  0.4202 -0.1084
  322MOL0     O43365   2.829   2.725   4.602 -0.1913 -0.1644  0.2416
  322MOL0     C43366   2.723   2.663   4.538  0.6257 -0.7299  0.1117
  322MOL0     C43367   2.605   2.630   4.605  0.6105 -0.4195  0.0923
  322MOL0     C43368   2.495   2.578   4.534  0.7094  0.4012  0.1847
  322MOL0     C43369   2.497   2.547   4.403 -0.5325 -0.0171 -0.4680
  322MOL0     O43370   2.389   2.495   4.334  0.0476  0.1209  0.3523
  322MOL0     C43371   2.378   2.351   4.330  0.3984  0.0304 -0.0221
  322MOL0     C43372   2.251   2.290   4.266  0.2833 -0.8016 -0.1592
  322MOL0     C43373   2.253   2.301   4.105 -0.6867  0.3427 -0.6553
  322MOL0     C43374   2.134   2.217   4.049  0.2625  0.0247 -0.1203
  322MOL0     C43375   2.149   2.188   3.900  0.1929  0.2538  0.2463
  322MOL0     C43376   2.101   2.050   3.856 -1.0009  0.2537 -0.1242
  322MOL0     C43377   1.951   2.028   3.862 -0.1741 -0.4923  0.0124
  322MOL0     C43378   1.886   2.091   3.730  0.0287 -1.7847 -1.2192
  322MOL0    Cl43379   1.720   2.016   3.706  0.1193  0.2555 -0.2609
  322MOL0     C43380   2.610   2.590   4.332 -0.2612 -0.1596  0.0819
  322MOL0     C43381   2.722   2.644   4.398  0.1669  0.1226 -0.0261
  322MOL0     O43382   2.899   2.517   4.692  0.3562 -0.4567  0.8644
  322MOL0     C43383   3.094   2.811   4.642 -0.1678  0.5111 -0.7392
  322MOL0     C43384   3.203   2.877   4.679  0.3073  0.0864 -0.0211
  322MOL0     N43385   3.635   2.654   4.326  0.7521 -0.2036  0.4814
  322MOL0     N43386   3.589   2.543   4.317  0.1551 -0.0506  0.3179
  322MOL0     C43387   2.819   2.221   4.915 -0.6596 -0.0749 -0.5287
  322MOL0     C43388   2.694   2.225   4.973  0.9271 -0.4413 -0.8556
  322MOL0     C43389   2.299   2.088   5.108 -0.8143  0.4565  0.2691
  322MOL0     C43390   2.212   2.187   5.159 -0.7376 -0.2845 -0.2957
  322MOL0     C43391   2.087   2.163   5.218 -0.0275 -0.5447  0.2898
  322MOL0     C43392   2.043   2.032   5.233  0.6084 -0.3209 -0.8239
  322MOL0     O43393   1.915   2.008   5.287 -0.6054 -1.0910 -0.6994
  322MOL0     C43394   1.845   1.895   5.227 -0.2844 -0.4905 -0.0628
  322MOL0     C43395   1.700   1.905   5.276  0.9617  0.5329  0.2779
  322MOL0     C43396   1.620   2.002   5.189 -0.0177 -0.7288 -0.3402
  322MOL0     C43397   1.565   2.115   5.282  0.4245 -0.2943 -0.7250
  322MOL0     C43398   1.448   2.066   5.365  0.0231  0.1457 -0.0751
  322MOL0     C43399   1.336   2.042   5.404  0.0871 -0.4119  0.3683
  322MOL0     C43400   2.129   1.926   5.183  0.5124  0.0628 -0.3398
  322MOL0     C43401   2.255   1.953   5.120  0.1639  0.1303  0.5079
  322MOL0     C43402   2.349   1.840   5.090  0.3334  0.4264  0.1101
  322MOL0     H43403   2.740   1.978   5.207  1.4692  0.6529 -0.0379
  322MOL0     H43404   2.950   1.968   5.087  1.0056  1.1090 -1.4146
  322MOL0     H43405   3.130   2.171   5.093  2.9106 -0.8246  1.9439
  322MOL0     H43406   3.166   2.007   5.031 -2.1304 -0.2719  0.5303
  322MOL0     H43407   3.295   2.101   4.841  0.2589 -1.6426  1.0560
  322MOL0     H43408   3.366   2.121   5.002 -0.2144  1.1005  1.6878
  322MOL0     H43409   3.256   2.359   5.010  1.7152  0.0442  0.5824
  322MOL0     H43410   3.216   2.345   4.843  0.1082 -0.4556 -0.1270
  322MOL0     H43411   3.417   2.466   4.875 -1.3513  0.4771 -0.2419
  322MOL0     H43412   3.495   2.334   4.969  0.6625  1.3477  0.3004
  322MOL0     H43413   3.591   2.348   4.734  0.2258  1.6278 -1.2989
  322MOL0     H43414   3.495   2.192   4.750 -3.1019  0.3207  0.7028
  322MOL0     H43415   3.307   2.288   4.645 -0.4733 -0.3240 -1.1104
  322MOL0     H43416   3.384   2.435   4.641 -1.4418 -0.6517  1.4537
  322MOL0     H43417   3.384   2.314   4.417 -4.0982 -1.1991  2.7021
  322MOL0     H43418   3.457   2.178   4.497 -2.0257  0.6784  4.3318
  322MOL0     H43419   3.675   2.298   4.531 -2.1342 -0.6237  2.0531
  322MOL0     H43420   3.625   2.277   4.364 -2.8835  1.0814 -2.3721
  322MOL0     H43421   3.678   2.563   4.627 -0.2217 -1.3811 -0.2861
  322MOL0     H43422   3.768   2.816   4.556  0.6961  1.1687 -1.7651
  322MOL0     H43423   3.689   2.898   4.419  0.8079 -1.4558 -1.2400
  322MOL0     H43424   3.561   2.973   4.616  2.2487 -0.0580 -0.4390
  322MOL0     H43425   3.465   2.840   4.535 -0.2653 -2.7453  0.8305
  322MOL0     H43426   3.651   2.730   4.727  1.0069  0.7440  0.4622
  322MOL0     H43427   3.485   2.701   4.698 -1.4570  1.0138  0.5030
  322MOL0     H43428   3.591   2.920   4.886 -2.1401  0.9382  1.4370
  322MOL0     H43429   3.508   2.774   4.943 -0.7817  0.7495  0.5271
  322MOL0     H43430   3.299   2.687   4.940 -2.1014 -0.9573  1.2689
  322MOL0     H43431   3.106   2.550   4.856  0.4090 -1.1164 -0.5841
  322MOL0     H43432   2.604   2.649   4.712  0.6023 -3.1783  0.6596
  322MOL0     H43433   2.404   2.561   4.591  0.7880 -0.3435  0.0929
  322MOL0     H43434   2.470   2.309   4.289  1.4142  0.2542  1.9027
  322MOL0     H43435   2.370   2.324   4.436  2.5096 -0.2597  0.1153
  322MOL0     H43436   2.219   2.196   4.310  2.5467 -1.1143  0.9439
  322MOL0     H43437   2.173   2.360   4.297  2.0773 -0.2870  3.7688
  322MOL0     H43438   2.244   2.399   4.056 -1.0442 -0.9489 -3.3718
  322MOL0     H43439   2.348   2.263   4.067  1.8019  2.4408  2.8984
  322MOL0     H43440   2.041   2.274   4.058  1.0132  1.2436  0.1892
  322MOL0     H43441   2.122   2.122   4.101  1.4435 -0.9867 -1.5998
  322MOL0     H43442   2.255   2.200   3.880 -0.4026  2.9258 -2.0503
  322MOL0     H43443   2.084   2.262   3.852 -2.3140 -0.8367  1.7338
  322MOL0     H43444   2.134   2.027   3.754  1.5569  1.0245  0.4418
  322MOL0     H43445   2.151   1.984   3.928  0.0899  1.4683  0.2857
  322MOL0     H43446   1.911   2.076   3.952  1.7985  1.8801 -0.2678
  322MOL0     H43447   1.939   1.920   3.869  0.8291 -0.6597 -0.5886
  322MOL0     H43448   1.878   2.200   3.738 -3.6557 -1.8591 -2.0537
  322MOL0     H43449   1.948   2.075   3.641  3.4681  0.5169  0.5181
  322MOL0     H43450   2.601   2.583   4.225  2.2601  0.0307 -0.2124
  322MOL0     H43451   2.804   2.678   4.335  0.1451  0.7707  0.2878
  322MOL0     H43452   3.042   2.851   4.556 -3.9058 -1.2947  0.4653
  322MOL0     H43453   3.232   2.967   4.625  1.9944  0.2200  1.0191
  322MOL0     H43454   2.826   2.278   4.823 -6.5344 -2.5459 -2.9558
  322MOL0     H43455   2.627   2.305   4.946  1.2709 -0.1968 -0.9888
  322MOL0     H43456   2.229   2.294   5.162  2.4631 -0.7312  1.2666
  322MOL0     H43457   2.035   2.250   5.258  0.5228 -0.2388  0.3551
  322MOL0     H43458   1.889   1.802   5.263  3.4692  1.4455  0.8942
  322MOL0     H43459   1.845   1.885   5.118 -2.6614 -3.0971  0.0822
  322MOL0     H43460   1.701   1.917   5.384 -0.5109  0.8024  0.2707
  322MOL0     H43461   1.657   1.808   5.249  3.4846 -0.2775 -1.1730
  322MOL0     H43462   1.531   1.961   5.140 -0.1042 -0.8963 -0.0458
  322MOL0     H43463   1.676   2.048   5.107  0.0036  1.5479  0.8885
  322MOL0     H43464   1.642   2.156   5.348 -1.6010  2.0075  0.3604
  322MOL0     H43465   1.530   2.199   5.221 -0.3290  0.5041  0.7462
  322MOL0     H43466   1.234   2.024   5.431  0.2541 -1.3267  0.4428
  322MOL0     H43467   2.087   1.826   5.180 -0.6089  0.4745  0.7008
  322MOL0     H43468   2.445   1.859   5.139  1.6954 -0.0214 -2.2290
  322MOL0     H43469   2.306   1.742   5.111  0.9161  0.5955  2.3127
  322MOL0     H43470   2.382   1.842   4.986  1.7370  0.3993  0.5383
  323MOL0     O43471  11.062   2.478   6.735  0.1471  0.3264 -0.1683
  323MOL0     C43472  11.141   2.431   6.655  0.7729  0.1044 -0.3536
  323MOL0     O43473  11.275   2.416   6.680  0.3135 -0.1967 -0.0240
  323MOL0     C43474  11.321   2.497   6.772 -0.6805 -0.3222 -1.6363
  323MOL0     C43475  11.401   2.599   6.736 -0.3414  0.6120 -0.3735
  323MOL0     C43476  11.458   2.674   6.840  0.3163 -0.7809  0.7716
  323MOL0     C43477  11.445   2.654   6.975  0.1885  0.6520  0.1454
  323MOL0     O43478  11.525   2.735   7.052  0.5678  0.3295 -0.2548
  323MOL0     C43479  11.533   2.719   7.190 -0.6362  0.2251 -0.2959
  323MOL0     C43480  11.595   2.846   7.242 -0.6104 -0.7581  0.5330
  323MOL0     C43481  11.731   2.884   7.189 -0.0186  1.3560 -0.2569
  323MOL0     C43482  11.783   3.020   7.227  0.8812  0.1346  0.5304
  323MOL0     C43483  11.931   3.033   7.224 -0.4223 -0.0460 -0.1034
  323MOL0     C43484  11.975   3.163   7.287 -0.1948 -0.6461  0.4217
  323MOL0     C43485  12.118   3.201   7.267 -0.2059  0.3376  0.7248
  323MOL0     C43486  12.222   3.120   7.336  1.0131 -0.2523  0.3267
  323MOL0     N43487  12.262   2.993   7.273  0.1724 -0.6201 -0.4131
  323MOL0     C43488  12.267   2.973   7.130  0.3601 -0.3369 -0.1635
  323MOL0     C43489  12.330   2.850   7.121 -0.0621 -0.0257  0.3758
  323MOL0     C43490  12.363   2.782   6.991  0.1651 -0.0108 -0.6762
  323MOL0     C43491  12.513   2.826   6.961  0.3104 -0.3902 -0.5308
  323MOL0     C43492  12.551   2.771   6.820  0.0402 -0.4377  0.7076
  323MOL0     C43493  12.693   2.811   6.788  0.6461 -0.2681 -0.4366
  323MOL0     O43494  12.782   2.774   6.893  0.4377  0.5387 -0.3497
  323MOL0     C43495  12.911   2.810   6.872  0.3363 -0.0303 -0.0209
  323MOL0     C43496  12.968   2.860   6.755 -0.5842 -0.1903 -0.2457
  323MOL0     C43497  13.107   2.858   6.749  0.3623  0.5959  0.4393
  323MOL0     C43498  13.191   2.836   6.860 -0.5391 -0.7436  0.1812
  323MOL0     C43499  13.332   2.855   6.843 -0.3697 -0.7010  0.2285
  323MOL0     O43500  13.376   2.904   6.724 -1.0610  0.0412 -0.3930
  323MOL0     C43501  13.507   2.912   6.684  0.4676 -0.7987 -0.2599
  323MOL0     C43502  13.624   2.862   6.735 -0.0489 -0.2985  0.1088
  323MOL0     C43503  13.751   2.895   6.687  0.2979  0.0243  0.0567
  323MOL0     C43504  13.764   2.994   6.587  0.7193  0.7195  0.1210
  323MOL0     O43505  13.873   3.053   6.530 -0.0521  0.4429  0.4127
  323MOL0     C43506  14.002   3.009   6.572  0.7007 -0.1063  0.3208
  323MOL0     C43507  14.122   3.063   6.488  0.1344 -0.1562  0.6712
  323MOL0     C43508  14.258   3.006   6.549 -1.1005 -0.1590  0.4688
  323MOL0     C43509  14.271   2.854   6.530 -0.2643 -0.2692  0.6244
  323MOL0     C43510  14.394   2.790   6.465  0.4077  0.2706  1.3132
  323MOL0     C43511  14.518   2.787   6.558 -0.5300 -0.8309  1.2851
  323MOL0     C43512  14.631   2.709   6.475  0.1800 -0.3495 -0.1641
  323MOL0     C43513  14.697   2.785   6.364 -0.7365 -0.3109  0.7650
  323MOL0    Cl43514  14.811   2.905   6.412  0.2074  0.2098 -0.2146
  323MOL0     C43515  13.643   3.045   6.529 -0.0215 -0.9098  0.1758
  323MOL0     C43516  13.522   3.013   6.586 -0.4186  0.0468 -0.1105
  323MOL0     O43517  13.400   2.839   6.947 -0.4397  0.7128  0.5000
  323MOL0     C43518  13.130   2.790   6.977  0.1986 -0.4746 -0.7422
  323MOL0     C43519  12.989   2.781   6.979 -0.3587 -0.4748  0.4167
  323MOL0     N43520  12.346   2.800   7.245 -0.7588  0.4333 -0.4455
  323MOL0     N43521  12.313   2.883   7.333  0.2218  1.3632 -0.5799
  323MOL0     C43522  11.351   2.553   7.017  0.1881 -0.4347 -0.0919
  323MOL0     C43523  11.285   2.478   6.912  0.6384 -0.2668 -0.3138
  323MOL0     C43524  11.078   2.348   6.552 -0.8649 -0.3772 -0.3047
  323MOL0     C43525  11.158   2.247   6.503  0.0368 -0.0059 -0.1491
  323MOL0     C43526  11.116   2.158   6.402 -0.4608 -0.3450  0.6920
  323MOL0     C43527  10.981   2.169   6.354 -0.3908 -0.0397 -0.8196
  323MOL0     O43528  10.940   2.089   6.254  0.1983 -0.2131  0.8327
  323MOL0     C43529  10.831   2.129   6.167  0.1754 -0.3180  0.3414
  323MOL0     C43530  10.863   2.260   6.081  0.2374 -0.1594  0.6595
  323MOL0     C43531  10.984   2.251   5.992 -0.4627 -1.0721  1.8860
  323MOL0     C43532  10.980   2.392   5.925 -0.6471 -0.0871  0.4095
  323MOL0     C43533  10.877   2.400   5.820  0.2832  0.1768  0.4076
  323MOL0     C43534  10.784   2.372   5.746  0.6174 -0.7449  0.0244
  323MOL0     C43535  10.897   2.262   6.409 -1.1928 -0.5077  0.1706
  323MOL0     C43536  10.948   2.359   6.502 -0.5483 -0.2261  0.5451
  323MOL0     C43537  10.843   2.464   6.530 -0.6245 -0.4239 -0.1991
  323MOL0     H43538  11.430   2.629   6.636  0.6239  1.0516  0.0329
  323MOL0     H43539  11.507   2.765   6.808 -0.6430  0.2108  2.0333
  323MOL0     H43540  11.432   2.706   7.229  0.5901 -2.9739  2.2393
  323MOL0     H43541  11.600   2.637   7.217 -2.2251 -1.4406 -1.1918
  323MOL0     H43542  11.610   2.833   7.350  3.3685 -0.9920  0.0984
  323MOL0     H43543  11.526   2.928   7.220  0.2302 -0.3028 -0.4956
  323MOL0     H43544  11.739   2.880   7.080 -2.4351  1.2091 -0.4660
  323MOL0     H43545  11.807   2.816   7.229 -0.3538  1.5441  0.7348
  323MOL0     H43546  11.728   3.090   7.164 -3.0236 -1.1374  2.2089
  323MOL0     H43547  11.741   3.033   7.327  3.7267 -0.8893  1.9437
  323MOL0     H43548  11.977   2.947   7.273  2.8480  0.8142 -1.3645
  323MOL0     H43549  11.969   3.034   7.121  1.1913  2.0930  0.4312
  323MOL0     H43550  11.916   3.235   7.229 -1.6713 -0.6886  1.8095
  323MOL0     H43551  11.947   3.163   7.392 -0.1294  1.8965  0.5183
  323MOL0     H43552  12.125   3.299   7.316  0.8005 -1.1391  3.8235
  323MOL0     H43553  12.139   3.214   7.160  2.4118 -0.3215  1.0789
  323MOL0     H43554  12.319   3.172   7.332  0.2842  1.0589 -1.4964
  323MOL0     H43555  12.186   3.104   7.438 -0.9890 -3.2004 -0.7018
  323MOL0     H43556  12.231   3.043   7.055  3.0909  2.0332  0.5250
  323MOL0     H43557  12.357   2.673   7.003  1.8920 -0.0903 -0.2780
  323MOL0     H43558  12.290   2.815   6.917 -1.8354 -1.4279  0.5282
  323MOL0     H43559  12.504   2.934   6.942 -2.5432 -0.9487 -3.3946
  323MOL0     H43560  12.586   2.795   7.036  1.4443 -1.7836 -2.1496
  323MOL0     H43561  12.475   2.815   6.756 -0.0130  1.0951  1.7707
  323MOL0     H43562  12.537   2.663   6.816 -0.4664 -0.3394 -0.4032
  323MOL0     H43563  12.686   2.920   6.783  1.4822 -0.2636 -2.4058
  323MOL0     H43564  12.720   2.766   6.692 -1.1536 -2.6957  0.1007
  323MOL0     H43565  12.907   2.891   6.670 -0.4267 -2.4307 -1.2299
  323MOL0     H43566  13.149   2.893   6.655  0.1257 -1.8695 -0.6474
  323MOL0     H43567  13.621   2.782   6.809  3.7488 -1.1221 -0.4302
  323MOL0     H43568  13.830   2.829   6.723 -1.2121 -2.3417 -0.6883
  323MOL0     H43569  14.017   3.047   6.674 -0.5974 -0.7016  0.7450
  323MOL0     H43570  14.005   2.900   6.571  2.2836 -0.0872 -0.2083
  323MOL0     H43571  14.103   3.041   6.383 -3.3233  0.0997  1.1061
  323MOL0     H43572  14.115   3.171   6.503 -0.9009 -0.0268 -0.5616
  323MOL0     H43573  14.341   3.061   6.503 -1.5248  0.1269  0.0376
  323MOL0     H43574  14.255   3.027   6.656 -1.1123 -1.5810  0.7745
  323MOL0     H43575  14.187   2.826   6.466 -0.6441 -2.2997  1.8963
  323MOL0     H43576  14.241   2.810   6.626  1.8358 -0.4414  1.2590
  323MOL0     H43577  14.407   2.842   6.370  0.9681  1.1543  1.8672
  323MOL0     H43578  14.374   2.683   6.449 -2.0069  0.5565  2.0169
  323MOL0     H43579  14.553   2.889   6.578 -0.4963 -0.3087 -1.1031
  323MOL0     H43580  14.487   2.734   6.649 -0.6571 -1.1529  1.0564
  323MOL0     H43581  14.600   2.614   6.432  0.7055  0.2075 -1.8464
  323MOL0     H43582  14.713   2.677   6.540 -0.2329  2.8905  2.2516
  323MOL0     H43583  14.745   2.703   6.309 -1.7580  0.4036 -1.2993
  323MOL0     H43584  14.622   2.823   6.294  1.9024 -1.1743 -2.8303
  323MOL0     H43585  13.649   3.111   6.443  1.2408 -2.5039 -1.0356
  323MOL0     H43586  13.429   3.061   6.559 -2.1429 -1.8650  1.9628
  323MOL0     H43587  13.175   2.767   7.073 -0.3465  0.6043 -0.2144
  323MOL0     H43588  12.949   2.744   7.073 -0.8480 -2.1026 -0.4039
  323MOL0     H43589  11.345   2.515   7.119 -0.2958  0.3179  0.1673
  323MOL0     H43590  11.224   2.394   6.942 -0.0141  0.5466  0.7558
  323MOL0     H43591  11.262   2.232   6.531  1.1229  0.9553 -3.3132
  323MOL0     H43592  11.183   2.078   6.372  0.7628  0.4184  1.2745
  323MOL0     H43593  10.743   2.140   6.232 -0.9564 -1.1453 -0.9996
  323MOL0     H43594  10.806   2.051   6.094 -2.5429  0.6192  0.1754
  323MOL0     H43595  10.866   2.357   6.132 -0.5186  3.1909 -4.7826
  323MOL0     H43596  10.777   2.275   6.015  2.0323 -1.3088 -2.1362
  323MOL0     H43597  10.984   2.173   5.916  3.3212  1.5375 -1.1515
  323MOL0     H43598  11.080   2.239   6.043  0.1352  0.0266  1.0367
  323MOL0     H43599  10.975   2.482   5.988 -0.4595 -0.0372  0.3554
  323MOL0     H43600  11.083   2.395   5.889 -1.4523 -2.2279 -2.4461
  323MOL0     H43601  10.700   2.345   5.686  0.1261  1.7577 -0.5349
  323MOL0     H43602  10.794   2.277   6.379 -1.2876  0.7885  1.0805
  323MOL0     H43603  10.756   2.415   6.576  0.8301 -2.0543  0.9455
  323MOL0     H43604  10.880   2.541   6.598 -1.5997 -0.9088  0.9278
  323MOL0     H43605  10.812   2.519   6.441 -0.4393 -0.0496 -0.0371
  324MOL0     O43606   8.996   5.434   5.148  0.3789  0.1976  0.4092
  324MOL0     C43607   8.966   5.334   5.078 -0.8105  0.3573 -0.8294
  324MOL0     O43608   9.054   5.262   5.007  0.2189  0.2134 -0.3890
  324MOL0     C43609   9.185   5.252   5.040 -0.8816 -0.1985 -0.8211
  324MOL0     C43610   9.232   5.235   5.172 -0.1279  0.5002 -0.4245
  324MOL0     C43611   9.366   5.220   5.193 -0.0510  0.1163  0.4037
  324MOL0     C43612   9.460   5.234   5.090 -1.0346  0.2128 -0.1564
  324MOL0     O43613   9.597   5.214   5.113 -0.0113 -0.8820  0.2539
  324MOL0     C43614   9.675   5.331   5.104 -0.2249  0.5191 -0.6170
  324MOL0     C43615   9.817   5.309   5.156 -0.1568 -0.6345  0.5949
  324MOL0     C43616   9.824   5.286   5.317  0.8936 -0.0498 -0.7345
  324MOL0     C43617   9.946   5.201   5.364  0.0350 -0.3072  0.8961
  324MOL0     C43618  10.073   5.279   5.344  0.1872  0.9087 -0.7409
  324MOL0     C43619  10.193   5.210   5.412  0.3006 -0.3933  0.2806
  324MOL0     C43620  10.244   5.087   5.334 -0.5213 -0.4742  0.4269
  324MOL0     C43621  10.332   5.146   5.224 -0.3249 -0.4693  0.1514
  324MOL0     N43622  10.425   5.057   5.150 -0.6732  0.0952 -0.9807
  324MOL0     C43623  10.408   4.965   5.046 -0.0831 -0.1805  0.4809
  324MOL0     C43624  10.536   4.922   5.015 -0.0382 -0.3554 -0.3822
  324MOL0     C43625  10.578   4.833   4.892  0.4912 -0.0884 -1.1219
  324MOL0     C43626  10.654   4.898   4.775 -0.4779 -0.0012 -0.4393
  324MOL0     C43627  10.697   4.810   4.662  0.2273  0.5255  0.2300
  324MOL0     C43628  10.830   4.748   4.681  0.9483  0.6694  0.6021
  324MOL0     O43629  10.919   4.833   4.609  0.6082  0.3778  1.1864
  324MOL0     C43630  11.049   4.831   4.639 -0.1527 -0.0904  0.2155
  324MOL0     C43631  11.111   4.759   4.746 -0.0468 -0.2688 -0.2109
  324MOL0     C43632  11.251   4.747   4.751 -0.0716 -0.1063 -0.2584
  324MOL0     C43633  11.332   4.801   4.655 -0.5248  0.1214  0.3005
  324MOL0     C43634  11.479   4.785   4.654  0.3787  1.0831 -0.2557
  324MOL0     O43635  11.553   4.841   4.558  0.6753  0.7603 -0.2671
  324MOL0     C43636  11.681   4.800   4.554 -0.4539  0.2426 -0.0005
  324MOL0     C43637  11.785   4.892   4.587 -0.3232  0.4307 -0.0667
  324MOL0     C43638  11.923   4.862   4.574  0.6872 -0.2847  0.0925
  324MOL0     C43639  11.954   4.726   4.545  0.3046 -0.7841  0.3441
  324MOL0     O43640  12.084   4.684   4.519  0.3299  0.0636 -0.0733
  324MOL0     C43641  12.201   4.757   4.553  0.4305 -0.1041 -0.4508
  324MOL0     C43642  12.293   4.757   4.435 -0.2816 -0.2147  0.0245
  324MOL0     C43643  12.425   4.822   4.466 -0.4309  0.0369 -0.5318
  324MOL0     C43644  12.519   4.802   4.348 -0.6875 -0.9560  0.3358
  324MOL0     C43645  12.625   4.905   4.373 -1.1572 -0.2184  0.2023
  324MOL0     C43646  12.765   4.844   4.350  0.0202  1.1542 -0.6142
  324MOL0     C43647  12.789   4.805   4.205  0.0772  0.6113  0.5123
  324MOL0     C43648  12.911   4.719   4.166  0.5322 -0.1519 -0.4465
  324MOL0    Cl43649  13.060   4.794   4.236  0.4445 -0.2519  0.6602
  324MOL0     C43650  11.856   4.636   4.515 -0.8777 -0.2177 -0.6827
  324MOL0     C43651  11.724   4.671   4.513  0.1055  0.1959 -0.7649
  324MOL0     O43652  11.528   4.714   4.742 -0.4195  0.1501  0.5607
  324MOL0     C43653  11.268   4.869   4.553 -0.7216  0.4528  0.4978
  324MOL0     C43654  11.130   4.894   4.544 -1.5322  0.3189  0.5976
  324MOL0     N43655  10.625   4.982   5.106 -0.4776 -0.2573 -0.0106
  324MOL0     N43656  10.559   5.055   5.190  0.0444  0.5728 -0.1866
  324MOL0     C43657   9.419   5.248   4.962  0.4324  0.9107 -0.0659
  324MOL0     C43658   9.275   5.263   4.928 -0.4918  0.3583  0.1190
  324MOL0     C43659   8.816   5.299   5.059  0.3024 -0.0643 -0.2738
  324MOL0     C43660   8.777   5.241   4.940  0.4302  0.8233  1.0601
  324MOL0     C43661   8.646   5.214   4.911  0.3077  1.2453  0.0337
  324MOL0     C43662   8.546   5.254   5.003  0.3833 -0.3370  0.2102
  324MOL0     O43663   8.417   5.231   4.962 -0.0634 -0.1029 -0.1895
  324MOL0     C43664   8.329   5.340   4.982  0.1211 -0.8803 -0.3421
  324MOL0     C43665   8.184   5.303   4.939 -0.0802  0.0266 -0.2937
  324MOL0     C43666   8.174   5.255   4.794  1.2172  0.2959 -0.4459
  324MOL0     C43667   8.038   5.218   4.742 -0.3085  0.3459  0.3394
  324MOL0     C43668   7.918   5.292   4.805  0.3008  0.1279  0.3130
  324MOL0     C43669   7.829   5.359   4.845  0.4102 -0.6290  0.3269
  324MOL0     C43670   8.578   5.300   5.129 -0.0206  0.4706 -0.4311
  324MOL0     C43671   8.716   5.326   5.157  0.0126 -0.6417 -1.6490
  324MOL0     C43672   8.749   5.373   5.302 -0.0054  0.7695  0.4665
  324MOL0     H43673   9.159   5.251   5.250  1.2667  4.8212  0.2476
  324MOL0     H43674   9.396   5.197   5.295  1.7304 -0.2552 -0.1702
  324MOL0     H43675   9.684   5.360   4.999 -1.0159 -2.9618 -1.7646
  324MOL0     H43676   9.629   5.414   5.160  3.9431  1.0767  2.4667
  324MOL0     H43677   9.887   5.388   5.127  2.7533 -3.6039 -1.1433
  324MOL0     H43678   9.862   5.221   5.110  1.5639  1.1384 -1.3329
  324MOL0     H43679   9.732   5.237   5.351  2.1906 -1.5386  0.7730
  324MOL0     H43680   9.830   5.382   5.369 -0.4995  0.2652 -1.1104
  324MOL0     H43681   9.952   5.181   5.472  1.9126  1.9924  1.3149
  324MOL0     H43682   9.947   5.101   5.322  1.3246  0.1259 -0.1529
  324MOL0     H43683  10.093   5.292   5.237  5.4965  1.5383  0.0593
  324MOL0     H43684  10.071   5.380   5.384 -0.8201  1.1756 -1.4130
  324MOL0     H43685  10.270   5.283   5.438 -0.0042 -0.5746  1.7631
  324MOL0     H43686  10.168   5.170   5.510 -0.1174 -3.3352 -0.9307
  324MOL0     H43687  10.166   5.025   5.290 -3.6982  2.6693  1.1852
  324MOL0     H43688  10.308   5.028   5.399 -0.7352 -0.4884  0.6238
  324MOL0     H43689  10.271   5.189   5.144 -2.0104  0.2042  1.7374
  324MOL0     H43690  10.398   5.222   5.267  0.8395 -0.3679 -1.6862
  324MOL0     H43691  10.316   4.947   4.991  0.0668  0.0243  0.1562
  324MOL0     H43692  10.629   4.743   4.928 -0.2913 -0.9952 -2.2368
  324MOL0     H43693  10.486   4.790   4.853 -0.9389  0.2975  1.5799
  324MOL0     H43694  10.591   4.978   4.737 -1.1044 -0.5807 -0.6344
  324MOL0     H43695  10.743   4.952   4.808 -2.5356  3.2832  0.1624
  324MOL0     H43696  10.697   4.874   4.573  1.1096  0.4951  0.2022
  324MOL0     H43697  10.622   4.734   4.639  1.2882 -0.3641 -0.3824
  324MOL0     H43698  10.830   4.647   4.639  1.6793  0.4889  1.0022
  324MOL0     H43699  10.856   4.736   4.787  1.2609 -2.1821  0.2910
  324MOL0     H43700  11.048   4.704   4.815 -2.0833  0.5939 -1.2899
  324MOL0     H43701  11.295   4.681   4.825  1.3648 -0.4937 -1.3979
  324MOL0     H43702  11.762   4.996   4.608 -4.9964  0.1849 -2.5540
  324MOL0     H43703  12.002   4.932   4.600  1.9496 -2.3075  2.1066
  324MOL0     H43704  12.186   4.860   4.584 -1.0608 -0.6608  0.8179
  324MOL0     H43705  12.253   4.712   4.638 -1.4067  0.1634  0.8633
  324MOL0     H43706  12.315   4.653   4.410 -0.8543 -0.5282  0.8098
  324MOL0     H43707  12.238   4.793   4.347 -0.3231 -1.2986 -0.4005
  324MOL0     H43708  12.406   4.924   4.500 -1.6245 -0.0267 -0.9655
  324MOL0     H43709  12.477   4.768   4.546  0.7199 -0.1910 -1.4003
  324MOL0     H43710  12.470   4.822   4.252  1.1085 -3.4605 -1.2142
  324MOL0     H43711  12.563   4.703   4.340  2.4821  0.4416 -2.8737
  324MOL0     H43712  12.621   4.945   4.475  2.8639 -2.6262  1.5682
  324MOL0     H43713  12.601   4.985   4.303 -0.9041  0.3162  0.7212
  324MOL0     H43714  12.839   4.923   4.367 -0.4032  1.1460  1.5486
  324MOL0     H43715  12.778   4.759   4.418 -1.7502  1.6180  0.3525
  324MOL0     H43716  12.791   4.901   4.152 -0.3444  1.9980  2.8475
  324MOL0     H43717  12.702   4.753   4.165  0.6727  0.0827 -0.1014
  324MOL0     H43718  12.899   4.623   4.218  2.7947 -0.7847 -0.9537
  324MOL0     H43719  12.924   4.697   4.060 -0.6198 -0.5953 -0.5103
  324MOL0     H43720  11.874   4.539   4.470  1.0843  0.4857 -1.5364
  324MOL0     H43721  11.641   4.603   4.498  1.0311 -1.3628  0.7394
  324MOL0     H43722  11.323   4.904   4.466 -2.7857 -0.0500 -1.0814
  324MOL0     H43723  11.092   4.944   4.455 -0.7472 -0.0543  0.0400
  324MOL0     H43724   9.490   5.260   4.881  3.4090 -0.0519  2.2179
  324MOL0     H43725   9.243   5.299   4.831  2.9703  2.1231 -0.5214
  324MOL0     H43726   8.851   5.243   4.860 -0.3540 -0.0317  0.2906
  324MOL0     H43727   8.611   5.166   4.820 -2.3997 -2.9628  2.8826
  324MOL0     H43728   8.365   5.427   4.926  0.4950 -1.3967 -0.9113
  324MOL0     H43729   8.328   5.379   5.085  0.9340  0.6908 -0.8983
  324MOL0     H43730   8.117   5.384   4.968 -2.3718 -0.4894 -3.6204
  324MOL0     H43731   8.157   5.219   5.003  2.3319 -0.0209  0.7859
  324MOL0     H43732   8.253   5.181   4.781  1.1279  0.5568 -2.7463
  324MOL0     H43733   8.204   5.343   4.736 -1.8449  2.0753  0.4227
  324MOL0     H43734   8.026   5.230   4.634 -2.4865  0.4031  0.5296
  324MOL0     H43735   8.030   5.110   4.757 -1.1140  0.3968  0.3429
  324MOL0     H43736   7.762   5.424   4.897  1.7624  1.0216  0.1122
  324MOL0     H43737   8.506   5.330   5.204  0.3577  0.1004  0.0891
  324MOL0     H43738   8.815   5.295   5.340  3.5631  3.1625 -0.3182
  324MOL0     H43739   8.807   5.466   5.305 -0.4151  1.1080 -1.1920
  324MOL0     H43740   8.659   5.397   5.359 -1.2772 -0.3279 -1.0003
  325MOL0     O43741   0.244   3.929   8.355 -0.0789  0.1712 -0.3811
  325MOL0     C43742   0.256   3.819   8.307  0.3653  0.9164  0.1535
  325MOL0     O43743   0.371   3.761   8.271  0.7935 -0.2559  0.6221
  325MOL0     C43744   0.489   3.836   8.281 -0.5840  0.4682 -0.4025
  325MOL0     C43745   0.540   3.869   8.408  0.5665 -0.0826  0.6109
  325MOL0     C43746   0.660   3.940   8.419 -0.9891 -0.0188 -1.0147
  325MOL0     C43747   0.745   3.964   8.310  0.1776 -0.2529 -1.1362
  325MOL0     O43748   0.868   4.022   8.314 -0.6088 -0.0467  0.3965
  325MOL0     C43749   0.907   4.078   8.442  0.6967  0.2809 -0.1976
  325MOL0     C43750   1.026   4.157   8.427  0.5386  0.3208 -0.0897
  325MOL0     C43751   1.166   4.084   8.421 -0.1017 -0.4697 -0.5070
  325MOL0     C43752   1.272   4.189   8.441 -0.2662  1.2649 -0.1901
  325MOL0     C43753   1.410   4.138   8.438 -0.4504  0.2139  0.7293
  325MOL0     C43754   1.501   4.249   8.421 -0.3334 -0.0418 -0.3801
  325MOL0     C43755   1.643   4.199   8.392 -0.5272 -1.1809  0.1475
  325MOL0     C43756   1.740   4.312   8.362  0.2460 -1.2442 -0.7571
  325MOL0     N43757   1.880   4.282   8.337 -0.2108  0.4502 -1.2018
  325MOL0     C43758   1.961   4.228   8.428 -1.5954 -0.4745 -0.2740
  325MOL0     C43759   2.086   4.236   8.381  0.2756  0.1103  0.0261
  325MOL0     C43760   2.218   4.181   8.448 -0.1833 -0.2589  0.1276
  325MOL0     C43761   2.332   4.276   8.413 -0.7458  0.1274  0.5832
  325MOL0     C43762   2.311   4.420   8.459 -0.0064 -0.3941 -0.7909
  325MOL0     C43763   2.442   4.500   8.432 -0.2587  0.0888 -0.7170
  325MOL0     O43764   2.548   4.448   8.515 -0.0004  0.0777 -0.7037
  325MOL0     C43765   2.673   4.485   8.472  0.6875 -0.4333  0.2143
  325MOL0     C43766   2.737   4.599   8.521 -1.0106  0.8394  0.1431
  325MOL0     C43767   2.865   4.634   8.486 -0.7587 -0.2790  0.5870
  325MOL0     C43768   2.940   4.549   8.399 -0.5162  0.2356 -0.3278
  325MOL0     C43769   3.083   4.581   8.362  0.3766 -0.4736  0.2397
  325MOL0     O43770   3.148   4.516   8.259  0.0199 -0.2743 -0.5273
  325MOL0     C43771   3.286   4.522   8.268  0.3274  0.0700  0.1163
  325MOL0     C43772   3.366   4.583   8.164 -0.2033  0.3866 -0.3178
  325MOL0     C43773   3.504   4.591   8.178  0.5462  0.3682 -0.0290
  325MOL0     C43774   3.560   4.540   8.293  0.1707  0.3482  0.2164
  325MOL0     O43775   3.698   4.555   8.294  0.0195 -0.1146 -0.1590
  325MOL0     C43776   3.781   4.468   8.379  0.0480  0.0893 -0.7630
  325MOL0     C43777   3.924   4.491   8.341 -0.4253 -0.0961 -0.1824
  325MOL0     C43778   3.972   4.634   8.357  0.1251 -0.1866 -0.1670
  325MOL0     C43779   4.118   4.660   8.328 -0.7534 -0.3927  0.3156
  325MOL0     C43780   4.195   4.583   8.437 -0.2416 -0.2317 -0.3866
  325MOL0     C43781   4.346   4.637   8.446  0.3982  0.5595  0.4035
  325MOL0     C43782   4.447   4.564   8.355  0.1984  0.0444  0.0345
  325MOL0     C43783   4.568   4.640   8.309  0.6717 -0.4898 -1.0937
  325MOL0    Cl43784   4.689   4.528   8.250  0.0800 -0.3182  0.4517
  325MOL0     C43785   3.491   4.477   8.394 -0.7820 -0.5723 -0.2223
  325MOL0     C43786   3.348   4.466   8.380  0.1944 -0.1770 -0.9242
  325MOL0     O43787   3.137   4.662   8.433  0.4169  0.0744 -0.3341
  325MOL0     C43788   2.885   4.430   8.350 -0.3174  0.1734 -0.5549
  325MOL0     C43789   2.750   4.399   8.388 -0.0871 -0.3791  0.1396
  325MOL0     N43790   2.085   4.306   8.261  1.2842  0.1446  0.6917
  325MOL0     N43791   1.955   4.330   8.232 -0.0775  0.0734 -0.4121
  325MOL0     C43792   0.699   3.916   8.185  0.3297 -0.4762 -0.2162
  325MOL0     C43793   0.578   3.857   8.176  0.3674  0.1415  0.4241
  325MOL0     C43794   0.137   3.741   8.277 -0.8124 -0.1056 -0.0500
  325MOL0     C43795   0.154   3.607   8.247 -0.8831  0.7225 -0.0348
  325MOL0     C43796   0.046   3.515   8.230  0.3988  0.8837  0.4687
  325MOL0     C43797  -0.085   3.564   8.244  0.1210  0.8644 -0.3624
  325MOL0     O43798  -0.203   3.485   8.238 -0.2593  0.3951 -0.7243
  325MOL0     C43799  -0.187   3.347   8.282  0.0430  0.8897 -0.1510
  325MOL0     C43800  -0.169   3.250   8.159 -0.0755  0.0131 -0.8387
  325MOL0     C43801  -0.201   3.096   8.184 -0.9222  0.2505  0.3794
  325MOL0     C43802  -0.123   3.026   8.296  0.5362  0.4665  0.0838
  325MOL0     C43803   0.018   3.018   8.263 -0.3013 -0.0955 -0.0588
  325MOL0     C43804   0.127   2.997   8.219 -0.0243  0.7529 -0.4033
  325MOL0     C43805  -0.105   3.700   8.275 -0.7941  0.2915  1.0434
  325MOL0     C43806   0.001   3.788   8.282  0.1937  0.2039  0.5235
  325MOL0     C43807  -0.037   3.932   8.300  0.2344  0.1160  0.6225
  325MOL0     H43808   0.490   3.849   8.502  1.6763  0.6493  1.3792
  325MOL0     H43809   0.692   3.950   8.522 -1.3958 -0.1549 -0.8707
  325MOL0     H43810   0.825   4.141   8.476  0.5765 -0.9964  2.1119
  325MOL0     H43811   0.916   4.002   8.520 -3.2200 -0.7060 -0.4923
  325MOL0     H43812   1.033   4.235   8.503 -1.3018  0.9650 -0.5363
  325MOL0     H43813   1.011   4.206   8.330 -0.6864 -1.1383 -0.6773
  325MOL0     H43814   1.174   4.036   8.323  1.1822  1.2518 -1.3037
  325MOL0     H43815   1.183   4.014   8.504 -2.2203  0.1069  0.4927
  325MOL0     H43816   1.258   4.262   8.360  0.2293 -2.0865 -3.5697
  325MOL0     H43817   1.252   4.239   8.537  0.6262 -0.8445  1.1631
  325MOL0     H43818   1.436   4.079   8.527 -1.1640  2.0300  2.2005
  325MOL0     H43819   1.425   4.059   8.363  1.1983  0.2449  1.0061
  325MOL0     H43820   1.463   4.305   8.335 -0.5574  1.9871  0.9839
  325MOL0     H43821   1.480   4.312   8.508  0.5351 -0.4826  0.1567
  325MOL0     H43822   1.655   4.133   8.306  3.2651  0.1050 -0.4943
  325MOL0     H43823   1.681   4.144   8.479  0.3931 -3.0210 -1.3524
  325MOL0     H43824   1.708   4.369   8.274  1.5157 -1.1541 -1.1821
  325MOL0     H43825   1.736   4.378   8.450 -1.3047 -1.5972 -0.5309
  325MOL0     H43826   1.942   4.180   8.524  0.4488 -2.3380 -0.7104
  325MOL0     H43827   2.207   4.171   8.556 -0.9061 -1.5105 -0.0271
  325MOL0     H43828   2.255   4.088   8.402 -2.7589 -1.6379  0.6325
  325MOL0     H43829   2.425   4.233   8.453 -0.8906 -0.8462 -0.0906
  325MOL0     H43830   2.338   4.269   8.304 -0.3202 -0.4665  0.6387
  325MOL0     H43831   2.277   4.425   8.563 -0.6266  3.0632 -1.0489
  325MOL0     H43832   2.225   4.462   8.406  0.5196 -1.5549 -2.6548
  325MOL0     H43833   2.434   4.606   8.455 -0.5065  0.1546 -1.1056
  325MOL0     H43834   2.465   4.491   8.326 -1.5750  0.1977 -1.0342
  325MOL0     H43835   2.686   4.653   8.600  2.8479  2.2825  1.8901
  325MOL0     H43836   2.902   4.733   8.509 -1.7279  1.1340 -3.1877
  325MOL0     H43837   3.307   4.617   8.080 -1.4857 -0.4120  0.2338
  325MOL0     H43838   3.565   4.641   8.103 -0.7107  1.4617 -0.3728
  325MOL0     H43839   3.769   4.509   8.479  2.1880  1.6219 -1.0642
  325MOL0     H43840   3.751   4.362   8.372 -1.6192  0.6311 -3.3717
  325MOL0     H43841   3.986   4.440   8.415  0.6456 -0.5226 -1.3238
  325MOL0     H43842   3.955   4.449   8.244  0.5357  0.1665  0.0008
  325MOL0     H43843   3.903   4.694   8.297 -1.1568 -2.3692 -0.9960
  325MOL0     H43844   3.947   4.680   8.454 -2.1632 -2.1467  0.2828
  325MOL0     H43845   4.140   4.767   8.335  3.8289 -0.8990 -2.2540
  325MOL0     H43846   4.141   4.619   8.229  1.9885  0.6378  0.4191
  325MOL0     H43847   4.216   4.479   8.412 -2.4485 -0.6855 -0.5648
  325MOL0     H43848   4.148   4.594   8.536  1.2691 -0.5609  0.4021
  325MOL0     H43849   4.350   4.741   8.414 -1.6157  0.1818 -1.3554
  325MOL0     H43850   4.366   4.632   8.553 -0.8944 -0.5553  0.6298
  325MOL0     H43851   4.390   4.527   8.270  0.6437  0.3512 -0.4033
  325MOL0     H43852   4.482   4.477   8.412 -2.6138 -1.0470  0.2689
  325MOL0     H43853   4.536   4.718   8.239  1.0582  1.4580  0.7903
  325MOL0     H43854   4.612   4.683   8.400  0.7397  0.9385 -1.7739
  325MOL0     H43855   3.536   4.443   8.487 -1.2590  0.5061  0.4278
  325MOL0     H43856   3.279   4.417   8.448  0.1238  2.6109  1.2130
  325MOL0     H43857   2.946   4.375   8.278  1.1720 -0.2351  0.9409
  325MOL0     H43858   2.704   4.307   8.353  0.3776 -1.3586  2.0178
  325MOL0     H43859   0.742   3.960   8.096  0.2629  0.6800  0.3066
  325MOL0     H43860   0.546   3.811   8.083 -3.1763 -0.3226  1.7552
  325MOL0     H43861   0.255   3.567   8.245  0.0201  2.8718 -0.0482
  325MOL0     H43862   0.056   3.409   8.211  1.0714  0.7912  1.2651
  325MOL0     H43863  -0.271   3.330   8.350  0.8081  0.1290  0.6334
  325MOL0     H43864  -0.099   3.341   8.347 -2.4965 -0.4018  3.4376
  325MOL0     H43865  -0.066   3.261   8.123  0.4228 -1.5898  0.0341
  325MOL0     H43866  -0.231   3.278   8.073 -0.3644  3.3917  0.3269
  325MOL0     H43867  -0.186   3.051   8.085 -1.2220 -1.4735  1.0863
  325MOL0     H43868  -0.309   3.090   8.200 -0.7152 -2.1201  1.1671
  325MOL0     H43869  -0.133   3.081   8.390 -1.5153 -0.4217  0.4431
  325MOL0     H43870  -0.171   2.928   8.295  1.2993  0.0829 -0.6739
  325MOL0     H43871   0.229   2.990   8.189 -0.0840  1.8696 -0.9294
  325MOL0     H43872  -0.204   3.741   8.289 -0.1549  1.1179  3.9382
  325MOL0     H43873   0.022   3.995   8.233  0.4349  1.3007  1.8665
  325MOL0     H43874  -0.144   3.953   8.290  0.4405  0.8575 -0.1437
  325MOL0     H43875  -0.003   3.965   8.398  0.7517  0.5509  0.2953
  326MOL0     O43876   2.501   9.332  11.102  0.6244  0.6065  0.0901
  326MOL0     C43877   2.504   9.379  10.988 -0.7954  0.4769  0.3534
  326MOL0     O43878   2.610   9.450  10.939 -0.2967  0.1280  0.5737
  326MOL0     C43879   2.724   9.427  11.016  0.6949 -0.5545 -0.3314
  326MOL0     C43880   2.755   9.518  11.121  1.2872  0.3133 -0.1450
  326MOL0     C43881   2.873   9.498  11.186 -0.5534  0.0097  0.9759
  326MOL0     C43882   2.962   9.398  11.150 -0.3567  0.3713 -0.4840
  326MOL0     O43883   3.082   9.375  11.222 -0.5892 -0.5658  0.5326
  326MOL0     C43884   3.174   9.493  11.256 -0.0288 -1.0331  0.6043
  326MOL0     C43885   3.225   9.555  11.122  0.7547  0.3329 -0.3784
  326MOL0     C43886   3.331   9.473  11.057 -0.3019 -0.2975 -0.2916
  326MOL0     C43887   3.398   9.539  10.944 -0.2910 -0.4520 -0.6916
  326MOL0     C43888   3.476   9.440  10.864 -0.4728 -0.2449  0.4839
  326MOL0     C43889   3.559   9.521  10.758 -0.3139 -0.2361 -0.5509
  326MOL0     C43890   3.645   9.421  10.686  0.6538  0.4044  0.0179
  326MOL0     C43891   3.770   9.494  10.624  0.0633  0.1091  0.1031
  326MOL0     N43892   3.857   9.427  10.538  0.6789  0.2970  0.2252
  326MOL0     C43893   3.956   9.491  10.473  0.3037 -0.3695 -0.4360
  326MOL0     C43894   4.040   9.398  10.432  0.6263 -0.5957 -0.1081
  326MOL0     C43895   4.165   9.445  10.365  0.3574 -0.4653  0.6100
  326MOL0     C43896   4.251   9.320  10.333  0.2412  0.1331  0.0624
  326MOL0     C43897   4.390   9.352  10.276 -1.1718 -0.0699 -0.3960
  326MOL0     C43898   4.494   9.384  10.389 -0.2771 -0.6036 -0.3780
  326MOL0     O43899   4.600   9.468  10.333 -0.4639 -0.0772 -0.6132
  326MOL0     C43900   4.690   9.530  10.418  0.5436  0.1190  0.0692
  326MOL0     C43901   4.802   9.587  10.363  0.4189 -0.8940 -0.5788
  326MOL0     C43902   4.901   9.638  10.447 -0.7701  0.8240  0.7219
  326MOL0     C43903   4.881   9.644  10.585  0.6446 -0.1194 -0.1650
  326MOL0     C43904   4.981   9.696  10.682  0.3331  0.4083  0.7470
  326MOL0     O43905   4.973   9.656  10.810 -0.5732 -0.3613  0.0767
  326MOL0     C43906   5.087   9.672  10.897  0.4479 -0.5341  0.3567
  326MOL0     C43907   5.217   9.716  10.875 -0.0696 -0.3834 -0.1973
  326MOL0     C43908   5.303   9.757  10.981  0.5263 -0.0812  0.3453
  326MOL0     C43909   5.270   9.730  11.111 -0.8287  0.2242 -0.1794
  326MOL0     O43910   5.347   9.752  11.223 -0.7283  0.0918 -0.4335
  326MOL0     C43911   5.457   9.849  11.206 -0.2370 -0.2309 -0.0785
  326MOL0     C43912   5.553   9.864  11.330  1.0433  0.5905  0.1987
  326MOL0     C43913   5.679   9.941  11.302 -1.9034  0.0053 -0.9007
  326MOL0     C43914   5.774   9.879  11.200  0.8146  0.0653 -0.4132
  326MOL0     C43915   5.900   9.963  11.186 -0.4962  0.1829  0.4384
  326MOL0     C43916   6.025   9.899  11.123  0.0384  0.2083 -0.1651
  326MOL0     C43917   6.081   9.770  11.190 -0.3222 -0.0009  0.1694
  326MOL0     C43918   6.172   9.689  11.097  0.6362 -0.1527 -0.0908
  326MOL0    Cl43919   6.300   9.781  11.022 -0.0058 -0.2045 -0.0320
  326MOL0     C43920   5.143   9.678  11.132  0.1481  0.1943 -0.8686
  326MOL0     C43921   5.050   9.650  11.035  0.2278  0.0083  0.2736
  326MOL0     O43922   5.050   9.778  10.629  0.3610  0.6764  0.2643
  326MOL0     C43923   4.773   9.582  10.646  0.6514 -0.4131  0.4022
  326MOL0     C43924   4.685   9.523  10.560  0.2467 -0.4397  0.6108
  326MOL0     N43925   3.997   9.277  10.480 -1.1828 -0.3806 -0.8649
  326MOL0     N43926   3.880   9.297  10.534 -0.4531  0.2983 -0.2766
  326MOL0     C43927   2.938   9.316  11.040 -0.2130  0.1111  0.3068
  326MOL0     C43928   2.813   9.326  10.976 -0.6900 -0.4975  0.4135
  326MOL0     C43929   2.386   9.374  10.903 -0.0108 -0.1906  0.2256
  326MOL0     C43930   2.357   9.502  10.840  0.9483  0.4542 -0.8838
  326MOL0     C43931   2.233   9.512  10.782 -0.7734  0.1135  0.2046
  326MOL0     C43932   2.141   9.411  10.788  0.4524 -0.3789  0.2353
  326MOL0     O43933   2.016   9.448  10.739 -0.2311  0.1894 -0.9338
  326MOL0     C43934   1.901   9.369  10.758 -0.9968  0.3743 -0.4026
  326MOL0     C43935   1.777   9.442  10.814  0.1078 -0.6639 -0.4180
  326MOL0     C43936   1.648   9.397  10.756 -0.2558  0.1593 -0.1657
  326MOL0     C43937   1.524   9.479  10.796  0.3656  0.0301 -0.0701
  326MOL0     C43938   1.405   9.411  10.750 -0.2472  0.2673 -0.4109
  326MOL0     C43939   1.306   9.355  10.716  0.0328  0.6882 -0.1078
  326MOL0     C43940   2.165   9.285  10.854  0.7013 -0.6593  0.1002
  326MOL0     C43941   2.289   9.272  10.915  0.1553 -0.1700  0.2266
  326MOL0     C43942   2.326   9.131  10.969  0.1054 -0.0141 -0.0115
  326MOL0     H43943   2.695   9.607  11.133 -2.6653 -2.1818  0.3142
  326MOL0     H43944   2.909   9.568  11.261  1.3592  0.3476 -0.1816
  326MOL0     H43945   3.119   9.570  11.310  2.9944  0.0730  2.3567
  326MOL0     H43946   3.254   9.479  11.329  0.7530  2.2954  0.5698
  326MOL0     H43947   3.268   9.651  11.151 -2.5566  1.4223  1.4277
  326MOL0     H43948   3.139   9.552  11.055 -1.9122 -1.0110  2.8120
  326MOL0     H43949   3.288   9.377  11.027 -0.0279 -0.3621 -0.4757
  326MOL0     H43950   3.404   9.465  11.138  0.1708  1.5433 -0.4821
  326MOL0     H43951   3.309   9.568  10.888 -0.0814  1.0230 -0.2973
  326MOL0     H43952   3.453   9.624  10.985 -0.5499 -1.9721  3.2720
  326MOL0     H43953   3.549   9.391  10.929  2.7159  1.9209 -1.2063
  326MOL0     H43954   3.404   9.370  10.821  1.1131 -1.9318  0.4524
  326MOL0     H43955   3.488   9.555  10.682  0.7526  0.9349 -1.0616
  326MOL0     H43956   3.601   9.616  10.794 -1.9105 -0.5103  2.3149
  326MOL0     H43957   3.585   9.376  10.607 -1.5693 -0.8393  2.2445
  326MOL0     H43958   3.669   9.335  10.749 -2.4696 -1.5768 -1.2494
  326MOL0     H43959   3.726   9.578  10.570  0.6570  0.5361  0.2760
  326MOL0     H43960   3.841   9.535  10.696  2.0410  1.0271 -2.2524
  326MOL0     H43961   3.972   9.597  10.457  2.0810 -0.4958  0.2394
  326MOL0     H43962   4.143   9.506  10.277  0.1438 -1.5748 -0.1232
  326MOL0     H43963   4.209   9.500  10.449 -1.0396 -3.1736  3.2971
  326MOL0     H43964   4.266   9.264  10.426  1.0419  0.9601  0.4564
  326MOL0     H43965   4.205   9.250  10.263  1.5855 -1.7022  0.9219
  326MOL0     H43966   4.381   9.444  10.218  0.0633  1.6717  1.9697
  326MOL0     H43967   4.435   9.269  10.221  1.0889 -1.3721  3.0956
  326MOL0     H43968   4.535   9.296  10.438  0.9646  0.1457 -0.0234
  326MOL0     H43969   4.435   9.439  10.463  2.5358 -0.8008  2.2100
  326MOL0     H43970   4.812   9.589  10.255 -1.1091 -1.4974 -0.7633
  326MOL0     H43971   4.995   9.676  10.408 -0.0979  1.8070  3.1237
  326MOL0     H43972   5.239   9.735  10.771 -1.1254  0.2418 -0.3182
  326MOL0     H43973   5.393   9.807  10.947 -0.4577 -0.2706 -2.9244
  326MOL0     H43974   5.519   9.807  11.126 -0.0509 -2.4608  1.1435
  326MOL0     H43975   5.428   9.951  11.179  3.0801  0.7291 -0.4297
  326MOL0     H43976   5.491   9.925  11.396  0.0430  2.0819 -1.9953
  326MOL0     H43977   5.580   9.768  11.376 -0.4300 -1.2344 -2.4315
  326MOL0     H43978   5.648  10.039  11.265  0.1970  1.0656 -0.0023
  326MOL0     H43979   5.721   9.967  11.400 -1.6785 -0.2183 -0.9367
  326MOL0     H43980   5.726   9.880  11.102 -2.5687 -0.2596  1.1070
  326MOL0     H43981   5.800   9.775  11.218  1.2945  0.0564 -1.1338
  326MOL0     H43982   5.925   9.982  11.290 -0.5709 -1.8813  0.8807
  326MOL0     H43983   5.884  10.052  11.125  1.2083  0.0740 -0.2249
  326MOL0     H43984   6.028   9.880  11.015  2.8424 -0.4285 -0.0683
  326MOL0     H43985   6.107   9.969  11.145 -0.3174  0.7030 -0.3988
  326MOL0     H43986   6.009   9.697  11.228 -2.4682  2.4779  1.1524
  326MOL0     H43987   6.144   9.805  11.273  0.8433 -1.2454 -0.1568
  326MOL0     H43988   6.225   9.604  11.142  2.0515  0.0814 -1.2305
  326MOL0     H43989   6.115   9.638  11.018 -0.7754 -2.9613  2.5142
  326MOL0     H43990   5.122   9.655  11.236 -1.9076  0.3718 -1.2136
  326MOL0     H43991   4.946   9.627  11.055  0.1092  0.6539  0.4360
  326MOL0     H43992   4.744   9.576  10.750 -0.0968 -0.9435  0.1684
  326MOL0     H43993   4.607   9.473  10.617  0.0471 -1.4065 -0.4846
  326MOL0     H43994   3.022   9.251  11.016 -0.3322  0.5270 -1.3371
  326MOL0     H43995   2.793   9.250  10.902  0.8522 -1.8874  1.3375
  326MOL0     H43996   2.440   9.569  10.817  1.2990 -0.9608 -4.3166
  326MOL0     H43997   2.213   9.600  10.721  0.2077 -0.3725 -0.8550
  326MOL0     H43998   1.912   9.283  10.825 -0.6538  1.0846  0.4738
  326MOL0     H43999   1.887   9.326  10.658 -0.2206 -1.1148  0.0993
  326MOL0     H44000   1.778   9.551  10.819 -2.1424 -0.6251  0.6263
  326MOL0     H44001   1.759   9.412  10.918 -0.0586 -0.9230 -0.5213
  326MOL0     H44002   1.632   9.290  10.767 -1.7651  0.2600 -1.1745
  326MOL0     H44003   1.654   9.419  10.648 -1.0939  0.5003 -0.1449
  326MOL0     H44004   1.522   9.480  10.905  0.4957 -0.3091 -0.0659
  326MOL0     H44005   1.524   9.582  10.758  0.2771  0.3591  0.8023
  326MOL0     H44006   1.216   9.299  10.704  0.8939 -0.5187 -1.2712
  326MOL0     H44007   2.105   9.195  10.847  0.9177 -0.8052  0.0898
  326MOL0     H44008   2.433   9.112  10.958 -0.0515 -1.4917  0.6940
  326MOL0     H44009   2.295   9.125  11.074 -1.6666 -1.4254 -0.5756
  326MOL0     H44010   2.268   9.056  10.915  0.9518 -0.5353 -0.2246
  327MOL0     O44011   6.756   8.413  11.015  0.3522 -0.3881  0.3378
  327MOL0     C44012   6.708   8.429  10.902  0.3845 -0.3261  0.6275
  327MOL0     O44013   6.752   8.508  10.798  0.1289 -0.0305 -0.5957
  327MOL0     C44014   6.845   8.600  10.828 -1.0050  0.7035 -0.2907
  327MOL0     C44015   6.955   8.600  10.745  0.3225 -0.3786 -1.0423
  327MOL0     C44016   7.064   8.686  10.764 -0.7520  0.7361 -0.0697
  327MOL0     C44017   7.069   8.777  10.878 -0.7775 -0.3136 -0.6887
  327MOL0     O44018   7.176   8.857  10.918 -0.3045  0.6088  0.4724
  327MOL0     C44019   7.284   8.869  10.817  0.0447  0.1949 -0.2084
  327MOL0     C44020   7.358   8.995  10.837  0.0583 -0.4137  0.7158
  327MOL0     C44021   7.399   9.001  10.988 -0.3449  0.3459  0.7044
  327MOL0     C44022   7.468   9.125  11.026 -0.9548  0.0776  0.0173
  327MOL0     C44023   7.616   9.123  10.982  0.4780  0.0889  0.7512
  327MOL0     C44024   7.710   9.200  11.079 -0.0652  0.0855 -0.5287
  327MOL0     C44025   7.701   9.358  11.062  0.0131  0.6456  0.2379
  327MOL0     C44026   7.790   9.442  11.158 -0.5380  0.0746  0.4072
  327MOL0     N44027   7.775   9.405  11.297 -0.3296  0.2519  0.1600
  327MOL0     C44028   7.864   9.410  11.398  0.5047 -0.6503 -0.7602
  327MOL0     C44029   7.795   9.407  11.509 -0.2185  0.2062 -0.0421
  327MOL0     C44030   7.852   9.407  11.648  0.7180  0.6399  0.3821
  327MOL0     C44031   7.996   9.465  11.643 -1.3451 -0.0584  0.0454
  327MOL0     C44032   8.054   9.487  11.783  0.2944  0.4162  0.4289
  327MOL0     C44033   8.205   9.517  11.790  0.1311  0.2251 -1.0110
  327MOL0     O44034   8.242   9.635  11.717  0.2962 -0.5031 -0.0674
  327MOL0     C44035   8.369   9.690  11.728  0.0413 -0.2122 -0.1957
  327MOL0     C44036   8.397   9.792  11.643  0.0573 -0.5235 -0.0514
  327MOL0     C44037   8.531   9.841  11.635  0.9640 -0.3258 -0.6577
  327MOL0     C44038   8.625   9.803  11.726 -0.0949 -0.0550 -0.4229
  327MOL0     C44039   8.765   9.846  11.722 -0.3548 -0.8194  0.6876
  327MOL0     O44040   8.822   9.905  11.611  0.9093 -0.8215 -0.1386
  327MOL0     C44041   8.946   9.955  11.612 -0.1675 -0.7419  0.0110
  327MOL0     C44042   8.965  10.066  11.528 -0.7122  0.3694 -0.2534
  327MOL0     C44043   9.098  10.116  11.513 -0.6246  0.3418 -0.2935
  327MOL0     C44044   9.212  10.055  11.584 -0.2965 -0.9137  0.2208
  327MOL0     O44045   9.341  10.109  11.583  0.3597 -0.3324  0.1828
  327MOL0     C44046   9.381  10.222  11.495  0.4241  0.8220 -0.1002
  327MOL0     C44047   9.421  10.172  11.351 -0.2990 -0.3403  0.2254
  327MOL0     C44048   9.516  10.051  11.345  0.5022 -0.1255 -0.1171
  327MOL0     C44049   9.662  10.074  11.388 -0.5562  0.0470  0.1387
  327MOL0     C44050   9.747   9.955  11.387 -0.1219  0.1673  0.3944
  327MOL0     C44051   9.729   9.887  11.520  0.0100  0.8938  0.1970
  327MOL0     C44052   9.826   9.761  11.526 -0.0331  0.9108 -0.1583
  327MOL0     C44053   9.813   9.701  11.663 -0.9106 -0.0262  0.2964
  327MOL0    Cl44054   9.946   9.589  11.691  0.3370  0.0827 -0.4839
  327MOL0     C44055   9.189   9.939  11.661  0.4040  0.2214 -0.2390
  327MOL0     C44056   9.061   9.893  11.664  0.7326 -0.2362 -0.5855
  327MOL0     O44057   8.831   9.810  11.822  0.2818  0.0516  0.5419
  327MOL0     C44058   8.590   9.701  11.826 -1.0769 -0.6353  0.8580
  327MOL0     C44059   8.464   9.647  11.820  0.0110 -0.2081 -0.1388
  327MOL0     N44060   7.663   9.387  11.484  0.2600  0.4820 -0.0004
  327MOL0     N44061   7.646   9.384  11.355  0.0808  0.5516  0.4549
  327MOL0     C44062   6.946   8.768  10.961  0.2144  0.1866 -0.0003
  327MOL0     C44063   6.835   8.683  10.936 -0.1231 -0.9523 -0.8066
  327MOL0     C44064   6.594   8.341  10.860  0.4632  0.1975  0.8780
  327MOL0     C44065   6.503   8.387  10.764  0.2196  0.1872  0.2989
  327MOL0     C44066   6.391   8.317  10.726  0.2227  0.0325  0.5119
  327MOL0     C44067   6.374   8.187  10.766 -0.2438 -0.8410  0.0605
  327MOL0     O44068   6.273   8.115  10.702  0.0283  0.7977  0.2852
  327MOL0     C44069   6.225   7.991  10.755  0.1075 -0.7363  0.3755
  327MOL0     C44070   6.156   8.014  10.883  0.6990 -0.0789 -0.4621
  327MOL0     C44071   6.127   7.878  10.941 -0.0883 -0.0687  0.2254
  327MOL0     C44072   6.039   7.891  11.061 -0.0731 -0.1873 -0.7817
  327MOL0     C44073   5.899   7.894  11.015 -0.1063 -0.2851 -0.2166
  327MOL0     C44074   5.788   7.883  10.978 -0.2703 -0.4738  0.5006
  327MOL0     C44075   6.463   8.144  10.870  0.1404 -0.7789  0.6969
  327MOL0     C44076   6.569   8.218  10.919  0.0884  1.1568 -0.2185
  327MOL0     C44077   6.653   8.153  11.025 -0.5846 -0.3344 -0.3520
  327MOL0     H44078   6.964   8.523  10.669 -3.3555 -2.3448  0.2428
  327MOL0     H44079   7.151   8.686  10.699 -1.7451  1.1801 -1.4418
  327MOL0     H44080   7.347   8.780  10.807 -0.9592 -0.7980  1.7181
  327MOL0     H44081   7.240   8.874  10.717 -0.2719  2.3963 -0.0038
  327MOL0     H44082   7.285   9.073  10.811  0.2423 -0.7852 -1.0994
  327MOL0     H44083   7.446   9.005  10.772  2.4482 -3.0162  3.2536
  327MOL0     H44084   7.450   8.907  11.012  1.4998  0.6891 -1.4680
  327MOL0     H44085   7.311   9.003  11.052 -0.6292 -0.9928  0.3772
  327MOL0     H44086   7.412   9.208  10.983 -0.2285 -0.3229 -1.7944
  327MOL0     H44087   7.464   9.129  11.135 -0.2506  1.9199  0.0128
  327MOL0     H44088   7.654   9.021  10.972  0.0557 -0.0681  0.7275
  327MOL0     H44089   7.608   9.157  10.878 -3.2836  0.0846  0.9183
  327MOL0     H44090   7.675   9.189  11.182  1.7650  0.9653  0.2428
  327MOL0     H44091   7.812   9.162  11.086 -0.7672 -1.8262  0.0183
  327MOL0     H44092   7.596   9.382  11.077 -0.3629 -1.0599  0.5098
  327MOL0     H44093   7.729   9.384  10.959 -0.2671  0.3059  0.0738
  327MOL0     H44094   7.897   9.422  11.143 -0.1746  2.8876 -1.6557
  327MOL0     H44095   7.772   9.549  11.147  1.1898  0.5972  2.1170
  327MOL0     H44096   7.969   9.438  11.391  0.3323 -0.1597 -1.5080
  327MOL0     H44097   7.790   9.468  11.714 -4.0477  0.2202 -3.1765
  327MOL0     H44098   7.846   9.302  11.678  0.4298 -0.5189 -3.3023
  327MOL0     H44099   8.067   9.393  11.601  1.0195  0.9521  2.0566
  327MOL0     H44100   7.989   9.558  11.585 -1.4319  1.7082  2.7124
  327MOL0     H44101   8.028   9.402  11.847  0.5886  1.5176  2.0745
  327MOL0     H44102   7.994   9.568  11.825  1.3252 -0.1967  3.3538
  327MOL0     H44103   8.264   9.431  11.755 -0.4849  0.3035 -2.2968
  327MOL0     H44104   8.223   9.548  11.893  0.0657  1.9699 -1.4962
  327MOL0     H44105   8.314   9.834  11.587  0.1543 -0.7911 -0.3961
  327MOL0     H44106   8.553   9.922  11.566 -1.1030  0.8364 -0.0608
  327MOL0     H44107   8.886  10.115  11.472 -2.7987  1.8795  3.6174
  327MOL0     H44108   9.105  10.209  11.457 -1.1407 -0.2727 -1.4233
  327MOL0     H44109   9.302  10.296  11.482  1.1308  1.5453 -0.2976
  327MOL0     H44110   9.471  10.266  11.539  0.6795 -0.9510  1.2808
  327MOL0     H44111   9.327  10.141  11.304 -2.3991  2.2314  2.4084
  327MOL0     H44112   9.460  10.251  11.286  2.7938 -0.9322  1.1563
  327MOL0     H44113   9.465   9.976  11.406  0.1903  0.5508  0.4789
  327MOL0     H44114   9.519  10.024  11.239  0.8528  2.7250 -0.9129
  327MOL0     H44115   9.664  10.125  11.485  3.1215  0.1512  0.1333
  327MOL0     H44116   9.705  10.148  11.321 -0.7950 -1.5093 -1.8367
  327MOL0     H44117   9.850   9.990  11.377 -0.6143  2.7824  2.9516
  327MOL0     H44118   9.728   9.882  11.308 -3.6331 -1.4862  2.5038
  327MOL0     H44119   9.773   9.947  11.600  0.1156 -1.5268  2.0622
  327MOL0     H44120   9.623   9.868  11.537  0.0506 -2.1430 -2.0965
  327MOL0     H44121   9.928   9.792  11.499  0.1876 -0.1604 -0.6332
  327MOL0     H44122   9.804   9.685  11.450  1.6006  1.8055 -1.6028
  327MOL0     H44123   9.825   9.789  11.728 -1.7061 -0.0014  0.4138
  327MOL0     H44124   9.714   9.658  11.678 -0.2995 -1.1054  1.4510
  327MOL0     H44125   9.271   9.879  11.700 -1.5242 -1.2215  1.8151
  327MOL0     H44126   9.049   9.801  11.719  0.1727 -0.0024 -0.3114
  327MOL0     H44127   8.656   9.680  11.910  0.2711 -0.2368 -0.0658
  327MOL0     H44128   8.445   9.566  11.891 -0.2714  0.7782  0.9380
  327MOL0     H44129   6.944   8.840  11.042 -2.8688  2.0151 -1.4942
  327MOL0     H44130   6.746   8.686  10.999 -0.7096  0.1070 -1.6332
  327MOL0     H44131   6.521   8.479  10.709  1.7694 -0.0514  0.3658
  327MOL0     H44132   6.330   8.363  10.648  0.1177 -1.0339 -0.0569
  327MOL0     H44133   6.305   7.920  10.777 -1.2085 -2.4297 -0.1010
  327MOL0     H44134   6.156   7.935  10.691  0.4875 -0.1015 -0.6185
  327MOL0     H44135   6.063   8.070  10.867  1.2726  2.5808  3.8745
  327MOL0     H44136   6.220   8.067  10.954  1.0736 -3.5929  2.0802
  327MOL0     H44137   6.223   7.829  10.961  1.2426  1.3392 -2.2485
  327MOL0     H44138   6.079   7.812  10.867 -0.2247 -0.4247  0.6235
  327MOL0     H44139   6.050   7.799  11.118  2.0949  0.0740 -0.6835
  327MOL0     H44140   6.074   7.975  11.122  0.1582 -2.2421  2.1215
  327MOL0     H44141   5.692   7.874  10.932  0.1917 -2.9697 -0.1228
  327MOL0     H44142   6.453   8.046  10.916 -0.1864  0.0149  2.3773
  327MOL0     H44143   6.648   8.209  11.119  1.3303  2.4419 -1.7450
  327MOL0     H44144   6.624   8.050  11.046  2.7676 -0.8012  3.2413
  327MOL0     H44145   6.757   8.141  10.991 -0.1546  1.0442  0.3853
  328MOL0     O44146   5.694   9.443   0.976 -0.1611 -0.1946 -0.2647
  328MOL0     C44147   5.624   9.491   0.888 -0.1736 -0.7386 -0.2822
  328MOL0     O44148   5.604   9.628   0.876 -0.2467  0.2262  0.2203
  328MOL0     C44149   5.629   9.711   0.981 -0.5235  0.9539  0.0586
  328MOL0     C44150   5.575   9.698   1.113 -0.1983  0.7400  0.6201
  328MOL0     C44151   5.606   9.779   1.209 -0.0757 -0.7468 -0.5199
  328MOL0     C44152   5.681   9.893   1.186  0.6918 -0.4879 -0.4288
  328MOL0     O44153   5.694   9.986   1.288 -0.1483  0.6949 -0.1731
  328MOL0     C44154   5.776  10.096   1.275  0.0540 -1.0336 -0.2562
  328MOL0     C44155   5.750  10.180   1.406  0.3342 -0.3962  0.1057
  328MOL0     C44156   5.766  10.335   1.387 -0.8463  0.5874 -0.8791
  328MOL0     C44157   5.919  10.376   1.424  0.0029 -0.0336  0.3173
  328MOL0     C44158   5.951  10.519   1.387 -0.2368  0.3478  0.3685
  328MOL0     C44159   5.894  10.621   1.486 -0.2496 -0.0200  0.6720
  328MOL0     C44160   5.988  10.636   1.605  0.4169  0.1724  0.8740
  328MOL0     C44161   5.902  10.697   1.717  0.4991 -0.4139 -0.3998
  328MOL0     N44162   5.985  10.753   1.830 -0.6343  0.2922  0.0945
  328MOL0     C44163   5.961  10.736   1.965  0.5587 -0.2193  0.3037
  328MOL0     C44164   6.055  10.809   2.017  0.4876 -0.5435  0.2027
  328MOL0     C44165   6.039  10.882   2.147  0.0333 -0.6387  0.0865
  328MOL0     C44166   6.142  10.836   2.246 -0.3874 -0.3016 -0.2437
  328MOL0     C44167   6.131  10.896   2.387 -0.2975  0.1185  0.1732
  328MOL0     C44168   6.266  10.888   2.463  0.5552 -0.6965  0.2205
  328MOL0     O44169   6.263  10.975   2.578  0.3849  0.2009 -0.3796
  328MOL0     C44170   6.379  11.004   2.635  0.7464 -0.5809 -0.7891
  328MOL0     C44171   6.368  11.111   2.728 -0.7925 -0.6330 -0.4490
  328MOL0     C44172   6.479  11.163   2.802 -0.2182 -0.5415  0.4027
  328MOL0     C44173   6.602  11.103   2.772 -0.6969  1.0237 -0.4855
  328MOL0     C44174   6.725  11.149   2.852  0.0214  0.9686  0.0646
  328MOL0     O44175   6.714  11.232   2.958 -0.1452 -0.3775  1.2534
  328MOL0     C44176   6.812  11.258   3.051  0.2004 -0.7188  1.1132
  328MOL0     C44177   6.884  11.163   3.116 -0.3107  0.4017 -0.4947
  328MOL0     C44178   6.961  11.205   3.212 -0.0644 -0.1973 -1.1623
  328MOL0     C44179   6.988  11.337   3.244  0.5181 -0.2509 -0.6193
  328MOL0     O44180   7.087  11.365   3.333 -0.1289  0.4005  0.5259
  328MOL0     C44181   7.137  11.502   3.334 -0.0402  0.4259  1.1806
  328MOL0     C44182   7.282  11.519   3.381  0.2656 -0.1447  0.0118
  328MOL0     C44183   7.343  11.640   3.308 -0.0087 -0.3776  1.0590
  328MOL0     C44184   7.482  11.667   3.371 -0.1322 -0.5104  0.3776
  328MOL0     C44185   7.540  11.788   3.289 -0.3946 -0.3291 -0.0938
  328MOL0     C44186   7.675  11.831   3.354  0.6776 -0.4824  0.5570
  328MOL0     C44187   7.664  11.897   3.488 -0.2717 -0.2378 -0.4305
  328MOL0     C44188   7.794  11.966   3.534  0.3209  0.5200  0.3838
  328MOL0    Cl44189   7.923  11.844   3.526 -0.0226 -0.7697  0.1334
  328MOL0     C44190   6.894  11.430   3.201 -0.9418 -0.4687  0.6020
  328MOL0     C44191   6.808  11.388   3.101  0.9289  0.1878 -0.2806
  328MOL0     O44192   6.833  11.105   2.813 -0.6864 -0.7828 -0.3009
  328MOL0     C44193   6.614  10.991   2.682  0.1336  0.1225 -0.7679
  328MOL0     C44194   6.502  10.938   2.619  0.5273  0.1670  0.7086
  328MOL0     N44195   6.151  10.843   1.924 -0.8834  0.4076  0.1697
  328MOL0     N44196   6.110  10.803   1.806  0.2508  0.2593  0.2072
  328MOL0     C44197   5.735   9.904   1.061  0.3068  0.1611 -0.6765
  328MOL0     C44198   5.717   9.817   0.958  0.0330  0.8265  0.7834
  328MOL0     C44199   5.567   9.410   0.776  0.0058  0.9717 -0.7280
  328MOL0     C44200   5.552   9.466   0.650  0.9372 -0.5382 -0.0399
  328MOL0     C44201   5.498   9.402   0.542  0.3751  0.3478  0.1256
  328MOL0     C44202   5.454   9.265   0.550 -0.7560  0.6004  0.2819
  328MOL0     O44203   5.385   9.200   0.445 -0.1508 -0.5267  0.6701
  328MOL0     C44204   5.365   9.273   0.325  0.5302  0.3364 -0.2464
  328MOL0     C44205   5.298   9.179   0.229 -0.3618  0.5798  0.2990
  328MOL0     C44206   5.147   9.135   0.266  0.7810 -0.8394  0.3064
  328MOL0     C44207   5.110   9.024   0.172 -0.3680 -0.8167  0.2277
  328MOL0     C44208   4.964   9.018   0.170  0.5478 -0.5030 -0.3906
  328MOL0     C44209   4.842   9.001   0.174 -0.0581  0.0196  0.1946
  328MOL0     C44210   5.458   9.209   0.678  0.9627 -0.7042  0.1413
  328MOL0     C44211   5.514   9.277   0.790 -0.1061  0.2807  0.7418
  328MOL0     C44212   5.503   9.201   0.919  0.2661 -0.5148  0.0249
  328MOL0     H44213   5.507   9.616   1.134  0.7453  0.0509  1.0307
  328MOL0     H44214   5.563   9.772   1.308  0.0961  3.2523  0.0287
  328MOL0     H44215   5.884  10.083   1.270 -0.0045 -2.2460  1.0343
  328MOL0     H44216   5.747  10.148   1.183  1.1819  0.5907  0.2626
  328MOL0     H44217   5.812  10.141   1.487  0.8026 -1.0313 -0.5451
  328MOL0     H44218   5.646  10.172   1.439 -0.4061  2.5842 -1.1175
  328MOL0     H44219   5.700  10.394   1.452 -1.4971 -0.3157 -0.6978
  328MOL0     H44220   5.745  10.352   1.281 -0.1151 -0.2979 -1.1807
  328MOL0     H44221   5.939  10.343   1.526 -0.1575 -0.9992  0.0481
  328MOL0     H44222   5.993  10.314   1.372 -0.5761 -0.5789  0.1270
  328MOL0     H44223   6.060  10.531   1.391  0.1948 -0.4876 -4.0604
  328MOL0     H44224   5.925  10.542   1.283 -0.9421 -0.9655  0.2316
  328MOL0     H44225   5.895  10.723   1.445  0.4362 -0.1550  0.3504
  328MOL0     H44226   5.788  10.601   1.508 -0.7335  0.9331 -0.6264
  328MOL0     H44227   6.071  10.702   1.576 -1.0523  1.2564 -1.1044
  328MOL0     H44228   6.021  10.537   1.637 -1.6174 -0.0159  2.5281
  328MOL0     H44229   5.850  10.783   1.672  3.1508  0.9090 -1.1831
  328MOL0     H44230   5.830  10.621   1.746  1.7612 -2.2366 -1.8279
  328MOL0     H44231   5.860  10.709   1.993 -1.6979  3.3508 -3.3154
  328MOL0     H44232   6.032  10.985   2.111 -0.9957 -0.9754 -0.7273
  328MOL0     H44233   5.943  10.863   2.195 -0.8428 -1.0381 -1.7343
  328MOL0     H44234   6.136  10.727   2.257 -1.5230 -0.1283  1.2722
  328MOL0     H44235   6.235  10.861   2.195 -1.1636  1.8424 -0.7125
  328MOL0     H44236   6.055  10.845   2.447  0.6992 -1.2203  0.3359
  328MOL0     H44237   6.096  10.999   2.378  1.0163  0.4058 -2.5432
  328MOL0     H44238   6.349  10.924   2.401  0.6561 -2.1042 -0.5230
  328MOL0     H44239   6.293  10.787   2.497 -0.9970 -1.2647 -0.1449
  328MOL0     H44240   6.274  11.163   2.745  0.4475  2.7334 -2.7627
  328MOL0     H44241   6.465  11.243   2.873  0.1510 -1.1611  1.1880
  328MOL0     H44242   6.865  11.059   3.090 -0.6924  0.8251 -1.9860
  328MOL0     H44243   7.009  11.130   3.274 -1.5384 -1.0320 -0.9862
  328MOL0     H44244   7.139  11.534   3.230  0.6929  1.2379  1.4261
  328MOL0     H44245   7.071  11.571   3.387 -0.5625  0.9301 -0.1021
  328MOL0     H44246   7.280  11.542   3.488 -2.6985  0.5397 -0.0906
  328MOL0     H44247   7.342  11.429   3.366 -2.1226 -2.2128  1.9384
  328MOL0     H44248   7.359  11.613   3.203  1.0943  0.3656  1.0183
  328MOL0     H44249   7.278  11.728   3.315 -1.0471 -1.2691  3.7698
  328MOL0     H44250   7.550  11.581   3.359 -0.3844 -0.8467  1.2709
  328MOL0     H44251   7.463  11.694   3.475  0.5239 -0.2606  0.4373
  328MOL0     H44252   7.467  11.868   3.277 -0.0181  0.2836  1.4394
  328MOL0     H44253   7.568  11.749   3.191  0.9163 -1.6444  0.7525
  328MOL0     H44254   7.734  11.739   3.357  0.1837 -0.9091 -1.3624
  328MOL0     H44255   7.727  11.903   3.290  0.2693 -0.9579 -0.3238
  328MOL0     H44256   7.634  11.823   3.563 -1.4086  0.8510  0.2291
  328MOL0     H44257   7.585  11.971   3.476  0.8494  1.2525  1.0113
  328MOL0     H44258   7.818  12.049   3.466  2.8339  1.0986  1.8445
  328MOL0     H44259   7.785  11.998   3.638  0.5543 -0.4801  0.7169
  328MOL0     H44260   6.894  11.534   3.234 -2.3414 -0.2324 -0.0917
  328MOL0     H44261   6.743  11.465   3.061  2.7227  0.8286 -2.1678
  328MOL0     H44262   6.715  10.957   2.661  0.8675  1.5964  0.2428
  328MOL0     H44263   6.505  10.851   2.554 -0.9161 -1.5954  2.8313
  328MOL0     H44264   5.798   9.991   1.040  1.0135  0.2967  1.7157
  328MOL0     H44265   5.770   9.826   0.863 -2.1947  2.8770 -0.3753
  328MOL0     H44266   5.570   9.573   0.647 -0.2578  0.1322  5.6517
  328MOL0     H44267   5.486   9.461   0.452 -0.9152 -0.2702 -0.1395
  328MOL0     H44268   5.455   9.311   0.277  0.0500 -0.3370 -1.7591
  328MOL0     H44269   5.294   9.355   0.342 -1.2718 -1.3292  0.7836
  328MOL0     H44270   5.364   9.097   0.200 -1.1587  0.6411 -1.8686
  328MOL0     H44271   5.305   9.232   0.134  1.8566 -0.0678  0.0468
  328MOL0     H44272   5.079   9.217   0.246  1.5638 -0.8635 -2.9543
  328MOL0     H44273   5.136   9.108   0.372 -2.2071 -1.4095 -0.0585
  328MOL0     H44274   5.156   9.047   0.075 -1.8595  1.3852 -0.0331
  328MOL0     H44275   5.167   8.939   0.212  2.3653  1.0923  0.7327
  328MOL0     H44276   4.736   8.991   0.182 -0.0620  0.5102  0.8593
  328MOL0     H44277   5.419   9.110   0.699 -1.2007 -0.3743 -1.9475
  328MOL0     H44278   5.580   9.126   0.941 -1.4953 -2.3955  0.1041
  328MOL0     H44279   5.521   9.270   1.002 -1.3869  1.5917 -1.2585
  328MOL0     H44280   5.404   9.155   0.913 -0.5097  0.8113  1.7640
  329MOL0     O44281   5.078   5.723  10.096  0.6446  0.3100 -0.1123
  329MOL0     C44282   5.016   5.645  10.013  0.2219  0.2212 -0.1645
  329MOL0     O44283   5.068   5.615   9.894 -0.1849  0.5903  0.3113
  329MOL0     C44284   5.205   5.609   9.892 -0.5777  0.0924 -0.0258
  329MOL0     C44285   5.274   5.497   9.945 -0.6777 -0.6628  0.3381
  329MOL0     C44286   5.419   5.491   9.950  1.0563  0.2123 -0.4215
  329MOL0     C44287   5.492   5.594   9.889  0.3539 -0.0491 -0.3053
  329MOL0     O44288   5.624   5.611   9.895 -0.3006  0.6372  0.1876
  329MOL0     C44289   5.708   5.536   9.812 -0.2687  0.2260  0.5202
  329MOL0     C44290   5.839   5.613   9.813  0.2532  0.1617  0.3656
  329MOL0     C44291   5.944   5.510   9.766 -0.4106 -1.1897  0.2539
  329MOL0     C44292   6.082   5.549   9.802 -0.1393 -0.4294  0.0923
  329MOL0     C44293   6.184   5.432   9.811 -0.3252 -0.0106  0.3955
  329MOL0     C44294   6.331   5.487   9.771 -0.3807 -0.1232 -0.2285
  329MOL0     C44295   6.435   5.390   9.820  0.1111  0.7334  0.4439
  329MOL0     C44296   6.573   5.415   9.765  0.4200  0.2841  1.1693
  329MOL0     N44297   6.629   5.539   9.815 -0.0468 -0.3258  0.2899
  329MOL0     C44298   6.683   5.562   9.940  0.4978  0.2616  0.5059
  329MOL0     C44299   6.719   5.693   9.936 -0.4537 -0.0960  0.4264
  329MOL0     C44300   6.788   5.758  10.056 -0.1620 -1.1328 -0.8970
  329MOL0     C44301   6.720   5.743  10.192 -0.8103 -0.3576  0.2052
  329MOL0     C44302   6.756   5.860  10.282  0.6271  0.3796  0.1108
  329MOL0     C44303   6.906   5.882  10.328  0.6946  0.4878 -0.6436
  329MOL0     O44304   6.940   5.797  10.444  1.1612  0.9098 -0.8462
  329MOL0     C44305   7.058   5.804  10.505 -0.5356 -0.3908 -0.1566
  329MOL0     C44306   7.151   5.903  10.473 -0.9373  0.4770 -0.2788
  329MOL0     C44307   7.272   5.906  10.545  1.1822  0.0025 -0.5864
  329MOL0     C44308   7.294   5.828  10.656 -0.1745  0.5152  0.1752
  329MOL0     C44309   7.417   5.850  10.740  0.1499  0.8599 -0.9200
  329MOL0     O44310   7.494   5.956  10.721  0.1280 -0.3570 -0.4733
  329MOL0     C44311   7.620   5.952  10.772  0.4213 -0.9926  0.5533
  329MOL0     C44312   7.739   5.883  10.723 -0.8690 -0.3727 -0.5329
  329MOL0     C44313   7.871   5.910  10.771 -1.1837 -0.3407 -0.4512
  329MOL0     C44314   7.885   6.017  10.858 -0.2209 -0.1795  0.8823
  329MOL0     O44315   8.016   6.038  10.904  0.2786 -0.7779  0.2328
  329MOL0     C44316   8.050   6.129  11.005  0.2922 -0.0620 -1.0995
  329MOL0     C44317   8.202   6.141  11.028 -0.2536  0.3552 -0.4898
  329MOL0     C44318   8.247   6.252  11.127 -0.8618 -0.0047  0.5314
  329MOL0     C44319   8.189   6.242  11.269  0.2033 -0.1837  0.9765
  329MOL0     C44320   8.255   6.341  11.370 -0.1224  0.0212 -0.2503
  329MOL0     C44321   8.361   6.289  11.465 -0.0511  0.4581 -0.0146
  329MOL0     C44322   8.481   6.230  11.401  0.5595 -0.1993 -0.2415
  329MOL0     C44323   8.569   6.175  11.508  0.4963 -0.8591  0.0912
  329MOL0    Cl44324   8.715   6.097  11.433  0.5673 -0.2564 -0.2354
  329MOL0     C44325   7.771   6.082  10.904  1.0833  0.6656 -0.1499
  329MOL0     C44326   7.642   6.055  10.860 -0.5534 -0.4321 -0.3152
  329MOL0     O44327   7.450   5.750  10.810  0.2265 -1.0559  0.1325
  329MOL0     C44328   7.197   5.734  10.688 -0.0871  0.5169  0.0809
  329MOL0     C44329   7.081   5.723  10.618  0.5377 -0.5813  0.6472
  329MOL0     N44330   6.672   5.753   9.815 -0.1353 -0.2900  0.2383
  329MOL0     N44331   6.612   5.659   9.746  0.1053  0.4310  0.0618
  329MOL0     C44332   5.420   5.710   9.836 -0.1912 -0.1815 -0.1145
  329MOL0     C44333   5.285   5.711   9.831  0.6498  0.1417 -0.0368
  329MOL0     C44334   4.869   5.626  10.028  0.0345  0.1028 -0.5694
  329MOL0     C44335   4.797   5.602   9.910  0.3275  0.4527 -0.7958
  329MOL0     C44336   4.657   5.618   9.924 -0.1432 -0.5240  0.3471
  329MOL0     C44337   4.594   5.650  10.040 -1.1465  0.4649 -0.4956
  329MOL0     O44338   4.463   5.684  10.021  0.3845  0.0949 -0.6544
  329MOL0     C44339   4.402   5.768  10.123 -0.6445 -0.3197 -0.3576
  329MOL0     C44340   4.271   5.826  10.052 -0.2641 -0.5498 -0.7020
  329MOL0     C44341   4.178   5.709  10.007  1.0791 -1.0013  0.4099
  329MOL0     C44342   4.048   5.782   9.955  0.9415  1.1662  0.4798
  329MOL0     C44343   4.061   5.879   9.844  0.2529 -0.5210 -0.2969
  329MOL0     C44344   4.099   5.959   9.759  0.5789  0.3447 -1.1993
  329MOL0     C44345   4.673   5.661  10.151 -0.6778  0.6867  0.0247
  329MOL0     C44346   4.810   5.646  10.152  0.0536 -0.3124  0.3725
  329MOL0     C44347   4.878   5.654  10.286  0.8215 -0.5087 -0.2252
  329MOL0     H44348   5.209   5.420   9.984 -0.4924 -1.0136 -0.0393
  329MOL0     H44349   5.474   5.414  10.002 -0.3605  0.4785  1.5626
  329MOL0     H44350   5.718   5.433   9.848 -0.4894  0.2111  0.5422
  329MOL0     H44351   5.676   5.532   9.707  0.3104  1.0634  0.3008
  329MOL0     H44352   5.866   5.641   9.915  0.0608 -0.9737  0.7323
  329MOL0     H44353   5.828   5.703   9.751 -0.2380  0.0664  0.3067
  329MOL0     H44354   5.924   5.480   9.663  1.7869 -1.1938 -0.2303
  329MOL0     H44355   5.929   5.413   9.814  1.4604 -2.1426 -0.9661
  329MOL0     H44356   6.123   5.617   9.726 -0.5358 -1.0686 -0.7054
  329MOL0     H44357   6.081   5.596   9.901 -3.8498 -2.6477  1.2962
  329MOL0     H44358   6.177   5.394   9.913  1.4016 -1.2316  0.1119
  329MOL0     H44359   6.159   5.350   9.743  1.0047  0.8751 -1.2768
  329MOL0     H44360   6.346   5.497   9.663  0.7274  4.2073  0.1352
  329MOL0     H44361   6.346   5.590   9.807 -3.1609  0.9485 -1.8227
  329MOL0     H44362   6.392   5.293   9.795  0.0421  1.1432 -1.1427
  329MOL0     H44363   6.436   5.396   9.929  2.9099  2.0263  0.4462
  329MOL0     H44364   6.633   5.325   9.782  0.7524  0.0654 -0.8789
  329MOL0     H44365   6.570   5.422   9.656  0.5912 -0.0688  1.1394
  329MOL0     H44366   6.683   5.491  10.022 -3.0673 -2.1345 -1.2978
  329MOL0     H44367   6.885   5.708  10.069  0.9195  0.8230 -0.9885
  329MOL0     H44368   6.806   5.863  10.032 -0.3111 -1.1506 -1.0868
  329MOL0     H44369   6.611   5.737  10.196 -0.9074  1.4890  2.3551
  329MOL0     H44370   6.763   5.654  10.239  2.8056 -0.2170 -2.4319
  329MOL0     H44371   6.696   5.852  10.373 -0.3813  1.5029 -0.4321
  329MOL0     H44372   6.738   5.954  10.229  0.9643  1.7216  2.2184
  329MOL0     H44373   6.915   5.984  10.366 -0.2381  1.0375 -1.8070
  329MOL0     H44374   6.979   5.875  10.247  0.5045 -0.9329 -0.7123
  329MOL0     H44375   7.142   5.959  10.381  0.5939 -0.1839 -0.8756
  329MOL0     H44376   7.343   5.978  10.505  0.5200  2.1399  1.8031
  329MOL0     H44377   7.732   5.794  10.661  0.1674 -2.1456  1.7759
  329MOL0     H44378   7.959   5.854  10.742 -0.9886  0.6719 -1.9807
  329MOL0     H44379   7.996   6.220  10.978 -1.2664 -0.5467  0.1851
  329MOL0     H44380   8.003   6.082  11.092  0.2550 -1.9478 -2.0844
  329MOL0     H44381   8.237   6.042  11.060  1.7835  1.9012  2.3997
  329MOL0     H44382   8.247   6.175  10.934  0.2689  2.6164  0.5216
  329MOL0     H44383   8.355   6.247  11.142 -0.8777 -2.8069  0.2539
  329MOL0     H44384   8.227   6.342  11.069 -2.8099  0.4882  1.8293
  329MOL0     H44385   8.199   6.140  11.308 -0.1688  0.6020  3.2910
  329MOL0     H44386   8.083   6.266  11.254  0.7932  2.0282 -0.0575
  329MOL0     H44387   8.177   6.395  11.425 -0.7686 -1.0652 -0.0681
  329MOL0     H44388   8.298   6.418  11.305  0.6544  0.3016  0.5673
  329MOL0     H44389   8.403   6.381  11.507  1.6412  0.2687 -1.1695
  329MOL0     H44390   8.313   6.220  11.535  1.9932  0.9343  1.9841
  329MOL0     H44391   8.529   6.305  11.338 -0.4509 -0.4886 -1.3887
  329MOL0     H44392   8.432   6.153  11.342  0.4855 -0.0995 -0.3100
  329MOL0     H44393   8.612   6.261  11.560  0.1412 -0.9050  0.4667
  329MOL0     H44394   8.510   6.104  11.567 -0.7817  0.8358  0.9125
  329MOL0     H44395   7.774   6.163  10.977  1.3410  0.7170 -0.2167
  329MOL0     H44396   7.553   6.108  10.892 -0.7479 -0.8953 -0.0831
  329MOL0     H44397   7.218   5.674  10.776  3.1880  0.7465 -0.4189
  329MOL0     H44398   7.003   5.655  10.652  0.5971 -0.3751  1.2077
  329MOL0     H44399   5.479   5.788   9.789  0.4794 -1.3327 -1.2789
  329MOL0     H44400   5.226   5.788   9.781  0.1944 -2.2974 -3.5944
  329MOL0     H44401   4.841   5.576   9.814 -0.6043 -1.6577 -0.7136
  329MOL0     H44402   4.598   5.622   9.833  0.8294  3.7474 -0.3136
  329MOL0     H44403   4.466   5.856  10.136  0.2626 -0.5765 -2.5150
  329MOL0     H44404   4.379   5.719  10.218 -1.2840  0.2033 -0.2363
  329MOL0     H44405   4.297   5.876   9.959 -1.3357  1.6704  0.1290
  329MOL0     H44406   4.218   5.900  10.114  2.1819 -0.7558  1.8534
  329MOL0     H44407   4.150   5.643  10.090 -1.5532  0.3868  0.7221
  329MOL0     H44408   4.233   5.650   9.933  0.1429 -3.5390  1.6432
  329MOL0     H44409   3.967   5.714   9.928 -1.1424  3.4787  0.5687
  329MOL0     H44410   4.007   5.822  10.048  0.4882  0.3826  0.6186
  329MOL0     H44411   4.135   6.030   9.688  1.7610  0.3457 -0.6418
  329MOL0     H44412   4.627   5.676  10.248  2.6598 -1.5937  2.1825
  329MOL0     H44413   4.966   5.591  10.292  2.0783  0.8171 -3.0238
  329MOL0     H44414   4.915   5.756  10.303 -0.1382 -0.4892  2.2904
  329MOL0     H44415   4.809   5.626  10.367  0.5514  4.7567  1.7864
  330MOL0     O44416   5.065   0.104   5.319 -0.1509  0.1982 -0.0577
  330MOL0     C44417   5.001   0.163   5.232 -0.2238 -0.0367 -0.7536
  330MOL0     O44418   5.060   0.241   5.135 -0.2811 -0.6385 -0.0308
  330MOL0     C44419   5.198   0.238   5.126 -0.9177 -0.3894 -1.2359
  330MOL0     C44420   5.257   0.367   5.098  0.0306  0.4339 -1.0766
  330MOL0     C44421   5.395   0.369   5.086 -0.0118  0.2426 -0.6024
  330MOL0     C44422   5.473   0.250   5.084 -0.5311 -0.3508  0.0072
  330MOL0     O44423   5.607   0.267   5.060  0.2858  0.2296  0.1352
  330MOL0     C44424   5.672   0.171   4.975  0.2163 -0.3820 -0.5034
  330MOL0     C44425   5.765   0.096   5.073  0.8921  0.2587  0.7196
  330MOL0     C44426   5.881   0.033   5.008  0.6911  0.0663  0.7147
  330MOL0     C44427   6.012   0.110   5.022  0.2597  0.7694  0.0167
  330MOL0     C44428   6.132   0.041   4.957 -0.1813  0.3630 -0.1955
  330MOL0     C44429   6.254   0.132   4.940 -0.6245  0.7746 -0.5035
  330MOL0     C44430   6.367   0.057   4.853 -0.2631 -0.0956 -0.9413
  330MOL0     C44431   6.445  -0.024   4.957  0.0542 -0.8556 -0.4790
  330MOL0     N44432   6.527   0.066   5.043 -0.4598  0.2769  0.3525
  330MOL0     C44433   6.638   0.144   5.003 -0.7617 -0.5781 -0.1319
  330MOL0     C44434   6.690   0.196   5.122  0.1253  0.1843 -0.2523
  330MOL0     C44435   6.809   0.278   5.154 -0.2042  0.3297 -0.9640
  330MOL0     C44436   6.938   0.204   5.161 -0.4036  0.1768 -1.0253
  330MOL0     C44437   6.938   0.115   5.285 -0.6455  0.4019 -0.5363
  330MOL0     C44438   7.056   0.017   5.313  0.5385  0.3394 -0.0173
  330MOL0     O44439   7.179   0.095   5.342 -1.3821 -0.4198 -0.0999
  330MOL0     C44440   7.291   0.024   5.363 -0.2699  0.0617 -0.2079
  330MOL0     C44441   7.296  -0.108   5.398 -0.1508  0.5996 -0.6956
  330MOL0     C44442   7.416  -0.181   5.418  0.0395 -0.4757  0.0892
  330MOL0     C44443   7.543  -0.120   5.413 -0.7550 -0.9599 -0.2353
  330MOL0     C44444   7.673  -0.190   5.434  0.3784  0.3463  0.5113
  330MOL0     O44445   7.778  -0.116   5.396 -0.3687  0.9051 -0.7945
  330MOL0     C44446   7.906  -0.150   5.425  0.0699  0.0817  0.2767
  330MOL0     C44447   7.955  -0.255   5.512  0.5934 -0.1947  1.3105
  330MOL0     C44448   8.089  -0.258   5.537 -0.0046  0.3845  0.2056
  330MOL0     C44449   8.183  -0.185   5.463 -0.1028  0.1864  1.1101
  330MOL0     O44450   8.314  -0.219   5.491  0.4096  0.6308  0.4299
  330MOL0     C44451   8.407  -0.117   5.464  0.0930  0.5278 -0.2879
  330MOL0     C44452   8.551  -0.165   5.491 -0.4448  0.5367  0.1339
  330MOL0     C44453   8.653  -0.051   5.496 -0.0387 -0.1315 -0.5753
  330MOL0     C44454   8.798  -0.107   5.503  0.6528 -0.0885 -0.1133
  330MOL0     C44455   8.913  -0.026   5.439  0.4159 -0.6350 -0.3957
  330MOL0     C44456   9.035  -0.114   5.428 -0.7681 -0.3868  0.3886
  330MOL0     C44457   9.140  -0.031   5.359 -0.7380  0.4208 -0.5319
  330MOL0     C44458   9.276  -0.107   5.369  0.6040 -0.2555  0.1804
  330MOL0    Cl44459   9.394  -0.002   5.291 -0.1736 -0.0673  0.3805
  330MOL0     C44460   8.139  -0.090   5.377  1.2628 -0.6469 -0.1971
  330MOL0     C44461   8.001  -0.070   5.358  0.1251  1.1037 -0.0136
  330MOL0     O44462   7.671  -0.303   5.477 -0.2949  0.6666  0.5920
  330MOL0     C44463   7.540   0.014   5.382 -0.4430 -0.0296  0.4158
  330MOL0     C44464   7.418   0.081   5.356 -0.4038 -0.7230 -0.1451
  330MOL0     N44465   6.604   0.162   5.227 -0.9881 -0.4368  0.6935
  330MOL0     N44466   6.514   0.082   5.181  0.1887 -0.6400  1.1294
  330MOL0     C44467   5.411   0.123   5.111  0.2350  0.4109  0.1911
  330MOL0     C44468   5.274   0.122   5.131 -0.2907 -0.5235 -0.4700
  330MOL0     C44469   4.856   0.168   5.256 -0.0185 -1.6934  0.7068
  330MOL0     C44470   4.777   0.270   5.193  0.0128  0.3876 -0.5423
  330MOL0     C44471   4.640   0.294   5.217 -1.0357  0.1300  0.2418
  330MOL0     C44472   4.572   0.205   5.298  0.4841  0.0447 -0.3773
  330MOL0     O44473   4.440   0.230   5.313 -0.0253 -0.5503  0.8360
  330MOL0     C44474   4.342   0.123   5.348 -0.5768 -1.5808 -0.0409
  330MOL0     C44475   4.201   0.175   5.304 -0.0882 -0.5726  1.5984
  330MOL0     C44476   4.082   0.074   5.312  0.9787  0.8349  0.2146
  330MOL0     C44477   3.963   0.126   5.225  0.3311 -0.6802  0.9944
  330MOL0     C44478   3.893   0.244   5.278  0.7212  0.5317 -0.1691
  330MOL0     C44479   3.848   0.346   5.326  0.6177  0.2976 -0.3411
  330MOL0     C44480   4.650   0.108   5.364  0.1248  0.9734 -0.1787
  330MOL0     C44481   4.776   0.082   5.336 -0.3786  0.4992 -0.2783
  330MOL0     C44482   4.838  -0.046   5.403  0.0293 -0.4026  0.3320
  330MOL0     H44483   5.188   0.450   5.087  0.4448  1.0144  0.3969
  330MOL0     H44484   5.443   0.466   5.076  4.5611 -1.7792 -1.0172
  330MOL0     H44485   5.611   0.108   4.912 -0.4881  1.1386 -1.3969
  330MOL0     H44486   5.729   0.230   4.903  1.9060 -1.7121 -0.3266
  330MOL0     H44487   5.714   0.010   5.115  2.2134 -0.8326  0.1613
  330MOL0     H44488   5.791   0.156   5.160  1.8435  1.6406 -0.4624
  330MOL0     H44489   5.855   0.007   4.906  1.1215 -0.7156  0.7912
  330MOL0     H44490   5.912  -0.055   5.065 -0.6670  0.6188  2.3961
  330MOL0     H44491   5.993   0.209   4.980 -1.3636  0.6468  0.3953
  330MOL0     H44492   6.044   0.119   5.126  0.7437 -1.2948  0.0735
  330MOL0     H44493   6.159  -0.039   5.027  1.2530  0.5483 -0.4985
  330MOL0     H44494   6.111   0.001   4.857  0.5353  0.7962 -0.5244
  330MOL0     H44495   6.214   0.221   4.891 -0.9974  2.2035  2.1885
  330MOL0     H44496   6.301   0.177   5.028  0.8880  3.4873 -2.5342
  330MOL0     H44497   6.439   0.127   4.809  1.2506  0.2714  1.8697
  330MOL0     H44498   6.328  -0.013   4.779 -3.2626 -0.3778  0.7496
  330MOL0     H44499   6.380  -0.080   5.025  2.4722 -1.3387  1.6053
  330MOL0     H44500   6.518  -0.091   4.913  2.2470  0.6284  0.7125
  330MOL0     H44501   6.677   0.149   4.902  0.5495 -1.1533  0.3303
  330MOL0     H44502   6.816   0.363   5.085  1.1810  0.8096 -0.2603
  330MOL0     H44503   6.790   0.324   5.252 -3.7637 -4.8258  1.2279
  330MOL0     H44504   6.956   0.150   5.068  0.2588 -2.8284  0.7197
  330MOL0     H44505   7.029   0.265   5.170  1.9070 -2.6691 -2.9907
  330MOL0     H44506   6.858   0.041   5.280  0.9978 -1.7510  2.0908
  330MOL0     H44507   6.916   0.177   5.372 -0.2355  1.9714 -1.5161
  330MOL0     H44508   7.058  -0.046   5.224 -0.6454 -1.1600  0.9830
  330MOL0     H44509   7.022  -0.026   5.407  1.2546  1.3729  0.7435
  330MOL0     H44510   7.201  -0.160   5.401  1.4907 -2.5914  0.1714
  330MOL0     H44511   7.420  -0.288   5.435  0.3940 -0.3437  0.9221
  330MOL0     H44512   7.878  -0.323   5.548 -0.2546  1.1851  2.2089
  330MOL0     H44513   8.134  -0.326   5.609  1.6879  0.1988 -0.9737
  330MOL0     H44514   8.398  -0.071   5.365 -0.4014  2.2943  0.5250
  330MOL0     H44515   8.387  -0.035   5.534  0.0128  1.1473 -1.0177
  330MOL0     H44516   8.555  -0.230   5.578 -1.4150  0.0513 -0.1663
  330MOL0     H44517   8.575  -0.225   5.402 -0.5476 -2.5085  2.0294
  330MOL0     H44518   8.634   0.011   5.408  2.4567  0.5796 -0.7038
  330MOL0     H44519   8.639   0.017   5.580  1.2860  0.2174 -0.6153
  330MOL0     H44520   8.793  -0.196   5.440  0.3028 -1.5578  1.8827
  330MOL0     H44521   8.816  -0.127   5.609 -3.9852  0.0181  0.9112
  330MOL0     H44522   8.934   0.059   5.505  0.0082 -1.5469  0.9481
  330MOL0     H44523   8.882   0.004   5.339 -0.0576  4.7347  1.0655
  330MOL0     H44524   9.060  -0.140   5.531  0.8408 -0.7702 -0.0764
  330MOL0     H44525   9.022  -0.202   5.364 -0.5262  0.5849 -1.0349
  330MOL0     H44526   9.156   0.067   5.404  0.2408  0.4474 -0.8953
  330MOL0     H44527   9.117  -0.016   5.253 -0.4266 -0.9687 -0.8193
  330MOL0     H44528   9.294  -0.121   5.476  0.3723 -1.9829  0.0273
  330MOL0     H44529   9.263  -0.204   5.320 -1.3553  0.0741 -0.0206
  330MOL0     H44530   8.211  -0.032   5.322  0.9462 -0.1554 -0.1078
  330MOL0     H44531   7.963  -0.005   5.280  1.0807  0.1232 -1.3397
  330MOL0     H44532   7.634   0.068   5.389 -0.3776 -0.3237  4.2037
  330MOL0     H44533   7.415   0.186   5.330  1.6957 -1.0853 -2.1780
  330MOL0     H44534   5.476   0.037   5.123 -1.5218 -1.2371 -1.4573
  330MOL0     H44535   5.215   0.031   5.140 -2.2913  0.8275  1.1243
  330MOL0     H44536   4.822   0.342   5.126 -0.3304 -0.9844 -2.3184
  330MOL0     H44537   4.599   0.382   5.170 -0.4891  0.5874  0.6212
  330MOL0     H44538   4.344   0.100   5.455  2.0103 -0.4726  0.2382
  330MOL0     H44539   4.377   0.031   5.300 -1.3051 -0.2917 -3.2878
  330MOL0     H44540   4.216   0.211   5.201 -1.3804  0.7530  1.8416
  330MOL0     H44541   4.178   0.267   5.359  4.3262  0.8468  1.4438
  330MOL0     H44542   4.048   0.066   5.415 -1.6463  4.0166 -0.2439
  330MOL0     H44543   4.109  -0.029   5.288 -1.8582 -0.8053  3.3077
  330MOL0     H44544   3.993   0.149   5.122 -0.9841 -2.8018  0.0713
  330MOL0     H44545   3.885   0.050   5.215  2.1216 -2.3569 -1.5064
  330MOL0     H44546   3.806   0.438   5.362 -2.4768 -0.3169 -2.0568
  330MOL0     H44547   4.598   0.036   5.427  0.3191  0.9549 -0.0380
  330MOL0     H44548   4.768  -0.089   5.475 -0.4266  2.1447  1.5327
  330MOL0     H44549   4.862  -0.123   5.330 -3.0499 -0.0916 -1.1689
  330MOL0     H44550   4.920  -0.011   5.467  1.3468 -0.0902 -1.4620
  331MOL0     O44551   3.276   1.190   9.842 -0.0505 -0.4628 -0.0075
  331MOL0     C44552   3.341   1.085   9.844  0.1147 -0.3281  0.3661
  331MOL0     O44553   3.478   1.082   9.830 -0.6134  0.4305 -0.6245
  331MOL0     C44554   3.547   1.192   9.794 -0.7316 -0.3597 -0.6586
  331MOL0     C44555   3.503   1.289   9.698  1.3143  0.1094 -0.4802
  331MOL0     C44556   3.587   1.396   9.662  0.6080 -0.1133  0.5900
  331MOL0     C44557   3.722   1.411   9.717 -0.0870  0.8930 -0.5746
  331MOL0     O44558   3.807   1.517   9.698  0.3671  0.0521  0.1425
  331MOL0     C44559   3.786   1.602   9.577  0.5654  0.8062 -0.0590
  331MOL0     C44560   3.921   1.676   9.542 -0.2043  0.1449 -0.3069
  331MOL0     C44561   3.971   1.757   9.666  0.1802  0.1395 -0.4034
  331MOL0     C44562   4.098   1.824   9.613 -0.1122 -0.7844  0.3770
  331MOL0     C44563   4.189   1.879   9.715  0.1163 -0.9798  0.6236
  331MOL0     C44564   4.289   1.986   9.658 -0.2248 -0.9102  0.0344
  331MOL0     C44565   4.395   2.011   9.770  0.1806 -0.6951  0.5090
  331MOL0     C44566   4.486   2.132   9.734  0.1874 -0.0124  0.3768
  331MOL0     N44567   4.585   2.151   9.840 -0.3847  0.0746 -0.2526
  331MOL0     C44568   4.689   2.068   9.863 -1.3836 -0.6728  0.1345
  331MOL0     C44569   4.750   2.137   9.969  1.1270  1.2403 -0.0551
  331MOL0     C44570   4.875   2.112  10.042 -0.1614  0.1468  0.6258
  331MOL0     C44571   4.988   2.205   9.998 -0.3874 -0.3400  0.1192
  331MOL0     C44572   5.058   2.142   9.872 -0.6487 -0.3342  0.0733
  331MOL0     C44573   5.176   2.233   9.830  0.3950 -0.5232 -0.4299
  331MOL0     O44574   5.277   2.216   9.934  0.1505  0.1760  0.5783
  331MOL0     C44575   5.408   2.260   9.910  0.1124 -0.7930 -0.8365
  331MOL0     C44576   5.466   2.269   9.786  0.2924  0.3957  0.3118
  331MOL0     C44577   5.600   2.321   9.772  0.1597  0.4483 -1.0493
  331MOL0     C44578   5.665   2.364   9.888 -0.5189 -0.1318 -0.2959
  331MOL0     C44579   5.802   2.422   9.878  0.2462 -0.0114  0.6437
  331MOL0     O44580   5.859   2.448  10.000 -0.1329  0.1323 -0.1617
  331MOL0     C44581   5.981   2.506  10.021  0.7238  0.9430  0.4713
  331MOL0     C44582   6.084   2.530   9.927 -0.0527  0.1829 -0.9297
  331MOL0     C44583   6.200   2.590   9.965 -0.5646  0.3241  0.7559
  331MOL0     C44584   6.227   2.625  10.096 -0.1810 -0.9309  0.1194
  331MOL0     O44585   6.345   2.677  10.138  0.2120 -0.1796  0.5699
  331MOL0     C44586   6.442   2.727  10.041 -0.1764  0.3446  0.4951
  331MOL0     C44587   6.569   2.777  10.115 -0.1713  0.3691  0.3809
  331MOL0     C44588   6.654   2.860  10.026  0.1083 -1.0597  0.5331
  331MOL0     C44589   6.804   2.845  10.046 -0.1200 -0.7816 -0.9063
  331MOL0     C44590   6.893   2.933   9.955  0.2635  0.4337 -0.4897
  331MOL0     C44591   6.901   2.876   9.815 -1.7066 -0.5385  0.1805
  331MOL0     C44592   7.027   2.917   9.733  0.0585  1.0307 -0.2175
  331MOL0     C44593   7.026   2.881   9.589  0.8839 -0.3693  0.2333
  331MOL0    Cl44594   6.920   2.996   9.493 -0.1257  0.1279  0.3172
  331MOL0     C44595   6.127   2.595  10.190  0.7774 -0.1004 -0.2177
  331MOL0     C44596   6.007   2.524  10.154 -0.0534 -0.4084 -0.2009
  331MOL0     O44597   5.853   2.441   9.770  0.3946  0.4816  0.1899
  331MOL0     C44598   5.601   2.355  10.016  0.5065  0.5886  0.1053
  331MOL0     C44599   5.468   2.301  10.030 -0.2442 -0.2497  0.3306
  331MOL0     N44600   4.675   2.247  10.014  1.7423  0.4758  0.4138
  331MOL0     N44601   4.574   2.253   9.935 -0.3705  0.7081  0.3247
  331MOL0     C44602   3.762   1.308   9.801  0.0438  0.0558  0.4021
  331MOL0     C44603   3.674   1.202   9.835 -0.0079 -0.6914 -0.2398
  331MOL0     C44604   3.272   0.950   9.843  0.5620 -0.8642 -0.1804
  331MOL0     C44605   3.346   0.830   9.841 -0.2330 -0.4744  0.4177
  331MOL0     C44606   3.286   0.701   9.853  0.1094 -0.5664  0.2783
  331MOL0     C44607   3.149   0.688   9.863  0.0094  0.7270 -1.0208
  331MOL0     O44608   3.081   0.567   9.859  0.7249  0.0678 -0.7262
  331MOL0     C44609   3.019   0.532   9.986 -0.2106 -0.7716 -0.5951
  331MOL0     C44610   2.923   0.418   9.958 -0.3106  0.2821 -0.3275
  331MOL0     C44611   2.828   0.453   9.844  0.0215 -0.7029  0.3933
  331MOL0     C44612   2.861   0.390   9.709  0.7652  0.4284  0.7520
  331MOL0     C44613   2.747   0.349   9.620  0.6623  0.0824 -0.3198
  331MOL0     C44614   2.654   0.325   9.555 -0.4860 -0.8077  0.1741
  331MOL0     C44615   3.076   0.806   9.862  0.8689  0.1826  0.3406
  331MOL0     C44616   3.130   0.933   9.855 -0.4243 -0.5055  1.2855
  331MOL0     C44617   3.030   1.045   9.884 -0.2015  0.0723 -0.1444
  331MOL0     H44618   3.406   1.286   9.650 -0.0532 -2.0797  2.1224
  331MOL0     H44619   3.555   1.463   9.582  0.7193 -0.1536  0.5112
  331MOL0     H44620   3.761   1.540   9.490 -1.3699  0.5813  0.6221
  331MOL0     H44621   3.698   1.665   9.590  0.2614  0.3260  0.2404
  331MOL0     H44622   3.905   1.733   9.450 -0.2676 -1.5819 -1.4140
  331MOL0     H44623   3.997   1.600   9.520 -3.6985 -2.8343 -3.4465
  331MOL0     H44624   3.994   1.699   9.755  2.5554  1.3837 -0.1029
  331MOL0     H44625   3.892   1.832   9.679 -0.0399 -0.0186 -0.8186
  331MOL0     H44626   4.155   1.755   9.549  0.5029  0.0750 -0.0131
  331MOL0     H44627   4.072   1.907   9.547 -2.0266  0.3141  2.3783
  331MOL0     H44628   4.133   1.920   9.799  1.2187  2.4374 -0.1863
  331MOL0     H44629   4.239   1.789   9.752  0.0057 -0.9692  0.8006
  331MOL0     H44630   4.341   1.956   9.567 -2.0720  0.7376 -1.6460
  331MOL0     H44631   4.237   2.077   9.626 -2.6115 -1.3411  2.2777
  331MOL0     H44632   4.452   1.919   9.756  0.6189 -0.1039 -2.3042
  331MOL0     H44633   4.326   2.029   9.853 -2.4007  1.2025 -1.8245
  331MOL0     H44634   4.534   2.114   9.637  0.0482  2.4047 -0.1890
  331MOL0     H44635   4.420   2.218   9.723  2.1339  1.4852 -0.0392
  331MOL0     H44636   4.727   1.982   9.808 -0.3386  1.6594 -3.0729
  331MOL0     H44637   4.854   2.134  10.147 -2.8935 -3.1526  0.9462
  331MOL0     H44638   4.909   2.009  10.059  1.5031  1.0338  3.2967
  331MOL0     H44639   4.941   2.300   9.969  0.0066 -0.9676 -2.9540
  331MOL0     H44640   5.055   2.210  10.084  0.5531  0.1218 -0.6181
  331MOL0     H44641   4.987   2.132   9.789 -0.0506  2.6945 -0.9553
  331MOL0     H44642   5.099   2.044   9.899 -1.0000 -0.4033  0.3643
  331MOL0     H44643   5.139   2.336   9.840 -1.4168 -1.3589  3.7371
  331MOL0     H44644   5.203   2.215   9.726  0.9013  0.7648 -0.5355
  331MOL0     H44645   5.421   2.235   9.693 -0.4359 -1.3286  1.2546
  331MOL0     H44646   5.648   2.316   9.675  1.3971 -0.6823 -0.4012
  331MOL0     H44647   6.070   2.496   9.825 -1.8555 -2.0939 -0.0083
  331MOL0     H44648   6.279   2.603   9.891  0.3109  0.5263  1.7013
  331MOL0     H44649   6.478   2.644   9.979 -0.6955 -1.0136  1.9287
  331MOL0     H44650   6.384   2.806   9.993  0.0924  1.7180  2.3236
  331MOL0     H44651   6.542   2.839  10.201 -0.2954 -1.4949  1.7491
  331MOL0     H44652   6.626   2.692  10.152  0.3658 -0.2312 -1.6942
  331MOL0     H44653   6.642   2.837   9.920  3.0028 -2.0286  0.3203
  331MOL0     H44654   6.647   2.966  10.052  2.0125 -1.0598  1.2261
  331MOL0     H44655   6.829   2.738  10.041  0.1104 -0.7047 -1.4375
  331MOL0     H44656   6.834   2.876  10.147  0.7107  2.0838 -1.9450
  331MOL0     H44657   6.996   2.930   9.990  0.5042  4.3766 -0.3237
  331MOL0     H44658   6.856   3.036   9.962 -2.7136 -0.5382 -0.2563
  331MOL0     H44659   6.886   2.768   9.822 -2.9090 -0.2712  3.4411
  331MOL0     H44660   6.811   2.914   9.766 -3.2743 -2.0388  1.7402
  331MOL0     H44661   7.106   2.854   9.775 -0.2544  0.8098  0.0467
  331MOL0     H44662   7.054   3.021   9.753 -2.8370  1.5656  1.5053
  331MOL0     H44663   7.132   2.896   9.567  1.2879  0.4073  2.4411
  331MOL0     H44664   6.984   2.782   9.575 -1.7592  0.6095  0.7252
  331MOL0     H44665   6.171   2.608  10.288  6.1948  0.8889 -2.4120
  331MOL0     H44666   5.945   2.491  10.237  1.5170 -1.6161  0.5544
  331MOL0     H44667   5.650   2.388  10.107 -2.2243  3.2354  0.7639
  331MOL0     H44668   5.437   2.278  10.131  2.7758  0.9035  1.6401
  331MOL0     H44669   3.857   1.315   9.853  0.0146  0.3446  0.4177
  331MOL0     H44670   3.702   1.117   9.897 -1.0592  0.4259  1.8842
  331MOL0     H44671   3.453   0.840   9.824 -0.6310  1.4741 -1.3202
  331MOL0     H44672   3.337   0.606   9.860  0.4894 -0.3547  0.4191
  331MOL0     H44673   2.949   0.609  10.020  0.6797  0.1698 -0.8501
  331MOL0     H44674   3.089   0.506  10.066 -0.9760 -0.2937  0.2548
  331MOL0     H44675   2.872   0.392  10.051  2.6948 -0.3383  1.2760
  331MOL0     H44676   2.980   0.329   9.930 -0.2302  0.7275 -1.6452
  331MOL0     H44677   2.809   0.560   9.826 -3.6799 -1.3029 -0.1345
  331MOL0     H44678   2.732   0.418   9.881  1.0794 -0.9826  3.0531
  331MOL0     H44679   2.933   0.449   9.653  0.9982 -1.4090 -1.0117
  331MOL0     H44680   2.916   0.296   9.721  0.8080  0.1165 -1.5548
  331MOL0     H44681   2.565   0.292   9.507 -1.0772  0.2380  0.5470
  331MOL0     H44682   2.969   0.791   9.873  0.6585  1.6349  0.5840
  331MOL0     H44683   3.027   1.122   9.806  1.0618 -0.3201 -0.6121
  331MOL0     H44684   2.927   1.008   9.893  0.4433 -1.6380  0.7192
  331MOL0     H44685   3.055   1.095   9.978  0.0069  3.4538 -1.8378
  332MOL0     O44686   0.445   7.409   5.099  0.1256  0.1271 -0.6813
  332MOL0     C44687   0.562   7.454   5.077  0.1675  0.3212 -0.7035
  332MOL0     O44688   0.617   7.553   5.145  0.8422  0.2012 -0.8921
  332MOL0     C44689   0.542   7.612   5.239  0.1252 -0.0424  0.3990
  332MOL0     C44690   0.450   7.708   5.192 -0.3519 -1.0139 -0.3439
  332MOL0     C44691   0.372   7.774   5.279  0.7699  0.1941 -0.4497
  332MOL0     C44692   0.385   7.755   5.421 -0.1682 -0.6178  0.6216
  332MOL0     O44693   0.303   7.831   5.498  0.3233  0.0895  0.1645
  332MOL0     C44694   0.295   7.803   5.638 -0.3409 -0.5371  0.5057
  332MOL0     C44695   0.174   7.873   5.697 -0.0579 -0.7746  0.3633
  332MOL0     C44696   0.044   7.813   5.658 -0.4879  0.5632  0.0014
  332MOL0     C44697  -0.068   7.857   5.751  0.9217  1.0272 -0.2319
  332MOL0     C44698  -0.185   7.768   5.754 -0.7572  0.1952  0.6633
  332MOL0     C44699  -0.266   7.791   5.883  0.0386  0.0845  0.1170
  332MOL0     C44700  -0.401   7.726   5.897 -0.1944  0.9460  0.2093
  332MOL0     C44701  -0.394   7.574   5.906  0.6707  0.1589  0.1816
  332MOL0     N44702  -0.527   7.513   5.957 -0.4575 -0.6513 -0.8810
  332MOL0     C44703  -0.541   7.417   6.058  0.0771  0.2467  1.5776
  332MOL0     C44704  -0.675   7.388   6.048 -0.2291  0.4120 -0.1543
  332MOL0     C44705  -0.774   7.297   6.128 -0.1705  0.3468  0.4768
  332MOL0     C44706  -0.803   7.360   6.263 -0.0102 -0.5859 -0.2698
  332MOL0     C44707  -0.698   7.315   6.369  0.0818 -0.2870 -0.1922
  332MOL0     C44708  -0.657   7.416   6.481 -0.7628 -0.1263 -0.6205
  332MOL0     O44709  -0.625   7.544   6.419  0.2664  0.1260 -0.4794
  332MOL0     C44710  -0.499   7.577   6.385 -0.7163 -1.1804  0.3607
  332MOL0     C44711  -0.394   7.485   6.373 -0.0314  1.2686 -0.5881
  332MOL0     C44712  -0.268   7.533   6.333  1.2193  0.8066 -0.1118
  332MOL0     C44713  -0.251   7.660   6.282  0.6972 -0.2670 -0.3759
  332MOL0     C44714  -0.129   7.704   6.221 -0.6621 -0.0235 -0.6920
  332MOL0     O44715  -0.040   7.601   6.212 -0.4919 -1.4856 -0.5403
  332MOL0     C44716   0.079   7.635   6.171  0.6508 -0.2468 -0.5659
  332MOL0     C44717   0.172   7.709   6.253  0.4644 -0.2182  0.0798
  332MOL0     C44718   0.296   7.756   6.200  1.2371 -0.3027 -0.5580
  332MOL0     C44719   0.327   7.713   6.074  0.5901  0.2744 -0.1313
  332MOL0     O44720   0.458   7.740   6.036 -0.8617  0.5494 -0.1730
  332MOL0     C44721   0.524   7.646   5.951 -0.4204 -0.4446 -0.6470
  332MOL0     C44722   0.648   7.728   5.886  0.0185  0.3587 -0.6678
  332MOL0     C44723   0.761   7.648   5.822 -0.6323 -0.0144 -0.7093
  332MOL0     C44724   0.883   7.744   5.783 -0.2310 -0.1184  0.1321
  332MOL0     C44725   1.016   7.662   5.770  0.6647  0.7518 -0.1851
  332MOL0     C44726   1.017   7.561   5.655  0.1165  0.4383  0.2499
  332MOL0     C44727   1.155   7.553   5.591 -0.0017 -0.5148  0.9686
  332MOL0     C44728   1.262   7.508   5.700 -0.2617 -0.0178  1.2101
  332MOL0    Cl44729   1.425   7.521   5.635  0.0112  0.1988 -0.0225
  332MOL0     C44730   0.240   7.637   5.995 -0.8116  0.1850 -0.5625
  332MOL0     C44731   0.114   7.607   6.040  0.3740 -0.1712 -0.1191
  332MOL0     O44732  -0.121   7.825   6.190  0.6607  0.0500 -0.5797
  332MOL0     C44733  -0.360   7.742   6.284  0.2600 -0.4002 -0.1735
  332MOL0     C44734  -0.488   7.705   6.331 -0.6638  0.0127  0.8403
  332MOL0     N44735  -0.732   7.457   5.941  0.2426 -0.2641  0.9502
  332MOL0     N44736  -0.646   7.536   5.887  0.0268 -0.7665  0.2343
  332MOL0     C44737   0.479   7.660   5.473  0.2238 -0.5302  0.4274
  332MOL0     C44738   0.555   7.592   5.378 -0.4827 -0.4194  0.2695
  332MOL0     C44739   0.646   7.387   4.973  0.2797  0.2979  0.2858
  332MOL0     C44740   0.785   7.377   4.997  0.4960  0.6542  0.2388
  332MOL0     C44741   0.869   7.313   4.910  0.2752 -0.3536 -0.2627
  332MOL0     C44742   0.820   7.246   4.792 -0.1619  0.5950 -0.3038
  332MOL0     O44743   0.914   7.179   4.723  0.4705 -0.4645 -0.0952
  332MOL0     C44744   0.869   7.106   4.611 -0.6508  0.1439 -0.0606
  332MOL0     C44745   0.986   7.025   4.549 -0.5766  0.5524  1.4126
  332MOL0     C44746   1.127   7.093   4.569  0.1043  0.7992  0.0752
  332MOL0     C44747   1.253   7.030   4.504 -0.2169 -0.4581  0.1323
  332MOL0     C44748   1.336   6.965   4.596 -0.0278  0.2418  0.2870
  332MOL0     C44749   1.385   6.887   4.681 -0.3090  0.0177  0.4875
  332MOL0     C44750   0.686   7.269   4.762  0.1759  0.6907 -0.0371
  332MOL0     C44751   0.592   7.334   4.849 -0.0189  0.2710 -0.6503
  332MOL0     C44752   0.450   7.351   4.803  1.0101  0.4423  0.1077
  332MOL0     H44753   0.445   7.733   5.086 -0.8735 -3.2435 -0.8848
  332MOL0     H44754   0.313   7.858   5.245 -1.0999 -0.3100  1.3626
  332MOL0     H44755   0.272   7.696   5.644 -0.6008 -0.5575 -0.6083
  332MOL0     H44756   0.392   7.816   5.686 -1.0339 -2.0587  2.4865
  332MOL0     H44757   0.179   7.978   5.669  0.7212 -0.6042  1.1004
  332MOL0     H44758   0.193   7.876   5.805 -0.4571  1.2447  0.4137
  332MOL0     H44759   0.058   7.706   5.675  2.3345  0.6240 -1.3193
  332MOL0     H44760   0.018   7.815   5.552  0.3193  1.1162 -0.1995
  332MOL0     H44761  -0.029   7.856   5.854  0.6128 -4.4233  0.1275
  332MOL0     H44762  -0.112   7.955   5.732 -0.5714  0.8532  1.8831
  332MOL0     H44763  -0.247   7.788   5.666 -1.9848 -1.9007  0.9911
  332MOL0     H44764  -0.154   7.664   5.743 -0.3518  0.5869 -3.8377
  332MOL0     H44765  -0.197   7.757   5.961 -0.8503 -1.8784  0.1003
  332MOL0     H44766  -0.274   7.899   5.896 -1.9380 -0.0954  0.6497
  332MOL0     H44767  -0.462   7.748   5.809  0.0953  1.4150  0.1225
  332MOL0     H44768  -0.445   7.774   5.985 -2.2770 -1.9655  0.9093
  332MOL0     H44769  -0.378   7.539   5.804 -0.0231 -2.8301  1.0002
  332MOL0     H44770  -0.309   7.534   5.963  1.6327  1.3911 -0.3317
  332MOL0     H44771  -0.461   7.382   6.122  1.9898 -0.8849 -1.2444
  332MOL0     H44772  -0.867   7.283   6.073  0.6266  2.2907 -1.4625
  332MOL0     H44773  -0.734   7.198   6.155 -0.5507  0.5852  2.0071
  332MOL0     H44774  -0.808   7.469   6.252  1.6557 -0.3221  1.0388
  332MOL0     H44775  -0.899   7.326   6.302  0.0556 -0.6743 -0.1834
  332MOL0     H44776  -0.605   7.304   6.312  0.6587 -3.3937  1.1148
  332MOL0     H44777  -0.727   7.217   6.408  0.2650 -0.6842 -1.0414
  332MOL0     H44778  -0.573   7.381   6.541 -2.1403  1.2902  2.3357
  332MOL0     H44779  -0.742   7.430   6.549  2.5845  1.7580  3.6469
  332MOL0     H44780  -0.402   7.382   6.405  0.8162  1.8723  1.8343
  332MOL0     H44781  -0.194   7.453   6.326  3.6931  2.9684  0.0489
  332MOL0     H44782   0.140   7.733   6.354 -1.7074  0.2289 -0.6685
  332MOL0     H44783   0.367   7.814   6.257  1.9149 -2.6603  1.1458
  332MOL0     H44784   0.556   7.550   5.993  0.1880 -0.8616 -1.9991
  332MOL0     H44785   0.459   7.602   5.875  0.1774  0.1924 -1.5401
  332MOL0     H44786   0.609   7.800   5.813  0.5466  0.9627 -0.3618
  332MOL0     H44787   0.684   7.800   5.960  0.5562 -1.7916  1.2498
  332MOL0     H44788   0.804   7.577   5.893 -0.1254 -0.8430 -1.8308
  332MOL0     H44789   0.720   7.587   5.741  0.1795 -4.3447  1.8384
  332MOL0     H44790   0.880   7.813   5.868  0.2718 -2.1323  1.8673
  332MOL0     H44791   0.870   7.798   5.689  1.6307 -3.6210 -2.3401
  332MOL0     H44792   1.017   7.617   5.869  1.0073  3.6272  1.2157
  332MOL0     H44793   1.101   7.730   5.761 -0.6997  2.4821 -0.6372
  332MOL0     H44794   0.978   7.463   5.684 -3.2593  1.3745 -0.7218
  332MOL0     H44795   0.941   7.602   5.588  0.9773  0.8893 -0.4715
  332MOL0     H44796   1.183   7.648   5.544 -1.0952  0.7221  2.6907
  332MOL0     H44797   1.152   7.482   5.508 -0.6884  1.7683 -1.0445
  332MOL0     H44798   1.249   7.572   5.788  1.1602 -1.3488  2.4460
  332MOL0     H44799   1.245   7.406   5.736  0.8076 -1.7969 -2.8262
  332MOL0     H44800   0.261   7.606   5.893 -4.0189  0.5536 -1.4269
  332MOL0     H44801   0.049   7.548   5.977 -0.6589  0.4119  0.3728
  332MOL0     H44802  -0.368   7.842   6.242 -3.1939  0.0996  1.3186
  332MOL0     H44803  -0.566   7.779   6.325 -1.5975 -1.0659 -1.7615
  332MOL0     H44804   0.494   7.635   5.577  0.7652  2.1208  1.0621
  332MOL0     H44805   0.630   7.528   5.424 -0.1120  0.2716  0.6327
  332MOL0     H44806   0.832   7.419   5.085 -0.5917  1.7899  0.3019
  332MOL0     H44807   0.975   7.310   4.933 -0.0088  0.1781  1.1935
  332MOL0     H44808   0.832   7.165   4.527 -1.9294  0.4148  0.6517
  332MOL0     H44809   0.795   7.037   4.653 -0.0986 -0.0314  0.6399
  332MOL0     H44810   0.958   7.006   4.445 -1.6327 -1.6134  2.0198
  332MOL0     H44811   0.992   6.921   4.585  1.1568 -0.8022 -2.2963
  332MOL0     H44812   1.148   7.102   4.676 -0.3882 -2.0762  0.4949
  332MOL0     H44813   1.113   7.198   4.542 -0.5123  0.9844  1.0506
  332MOL0     H44814   1.229   6.970   4.415  2.2760 -0.0330 -0.9187
  332MOL0     H44815   1.312   7.112   4.462 -2.8104  1.6048  0.3022
  332MOL0     H44816   1.432   6.834   4.761 -0.1360 -1.7991 -0.7682
  332MOL0     H44817   0.639   7.224   4.675  0.7910 -3.1171  1.4017
  332MOL0     H44818   0.402   7.435   4.853 -0.9951  1.2281 -2.8967
  332MOL0     H44819   0.438   7.363   4.695 -3.2257 -0.0299  0.3669
  332MOL0     H44820   0.397   7.260   4.835  0.5074  0.5351 -0.4520
  333MOL0     O44821   7.149   3.115   0.432 -0.0184 -0.0521  1.2248
  333MOL0     C44822   7.094   3.227   0.436  0.6033  0.3365  0.3091
  333MOL0     O44823   7.104   3.316   0.540 -0.7446 -0.3080 -0.0538
  333MOL0     C44824   7.193   3.282   0.641  0.1700 -0.5755 -0.6331
  333MOL0     C44825   7.147   3.228   0.766  0.4047 -0.2812  0.5262
  333MOL0     C44826   7.240   3.196   0.867 -0.2739  0.1784 -0.3814
  333MOL0     C44827   7.374   3.227   0.851 -0.7987  0.6106 -0.2833
  333MOL0     O44828   7.468   3.198   0.947  0.5605 -0.7394  0.8840
  333MOL0     C44829   7.490   3.060   0.942  0.0807  0.8172 -0.1800
  333MOL0     C44830   7.584   3.016   1.054  0.5323 -0.4903 -0.1215
  333MOL0     C44831   7.541   3.045   1.199 -0.2129  0.1024 -0.3533
  333MOL0     C44832   7.470   2.935   1.287 -0.2115  0.2443 -0.5775
  333MOL0     C44833   7.414   3.008   1.414  0.9699  0.0172  0.1595
  333MOL0     C44834   7.363   2.915   1.528 -0.4644  0.3873 -0.2719
  333MOL0     C44835   7.304   2.986   1.653  0.5575 -0.4761  0.5868
  333MOL0     C44836   7.401   3.076   1.735  0.3378  0.2285 -0.3699
  333MOL0     N44837   7.518   2.997   1.770 -0.5868  0.2497 -0.4529
  333MOL0     C44838   7.631   2.986   1.706 -0.4664  0.6722  0.7187
  333MOL0     C44839   7.707   2.885   1.767  0.2350  0.0419  1.3540
  333MOL0     C44840   7.842   2.831   1.747 -0.3926  0.3740  0.2045
  333MOL0     C44841   7.952   2.940   1.726 -0.7593 -0.3014  0.3007
  333MOL0     C44842   8.079   2.870   1.697  0.8808  0.1937 -0.0297
  333MOL0     C44843   8.173   2.977   1.634 -0.8101  0.4065 -0.4922
  333MOL0     O44844   8.276   2.907   1.557 -0.5213 -0.3482 -0.0397
  333MOL0     C44845   8.399   2.971   1.570 -0.1861  0.4916  0.3902
  333MOL0     C44846   8.453   3.003   1.697  0.7241  0.3508 -0.1469
  333MOL0     C44847   8.582   3.065   1.709  0.9267  0.8003  0.3624
  333MOL0     C44848   8.661   3.078   1.598 -0.8050  0.0346 -0.2241
  333MOL0     C44849   8.796   3.137   1.606 -0.5239 -0.2841  0.6326
  333MOL0     O44850   8.875   3.129   1.492 -0.1578  0.2245  0.5544
  333MOL0     C44851   8.984   3.206   1.480  0.3041  0.3241 -0.1701
  333MOL0     C44852   8.996   3.347   1.490 -0.1046 -0.1293 -0.9596
  333MOL0     C44853   9.117   3.404   1.482 -0.3839 -0.1808 -0.3074
  333MOL0     C44854   9.232   3.332   1.443  0.9079  0.1359  0.2057
  333MOL0     O44855   9.346   3.409   1.432  0.2945 -0.0688 -0.0816
  333MOL0     C44856   9.472   3.350   1.450 -0.2633 -0.0065  0.2800
  333MOL0     C44857   9.570   3.446   1.504  0.2384  0.1856  0.1188
  333MOL0     C44858   9.693   3.364   1.548 -0.3119  0.2029 -1.5934
  333MOL0     C44859   9.820   3.467   1.557 -0.2916  0.2782  0.8850
  333MOL0     C44860   9.958   3.403   1.593 -0.0841 -0.5219  0.1481
  333MOL0     C44861  10.077   3.495   1.600 -0.3180  0.3114 -0.0614
  333MOL0     C44862  10.216   3.421   1.625  0.7616 -0.6277  0.3218
  333MOL0     C44863  10.321   3.519   1.674 -0.4187 -0.2676 -0.0025
  333MOL0    Cl44864  10.337   3.644   1.542  0.0572  0.1069 -0.2588
  333MOL0     C44865   9.219   3.193   1.429 -0.3262 -0.2565  0.3113
  333MOL0     C44866   9.098   3.134   1.447 -0.8464 -0.2109 -0.1301
  333MOL0     O44867   8.835   3.202   1.706 -0.1150 -0.0827 -0.0978
  333MOL0     C44868   8.614   3.036   1.473  0.0657 -0.0262 -0.5697
  333MOL0     C44869   8.483   2.980   1.460 -0.5057  0.5957  0.3407
  333MOL0     N44870   7.625   2.841   1.867 -0.0949  0.0024 -1.1902
  333MOL0     N44871   7.522   2.916   1.872  0.3072 -0.2861 -0.4124
  333MOL0     C44872   7.415   3.285   0.742 -0.1766  0.0417  0.5523
  333MOL0     C44873   7.329   3.309   0.629 -0.0669 -0.2358 -0.4706
  333MOL0     C44874   6.994   3.266   0.333 -0.3335  0.4272 -0.2956
  333MOL0     C44875   7.009   3.384   0.263 -0.7299 -0.7591  0.2472
  333MOL0     C44876   6.925   3.422   0.157  0.1243  0.1165 -0.0006
  333MOL0     C44877   6.816   3.339   0.130  0.2007  0.7793  0.1982
  333MOL0     O44878   6.751   3.370   0.013  0.3558 -0.5696 -0.2811
  333MOL0     C44879   6.610   3.393   0.019  0.7899  0.0486  0.0869
  333MOL0     C44880   6.564   3.435  -0.115 -0.2499  0.2121  0.2415
  333MOL0     C44881   6.557   3.311  -0.215  0.2146  0.2260 -0.9566
  333MOL0     C44882   6.486   3.364  -0.337 -0.1918 -0.1743  0.6174
  333MOL0     C44883   6.558   3.475  -0.407  1.0148 -0.2330 -0.4346
  333MOL0     C44884   6.614   3.566  -0.461  1.5616 -0.4930 -0.2823
  333MOL0     C44885   6.801   3.224   0.196 -0.0281  0.0071 -0.5574
  333MOL0     C44886   6.889   3.186   0.302  0.3560 -0.8702  0.1461
  333MOL0     C44887   6.863   3.059   0.370 -0.0623 -0.0844 -0.0594
  333MOL0     H44888   7.043   3.203   0.786  0.0788  1.8943  1.7937
  333MOL0     H44889   7.200   3.150   0.957 -1.2635 -0.5472 -1.1641
  333MOL0     H44890   7.398   3.003   0.962  2.2633 -2.7496  0.7385
  333MOL0     H44891   7.530   3.023   0.847  0.9316 -0.3309  0.5935
  333MOL0     H44892   7.681   3.066   1.043  0.4572  0.3795  2.4658
  333MOL0     H44893   7.598   2.909   1.034 -0.8330 -0.8280  0.6217
  333MOL0     H44894   7.469   3.127   1.189 -0.6097 -0.4661 -2.7010
  333MOL0     H44895   7.629   3.082   1.252  0.8180 -2.6746  0.0333
  333MOL0     H44896   7.401   2.880   1.222  3.0219 -2.2565 -2.2046
  333MOL0     H44897   7.537   2.860   1.330 -0.7396 -0.8765 -1.6443
  333MOL0     H44898   7.501   3.065   1.450  0.7513 -0.2013  1.0672
  333MOL0     H44899   7.337   3.079   1.384  2.9409  1.9981 -0.4568
  333MOL0     H44900   7.280   2.854   1.492 -3.0911  2.8227  1.2770
  333MOL0     H44901   7.450   2.854   1.557  0.5104  1.9130  0.1342
  333MOL0     H44902   7.263   2.914   1.725 -1.9512 -2.4420 -2.5396
  333MOL0     H44903   7.227   3.055   1.617  2.5229  1.6281  0.1831
  333MOL0     H44904   7.449   3.158   1.681  2.7926 -2.7379 -3.0844
  333MOL0     H44905   7.357   3.128   1.821  0.0092  0.8087 -0.8769
  333MOL0     H44906   7.658   3.033   1.612  1.3434 -1.7052 -0.0565
  333MOL0     H44907   7.872   2.768   1.831  2.8023 -0.6022 -1.5287
  333MOL0     H44908   7.839   2.768   1.658  1.0316 -0.2301  0.5603
  333MOL0     H44909   7.921   3.007   1.645  2.0673  0.7259 -0.0293
  333MOL0     H44910   7.945   3.004   1.814 -2.5456  1.1436 -0.8147
  333MOL0     H44911   8.054   2.794   1.622 -1.4307 -0.4688  1.3134
  333MOL0     H44912   8.133   2.822   1.779  2.6943  3.2623  0.7373
  333MOL0     H44913   8.210   3.046   1.710 -0.7217 -0.3635  0.1821
  333MOL0     H44914   8.130   3.045   1.560  1.9696  1.7023 -1.0376
  333MOL0     H44915   8.390   2.982   1.783 -0.0485  0.3362 -0.7043
  333MOL0     H44916   8.609   3.104   1.806 -0.1785  1.6298  0.3535
  333MOL0     H44917   8.899   3.393   1.504 -0.8217 -1.6982 -0.5799
  333MOL0     H44918   9.118   3.512   1.478 -2.3114 -0.1510 -3.1165
  333MOL0     H44919   9.457   3.273   1.526 -2.9070  0.2127  0.0678
  333MOL0     H44920   9.505   3.314   1.352 -2.4694 -0.6620 -0.2742
  333MOL0     H44921   9.598   3.515   1.424  3.4865 -1.8074 -0.6057
  333MOL0     H44922   9.527   3.505   1.586 -0.6857 -0.4546  0.1148
  333MOL0     H44923   9.685   3.306   1.641 -1.9082 -0.3488 -2.0308
  333MOL0     H44924   9.727   3.297   1.468  0.2579 -1.2479 -0.2022
  333MOL0     H44925   9.797   3.550   1.625  0.1920  0.2854  1.0424
  333MOL0     H44926   9.839   3.512   1.459  1.1948 -2.0485  0.0331
  333MOL0     H44927   9.985   3.332   1.514 -0.3023  1.0818 -1.4351
  333MOL0     H44928   9.939   3.358   1.691 -0.4519 -0.3780  0.1465
  333MOL0     H44929  10.086   3.542   1.502  1.9326 -1.2359 -0.6812
  333MOL0     H44930  10.054   3.581   1.664  0.7330  0.1633  0.5411
  333MOL0     H44931  10.257   3.371   1.537  1.9564 -1.9179  1.5664
  333MOL0     H44932  10.206   3.340   1.697  0.4799 -0.7358  0.1632
  333MOL0     H44933  10.285   3.553   1.771 -0.2111 -3.1618  1.1806
  333MOL0     H44934  10.418   3.469   1.686 -0.1664  0.4984  1.2908
  333MOL0     H44935   9.304   3.130   1.407  0.4239  0.9771 -0.4092
  333MOL0     H44936   9.078   3.028   1.437  0.8801 -0.5849  0.1314
  333MOL0     H44937   8.690   3.038   1.395 -0.6295  0.4174 -1.2556
  333MOL0     H44938   8.445   2.940   1.367 -1.0698  0.5126  0.6004
  333MOL0     H44939   7.519   3.317   0.737 -0.2298  0.1328 -0.0503
  333MOL0     H44940   7.351   3.344   0.529  1.2712 -0.2536 -0.1907
  333MOL0     H44941   7.104   3.434   0.279  0.9552 -3.8472  0.7158
  333MOL0     H44942   6.947   3.501   0.086 -1.7241  0.8496  0.1937
  333MOL0     H44943   6.582   3.477   0.084 -2.3852 -0.6881 -0.1770
  333MOL0     H44944   6.553   3.302   0.036  1.7666 -0.8950 -1.4480
  333MOL0     H44945   6.640   3.508  -0.144 -0.5885  1.6528  2.6747
  333MOL0     H44946   6.472   3.490  -0.093  1.8213  3.2329  2.1184
  333MOL0     H44947   6.492   3.231  -0.178 -1.9137  2.5877  0.7488
  333MOL0     H44948   6.654   3.268  -0.240  0.2954 -0.2483  0.1017
  333MOL0     H44949   6.475   3.282  -0.408 -2.0854 -0.3516  1.0762
  333MOL0     H44950   6.382   3.392  -0.319 -1.2172 -1.2984 -2.8535
  333MOL0     H44951   6.664   3.649  -0.507 -0.7179  1.5344  0.6808
  333MOL0     H44952   6.722   3.152   0.183  1.0144 -2.4542  4.3927
  333MOL0     H44953   6.755   3.046   0.379 -0.8937  3.6320 -2.6203
  333MOL0     H44954   6.891   2.972   0.310  0.9262 -1.2017  1.9248
  333MOL0     H44955   6.909   3.050   0.469 -0.4869 -4.9208 -0.0706
  334MOL0     O44956   9.802   2.973  10.233  0.3982 -0.2034  0.4856
  334MOL0     C44957   9.771   2.930  10.122 -0.0175 -0.3753  0.1381
  334MOL0     O44958   9.855   2.870  10.035  0.4567  0.0970 -0.5067
  334MOL0     C44959   9.976   2.819  10.068 -0.1762 -0.2020  0.0732
  334MOL0     C44960   9.998   2.760  10.201 -0.6032 -0.3205  0.8482
  334MOL0     C44961  10.130   2.727  10.242  0.0224 -0.0569 -0.3731
  334MOL0     C44962  10.233   2.743  10.157  0.2150 -0.4549  0.1807
  334MOL0     O44963  10.356   2.700  10.203 -0.2537 -0.7163 -0.5707
  334MOL0     C44964  10.472   2.704  10.118 -0.5040  0.9710 -1.0702
  334MOL0     C44965  10.581   2.648  10.206  0.2995 -0.0608 -0.0435
  334MOL0     C44966  10.719   2.651  10.137  0.4118 -0.2744  0.0507
  334MOL0     C44967  10.833   2.640  10.229 -0.9735  1.0413  0.0564
  334MOL0     C44968  10.978   2.640  10.178 -0.3919 -0.4161 -0.9256
  334MOL0     C44969  11.082   2.634  10.294  0.2855 -0.4297 -0.1492
  334MOL0     C44970  11.218   2.574  10.249  0.0630  0.7958 -0.2767
  334MOL0     C44971  11.299   2.544  10.379  0.4598 -0.1197  0.8426
  334MOL0     N44972  11.438   2.585  10.367  0.0153 -0.6741 -0.8319
  334MOL0     C44973  11.478   2.713  10.338 -0.6378  0.4262 -0.4509
  334MOL0     C44974  11.600   2.702  10.274  0.4373 -0.1512  0.2654
  334MOL0     C44975  11.686   2.804  10.201 -0.2140  0.2337 -1.0493
  334MOL0     C44976  11.803   2.857  10.291  0.7314 -0.6136 -0.5498
  334MOL0     C44977  11.893   2.746  10.345  0.2723 -0.4835  0.1958
  334MOL0     C44978  11.983   2.675  10.236 -0.6315  0.5919 -0.0891
  334MOL0     O44979  12.067   2.575  10.304  0.6637  0.3928 -0.4447
  334MOL0     C44980  12.150   2.501  10.223  0.2362  0.4057  0.0283
  334MOL0     C44981  12.162   2.506  10.082  0.4976 -0.2066 -0.5136
  334MOL0     C44982  12.243   2.423  10.005 -0.4963 -0.7455 -0.0654
  334MOL0     C44983  12.311   2.328  10.080 -0.2810 -0.2397 -0.8312
  334MOL0     C44984  12.397   2.244  10.003  0.2570  0.3895 -0.6626
  334MOL0     O44985  12.387   2.244   9.866  0.5362 -0.3148 -0.2179
  334MOL0     C44986  12.473   2.168   9.786 -0.5236 -0.3906  0.2080
  334MOL0     C44987  12.601   2.123   9.825  0.9916 -0.0379  0.1987
  334MOL0     C44988  12.663   2.024   9.743 -0.2763 -0.3980  0.1974
  334MOL0     C44989  12.616   2.003   9.615  0.6083  0.0990  0.0131
  334MOL0     O44990  12.691   1.918   9.538 -0.2713  0.3159 -0.4365
  334MOL0     C44991  12.676   1.896   9.396  0.0159 -0.5003  0.1447
  334MOL0     C44992  12.742   1.762   9.352 -0.6316  0.1813  0.7265
  334MOL0     C44993  12.896   1.780   9.351 -0.1710 -0.7502 -0.5186
  334MOL0     C44994  12.947   1.736   9.491 -0.6244 -0.2649  0.6338
  334MOL0     C44995  13.084   1.784   9.516  0.2887 -0.2729 -0.8095
  334MOL0     C44996  13.193   1.691   9.457  0.4260  0.5940  0.2386
  334MOL0     C44997  13.329   1.749   9.456  0.5769 -0.2671  0.1703
  334MOL0     C44998  13.432   1.665   9.394  0.3514 -0.3479  0.2028
  334MOL0    Cl44999  13.435   1.645   9.215 -0.6540  0.3555 -0.1717
  334MOL0     C45000  12.497   2.073   9.567 -0.2608  0.2210 -0.4822
  334MOL0     C45001  12.427   2.144   9.657 -0.0700  0.5915 -0.1261
  334MOL0     O45002  12.472   2.169  10.066  0.5338 -0.6316 -0.3635
  334MOL0     C45003  12.287   2.304  10.223 -0.2696  0.7962 -0.0085
  334MOL0     C45004  12.202   2.386  10.288  0.5522 -0.1475  0.2163
  334MOL0     N45005  11.631   2.566  10.274  0.3782  0.3988  0.2995
  334MOL0     N45006  11.536   2.505  10.331  0.3545 -0.0652 -0.2112
  334MOL0     C45007  10.214   2.794  10.023  0.5406 -0.0557  0.5669
  334MOL0     C45008  10.084   2.832   9.983 -0.4658  1.3443  1.0649
  334MOL0     C45009   9.631   2.942  10.075 -0.9574  0.2302 -0.0024
  334MOL0     C45010   9.608   2.909   9.933 -0.2245 -0.1103  0.9493
  334MOL0     C45011   9.478   2.903   9.883 -0.3713  0.4338 -0.4516
  334MOL0     C45012   9.366   2.915   9.974  0.4227  0.9414  0.9275
  334MOL0     O45013   9.248   2.892   9.916 -0.5877  0.1279  0.0701
  334MOL0     C45014   9.157   3.000   9.926  0.4679 -0.0954  0.2512
  334MOL0     C45015   9.023   2.927   9.891  0.5793 -0.0512  0.1438
  334MOL0     C45016   8.916   3.033   9.873 -0.5138  0.3018  0.0007
  334MOL0     C45017   8.868   3.103  10.003 -0.5056 -0.1204  0.3003
  334MOL0     C45018   8.831   2.998  10.098 -0.0966 -1.2763  0.6689
  334MOL0     C45019   8.780   2.915  10.168 -0.1447 -0.1278 -0.4853
  334MOL0     C45020   9.386   2.966  10.100 -0.8994 -0.7721 -0.1666
  334MOL0     C45021   9.516   2.990  10.148  0.0809 -0.4317  0.0651
  334MOL0     C45022   9.534   3.057  10.284 -0.7545 -0.3083  0.1027
  334MOL0     H45023   9.929   2.744  10.283  2.1566 -0.1972  3.3389
  334MOL0     H45024  10.154   2.681  10.337  0.5930 -0.7201 -0.8303
  334MOL0     H45025  10.469   2.639  10.030  1.8252  1.8754 -1.8963
  334MOL0     H45026  10.491   2.808  10.088 -0.9088  0.9282 -1.4949
  334MOL0     H45027  10.559   2.542  10.226  0.7921 -0.3709 -1.1003
  334MOL0     H45028  10.579   2.696  10.304 -1.6195  0.3420 -0.2372
  334MOL0     H45029  10.729   2.751  10.092 -0.3191 -0.7382 -1.2031
  334MOL0     H45030  10.717   2.582  10.052 -0.3233 -0.1835 -0.0053
  334MOL0     H45031  10.829   2.734  10.287  0.1619  0.8211  0.5173
  334MOL0     H45032  10.810   2.552  10.290  1.8375  0.6879  0.7467
  334MOL0     H45033  10.996   2.554  10.114  0.9007 -2.2562  1.7189
  334MOL0     H45034  10.991   2.729  10.116  4.1241 -0.5221 -0.4472
  334MOL0     H45035  11.086   2.728  10.348 -2.4720 -0.8485  0.9070
  334MOL0     H45036  11.044   2.554  10.359  0.7983 -0.7419 -0.2248
  334MOL0     H45037  11.266   2.634  10.171  0.7824 -0.8794 -1.1558
  334MOL0     H45038  11.211   2.479  10.196  0.7840  0.3581  0.3881
  334MOL0     H45039  11.243   2.591  10.461 -0.3155 -0.6440  0.6275
  334MOL0     H45040  11.291   2.437  10.401  0.3022 -0.0241  1.2664
  334MOL0     H45041  11.426   2.804  10.368  2.8572  3.2375 -2.2414
  334MOL0     H45042  11.721   2.759  10.108 -3.0388 -0.1343 -2.0311
  334MOL0     H45043  11.614   2.884  10.182 -1.8781 -0.4154  1.9037
  334MOL0     H45044  11.867   2.931  10.242 -0.4057  1.1340  0.4908
  334MOL0     H45045  11.766   2.918  10.374  2.8063  0.4344 -0.3462
  334MOL0     H45046  11.849   2.669  10.408  0.6352  0.5377  1.7580
  334MOL0     H45047  11.970   2.798  10.403 -2.4333  1.3457  2.3614
  334MOL0     H45048  12.041   2.750  10.182  0.3677  0.4746  0.7759
  334MOL0     H45049  11.926   2.623  10.159  3.5984 -0.5437 -2.7908
  334MOL0     H45050  12.107   2.579  10.023  0.3819 -0.1934 -0.3901
  334MOL0     H45051  12.238   2.424   9.896  1.0315  2.9636 -0.2310
  334MOL0     H45052  12.665   2.155   9.907 -0.2756  0.4897  1.0118
  334MOL0     H45053  12.749   1.973   9.784  0.1734 -2.4357 -2.9545
  334MOL0     H45054  12.571   1.896   9.362  0.7324 -1.6579 -2.3331
  334MOL0     H45055  12.724   1.975   9.339  0.8158 -1.3614 -0.4133
  334MOL0     H45056  12.713   1.682   9.420 -1.1897  1.1452  1.6431
  334MOL0     H45057  12.708   1.723   9.255 -2.1314  1.5440  0.6611
  334MOL0     H45058  12.940   1.715   9.275  1.6469  0.4361 -0.5468
  334MOL0     H45059  12.925   1.883   9.329  2.1342 -1.5787 -1.6581
  334MOL0     H45060  12.932   1.629   9.511  2.5835 -0.5935  1.9251
  334MOL0     H45061  12.893   1.789   9.570 -0.0291  2.4562 -0.6774
  334MOL0     H45062  13.084   1.781   9.625 -0.9632  2.4857 -0.6372
  334MOL0     H45063  13.104   1.889   9.492 -2.3598  1.5713  3.6487
  334MOL0     H45064  13.192   1.597   9.512  0.5220 -0.0779 -0.8784
  334MOL0     H45065  13.164   1.677   9.352  0.4568 -0.4679  0.3705
  334MOL0     H45066  13.364   1.762   9.559  0.7659  3.1290 -0.2221
  334MOL0     H45067  13.332   1.847   9.409 -1.0664 -0.4462 -0.3676
  334MOL0     H45068  13.526   1.708   9.430  0.8098 -0.0837 -1.2367
  334MOL0     H45069  13.430   1.566   9.441  0.8636 -1.0518 -1.2103
  334MOL0     H45070  12.446   2.054   9.474  2.2571 -1.8194 -1.5592
  334MOL0     H45071  12.331   2.190   9.636  0.9099  1.4729 -3.2253
  334MOL0     H45072  12.344   2.222  10.265 -1.6289  0.4437  1.2126
  334MOL0     H45073  12.187   2.375  10.395 -0.2235  0.0311  0.1325
  334MOL0     H45074  10.298   2.796   9.954  1.7658  1.6219  2.0170
  334MOL0     H45075  10.076   2.863   9.879  2.1368 -0.3225  0.2515
  334MOL0     H45076   9.696   2.904   9.869 -0.1449  0.8458  0.9580
  334MOL0     H45077   9.466   2.863   9.783 -0.3024 -0.8874  0.0543
  334MOL0     H45078   9.189   3.078   9.856 -0.0491  0.4701  0.6237
  334MOL0     H45079   9.136   3.043  10.024 -4.9805 -0.2047 -0.5342
  334MOL0     H45080   8.995   2.855   9.968  0.5160 -0.6503 -0.4299
  334MOL0     H45081   9.033   2.882   9.791 -0.8737  1.5478 -0.7859
  334MOL0     H45082   8.833   2.984   9.821  0.2250 -0.3685 -0.5792
  334MOL0     H45083   8.948   3.117   9.811 -1.9397 -0.5846 -2.0674
  334MOL0     H45084   8.942   3.175  10.038 -1.9214  2.7611 -2.1384
  334MOL0     H45085   8.775   3.153   9.975 -0.3496 -0.7938 -1.6076
  334MOL0     H45086   8.723   2.840  10.220  2.2435 -0.7168  1.4946
  334MOL0     H45087   9.302   2.975  10.168  0.0853  0.1345  1.0001
  334MOL0     H45088   9.585   2.983  10.347 -1.1500 -0.9694 -0.3397
  334MOL0     H45089   9.594   3.148  10.277 -0.0789 -0.7881 -0.3780
  334MOL0     H45090   9.433   3.079  10.320 -2.0024 -1.6655 -2.3422
  335MOL0     O45091   9.302   2.396   4.709  0.7297 -1.0850 -0.4334
  335MOL0     C45092   9.242   2.286   4.715  0.0493 -0.7383 -0.5811
  335MOL0     O45093   9.211   2.222   4.833 -0.5859  0.5166  0.0585
  335MOL0     C45094   9.246   2.280   4.953  0.0222 -0.8108  0.2386
  335MOL0     C45095   9.150   2.349   5.032 -0.6005  0.5788  0.8316
  335MOL0     C45096   9.191   2.415   5.150 -0.9600  0.1641  0.0464
  335MOL0     C45097   9.327   2.422   5.186  0.0139 -0.8437  0.2623
  335MOL0     O45098   9.379   2.485   5.304  0.1298 -0.6349 -0.1371
  335MOL0     C45099   9.332   2.620   5.325  0.3192  0.1264  0.1288
  335MOL0     C45100   9.353   2.653   5.469 -0.0539 -0.2704 -0.6436
  335MOL0     C45101   9.325   2.803   5.505  0.1074 -0.0807  0.2153
  335MOL0     C45102   9.208   2.821   5.612 -0.4650  0.3642  0.2654
  335MOL0     C45103   9.079   2.758   5.556 -0.3514 -1.0566 -0.6598
  335MOL0     C45104   8.970   2.794   5.659  0.6599 -0.4860  0.4949
  335MOL0     C45105   8.844   2.705   5.602 -0.0297 -0.4208 -1.0725
  335MOL0     C45106   8.722   2.710   5.688  0.5888 -0.1962 -0.7271
  335MOL0     N45107   8.619   2.627   5.627  0.3286  0.1231  1.2681
  335MOL0     C45108   8.522   2.664   5.531  0.0925 -0.3794 -0.2527
  335MOL0     C45109   8.444   2.547   5.520  0.0415 -0.5989  0.2520
  335MOL0     C45110   8.304   2.532   5.463  0.7493 -0.4484  0.3207
  335MOL0     C45111   8.212   2.478   5.569  0.1684 -0.5102 -0.2580
  335MOL0     C45112   8.203   2.558   5.698  0.1597  0.6108  0.5898
  335MOL0     C45113   8.197   2.705   5.683 -0.2868 -0.2954 -0.2716
  335MOL0     O45114   8.150   2.764   5.801 -0.0263  0.7586  0.0302
  335MOL0     C45115   8.238   2.796   5.902 -0.3128  0.0033 -0.9471
  335MOL0     C45116   8.377   2.769   5.905 -0.8814 -0.8847 -0.3734
  335MOL0     C45117   8.450   2.828   6.013  0.1369  0.8108  0.1069
  335MOL0     C45118   8.398   2.898   6.115  0.2647 -0.1685 -0.0540
  335MOL0     C45119   8.486   2.967   6.207  0.2000 -0.9079  0.5602
  335MOL0     O45120   8.617   3.002   6.164  0.6203 -0.2104 -0.0279
  335MOL0     C45121   8.716   3.042   6.250  0.5877 -0.1545  0.3339
  335MOL0     C45122   8.689   3.134   6.358 -0.1250  0.4716 -0.7588
  335MOL0     C45123   8.807   3.188   6.425  0.5791 -0.8211  0.0791
  335MOL0     C45124   8.932   3.141   6.407 -1.0224 -0.2450  0.1643
  335MOL0     O45125   9.033   3.197   6.489  0.2871 -0.4801  0.0304
  335MOL0     C45126   9.160   3.131   6.484  0.0238 -0.2886 -0.1162
  335MOL0     C45127   9.248   3.236   6.550  0.3468  0.4730 -0.1034
  335MOL0     C45128   9.272   3.361   6.476  0.1642  0.1435  0.7926
  335MOL0     C45129   9.323   3.468   6.571 -1.1084 -0.2148 -0.0694
  335MOL0     C45130   9.426   3.556   6.488  0.5841 -0.0794 -0.0848
  335MOL0     C45131   9.503   3.662   6.581 -0.2253 -0.4591  0.7421
  335MOL0     C45132   9.560   3.624   6.713 -0.3037 -0.0231 -0.6508
  335MOL0     C45133   9.612   3.750   6.779  0.0415  0.1030  0.1257
  335MOL0    Cl45134   9.742   3.815   6.676  0.1391  0.4105  0.3993
  335MOL0     C45135   8.957   3.043   6.306  0.3041 -0.1815 -0.2671
  335MOL0     C45136   8.848   2.992   6.235 -0.2192  0.4623 -0.4823
  335MOL0     O45137   8.438   2.994   6.318 -0.7797  0.1781  0.0897
  335MOL0     C45138   8.261   2.922   6.116 -0.4439 -0.4302 -0.6500
  335MOL0     C45139   8.181   2.863   6.013 -1.6464  0.4514 -0.2094
  335MOL0     N45140   8.503   2.457   5.607 -0.1292 -0.4490  0.9036
  335MOL0     N45141   8.599   2.509   5.672  0.7492 -0.3415 -0.1143
  335MOL0     C45142   9.416   2.358   5.103 -0.6085  0.3249 -0.3345
  335MOL0     C45143   9.380   2.280   4.990  1.1561  0.4140  0.0157
  335MOL0     C45144   9.192   2.222   4.587 -0.0189  0.2622 -0.0642
  335MOL0     C45145   9.117   2.107   4.600  0.5818 -0.3753 -0.4891
  335MOL0     C45146   9.054   2.038   4.495 -0.0080 -0.5190 -0.5470
  335MOL0     C45147   9.079   2.083   4.361  0.5618  0.5701  0.0992
  335MOL0     O45148   9.016   2.022   4.254  0.0463  0.5330  0.0685
  335MOL0     C45149   9.018   2.079   4.121 -0.5184 -0.2654  1.0865
  335MOL0     C45150   8.939   1.981   4.032  0.0085  0.0159 -0.3417
  335MOL0     C45151   8.784   1.988   4.037 -0.0530 -0.7883 -0.4565
  335MOL0     C45152   8.707   2.060   3.927  0.1502  0.9517  0.1876
  335MOL0     C45153   8.565   2.071   3.970 -0.6510  0.4455 -1.0055
  335MOL0     C45154   8.449   2.065   3.996 -0.5611 -0.6311  0.4963
  335MOL0     C45155   9.168   2.196   4.350 -0.0196  0.6175  1.0083
  335MOL0     C45156   9.216   2.266   4.455 -0.6029  0.1253 -0.4831
  335MOL0     C45157   9.298   2.391   4.425  0.4233  0.0005  0.1686
  335MOL0     H45158   9.046   2.343   5.000 -0.4489 -1.8973  0.5658
  335MOL0     H45159   9.110   2.457   5.209 -2.0477 -0.7297 -0.7547
  335MOL0     H45160   9.405   2.677   5.268  1.7105 -1.0620  0.6619
  335MOL0     H45161   9.227   2.633   5.295  0.6564  0.5879 -0.8918
  335MOL0     H45162   9.461   2.640   5.487 -0.4969 -1.8730  1.2352
  335MOL0     H45163   9.298   2.587   5.536  2.2991 -1.9136 -0.1948
  335MOL0     H45164   9.298   2.856   5.413 -1.2447  3.0519  2.2495
  335MOL0     H45165   9.419   2.844   5.543  0.4227 -0.0896 -0.5314
  335MOL0     H45166   9.247   2.774   5.703  0.2181  1.0498  0.3349
  335MOL0     H45167   9.195   2.928   5.631  3.7921  1.0760  0.1719
  335MOL0     H45168   9.058   2.797   5.456 -0.6458 -1.6267 -0.8262
  335MOL0     H45169   9.098   2.656   5.521  3.2249 -0.4641 -0.8677
  335MOL0     H45170   9.016   2.762   5.753  1.2783 -0.5752  0.1687
  335MOL0     H45171   8.956   2.902   5.650  3.0501 -0.2742 -2.1962
  335MOL0     H45172   8.873   2.601   5.587 -0.2035 -0.5823 -0.3317
  335MOL0     H45173   8.815   2.740   5.503 -2.3307 -1.4690 -0.8204
  335MOL0     H45174   8.746   2.689   5.793  1.2885  0.5741 -0.7250
  335MOL0     H45175   8.692   2.815   5.692 -1.7768 -0.7637 -1.5497
  335MOL0     H45176   8.505   2.758   5.479 -1.3217  0.5200  1.7260
  335MOL0     H45177   8.271   2.633   5.438  1.4527  0.2735  2.1434
  335MOL0     H45178   8.312   2.461   5.380  1.3758  1.5160 -1.3838
  335MOL0     H45179   8.113   2.479   5.522  0.1937 -1.0714 -0.3380
  335MOL0     H45180   8.241   2.375   5.592 -2.0022 -1.1338 -0.0794
  335MOL0     H45181   8.294   2.542   5.756  0.6681 -0.9694 -0.5716
  335MOL0     H45182   8.119   2.516   5.755  0.6006  0.4669  1.1421
  335MOL0     H45183   8.133   2.724   5.597  2.0881 -0.8151 -2.2583
  335MOL0     H45184   8.293   2.752   5.660  0.1378 -0.9469  0.1240
  335MOL0     H45185   8.430   2.709   5.830  1.5358  0.0378  0.5076
  335MOL0     H45186   8.556   2.806   6.015 -0.1052 -0.9846  4.0306
  335MOL0     H45187   8.585   3.164   6.366 -1.6034 -3.8369 -1.0795
  335MOL0     H45188   8.793   3.262   6.503 -0.1196 -0.9846  0.1220
  335MOL0     H45189   9.163   3.033   6.532 -0.8847 -0.0686  0.4233
  335MOL0     H45190   9.195   3.116   6.381  0.4555 -3.5187  0.3800
  335MOL0     H45191   9.205   3.265   6.646  2.1037 -1.9240  1.5345
  335MOL0     H45192   9.346   3.188   6.562 -0.8369 -1.4139  3.1059
  335MOL0     H45193   9.344   3.352   6.394 -1.3355 -2.3935 -0.3714
  335MOL0     H45194   9.189   3.401   6.416  0.3296 -0.3841  0.1985
  335MOL0     H45195   9.378   3.415   6.649  0.5301  0.4055 -0.7705
  335MOL0     H45196   9.241   3.528   6.613 -1.0527 -1.2538  1.6329
  335MOL0     H45197   9.374   3.604   6.404  2.6087  1.8072 -0.3514
  335MOL0     H45198   9.501   3.489   6.446 -0.0267 -0.0766 -1.2255
  335MOL0     H45199   9.578   3.717   6.524 -3.2595  1.0693 -2.0424
  335MOL0     H45200   9.416   3.725   6.600 -1.6629 -1.0949 -2.9432
  335MOL0     H45201   9.644   3.557   6.699  1.1765  0.6776  3.5469
  335MOL0     H45202   9.474   3.585   6.768 -1.3972  0.4646 -1.9391
  335MOL0     H45203   9.536   3.825   6.800  0.3443  0.1401  1.1748
  335MOL0     H45204   9.654   3.716   6.875 -2.2925 -0.4740  1.0128
  335MOL0     H45205   9.055   3.006   6.278  0.4347  0.9458 -1.3867
  335MOL0     H45206   8.869   2.916   6.160  3.8863 -0.4191  1.3224
  335MOL0     H45207   8.216   2.983   6.193 -1.5063  0.4057 -1.8874
  335MOL0     H45208   8.073   2.873   6.011 -1.7701 -0.5906  0.5334
  335MOL0     H45209   9.521   2.352   5.132 -0.4267 -1.3755 -1.1815
  335MOL0     H45210   9.457   2.227   4.934  1.2101 -0.1346  0.5994
  335MOL0     H45211   9.092   2.065   4.697 -0.4897 -2.4564 -1.6142
  335MOL0     H45212   8.999   1.949   4.524  4.2237 -1.9910  4.3442
  335MOL0     H45213   9.121   2.089   4.087 -0.8139  1.3100  0.5642
  335MOL0     H45214   8.968   2.175   4.107  1.6125  0.7529 -0.0191
  335MOL0     H45215   8.970   1.880   4.061  0.0542  0.1220 -0.0265
  335MOL0     H45216   8.969   1.986   3.927  2.6152 -2.3432  0.1631
  335MOL0     H45217   8.769   2.039   4.132  2.2054 -0.3569 -0.2670
  335MOL0     H45218   8.746   1.886   4.036  0.8751 -1.3005  3.2552
  335MOL0     H45219   8.746   2.157   3.897  1.8737  0.5313  0.9372
  335MOL0     H45220   8.717   1.990   3.843  0.0890  0.7708  0.3292
  335MOL0     H45221   8.343   2.075   4.011 -0.2341  0.7981  2.2071
  335MOL0     H45222   9.194   2.228   4.249  0.2841 -0.2712  0.8005
  335MOL0     H45223   9.391   2.403   4.482  1.1017  0.0791 -0.9245
  335MOL0     H45224   9.314   2.398   4.317  1.7184 -0.9448  0.2637
  335MOL0     H45225   9.231   2.472   4.456 -2.7705 -2.8427  1.3647
  336MOL0     O45226   6.899   0.929   2.582 -0.4256  0.3086  0.0976
  336MOL0     C45227   6.874   0.846   2.673 -0.3370 -0.7722  0.0098
  336MOL0     O45228   6.953   0.825   2.780 -0.4101 -0.4777  0.3402
  336MOL0     C45229   7.066   0.896   2.789  0.6899  0.1856 -0.3593
  336MOL0     C45230   7.085   0.963   2.910  0.1953 -0.6494 -0.1854
  336MOL0     C45231   7.208   1.011   2.947  0.6818 -0.5796  0.7351
  336MOL0     C45232   7.319   0.987   2.857  0.1614 -0.0602  0.3614
  336MOL0     O45233   7.451   1.034   2.891 -0.0316 -0.4038 -0.4079
  336MOL0     C45234   7.557   1.000   2.800 -0.2417  0.2754  0.3453
  336MOL0     C45235   7.686   1.046   2.854  0.9099 -0.0263 -0.6980
  336MOL0     C45236   7.797   1.002   2.769 -0.7722  0.3412 -0.5934
  336MOL0     C45237   7.821   0.857   2.738 -0.5508  0.7116  0.2239
  336MOL0     C45238   7.959   0.830   2.658 -0.4441 -0.3065  0.0229
  336MOL0     C45239   8.085   0.844   2.747  1.2766 -0.7789 -0.1139
  336MOL0     C45240   8.217   0.800   2.680  0.9151  0.1166 -0.1325
  336MOL0     C45241   8.236   0.645   2.681 -0.1439 -0.3351  0.3951
  336MOL0     N45242   8.369   0.597   2.740 -0.8511  0.6902 -0.0994
  336MOL0     C45243   8.426   0.654   2.848 -0.1643  0.0066 -1.3316
  336MOL0     C45244   8.558   0.603   2.855 -0.2452 -0.4497 -0.1856
  336MOL0     C45245   8.646   0.628   2.976 -0.3413  0.6611 -0.5331
  336MOL0     C45246   8.794   0.580   2.958  0.7154  0.3073 -0.3308
  336MOL0     C45247   8.873   0.651   2.851 -0.5289 -0.4904 -0.2793
  336MOL0     C45248   8.861   0.809   2.851 -0.0646  0.4235 -0.4039
  336MOL0     O45249   8.880   0.887   2.973  0.2982  0.5142 -0.5029
  336MOL0     C45250   9.004   0.913   3.027  0.3377 -0.7273  0.1220
  336MOL0     C45251   9.121   0.850   2.974  0.0171 -1.3499  0.7527
  336MOL0     C45252   9.242   0.879   3.047  1.0065 -1.1464  0.3136
  336MOL0     C45253   9.242   0.967   3.149  0.1716 -0.6695 -0.5175
  336MOL0     C45254   9.371   0.982   3.227  0.1728 -0.5165  0.0978
  336MOL0     O45255   9.487   0.966   3.159  0.0759  0.2735 -0.2928
  336MOL0     C45256   9.596   1.000   3.235  0.0571  0.0799 -0.4637
  336MOL0     C45257   9.657   1.121   3.204  0.0761 -0.1803  0.1862
  336MOL0     C45258   9.777   1.166   3.267 -0.8977 -0.8075  0.4439
  336MOL0     C45259   9.830   1.083   3.367  0.6661  0.4316  0.9068
  336MOL0     O45260   9.942   1.135   3.428 -0.3520  0.2113 -0.2526
  336MOL0     C45261  10.061   1.083   3.366  0.0679 -0.1370 -0.2373
  336MOL0     C45262  10.189   1.161   3.418 -0.0014 -0.5722 -0.3064
  336MOL0     C45263  10.311   1.076   3.396 -0.3137  0.4728 -0.1011
  336MOL0     C45264  10.426   1.157   3.459  0.4523  0.2468 -0.8381
  336MOL0     C45265  10.556   1.086   3.428 -0.2731 -0.0043  0.1046
  336MOL0     C45266  10.583   0.959   3.515 -0.2150 -0.2852 -0.2432
  336MOL0     C45267  10.617   0.981   3.657 -0.2023  0.6788  0.7652
  336MOL0     C45268  10.758   1.024   3.685 -0.4122 -0.1661 -0.1473
  336MOL0    Cl45269  10.868   0.878   3.650 -0.1535  0.2633  0.1334
  336MOL0     C45270   9.763   0.971   3.407  0.4096  0.4910 -0.3926
  336MOL0     C45271   9.650   0.924   3.344  0.2632 -0.0352  0.8048
  336MOL0     O45272   9.358   0.999   3.342  0.4318  0.6789 -0.1421
  336MOL0     C45273   9.125   1.023   3.198 -0.3335 -0.8123 -0.4956
  336MOL0     C45274   9.000   1.000   3.139 -0.0449  0.0687  0.7101
  336MOL0     N45275   8.566   0.534   2.742 -0.2412  0.6455  0.3884
  336MOL0     N45276   8.460   0.539   2.664 -0.2895  0.4079 -0.6000
  336MOL0     C45277   7.296   0.912   2.733  0.2349  0.4153 -0.2879
  336MOL0     C45278   7.173   0.868   2.708 -0.0015  0.2339  0.4454
  336MOL0     C45279   6.746   0.764   2.672 -0.5682  0.3521 -0.4164
  336MOL0     C45280   6.752   0.646   2.748  0.7145 -0.3861 -0.6724
  336MOL0     C45281   6.634   0.573   2.769 -0.1786  0.1040 -0.6500
  336MOL0     C45282   6.511   0.612   2.716  0.3324 -0.4785  1.1669
  336MOL0     O45283   6.399   0.536   2.752  0.3816 -0.2681  0.6901
  336MOL0     C45284   6.273   0.593   2.709 -0.7444 -0.0408  0.2913
  336MOL0     C45285   6.163   0.499   2.754 -0.5204 -0.1071 -0.3102
  336MOL0     C45286   6.026   0.564   2.746  0.3264  0.2006  0.1664
  336MOL0     C45287   5.943   0.552   2.874  0.1296  0.2775  0.1820
  336MOL0     C45288   5.827   0.628   2.845 -0.2786 -0.1165  0.4061
  336MOL0     C45289   5.721   0.687   2.839 -0.0811 -0.1676  0.2313
  336MOL0     C45290   6.507   0.720   2.631  0.5761  0.7694 -0.0293
  336MOL0     C45291   6.626   0.787   2.599  0.2569 -0.0418  0.7558
  336MOL0     C45292   6.627   0.894   2.502 -0.2947  0.1527  0.3716
  336MOL0     H45293   7.005   0.972   2.983  0.7269  1.1097  0.2100
  336MOL0     H45294   7.219   1.065   3.040  1.0901  0.3062  0.1896
  336MOL0     H45295   7.561   0.892   2.781 -1.0882 -0.0346  1.8186
  336MOL0     H45296   7.536   1.050   2.705  0.0961  2.2772  1.2734
  336MOL0     H45297   7.689   1.017   2.959  1.9902  5.1219  0.9395
  336MOL0     H45298   7.682   1.155   2.862 -0.0123 -0.0799 -0.3088
  336MOL0     H45299   7.892   1.049   2.796 -1.3902  1.9683 -1.1635
  336MOL0     H45300   7.770   1.049   2.674 -0.9449 -0.4794 -0.9556
  336MOL0     H45301   7.820   0.795   2.828  0.4220  0.0716 -0.1844
  336MOL0     H45302   7.739   0.820   2.675 -0.1578  0.3911 -0.1136
  336MOL0     H45303   7.962   0.730   2.614  0.0018 -1.8713  3.2816
  336MOL0     H45304   7.969   0.897   2.572 -0.6249 -0.3542 -0.0346
  336MOL0     H45305   8.097   0.950   2.771  0.7085  0.2325 -3.7482
  336MOL0     H45306   8.073   0.790   2.842 -0.8728  0.2351  0.2408
  336MOL0     H45307   8.303   0.851   2.724 -0.1550  0.4225  1.6757
  336MOL0     H45308   8.216   0.827   2.574  3.2453 -3.6488 -1.3436
  336MOL0     H45309   8.157   0.587   2.729  1.2630 -2.9501 -0.2868
  336MOL0     H45310   8.228   0.621   2.575 -2.9310  1.0665  0.1701
  336MOL0     H45311   8.387   0.729   2.915  0.9529 -0.8609  0.3616
  336MOL0     H45312   8.654   0.732   3.010  1.5653  0.4435 -0.1930
  336MOL0     H45313   8.599   0.576   3.060  0.7162  0.6924  0.1034
  336MOL0     H45314   8.846   0.592   3.054 -0.5141  0.4382  0.3556
  336MOL0     H45315   8.800   0.472   2.943  1.8979  0.0343  1.7240
  336MOL0     H45316   8.846   0.612   2.752  1.6502 -1.5400 -0.5221
  336MOL0     H45317   8.980   0.634   2.864 -0.0968  0.5623 -2.1447
  336MOL0     H45318   8.759   0.830   2.816 -0.1190 -2.9347 -2.7481
  336MOL0     H45319   8.935   0.847   2.780  1.2191  2.9207  2.0681
  336MOL0     H45320   9.112   0.776   2.896  0.8092 -2.5835  1.7914
  336MOL0     H45321   9.324   0.814   3.016 -0.1226 -2.4440 -0.0561
  336MOL0     H45322   9.624   1.174   3.115  0.1778 -0.1821  0.1476
  336MOL0     H45323   9.815   1.264   3.240 -1.2828 -0.7017  0.2837
  336MOL0     H45324  10.059   0.975   3.384 -1.9931 -0.4210 -1.8674
  336MOL0     H45325  10.070   1.094   3.258  3.9104 -0.1956 -0.0462
  336MOL0     H45326  10.194   1.260   3.371 -2.3588  0.9507  2.3226
  336MOL0     H45327  10.184   1.167   3.527  3.1131  0.3531 -0.1338
  336MOL0     H45328  10.301   0.974   3.433  0.3685  1.1925  2.1778
  336MOL0     H45329  10.327   1.076   3.287  2.7641  1.7352  0.2532
  336MOL0     H45330  10.414   1.161   3.568  0.6076  0.8836 -0.8411
  336MOL0     H45331  10.427   1.261   3.424  2.0500  0.7373  0.5113
  336MOL0     H45332  10.643   1.152   3.438 -0.3493 -0.0453  1.1524
  336MOL0     H45333  10.548   1.073   3.320  1.9701  0.8580 -0.2349
  336MOL0     H45334  10.492   0.901   3.502  0.0128 -0.1386 -3.1521
  336MOL0     H45335  10.659   0.894   3.471  0.3070 -0.1296  0.4124
  336MOL0     H45336  10.594   0.884   3.702 -0.3187 -0.7694 -2.1727
  336MOL0     H45337  10.552   1.055   3.705  0.0336  0.2372  1.8019
  336MOL0     H45338  10.794   1.103   3.619 -1.1436 -1.1388 -1.7978
  336MOL0     H45339  10.763   1.055   3.790  0.1106  2.0398 -0.7694
  336MOL0     H45340   9.796   0.902   3.484  0.0587 -1.2179 -1.6980
  336MOL0     H45341   9.599   0.833   3.373 -2.6376  1.1558 -0.1343
  336MOL0     H45342   9.136   1.077   3.291 -0.8814 -1.1558 -0.2285
  336MOL0     H45343   8.901   1.028   3.176 -1.0661 -2.0710 -0.2271
  336MOL0     H45344   7.372   0.895   2.658 -0.8746 -0.7178 -1.1977
  336MOL0     H45345   7.155   0.810   2.618 -2.1529 -1.9856  2.1618
  336MOL0     H45346   6.843   0.622   2.802 -0.7928 -2.0000  1.2904
  336MOL0     H45347   6.635   0.485   2.833  4.3746  0.1285 -0.3424
  336MOL0     H45348   6.265   0.607   2.601  0.7850 -0.0728  0.1596
  336MOL0     H45349   6.268   0.683   2.772 -0.5697 -0.7289  1.3206
  336MOL0     H45350   6.183   0.463   2.856 -1.8317 -1.4590 -0.4958
  336MOL0     H45351   6.156   0.411   2.689 -0.5308  0.3622 -0.9445
  336MOL0     H45352   5.976   0.518   2.660  0.5585 -2.7219  1.4486
  336MOL0     H45353   6.043   0.668   2.716  3.0628 -0.4903 -1.0487
  336MOL0     H45354   5.920   0.445   2.869  1.4662  0.0361 -1.7251
  336MOL0     H45355   5.992   0.562   2.972  1.1082 -1.4837 -0.0850
  336MOL0     H45356   5.631   0.744   2.826 -0.4134 -1.3005 -3.7684
  336MOL0     H45357   6.414   0.735   2.577 -0.1343 -2.7317  0.0074
  336MOL0     H45358   6.673   0.871   2.405 -1.0912  0.6153 -0.1269
  336MOL0     H45359   6.526   0.916   2.467 -0.0521  2.6163  1.0134
  336MOL0     H45360   6.673   0.988   2.533  1.4474 -0.7301  0.5774
  337MOL0     O45361   8.003  10.360   3.485 -0.1257  0.2688  0.3076
  337MOL0     C45362   7.980  10.249   3.523 -0.9282 -0.2312 -0.0375
  337MOL0     O45363   8.076  10.146   3.537 -1.1932  0.5032  0.6040
  337MOL0     C45364   8.205  10.189   3.504  0.5261  1.2073 -0.1291
  337MOL0     C45365   8.271  10.103   3.411  1.0947 -0.3685  0.0295
  337MOL0     C45366   8.409  10.122   3.395 -0.0912 -0.4866  1.0553
  337MOL0     C45367   8.473  10.219   3.470  0.5350 -0.3487 -0.1243
  337MOL0     O45368   8.611  10.236   3.451  0.4412  0.3384  0.6863
  337MOL0     C45369   8.639  10.275   3.318 -0.8197  0.0993 -0.1031
  337MOL0     C45370   8.788  10.281   3.285  0.9794 -0.1042  0.2713
  337MOL0     C45371   8.864  10.382   3.368  0.1725 -0.2314  0.4298
  337MOL0     C45372   9.013  10.362   3.357 -0.3941  0.6903 -0.0814
  337MOL0     C45373   9.101  10.480   3.412  0.1045  0.0682  0.3722
  337MOL0     C45374   9.258  10.462   3.377  0.2735 -0.2935 -1.3330
  337MOL0     C45375   9.340  10.587   3.413  0.1292  0.6518  0.2014
  337MOL0     C45376   9.465  10.588   3.334 -0.3802  1.2814 -0.1456
  337MOL0     N45377   9.554  10.474   3.369  0.2246  0.1686  0.0656
  337MOL0     C45378   9.635  10.476   3.483  0.9098  0.3706 -0.6662
  337MOL0     C45379   9.661  10.352   3.508  0.1053  0.4043  0.1972
  337MOL0     C45380   9.737  10.304   3.629 -0.0676  0.0438  0.1715
  337MOL0     C45381   9.884  10.312   3.578 -0.5790 -0.1008  0.1736
  337MOL0     C45382   9.973  10.268   3.696  0.2935  0.8864  0.1280
  337MOL0     C45383  10.121  10.277   3.639 -0.9026 -0.4190 -0.1461
  337MOL0     O45384  10.201  10.279   3.756  0.0599  0.0918  0.0471
  337MOL0     C45385  10.344  10.260   3.751  0.4262  0.2735 -0.5380
  337MOL0     C45386  10.419  10.262   3.866 -0.6077 -0.1747 -0.8239
  337MOL0     C45387  10.556  10.254   3.868 -0.5133 -1.3550  0.0574
  337MOL0     C45388  10.630  10.244   3.746 -0.4274 -0.8195 -0.6854
  337MOL0     C45389  10.781  10.241   3.753 -0.3763 -0.1251  0.4248
  337MOL0     O45390  10.848  10.277   3.874  1.0613  0.6924  0.2629
  337MOL0     C45391  10.970  10.231   3.882 -0.8215  0.7847  0.7088
  337MOL0     C45392  11.073  10.314   3.867 -0.2153 -0.5773  0.4545
  337MOL0     C45393  11.203  10.274   3.842 -0.0921  0.5162 -0.5810
  337MOL0     C45394  11.231  10.133   3.838 -0.2236  0.5199 -0.3817
  337MOL0     O45395  11.359  10.088   3.819 -0.1265 -0.4590  0.1467
  337MOL0     C45396  11.464  10.188   3.837  0.2401 -0.3272 -0.3940
  337MOL0     C45397  11.594  10.114   3.861  0.5321 -0.0479 -0.7811
  337MOL0     C45398  11.714  10.212   3.848 -0.5238  1.4525  0.1300
  337MOL0     C45399  11.840  10.136   3.805  1.0582 -0.2058  0.0802
  337MOL0     C45400  11.947  10.231   3.755  0.7948  0.5535  0.2843
  337MOL0     C45401  11.983  10.343   3.861 -1.3802  0.5708 -0.0542
  337MOL0     C45402  12.133  10.389   3.823  0.1646 -0.6092 -0.5698
  337MOL0     C45403  12.186  10.511   3.895 -0.4973  0.6344 -0.3942
  337MOL0    Cl45404  12.359  10.522   3.845  0.1483 -0.2416  0.4302
  337MOL0     C45405  11.127  10.046   3.858 -0.1388 -0.4267  0.2065
  337MOL0     C45406  11.002  10.098   3.885 -0.1372  0.7637 -0.3472
  337MOL0     O45407  10.835  10.211   3.643  0.0653  0.2905 -0.1828
  337MOL0     C45408  10.552  10.232   3.627  0.4347 -0.2109  0.0510
  337MOL0     C45409  10.410  10.236   3.633  0.0756  0.6360 -0.3830
  337MOL0     N45410   9.602  10.270   3.401 -0.2885 -0.0027 -0.3725
  337MOL0     N45411   9.536  10.347   3.325  0.1456 -0.0110  0.3720
  337MOL0     C45412   8.407  10.298   3.559  0.2257 -0.0847 -0.2618
  337MOL0     C45413   8.271  10.287   3.581 -0.7056  0.9481 -0.3964
  337MOL0     C45414   7.835  10.217   3.557 -0.2900  0.1354  0.4972
  337MOL0     C45415   7.730  10.287   3.497 -0.0342  0.0202  0.0876
  337MOL0     C45416   7.596  10.266   3.523  0.6215 -0.2208 -0.4577
  337MOL0     C45417   7.555  10.163   3.605 -0.4781 -0.6306 -0.6922
  337MOL0     O45418   7.429  10.123   3.620  0.9180  0.4221 -0.3422
  337MOL0     C45419   7.349  10.081   3.505 -0.7021 -0.6092 -0.4932
  337MOL0     C45420   7.384   9.942   3.478 -0.6906 -0.0817 -0.7158
  337MOL0     C45421   7.299   9.859   3.384 -0.8128  0.5784 -0.6503
  337MOL0     C45422   7.169   9.807   3.447 -0.7576  0.2396  0.1800
  337MOL0     C45423   7.066   9.913   3.437 -1.4937 -0.0789  0.2541
  337MOL0     C45424   6.997  10.004   3.413  0.8163  0.2698  0.0648
  337MOL0     C45425   7.655  10.089   3.670 -0.4818  0.2452  0.8686
  337MOL0     C45426   7.790  10.124   3.656 -0.2233  0.4017  0.0230
  337MOL0     C45427   7.893  10.048   3.733 -0.3924  0.8613  0.0830
  337MOL0     H45428   8.220  10.020   3.363  3.8276 -0.6653 -2.6424
  337MOL0     H45429   8.459  10.057   3.324 -0.3893  1.2094 -0.7996
  337MOL0     H45430   8.598  10.205   3.245 -1.8110  1.8109 -1.2735
  337MOL0     H45431   8.599  10.375   3.299 -0.6845 -0.1439 -1.8260
  337MOL0     H45432   8.792  10.316   3.181 -0.7171 -1.7515 -0.4057
  337MOL0     H45433   8.829  10.180   3.284 -2.7483 -1.8148  0.7497
  337MOL0     H45434   8.837  10.385   3.474 -1.7031  1.0129 -0.0272
  337MOL0     H45435   8.832  10.481   3.333  0.4667 -1.0826 -2.4161
  337MOL0     H45436   9.049  10.276   3.415 -1.7667 -0.1255 -0.3952
  337MOL0     H45437   9.047  10.336   3.256  3.5642 -2.8561  1.8179
  337MOL0     H45438   9.063  10.571   3.364  0.1036 -0.2887 -0.3196
  337MOL0     H45439   9.085  10.494   3.519  0.8946  2.5247  0.2346
  337MOL0     H45440   9.284  10.373   3.434  2.3145 -0.1583 -1.9861
  337MOL0     H45441   9.272  10.444   3.270 -3.5446 -4.4363 -1.4328
  337MOL0     H45442   9.361  10.583   3.521  0.2906 -1.8264  0.1564
  337MOL0     H45443   9.292  10.683   3.393  2.7348  1.9582 -0.1909
  337MOL0     H45444   9.433  10.587   3.230 -4.3279  1.1604  0.9344
  337MOL0     H45445   9.522  10.679   3.355  1.2741  0.2009  0.3251
  337MOL0     H45446   9.655  10.552   3.557 -3.9943  0.5563  0.8620
  337MOL0     H45447   9.711  10.371   3.712 -1.1426  2.5152 -2.0188
  337MOL0     H45448   9.717  10.201   3.659  0.1302 -0.3606 -1.0309
  337MOL0     H45449   9.894  10.245   3.493  2.2143  0.1717  0.1756
  337MOL0     H45450   9.901  10.416   3.548  1.0173 -0.6756 -1.0417
  337MOL0     H45451   9.947  10.166   3.725  0.8412  1.6503  3.8066
  337MOL0     H45452   9.961  10.326   3.788  0.4570  0.8092  0.1984
  337MOL0     H45453  10.146  10.366   3.580 -1.5224 -0.1973 -0.0743
  337MOL0     H45454  10.146  10.183   3.589  2.8289 -0.8463  2.1076
  337MOL0     H45455  10.362  10.275   3.957 -1.4080 -1.7464 -1.0722
  337MOL0     H45456  10.609  10.268   3.963 -1.0650 -2.3387  0.5252
  337MOL0     H45457  11.049  10.419   3.853 -1.5979  0.0437  5.4555
  337MOL0     H45458  11.280  10.349   3.831  1.8109 -1.5441 -1.9910
  337MOL0     H45459  11.465  10.258   3.753 -0.1908  0.4310  0.2242
  337MOL0     H45460  11.459  10.244   3.931  0.6710 -0.9312  0.0010
  337MOL0     H45461  11.584  10.049   3.949  0.1505  0.2886 -0.5667
  337MOL0     H45462  11.605  10.049   3.775 -1.7644 -0.6482 -0.6933
  337MOL0     H45463  11.702  10.284   3.767 -0.9971 -0.8743 -2.0108
  337MOL0     H45464  11.732  10.269   3.940  0.6672  3.3004 -1.1777
  337MOL0     H45465  11.807  10.066   3.728  2.9826  0.4510 -1.4069
  337MOL0     H45466  11.888  10.081   3.886  0.9306 -0.7031 -0.1784
  337MOL0     H45467  11.928  10.283   3.660  1.0142 -2.0297 -1.2739
  337MOL0     H45468  12.036  10.168   3.742 -0.5851 -1.6358  0.9804
  337MOL0     H45469  11.908  10.422   3.857 -3.1093 -1.0269 -0.5225
  337MOL0     H45470  11.974  10.309   3.965  1.5937  0.3464  0.2138
  337MOL0     H45471  12.136  10.402   3.715  3.1821 -1.6980 -0.7236
  337MOL0     H45472  12.192  10.302   3.854  0.2898 -0.1795  0.4423
  337MOL0     H45473  12.135  10.604   3.870  0.3093  1.0031 -0.6900
  337MOL0     H45474  12.199  10.487   4.001  3.0961  1.5433 -0.5063
  337MOL0     H45475  11.139   9.938   3.860 -1.9075 -0.6651 -0.6537
  337MOL0     H45476  10.919  10.035   3.915 -0.9355  2.3875  1.0110
  337MOL0     H45477  10.597  10.193   3.536  0.2042 -1.9431  0.6359
  337MOL0     H45478  10.352  10.223   3.543  0.8202  1.3665 -0.9815
  337MOL0     H45479   8.476  10.368   3.605 -1.5653  1.0262  0.8979
  337MOL0     H45480   8.224  10.325   3.671 -2.0015 -4.0255  1.3563
  337MOL0     H45481   7.766  10.359   3.424 -0.6644  1.1945  0.9006
  337MOL0     H45482   7.516  10.322   3.475 -0.2851  3.2170  4.4326
  337MOL0     H45483   7.380  10.144   3.421 -0.7981  1.9021  1.2092
  337MOL0     H45484   7.248  10.106   3.537  0.5528  1.2428  2.5029
  337MOL0     H45485   7.391   9.899   3.579  2.0046 -1.7564 -1.5051
  337MOL0     H45486   7.479   9.948   3.423 -1.2565  3.2110 -1.5215
  337MOL0     H45487   7.357   9.769   3.361 -2.9998 -0.2490 -3.5651
  337MOL0     H45488   7.273   9.906   3.289  0.2004  1.0167 -0.7307
  337MOL0     H45489   7.125   9.712   3.415 -1.4077  0.7113 -0.3496
  337MOL0     H45490   7.178   9.796   3.556  1.4221 -1.5308 -0.1057
  337MOL0     H45491   6.925  10.079   3.388 -2.1668 -2.3824  0.0838
  337MOL0     H45492   7.619  10.008   3.732 -0.5573 -2.1835 -2.1447
  337MOL0     H45493   7.841   9.995   3.813  2.3868 -0.5885  1.0154
  337MOL0     H45494   7.944   9.979   3.666  0.5762  1.2977  0.3546
  337MOL0     H45495   7.973  10.106   3.780  0.3978 -1.2424  1.4682
  338MOL0     O45496   3.251   4.616   2.892  0.1768  0.3591  0.2081
  338MOL0     C45497   3.165   4.633   2.806 -1.0630  0.2124 -0.0728
  338MOL0     O45498   3.188   4.644   2.675 -0.7464  0.3109 -0.1429
  338MOL0     C45499   3.317   4.671   2.622  0.6204 -0.0697  0.0562
  338MOL0     C45500   3.355   4.600   2.508 -0.0216 -1.0000  0.1108
  338MOL0     C45501   3.485   4.629   2.462 -0.0450  0.0571  0.0183
  338MOL0     C45502   3.580   4.729   2.510  1.5281  0.0192 -0.7022
  338MOL0     O45503   3.713   4.741   2.478 -0.0600 -0.5162  1.3761
  338MOL0     C45504   3.771   4.644   2.385  0.4570 -0.3371  0.4588
  338MOL0     C45505   3.835   4.524   2.442  0.1803  0.8327 -0.5567
  338MOL0     C45506   3.920   4.571   2.564 -0.0279  0.0042 -0.7423
  338MOL0     C45507   3.988   4.444   2.614  0.1766  0.3956  0.8607
  338MOL0     C45508   4.081   4.471   2.725 -0.2439 -0.0100  0.7378
  338MOL0     C45509   4.102   4.349   2.812 -0.3223 -0.6961 -0.1451
  338MOL0     C45510   4.195   4.370   2.933 -0.1828  0.6187  0.6709
  338MOL0     C45511   4.135   4.476   3.026 -0.7498 -0.2225 -0.2305
  338MOL0     N45512   4.182   4.453   3.163  0.0200 -0.7129 -1.1152
  338MOL0     C45513   4.311   4.466   3.209 -0.2699 -0.2699 -0.1508
  338MOL0     C45514   4.304   4.490   3.342  0.9126  0.3749  0.7289
  338MOL0     C45515   4.409   4.520   3.434 -0.3792  0.3270 -0.2358
  338MOL0     C45516   4.403   4.662   3.470 -0.2645 -0.7360 -0.6123
  338MOL0     C45517   4.522   4.705   3.562 -0.1330 -0.5231 -0.0350
  338MOL0     C45518   4.652   4.749   3.499 -0.9004  0.5290  0.5887
  338MOL0     O45519   4.742   4.635   3.478 -0.4509  0.2579 -0.2919
  338MOL0     C45520   4.865   4.658   3.431 -0.2138  0.0503  1.0624
  338MOL0     C45521   4.916   4.788   3.411  0.7601  0.1117  0.0086
  338MOL0     C45522   5.052   4.806   3.382 -0.8323  0.7750  0.3191
  338MOL0     C45523   5.133   4.687   3.382  0.0907  0.1457 -1.0656
  338MOL0     C45524   5.276   4.709   3.363  0.4701  0.4483 -0.0108
  338MOL0     O45525   5.318   4.836   3.345 -0.3722 -0.1564 -0.5158
  338MOL0     C45526   5.450   4.877   3.351 -0.3052 -0.2734 -0.2671
  338MOL0     C45527   5.556   4.793   3.326 -0.2125 -0.9165 -0.0219
  338MOL0     C45528   5.684   4.853   3.319  0.1241 -0.4364 -0.5444
  338MOL0     C45529   5.710   4.988   3.352  0.2990  0.3961  0.5028
  338MOL0     O45530   5.832   5.048   3.365  0.6165  0.2863  0.5410
  338MOL0     C45531   5.946   4.976   3.329 -0.3798  1.1306 -0.2392
  338MOL0     C45532   6.076   5.061   3.309  0.2774 -1.4186 -0.0721
  338MOL0     C45533   6.119   5.136   3.440 -1.3195 -0.4308  0.0096
  338MOL0     C45534   6.225   5.243   3.396  0.8094  0.2827  0.2181
  338MOL0     C45535   6.287   5.312   3.513 -0.9554 -0.2084 -0.2845
  338MOL0     C45536   6.345   5.448   3.476  0.5429  0.3514 -1.3518
  338MOL0     C45537   6.416   5.515   3.593  0.3003 -0.0517 -0.1334
  338MOL0     C45538   6.453   5.661   3.553 -0.1851  0.6404  0.1267
  338MOL0    Cl45539   6.585   5.663   3.435  0.3641 -0.4516  0.3137
  338MOL0     C45540   5.601   5.068   3.372  1.4811 -0.2988  0.1954
  338MOL0     C45541   5.470   5.017   3.371  0.3508  0.4282 -0.1147
  338MOL0     O45542   5.337   4.606   3.382 -0.1287  0.6871  0.0979
  338MOL0     C45543   5.072   4.561   3.382  0.0789  0.2413  0.6527
  338MOL0     C45544   4.938   4.542   3.402 -1.0401  0.2634  0.5758
  338MOL0     N45545   4.163   4.485   3.380 -0.3345  0.4628 -0.2220
  338MOL0     N45546   4.103   4.455   3.270 -0.3455 -0.5760  0.5730
  338MOL0     C45547   3.516   4.808   2.604 -0.1804 -0.3966 -0.7496
  338MOL0     C45548   3.387   4.788   2.667  0.5521 -0.3795  0.9380
  338MOL0     C45549   3.028   4.640   2.854  0.0342 -0.5560  0.4844
  338MOL0     C45550   2.933   4.655   2.750 -0.6321  0.6821  1.0564
  338MOL0     C45551   2.795   4.646   2.771  0.5695 -0.0559  0.7131
  338MOL0     C45552   2.748   4.616   2.898  0.5362  0.3582 -0.3507
  338MOL0     O45553   2.618   4.612   2.939 -0.2277 -0.2755 -0.5741
  338MOL0     C45554   2.524   4.679   2.861  1.1974 -0.2226  0.3118
  338MOL0     C45555   2.386   4.675   2.944 -0.5627  0.2068 -0.2965
  338MOL0     C45556   2.274   4.762   2.878 -0.7958  0.8432 -0.5531
  338MOL0     C45557   2.137   4.720   2.934  0.0215 -0.0581 -0.1136
  338MOL0     C45558   2.100   4.597   2.877 -0.0960 -0.1550 -0.0743
  338MOL0     C45559   2.068   4.502   2.815 -0.6678  0.1823  0.0956
  338MOL0     C45560   2.842   4.594   2.999  0.1353  0.3524  0.8209
  338MOL0     C45561   2.982   4.606   2.978  0.1902  0.7444 -0.3782
  338MOL0     C45562   3.060   4.571   3.106  0.6577  0.5036 -0.4993
  338MOL0     H45563   3.289   4.526   2.464 -2.8162  1.4904 -0.2273
  338MOL0     H45564   3.515   4.567   2.378  0.1968  1.5477 -1.0378
  338MOL0     H45565   3.702   4.612   2.306  0.8919  1.4347 -0.6860
  338MOL0     H45566   3.859   4.689   2.340  0.8621 -1.6794 -0.1583
  338MOL0     H45567   3.901   4.477   2.368  1.4697 -0.4361  1.2931
  338MOL0     H45568   3.759   4.451   2.472  2.2492 -0.9278  0.7339
  338MOL0     H45569   3.882   4.634   2.646  1.6695  0.3994 -0.2188
  338MOL0     H45570   3.993   4.639   2.520 -0.8629 -0.8023 -3.5581
  338MOL0     H45571   3.911   4.382   2.660 -1.2103  1.5639  0.1893
  338MOL0     H45572   4.038   4.394   2.530  1.8017  0.2742  1.8586
  338MOL0     H45573   4.179   4.504   2.689  0.4702 -1.3267  1.4094
  338MOL0     H45574   4.042   4.549   2.791 -0.7329 -0.3385  0.8403
  338MOL0     H45575   4.004   4.310   2.842 -2.3996  1.4958 -3.3316
  338MOL0     H45576   4.147   4.272   2.749  2.0514 -1.1519  1.9453
  338MOL0     H45577   4.293   4.401   2.893 -0.7631  3.2082  1.0503
  338MOL0     H45578   4.204   4.275   2.987 -0.0516 -0.7189 -1.5869
  338MOL0     H45579   4.155   4.571   2.975  0.0203 -0.7635 -0.9459
  338MOL0     H45580   4.026   4.466   3.025 -0.9114  1.2959 -1.2456
  338MOL0     H45581   4.398   4.462   3.144 -1.5911 -0.8881 -1.9455
  338MOL0     H45582   4.397   4.467   3.529  0.6748 -2.9070 -1.7410
  338MOL0     H45583   4.507   4.496   3.391 -0.3710  0.6439 -0.3907
  338MOL0     H45584   4.393   4.724   3.381  1.6029 -2.1834 -1.9132
  338MOL0     H45585   4.315   4.672   3.534  1.1104  0.7903  1.1690
  338MOL0     H45586   4.545   4.624   3.631 -0.7077 -0.7748 -0.1305
  338MOL0     H45587   4.485   4.793   3.616 -1.0509 -0.0071 -1.4591
  338MOL0     H45588   4.706   4.817   3.564  1.1110 -1.4970  1.1592
  338MOL0     H45589   4.635   4.798   3.403 -0.5186 -0.0600  0.2093
  338MOL0     H45590   4.854   4.873   3.438  2.9585  1.3697  1.5047
  338MOL0     H45591   5.078   4.909   3.357 -2.1007  0.6715 -1.5838
  338MOL0     H45592   5.552   4.685   3.316 -2.3875 -0.8588 -0.2626
  338MOL0     H45593   5.762   4.785   3.285  1.5314  1.9366 -2.4587
  338MOL0     H45594   5.966   4.904   3.409  3.4630  2.8856  0.6051
  338MOL0     H45595   5.928   4.929   3.232  0.1858  0.2522  0.0687
  338MOL0     H45596   6.159   4.996   3.278 -1.4438 -4.0885  0.5235
  338MOL0     H45597   6.050   5.134   3.232  0.4323  0.7815  1.8488
  338MOL0     H45598   6.041   5.198   3.486  0.1519 -0.0841  2.2465
  338MOL0     H45599   6.174   5.069   3.507 -1.3280  0.8788  1.3807
  338MOL0     H45600   6.170   5.321   3.341  1.4030  1.5889  1.4006
  338MOL0     H45601   6.306   5.191   3.345 -0.1795 -1.1807  0.0804
  338MOL0     H45602   6.371   5.255   3.555 -2.0133 -1.6905 -0.1158
  338MOL0     H45603   6.212   5.333   3.590 -2.0908 -1.4609 -1.0041
  338MOL0     H45604   6.422   5.421   3.403  1.5815 -2.5529  0.6443
  338MOL0     H45605   6.274   5.519   3.432  3.6439  5.5232  1.0822
  338MOL0     H45606   6.500   5.452   3.623  0.6762  0.3731 -0.2843
  338MOL0     H45607   6.343   5.525   3.674  0.0244  2.8283 -0.6319
  338MOL0     H45608   6.365   5.708   3.509 -0.8558 -3.6842 -3.8489
  338MOL0     H45609   6.495   5.715   3.639 -0.6878  1.7184 -0.2840
  338MOL0     H45610   5.606   5.173   3.396 -4.2343  0.7142 -1.5193
  338MOL0     H45611   5.391   5.090   3.390 -0.2137 -0.4997  1.2666
  338MOL0     H45612   5.140   4.479   3.363  1.9756  0.8836  3.9120
  338MOL0     H45613   4.904   4.439   3.398  1.0243 -0.4128 -1.7233
  338MOL0     H45614   3.581   4.881   2.652 -1.7149 -0.4735  1.6336
  338MOL0     H45615   3.345   4.852   2.745 -2.1365  0.5009 -1.0760
  338MOL0     H45616   2.955   4.676   2.646 -0.9200  0.1471  0.8869
  338MOL0     H45617   2.730   4.667   2.687  1.1478 -0.5088  0.1423
  338MOL0     H45618   2.513   4.626   2.766 -0.1493  1.9044 -0.8079
  338MOL0     H45619   2.556   4.781   2.834  2.9135 -0.5940  0.8081
  338MOL0     H45620   2.398   4.705   3.048 -0.4345 -1.3183  0.1388
  338MOL0     H45621   2.351   4.572   2.950 -0.3802  0.1201 -0.6746
  338MOL0     H45622   2.265   4.744   2.771 -0.3233 -1.6330 -0.2267
  338MOL0     H45623   2.293   4.867   2.904 -0.9506  0.8804 -0.5908
  338MOL0     H45624   2.131   4.714   3.044 -0.3390  1.1855 -0.0466
  338MOL0     H45625   2.068   4.802   2.909 -1.6923 -1.4905 -0.2746
  338MOL0     H45626   2.025   4.425   2.754 -0.1616 -1.3339  1.5626
  338MOL0     H45627   2.804   4.555   3.093 -0.2089 -0.8989  0.1780
  338MOL0     H45628   3.095   4.467   3.101 -0.6719  0.0558 -0.9618
  338MOL0     H45629   3.132   4.651   3.125 -0.9184  1.3011  3.0920
  338MOL0     H45630   2.993   4.578   3.192  1.4627  0.3262  0.1612
  339MOL0     O45631   1.953   6.101   4.373  0.3778  0.4948 -0.0510
  339MOL0     C45632   1.879   6.089   4.276  0.5710 -0.2630 -0.4514
  339MOL0     O45633   1.927   6.054   4.153  0.9155 -0.0384 -0.6482
  339MOL0     C45634   2.064   6.050   4.145 -0.1827  1.1385 -0.6118
  339MOL0     C45635   2.150   6.146   4.098  0.9985  0.1406 -0.0433
  339MOL0     C45636   2.280   6.128   4.077 -0.3047 -0.5614 -0.4185
  339MOL0     C45637   2.342   6.003   4.100  0.7956 -0.4253  0.3220
  339MOL0     O45638   2.481   5.989   4.091  0.2040  0.3054 -0.0966
  339MOL0     C45639   2.543   6.019   3.966 -0.0847  0.3420  0.1349
  339MOL0     C45640   2.675   6.082   3.989  0.5237 -0.1238 -0.1289
  339MOL0     C45641   2.790   5.986   4.010 -0.6419 -0.1093 -0.4928
  339MOL0     C45642   2.915   6.063   4.049  0.5734 -0.3920  0.6436
  339MOL0     C45643   3.042   5.975   4.015  0.0192 -0.1742 -0.2126
  339MOL0     C45644   3.042   5.837   4.089  0.2969  0.8543 -0.2965
  339MOL0     C45645   3.167   5.763   4.034 -0.6156  0.2819  0.2228
  339MOL0     C45646   3.152   5.645   3.942 -0.0151  0.8604 -0.8236
  339MOL0     N45647   3.093   5.657   3.813  0.1665  0.4085  0.1336
  339MOL0     C45648   3.158   5.701   3.701 -0.3741  0.5969 -0.1159
  339MOL0     C45649   3.064   5.725   3.608  0.5251  1.1702  0.4626
  339MOL0     C45650   3.089   5.772   3.472  0.0233  0.0509  1.0325
  339MOL0     C45651   3.067   5.651   3.374 -0.9053 -0.9695  0.0597
  339MOL0     C45652   3.165   5.528   3.402  0.5890 -0.0206 -0.0432
  339MOL0     C45653   3.317   5.551   3.361  0.3353 -0.5944  0.3675
  339MOL0     O45654   3.334   5.533   3.218  0.4425  0.0358  0.4949
  339MOL0     C45655   3.463   5.528   3.175  0.2104 -0.1801  0.6644
  339MOL0     C45656   3.589   5.556   3.242  0.1725  0.3240  0.1081
  339MOL0     C45657   3.708   5.539   3.176 -1.2106  1.0531  0.1787
  339MOL0     C45658   3.717   5.479   3.058  0.1524  0.7424  0.3044
  339MOL0     C45659   3.852   5.440   2.994  0.9690  0.4279 -0.3247
  339MOL0     O45660   3.965   5.442   3.076 -0.2842  0.9109  0.4049
  339MOL0     C45661   4.087   5.404   3.020  0.1631  0.1286 -0.6217
  339MOL0     C45662   4.165   5.500   2.962 -0.1431 -0.5348  0.5456
  339MOL0     C45663   4.290   5.477   2.902  1.1698  0.3001  0.3196
  339MOL0     C45664   4.339   5.341   2.926  1.0489  0.8266  0.2036
  339MOL0     O45665   4.463   5.290   2.905  0.1655 -0.2923  0.2212
  339MOL0     C45666   4.579   5.377   2.926  1.2176  1.0650 -0.0507
  339MOL0     C45667   4.713   5.304   2.942 -0.3131  0.2339  0.9299
  339MOL0     C45668   4.832   5.369   2.892 -0.2517  0.7334  0.9841
  339MOL0     C45669   4.948   5.268   2.879 -0.1051 -0.3653  0.6029
  339MOL0     C45670   5.058   5.353   2.823  0.0187  0.5656  0.0482
  339MOL0     C45671   5.186   5.305   2.887 -0.0262  0.9892  0.6491
  339MOL0     C45672   5.225   5.167   2.830  0.1503 -0.2490 -0.1212
  339MOL0     C45673   5.365   5.126   2.886  0.5683 -0.5948 -0.7312
  339MOL0    Cl45674   5.388   5.160   3.067  0.1636  0.0198 -0.0757
  339MOL0     C45675   4.249   5.244   2.987  0.9019  0.0215 -0.1209
  339MOL0     C45676   4.128   5.274   3.027  0.6640  0.0007 -0.1167
  339MOL0     O45677   3.843   5.394   2.882 -0.3987 -0.1420  0.0491
  339MOL0     C45678   3.594   5.443   2.989 -0.0110  1.2617  0.1226
  339MOL0     C45679   3.466   5.464   3.049  0.2153 -0.5963  0.6278
  339MOL0     N45680   2.940   5.691   3.663 -0.0560 -0.3260  0.2556
  339MOL0     N45681   2.964   5.647   3.777  0.3434 -0.8543 -0.5716
  339MOL0     C45682   2.260   5.903   4.151  0.9826 -0.2508  0.1725
  339MOL0     C45683   2.125   5.922   4.181 -0.1500  0.1093  0.3441
  339MOL0     C45684   1.733   6.127   4.313  0.5377  0.3500  0.0392
  339MOL0     C45685   1.703   6.194   4.424  1.0986 -0.5231 -0.9963
  339MOL0     C45686   1.572   6.225   4.455  0.0115 -0.8014  0.5566
  339MOL0     C45687   1.466   6.179   4.391 -0.2852  0.4443 -0.1872
  339MOL0     O45688   1.337   6.193   4.435 -0.3222 -0.2487 -0.3874
  339MOL0     C45689   1.317   6.284   4.545  0.4129  0.3035  0.1143
  339MOL0     C45690   1.170   6.276   4.574 -0.4932  0.8764 -0.5603
  339MOL0     C45691   1.151   6.151   4.663  0.2397  0.2093  1.1654
  339MOL0     C45692   0.998   6.126   4.697 -0.0545 -0.1418  0.4913
  339MOL0     C45693   0.920   6.095   4.582  0.2010 -0.2107  0.2531
  339MOL0     C45694   0.854   6.055   4.484 -1.1824  0.1538  0.1561
  339MOL0     C45695   1.493   6.113   4.273 -0.3001 -1.2185  0.4778
  339MOL0     C45696   1.622   6.088   4.234 -0.2938  1.3198 -0.3691
  339MOL0     C45697   1.646   6.002   4.115  0.1604  0.2373  0.0124
  339MOL0     H45698   2.118   6.249   4.092  2.0194  0.3957 -2.6985
  339MOL0     H45699   2.342   6.214   4.054 -0.2341 -0.3538  0.5179
  339MOL0     H45700   2.558   5.930   3.904  1.0792 -0.7376  1.9070
  339MOL0     H45701   2.485   6.087   3.902 -1.0774  1.1353  1.8157
  339MOL0     H45702   2.666   6.149   4.075 -2.5924 -0.0405 -0.3903
  339MOL0     H45703   2.714   6.142   3.907 -1.2473 -0.7743 -1.5058
  339MOL0     H45704   2.819   5.933   3.919  3.5296  2.6278 -0.9981
  339MOL0     H45705   2.774   5.919   4.096  0.0168 -0.3123 -0.5263
  339MOL0     H45706   2.921   6.156   3.991 -1.2463  0.6047  1.9462
  339MOL0     H45707   2.912   6.094   4.153 -0.3434  2.4079 -0.1139
  339MOL0     H45708   3.052   5.955   3.908 -3.2493 -2.1688 -0.2702
  339MOL0     H45709   3.128   6.032   4.050  0.1862  0.0085 -0.9039
  339MOL0     H45710   3.056   5.852   4.196 -0.0321 -1.1277  0.0673
  339MOL0     H45711   2.957   5.770   4.072  0.9251 -0.2052  0.6173
  339MOL0     H45712   3.223   5.723   4.118  0.9061 -1.1271 -1.3687
  339MOL0     H45713   3.239   5.828   3.982  0.2929 -0.7861  0.1068
  339MOL0     H45714   3.253   5.604   3.933  0.4190  0.8392  2.5580
  339MOL0     H45715   3.086   5.571   3.988  1.3045 -0.7677 -1.4310
  339MOL0     H45716   3.264   5.701   3.679 -0.0766 -1.6572  1.0386
  339MOL0     H45717   3.025   5.859   3.458 -0.3041 -0.3681 -0.1268
  339MOL0     H45718   3.189   5.817   3.477 -1.0314  2.5620  0.8862
  339MOL0     H45719   2.966   5.611   3.382 -2.1644  1.4156 -2.3059
  339MOL0     H45720   3.070   5.692   3.273 -2.7784  0.3573  0.4812
  339MOL0     H45721   3.134   5.438   3.348  0.3299  0.1241 -0.1425
  339MOL0     H45722   3.154   5.490   3.503  1.3208 -1.7413 -0.5821
  339MOL0     H45723   3.381   5.487   3.421  0.7175  0.4282  1.0745
  339MOL0     H45724   3.338   5.653   3.394 -3.1864  0.1147  0.7918
  339MOL0     H45725   3.589   5.615   3.333 -0.7674  0.3421  0.0993
  339MOL0     H45726   3.807   5.544   3.220  0.3579  1.7233 -3.1057
  339MOL0     H45727   4.119   5.598   2.954 -1.8373 -1.3563 -0.4278
  339MOL0     H45728   4.340   5.548   2.837  2.4896 -2.6971 -2.2529
  339MOL0     H45729   4.571   5.440   2.838 -0.1853  1.9558  0.6777
  339MOL0     H45730   4.572   5.444   3.012  2.1006  0.1391  0.7940
  339MOL0     H45731   4.740   5.313   3.047 -2.7292 -1.0784  1.7530
  339MOL0     H45732   4.710   5.204   2.898 -0.7981  0.4394  0.4829
  339MOL0     H45733   4.819   5.417   2.795 -0.8325  0.3172  0.8535
  339MOL0     H45734   4.855   5.447   2.966 -0.8531  2.0936 -0.2073
  339MOL0     H45735   4.922   5.192   2.805 -0.0833 -0.0723  0.2923
  339MOL0     H45736   4.974   5.197   2.958 -0.1881 -1.7543 -0.5973
  339MOL0     H45737   5.034   5.459   2.834  0.6197  0.7980 -0.7558
  339MOL0     H45738   5.066   5.340   2.715 -2.5534 -1.8208  0.0279
  339MOL0     H45739   5.273   5.369   2.871  0.9953 -0.9665 -2.7059
  339MOL0     H45740   5.174   5.290   2.994  0.5362 -3.0213  0.3422
  339MOL0     H45741   5.222   5.161   2.720 -1.0667 -1.4220 -0.0552
  339MOL0     H45742   5.145   5.100   2.861 -2.2152  0.8497 -3.2921
  339MOL0     H45743   5.383   5.020   2.868  2.7468 -0.2944 -0.5910
  339MOL0     H45744   5.427   5.192   2.824  0.3360  0.8932  0.5568
  339MOL0     H45745   4.295   5.148   3.004  1.8202  0.7199  1.5590
  339MOL0     H45746   4.065   5.198   3.073  1.2190 -1.0980 -1.1282
  339MOL0     H45747   3.592   5.395   2.892  1.3896  2.1494 -0.3797
  339MOL0     H45748   3.379   5.442   2.987  0.5186  0.7655 -0.3401
  339MOL0     H45749   2.299   5.808   4.186  1.1462  0.6260  2.6266
  339MOL0     H45750   2.057   5.848   4.224  0.0756  0.3574  1.1324
  339MOL0     H45751   1.773   6.240   4.492 -1.5455  1.2905  0.6636
  339MOL0     H45752   1.559   6.289   4.542  0.5229 -1.7807  1.3760
  339MOL0     H45753   1.331   6.389   4.520 -0.2780  0.1517 -0.9704
  339MOL0     H45754   1.379   6.257   4.631  1.5148  1.6568 -0.2170
  339MOL0     H45755   1.112   6.279   4.482 -1.2380  2.9907 -0.0749
  339MOL0     H45756   1.137   6.361   4.635 -0.8013 -1.0399  2.1259
  339MOL0     H45757   1.201   6.170   4.759 -2.1920  2.1679  2.1848
  339MOL0     H45758   1.193   6.067   4.608  0.2058  1.6872 -1.2449
  339MOL0     H45759   0.988   6.040   4.764  0.3285 -0.3926  0.2277
  339MOL0     H45760   0.954   6.212   4.748  0.3700  0.4945 -0.1977
  339MOL0     H45761   0.785   6.011   4.415  0.4501 -0.1421 -1.3699
  339MOL0     H45762   1.408   6.069   4.220  0.6269 -0.8072 -1.4238
  339MOL0     H45763   1.724   5.927   4.129 -1.1669 -0.7992  2.7117
  339MOL0     H45764   1.552   5.950   4.093 -1.6991  4.3633 -3.1657
  339MOL0     H45765   1.668   6.069   4.032  0.8327  0.4115  0.3255
  340MOL0     O45766   2.002   5.087   0.794 -0.0778  0.3417 -0.7778
  340MOL0     C45767   1.936   5.193   0.773 -0.2021  0.4898 -0.5379
  340MOL0     O45768   1.862   5.259   0.869  0.0200 -0.4072 -0.7068
  340MOL0     C45769   1.812   5.207   0.989 -0.6310 -0.4105  0.1211
  340MOL0     C45770   1.808   5.285   1.099 -0.8309 -0.2140  0.2504
  340MOL0     C45771   1.783   5.244   1.230 -0.3117 -0.1386 -0.0355
  340MOL0     C45772   1.756   5.108   1.250  0.1246  0.1200 -0.7432
  340MOL0     O45773   1.727   5.062   1.374 -0.4900  0.9263 -0.4755
  340MOL0     C45774   1.652   4.941   1.380  0.2167  0.3458  0.5036
  340MOL0     C45775   1.572   4.896   1.503 -0.1034  0.0423 -0.7634
  340MOL0     C45776   1.652   4.905   1.632  0.0043 -0.6918 -0.9493
  340MOL0     C45777   1.761   4.796   1.633  0.1252  0.0094  0.3058
  340MOL0     C45778   1.826   4.795   1.769  0.2510 -0.2614 -0.0988
  340MOL0     C45779   1.950   4.703   1.768 -0.1277 -0.1902 -0.1145
  340MOL0     C45780   2.035   4.726   1.889  1.1696  0.6362  0.0475
  340MOL0     C45781   2.176   4.675   1.863  0.4738  0.2042 -0.1535
  340MOL0     N45782   2.180   4.528   1.869 -0.4204 -0.4946 -0.1333
  340MOL0     C45783   2.179   4.453   1.983 -0.2328 -0.0892 -0.2039
  340MOL0     C45784   2.197   4.321   1.935  0.4415  0.0603 -0.3790
  340MOL0     C45785   2.199   4.185   1.999  0.0565 -0.2515  0.2965
  340MOL0     C45786   2.333   4.165   2.064 -0.3384 -0.7814  0.2155
  340MOL0     C45787   2.358   4.019   2.111  0.3730  0.4739  0.3491
  340MOL0     C45788   2.504   4.003   2.156  0.4218  0.1359 -0.1626
  340MOL0     O45789   2.600   4.018   2.052 -0.2224  0.0647  0.1322
  340MOL0     C45790   2.732   3.990   2.077 -0.5947  0.7253  0.7361
  340MOL0     C45791   2.823   4.025   1.972  0.1589  0.3373  0.6588
  340MOL0     C45792   2.957   3.997   1.982 -0.4851 -0.1748  0.7097
  340MOL0     C45793   3.022   3.939   2.100  1.3249 -0.6186  0.1788
  340MOL0     C45794   3.171   3.919   2.101 -0.3272 -0.4479 -0.1948
  340MOL0     O45795   3.240   3.968   1.993 -0.1522 -0.4153 -0.5320
  340MOL0     C45796   3.377   3.964   2.011 -0.2456 -0.3336  0.1086
  340MOL0     C45797   3.444   4.039   2.109 -0.4735  0.2636  0.3976
  340MOL0     C45798   3.589   4.034   2.114  0.2263  0.2143 -0.2192
  340MOL0     C45799   3.665   3.960   2.024  0.0234  0.1555 -0.4728
  340MOL0     O45800   3.801   3.963   2.028  0.5794 -0.3697  0.1327
  340MOL0     C45801   3.865   4.045   1.926  0.2945  0.8025 -0.2637
  340MOL0     C45802   3.857   4.194   1.939  0.0067 -0.1189 -0.0942
  340MOL0     C45803   3.925   4.269   1.823  0.7110  0.2431 -0.1392
  340MOL0     C45804   4.077   4.262   1.825 -0.3712 -0.2439 -0.0383
  340MOL0     C45805   4.140   4.342   1.711  0.5186  0.6160 -0.8907
  340MOL0     C45806   4.283   4.283   1.702 -0.0192 -0.8266 -0.5023
  340MOL0     C45807   4.373   4.376   1.624 -0.1465  1.1903 -0.1995
  340MOL0     C45808   4.478   4.298   1.540 -0.6423  1.2574 -0.3924
  340MOL0    Cl45809   4.421   4.143   1.476  0.3214  0.1285 -0.3095
  340MOL0     C45810   3.590   3.884   1.929 -0.4158  1.0594 -0.1812
  340MOL0     C45811   3.450   3.879   1.925  0.1523 -0.0148  0.0295
  340MOL0     O45812   3.220   3.876   2.204  0.3826 -0.3520  0.7171
  340MOL0     C45813   2.928   3.919   2.203 -0.0353 -0.2135 -0.1597
  340MOL0     C45814   2.791   3.942   2.193 -0.0477 -0.0454 -0.7430
  340MOL0     N45815   2.205   4.337   1.799 -0.2245  1.6297 -0.6697
  340MOL0     N45816   2.207   4.457   1.761  0.0937  0.1366  0.2323
  340MOL0     C45817   1.764   5.018   1.141 -0.4598 -0.0910  0.3842
  340MOL0     C45818   1.788   5.075   1.007  0.3484 -0.8768 -0.6569
  340MOL0     C45819   1.950   5.258   0.643 -0.1952 -0.2586 -0.0455
  340MOL0     C45820   2.072   5.308   0.608 -0.4094 -0.8398 -0.0111
  340MOL0     C45821   2.085   5.387   0.496 -0.6851  0.7343  0.4626
  340MOL0     C45822   1.972   5.415   0.415  0.0576 -0.0928 -0.2677
  340MOL0     O45823   1.995   5.502   0.310  0.4657  1.3275  0.4311
  340MOL0     C45824   1.928   5.458   0.184  0.3188 -0.1509  0.3532
  340MOL0     C45825   2.027   5.463   0.060  0.0363 -0.3967 -0.6899
  340MOL0     C45826   2.116   5.336   0.028  0.3031 -0.4470 -0.0521
  340MOL0     C45827   2.242   5.344   0.108 -0.9269  0.7512  0.6939
  340MOL0     C45828   2.327   5.457   0.079 -0.8482 -0.3784 -0.2298
  340MOL0     C45829   2.401   5.550   0.051 -1.1061  0.2910  0.3828
  340MOL0     C45830   1.850   5.375   0.463 -0.9753  0.5761  0.0679
  340MOL0     C45831   1.834   5.291   0.573  0.6035  0.5002 -0.8515
  340MOL0     C45832   1.702   5.218   0.588 -0.1994  0.1603 -0.1324
  340MOL0     H45833   1.849   5.386   1.102  4.9860 -2.0786 -1.9848
  340MOL0     H45834   1.805   5.313   1.311  1.0814 -0.0643 -0.4593
  340MOL0     H45835   1.582   4.937   1.295  0.8071  4.6646 -0.3964
  340MOL0     H45836   1.712   4.850   1.372  0.5846  0.6872 -1.1447
  340MOL0     H45837   1.539   4.791   1.499  2.2811 -0.7584 -1.1778
  340MOL0     H45838   1.487   4.965   1.511 -1.3008 -1.5795  3.0680
  340MOL0     H45839   1.590   4.897   1.722 -0.1191  0.1961 -0.9476
  340MOL0     H45840   1.706   4.999   1.627 -1.1788  0.0180 -0.7597
  340MOL0     H45841   1.717   4.697   1.620 -0.2405  0.3514 -1.1796
  340MOL0     H45842   1.836   4.823   1.558 -0.7635  1.2634 -0.1589
  340MOL0     H45843   1.853   4.894   1.808 -1.6725 -0.5545  2.2267
  340MOL0     H45844   1.757   4.746   1.839  1.8729 -0.5672  1.3638
  340MOL0     H45845   1.909   4.602   1.777 -2.4003  0.6050 -0.8088
  340MOL0     H45846   2.000   4.722   1.672 -0.8662  1.4247 -0.2101
  340MOL0     H45847   1.989   4.675   1.974 -1.0590 -1.1065 -2.0936
  340MOL0     H45848   2.049   4.828   1.927  1.1028 -0.2285  2.5527
  340MOL0     H45849   2.214   4.709   1.766  0.6167 -2.7415 -1.2223
  340MOL0     H45850   2.234   4.724   1.942 -0.1016  0.5662  0.0551
  340MOL0     H45851   2.164   4.481   2.086 -0.8047 -2.2171  0.3427
  340MOL0     H45852   2.128   4.167   2.080 -0.2594 -2.1956 -0.3432
  340MOL0     H45853   2.175   4.106   1.927 -2.5726 -0.5928  1.4366
  340MOL0     H45854   2.412   4.201   1.996 -0.8199  0.5910  0.3673
  340MOL0     H45855   2.343   4.235   2.147  0.7875  0.5888 -1.0021
  340MOL0     H45856   2.345   3.960   2.020  0.5031  2.9484 -1.3754
  340MOL0     H45857   2.290   4.006   2.196  0.9097  1.4035  0.9486
  340MOL0     H45858   2.522   3.903   2.196  1.7050  0.8739  1.2110
  340MOL0     H45859   2.507   4.073   2.240 -0.1385  1.5184 -1.2597
  340MOL0     H45860   2.782   4.058   1.878 -1.4800 -1.1632  0.7965
  340MOL0     H45861   3.010   4.042   1.898 -0.3779  0.3812  1.0723
  340MOL0     H45862   3.400   4.110   2.179  1.5455  2.8042 -0.7393
  340MOL0     H45863   3.642   4.091   2.190 -2.2330  0.9298  1.0588
  340MOL0     H45864   3.973   4.029   1.922  0.1244 -0.2251 -3.2743
  340MOL0     H45865   3.832   4.004   1.830 -1.2421 -1.5411  1.1802
  340MOL0     H45866   3.755   4.232   1.949 -0.2447 -0.6564 -0.5766
  340MOL0     H45867   3.911   4.202   2.034 -0.4465 -1.9254  0.3486
  340MOL0     H45868   3.896   4.236   1.723  3.0899 -0.2933 -0.7090
  340MOL0     H45869   3.894   4.373   1.839 -0.1391 -0.3929  2.8734
  340MOL0     H45870   4.102   4.156   1.812 -0.1404 -0.4098  1.4706
  340MOL0     H45871   4.124   4.301   1.916 -1.2272 -2.1139  1.2697
  340MOL0     H45872   4.155   4.447   1.740  1.8699 -0.0672  1.1382
  340MOL0     H45873   4.089   4.336   1.615  0.2278  1.0090 -0.7610
  340MOL0     H45874   4.333   4.282   1.799  0.7590 -2.1348 -0.9019
  340MOL0     H45875   4.268   4.180   1.669  0.9407 -1.0872 -0.1743
  340MOL0     H45876   4.429   4.448   1.684  1.2182 -1.3688  1.8538
  340MOL0     H45877   4.317   4.435   1.551 -0.1288  1.1814 -0.2207
  340MOL0     H45878   4.516   4.370   1.467 -0.9161  0.5592 -1.2367
  340MOL0     H45879   4.563   4.263   1.600  0.5113 -2.3821 -3.6784
  340MOL0     H45880   3.637   3.836   1.843 -5.1354  1.5376 -3.4052
  340MOL0     H45881   3.386   3.824   1.857  0.4221  2.5870 -2.5054
  340MOL0     H45882   2.957   3.880   2.300  2.0401  0.7040 -0.3501
  340MOL0     H45883   2.731   3.909   2.277 -0.7333 -3.7798 -2.5250
  340MOL0     H45884   1.754   4.911   1.159  1.6840 -0.1886  1.4642
  340MOL0     H45885   1.786   5.002   0.927 -0.9210 -6.0698  3.5294
  340MOL0     H45886   2.158   5.285   0.670  1.8640 -1.7523 -3.2414
  340MOL0     H45887   2.173   5.421   0.443 -0.9810 -0.4707 -0.8649
  340MOL0     H45888   1.848   5.528   0.159  2.2382  2.0203 -0.0807
  340MOL0     H45889   1.907   5.350   0.181  1.3584 -0.3637 -2.1357
  340MOL0     H45890   2.081   5.558   0.054 -2.4351  1.0239 -1.7900
  340MOL0     H45891   1.960   5.466  -0.026  0.1988  2.8996 -0.7968
  340MOL0     H45892   2.159   5.323  -0.072  0.3459  0.5137 -0.1673
  340MOL0     H45893   2.056   5.245   0.043  0.2890 -1.1960 -3.7072
  340MOL0     H45894   2.220   5.350   0.215  1.5435 -0.7416  1.3647
  340MOL0     H45895   2.300   5.253   0.087 -0.9295  0.3216  2.4239
  340MOL0     H45896   2.465   5.633   0.028 -0.4961 -0.5789 -1.2465
  340MOL0     H45897   1.759   5.403   0.410 -2.0471 -0.9718  1.0195
  340MOL0     H45898   1.665   5.238   0.689  0.0983  1.0095 -0.1781
  340MOL0     H45899   1.627   5.261   0.521 -1.6763 -0.8144  0.8389
  340MOL0     H45900   1.706   5.109   0.583 -0.9938  0.1097  0.1497
  341MOL0     O45901   0.504   7.849   8.899 -0.6861  0.3311 -0.4917
  341MOL0     C45902   0.534   7.948   8.967  0.3588  0.3917 -0.2969
  341MOL0     O45903   0.643   7.964   9.046 -0.2297  0.3120  0.4112
  341MOL0     C45904   0.737   7.868   9.042 -1.2891 -0.6897  0.3271
  341MOL0     C45905   0.786   7.791   8.930  0.2338 -0.6208 -0.9465
  341MOL0     C45906   0.898   7.709   8.944 -0.0959  0.7396 -0.5290
  341MOL0     C45907   0.971   7.698   9.066 -0.8392  0.8731  0.0865
  341MOL0     O45908   1.074   7.602   9.058 -0.0517  0.4669  0.2792
  341MOL0     C45909   1.185   7.621   9.152 -0.1114 -0.9859 -0.3414
  341MOL0     C45910   1.249   7.760   9.127  0.5548  0.2923 -0.0284
  341MOL0     C45911   1.367   7.788   9.232 -0.5606  0.0100  0.0041
  341MOL0     C45912   1.319   7.850   9.362  0.9300 -1.2410  0.2770
  341MOL0     C45913   1.252   7.997   9.342  1.5388 -0.5294 -1.0137
  341MOL0     C45914   1.267   8.081   9.464 -0.5555  0.3252 -0.1896
  341MOL0     C45915   1.171   8.044   9.579 -0.5687 -0.2330 -0.3133
  341MOL0     C45916   1.185   8.141   9.705 -0.7613  0.4450  0.7410
  341MOL0     N45917   1.316   8.149   9.759  0.4489 -0.2167  0.7858
  341MOL0     C45918   1.416   8.049   9.761  0.7157 -0.3557  0.3825
  341MOL0     C45919   1.518   8.105   9.820 -1.0078  0.3903 -0.7734
  341MOL0     C45920   1.654   8.031   9.822  0.5178 -0.1558  0.0680
  341MOL0     C45921   1.780   8.120   9.835  0.5914 -0.0412  0.3866
  341MOL0     C45922   1.800   8.176   9.979 -0.4363 -0.2297  0.4525
  341MOL0     C45923   1.946   8.235  10.002  0.7857  0.1534 -0.6529
  341MOL0     O45924   2.029   8.125   9.976  0.0633 -0.0029 -0.1678
  341MOL0     C45925   2.170   8.127  10.015  0.1378  0.0393 -1.3803
  341MOL0     C45926   2.249   8.034   9.944 -0.1944 -0.2679 -1.2588
  341MOL0     C45927   2.386   8.038   9.963 -0.0699 -0.2441  0.3089
  341MOL0     C45928   2.454   8.122  10.063 -0.1728  0.5699 -0.4399
  341MOL0     C45929   2.596   8.111  10.082 -0.6107  0.8530 -0.1589
  341MOL0     O45930   2.659   8.024   9.998 -0.2650 -0.1931 -0.1616
  341MOL0     C45931   2.793   8.027  10.007 -0.3552 -0.6530 -0.0239
  341MOL0     C45932   2.871   7.938  10.082  0.0345 -0.1803  0.1125
  341MOL0     C45933   3.012   7.941  10.077 -0.2808 -0.3222  0.1839
  341MOL0     C45934   3.080   8.045  10.005 -0.2533 -0.3077 -0.0026
  341MOL0     O45935   3.215   8.049   9.997 -0.3680  1.0164 -0.3138
  341MOL0     C45936   3.279   8.177  10.018  0.5949 -1.1920 -0.0338
  341MOL0     C45937   3.414   8.168  10.075 -0.1911 -0.3763  0.1595
  341MOL0     C45938   3.511   8.120   9.970  0.7365  0.5941  0.5691
  341MOL0     C45939   3.653   8.135  10.002  1.0186 -0.7789  0.0337
  341MOL0     C45940   3.749   8.073   9.901 -0.1788  0.0047  0.4693
  341MOL0     C45941   3.888   8.094   9.962 -0.2788  0.0078 -0.2723
  341MOL0     C45942   3.981   8.011   9.875 -0.1297 -0.3433  0.7384
  341MOL0     C45943   4.121   8.024   9.935  0.6287  0.1665 -0.1819
  341MOL0    Cl45944   4.117   7.902  10.074 -0.0999  0.1421  0.2136
  341MOL0     C45945   2.994   8.135   9.931  0.3635  0.3650 -0.4563
  341MOL0     C45946   2.854   8.124   9.930 -0.0240  0.5661 -0.3719
  341MOL0     O45947   2.655   8.185  10.161  0.0724  0.0574 -0.0906
  341MOL0     C45948   2.378   8.224  10.117 -0.4186  0.3492  0.0903
  341MOL0     C45949   2.238   8.224  10.095 -0.8318  0.4292  0.0745
  341MOL0     N45950   1.490   8.229   9.868  1.2594 -0.4025 -0.9129
  341MOL0     N45951   1.364   8.251   9.831  0.0372  0.7720  0.3583
  341MOL0     C45952   0.926   7.769   9.176 -0.1946  0.4291  0.2753
  341MOL0     C45953   0.809   7.843   9.166  0.4690 -0.5612  0.4882
  341MOL0     C45954   0.419   8.048   8.976 -0.0680 -0.1385 -0.8672
  341MOL0     C45955   0.420   8.134   9.087  0.5026 -0.1365  0.3767
  341MOL0     C45956   0.323   8.234   9.105 -0.1960  0.0205 -0.1320
  341MOL0     C45957   0.210   8.239   9.024  0.1958 -0.3074  0.6197
  341MOL0     O45958   0.120   8.346   9.024 -0.1875 -0.4189  0.8274
  341MOL0     C45959   0.086   8.413   9.150 -1.0037 -0.0265 -0.2918
  341MOL0     C45960   0.059   8.554   9.111 -0.5783  0.3219  0.5244
  341MOL0     C45961   0.190   8.635   9.077  0.4549  0.4455 -0.1220
  341MOL0     C45962   0.179   8.769   9.007  0.3450  0.3045 -1.3256
  341MOL0     C45963   0.093   8.866   9.074  0.2179  0.1753  0.6032
  341MOL0     C45964   0.019   8.939   9.138  0.5135  0.0427  0.4905
  341MOL0     C45965   0.204   8.158   8.912 -0.8119  0.1645 -0.0217
  341MOL0     C45966   0.304   8.055   8.884  0.4044  0.6170  1.3242
  341MOL0     C45967   0.277   7.965   8.770  0.5437 -0.1702  0.4236
  341MOL0     H45968   0.741   7.799   8.831 -0.6283 -0.3246 -0.5411
  341MOL0     H45969   0.929   7.641   8.865 -0.1515 -0.6038  0.5746
  341MOL0     H45970   1.150   7.614   9.256 -0.0367  1.4245 -0.0882
  341MOL0     H45971   1.252   7.539   9.125  2.0491  0.7267 -0.4468
  341MOL0     H45972   1.176   7.840   9.134  2.8212  2.5348 -0.5930
  341MOL0     H45973   1.296   7.760   9.028  1.9276 -1.9269  0.5437
  341MOL0     H45974   1.435   7.860   9.186 -0.0785 -0.9600 -0.8344
  341MOL0     H45975   1.421   7.694   9.247 -2.1437 -0.8900  0.4194
  341MOL0     H45976   1.252   7.780   9.413  1.3620 -1.9451 -0.1012
  341MOL0     H45977   1.412   7.875   9.413 -1.0877  3.4148  2.2850
  341MOL0     H45978   1.289   8.061   9.261  1.3980 -0.0576 -0.7132
  341MOL0     H45979   1.144   7.982   9.326  1.4679 -0.8205 -0.2664
  341MOL0     H45980   1.369   8.073   9.502  0.8095 -1.4106 -3.7493
  341MOL0     H45981   1.259   8.188   9.443  1.8732  1.1642  2.5170
  341MOL0     H45982   1.192   7.941   9.609  0.6682  0.8057  2.9229
  341MOL0     H45983   1.067   8.049   9.547 -0.7286 -0.8152  0.1049
  341MOL0     H45984   1.155   8.246   9.693 -0.7858  0.8852  3.7273
  341MOL0     H45985   1.124   8.104   9.789  0.7022 -2.3735  0.6790
  341MOL0     H45986   1.419   7.950   9.717  0.4807  0.7194 -2.2794
  341MOL0     H45987   1.662   7.968   9.911 -1.1716  0.3089  0.5898
  341MOL0     H45988   1.657   7.969   9.732 -1.0587  1.1359 -0.9334
  341MOL0     H45989   1.867   8.058   9.812 -0.9227 -2.5618  1.1056
  341MOL0     H45990   1.766   8.207   9.769  0.6445  0.6771  1.3061
  341MOL0     H45991   1.797   8.099  10.057  0.3092  1.1434  1.9002
  341MOL0     H45992   1.722   8.249  10.004 -3.0453 -2.7499  0.1178
  341MOL0     H45993   1.958   8.278  10.102  0.9865  0.1774 -0.6869
  341MOL0     H45994   1.970   8.311   9.928  0.4430  1.1348  0.2167
  341MOL0     H45995   2.193   7.976   9.872 -1.6982 -1.0243  0.4442
  341MOL0     H45996   2.454   7.977   9.905  1.5263  0.2465  1.5904
  341MOL0     H45997   2.828   7.856  10.139 -0.7846 -1.1371 -1.7746
  341MOL0     H45998   3.072   7.869  10.131 -2.1017 -1.6001  0.5950
  341MOL0     H45999   3.277   8.236   9.925  4.5028  0.0716  0.4816
  341MOL0     H46000   3.213   8.232  10.086  1.2893 -0.4003  0.0172
  341MOL0     H46001   3.441   8.264  10.119  0.5221 -1.5917  2.6048
  341MOL0     H46002   3.410   8.115  10.171 -0.5975  1.5918  1.2813
  341MOL0     H46003   3.494   8.012   9.960 -0.8389  0.9006 -0.4835
  341MOL0     H46004   3.478   8.159   9.873 -0.8318 -1.4932  0.1917
  341MOL0     H46005   3.671   8.089  10.099 -0.9640 -0.9885  0.3403
  341MOL0     H46006   3.668   8.243  10.003  0.6409 -0.7172 -0.5613
  341MOL0     H46007   3.746   8.135   9.811  0.3457 -0.0849  0.3870
  341MOL0     H46008   3.721   7.967   9.892  1.9150 -0.4968 -0.8257
  341MOL0     H46009   3.920   8.199   9.961  0.4919 -0.0652  3.2457
  341MOL0     H46010   3.894   8.056  10.064  2.3476 -1.4960 -0.9087
  341MOL0     H46011   3.992   8.055   9.775  4.3057 -0.3685  1.0102
  341MOL0     H46012   3.938   7.911   9.860 -0.8676  0.4017 -3.4611
  341MOL0     H46013   4.199   7.997   9.864  3.3499  0.9638  2.3085
  341MOL0     H46014   4.138   8.127   9.969  1.1317 -0.3795  1.3258
  341MOL0     H46015   3.045   8.211   9.872  2.6564  0.0492  1.0019
  341MOL0     H46016   2.786   8.197   9.887  0.4913  2.0390  1.1675
  341MOL0     H46017   2.415   8.303  10.182 -1.7415  2.2686 -1.3465
  341MOL0     H46018   2.178   8.303  10.140 -0.0144  0.1684  1.7062
  341MOL0     H46019   0.982   7.766   9.268  3.7388  0.1786 -1.9236
  341MOL0     H46020   0.781   7.890   9.260  0.4921 -2.8020  1.6807
  341MOL0     H46021   0.509   8.137   9.149  0.2145 -0.4617  0.8099
  341MOL0     H46022   0.346   8.300   9.188  1.8903 -1.6789  0.7344
  341MOL0     H46023   0.158   8.402   9.232 -1.0296  1.9260  0.0467
  341MOL0     H46024  -0.005   8.367   9.189  0.0256 -2.3696 -0.4495
  341MOL0     H46025   0.009   8.608   9.192  0.6599  1.7009  0.4284
  341MOL0     H46026  -0.013   8.540   9.030 -0.7918  0.2689  0.7236
  341MOL0     H46027   0.258   8.566   9.026 -0.1856 -0.5302  0.3247
  341MOL0     H46028   0.226   8.669   9.175 -2.6098  1.3658  0.7800
  341MOL0     H46029   0.274   8.821   8.996  0.1551  1.3645  1.3598
  341MOL0     H46030   0.125   8.756   8.913  0.9957  1.5171 -1.8794
  341MOL0     H46031  -0.045   9.009   9.188  2.0812  1.2214  0.9051
  341MOL0     H46032   0.155   8.205   8.827 -0.1542  1.4231  0.2675
  341MOL0     H46033   0.277   7.862   8.806 -0.3677  0.1175  1.3022
  341MOL0     H46034   0.174   7.984   8.737  0.6037  1.7452  1.1919
  341MOL0     H46035   0.351   7.972   8.690  1.8334  0.3278  1.6192
  342MOL0     O46036   4.000   6.777   3.095  0.5193 -1.1024  0.3505
  342MOL0     C46037   3.934   6.833   3.182  0.8782 -0.5863 -0.1714
  342MOL0     O46038   3.972   6.861   3.312  0.0748  0.1291 -0.7194
  342MOL0     C46039   4.093   6.814   3.359 -0.0487 -1.0010  0.6558
  342MOL0     C46040   4.214   6.900   3.330 -0.0583  0.2164 -0.4471
  342MOL0     C46041   4.339   6.839   3.373  0.3937  0.0827 -0.1169
  342MOL0     C46042   4.346   6.721   3.444 -0.1399  0.4040 -0.7046
  342MOL0     O46043   4.471   6.667   3.480  0.0024  0.3370 -0.2427
  342MOL0     C46044   4.587   6.746   3.513  0.0145  0.2748 -0.0715
  342MOL0     C46045   4.695   6.659   3.591  0.4401 -0.3297  0.4903
  342MOL0     C46046   4.838   6.727   3.596 -0.4312 -0.3491  0.2808
  342MOL0     C46047   4.935   6.653   3.683 -0.3038 -0.6235  0.2751
  342MOL0     C46048   5.081   6.700   3.683  0.9970  0.2622  0.0135
  342MOL0     C46049   5.163   6.615   3.787  0.9174  0.1106  0.0220
  342MOL0     C46050   5.313   6.651   3.781  0.2475  0.8371 -0.2487
  342MOL0     C46051   5.380   6.568   3.897  0.5188  1.4588 -0.0603
  342MOL0     N46052   5.508   6.615   3.931  0.1808  0.0947  0.2705
  342MOL0     C46053   5.556   6.736   3.976  0.7457 -1.0194 -0.9749
  342MOL0     C46054   5.692   6.739   3.989  0.7779  0.3237  0.6015
  342MOL0     C46055   5.773   6.851   4.020 -0.3356  0.0840 -0.8135
  342MOL0     C46056   5.805   6.858   4.171 -0.9098  0.2989  0.0119
  342MOL0     C46057   5.885   6.727   4.218  0.1501  0.6581  0.0802
  342MOL0     C46058   6.002   6.683   4.126  0.0375 -0.0920  0.5962
  342MOL0     O46059   6.083   6.797   4.105 -0.3278  0.8965 -0.0453
  342MOL0     C46060   6.200   6.789   4.029 -1.0521 -1.0225  0.3736
  342MOL0     C46061   6.268   6.911   4.016  1.0352 -1.1838  0.3183
  342MOL0     C46062   6.389   6.910   3.941  0.3471  0.3490  0.2260
  342MOL0     C46063   6.450   6.791   3.896  0.6698 -0.7295  0.1133
  342MOL0     C46064   6.587   6.789   3.845  0.7438  0.3034  0.1910
  342MOL0     O46065   6.659   6.904   3.855  0.6399  0.7102 -0.2500
  342MOL0     C46066   6.790   6.901   3.812  0.8421  0.7087  0.7735
  342MOL0     C46067   6.829   7.003   3.728 -1.1645 -0.1759  0.2306
  342MOL0     C46068   6.965   7.010   3.698  0.1530 -0.3421 -0.2428
  342MOL0     C46069   7.061   6.910   3.720 -0.0402  0.4855 -0.1339
  342MOL0     O46070   7.196   6.913   3.706  0.4482  0.2998  0.0835
  342MOL0     C46071   7.251   6.972   3.587 -0.7175  0.2269 -0.2609
  342MOL0     C46072   7.405   6.992   3.613  0.2276 -0.4135  0.5147
  342MOL0     C46073   7.454   7.091   3.506 -0.4530  0.5925  0.1331
  342MOL0     C46074   7.601   7.125   3.532 -0.1552 -0.7722 -0.1464
  342MOL0     C46075   7.705   7.016   3.513  0.2718 -0.2462  0.0261
  342MOL0     C46076   7.839   7.065   3.574 -0.2194 -0.1778 -0.3536
  342MOL0     C46077   7.901   7.185   3.503  0.8166  1.2805  0.1753
  342MOL0     C46078   7.940   7.169   3.351 -0.0113  0.0524  0.1466
  342MOL0    Cl46079   8.072   7.046   3.351  0.6024  0.1649 -0.0559
  342MOL0     C46080   7.015   6.813   3.805  0.7093  0.3373  0.3711
  342MOL0     C46081   6.884   6.809   3.850  0.3505 -0.0694 -0.0002
  342MOL0     O46082   6.624   6.681   3.792 -0.3570 -0.2764  0.8827
  342MOL0     C46083   6.376   6.672   3.915 -0.3267 -0.9041  0.9062
  342MOL0     C46084   6.252   6.675   3.973 -0.1188  0.3797  0.4063
  342MOL0     N46085   5.730   6.611   3.954  0.1685  0.4772 -0.8744
  342MOL0     N46086   5.625   6.541   3.925  0.1568 -0.4009  0.4909
  342MOL0     C46087   4.234   6.638   3.466 -0.1848 -0.6629  0.3884
  342MOL0     C46088   4.109   6.687   3.424  0.0213  0.0987  0.0092
  342MOL0     C46089   3.798   6.881   3.147  0.5052  0.1496  0.0018
  342MOL0     C46090   3.791   6.981   3.057  0.5117 -0.4005 -0.9717
  342MOL0     C46091   3.667   7.017   2.993 -0.6495 -0.1785  0.0924
  342MOL0     C46092   3.548   6.943   3.021  0.0045  0.3462 -0.6377
  342MOL0     O46093   3.430   6.970   2.962  0.2474  0.4111  0.0863
  342MOL0     C46094   3.315   6.888   2.977 -0.6074  0.0939  0.3812
  342MOL0     C46095   3.211   6.946   2.880 -1.0087  0.5548 -0.2008
  342MOL0     C46096   3.176   7.097   2.891  0.3352  0.0007  0.7132
  342MOL0     C46097   3.063   7.139   2.795 -0.2781 -0.1144 -0.3584
  342MOL0     C46098   3.034   7.046   2.687  0.4568  0.2670  0.2698
  342MOL0     C46099   3.002   6.957   2.612 -0.0642  0.6655 -0.0136
  342MOL0     C46100   3.569   6.830   3.104  0.5974 -0.8912 -0.2004
  342MOL0     C46101   3.686   6.798   3.166  1.3299  0.3188  0.3722
  342MOL0     C46102   3.696   6.661   3.239 -0.4976 -0.0723 -1.2199
  342MOL0     H46103   4.201   6.995   3.278  1.4511  1.3158  1.0887
  342MOL0     H46104   4.427   6.902   3.364  1.2178 -1.3212 -3.6121
  342MOL0     H46105   4.628   6.785   3.419 -0.2528 -0.4250 -0.4857
  342MOL0     H46106   4.570   6.835   3.574 -0.9698  1.1524 -1.5701
  342MOL0     H46107   4.709   6.558   3.551 -1.0276  0.0893 -1.1823
  342MOL0     H46108   4.655   6.623   3.687 -0.4782  0.5515  0.4532
  342MOL0     H46109   4.831   6.835   3.612  2.3869  0.1491 -1.2020
  342MOL0     H46110   4.879   6.722   3.495 -1.8025  2.4416 -0.5242
  342MOL0     H46111   4.901   6.673   3.785  1.1862  2.7705  0.2542
  342MOL0     H46112   4.943   6.547   3.655 -0.8910 -0.0345 -2.3951
  342MOL0     H46113   5.129   6.682   3.586  1.7388  0.5167  0.3291
  342MOL0     H46114   5.078   6.802   3.723  2.7211 -0.5187  2.3795
  342MOL0     H46115   5.128   6.657   3.882  1.1758  0.5897 -0.0923
  342MOL0     H46116   5.144   6.508   3.769  0.5930 -0.2179  2.0828
  342MOL0     H46117   5.327   6.758   3.795  0.7506  0.9009 -1.1895
  342MOL0     H46118   5.347   6.635   3.679 -1.5812  4.1301 -1.5187
  342MOL0     H46119   5.316   6.560   3.985  0.7164 -2.2827 -0.0948
  342MOL0     H46120   5.396   6.464   3.866  0.2577  1.4711 -0.2379
  342MOL0     H46121   5.497   6.821   4.007  2.3135 -0.0525 -0.5105
  342MOL0     H46122   5.862   6.862   3.958  0.1842  1.0574  0.0750
  342MOL0     H46123   5.713   6.939   3.998 -1.4836 -0.9040 -1.7584
  342MOL0     H46124   5.876   6.937   4.198  0.8717 -1.9952  2.4810
  342MOL0     H46125   5.720   6.874   4.238 -1.7985 -1.6480 -0.6071
  342MOL0     H46126   5.811   6.647   4.223 -0.3036  1.1270  1.1505
  342MOL0     H46127   5.922   6.730   4.321 -0.7080  3.0631  0.3949
  342MOL0     H46128   5.959   6.639   4.036 -1.0380  2.4786 -0.2119
  342MOL0     H46129   6.051   6.602   4.182 -1.2663 -2.8789 -1.9949
  342MOL0     H46130   6.214   7.004   4.035  0.8010 -0.8439 -1.8140
  342MOL0     H46131   6.457   6.992   3.922 -0.2252  1.1905  1.6420
  342MOL0     H46132   6.763   7.084   3.698 -0.8848  0.1575  0.4963
  342MOL0     H46133   7.001   7.094   3.639  0.9619 -1.7132 -1.8041
  342MOL0     H46134   7.229   6.897   3.510  0.6107 -0.8504  0.3711
  342MOL0     H46135   7.202   7.068   3.571 -2.1204 -0.2773  0.7832
  342MOL0     H46136   7.421   7.010   3.720 -2.5982 -0.0046  0.9615
  342MOL0     H46137   7.441   6.893   3.586  0.8309  0.2843 -1.3748
  342MOL0     H46138   7.436   7.049   3.406  0.5262  1.2365 -0.3285
  342MOL0     H46139   7.396   7.183   3.516  0.3105  1.2058 -0.8039
  342MOL0     H46140   7.598   7.167   3.633 -0.0679 -0.7482 -0.1540
  342MOL0     H46141   7.632   7.206   3.465  2.8048 -0.6519  1.2165
  342MOL0     H46142   7.721   6.989   3.409 -0.0797  1.5835 -0.5420
  342MOL0     H46143   7.672   6.927   3.567 -2.2427  0.7274  0.2276
  342MOL0     H46144   7.828   7.095   3.679  1.3441 -1.7474  0.3164
  342MOL0     H46145   7.902   6.976   3.563 -0.0309 -0.1047  0.1275
  342MOL0     H46146   7.999   7.201   3.549  0.1184  1.5353  1.6369
  342MOL0     H46147   7.849   7.280   3.520 -0.4889  0.2247  2.5704
  342MOL0     H46148   7.858   7.140   3.285  2.1738 -3.5566 -1.2977
  342MOL0     H46149   7.967   7.272   3.325 -2.4297  0.8004  0.3361
  342MOL0     H46150   7.087   6.737   3.836  0.5202 -0.4650 -1.0644
  342MOL0     H46151   6.845   6.746   3.929 -2.5598  1.3846 -0.1512
  342MOL0     H46152   6.418   6.574   3.899  2.6492  0.2087  1.2256
  342MOL0     H46153   6.189   6.587   3.974 -0.5419  0.6654 -0.3376
  342MOL0     H46154   4.255   6.541   3.509  3.4521 -0.6164 -0.9415
  342MOL0     H46155   4.020   6.625   3.424  0.1374 -0.6093 -5.8181
  342MOL0     H46156   3.887   7.027   3.034 -0.5423  1.4309 -1.9233
  342MOL0     H46157   3.676   7.091   2.914 -0.5838  0.4349  0.6650
  342MOL0     H46158   3.273   6.908   3.076 -2.6525  1.7423 -0.7167
  342MOL0     H46159   3.328   6.781   2.960 -3.0850 -0.3864  1.0447
  342MOL0     H46160   3.115   6.900   2.901  0.2644 -1.0567  2.6706
  342MOL0     H46161   3.244   6.927   2.778  1.6310 -4.6783  1.2789
  342MOL0     H46162   3.268   7.149   2.863 -1.0912  1.4268 -1.6976
  342MOL0     H46163   3.148   7.123   2.994  3.4225  1.0499  1.4099
  342MOL0     H46164   2.969   7.147   2.850 -0.9479  0.9782 -1.6125
  342MOL0     H46165   3.097   7.233   2.752  2.2370  0.0933  1.8823
  342MOL0     H46166   2.941   6.892   2.552 -2.3133 -1.8027  4.4130
  342MOL0     H46167   3.484   6.763   3.116 -1.7807  0.2143 -6.6605
  342MOL0     H46168   3.627   6.587   3.196 -2.7545 -0.3290  2.3779
  342MOL0     H46169   3.797   6.620   3.246 -0.5729 -0.2517 -1.1673
  342MOL0     H46170   3.663   6.655   3.343 -2.5085 -2.3694 -1.8690
  343MOL0     O46171   6.069   1.444   2.958 -0.0806  0.0186  0.2922
  343MOL0     C46172   6.139   1.452   3.061 -0.2258 -0.8075  0.9548
  343MOL0     O46173   6.256   1.522   3.063  0.1701  0.1799  0.4449
  343MOL0     C46174   6.332   1.531   2.945  0.0101  0.0899 -0.5539
  343MOL0     C46175   6.455   1.470   2.950 -0.3746  0.5162  0.7543
  343MOL0     C46176   6.555   1.486   2.846  0.5354 -0.2924 -0.2350
  343MOL0     C46177   6.522   1.551   2.733  0.5850 -0.1165 -0.6953
  343MOL0     O46178   6.618   1.540   2.630  0.6588 -0.1023  0.2318
  343MOL0     C46179   6.562   1.469   2.509 -0.2505 -0.0618  0.3121
  343MOL0     C46180   6.668   1.449   2.406 -0.5057 -0.3892  0.4918
  343MOL0     C46181   6.795   1.370   2.457  0.3866 -0.0144 -0.4617
  343MOL0     C46182   6.881   1.338   2.329  0.8242  0.9723  0.2327
  343MOL0     C46183   7.009   1.263   2.364 -0.1798  0.5507  0.0999
  343MOL0     C46184   7.127   1.345   2.414 -0.0997  0.8544 -0.4151
  343MOL0     C46185   7.247   1.262   2.447  0.0930 -0.3841 -0.6057
  343MOL0     C46186   7.317   1.210   2.317 -0.5979 -0.1085  0.5413
  343MOL0     N46187   7.440   1.144   2.347  0.0725  0.3315  0.8241
  343MOL0     C46188   7.549   1.147   2.252  0.3487 -0.0192 -0.2616
  343MOL0     C46189   7.629   1.039   2.294  0.1361  0.7604  0.0391
  343MOL0     C46190   7.757   0.983   2.237 -0.1553 -0.1535 -0.5969
  343MOL0     C46191   7.885   1.067   2.281  0.5448  0.9069  0.1395
  343MOL0     C46192   8.010   1.008   2.222  0.3455 -0.5474 -1.3456
  343MOL0     C46193   8.132   1.086   2.251 -0.5531 -0.1197 -0.4135
  343MOL0     O46194   8.132   1.205   2.177  0.1311 -0.0452  0.3428
  343MOL0     C46195   8.246   1.232   2.113 -0.3278 -0.0589  0.5052
  343MOL0     C46196   8.373   1.194   2.150 -0.2740  0.5402  0.2486
  343MOL0     C46197   8.486   1.211   2.072 -0.4251  0.4921  0.3740
  343MOL0     C46198   8.480   1.277   1.950 -0.3468 -0.3195 -1.1672
  343MOL0     C46199   8.599   1.280   1.866 -0.2085 -0.9503 -0.3400
  343MOL0     O46200   8.719   1.234   1.918 -0.0485 -0.4020 -0.0809
  343MOL0     C46201   8.838   1.278   1.867 -0.1353  0.1668 -0.1350
  343MOL0     C46202   8.947   1.262   1.954  0.1220 -0.1347  0.5165
  343MOL0     C46203   9.080   1.289   1.908  0.4968 -0.5428  0.0989
  343MOL0     C46204   9.104   1.324   1.777 -0.6401 -0.1412 -0.1154
  343MOL0     O46205   9.228   1.361   1.728  0.1486 -0.1437 -0.4795
  343MOL0     C46206   9.344   1.318   1.797  1.1630  0.0008  0.1366
  343MOL0     C46207   9.459   1.349   1.701  0.2443  0.3023 -0.4552
  343MOL0     C46208   9.608   1.320   1.736  0.2908  0.6227 -0.1091
  343MOL0     C46209   9.706   1.370   1.639  0.6196 -0.3949  0.2025
  343MOL0     C46210   9.851   1.349   1.664 -0.2453 -0.4908  0.1227
  343MOL0     C46211   9.881   1.208   1.710 -0.0726 -0.0076  0.6212
  343MOL0     C46212  10.038   1.178   1.685  0.0569 -0.2144 -0.3842
  343MOL0     C46213  10.093   1.079   1.791  0.4258 -0.0300 -0.8858
  343MOL0    Cl46214  10.245   1.015   1.738 -0.1872  0.5515  0.0426
  343MOL0     C46215   9.000   1.346   1.692 -0.4390  0.9689  0.1819
  343MOL0     C46216   8.867   1.326   1.740  0.3341 -0.1447  0.0981
  343MOL0     O46217   8.582   1.329   1.752  0.4333  0.2569 -0.7146
  343MOL0     C46218   8.349   1.307   1.907  0.2297 -0.1586  0.5435
  343MOL0     C46219   8.235   1.292   1.988 -0.3389 -0.5269  1.0717
  343MOL0     N46220   7.571   0.981   2.409  0.1361  0.7375  0.3391
  343MOL0     N46221   7.461   1.041   2.431  0.6474 -1.0355 -0.4151
  343MOL0     C46222   6.389   1.605   2.720  0.7849  0.8672 -0.5885
  343MOL0     C46223   6.292   1.589   2.826 -0.6982 -0.0644  0.2086
  343MOL0     C46224   6.097   1.413   3.198  0.0808 -0.0094 -0.7538
  343MOL0     C46225   6.153   1.481   3.309  0.5304  0.7872  0.3435
  343MOL0     C46226   6.122   1.455   3.445 -0.0874  0.0892  0.3318
  343MOL0     C46227   6.033   1.347   3.469  0.2047 -0.6026  0.0200
  343MOL0     O46228   5.984   1.305   3.590  0.3997 -0.7983 -0.0661
  343MOL0     C46229   5.982   1.413   3.689 -0.3369 -0.1927  0.2493
  343MOL0     C46230   5.897   1.373   3.802 -0.0048  0.1063 -0.1645
  343MOL0     C46231   5.744   1.359   3.771 -0.1942  0.5332 -0.1963
  343MOL0     C46232   5.660   1.394   3.891 -0.3257 -0.4060 -0.1892
  343MOL0     C46233   5.679   1.311   4.012 -0.8060  0.5238  0.2376
  343MOL0     C46234   5.704   1.257   4.120 -0.3452  0.3309  0.0469
  343MOL0     C46235   5.970   1.283   3.355  0.4816 -0.2703  0.4380
  343MOL0     C46236   5.998   1.315   3.225  0.7052  0.8627 -0.4733
  343MOL0     C46237   5.916   1.238   3.118 -1.1640  0.6248  0.1846
  343MOL0     H46238   6.488   1.429   3.045 -2.1931 -0.5191  0.9803
  343MOL0     H46239   6.649   1.433   2.855 -0.0721 -1.8690 -2.2836
  343MOL0     H46240   6.519   1.373   2.538 -0.3885 -0.2301 -0.4374
  343MOL0     H46241   6.485   1.530   2.461  0.8575  0.8229 -0.3928
  343MOL0     H46242   6.706   1.544   2.367 -0.7461  0.1730  1.5790
  343MOL0     H46243   6.625   1.390   2.325 -2.7745  1.2227  0.4389
  343MOL0     H46244   6.764   1.281   2.512 -2.0400  1.3824  0.5909
  343MOL0     H46245   6.848   1.438   2.524  1.0129 -1.5221  0.6077
  343MOL0     H46246   6.829   1.278   2.254  0.0616 -2.7429  3.4584
  343MOL0     H46247   6.910   1.433   2.282  0.6620 -0.4154 -2.9429
  343MOL0     H46248   6.972   1.194   2.440 -2.5903  0.1948 -1.2918
  343MOL0     H46249   7.049   1.197   2.285 -0.1790 -1.7360  1.9077
  343MOL0     H46250   7.157   1.411   2.331  0.9261  1.1047  0.1344
  343MOL0     H46251   7.095   1.396   2.505  1.4581 -0.3742  0.8779
  343MOL0     H46252   7.225   1.175   2.510 -0.1734 -2.3322 -3.2131
  343MOL0     H46253   7.321   1.325   2.496 -0.4520  0.6739 -1.1159
  343MOL0     H46254   7.267   1.124   2.272  1.0588 -1.2985  0.8697
  343MOL0     H46255   7.334   1.287   2.242 -0.9763 -1.7395 -1.3089
  343MOL0     H46256   7.572   1.202   2.161  0.2733 -1.3750 -1.1372
  343MOL0     H46257   7.761   0.882   2.279  2.7328  0.4662  0.8961
  343MOL0     H46258   7.748   0.976   2.128  0.2871 -0.0387 -0.6466
  343MOL0     H46259   7.872   1.167   2.239 -1.8457  0.2386 -0.9096
  343MOL0     H46260   7.886   1.068   2.390 -0.7320 -4.1258  0.4343
  343MOL0     H46261   7.994   1.008   2.114  0.5776 -0.3182 -1.3808
  343MOL0     H46262   8.012   0.904   2.255  0.0167  0.0239  0.6194
  343MOL0     H46263   8.209   1.014   2.222 -1.8248 -2.2422  1.1753
  343MOL0     H46264   8.142   1.100   2.359  1.2905 -1.6527 -0.3410
  343MOL0     H46265   8.388   1.125   2.233  1.2631 -0.6167 -0.9255
  343MOL0     H46266   8.577   1.168   2.112 -0.7029  0.5401  1.0823
  343MOL0     H46267   8.932   1.220   2.053 -1.9885  0.3017  0.4245
  343MOL0     H46268   9.153   1.298   1.988  0.2594 -0.0658  0.2716
  343MOL0     H46269   9.361   1.367   1.894 -2.8336 -0.8480  1.4522
  343MOL0     H46270   9.336   1.211   1.819 -0.4750  0.3602  1.5478
  343MOL0     H46271   9.448   1.302   1.603  1.0240 -1.1095  0.0936
  343MOL0     H46272   9.461   1.456   1.684  1.3945  0.2345 -0.8311
  343MOL0     H46273   9.638   1.358   1.834  0.1912 -1.3474  0.7302
  343MOL0     H46274   9.618   1.211   1.743  1.9580  0.8363  2.1036
  343MOL0     H46275   9.695   1.477   1.616  3.3627 -0.0248  0.1715
  343MOL0     H46276   9.679   1.317   1.547 -0.5114  0.6358 -0.0932
  343MOL0     H46277   9.868   1.419   1.747  0.6242 -2.1170  1.3636
  343MOL0     H46278   9.906   1.378   1.574 -0.8894  0.1881 -0.0659
  343MOL0     H46279   9.852   1.200   1.815  3.2382  1.5948  1.8052
  343MOL0     H46280   9.821   1.150   1.639  0.4982  0.3061 -0.1375
  343MOL0     H46281  10.093   1.272   1.697 -2.1810  1.3304 -1.5363
  343MOL0     H46282  10.049   1.137   1.585  0.2863 -1.9111  0.3163
  343MOL0     H46283  10.103   1.132   1.886  2.1521  1.2176 -1.6964
  343MOL0     H46284  10.026   0.995   1.809  2.0664 -0.8227  2.2640
  343MOL0     H46285   9.025   1.389   1.596  1.4219  0.3511  0.3564
  343MOL0     H46286   8.786   1.324   1.668 -1.7143 -0.1577  2.2885
  343MOL0     H46287   8.338   1.348   1.807  2.2930  1.6626  0.9694
  343MOL0     H46288   8.148   1.323   1.930  0.5922  2.3037  1.0090
  343MOL0     H46289   6.374   1.651   2.623  1.6315 -0.8982 -1.5938
  343MOL0     H46290   6.197   1.642   2.820  0.0094  1.3772  1.2966
  343MOL0     H46291   6.222   1.562   3.289 -1.0412  1.6687 -1.8805
  343MOL0     H46292   6.165   1.516   3.523  0.9393 -0.1827 -0.0039
  343MOL0     H46293   5.944   1.505   3.643  0.9525 -0.8942 -2.4487
  343MOL0     H46294   6.086   1.433   3.713 -0.4854 -0.6423  1.3401
  343MOL0     H46295   5.904   1.450   3.878  0.3919 -0.8878  0.8360
  343MOL0     H46296   5.926   1.275   3.841 -2.4968 -1.0283 -0.9797
  343MOL0     H46297   5.724   1.258   3.734 -2.7207  0.5610  0.9007
  343MOL0     H46298   5.725   1.422   3.684  2.5234  0.5447 -0.8742
  343MOL0     H46299   5.696   1.496   3.909 -0.3837 -0.5148  0.5727
  343MOL0     H46300   5.555   1.397   3.863 -0.7827  4.5128  1.1475
  343MOL0     H46301   5.730   1.227   4.219 -2.4374  0.3978  0.6535
  343MOL0     H46302   5.905   1.200   3.380 -0.0890 -0.7261 -2.2429
  343MOL0     H46303   5.860   1.298   3.046  0.8299  0.4976 -1.5520
  343MOL0     H46304   5.990   1.190   3.054  0.8331  2.8262  0.7048
  343MOL0     H46305   5.855   1.159   3.162  1.7902 -2.3163 -0.6085
  344MOL0     O46306  10.866   5.653   7.515 -0.6505 -0.4633 -0.4162
  344MOL0     C46307  10.768   5.728   7.492 -0.4665  0.5260  0.1185
  344MOL0     O46308  10.758   5.812   7.384  0.0734 -0.5307 -0.4763
  344MOL0     C46309  10.865   5.835   7.292 -0.4274 -0.1286 -0.4173
  344MOL0     C46310  10.949   5.731   7.257 -0.0827 -0.0837  0.7086
  344MOL0     C46311  11.050   5.762   7.154 -0.0964 -0.5425  0.5949
  344MOL0     C46312  11.073   5.888   7.106 -1.0007  0.0212 -0.2119
  344MOL0     O46313  11.187   5.916   7.038 -0.1134  0.5417 -0.4790
  344MOL0     C46314  11.294   5.824   7.010  0.4720 -0.2522  0.3285
  344MOL0     C46315  11.403   5.894   6.929 -0.1814  0.2076  0.2463
  344MOL0     C46316  11.484   6.006   7.000  0.2782 -0.8043 -0.6900
  344MOL0     C46317  11.628   6.022   6.948  0.0775  0.2372 -0.3594
  344MOL0     C46318  11.747   5.977   7.032  0.2503  0.0049  0.1357
  344MOL0     C46319  11.885   5.969   6.967  0.0440 -0.1689 -0.1394
  344MOL0     C46320  11.956   6.108   6.988 -0.2305 -0.6608 -0.2780
  344MOL0     C46321  12.033   6.135   7.122  0.6483  0.5554 -0.2395
  344MOL0     N46322  12.150   6.208   7.107 -0.6228 -0.1195  0.0272
  344MOL0     C46323  12.165   6.333   7.039 -0.1150  0.9971 -0.5188
  344MOL0     C46324  12.290   6.364   7.077 -0.2046  0.5953 -0.2871
  344MOL0     C46325  12.345   6.503   7.058 -0.3410 -0.0320 -0.6770
  344MOL0     C46326  12.502   6.501   7.010  1.4049 -0.9444 -1.1323
  344MOL0     C46327  12.550   6.640   6.984 -0.2349 -0.6598 -0.2302
  344MOL0     C46328  12.693   6.648   6.936  0.3642  0.0876 -0.2067
  344MOL0     O46329  12.775   6.631   7.056  0.7579  0.8246  0.1418
  344MOL0     C46330  12.910   6.661   7.047  0.8550 -0.3008  0.8030
  344MOL0     C46331  12.984   6.644   7.158  0.3127 -0.7061  0.0196
  344MOL0     C46332  13.128   6.654   7.159  0.3819 -0.4827  0.1497
  344MOL0     C46333  13.204   6.664   7.040  0.0196 -0.2995 -0.2971
  344MOL0     C46334  13.350   6.659   7.040  0.5215 -0.2990 -0.5373
  344MOL0     O46335  13.408   6.652   6.926 -0.1716 -0.1976 -0.6091
  344MOL0     C46336  13.543   6.614   6.908 -0.8157 -0.5358 -0.4196
  344MOL0     C46337  13.589   6.489   6.956  0.3597 -1.1756 -0.5225
  344MOL0     C46338  13.720   6.452   6.928 -0.6139  0.5877 -0.4520
  344MOL0     C46339  13.816   6.537   6.873  0.1512 -0.4543  0.3791
  344MOL0     O46340  13.952   6.493   6.875  0.1505  0.1149 -0.2696
  344MOL0     C46341  14.051   6.580   6.822  0.1493 -1.4466 -0.0505
  344MOL0     C46342  14.182   6.521   6.803 -0.7112  0.2345  0.3751
  344MOL0     C46343  14.257   6.608   6.709 -0.1489 -1.3104 -0.1044
  344MOL0     C46344  14.409   6.582   6.708 -0.0145 -0.9190  0.3895
  344MOL0     C46345  14.427   6.441   6.640 -0.5676 -0.7781 -0.3580
  344MOL0     C46346  14.567   6.401   6.678  1.0548  0.2511  0.0310
  344MOL0     C46347  14.602   6.261   6.631 -0.3114  0.5746  0.1309
  344MOL0     C46348  14.751   6.234   6.643  0.2350  0.1123  0.6137
  344MOL0    Cl46349  14.780   6.082   6.553  0.0053  0.1350 -0.1687
  344MOL0     C46350  13.770   6.661   6.833 -0.8199 -0.4084 -1.1250
  344MOL0     C46351  13.635   6.699   6.844  0.1854  0.0003  0.2506
  344MOL0     O46352  13.410   6.647   7.152  0.3406  0.0992 -0.3434
  344MOL0     C46353  13.127   6.675   6.926  0.0429  0.4155  0.3576
  344MOL0     C46354  12.985   6.670   6.923 -0.7594 -0.2266 -0.6865
  344MOL0     N46355  12.349   6.268   7.151  0.3237  1.2391  0.1375
  344MOL0     N46356  12.267   6.176   7.172  0.3175 -0.2037 -0.0859
  344MOL0     C46357  10.983   5.988   7.146  1.0039 -1.0528  0.3405
  344MOL0     C46358  10.878   5.962   7.240 -0.7796 -0.2541  0.2847
  344MOL0     C46359  10.651   5.722   7.574  0.0372  0.5404  0.8700
  344MOL0     C46360  10.553   5.821   7.540  1.3715  0.2058  0.0962
  344MOL0     C46361  10.439   5.840   7.622 -1.3987  0.0462  0.0434
  344MOL0     C46362  10.418   5.753   7.729  0.8591 -0.0904 -0.3959
  344MOL0     O46363  10.304   5.754   7.803 -0.2681  0.1765 -0.1631
  344MOL0     C46364  10.204   5.854   7.785  0.4105  0.2968 -0.0609
  344MOL0     C46365  10.093   5.841   7.896  0.1281  0.7314  0.0253
  344MOL0     C46366  10.146   5.897   8.029 -0.1026 -0.5929  1.3114
  344MOL0     C46367  10.062   5.867   8.152 -0.1243  0.3949  0.4232
  344MOL0     C46368  10.091   5.956   8.260  0.3204  0.2884 -0.1925
  344MOL0     C46369  10.113   6.025   8.356  0.5589 -0.6948  0.2076
  344MOL0     C46370  10.512   5.654   7.760 -1.2599 -0.0213 -0.1276
  344MOL0     C46371  10.628   5.637   7.682  0.2041  0.7688 -0.6951
  344MOL0     C46372  10.718   5.522   7.725  0.1902 -0.3388 -0.0680
  344MOL0     H46373  10.942   5.628   7.287 -1.5785 -0.0794  0.4421
  344MOL0     H46374  11.124   5.685   7.135  0.1727  0.2426 -1.8893
  344MOL0     H46375  11.340   5.798   7.106  2.5890 -0.9484 -0.7992
  344MOL0     H46376  11.259   5.733   6.961 -1.5096 -0.8928  2.7103
  344MOL0     H46377  11.364   5.942   6.839  0.5678 -1.3507 -0.9532
  344MOL0     H46378  11.465   5.812   6.893 -1.0198 -0.3172 -0.0434
  344MOL0     H46379  11.498   5.991   7.107 -1.3551  1.2185 -0.1227
  344MOL0     H46380  11.435   6.103   6.989  0.3881 -1.0000 -4.4802
  344MOL0     H46381  11.644   5.968   6.854  2.1996  0.2584 -0.0532
  344MOL0     H46382  11.638   6.125   6.914 -2.1177  0.6546  0.0912
  344MOL0     H46383  11.753   6.036   7.125 -2.6776 -3.1491  2.5622
  344MOL0     H46384  11.723   5.876   7.065 -1.1186  0.6334  1.1593
  344MOL0     H46385  11.941   5.895   7.025  0.2726 -0.7897 -1.1193
  344MOL0     H46386  11.887   5.932   6.864  2.7514  0.2590 -0.3180
  344MOL0     H46387  11.893   6.192   6.958  1.5764  0.1779 -1.9090
  344MOL0     H46388  12.033   6.121   6.912  0.0236  0.2708  0.1160
  344MOL0     H46389  11.968   6.188   7.192  1.1617  0.9891 -0.0827
  344MOL0     H46390  12.048   6.033   7.158 -0.8294 -1.0863 -3.7836
  344MOL0     H46391  12.106   6.398   6.976  0.0159  1.4969 -0.1310
  344MOL0     H46392  12.284   6.553   6.981 -2.4958 -0.5254  0.6189
  344MOL0     H46393  12.350   6.559   7.151  1.3364 -2.4397  0.7993
  344MOL0     H46394  12.568   6.464   7.088  0.8093  0.9131  0.3360
  344MOL0     H46395  12.508   6.431   6.926 -2.9488 -3.0453 -0.0254
  344MOL0     H46396  12.531   6.696   7.076 -0.2538 -1.7446  0.4426
  344MOL0     H46397  12.495   6.692   6.904  2.6488  1.4774 -0.9730
  344MOL0     H46398  12.702   6.751   6.900  2.2891  0.4287  1.1472
  344MOL0     H46399  12.705   6.568   6.863 -0.4550 -0.7232  0.5286
  344MOL0     H46400  12.938   6.625   7.255  0.4027 -2.1735 -0.1959
  344MOL0     H46401  13.181   6.640   7.253 -0.0266 -0.4989  0.3794
  344MOL0     H46402  13.531   6.419   7.017  0.3512 -0.6273  0.1158
  344MOL0     H46403  13.762   6.363   6.975  1.1763  2.7732  2.4423
  344MOL0     H46404  14.006   6.611   6.728  0.0219  2.0206  1.0101
  344MOL0     H46405  14.054   6.665   6.892  0.1334 -1.3310 -0.1891
  344MOL0     H46406  14.242   6.517   6.895  3.0036 -2.4598 -1.8931
  344MOL0     H46407  14.179   6.425   6.750  5.2815  0.8765 -1.8735
  344MOL0     H46408  14.225   6.610   6.604  3.8303  1.3939 -1.4998
  344MOL0     H46409  14.237   6.712   6.739 -1.1964 -1.0913 -1.4557
  344MOL0     H46410  14.451   6.599   6.808  1.6133 -0.8746 -0.2893
  344MOL0     H46411  14.458   6.656   6.644  0.0033 -2.5266 -1.5326
  344MOL0     H46412  14.408   6.448   6.532 -1.6030 -0.4747 -0.1654
  344MOL0     H46413  14.358   6.368   6.683 -0.0725 -0.8765  0.2787
  344MOL0     H46414  14.644   6.467   6.639  1.1787 -1.7333 -3.4261
  344MOL0     H46415  14.562   6.400   6.788 -3.4228 -0.1369  0.0362
  344MOL0     H46416  14.570   6.260   6.526  1.6544 -0.1363 -0.5230
  344MOL0     H46417  14.547   6.189   6.693 -0.5162  2.5255  2.3412
  344MOL0     H46418  14.794   6.312   6.580 -1.1357  1.2893  1.0961
  344MOL0     H46419  14.786   6.244   6.746 -0.1523 -1.2648  0.8991
  344MOL0     H46420  13.840   6.735   6.796 -0.9105  0.6426  0.6877
  344MOL0     H46421  13.599   6.795   6.810 -1.2788  0.2453  2.2969
  344MOL0     H46422  13.186   6.697   6.838  2.8766  0.8637  2.2409
  344MOL0     H46423  12.935   6.688   6.828 -3.2907 -0.1008  0.5825
  344MOL0     H46424  10.994   6.094   7.124  0.4391 -1.2116 -0.7773
  344MOL0     H46425  10.813   6.049   7.247  0.9523  1.6246 -3.7646
  344MOL0     H46426  10.544   5.870   7.443  0.4584 -1.8430 -0.9199
  344MOL0     H46427  10.362   5.913   7.600 -1.6117  1.1457  3.7430
  344MOL0     H46428  10.150   5.844   7.690  3.0874 -1.7537 -1.5123
  344MOL0     H46429  10.245   5.955   7.786 -2.8533  1.8473 -2.9419
  344MOL0     H46430  10.076   5.735   7.918  2.7160  0.6980  2.3823
  344MOL0     H46431  10.001   5.891   7.861  0.2856  0.1413 -1.3074
  344MOL0     H46432  10.152   6.006   8.022  1.3622 -0.3392  4.5776
  344MOL0     H46433  10.251   5.869   8.042  0.4031  0.2527 -0.6460
  344MOL0     H46434   9.957   5.874   8.124 -0.1396 -1.1916  0.0025
  344MOL0     H46435  10.088   5.765   8.184  0.8886  0.0027 -1.5234
  344MOL0     H46436  10.142   6.082   8.441 -2.1780 -0.7168  1.2589
  344MOL0     H46437  10.491   5.591   7.846  1.4515 -0.3796  0.3405
  344MOL0     H46438  10.750   5.463   7.638 -2.0091 -1.3753 -0.2419
  344MOL0     H46439  10.800   5.570   7.779  1.1550 -0.9464 -0.9420
  344MOL0     H46440  10.669   5.453   7.794  0.7051 -1.9592 -1.2482
  345MOL0     O46441   1.998   0.710  11.114  0.2327 -0.3439 -0.6302
  345MOL0     C46442   1.933   0.696  11.013  0.7627  0.5232 -0.6960
  345MOL0     O46443   1.914   0.795  10.918  0.1393  0.0961  0.3849
  345MOL0     C46444   1.996   0.902  10.924 -0.0299 -0.0789 -1.0034
  345MOL0     C46445   2.133   0.898  10.875  0.0783  0.9355  0.0684
  345MOL0     C46446   2.218   1.011  10.893  0.0848  0.6207 -0.1178
  345MOL0     C46447   2.171   1.122  10.964  0.2869  0.1935  0.5040
  345MOL0     O46448   2.260   1.224  10.990 -0.3783 -0.8026  0.1263
  345MOL0     C46449   2.229   1.351  10.934  0.4090 -0.9062 -0.5795
  345MOL0     C46450   2.355   1.430  10.928 -0.3875 -0.3231  0.5435
  345MOL0     C46451   2.341   1.566  10.872  0.4049  0.6520 -0.1371
  345MOL0     C46452   2.478   1.645  10.871  0.5261 -0.6689  0.0970
  345MOL0     C46453   2.565   1.604  10.739 -0.1402 -0.1287  0.3704
  345MOL0     C46454   2.681   1.702  10.722 -1.0203  0.0650  0.6365
  345MOL0     C46455   2.633   1.843  10.660  0.2711  0.0675 -0.4397
  345MOL0     C46456   2.766   1.929  10.639  0.3105  0.5124 -0.0988
  345MOL0     N46457   2.814   1.911  10.500  0.0087  0.4322  0.3615
  345MOL0     C46458   2.894   1.810  10.455 -0.2369  0.2759 -0.2024
  345MOL0     C46459   2.888   1.827  10.328  1.8863 -0.6295 -0.0202
  345MOL0     C46460   2.949   1.735  10.222  0.6015  0.2005 -0.9757
  345MOL0     C46461   3.098   1.755  10.172  0.1355  0.1145  0.4390
  345MOL0     C46462   3.174   1.754  10.307 -0.7386 -0.2073  0.1986
  345MOL0     C46463   3.322   1.768  10.276  0.9529  0.1124  0.1697
  345MOL0     O46464   3.335   1.880  10.186  0.1196 -0.0428 -0.1826
  345MOL0     C46465   3.458   1.950  10.177  0.0001 -0.3932  0.2824
  345MOL0     C46466   3.564   1.927  10.266  0.0758  0.5880  0.3437
  345MOL0     C46467   3.677   2.001  10.248 -0.0829 -0.1377  0.2668
  345MOL0     C46468   3.697   2.090  10.137  0.8550  0.0280 -0.0910
  345MOL0     C46469   3.829   2.159  10.115 -0.6762 -0.3856  0.1474
  345MOL0     O46470   3.841   2.253  10.019  0.0292 -0.1626  0.3245
  345MOL0     C46471   3.946   2.344  10.019  0.7533  1.3159 -0.5042
  345MOL0     C46472   4.070   2.288  10.002  0.4746  0.2461  0.2589
  345MOL0     C46473   4.180   2.374   9.990  0.0703 -0.3771 -0.1131
  345MOL0     C46474   4.170   2.514   9.997  0.0136  0.1292  0.0052
  345MOL0     O46475   4.282   2.602   9.978 -0.4601  0.3601  0.0035
  345MOL0     C46476   4.406   2.556   9.920  0.8381  0.6521 -0.0022
  345MOL0     C46477   4.499   2.669   9.908  0.4563 -0.9319 -0.2112
  345MOL0     C46478   4.565   2.692  10.033 -0.3084 -0.4479 -0.1880
  345MOL0     C46479   4.688   2.778   9.993  0.2524 -0.3133 -0.3378
  345MOL0     C46480   4.752   2.831  10.124 -0.2211  0.0872 -0.1788
  345MOL0     C46481   4.889   2.897  10.103  0.0639  1.2266  0.3202
  345MOL0     C46482   4.997   2.790  10.046  1.1812 -0.1220  0.1106
  345MOL0     C46483   5.142   2.827  10.081 -0.5868  0.3933  0.1436
  345MOL0    Cl46484   5.159   2.852  10.264  0.4935  0.1218  0.1230
  345MOL0     C46485   4.038   2.567  10.015 -0.0988  0.0788 -0.7104
  345MOL0     C46486   3.925   2.477  10.032 -0.3109  0.2588  0.2892
  345MOL0     O46487   3.928   2.128  10.191  0.8617  0.3602  0.1834
  345MOL0     C46488   3.582   2.127  10.062 -1.0160  1.1324  0.0289
  345MOL0     C46489   3.469   2.055  10.079 -0.1424  0.8930 -1.0559
  345MOL0     N46490   2.798   1.924  10.291 -0.3388 -0.0215  0.7824
  345MOL0     N46491   2.756   1.985  10.398 -0.4817  0.0049 -0.2249
  345MOL0     C46492   2.031   1.127  10.997 -0.8373 -0.3949  0.0643
  345MOL0     C46493   1.948   1.019  10.985 -0.1658 -0.2564  0.1377
  345MOL0     C46494   1.827   0.594  11.014  0.1300 -0.3461 -0.6064
  345MOL0     C46495   1.707   0.617  10.939  0.6703 -0.0848  0.5984
  345MOL0     C46496   1.607   0.517  10.919 -0.4824 -0.5479 -1.4936
  345MOL0     C46497   1.622   0.398  10.988  0.9404 -0.7997 -0.2622
  345MOL0     O46498   1.539   0.285  10.976 -0.7423 -0.5428  0.7305
  345MOL0     C46499   1.401   0.300  10.922 -0.4663  0.4242 -0.6195
  345MOL0     C46500   1.314   0.371  11.013  0.1249 -0.3520 -0.5997
  345MOL0     C46501   1.304   0.328  11.160 -0.7078  0.1526  0.5827
  345MOL0     C46502   1.219   0.429  11.233 -0.2920 -0.4925  0.2642
  345MOL0     C46503   1.210   0.391  11.373  0.7649 -0.2143  0.6697
  345MOL0     C46504   1.223   0.369  11.488  1.0159 -0.0797  0.5787
  345MOL0     C46505   1.731   0.383  11.068 -0.4497  0.0643  0.3295
  345MOL0     C46506   1.838   0.473  11.081  0.3338 -0.8921 -0.2227
  345MOL0     C46507   1.963   0.432  11.158  0.9455 -0.5111 -0.0703
  345MOL0     H46508   2.175   0.815  10.819  0.0226  1.5602 -0.9274
  345MOL0     H46509   2.323   1.021  10.868  0.0951  3.2144  0.7266
  345MOL0     H46510   2.189   1.336  10.833 -0.7612  0.1622 -0.3099
  345MOL0     H46511   2.159   1.410  10.995  2.6058 -0.1823  1.4038
  345MOL0     H46512   2.429   1.372  10.872  0.2840  1.8977 -0.9910
  345MOL0     H46513   2.401   1.444  11.026  4.8572  0.7718 -1.7385
  345MOL0     H46514   2.264   1.626  10.920 -0.7109 -1.9041  1.4742
  345MOL0     H46515   2.333   1.551  10.764 -1.4616  2.2567 -0.2768
  345MOL0     H46516   2.450   1.749  10.854 -1.7260 -1.2830 -0.2763
  345MOL0     H46517   2.541   1.635  10.960  0.2870  0.1969  0.3724
  345MOL0     H46518   2.604   1.502  10.747  1.2773  0.3245 -0.4015
  345MOL0     H46519   2.516   1.603  10.641  2.3687  1.0497 -1.0232
  345MOL0     H46520   2.728   1.723  10.819  0.5934 -0.2537 -0.0450
  345MOL0     H46521   2.751   1.639  10.667 -2.7059 -3.3246  2.0474
  345MOL0     H46522   2.582   1.906  10.732  4.0363  2.6255  0.2961
  345MOL0     H46523   2.574   1.823  10.570  0.7626 -0.0388 -0.7475
  345MOL0     H46524   2.737   2.034  10.649 -1.7089  0.0427 -0.5082
  345MOL0     H46525   2.842   1.900  10.713 -1.0552 -1.8255  0.5018
  345MOL0     H46526   2.957   1.740  10.509 -1.7636 -1.5687 -0.7028
  345MOL0     H46527   2.925   1.637  10.264  1.9492  0.9432  1.7122
  345MOL0     H46528   2.887   1.727  10.132 -1.1909 -4.0004  0.3748
  345MOL0     H46529   3.122   1.674  10.102 -1.8507 -0.3703  0.2385
  345MOL0     H46530   3.102   1.850  10.120  0.7242  0.6406  1.4099
  345MOL0     H46531   3.151   1.662  10.362 -1.3031  1.2379  2.4935
  345MOL0     H46532   3.150   1.839  10.371  2.6878  1.7163 -0.8427
  345MOL0     H46533   3.373   1.677  10.240  3.7880  1.5634  0.2800
  345MOL0     H46534   3.381   1.776  10.368  1.5908 -0.5855 -0.1621
  345MOL0     H46535   3.552   1.865  10.354 -3.4328 -0.1702 -0.5029
  345MOL0     H46536   3.754   1.979  10.321 -1.3911 -0.4155  1.6309
  345MOL0     H46537   4.090   2.181  10.000  2.0518  0.5202  0.1470
  345MOL0     H46538   4.279   2.331   9.976 -0.5317 -1.9623  0.2738
  345MOL0     H46539   4.456   2.479   9.979  0.9639  0.4217 -0.4082
  345MOL0     H46540   4.388   2.522   9.818 -1.0176 -0.2667  0.6015
  345MOL0     H46541   4.575   2.641   9.835  2.1177 -0.0724  1.1088
  345MOL0     H46542   4.441   2.755   9.875  2.5604  0.2185 -1.1062
  345MOL0     H46543   4.503   2.745  10.106 -1.6964 -1.1150 -0.8525
  345MOL0     H46544   4.601   2.604  10.086 -0.2464  0.4606  1.3491
  345MOL0     H46545   4.657   2.870   9.941  0.1303  0.5630  1.2303
  345MOL0     H46546   4.751   2.714   9.931 -0.1258  0.0206 -1.0831
  345MOL0     H46547   4.770   2.743  10.187  2.8990  0.4957 -0.3154
  345MOL0     H46548   4.682   2.899  10.173  3.6068  3.6267  0.9448
  345MOL0     H46549   4.889   2.990  10.046  0.6520  0.4957 -0.9160
  345MOL0     H46550   4.913   2.927  10.206 -1.3921  1.8046  0.5081
  345MOL0     H46551   4.976   2.772   9.940 -1.3435  1.2439  0.2946
  345MOL0     H46552   4.974   2.693  10.089 -1.9034  0.5760  0.2215
  345MOL0     H46553   5.193   2.732  10.063 -0.4860  0.6732 -1.0708
  345MOL0     H46554   5.182   2.903  10.014  0.5166  1.7786  2.2342
  345MOL0     H46555   4.015   2.671  10.034 -3.2477 -0.1096 -2.7692
  345MOL0     H46556   3.823   2.515  10.037  0.0848  2.5155 -3.9740
  345MOL0     H46557   3.572   2.201   9.983 -0.4663 -0.9180 -2.0598
  345MOL0     H46558   3.387   2.071  10.010 -0.0728 -0.5103 -1.4988
  345MOL0     H46559   1.995   1.217  11.045  0.8136 -0.5923  1.7940
  345MOL0     H46560   1.843   1.041  11.000  0.2881  2.9108 -0.5435
  345MOL0     H46561   1.693   0.714  10.892  1.7324  1.4601  3.2295
  345MOL0     H46562   1.533   0.539  10.843 -1.6937  2.3714  0.3258
  345MOL0     H46563   1.372   0.196  10.907 -0.1003 -0.0428  1.5930
  345MOL0     H46564   1.409   0.345  10.822  1.0938  0.3991 -0.5290
  345MOL0     H46565   1.214   0.373  10.968  0.3108 -1.6479 -1.1078
  345MOL0     H46566   1.353   0.473  11.009  0.9926 -0.7130 -1.7944
  345MOL0     H46567   1.407   0.327  11.195 -0.7764  1.8048  0.9117
  345MOL0     H46568   1.263   0.226  11.157  1.9149 -1.0001  0.9798
  345MOL0     H46569   1.263   0.528  11.216 -1.1698 -0.6783 -4.5963
  345MOL0     H46570   1.118   0.422  11.192  0.1096  1.6079 -1.2983
  345MOL0     H46571   1.222   0.353  11.594 -0.2535 -0.2034  0.5656
  345MOL0     H46572   1.747   0.280  11.099 -1.0716  0.2947  1.4940
  345MOL0     H46573   2.047   0.447  11.090 -0.6723 -0.9398 -2.2451
  345MOL0     H46574   1.956   0.481  11.255 -1.4915 -1.2388  0.1729
  345MOL0     H46575   1.962   0.325  11.182  3.2912 -0.7924 -0.8895
  346MOL0     O46576   5.753  10.841  11.290 -0.0290 -0.2267  0.6650
  346MOL0     C46577   5.719  10.822  11.173 -1.1388 -0.8492 -0.0376
  346MOL0     O46578   5.759  10.703  11.109 -0.2025  0.1619 -0.0263
  346MOL0     C46579   5.851  10.628  11.173 -0.1396  0.4570  1.6075
  346MOL0     C46580   5.814  10.505  11.230 -0.3158 -0.7587  0.3892
  346MOL0     C46581   5.907  10.425  11.295  0.7313  0.0793  0.5053
  346MOL0     C46582   6.041  10.466  11.295 -0.8154 -1.1978  0.4805
  346MOL0     O46583   6.146  10.418  11.372 -0.2970  0.4771 -0.2213
  346MOL0     C46584   6.140  10.286  11.428 -0.5802  0.4342  0.4880
  346MOL0     C46585   6.152  10.180  11.315 -0.5227  0.6362 -0.5897
  346MOL0     C46586   6.277  10.196  11.224 -0.1427  1.3494 -0.4542
  346MOL0     C46587   6.244  10.243  11.084  0.8982 -0.1520 -0.3659
  346MOL0     C46588   6.354  10.258  10.978 -0.3214  0.2997 -0.3899
  346MOL0     C46589   6.413  10.395  10.967 -0.4767  0.1221 -0.5963
  346MOL0     C46590   6.474  10.459  11.100  0.4567  0.1572  0.3018
  346MOL0     C46591   6.571  10.578  11.066 -0.3048 -0.1000 -0.1717
  346MOL0     N46592   6.509  10.656  10.958 -0.2467 -0.4508  0.7098
  346MOL0     C46593   6.557  10.647  10.831  0.2945 -0.4777 -0.5604
  346MOL0     C46594   6.510  10.752  10.766  1.0158 -0.1198  0.4407
  346MOL0     C46595   6.527  10.795  10.618 -0.2407 -0.2204  0.1437
  346MOL0     C46596   6.648  10.730  10.542  0.6330 -0.1670 -1.2053
  346MOL0     C46597   6.781  10.790  10.595  0.2866 -0.1243 -0.4787
  346MOL0     C46598   6.902  10.700  10.596  1.1302 -0.4587 -0.4578
  346MOL0     O46599   7.007  10.783  10.654 -0.1344 -0.6066  0.0069
  346MOL0     C46600   7.135  10.734  10.652 -0.0511 -0.5668  0.5289
  346MOL0     C46601   7.227  10.836  10.655 -0.7108  0.1745  0.0571
  346MOL0     C46602   7.364  10.813  10.647  0.3264  0.5736  0.8208
  346MOL0     C46603   7.402  10.680  10.634  0.5762 -0.3477 -1.2235
  346MOL0     C46604   7.541  10.646  10.627 -0.0637  0.0696  0.2203
  346MOL0     O46605   7.634  10.741  10.623  0.0676 -0.0521 -1.0824
  346MOL0     C46606   7.771  10.724  10.610 -0.3633 -0.9456  0.6843
  346MOL0     C46607   7.850  10.843  10.572  0.3090 -0.0520 -0.5697
  346MOL0     C46608   7.988  10.844  10.551 -0.3092 -0.6086 -0.2716
  346MOL0     C46609   8.056  10.723  10.555 -0.0503 -0.3289  0.8496
  346MOL0     O46610   8.189  10.742  10.522  0.3372 -0.2430  0.1532
  346MOL0     C46611   8.287  10.643  10.548  1.0002  0.8286  0.7348
  346MOL0     C46612   8.413  10.724  10.579  0.6682 -0.0793 -0.0834
  346MOL0     C46613   8.522  10.632  10.642  0.6222  1.0183  0.6678
  346MOL0     C46614   8.651  10.712  10.662 -0.7969 -0.0364 -0.3133
  346MOL0     C46615   8.775  10.621  10.665 -0.1078  0.0475 -0.0806
  346MOL0     C46616   8.912  10.695  10.648 -0.0040  0.3014 -0.9260
  346MOL0     C46617   8.943  10.724  10.501 -0.1496 -0.3419  0.1914
  346MOL0     C46618   9.076  10.805  10.475 -0.2260 -0.1319 -0.2010
  346MOL0    Cl46619   9.106  10.801  10.299  0.3946 -0.1446 -0.1892
  346MOL0     C46620   7.986  10.605  10.596 -0.2140 -0.1654 -0.5589
  346MOL0     C46621   7.851  10.604  10.622  0.2226 -0.6630 -0.0265
  346MOL0     O46622   7.559  10.525  10.612 -0.0666 -0.4846 -0.3732
  346MOL0     C46623   7.306  10.572  10.643 -0.8638  0.6051  0.5321
  346MOL0     C46624   7.171  10.603  10.642 -0.2663  0.9475 -0.2316
  346MOL0     N46625   6.450  10.838  10.853  0.2310  0.2735 -1.1975
  346MOL0     N46626   6.432  10.770  10.967 -0.2371 -0.6060  0.0529
  346MOL0     C46627   6.086  10.589  11.238  0.4776  0.1167 -0.1135
  346MOL0     C46628   5.987  10.662  11.173 -0.8090  0.5224 -0.2719
  346MOL0     C46629   5.638  10.922  11.106  0.4305  0.5935 -0.6384
  346MOL0     C46630   5.643  10.930  10.964 -0.2280  0.2760 -0.7758
  346MOL0     C46631   5.585  11.033  10.901  0.2985  0.1900  0.1782
  346MOL0     C46632   5.511  11.127  10.964 -0.2772  0.5558  0.1921
  346MOL0     O46633   5.440  11.212  10.879  0.0369  0.1494  0.4749
  346MOL0     C46634   5.413  11.341  10.924  0.7529 -0.4534 -0.0160
  346MOL0     C46635   5.529  11.431  10.878  0.4139 -0.3255 -0.5769
  346MOL0     C46636   5.569  11.406  10.727 -0.0854  0.4716 -0.1509
  346MOL0     C46637   5.683  11.493  10.681 -0.1469 -0.3889 -0.1128
  346MOL0     C46638   5.816  11.438  10.720  0.2160 -0.5548 -0.6191
  346MOL0     C46639   5.911  11.386  10.765 -0.1653  0.3951 -0.0856
  346MOL0     C46640   5.495  11.121  11.102 -0.1628  0.6055  0.4179
  346MOL0     C46641   5.555  11.019  11.168  1.0800  0.7960 -0.6222
  346MOL0     C46642   5.513  11.016  11.318 -0.1600 -0.9069  0.0409
  346MOL0     H46643   5.711  10.468  11.234 -0.6152 -0.6380 -3.3820
  346MOL0     H46644   5.873  10.338  11.351 -1.1376  1.3694  1.4917
  346MOL0     H46645   6.228  10.263  11.489 -0.6937 -0.4245  0.3289
  346MOL0     H46646   6.054  10.266  11.492 -0.7758 -0.6979 -0.1119
  346MOL0     H46647   6.066  10.182  11.248 -0.2819  2.5192 -0.8855
  346MOL0     H46648   6.163  10.083  11.364 -0.6623  0.7750 -0.2864
  346MOL0     H46649   6.318  10.096  11.213 -3.6549 -0.2347 -0.5055
  346MOL0     H46650   6.352  10.263  11.267 -2.7018  3.6718  0.7606
  346MOL0     H46651   6.170  10.174  11.042 -0.4032  0.8465  0.1957
  346MOL0     H46652   6.195  10.340  11.094  1.0121 -0.1488  0.1800
  346MOL0     H46653   6.431  10.182  10.993 -0.3992 -0.5145 -3.5107
  346MOL0     H46654   6.305  10.243  10.881 -1.2998  2.1703 -0.2367
  346MOL0     H46655   6.491  10.386  10.891  2.5744  0.5154  2.2302
  346MOL0     H46656   6.331  10.462  10.940 -2.9781 -1.8778  1.4416
  346MOL0     H46657   6.527  10.374  11.144 -0.3140 -1.2315 -1.3280
  346MOL0     H46658   6.390  10.491  11.162  0.7501  0.7277  0.4153
  346MOL0     H46659   6.577  10.641  11.155 -1.8039  1.4997 -1.1313
  346MOL0     H46660   6.670  10.544  11.036  0.4295  1.5763  0.2574
  346MOL0     H46661   6.615  10.568  10.786 -0.0704 -0.0297 -1.8539
  346MOL0     H46662   6.435  10.770  10.565 -0.3444 -2.5376  1.2826
  346MOL0     H46663   6.539  10.904  10.615 -1.5281 -0.0851 -2.0730
  346MOL0     H46664   6.644  10.624  10.566 -2.7181 -0.0218 -0.7066
  346MOL0     H46665   6.642  10.736  10.433 -1.1478  0.1410 -1.1213
  346MOL0     H46666   6.762  10.837  10.692 -0.0717 -0.9747 -0.1311
  346MOL0     H46667   6.801  10.874  10.528 -0.0866  0.4905  0.1572
  346MOL0     H46668   6.930  10.659  10.498 -0.6554 -3.7442  0.2493
  346MOL0     H46669   6.882  10.613  10.660  0.0643 -0.2743 -0.5223
  346MOL0     H46670   7.196  10.939  10.665 -2.4082 -0.4531  1.9480
  346MOL0     H46671   7.435  10.894  10.638  1.4641 -0.5697 -1.0253
  346MOL0     H46672   7.793  10.935  10.569 -0.0889 -0.3106 -2.7339
  346MOL0     H46673   8.043  10.934  10.526  0.9879 -0.5989  2.3070
  346MOL0     H46674   8.255  10.588  10.637 -1.0225 -1.6033 -1.3176
  346MOL0     H46675   8.304  10.574  10.465 -0.8660  2.1363 -0.8143
  346MOL0     H46676   8.446  10.763  10.482 -0.2427  0.5032 -0.1785
  346MOL0     H46677   8.376  10.798  10.650 -0.0427  0.2463 -0.7690
  346MOL0     H46678   8.489  10.586  10.736  1.5435 -3.4477 -0.9422
  346MOL0     H46679   8.543  10.540  10.587 -1.6376  0.6060  0.3981
  346MOL0     H46680   8.646  10.777  10.750  2.0017  1.1008 -0.9134
  346MOL0     H46681   8.662  10.780  10.577 -0.7991 -0.2146 -0.4549
  346MOL0     H46682   8.768  10.551  10.581 -2.4973  0.5035 -0.3460
  346MOL0     H46683   8.770  10.568  10.760 -1.0243 -3.1548 -1.8030
  346MOL0     H46684   8.918  10.787  10.706  0.3124 -0.2455 -0.0588
  346MOL0     H46685   8.993  10.631  10.686 -1.1578 -0.0442  1.0716
  346MOL0     H46686   8.862  10.779  10.452  0.2484 -1.8736 -2.3731
  346MOL0     H46687   8.955  10.630  10.446  0.4771 -1.1938  1.7526
  346MOL0     H46688   9.066  10.912  10.495  2.6847 -0.2177  2.2990
  346MOL0     H46689   9.158  10.757  10.527  0.6725  2.3739  0.8445
  346MOL0     H46690   8.036  10.509  10.599 -0.3819 -0.2472 -0.3520
  346MOL0     H46691   7.801  10.509  10.634 -0.8064 -0.1051  0.2114
  346MOL0     H46692   7.327  10.468  10.620  1.9825  1.8050 -3.2591
  346MOL0     H46693   7.088  10.534  10.627 -2.4857  3.7467 -1.9992
  346MOL0     H46694   6.189  10.619  11.250  0.8194 -1.1303  0.2131
  346MOL0     H46695   6.021  10.754  11.128  0.4169  0.6850  0.9150
  346MOL0     H46696   5.710  10.865  10.908  0.5329 -0.3522  0.8028
  346MOL0     H46697   5.614  11.049  10.797  0.5851  2.3531  0.5555
  346MOL0     H46698   5.408  11.344  11.034 -0.1159 -0.8487 -0.0306
  346MOL0     H46699   5.319  11.382  10.885  1.8506  1.6190 -0.6535
  346MOL0     H46700   5.612  11.400  10.941 -2.0991 -0.8213  2.7565
  346MOL0     H46701   5.515  11.537  10.900 -2.5241 -0.6385 -0.5608
  346MOL0     H46702   5.475  11.428  10.674 -0.2233 -2.1366 -1.1473
  346MOL0     H46703   5.593  11.300  10.719 -0.9061  0.0698  2.1337
  346MOL0     H46704   5.670  11.496  10.573  0.8360  0.0851 -0.2306
  346MOL0     H46705   5.672  11.592  10.727 -2.0024 -0.7477  0.2943
  346MOL0     H46706   5.998  11.348  10.816 -1.5344 -0.7203  1.5146
  346MOL0     H46707   5.424  11.190  11.145 -1.2771 -0.4946  0.3999
  346MOL0     H46708   5.462  10.924  11.346 -1.3070 -1.4266 -3.2878
  346MOL0     H46709   5.605  11.016  11.377  0.4652 -0.4593 -0.9020
  346MOL0     H46710   5.460  11.104  11.356 -2.5274 -1.9142 -0.7967
  347MOL0     O46711   1.008   3.168   4.943 -0.0002 -0.2822  0.6610
  347MOL0     C46712   0.974   3.077   5.020 -0.6230  0.6004  0.3877
  347MOL0     O46713   1.022   3.056   5.141 -0.0606  0.2882  0.2316
  347MOL0     C46714   1.124   3.143   5.194  0.2448  0.1486 -0.2009
  347MOL0     C46715   1.111   3.280   5.202 -0.7848 -0.5084  1.1590
  347MOL0     C46716   1.219   3.352   5.252 -0.0866  0.2780 -0.1609
  347MOL0     C46717   1.337   3.297   5.300  0.0519 -0.7527 -0.5165
  347MOL0     O46718   1.430   3.382   5.351 -0.2661  0.5468  0.1222
  347MOL0     C46719   1.554   3.372   5.270  0.8769  0.4666  0.5431
  347MOL0     C46720   1.661   3.465   5.307  0.3499  0.2130  0.9088
  347MOL0     C46721   1.722   3.433   5.449  0.2353  0.2645  0.2641
  347MOL0     C46722   1.845   3.521   5.475 -0.5981 -0.0817 -0.2240
  347MOL0     C46723   1.922   3.507   5.610  0.9502 -0.4104 -0.0320
  347MOL0     C46724   2.015   3.624   5.615  0.6364 -0.4217 -0.6377
  347MOL0     C46725   2.116   3.632   5.728  0.6556  0.6997  0.3568
  347MOL0     C46726   2.061   3.603   5.867  0.8856 -0.3285  1.7874
  347MOL0     N46727   2.150   3.647   5.976  0.7924 -0.1389 -0.0771
  347MOL0     C46728   2.285   3.631   5.989 -0.0354  0.8666  1.1227
  347MOL0     C46729   2.308   3.649   6.117  0.5669 -1.2799 -0.2548
  347MOL0     C46730   2.443   3.622   6.186  0.5293 -0.3990  0.1676
  347MOL0     C46731   2.479   3.752   6.263 -0.7029 -0.3961 -0.1364
  347MOL0     C46732   2.557   3.729   6.393  0.2732 -0.9976 -0.3186
  347MOL0     C46733   2.690   3.671   6.364 -0.1776  0.7730 -0.3441
  347MOL0     O46734   2.789   3.765   6.372 -0.2227  0.0887 -0.2125
  347MOL0     C46735   2.919   3.730   6.356  0.3748  0.2094  0.3762
  347MOL0     C46736   2.965   3.599   6.344 -0.6974  0.1363 -1.0608
  347MOL0     C46737   3.102   3.572   6.331 -0.1976  0.5155  0.5758
  347MOL0     C46738   3.189   3.676   6.341 -0.5905 -0.7600 -0.0874
  347MOL0     C46739   3.334   3.641   6.330  0.5868 -0.1946 -0.3232
  347MOL0     O46740   3.419   3.751   6.322 -0.2841  0.3329 -0.0011
  347MOL0     C46741   3.555   3.749   6.327 -0.4294  0.2441 -0.2723
  347MOL0     C46742   3.636   3.638   6.362  0.3659  0.1195  1.4254
  347MOL0     C46743   3.775   3.640   6.370 -0.1123  1.2952 -0.1471
  347MOL0     C46744   3.844   3.760   6.345 -0.3563 -0.5873 -1.1450
  347MOL0     O46745   3.984   3.780   6.364 -0.2970  0.0147  0.0413
  347MOL0     C46746   4.083   3.676   6.395 -0.2577 -0.1277 -0.0609
  347MOL0     C46747   4.218   3.733   6.373 -0.8556 -0.4216 -0.2985
  347MOL0     C46748   4.273   3.779   6.231 -0.3780  0.3023 -0.7163
  347MOL0     C46749   4.413   3.827   6.242 -0.2147  0.5367  0.8064
  347MOL0     C46750   4.462   3.868   6.105  0.6358 -0.4583 -0.2961
  347MOL0     C46751   4.608   3.917   6.123 -0.4303  0.2461 -0.2622
  347MOL0     C46752   4.667   3.980   5.989 -0.0298  0.2006 -1.4229
  347MOL0     C46753   4.797   4.067   6.021 -0.5639  0.1356 -0.0778
  347MOL0    Cl46754   4.936   3.963   6.046 -0.4124 -0.5610 -0.1432
  347MOL0     C46755   3.771   3.870   6.303 -0.7134 -0.1996  0.4540
  347MOL0     C46756   3.634   3.865   6.291 -0.3536  0.4434  0.1900
  347MOL0     O46757   3.363   3.521   6.327 -0.6316  0.1761  0.1854
  347MOL0     C46758   3.139   3.804   6.359  0.1451  0.4202 -0.2239
  347MOL0     C46759   3.006   3.835   6.376  1.1982  0.0323 -0.5423
  347MOL0     N46760   2.189   3.684   6.187  0.3396 -0.2356 -0.5323
  347MOL0     N46761   2.095   3.678   6.101 -0.4685  0.2544 -0.4368
  347MOL0     C46762   1.339   3.156   5.296 -0.1281 -0.3439  0.1528
  347MOL0     C46763   1.238   3.081   5.243 -0.4424  1.3247 -0.0133
  347MOL0     C46764   0.924   2.954   4.953  0.3817 -0.2133  0.6842
  347MOL0     C46765   0.967   2.825   4.979  0.8146 -0.8808 -0.0607
  347MOL0     C46766   0.913   2.709   4.918 -0.5340  0.4534 -0.5213
  347MOL0     C46767   0.809   2.729   4.834  0.2340 -0.2377  1.0194
  347MOL0     O46768   0.761   2.604   4.788 -1.0576  0.0291  0.3196
  347MOL0     C46769   0.650   2.594   4.695 -0.0641 -0.3447 -0.1455
  347MOL0     C46770   0.509   2.625   4.750 -0.4948  0.4025  0.8338
  347MOL0     C46771   0.391   2.597   4.644 -0.1114 -0.2956 -0.3013
  347MOL0     C46772   0.372   2.450   4.598 -0.3906 -0.7916  0.0031
  347MOL0     C46773   0.237   2.436   4.541 -0.3952  0.3827 -0.3462
  347MOL0     C46774   0.118   2.430   4.508 -0.6249 -0.5991 -0.2280
  347MOL0     C46775   0.757   2.853   4.794 -0.1843 -1.0616  0.2715
  347MOL0     C46776   0.814   2.969   4.852  0.0346 -0.2827  0.2913
  347MOL0     C46777   0.767   3.102   4.809 -0.8751  0.1409  0.4360
  347MOL0     H46778   1.032   3.337   5.153 -0.8702 -1.2122  0.4659
  347MOL0     H46779   1.204   3.459   5.255 -1.0103  0.2302 -1.7089
  347MOL0     H46780   1.592   3.270   5.278  0.1330  0.0980 -0.4846
  347MOL0     H46781   1.522   3.392   5.167  0.3355  0.4372  0.7028
  347MOL0     H46782   1.633   3.570   5.298  0.2947  0.2664  1.6511
  347MOL0     H46783   1.737   3.440   5.233 -0.3478 -3.0041  1.1276
  347MOL0     H46784   1.744   3.326   5.443 -1.0163  0.0369 -0.5509
  347MOL0     H46785   1.653   3.449   5.532  0.7592  1.2118  0.5255
  347MOL0     H46786   1.921   3.506   5.397  2.8493 -3.0566  3.2827
  347MOL0     H46787   1.814   3.625   5.464 -2.5010 -0.4670  0.9650
  347MOL0     H46788   1.855   3.511   5.697 -0.0478 -0.2087 -0.7904
  347MOL0     H46789   1.977   3.414   5.602 -1.2285 -1.6007 -3.4331
  347MOL0     H46790   2.064   3.624   5.517  2.6926 -2.1167  0.2992
  347MOL0     H46791   1.958   3.717   5.610 -2.6792 -2.3589 -2.6203
  347MOL0     H46792   2.158   3.733   5.732 -0.1384  1.0859 -0.5664
  347MOL0     H46793   2.205   3.570   5.712 -0.5777 -1.0595  0.0339
  347MOL0     H46794   1.968   3.661   5.871  0.3184 -1.1687  1.0211
  347MOL0     H46795   2.028   3.499   5.872  1.9449 -0.6438  2.7143
  347MOL0     H46796   2.352   3.599   5.910 -3.2206  2.3518 -2.5017
  347MOL0     H46797   2.438   3.547   6.265 -0.9353  0.2575  0.7486
  347MOL0     H46798   2.511   3.578   6.112  0.4840 -2.2258  1.1577
  347MOL0     H46799   2.544   3.817   6.202 -0.7138  0.4933  0.7819
  347MOL0     H46800   2.391   3.812   6.286 -0.0759  1.0941 -1.3768
  347MOL0     H46801   2.500   3.662   6.457  2.8168 -0.6339  2.5259
  347MOL0     H46802   2.567   3.823   6.448  2.7616 -0.4019 -1.6443
  347MOL0     H46803   2.685   3.629   6.263 -1.1275  2.4090 -1.0259
  347MOL0     H46804   2.710   3.588   6.433  1.3805  1.9629  0.7006
  347MOL0     H46805   2.899   3.513   6.332  0.5042 -0.7609 -1.4449
  347MOL0     H46806   3.132   3.471   6.307  0.3483  1.0919 -1.3145
  347MOL0     H46807   3.600   3.542   6.400 -1.6072 -0.7335 -2.1746
  347MOL0     H46808   3.830   3.554   6.409  0.9291  1.0782 -1.9986
  347MOL0     H46809   4.080   3.652   6.502  0.4509 -1.2351 -0.2814
  347MOL0     H46810   4.063   3.582   6.344 -1.3791 -0.1239  0.3229
  347MOL0     H46811   4.244   3.808   6.448  0.9976  1.1939 -2.4065
  347MOL0     H46812   4.284   3.651   6.402  0.9737  1.6073  1.6444
  347MOL0     H46813   4.268   3.690   6.168  0.7686  1.3994 -2.4489
  347MOL0     H46814   4.205   3.859   6.200 -0.5318  1.3212  1.9747
  347MOL0     H46815   4.482   3.752   6.282  1.3164 -0.0628 -2.5942
  347MOL0     H46816   4.428   3.902   6.321  2.1184  1.2296 -0.2030
  347MOL0     H46817   4.398   3.951   6.072 -1.2162 -0.2131  3.3537
  347MOL0     H46818   4.460   3.785   6.034  4.0820  0.3260 -1.4837
  347MOL0     H46819   4.609   3.992   6.203  1.4019  2.5377 -2.2917
  347MOL0     H46820   4.678   3.838   6.150 -1.5908 -0.1839  1.7049
  347MOL0     H46821   4.589   4.038   5.939  0.0873  0.6793 -1.0604
  347MOL0     H46822   4.701   3.900   5.922  0.0970 -0.6079 -0.4257
  347MOL0     H46823   4.831   4.132   5.941  1.2188 -3.2884 -2.3598
  347MOL0     H46824   4.775   4.126   6.110 -4.1801 -1.8174  0.5356
  347MOL0     H46825   3.825   3.964   6.295 -1.6762  0.5559  2.2230
  347MOL0     H46826   3.577   3.952   6.261 -1.1152  0.3751  1.3586
  347MOL0     H46827   3.201   3.891   6.375 -0.2248  1.3379 -3.2231
  347MOL0     H46828   2.972   3.937   6.389  1.0552  0.3181 -2.7312
  347MOL0     H46829   1.432   3.109   5.327  0.1571  0.9377  1.3119
  347MOL0     H46830   1.248   2.973   5.247  2.7240  1.5000 -0.7255
  347MOL0     H46831   1.044   2.815   5.055  0.6740  2.3109  0.6314
  347MOL0     H46832   0.951   2.611   4.947 -0.4291  0.5573 -0.3111
  347MOL0     H46833   0.639   2.488   4.670  0.6983  0.0046 -2.1561
  347MOL0     H46834   0.682   2.649   4.606  1.3796 -1.6903 -0.5121
  347MOL0     H46835   0.510   2.726   4.793  0.9964  0.6387  0.3086
  347MOL0     H46836   0.496   2.559   4.836  3.0367 -1.7749 -0.0980
  347MOL0     H46837   0.426   2.652   4.556  3.1310  2.2817  2.3366
  347MOL0     H46838   0.298   2.640   4.681 -1.9821 -2.7511 -1.8108
  347MOL0     H46839   0.442   2.422   4.519  0.3131 -0.4081  0.4764
  347MOL0     H46840   0.376   2.382   4.684 -1.0620 -2.0150 -0.9088
  347MOL0     H46841   0.014   2.437   4.481 -0.3514  1.2026 -1.0192
  347MOL0     H46842   0.681   2.862   4.718  1.9632 -3.0341 -2.3275
  347MOL0     H46843   0.841   3.147   4.742 -1.1289 -0.8473 -0.5459
  347MOL0     H46844   0.674   3.089   4.752 -0.0998  0.0120 -0.8362
  347MOL0     H46845   0.733   3.170   4.888 -2.2172 -1.9677  1.8028
  348MOL0     O46846   9.333   4.304   5.231 -0.4404  0.0002 -0.2084
  348MOL0     C46847   9.311   4.369   5.128  0.2240  0.1205  0.4373
  348MOL0     O46848   9.386   4.374   5.019 -0.4138  0.6211  0.5988
  348MOL0     C46849   9.516   4.318   5.024  0.2885 -0.4139 -0.3292
  348MOL0     C46850   9.610   4.340   5.129 -0.1238  0.5395  0.5713
  348MOL0     C46851   9.738   4.277   5.128  0.4428  0.3313  0.0609
  348MOL0     C46852   9.776   4.188   5.021  0.3926 -0.0978 -0.1430
  348MOL0     O46853   9.897   4.130   5.027 -0.0475  0.3895 -0.3182
  348MOL0     C46854   9.943   4.044   4.918 -0.1974 -0.4452  0.0664
  348MOL0     C46855  10.077   3.980   4.944  0.2889 -0.5303 -0.3652
  348MOL0     C46856  10.183   4.088   4.975  0.1813 -0.1466  0.1173
  348MOL0     C46857  10.326   4.042   4.938  1.4007  0.5786  0.1562
  348MOL0     C46858  10.432   4.116   5.022  0.6780  0.3233 -0.1448
  348MOL0     C46859  10.565   4.087   4.960  0.3037 -0.7451 -0.1459
  348MOL0     C46860  10.615   3.941   4.930 -0.1410  0.7691  0.6937
  348MOL0     C46861  10.765   3.950   4.889  0.1125  0.7023 -0.3679
  348MOL0     N46862  10.864   3.987   4.994  0.3238 -0.1316 -0.4455
  348MOL0     C46863  10.923   4.107   5.005 -0.2911 -0.5552 -0.6494
  348MOL0     C46864  11.003   4.098   5.113 -0.1514 -0.1342  1.0706
  348MOL0     C46865  11.082   4.216   5.159 -0.8677  0.2446 -0.4100
  348MOL0     C46866  11.192   4.253   5.057  0.3389 -0.3632 -0.1491
  348MOL0     C46867  11.279   4.371   5.116  0.4196 -0.1856 -0.1804
  348MOL0     C46868  11.379   4.391   5.005 -1.1249  0.1516  0.0868
  348MOL0     O46869  11.479   4.291   5.020 -0.2552  0.0560 -0.3951
  348MOL0     C46870  11.603   4.321   4.964 -0.3466  0.1581 -0.0396
  348MOL0     C46871  11.631   4.440   4.895  0.0896 -0.5359  0.3729
  348MOL0     C46872  11.758   4.466   4.848  1.1323 -0.7808 -0.1580
  348MOL0     C46873  11.854   4.366   4.848 -0.0343  0.4278 -0.0435
  348MOL0     C46874  11.985   4.387   4.782 -0.0479 -0.6269 -0.5601
  348MOL0     O46875  12.056   4.277   4.741 -0.0019  0.5541 -0.1987
  348MOL0     C46876  12.189   4.286   4.695 -0.5260  0.4181  0.1303
  348MOL0     C46877  12.287   4.192   4.742 -0.0969 -0.2785 -0.3877
  348MOL0     C46878  12.416   4.193   4.673  0.6489  0.2730 -0.2391
  348MOL0     C46879  12.441   4.276   4.570 -0.4495 -0.4875  0.7824
  348MOL0     O46880  12.562   4.264   4.517 -0.2578 -0.0077  0.3656
  348MOL0     C46881  12.621   4.348   4.417 -0.3660  1.1237  0.0081
  348MOL0     C46882  12.764   4.297   4.378 -0.8279 -0.7568  0.2824
  348MOL0     C46883  12.770   4.150   4.321 -0.0850 -0.7580  0.4618
  348MOL0     C46884  12.919   4.119   4.317 -0.1988 -0.0915 -0.2937
  348MOL0     C46885  12.946   3.997   4.238  0.2403  0.0855  0.0626
  348MOL0     C46886  13.090   3.956   4.268 -0.4266 -0.3972  0.7705
  348MOL0     C46887  13.198   4.035   4.201  0.0001 -0.2537  0.1562
  348MOL0     C46888  13.336   3.988   4.250  0.1942 -0.2021  0.5583
  348MOL0    Cl46889  13.451   4.102   4.179 -0.0637 -0.5075  0.4476
  348MOL0     C46890  12.346   4.371   4.519  0.2804  0.0524 -0.1669
  348MOL0     C46891  12.221   4.368   4.575  0.9765 -0.6300  0.4283
  348MOL0     O46892  12.032   4.501   4.770 -0.3136 -0.1938  0.1600
  348MOL0     C46893  11.829   4.248   4.920  0.5315  0.7362  0.2460
  348MOL0     C46894  11.706   4.227   4.981 -0.9102  0.6940  0.3597
  348MOL0     N46895  10.987   3.974   5.161 -0.2948  0.6282  0.4791
  348MOL0     N46896  10.905   3.904   5.086 -1.0793  0.2208 -0.0864
  348MOL0     C46897   9.674   4.158   4.927 -0.6337  0.4368 -0.5579
  348MOL0     C46898   9.559   4.232   4.919 -0.6636  0.5790 -0.7470
  348MOL0     C46899   9.188   4.449   5.114  0.4062 -0.8690 -0.2628
  348MOL0     C46900   9.144   4.488   4.986 -0.5095  0.0919  0.3282
  348MOL0     C46901   9.045   4.579   4.969  0.0913 -0.1956 -0.5284
  348MOL0     C46902   8.967   4.628   5.081 -0.5422 -0.0056 -0.2746
  348MOL0     O46903   8.866   4.722   5.059 -0.4755 -0.8525 -0.9400
  348MOL0     C46904   8.873   4.848   5.130  0.0399 -0.9199 -0.0647
  348MOL0     C46905   8.746   4.930   5.112  0.8152 -0.0200  0.1816
  348MOL0     C46906   8.620   4.860   5.160  0.8639  0.3272  1.2754
  348MOL0     C46907   8.588   4.879   5.310  0.1011 -0.3681 -1.1065
  348MOL0     C46908   8.473   4.806   5.353  0.5811 -0.1990 -0.4441
  348MOL0     C46909   8.371   4.745   5.387  0.1458 -0.0888  0.1860
  348MOL0     C46910   9.011   4.592   5.208 -0.1538  0.1835  0.4503
  348MOL0     C46911   9.114   4.496   5.225 -0.1074 -0.4586 -0.8763
  348MOL0     C46912   9.147   4.460   5.377 -0.0725 -0.3844 -0.0476
  348MOL0     H46913   9.570   4.400   5.211 -2.7635  1.3057 -1.1735
  348MOL0     H46914   9.812   4.296   5.204  1.2172 -0.3853 -0.4962
  348MOL0     H46915   9.873   3.963   4.896 -0.8497  0.4711 -1.3480
  348MOL0     H46916   9.946   4.105   4.827 -0.0393  0.5270  0.7031
  348MOL0     H46917  10.109   3.920   4.859 -1.5896 -1.7834 -0.2665
  348MOL0     H46918  10.069   3.910   5.028  4.0956 -0.6282  0.0816
  348MOL0     H46919  10.184   4.123   5.078 -0.0700 -1.8385  0.7313
  348MOL0     H46920  10.172   4.174   4.908  3.2414  2.1286  2.2459
  348MOL0     H46921  10.322   3.935   4.961 -2.0495  0.2999 -1.1151
  348MOL0     H46922  10.344   4.069   4.834  0.7101 -2.2142 -0.7535
  348MOL0     H46923  10.408   4.222   5.017  0.1617  0.1625 -3.9006
  348MOL0     H46924  10.421   4.081   5.125 -0.0223  0.7763 -0.0600
  348MOL0     H46925  10.572   4.155   4.874  0.2006  0.7940  1.0184
  348MOL0     H46926  10.640   4.126   5.030  0.6923  0.3203 -1.1337
  348MOL0     H46927  10.557   3.898   4.848  1.8789  0.0390 -0.4156
  348MOL0     H46928  10.607   3.878   5.019 -0.4148  0.4193  0.4207
  348MOL0     H46929  10.799   3.850   4.864  1.8228  1.3411 -0.7342
  348MOL0     H46930  10.780   4.015   4.802  0.1001  1.0468 -0.1173
  348MOL0     H46931  10.892   4.196   4.951 -1.1012 -0.6765 -0.3954
  348MOL0     H46932  11.022   4.303   5.186 -2.8614 -1.3111  0.4227
  348MOL0     H46933  11.133   4.178   5.248  1.3270 -0.3149 -1.8285
  348MOL0     H46934  11.255   4.163   5.058 -0.4768 -0.9603  1.4914
  348MOL0     H46935  11.149   4.280   4.961  0.0927  3.4440  0.8918
  348MOL0     H46936  11.319   4.322   5.205 -3.8588 -0.1416  2.0211
  348MOL0     H46937  11.224   4.464   5.132  3.2230  1.3032  1.5692
  348MOL0     H46938  11.413   4.493   5.024  0.5453 -0.2165 -0.7657
  348MOL0     H46939  11.343   4.380   4.902  2.4132  0.6746 -1.3285
  348MOL0     H46940  11.561   4.519   4.874 -0.3845 -1.0181  0.1152
  348MOL0     H46941  11.778   4.563   4.804  0.4629 -0.2907  0.6043
  348MOL0     H46942  12.269   4.131   4.830  2.6353  0.5325  0.8443
  348MOL0     H46943  12.498   4.126   4.695  0.9301  0.5705 -0.3621
  348MOL0     H46944  12.560   4.345   4.326  0.2121  1.3721 -0.3936
  348MOL0     H46945  12.627   4.450   4.455 -2.5097  0.7676  1.4999
  348MOL0     H46946  12.811   4.373   4.315 -0.7108  1.0409  2.4367
  348MOL0     H46947  12.830   4.299   4.465  0.1475 -1.8783 -0.3867
  348MOL0     H46948  12.717   4.082   4.388  2.1417 -1.0853  1.9904
  348MOL0     H46949  12.727   4.133   4.222 -0.5525 -0.6982  0.6498
  348MOL0     H46950  12.945   4.095   4.420  1.6047 -2.8864 -1.2755
  348MOL0     H46951  12.969   4.207   4.275  0.1648  1.2880  2.7688
  348MOL0     H46952  12.923   4.007   4.131  1.4172  2.0257 -0.0525
  348MOL0     H46953  12.876   3.922   4.275 -0.2353  0.3042 -0.3773
  348MOL0     H46954  13.110   3.965   4.375  0.9838  0.8988  0.4341
  348MOL0     H46955  13.109   3.850   4.247  0.2751  0.0138 -0.8490
  348MOL0     H46956  13.181   4.135   4.241 -2.1208 -0.6399  0.3322
  348MOL0     H46957  13.193   4.038   4.092 -1.1583  1.8687  0.2086
  348MOL0     H46958  13.333   4.015   4.356  2.5140  2.1227  0.1459
  348MOL0     H46959  13.359   3.882   4.236 -1.4251 -0.7008  1.4293
  348MOL0     H46960  12.355   4.452   4.447  2.0658 -0.8878 -1.0599
  348MOL0     H46961  12.143   4.430   4.533  1.3919  0.7454  1.6100
  348MOL0     H46962  11.913   4.180   4.921  0.8628  1.1020 -1.3050
  348MOL0     H46963  11.687   4.142   5.046 -0.2796  0.2405 -0.0419
  348MOL0     H46964   9.687   4.091   4.843  4.2086 -0.4004  0.5532
  348MOL0     H46965   9.495   4.213   4.834  0.3623  2.3794 -2.0006
  348MOL0     H46966   9.191   4.460   4.892 -0.7190 -1.9893  0.7970
  348MOL0     H46967   9.024   4.617   4.870 -0.0436  0.2977 -0.3149
  348MOL0     H46968   8.959   4.896   5.082 -1.4444 -3.1390 -5.7233
  348MOL0     H46969   8.885   4.834   5.238  0.2222  4.1774  0.8592
  348MOL0     H46970   8.728   4.956   5.008 -0.6145  0.5196  0.5398
  348MOL0     H46971   8.764   5.022   5.168  0.6889 -0.2871  0.6744
  348MOL0     H46972   8.618   4.757   5.124  0.3759  0.9752 -0.6983
  348MOL0     H46973   8.546   4.921   5.107  0.8381 -1.6255 -1.0752
  348MOL0     H46974   8.674   4.846   5.369 -0.5227 -1.7547 -0.9271
  348MOL0     H46975   8.566   4.983   5.335  2.5100 -0.0895  0.1111
  348MOL0     H46976   8.280   4.699   5.420 -1.3873  0.9603 -2.2562
  348MOL0     H46977   8.968   4.643   5.293 -1.2876  1.4275 -0.8300
  348MOL0     H46978   9.255   4.473   5.394 -0.2103 -0.5306  1.0333
  348MOL0     H46979   9.097   4.531   5.444 -1.5708 -2.5156  1.2170
  348MOL0     H46980   9.101   4.362   5.392 -0.9264 -0.0219 -0.2468
  349MOL0     O46981   8.932   3.980   9.248  0.0181  0.2734  0.4183
  349MOL0     C46982   8.876   3.899   9.175  0.9718  0.3817  0.8199
  349MOL0     O46983   8.889   3.899   9.034  0.5129  0.1590 -0.3987
  349MOL0     C46984   8.978   3.983   8.965 -0.3256  0.1469 -0.4723
  349MOL0     C46985   9.118   3.961   8.967  0.5294  0.2006  1.0810
  349MOL0     C46986   9.205   4.036   8.886 -0.1652  1.1441 -0.4575
  349MOL0     C46987   9.153   4.138   8.802  0.5286 -0.8961 -0.6489
  349MOL0     O46988   9.230   4.230   8.730 -0.0683 -0.1899  0.5683
  349MOL0     C46989   9.354   4.260   8.798  0.1950  0.9559  0.2795
  349MOL0     C46990   9.411   4.395   8.740  0.5314 -0.4746  0.4545
  349MOL0     C46991   9.533   4.447   8.795 -0.0567 -0.0114 -0.6256
  349MOL0     C46992   9.554   4.587   8.743 -0.1476 -0.0723 -0.8504
  349MOL0     C46993   9.666   4.656   8.816  0.8907  0.8722  0.3604
  349MOL0     C46994   9.694   4.777   8.742 -0.1192 -0.2709 -0.5859
  349MOL0     C46995   9.804   4.863   8.811 -0.2986 -0.7132 -0.2490
  349MOL0     C46996   9.821   5.005   8.748 -0.1515 -0.3172 -0.9074
  349MOL0     N46997   9.940   5.076   8.804  0.8325 -0.3271 -0.1012
  349MOL0     C46998   9.949   5.150   8.921  0.9182 -0.6632 -0.0891
  349MOL0     C46999  10.074   5.202   8.920  0.5099 -0.3279 -0.3754
  349MOL0     C47000  10.132   5.302   9.015  0.8677 -0.0404 -0.1402
  349MOL0     C47001  10.199   5.214   9.133 -0.0223 -0.0779  0.7236
  349MOL0     C47002  10.237   5.298   9.253  0.4853  0.2446 -0.3703
  349MOL0     C47003  10.314   5.213   9.355 -0.7252  0.1094 -0.6511
  349MOL0     O47004  10.458   5.231   9.342  0.0060  0.3517 -0.3416
  349MOL0     C47005  10.520   5.347   9.394 -0.9185 -0.6279 -0.0885
  349MOL0     C47006  10.656   5.364   9.355 -0.0999 -0.2004  0.3227
  349MOL0     C47007  10.739   5.474   9.403  0.6674  0.2159  0.5205
  349MOL0     C47008  10.683   5.566   9.491  0.5293  0.7546  0.3987
  349MOL0     C47009  10.763   5.676   9.537  1.4006  0.3267 -0.0665
  349MOL0     O47010  10.886   5.682   9.484  0.3833 -0.4943  0.1075
  349MOL0     C47011  10.987   5.756   9.541  0.0876 -0.1504 -0.0185
  349MOL0     C47012  10.970   5.875   9.606 -0.1900  0.5608 -0.8893
  349MOL0     C47013  11.078   5.935   9.672 -0.3159 -0.3665 -0.2542
  349MOL0     C47014  11.208   5.881   9.668 -0.2649 -0.1776 -0.2256
  349MOL0     O47015  11.311   5.955   9.729 -0.6451 -0.1507  0.8237
  349MOL0     C47016  11.428   5.877   9.774 -0.3391 -0.4245 -0.7639
  349MOL0     C47017  11.513   5.975   9.872  0.4528 -0.0739  0.5126
  349MOL0     C47018  11.636   5.914   9.946  0.2905 -0.5348 -1.1345
  349MOL0     C47019  11.720   6.015  10.023 -0.3851  0.0641 -0.3609
  349MOL0     C47020  11.849   5.961  10.083 -0.3417  0.4419 -0.3164
  349MOL0     C47021  11.907   6.053  10.178  0.4865  0.0216  0.6066
  349MOL0     C47022  12.037   6.006  10.224 -0.0356  0.2303  0.7109
  349MOL0     C47023  12.084   6.095  10.337 -0.3579 -0.0476  0.0503
  349MOL0    Cl47024  12.250   6.073  10.408 -0.4918  0.3498  0.2314
  349MOL0     C47025  11.225   5.760   9.593 -1.7017 -0.8625  0.5412
  349MOL0     C47026  11.116   5.694   9.536 -0.7464 -0.4859 -0.0005
  349MOL0     O47027  10.711   5.748   9.623  0.5344  0.1484 -0.6693
  349MOL0     C47028  10.542   5.548   9.524  0.8287 -0.5403 -0.1569
  349MOL0     C47029  10.464   5.448   9.476  0.0067  0.0535 -0.2310
  349MOL0     N47030  10.134   5.152   8.807  0.5275 -0.3615 -0.2190
  349MOL0     N47031  10.059   5.079   8.739  0.6223  0.3654  0.6916
  349MOL0     C47032   9.008   4.164   8.803 -1.2387 -0.9268 -0.2773
  349MOL0     C47033   8.927   4.085   8.878 -0.2590  0.2365 -0.4754
  349MOL0     C47034   8.793   3.791   9.253  0.8732  0.0114 -0.5100
  349MOL0     C47035   8.702   3.708   9.178 -0.9632  0.0526 -1.2106
  349MOL0     C47036   8.639   3.602   9.245  0.8482 -0.5254 -0.0895
  349MOL0     C47037   8.610   3.612   9.390  0.8350  0.5240  0.1273
  349MOL0     O47038   8.518   3.537   9.457 -0.3342 -0.1058  0.0842
  349MOL0     C47039   8.442   3.427   9.399 -1.2513  0.1485  0.8780
  349MOL0     C47040   8.307   3.489   9.352 -0.4203  0.6226 -0.6697
  349MOL0     C47041   8.219   3.545   9.466  0.3064  0.2422 -0.7212
  349MOL0     C47042   8.238   3.497   9.616 -0.0641 -0.3094  0.4319
  349MOL0     C47043   8.122   3.540   9.696 -0.7040  0.5683 -0.2812
  349MOL0     C47044   8.026   3.573   9.763 -0.6577  0.4691  0.0486
  349MOL0     C47045   8.689   3.701   9.457 -0.2900  0.4642  0.0157
  349MOL0     C47046   8.787   3.771   9.397 -0.0854 -0.1974  0.2338
  349MOL0     C47047   8.884   3.835   9.502  0.0402 -0.5025 -0.0159
  349MOL0     H47048   9.148   3.873   9.024 -1.2511 -1.6167 -0.6142
  349MOL0     H47049   9.311   4.020   8.901 -0.5548 -1.8143 -0.3714
  349MOL0     H47050   9.333   4.289   8.901 -0.7207  1.9801 -0.1721
  349MOL0     H47051   9.425   4.177   8.785 -0.2153  0.8727 -1.9390
  349MOL0     H47052   9.340   4.474   8.766  0.8859  1.1583 -2.9525
  349MOL0     H47053   9.419   4.384   8.632  0.4401 -1.7113  0.5634
  349MOL0     H47054   9.610   4.372   8.776 -0.6852  0.0448 -4.0693
  349MOL0     H47055   9.526   4.461   8.903  0.5211 -1.9878 -0.2808
  349MOL0     H47056   9.592   4.581   8.640  3.7743  0.3896  0.4008
  349MOL0     H47057   9.462   4.647   8.752 -0.9323 -1.4606  0.9802
  349MOL0     H47058   9.632   4.666   8.920 -2.5798 -0.6567 -0.4988
  349MOL0     H47059   9.756   4.594   8.810 -0.4814 -1.0274 -1.9298
  349MOL0     H47060   9.734   4.738   8.648 -1.2351  0.0641 -1.2229
  349MOL0     H47061   9.608   4.843   8.726  0.1222  1.0251  2.7451
  349MOL0     H47062   9.896   4.804   8.816  0.6115  0.3745 -2.4887
  349MOL0     H47063   9.770   4.877   8.914 -0.3866 -3.6625  0.2066
  349MOL0     H47064   9.839   4.991   8.641 -2.1983 -1.2148 -1.1737
  349MOL0     H47065   9.734   5.069   8.762 -0.6227 -1.0139 -0.5961
  349MOL0     H47066   9.861   5.176   8.978  1.1943  2.5883 -0.8998
  349MOL0     H47067  10.199   5.369   8.959  1.7842 -1.6170 -1.0228
  349MOL0     H47068  10.050   5.350   9.069  0.5770 -1.0652  0.3412
  349MOL0     H47069  10.131   5.134   9.165 -0.1361 -1.0715 -1.7705
  349MOL0     H47070  10.288   5.164   9.094  0.9745  1.3957  1.0578
  349MOL0     H47071  10.152   5.331   9.313  1.1529 -0.1009  0.8057
  349MOL0     H47072  10.306   5.377   9.223  0.4955  0.0057 -0.9862
  349MOL0     H47073  10.303   5.106   9.339  1.7766 -0.7268  2.2860
  349MOL0     H47074  10.289   5.245   9.456  2.7408  2.4048 -0.3093
  349MOL0     H47075  10.700   5.283   9.298  1.3365  2.3419 -2.5219
  349MOL0     H47076  10.845   5.472   9.381  0.6971 -0.7360  0.6902
  349MOL0     H47077  10.876   5.930   9.611  1.5337  3.7287 -1.3675
  349MOL0     H47078  11.060   6.019   9.738  0.9412 -1.0080  0.9675
  349MOL0     H47079  11.395   5.787   9.827  1.4447 -2.6007 -3.1197
  349MOL0     H47080  11.492   5.845   9.691 -0.9078  0.9693 -1.7775
  349MOL0     H47081  11.542   6.066   9.818  0.5585 -1.4268 -1.8728
  349MOL0     H47082  11.447   6.019   9.946  3.7592  1.1394  2.9876
  349MOL0     H47083  11.599   5.834  10.011  0.4655 -0.2632 -0.6947
  349MOL0     H47084  11.703   5.867   9.873  1.6118  0.6501 -0.7318
  349MOL0     H47085  11.662   6.061  10.104 -1.2401  1.7320 -1.8289
  349MOL0     H47086  11.745   6.110   9.973 -2.6725  0.9028 -0.0717
  349MOL0     H47087  11.915   5.926  10.002  2.7377  3.5621  0.6040
  349MOL0     H47088  11.831   5.861  10.124  3.0375 -0.7700 -1.4535
  349MOL0     H47089  11.907   6.149  10.126 -3.1647 -2.6465 -5.3750
  349MOL0     H47090  11.837   6.049  10.262 -0.4616  1.0729 -0.1065
  349MOL0     H47091  12.098   6.030  10.137 -2.3036  2.6035 -0.3576
  349MOL0     H47092  12.038   5.898  10.244 -1.4475  0.1309  0.3508
  349MOL0     H47093  12.069   6.197  10.300  2.6183  0.3083 -0.4382
  349MOL0     H47094  12.023   6.085  10.427  1.0384 -0.4294  0.9792
  349MOL0     H47095  11.326   5.722   9.582 -1.7105 -0.7927  0.2118
  349MOL0     H47096  11.141   5.602   9.483  1.3024 -1.5249  2.5493
  349MOL0     H47097  10.497   5.618   9.595  1.1216 -2.0406  1.5954
  349MOL0     H47098  10.360   5.433   9.504  0.7766 -0.9029  2.4263
  349MOL0     H47099   8.977   4.252   8.748 -0.8550 -0.6363 -0.0408
  349MOL0     H47100   8.824   4.116   8.869 -0.1954  0.1226 -1.6794
  349MOL0     H47101   8.712   3.707   9.070  2.0184 -0.6759 -1.0104
  349MOL0     H47102   8.579   3.536   9.184 -0.1780 -2.0631  2.4381
  349MOL0     H47103   8.423   3.357   9.480  1.0017 -0.6590  0.7950
  349MOL0     H47104   8.502   3.372   9.325 -0.0448  1.1512  1.0731
  349MOL0     H47105   8.243   3.411   9.310 -0.2193 -0.6116  1.1813
  349MOL0     H47106   8.327   3.566   9.277 -0.8646  1.4183  0.0012
  349MOL0     H47107   8.116   3.532   9.434 -1.5013  2.8238  3.2294
  349MOL0     H47108   8.231   3.654   9.462 -0.4788  0.3304 -0.6987
  349MOL0     H47109   8.233   3.388   9.614  0.7374 -0.3596  0.9364
  349MOL0     H47110   8.336   3.526   9.654  0.4152 -1.0381 -0.2210
  349MOL0     H47111   7.940   3.599   9.822  0.6849 -3.1685  4.1948
  349MOL0     H47112   8.685   3.705   9.565 -1.0199  1.3492 -0.0316
  349MOL0     H47113   8.909   3.770   9.587 -1.4621 -0.3282  0.5800
  349MOL0     H47114   8.978   3.858   9.450 -1.0709 -0.4190 -2.0780
  349MOL0     H47115   8.840   3.929   9.536  0.6522  0.2920 -1.3724
  350MOL0     O47116  10.781   6.859   2.147  0.6058  0.0263 -0.1653
  350MOL0     C47117  10.699   6.902   2.065 -0.0121 -0.6815  0.9156
  350MOL0     O47118  10.729   6.973   1.948 -0.3617  0.1358 -0.0320
  350MOL0     C47119  10.855   6.991   1.916  0.2353 -0.1406  0.2123
  350MOL0     C47120  10.950   7.051   2.002  0.6405  0.4273  0.5436
  350MOL0     C47121  11.078   7.079   1.948  0.4152 -0.0204  0.0401
  350MOL0     C47122  11.109   7.027   1.819 -0.7264  0.0536 -0.6875
  350MOL0     O47123  11.240   7.035   1.769  0.3381 -0.2024  0.4448
  350MOL0     C47124  11.311   7.154   1.785 -0.0422  0.1255  0.5882
  350MOL0     C47125  11.410   7.157   1.666  0.8329  0.0786 -0.8060
  350MOL0     C47126  11.519   7.270   1.683 -0.3374 -0.3347 -0.0481
  350MOL0     C47127  11.617   7.225   1.791 -0.3208  0.3889 -0.0542
  350MOL0     C47128  11.741   7.322   1.796  0.0470  0.3550  0.2688
  350MOL0     C47129  11.861   7.254   1.867 -0.3249  0.5291  0.7813
  350MOL0     C47130  11.994   7.320   1.834  0.1584  0.1234  0.0388
  350MOL0     C47131  12.096   7.254   1.916  0.0368 -0.1873 -0.1367
  350MOL0     N47132  12.237   7.296   1.886  0.4910  0.0019 -0.3842
  350MOL0     C47133  12.298   7.282   1.764  0.2179  0.6173  0.2428
  350MOL0     C47134  12.430   7.321   1.779 -0.1103  0.2653  0.0748
  350MOL0     C47135  12.533   7.324   1.671  0.3143 -0.1897  0.7318
  350MOL0     C47136  12.675   7.350   1.707 -0.1895 -0.2559 -0.4170
  350MOL0     C47137  12.736   7.244   1.790  0.7175  1.1785 -0.7064
  350MOL0     C47138  12.878   7.285   1.833  0.6603 -0.2990 -0.1563
  350MOL0     O47139  12.933   7.189   1.930  0.5967 -1.0120  1.1926
  350MOL0     C47140  13.065   7.191   1.951 -1.0808 -0.3562  0.1383
  350MOL0     C47141  13.151   7.097   1.893 -0.1321  0.1387 -0.0816
  350MOL0     C47142  13.292   7.121   1.887  0.8437  0.1575  1.0488
  350MOL0     C47143  13.341   7.237   1.947 -0.4007  0.7647  0.3633
  350MOL0     C47144  13.480   7.279   1.923 -0.0970 -0.9036  0.7643
  350MOL0     O47145  13.511   7.417   1.951 -0.8636  0.0129  0.8802
  350MOL0     C47146  13.643   7.459   1.959  0.6549  0.4536  1.1407
  350MOL0     C47147  13.757   7.386   1.977 -0.3148 -0.7743  0.4171
  350MOL0     C47148  13.880   7.447   2.004  0.5688 -0.0362 -0.1731
  350MOL0     C47149  13.905   7.579   1.982 -0.0179  0.1729 -0.9247
  350MOL0     O47150  14.037   7.629   1.999 -0.7342 -0.2964 -0.2416
  350MOL0     C47151  14.053   7.762   2.039 -0.1645  0.2077  0.5664
  350MOL0     C47152  14.198   7.766   2.086  0.1531  0.3560 -1.4245
  350MOL0     C47153  14.302   7.743   1.984  1.1319  0.0607  0.1996
  350MOL0     C47154  14.410   7.848   1.967  0.3956 -0.4866 -0.4551
  350MOL0     C47155  14.517   7.817   1.860 -0.4357 -0.2244  0.2057
  350MOL0     C47156  14.443   7.821   1.716  0.0581  0.0900 -0.5393
  350MOL0     C47157  14.530   7.809   1.595  0.5135 -0.1725 -0.3056
  350MOL0     C47158  14.616   7.690   1.597  1.0369  0.4421  0.1173
  350MOL0    Cl47159  14.711   7.683   1.453 -0.0446 -0.2254 -0.3336
  350MOL0     C47160  13.787   7.650   1.957 -0.1587 -0.3617  1.8188
  350MOL0     C47161  13.656   7.601   1.943 -0.2075  0.8030  0.1961
  350MOL0     O47162  13.547   7.207   1.856 -0.0915 -0.1130 -0.0272
  350MOL0     C47163  13.254   7.314   2.023  0.8705 -0.6638  0.4497
  350MOL0     C47164  13.119   7.293   2.022 -0.3398  0.1000 -0.0149
  350MOL0     N47165  12.437   7.371   1.901 -1.2225  0.3560 -0.2660
  350MOL0     N47166  12.329   7.353   1.969 -0.3315 -0.1678  0.9474
  350MOL0     C47167  11.021   6.967   1.738  0.5056  1.1501  0.2154
  350MOL0     C47168  10.897   6.943   1.791 -0.4400  0.3059 -0.0416
  350MOL0     C47169  10.557   6.892   2.102  0.0365  0.5226  0.7976
  350MOL0     C47170  10.475   6.837   2.003  0.0927 -0.2108 -0.0374
  350MOL0     C47171  10.333   6.826   2.024 -0.2179  0.5228 -0.1501
  350MOL0     C47172  10.277   6.859   2.151  0.6965  0.3052  1.2666
  350MOL0     O47173  10.136   6.846   2.171  0.0672 -0.2861  0.1616
  350MOL0     C47174  10.055   6.963   2.167  0.1199  0.3033  0.2252
  350MOL0     C47175  10.000   6.988   2.025 -0.1726 -0.2836  0.0354
  350MOL0     C47176   9.901   6.881   1.984  0.9727  0.2709 -0.1786
  350MOL0     C47177   9.744   6.904   2.011 -1.5759  0.4984 -0.2560
  350MOL0     C47178   9.674   6.784   1.954 -0.3360 -0.9810 -0.9091
  350MOL0     C47179   9.622   6.684   1.922 -0.1710 -0.3202 -0.1038
  350MOL0     C47180  10.357   6.906   2.250 -0.0501 -1.0847 -1.0698
  350MOL0     C47181  10.496   6.923   2.227  0.8123 -0.4816  0.5978
  350MOL0     C47182  10.577   6.987   2.331 -0.0807 -0.0689 -0.5435
  350MOL0     H47183  10.925   7.085   2.102 -1.1821  3.3008 -0.7638
  350MOL0     H47184  11.147   7.142   2.003  0.2264  1.5080 -1.4033
  350MOL0     H47185  11.246   7.242   1.778 -0.0063  0.0167 -2.5517
  350MOL0     H47186  11.359   7.163   1.883 -0.0805  0.0397  0.6149
  350MOL0     H47187  11.356   7.181   1.574  0.0651 -0.1031 -0.4118
  350MOL0     H47188  11.458   7.058   1.664  0.4673 -0.3138  2.7839
  350MOL0     H47189  11.467   7.366   1.697  2.3561  1.2920 -0.4732
  350MOL0     H47190  11.581   7.275   1.594  1.8770  2.2948  1.4861
  350MOL0     H47191  11.572   7.222   1.891 -1.1524 -1.4654 -0.4516
  350MOL0     H47192  11.651   7.123   1.771  0.4393  0.6469 -0.0940
  350MOL0     H47193  11.780   7.342   1.695  0.1086 -2.6835 -0.3877
  350MOL0     H47194  11.704   7.414   1.842 -1.7978 -0.8820  1.3543
  350MOL0     H47195  11.849   7.250   1.976 -1.9506 -0.1820  0.5951
  350MOL0     H47196  11.870   7.149   1.837 -1.7488 -0.6747  4.0719
  350MOL0     H47197  11.984   7.425   1.865  2.3755  0.1439  0.8669
  350MOL0     H47198  12.018   7.310   1.728  0.7414 -0.7630  0.2432
  350MOL0     H47199  12.084   7.270   2.024  3.2064 -2.9784  0.8081
  350MOL0     H47200  12.085   7.145   1.913  1.1333 -0.2946 -1.1005
  350MOL0     H47201  12.256   7.240   1.673 -0.3826  0.8107  0.4260
  350MOL0     H47202  12.539   7.227   1.621  0.1889  0.9583 -1.6217
  350MOL0     H47203  12.495   7.401   1.604 -1.7907 -1.4692  0.3668
  350MOL0     H47204  12.737   7.381   1.622  1.0364 -0.1023  0.5002
  350MOL0     H47205  12.672   7.433   1.778 -1.4221 -2.1464  1.8498
  350MOL0     H47206  12.742   7.152   1.732 -0.4669  0.4340  0.2969
  350MOL0     H47207  12.678   7.234   1.882  0.8719  0.1215 -0.7147
  350MOL0     H47208  12.875   7.386   1.876  2.1374 -0.4614  0.3851
  350MOL0     H47209  12.936   7.277   1.741 -0.9092 -1.2786 -1.1144
  350MOL0     H47210  13.102   7.019   1.836 -1.9077  0.7069  0.5945
  350MOL0     H47211  13.353   7.059   1.822  0.9115  0.9282  0.3621
  350MOL0     H47212  13.762   7.278   1.992  0.4778 -0.5105  2.2027
  350MOL0     H47213  13.970   7.388   2.013  1.4284  0.9978 -1.5699
  350MOL0     H47214  14.039   7.828   1.952 -1.2261  0.1946  0.7136
  350MOL0     H47215  13.983   7.780   2.121  0.2637 -1.6490  1.3707
  350MOL0     H47216  14.219   7.866   2.124 -0.8442 -0.5674  1.8814
  350MOL0     H47217  14.210   7.704   2.176  0.6874  0.1495 -1.6332
  350MOL0     H47218  14.348   7.643   1.981  3.1845  0.9084  1.3068
  350MOL0     H47219  14.247   7.755   1.890  1.7780  4.1927  0.1975
  350MOL0     H47220  14.467   7.836   2.060 -0.7704 -1.8866  0.1120
  350MOL0     H47221  14.369   7.950   1.971 -0.9881 -1.0394  2.0582
  350MOL0     H47222  14.568   7.722   1.881  0.2376  0.6060  2.7124
  350MOL0     H47223  14.594   7.894   1.850 -1.1057  0.9081  2.9700
  350MOL0     H47224  14.369   7.741   1.704 -0.5035  0.8099 -2.1160
  350MOL0     H47225  14.398   7.920   1.706 -1.0598 -0.1814  1.2496
  350MOL0     H47226  14.603   7.889   1.582  0.2004 -0.0204 -1.1877
  350MOL0     H47227  14.476   7.793   1.502  1.9403 -3.6286 -0.7179
  350MOL0     H47228  14.683   7.708   1.682 -0.8977 -0.5290  1.9435
  350MOL0     H47229  14.565   7.594   1.609 -0.0949  0.7929 -1.6293
  350MOL0     H47230  13.797   7.758   1.948  0.0758 -0.4918  0.3725
  350MOL0     H47231  13.561   7.647   1.920 -0.8867 -1.2079 -1.1975
  350MOL0     H47232  13.283   7.404   2.077  2.3240 -1.6436  1.3576
  350MOL0     H47233  13.045   7.365   2.056 -3.3745 -1.9086 -1.8241
  350MOL0     H47234  11.033   6.934   1.635 -0.0562 -1.4599  0.8928
  350MOL0     H47235  10.832   6.879   1.733  0.6770 -0.5213 -0.4162
  350MOL0     H47236  10.519   6.816   1.906 -0.9623  1.0749 -0.8362
  350MOL0     H47237  10.278   6.786   1.940 -0.0056  0.1846 -0.1300
  350MOL0     H47238  10.111   7.048   2.206  0.7380 -0.3168  0.7299
  350MOL0     H47239   9.961   6.944   2.221  0.3594 -0.3035  0.4390
  350MOL0     H47240  10.084   6.993   1.955 -0.5017 -2.4160 -0.5732
  350MOL0     H47241   9.950   7.085   2.034  0.6712  0.0256  2.0040
  350MOL0     H47242   9.919   6.786   2.035  0.2910 -0.2455 -0.8740
  350MOL0     H47243   9.911   6.856   1.878  2.8057  1.0771 -0.2349
  350MOL0     H47244   9.727   6.906   2.119  1.1150  1.7667  0.2398
  350MOL0     H47245   9.705   6.996   1.964 -0.5092  1.0437 -0.1095
  350MOL0     H47246   9.572   6.592   1.899 -1.3403  0.3363 -0.2581
  350MOL0     H47247  10.317   6.937   2.346  0.2974 -0.3142 -1.1685
  350MOL0     H47248  10.662   7.044   2.291  4.2615 -5.6915 -0.4994
  350MOL0     H47249  10.518   7.034   2.411  2.1840 -0.3387  1.4192
  350MOL0     H47250  10.628   6.912   2.392 -2.0898 -0.9300  0.1524
  351MOL0     O47251   2.189  10.888   3.093 -0.5455 -0.4887  0.1186
  351MOL0     C47252   2.218  10.950   2.991 -0.5512 -0.4676  0.3865
  351MOL0     O47253   2.349  10.960   2.946  0.3065 -0.2533  0.1110
  351MOL0     C47254   2.446  10.883   2.998 -0.6850 -0.4221 -0.3586
  351MOL0     C47255   2.562  10.933   3.041  0.5221  0.1302 -0.4193
  351MOL0     C47256   2.666  10.849   3.083  0.2768  0.6184  0.0292
  351MOL0     C47257   2.660  10.713   3.088 -0.3245  0.5842 -0.3114
  351MOL0     O47258   2.758  10.627   3.115 -1.0173 -0.5180  0.2146
  351MOL0     C47259   2.780  10.616   3.255  0.0154 -0.1825  0.6401
  351MOL0     C47260   2.926  10.591   3.291  0.4677 -0.2442  0.8254
  351MOL0     C47261   3.023  10.686   3.213 -0.9311  0.0502 -0.0469
  351MOL0     C47262   3.159  10.659   3.278 -1.5491 -0.0339  0.2034
  351MOL0     C47263   3.262  10.750   3.208 -0.1435 -0.3900 -0.3954
  351MOL0     C47264   3.394  10.711   3.265 -0.7982 -0.5965  1.1178
  351MOL0     C47265   3.523  10.791   3.220 -0.7100 -0.1440 -0.8201
  351MOL0     C47266   3.565  10.893   3.322  0.4000 -0.1247  0.0080
  351MOL0     N47267   3.694  10.958   3.303  0.3460  0.2327 -0.0253
  351MOL0     C47268   3.747  11.050   3.386  0.5689 -0.7686 -0.1008
  351MOL0     C47269   3.861  11.094   3.329  0.7912 -0.3007 -0.5979
  351MOL0     C47270   3.961  11.200   3.376  0.8731  0.4184  0.0784
  351MOL0     C47271   3.964  11.216   3.531 -0.1543 -0.6970 -0.9211
  351MOL0     C47272   4.077  11.296   3.590  1.0295  0.2441 -0.5169
  351MOL0     C47273   4.093  11.425   3.525  0.0783 -0.4842 -0.3627
  351MOL0     O47274   4.150  11.413   3.388  0.5081  0.4107 -0.2676
  351MOL0     C47275   4.283  11.379   3.377 -0.0528  0.2695  0.3726
  351MOL0     C47276   4.329  11.390   3.242  0.6907 -0.0689 -0.6771
  351MOL0     C47277   4.457  11.354   3.213 -0.8395 -1.1797  0.9173
  351MOL0     C47278   4.551  11.334   3.315  0.9403 -0.3017  0.0675
  351MOL0     C47279   4.687  11.322   3.283  0.3211  0.3150  0.0878
  351MOL0     O47280   4.742  11.391   3.178 -0.6389  0.0863  0.0339
  351MOL0     C47281   4.883  11.402   3.178 -0.6901 -0.6171  0.4555
  351MOL0     C47282   4.955  11.370   3.055 -0.2250 -0.0572 -0.2184
  351MOL0     C47283   5.091  11.394   3.047  0.5154 -0.2120 -0.4396
  351MOL0     C47284   5.167  11.454   3.157  0.0524 -0.8147  0.3174
  351MOL0     O47285   5.301  11.481   3.135 -0.0716  0.1218 -0.0705
  351MOL0     C47286   5.369  11.554   3.243  1.1224 -0.6076 -0.2399
  351MOL0     C47287   5.517  11.573   3.220 -0.3299  0.8613 -0.3012
  351MOL0     C47288   5.548  11.638   3.094 -0.1909  0.6491 -0.0390
  351MOL0     C47289   5.620  11.547   2.984  0.3412  0.2546 -0.0324
  351MOL0     C47290   5.634  11.635   2.862  0.9650 -0.2580  0.3545
  351MOL0     C47291   5.694  11.583   2.734  0.4577  0.3434 -0.2253
  351MOL0     C47292   5.648  11.655   2.599 -0.3833  0.9690  0.3848
  351MOL0     C47293   5.715  11.587   2.476  0.0251 -0.5852  0.2286
  351MOL0    Cl47294   5.849  11.689   2.437 -0.4268  0.6637 -0.3148
  351MOL0     C47295   5.096  11.483   3.278  0.3213  0.6075 -0.9939
  351MOL0     C47296   4.959  11.462   3.281 -0.1626  0.6946 -0.3137
  351MOL0     O47297   4.755  11.254   3.358  0.0087  0.0134 -0.3000
  351MOL0     C47298   4.511  11.335   3.451  0.1627 -0.0988 -0.2707
  351MOL0     C47299   4.373  11.349   3.474 -0.1960  0.4739 -0.5967
  351MOL0     N47300   3.883  11.018   3.216  0.6271  0.6929  0.8026
  351MOL0     N47301   3.788  10.926   3.213 -0.8449  0.3901 -1.4763
  351MOL0     C47302   2.534  10.663   3.058  0.7843  0.5016  0.2881
  351MOL0     C47303   2.430  10.742   3.013 -0.4374 -0.6935 -1.4852
  351MOL0     C47304   2.123  11.034   2.917 -0.2540  0.3369  0.2215
  351MOL0     C47305   2.169  11.132   2.823 -0.6818 -0.2592 -0.1390
  351MOL0     C47306   2.073  11.207   2.741 -1.0022  0.6896 -0.4327
  351MOL0     C47307   1.934  11.208   2.779 -0.4149 -0.2709  0.5602
  351MOL0     O47308   1.856  11.285   2.699 -0.7443  0.0661 -0.1075
  351MOL0     C47309   1.715  11.291   2.728 -0.3907  0.0173 -0.4281
  351MOL0     C47310   1.674  11.421   2.798  0.1123 -0.1482 -0.6446
  351MOL0     C47311   1.525  11.450   2.826 -0.4916  0.5420  1.1182
  351MOL0     C47312   1.437  11.458   2.702  0.2548  0.5405  0.0207
  351MOL0     C47313   1.473  11.571   2.616 -1.0053  0.8848 -0.4307
  351MOL0     C47314   1.524  11.670   2.560  0.5139  0.3347  0.1413
  351MOL0     C47315   1.891  11.126   2.886 -0.3455 -0.1632  0.3369
  351MOL0     C47316   1.979  11.042   2.953 -0.8603  0.3284 -0.8615
  351MOL0     C47317   1.911  10.964   3.064 -0.2228 -0.0434  0.0791
  351MOL0     H47318   2.585  11.039   3.048 -0.2407  0.3609 -1.2170
  351MOL0     H47319   2.749  10.893   3.137 -0.2684  0.6004  0.9035
  351MOL0     H47320   2.737  10.700   3.310  0.9662  0.7665 -0.0466
  351MOL0     H47321   2.724  10.526   3.283 -0.5298  0.2809  1.0720
  351MOL0     H47322   2.964  10.490   3.278  0.8435  0.1055 -1.0264
  351MOL0     H47323   2.936  10.616   3.398  0.0487 -2.4632  1.4191
  351MOL0     H47324   3.000  10.793   3.223  1.0474  0.7675 -2.2131
  351MOL0     H47325   3.021  10.656   3.108 -0.9528 -0.3313  0.0623
  351MOL0     H47326   3.155  10.675   3.386  1.7274  0.6853  0.3178
  351MOL0     H47327   3.194  10.556   3.267  0.9362  0.9096 -1.8568
  351MOL0     H47328   3.264  10.754   3.099 -0.3554  0.1199 -0.3832
  351MOL0     H47329   3.227  10.849   3.239 -0.0416  1.4795 -5.4462
  351MOL0     H47330   3.385  10.696   3.373  0.2178  1.0238  1.4594
  351MOL0     H47331   3.407  10.607   3.233  0.8776 -0.3234  0.8488
  351MOL0     H47332   3.498  10.838   3.124 -1.0223 -2.5573 -1.9959
  351MOL0     H47333   3.599  10.713   3.209 -1.2709 -0.8216 -0.0727
  351MOL0     H47334   3.490  10.973   3.320  0.2803 -0.1507  1.7458
  351MOL0     H47335   3.556  10.840   3.418  1.4835  0.2454  0.3329
  351MOL0     H47336   3.697  11.073   3.479 -1.1387 -1.6373 -0.7614
  351MOL0     H47337   4.058  11.178   3.330  1.4987 -2.6593  2.5222
  351MOL0     H47338   3.930  11.296   3.335 -1.0455 -0.1525  0.1152
  351MOL0     H47339   3.870  11.263   3.563  0.0240 -0.7792 -0.2614
  351MOL0     H47340   3.965  11.117   3.578 -0.0255 -1.4202 -2.3867
  351MOL0     H47341   4.164  11.230   3.590  1.8233  1.2268  1.4677
  351MOL0     H47342   4.047  11.310   3.694 -0.5599  0.4579 -0.9757
  351MOL0     H47343   4.155  11.496   3.581 -0.4738  2.1506 -2.8636
  351MOL0     H47344   3.994  11.472   3.527 -0.5196 -1.6103  2.9772
  351MOL0     H47345   4.258  11.426   3.168 -3.3439 -1.1191  2.2852
  351MOL0     H47346   4.488  11.370   3.111 -0.2309  0.8504  1.3729
  351MOL0     H47347   4.904  11.320   2.974 -1.2476  1.2813 -0.4432
  351MOL0     H47348   5.141  11.367   2.954 -2.4830 -1.4525 -1.8352
  351MOL0     H47349   5.317  11.649   3.260 -1.4554 -2.1524  1.2492
  351MOL0     H47350   5.359  11.499   3.338  2.2266  0.1611  0.3455
  351MOL0     H47351   5.555  11.625   3.309 -0.6117 -0.6398  0.7334
  351MOL0     H47352   5.565  11.475   3.229  0.4166  1.3449  1.4120
  351MOL0     H47353   5.461  11.690   3.053 -0.5255  1.5159  1.6661
  351MOL0     H47354   5.604  11.729   3.118 -0.8894  1.1570 -0.2993
  351MOL0     H47355   5.559  11.457   2.970 -3.1823  1.6281  4.0980
  351MOL0     H47356   5.714  11.509   3.024  0.1155  3.0498  3.6797
  351MOL0     H47357   5.682  11.730   2.885  1.5446 -0.6211  0.6780
  351MOL0     H47358   5.531  11.658   2.833  0.4556  1.5481  3.2110
  351MOL0     H47359   5.803  11.583   2.746  0.2226  1.2719  2.4588
  351MOL0     H47360   5.658  11.480   2.730  0.0601  0.4957 -0.6859
  351MOL0     H47361   5.659  11.763   2.594 -1.4426  1.0360 -1.6255
  351MOL0     H47362   5.543  11.627   2.590 -0.0350  0.1777 -1.8514
  351MOL0     H47363   5.754  11.487   2.496  0.4205  0.0305  2.9533
  351MOL0     H47364   5.636  11.570   2.402  2.2814  0.0674 -2.4898
  351MOL0     H47365   5.145  11.524   3.366  2.7167 -0.5924 -1.6939
  351MOL0     H47366   4.890  11.475   3.364  1.2546 -0.2301  1.0737
  351MOL0     H47367   4.586  11.328   3.530 -0.0980  0.6540  0.0608
  351MOL0     H47368   4.339  11.350   3.577 -2.8868 -0.8677 -1.3915
  351MOL0     H47369   2.531  10.554   3.058  2.1979  0.4205 -0.9342
  351MOL0     H47370   2.338  10.704   2.971  0.3771 -0.4563 -3.6452
  351MOL0     H47371   2.274  11.151   2.802 -1.1566  3.1769 -0.0583
  351MOL0     H47372   2.120  11.269   2.665  1.0860 -0.9879 -0.6021
  351MOL0     H47373   1.673  11.205   2.781 -0.3798 -0.5949 -1.3843
  351MOL0     H47374   1.660  11.282   2.633 -0.3430 -0.9021 -0.3820
  351MOL0     H47375   1.711  11.507   2.741  1.1989  0.3461  0.7685
  351MOL0     H47376   1.726  11.419   2.894 -1.5759 -1.0367  0.3089
  351MOL0     H47377   1.506  11.538   2.888 -2.1664 -0.4359  2.0868
  351MOL0     H47378   1.496  11.364   2.887 -0.6011  1.0915  1.8404
  351MOL0     H47379   1.453  11.357   2.663  5.3698  1.5397 -1.1926
  351MOL0     H47380   1.332  11.473   2.726 -1.0329 -1.2486 -3.7874
  351MOL0     H47381   1.561  11.766   2.530  1.4802 -0.7608 -2.4609
  351MOL0     H47382   1.790  11.141   2.923 -1.5153  0.0601 -2.6524
  351MOL0     H47383   1.950  10.993   3.162 -0.1219 -1.2456  0.4151
  351MOL0     H47384   1.802  10.967   3.072 -0.1358  0.3059  1.5454
  351MOL0     H47385   1.927  10.856   3.072 -1.7299 -0.1687  2.2231
  352MOL0     O47386   7.710   0.345  10.768 -0.3485 -0.2853  0.6103
  352MOL0     C47387   7.742   0.456  10.809 -0.3871 -0.9814  1.3344
  352MOL0     O47388   7.661   0.529  10.906 -0.2633  0.4860 -0.2423
  352MOL0     C47389   7.545   0.486  10.959  0.0069 -0.1015 -0.3895
  352MOL0     C47390   7.446   0.394  10.916 -0.2036 -0.8478  1.1495
  352MOL0     C47391   7.331   0.363  10.973  0.0903 -0.8479  0.4595
  352MOL0     C47392   7.301   0.432  11.095 -0.2086 -0.2689 -0.1920
  352MOL0     O47393   7.179   0.427  11.165  0.4132 -0.4534  0.0600
  352MOL0     C47394   7.059   0.401  11.096  0.5176  0.2060 -0.6463
  352MOL0     C47395   7.016   0.266  11.146  0.4175  0.4988  0.8229
  352MOL0     C47396   6.909   0.218  11.041  0.3556  0.0830  0.3067
  352MOL0     C47397   6.786   0.303  11.053  0.3952 -0.4186  0.8315
  352MOL0     C47398   6.652   0.239  11.038  0.1944  0.6524 -0.3482
  352MOL0     C47399   6.534   0.328  11.087 -0.1089 -0.4863 -0.0804
  352MOL0     C47400   6.413   0.236  11.098 -0.1531  0.1006 -0.4613
  352MOL0     C47401   6.265   0.308  11.099 -1.0252  0.4000 -0.0029
  352MOL0     N47402   6.231   0.349  10.961 -0.2112  0.0289  0.3190
  352MOL0     C47403   6.185   0.267  10.856 -0.4240 -0.3281 -0.0946
  352MOL0     C47404   6.134   0.362  10.766  0.0425 -0.3210  0.2352
  352MOL0     C47405   6.064   0.323  10.647  0.3252  0.2106  0.4615
  352MOL0     C47406   6.126   0.398  10.538  0.1995 -0.5047  0.1955
  352MOL0     C47407   6.038   0.370  10.410 -0.1754  0.1521  0.0062
  352MOL0     C47408   6.124   0.391  10.280  0.2572  0.2468 -0.2256
  352MOL0     O47409   6.218   0.287  10.263  0.2228  0.0667  0.5720
  352MOL0     C47410   6.300   0.299  10.148 -0.9028  0.0043  0.6928
  352MOL0     C47411   6.386   0.189  10.127  0.0383 -0.2533 -0.7552
  352MOL0     C47412   6.491   0.206  10.035 -0.3902  0.5629 -0.2874
  352MOL0     C47413   6.488   0.303   9.937 -0.0236  0.6169  0.1063
  352MOL0     C47414   6.594   0.328   9.841  0.9630 -0.0822  0.3109
  352MOL0     O47415   6.577   0.426   9.745  0.2223  0.2468  0.1272
  352MOL0     C47416   6.685   0.463   9.669  0.2087 -0.0874 -0.0616
  352MOL0     C47417   6.658   0.472   9.530 -0.6653  0.8185 -0.2534
  352MOL0     C47418   6.758   0.499   9.436  0.5559  0.0440 -0.9435
  352MOL0     C47419   6.891   0.519   9.477 -0.3378 -0.6953 -0.4748
  352MOL0     O47420   6.988   0.557   9.385  0.3646 -0.3997  0.4234
  352MOL0     C47421   7.116   0.598   9.426  0.1913  0.2915  0.6062
  352MOL0     C47422   7.114   0.750   9.454 -0.7006  0.3029  0.3132
  352MOL0     C47423   7.106   0.852   9.339 -0.0366 -0.4119  0.8967
  352MOL0     C47424   7.159   0.987   9.388 -0.0419  0.5559  0.1394
  352MOL0     C47425   7.172   1.090   9.270 -0.0624 -0.0005  0.5037
  352MOL0     C47426   7.237   1.220   9.312 -1.4979 -0.2484  0.1757
  352MOL0     C47427   7.209   1.274   9.446 -0.0571  0.6359  0.0065
  352MOL0     C47428   7.259   1.419   9.460  0.5469  0.9175  0.7333
  352MOL0    Cl47429   7.228   1.488   9.621  0.2522  0.2447  0.1777
  352MOL0     C47430   6.915   0.510   9.616 -0.3197  0.0713 -0.3233
  352MOL0     C47431   6.815   0.483   9.712  0.1823 -0.0312 -0.4139
  352MOL0     O47432   6.691   0.253   9.849 -0.1032 -0.3043 -0.2892
  352MOL0     C47433   6.387   0.401   9.938  0.8563 -0.4988 -0.0124
  352MOL0     C47434   6.295   0.396  10.045  0.4644  0.7100  0.2708
  352MOL0     N47435   6.174   0.493  10.817 -0.2763  0.2253  0.5246
  352MOL0     N47436   6.225   0.483  10.929 -0.7952 -0.1248  0.0126
  352MOL0     C47437   7.402   0.519  11.148 -0.4954  0.1729 -1.1875
  352MOL0     C47438   7.527   0.538  11.087  0.1775  0.0195 -1.0451
  352MOL0     C47439   7.881   0.508  10.766  0.9115  0.3769 -0.9524
  352MOL0     C47440   7.940   0.453  10.654  0.9377  0.9772  0.0918
  352MOL0     C47441   8.065   0.504  10.601 -0.8217 -0.8926  0.9434
  352MOL0     C47442   8.124   0.622  10.657 -0.3661  0.2975 -0.5614
  352MOL0     O47443   8.238   0.689  10.611  0.9657 -0.0394  0.0489
  352MOL0     C47444   8.289   0.639  10.486 -1.0311  1.2378  0.6901
  352MOL0     C47445   8.431   0.691  10.465 -0.9487  0.0552 -0.0471
  352MOL0     C47446   8.533   0.599  10.531  0.3423  0.2630 -0.1984
  352MOL0     C47447   8.674   0.661  10.519 -0.3987 -0.2348  0.1553
  352MOL0     C47448   8.721   0.686  10.380  0.1774  0.4019 -0.4807
  352MOL0     C47449   8.740   0.707  10.265 -0.2222 -0.1162  0.7027
  352MOL0     C47450   8.047   0.688  10.758  0.1029  0.8869 -0.1160
  352MOL0     C47451   7.934   0.633  10.818 -0.5333  0.0279  0.6020
  352MOL0     C47452   7.872   0.729  10.917 -0.2798 -0.3025  0.0307
  352MOL0     H47453   7.463   0.342  10.822 -1.2871  1.0648 -0.1754
  352MOL0     H47454   7.261   0.298  10.922 -0.0784  0.1064 -0.5728
  352MOL0     H47455   6.977   0.464  11.131  0.7631  0.1684  0.0257
  352MOL0     H47456   7.054   0.424  10.990  0.1381  0.5230 -0.5604
  352MOL0     H47457   6.979   0.271  11.249  0.0974  2.5467  0.6489
  352MOL0     H47458   7.099   0.195  11.154  0.7525  0.8301  0.3532
  352MOL0     H47459   6.869   0.118  11.060 -0.5894  0.6064  1.1546
  352MOL0     H47460   6.949   0.233  10.941 -0.4611  1.6123  0.1761
  352MOL0     H47461   6.798   0.346  11.153  2.3283  1.3819 -0.1012
  352MOL0     H47462   6.785   0.395  10.995  2.8608 -0.5424  0.4924
  352MOL0     H47463   6.634   0.213  10.933  1.7453  2.4062 -1.1096
  352MOL0     H47464   6.645   0.153  11.104 -1.5379  0.2812 -0.9564
  352MOL0     H47465   6.565   0.377  11.179  2.1724 -1.7160 -0.1228
  352MOL0     H47466   6.520   0.402  11.008 -1.5389 -1.9478 -1.2764
  352MOL0     H47467   6.422   0.182  11.193 -0.2660  2.9450  1.2851
  352MOL0     H47468   6.416   0.164  11.015 -0.7006 -1.0714  0.5031
  352MOL0     H47469   6.189   0.244  11.145  0.0769 -0.8919  0.0849
  352MOL0     H47470   6.278   0.393  11.168 -0.5726 -0.6190  1.2124
  352MOL0     H47471   6.166   0.160  10.851 -0.7802 -0.1887 -3.1165
  352MOL0     H47472   6.083   0.217  10.630  0.9445 -0.1023  2.7362
  352MOL0     H47473   5.956   0.335  10.650 -0.1073 -2.7060 -0.6173
  352MOL0     H47474   6.127   0.507  10.553 -0.5848 -0.6654  1.5656
  352MOL0     H47475   6.232   0.372  10.532  0.4689  0.4743  0.5612
  352MOL0     H47476   5.953   0.439  10.405  0.6557  1.1066 -1.4474
  352MOL0     H47477   6.009   0.265  10.407  1.6417 -0.4193  0.8857
  352MOL0     H47478   6.165   0.492  10.279 -3.6447  2.0129 -2.3748
  352MOL0     H47479   6.056   0.391  10.194 -0.4358 -0.1908  0.3093
  352MOL0     H47480   6.382   0.102  10.192  3.8280 -0.1051 -0.1121
  352MOL0     H47481   6.564   0.126  10.025 -1.3225 -0.6698  2.0986
  352MOL0     H47482   6.556   0.441   9.513 -1.3457  1.0604  2.8699
  352MOL0     H47483   6.738   0.488   9.330 -0.5922 -0.2672 -0.7167
  352MOL0     H47484   7.149   0.556   9.521  1.4182  1.2233  0.6186
  352MOL0     H47485   7.194   0.577   9.352  2.6185  3.0296  2.1887
  352MOL0     H47486   7.041   0.774   9.533  0.2933  1.3949  0.9430
  352MOL0     H47487   7.208   0.771   9.505 -0.6652  2.5945 -0.5722
  352MOL0     H47488   7.169   0.813   9.258  3.0109  1.8324  1.9943
  352MOL0     H47489   7.004   0.855   9.300 -2.2907 -2.6636  5.7198
  352MOL0     H47490   7.260   0.962   9.421  1.3471  1.6120 -2.8902
  352MOL0     H47491   7.105   1.030   9.472 -2.2094 -0.7633 -0.5114
  352MOL0     H47492   7.074   1.120   9.232  0.9511  2.2973 -0.4906
  352MOL0     H47493   7.220   1.037   9.187 -1.5463 -1.2883  0.4296
  352MOL0     H47494   7.347   1.220   9.305 -1.5789 -0.7997 -1.4468
  352MOL0     H47495   7.217   1.291   9.231  1.4440  0.5507  0.0278
  352MOL0     H47496   7.249   1.212   9.527  1.4459  1.9057  0.2763
  352MOL0     H47497   7.101   1.271   9.458 -0.4314 -0.1449 -2.8765
  352MOL0     H47498   7.366   1.414   9.438  0.4072  2.1500 -0.3512
  352MOL0     H47499   7.222   1.484   9.380  1.1004  0.5610  0.1843
  352MOL0     H47500   7.012   0.515   9.664 -0.8653 -1.5558  1.0520
  352MOL0     H47501   6.839   0.461   9.816 -0.4950  0.1691 -0.2107
  352MOL0     H47502   6.371   0.480   9.866 -3.4513 -0.1086  1.0860
  352MOL0     H47503   6.212   0.467  10.046  2.3689  3.4656  6.2844
  352MOL0     H47504   7.375   0.571  11.240 -0.0817 -1.2592 -0.2239
  352MOL0     H47505   7.603   0.600  11.133  0.0218 -0.2834 -0.3648
  352MOL0     H47506   7.890   0.369  10.609 -0.2316  0.6048  1.9834
  352MOL0     H47507   8.098   0.449  10.514  1.6704  1.8729 -0.0261
  352MOL0     H47508   8.229   0.676  10.402 -0.3164 -0.0969 -0.4466
  352MOL0     H47509   8.288   0.530  10.477 -0.6901  1.3908 -1.8340
  352MOL0     H47510   8.446   0.791  10.507  1.1086  0.0936 -0.7216
  352MOL0     H47511   8.453   0.685  10.358 -3.0027 -2.7707 -0.4369
  352MOL0     H47512   8.535   0.504  10.478 -3.5946 -1.2585  1.9620
  352MOL0     H47513   8.499   0.603  10.635 -2.5486  1.0405 -1.0811
  352MOL0     H47514   8.692   0.754  10.573 -2.1993  0.5396 -0.5331
  352MOL0     H47515   8.740   0.587  10.566  1.3920  0.6639 -0.8079
  352MOL0     H47516   8.763   0.741  10.165 -2.3580 -1.6605 -0.3910
  352MOL0     H47517   8.105   0.774  10.792 -0.2253  1.0548  0.0259
  352MOL0     H47518   7.768   0.758  10.898  1.2864  4.1779 -3.5246
  352MOL0     H47519   7.873   0.682  11.016  0.6611  0.0180  0.1833
  352MOL0     H47520   7.918   0.828  10.919  0.5497 -0.6062 -1.9262
  353MOL0     O47521   3.418   7.663   2.603  0.1291  0.2670  0.0353
  353MOL0     C47522   3.297   7.631   2.598  0.0316  0.3133  0.3322
  353MOL0     O47523   3.223   7.576   2.485  0.5307  0.2111  0.3962
  353MOL0     C47524   3.272   7.564   2.359 -1.4566  0.4309 -1.5713
  353MOL0     C47525   3.181   7.547   2.259  0.9424 -0.5665 -1.5284
  353MOL0     C47526   3.212   7.521   2.126 -0.3351 -0.5236 -0.4134
  353MOL0     C47527   3.342   7.529   2.083  0.4063  0.4105  1.3862
  353MOL0     O47528   3.369   7.484   1.954  0.6151  0.5266 -0.3698
  353MOL0     C47529   3.476   7.543   1.885 -0.4962 -0.0240 -0.1287
  353MOL0     C47530   3.507   7.472   1.757 -0.2825  0.0278  0.3382
  353MOL0     C47531   3.630   7.526   1.702 -0.5178  0.0271  0.0406
  353MOL0     C47532   3.641   7.491   1.554  0.6140 -0.0739  0.2734
  353MOL0     C47533   3.776   7.433   1.502  0.3243 -0.0183 -0.1552
  353MOL0     C47534   3.884   7.541   1.497 -0.1008  0.0347 -0.0927
  353MOL0     C47535   4.018   7.508   1.438 -0.8896  0.7955 -0.0006
  353MOL0     C47536   4.071   7.612   1.345 -0.2031 -0.2106  0.5295
  353MOL0     N47537   4.213   7.603   1.304  0.2085  0.2390 -0.2824
  353MOL0     C47538   4.274   7.512   1.214 -0.3945 -0.4421 -0.4279
  353MOL0     C47539   4.404   7.528   1.237 -0.8372  0.6138 -0.1420
  353MOL0     C47540   4.522   7.466   1.154 -0.1875  0.1208  0.2082
  353MOL0     C47541   4.513   7.515   1.010 -0.4987 -0.0008 -0.6826
  353MOL0     C47542   4.558   7.661   0.999 -0.0811  0.1858  0.2740
  353MOL0     C47543   4.712   7.667   0.993 -0.2034  0.4629  0.6039
  353MOL0     O47544   4.763   7.786   0.934  0.6805 -0.1249 -0.1037
  353MOL0     C47545   4.894   7.769   0.883 -0.1473 -0.2034 -0.0006
  353MOL0     C47546   4.927   7.846   0.773  0.0080  0.2673  0.3706
  353MOL0     C47547   5.055   7.836   0.712  0.1565  0.0360 -0.4519
  353MOL0     C47548   5.149   7.754   0.765  0.2445 -0.0383  0.8023
  353MOL0     C47549   5.295   7.754   0.719 -0.2851  0.2889  0.0963
  353MOL0     O47550   5.385   7.688   0.803  0.2804  0.0044  0.3347
  353MOL0     C47551   5.513   7.726   0.781 -0.8301 -0.5205  0.3761
  353MOL0     C47552   5.582   7.791   0.894  0.3906  1.3480  0.1927
  353MOL0     C47553   5.715   7.810   0.883 -0.1942 -0.2219 -0.0699
  353MOL0     C47554   5.795   7.769   0.769 -0.1324  0.0155 -1.2905
  353MOL0     O47555   5.930   7.786   0.774  0.5351  0.7007  0.2051
  353MOL0     C47556   6.009   7.771   0.652 -0.3012 -0.7622 -0.8936
  353MOL0     C47557   6.132   7.849   0.674 -0.1053 -0.6488 -0.4166
  353MOL0     C47558   6.225   7.776   0.770 -1.0914 -0.7767 -0.7067
  353MOL0     C47559   6.350   7.859   0.811 -0.4223  0.4484  0.1510
  353MOL0     C47560   6.448   7.788   0.903  0.4509  0.4947  0.2055
  353MOL0     C47561   6.385   7.738   1.031 -0.5210 -0.2530  0.1057
  353MOL0     C47562   6.490   7.699   1.128  0.2090 -0.1099  0.0143
  353MOL0     C47563   6.451   7.671   1.267  0.2771  0.0288  0.6783
  353MOL0    Cl47564   6.597   7.622   1.352 -0.0179  0.3087  0.3914
  353MOL0     C47565   5.724   7.712   0.664 -0.0448 -0.8948  0.0823
  353MOL0     C47566   5.588   7.694   0.668 -0.2667 -0.0094  0.6565
  353MOL0     O47567   5.319   7.797   0.611 -0.2820 -0.4992 -0.1347
  353MOL0     C47568   5.116   7.669   0.864  0.1740  0.1540 -0.0457
  353MOL0     C47569   4.988   7.679   0.928 -0.1348 -0.4405  0.1086
  353MOL0     N47570   4.427   7.624   1.334 -0.4722  0.3463 -0.0786
  353MOL0     N47571   4.311   7.671   1.376  0.5394  0.1660  0.0548
  353MOL0     C47572   3.444   7.560   2.173  0.3827 -0.3493 -0.6281
  353MOL0     C47573   3.412   7.563   2.310 -0.3153 -0.1627  0.3871
  353MOL0     C47574   3.207   7.618   2.719  1.1010  0.2801  0.4596
  353MOL0     C47575   3.087   7.544   2.699  0.0154  0.0935  0.1115
  353MOL0     C47576   3.008   7.517   2.809 -0.2910  1.1697 -0.4373
  353MOL0     C47577   3.044   7.553   2.938  0.3703  1.2796  0.2552
  353MOL0     O47578   2.966   7.516   3.044 -0.1588  0.2017 -0.3418
  353MOL0     C47579   3.013   7.395   3.117  0.5008 -0.6357  0.3872
  353MOL0     C47580   3.146   7.408   3.186 -0.5625 -0.6371 -0.4393
  353MOL0     C47581   3.212   7.282   3.244 -0.3303  0.3099  0.1016
  353MOL0     C47582   3.321   7.297   3.347  0.0786 -0.3207  0.8452
  353MOL0     C47583   3.393   7.170   3.388  0.1951  0.4820  0.3135
  353MOL0     C47584   3.431   7.063   3.437  0.3280 -0.6403 -0.2911
  353MOL0     C47585   3.158   7.640   2.951  0.5787  0.0630 -0.4144
  353MOL0     C47586   3.235   7.673   2.847 -0.2419 -0.6123 -0.0240
  353MOL0     C47587   3.350   7.763   2.878 -0.0437  0.4513 -0.3754
  353MOL0     H47588   3.077   7.553   2.290  1.7234 -0.8014  1.4669
  353MOL0     H47589   3.127   7.504   2.060 -0.8734  2.4047 -0.6163
  353MOL0     H47590   3.442   7.645   1.866 -0.3836 -0.1091 -0.7778
  353MOL0     H47591   3.571   7.551   1.939  0.3625  0.8071 -1.7271
  353MOL0     H47592   3.426   7.497   1.688 -0.5007  1.0181  0.9385
  353MOL0     H47593   3.514   7.365   1.781 -1.0908  0.0723  0.8212
  353MOL0     H47594   3.714   7.499   1.767  1.0568  5.6492  0.8271
  353MOL0     H47595   3.635   7.635   1.710 -2.1632 -0.0307  4.3296
  353MOL0     H47596   3.559   7.420   1.535 -0.6109  1.1106  0.9684
  353MOL0     H47597   3.619   7.581   1.495  1.6238  0.5802  0.8610
  353MOL0     H47598   3.799   7.343   1.560 -0.6016 -1.2016 -1.5245
  353MOL0     H47599   3.758   7.403   1.398  1.5797  0.3360 -0.4851
  353MOL0     H47600   3.830   7.619   1.443 -1.5742 -0.1153  1.0714
  353MOL0     H47601   3.905   7.570   1.600 -1.4893 -0.4217  0.3559
  353MOL0     H47602   3.999   7.418   1.378 -0.9103 -0.1927  1.4439
  353MOL0     H47603   4.086   7.471   1.515  2.6273 -1.5162 -3.8271
  353MOL0     H47604   4.018   7.609   1.249 -0.0525  1.1214  0.3811
  353MOL0     H47605   4.061   7.713   1.386 -2.0000  1.0564 -2.6248
  353MOL0     H47606   4.224   7.451   1.140 -0.2121 -1.8298  0.5595
  353MOL0     H47607   4.616   7.499   1.200 -0.6970 -0.0986  1.4313
  353MOL0     H47608   4.514   7.357   1.143  0.2114  0.1625 -0.6538
  353MOL0     H47609   4.571   7.444   0.951  3.7668  1.3476  1.4396
  353MOL0     H47610   4.405   7.515   0.992 -0.7996 -1.5168  0.8428
  353MOL0     H47611   4.518   7.715   1.086 -3.0960 -0.0852 -0.8508
  353MOL0     H47612   4.516   7.703   0.907 -0.7160  0.6331  0.7559
  353MOL0     H47613   4.736   7.583   0.927 -0.6968 -0.5154  1.6197
  353MOL0     H47614   4.757   7.642   1.089 -1.7058  0.3166  1.3111
  353MOL0     H47615   4.858   7.922   0.737  1.0174  0.8150 -0.4510
  353MOL0     H47616   5.097   7.908   0.643 -0.2975  1.5859  0.8158
  353MOL0     H47617   5.529   7.819   0.984 -1.2169 -0.5327 -0.1005
  353MOL0     H47618   5.767   7.857   0.966  0.0823 -1.3931  0.4431
  353MOL0     H47619   6.038   7.666   0.637 -2.2255 -1.5172  0.3567
  353MOL0     H47620   5.957   7.815   0.567  0.6974  0.4530 -0.9067
  353MOL0     H47621   6.194   7.862   0.585 -1.1692 -0.1048 -1.0920
  353MOL0     H47622   6.096   7.945   0.712  1.0806 -1.2928  2.6768
  353MOL0     H47623   6.164   7.746   0.856 -0.4528 -5.5513 -1.6789
  353MOL0     H47624   6.263   7.686   0.722  2.0672  0.1643 -0.1899
  353MOL0     H47625   6.312   7.944   0.869  1.0690  1.4300 -0.2420
  353MOL0     H47626   6.396   7.899   0.720 -0.5928 -1.6910 -0.9533
  353MOL0     H47627   6.521   7.869   0.916 -2.0526  2.4234  4.2034
  353MOL0     H47628   6.487   7.696   0.857  0.7239  0.8249 -0.2344
  353MOL0     H47629   6.319   7.818   1.067 -0.8997  0.5043 -2.1079
  353MOL0     H47630   6.322   7.655   0.997 -1.6085  1.2918 -1.9126
  353MOL0     H47631   6.573   7.770   1.120 -1.4541  1.7873 -1.4394
  353MOL0     H47632   6.546   7.615   1.086  0.6535 -0.0256  0.4318
  353MOL0     H47633   6.408   7.764   1.304 -0.2982  0.1015 -0.1421
  353MOL0     H47634   6.373   7.594   1.267  0.9975 -0.7378 -0.5868
  353MOL0     H47635   5.773   7.677   0.574 -0.6400  2.2123 -1.5959
  353MOL0     H47636   5.549   7.651   0.576  1.8251  2.8071 -1.7146
  353MOL0     H47637   5.192   7.611   0.916 -0.7610  0.3201  1.5770
  353MOL0     H47638   4.979   7.626   1.023 -0.4154  0.4955  0.6141
  353MOL0     H47639   3.550   7.564   2.152  0.3870  3.2714 -0.5755
  353MOL0     H47640   3.496   7.585   2.374  2.0413 -0.4778 -2.3850
  353MOL0     H47641   3.061   7.495   2.606 -1.8205  0.3912  0.4220
  353MOL0     H47642   2.932   7.439   2.804  1.0206 -0.1962  0.2723
  353MOL0     H47643   3.008   7.310   3.048 -0.7049 -0.1404 -0.1545
  353MOL0     H47644   2.937   7.384   3.196 -0.7723  2.2875 -0.3023
  353MOL0     H47645   3.121   7.481   3.264 -1.5227 -0.7230 -0.6528
  353MOL0     H47646   3.218   7.455   3.118  0.6579 -2.5166 -0.4997
  353MOL0     H47647   3.258   7.234   3.157  2.0409  0.1922  1.3331
  353MOL0     H47648   3.141   7.211   3.289 -0.1949  0.6599  0.8855
  353MOL0     H47649   3.392   7.368   3.304  1.9859 -1.6386  1.6860
  353MOL0     H47650   3.282   7.336   3.442 -1.4895 -0.1535  0.1559
  353MOL0     H47651   3.451   6.975   3.495  0.6488 -0.8734 -0.7506
  353MOL0     H47652   3.168   7.688   3.048  1.1209 -1.4225  0.2843
  353MOL0     H47653   3.406   7.803   2.794 -0.5920 -0.3514 -1.1516
  353MOL0     H47654   3.306   7.843   2.938  0.0073 -0.4455  0.8896
  353MOL0     H47655   3.419   7.716   2.949 -1.6343  2.2164  2.5356
  354MOL0     O47656   5.715   6.120   9.857  0.9375  0.7696 -0.1151
  354MOL0     C47657   5.636   6.217   9.835  0.0393 -0.1759 -0.2459
  354MOL0     O47658   5.674   6.342   9.812 -0.9674 -0.2830 -0.4467
  354MOL0     C47659   5.819   6.366   9.795  0.1382  0.5262 -0.6651
  354MOL0     C47660   5.869   6.383   9.664 -0.1088  0.3182 -0.3269
  354MOL0     C47661   6.005   6.404   9.641  1.0762  0.3440 -0.1269
  354MOL0     C47662   6.090   6.420   9.744 -0.0371 -0.2792 -0.8093
  354MOL0     O47663   6.225   6.442   9.711 -0.4432 -0.7779 -0.4947
  354MOL0     C47664   6.321   6.475   9.815  0.4356 -0.6823 -0.4589
  354MOL0     C47665   6.450   6.526   9.743  0.0946 -0.1510  0.9449
  354MOL0     C47666   6.565   6.547   9.839  0.0145 -0.1348 -0.2944
  354MOL0     C47667   6.699   6.608   9.789  0.0451  0.6235 -0.1578
  354MOL0     C47668   6.819   6.626   9.893 -0.7836  0.1667  0.4684
  354MOL0     C47669   6.933   6.708   9.830  0.1987 -0.1376  0.1212
  354MOL0     C47670   7.031   6.628   9.760  0.1273  0.0148  0.6142
  354MOL0     C47671   7.124   6.718   9.679  0.6932 -0.5661  0.0955
  354MOL0     N47672   7.190   6.818   9.760 -0.9472 -0.1406 -0.1735
  354MOL0     C47673   7.152   6.947   9.789  0.0880  0.6321  0.3622
  354MOL0     C47674   7.255   7.003   9.842 -0.4394  0.5207 -0.1014
  354MOL0     C47675   7.267   7.137   9.905  0.0681 -0.1324 -0.0305
  354MOL0     C47676   7.326   7.149  10.049 -0.2034  0.1116 -0.1346
  354MOL0     C47677   7.481   7.168  10.039 -0.7301 -0.3302 -0.4622
  354MOL0     C47678   7.543   7.192  10.176 -0.4845  0.1816  0.5678
  354MOL0     O47679   7.530   7.329  10.219 -0.2356 -0.4823 -0.4037
  354MOL0     C47680   7.632   7.422  10.210 -0.3517 -0.4462  0.2827
  354MOL0     C47681   7.758   7.395  10.154 -0.3156 -0.1440 -0.6514
  354MOL0     C47682   7.864   7.485  10.169  0.1927 -0.0860  0.7866
  354MOL0     C47683   7.839   7.611  10.221  0.2885 -0.1552 -0.0706
  354MOL0     C47684   7.944   7.709  10.201  0.6752  1.0209 -0.0626
  354MOL0     O47685   8.069   7.672  10.213 -0.3960 -0.1554  0.0032
  354MOL0     C47686   8.170   7.764  10.206  0.4298  0.9983 -0.3542
  354MOL0     C47687   8.224   7.797  10.085  0.4280 -0.5526  0.0094
  354MOL0     C47688   8.329   7.894  10.082  0.0817  0.6387 -0.4478
  354MOL0     C47689   8.380   7.942  10.200  0.4147  0.1785  0.8425
  354MOL0     O47690   8.498   8.007  10.224  0.0511  0.0896  0.4370
  354MOL0     C47691   8.579   8.064  10.117  0.3613  0.1316 -0.5536
  354MOL0     C47692   8.681   7.972  10.071 -0.3796 -0.0262 -0.5072
  354MOL0     C47693   8.755   8.038   9.956  0.0447 -0.4352 -0.5792
  354MOL0     C47694   8.885   7.966   9.924 -1.3528  0.3718 -0.2640
  354MOL0     C47695   8.947   8.013   9.787 -0.4747  0.0259 -0.8662
  354MOL0     C47696   9.016   7.899   9.709 -0.3858 -0.2394 -0.3128
  354MOL0     C47697   9.154   7.872   9.772 -0.4422 -0.8260  0.4127
  354MOL0     C47698   9.232   7.773   9.688 -0.2237 -0.9182  0.4781
  354MOL0    Cl47699   9.370   7.726   9.780  0.3956  0.0297 -0.1313
  354MOL0     C47700   8.321   7.899  10.319 -0.2113 -0.6209 -0.7713
  354MOL0     C47701   8.216   7.810  10.326  0.7258 -0.0942  0.1496
  354MOL0     O47702   7.905   7.824  10.174 -0.6160 -0.3419 -0.0949
  354MOL0     C47703   7.711   7.649  10.264 -0.6936  0.2685  0.9568
  354MOL0     C47704   7.603   7.556  10.259  0.5363  0.4159  0.6194
  354MOL0     N47705   7.363   6.912   9.839  0.0577 -0.6433 -0.2050
  354MOL0     N47706   7.322   6.800   9.799  0.0284 -0.5314 -0.0688
  354MOL0     C47707   6.048   6.406   9.878  0.3091 -1.1283 -0.4878
  354MOL0     C47708   5.908   6.393   9.903  0.1005  0.3040  0.4872
  354MOL0     C47709   5.494   6.192   9.851  0.3227  0.1635 -1.3126
  354MOL0     C47710   5.407   6.280   9.783 -0.1742  0.1751 -0.0058
  354MOL0     C47711   5.265   6.264   9.793  0.1609  0.6003  0.2627
  354MOL0     C47712   5.212   6.156   9.866  0.0904 -0.0240  0.4743
  354MOL0     O47713   5.076   6.136   9.858 -0.6803  0.3503  0.0896
  354MOL0     C47714   5.025   6.012   9.900 -0.6199 -0.0936 -0.0477
  354MOL0     C47715   4.884   6.001   9.864 -0.1036 -0.3950 -0.2292
  354MOL0     C47716   4.860   5.959   9.710 -0.2868  0.0821 -0.1650
  354MOL0     C47717   4.756   6.059   9.645 -0.4031 -0.1012 -0.3998
  354MOL0     C47718   4.621   6.070   9.702 -0.8082  0.0972  0.0272
  354MOL0     C47719   4.515   6.080   9.765 -0.1773 -0.0702  1.0030
  354MOL0     C47720   5.300   6.069   9.923 -0.1544  0.4467  0.3851
  354MOL0     C47721   5.436   6.095   9.933 -0.0332  0.0879  0.7072
  354MOL0     C47722   5.519   5.999  10.019 -0.6127  0.4394  0.0722
  354MOL0     H47723   5.806   6.378   9.575 -2.0169  0.6962  0.9317
  354MOL0     H47724   6.055   6.424   9.546 -1.3810  2.3883 -1.0998
  354MOL0     H47725   6.276   6.542   9.889 -0.8905 -2.3489  0.3160
  354MOL0     H47726   6.347   6.386   9.874  1.4092  0.4506  0.8691
  354MOL0     H47727   6.429   6.623   9.697  0.9994  0.5355  1.9269
  354MOL0     H47728   6.487   6.454   9.669  1.5861 -0.4300  1.9047
  354MOL0     H47729   6.588   6.448   9.881 -1.5972 -0.2811  0.3484
  354MOL0     H47730   6.527   6.591   9.932  0.6041 -0.9280  0.3372
  354MOL0     H47731   6.726   6.546   9.704 -0.2900 -1.6450  1.3135
  354MOL0     H47732   6.677   6.704   9.742  0.4375 -0.5431 -2.8691
  354MOL0     H47733   6.775   6.672   9.982 -0.9450 -1.9501  1.5506
  354MOL0     H47734   6.852   6.529   9.931 -2.8191 -1.0817 -0.7640
  354MOL0     H47735   6.883   6.791   9.779  4.7162  2.3359 -0.8151
  354MOL0     H47736   6.978   6.758   9.916  0.8519 -0.4681 -0.0240
  354MOL0     H47737   6.988   6.557   9.689  1.9225  0.8530 -1.4307
  354MOL0     H47738   7.092   6.573   9.833  1.4671  0.0790 -0.4155
  354MOL0     H47739   7.202   6.653   9.639 -0.0923 -1.2553 -0.3728
  354MOL0     H47740   7.064   6.765   9.600 -0.1057 -2.6967 -0.6525
  354MOL0     H47741   7.050   6.984   9.789 -0.2680 -0.3281  0.2268
  354MOL0     H47742   7.322   7.197   9.831 -0.7265  0.5188 -0.1144
  354MOL0     H47743   7.166   7.179   9.910 -1.2525 -2.1776 -4.5739
  354MOL0     H47744   7.291   7.243  10.094  0.8476  1.8289 -2.6243
  354MOL0     H47745   7.308   7.056  10.102  2.3997  0.4792  1.5681
  354MOL0     H47746   7.505   7.248   9.969  3.1059 -0.9282 -0.0119
  354MOL0     H47747   7.528   7.075  10.007 -3.9781 -1.7923 -1.4925
  354MOL0     H47748   7.648   7.164  10.180 -0.5850 -0.1952  0.5363
  354MOL0     H47749   7.495   7.130  10.252 -1.1249 -0.1238 -0.0762
  354MOL0     H47750   7.780   7.298  10.110  0.3673 -0.5844  0.6403
  354MOL0     H47751   7.964   7.454  10.139  0.0204 -1.6072  1.6836
  354MOL0     H47752   8.192   7.740   9.999  0.8901 -1.3137  0.3313
  354MOL0     H47753   8.365   7.906   9.980  1.6803 -2.3804 -0.3452
  354MOL0     H47754   8.508   8.094  10.040  0.2920  1.8309  0.1192
  354MOL0     H47755   8.625   8.153  10.162 -2.1646  1.1096  0.2666
  354MOL0     H47756   8.749   7.969  10.157 -0.0781 -1.5243 -0.7674
  354MOL0     H47757   8.630   7.878  10.046 -0.1645  0.1213 -1.5368
  354MOL0     H47758   8.690   8.053   9.869  0.3495 -0.0796 -0.7478
  354MOL0     H47759   8.770   8.144   9.977  0.6565 -0.3187 -1.5378
  354MOL0     H47760   8.851   7.862   9.926 -4.4367  1.2558  2.4328
  354MOL0     H47761   8.956   7.989  10.004  0.1607 -0.1357 -1.4005
  354MOL0     H47762   9.020   8.094   9.802 -0.8299  0.7963 -2.9942
  354MOL0     H47763   8.858   8.049   9.734 -1.4601 -1.4741 -0.3087
  354MOL0     H47764   8.946   7.816   9.703  1.0572 -1.3923 -2.7035
  354MOL0     H47765   9.040   7.926   9.605 -2.5149 -1.4178 -1.1703
  354MOL0     H47766   9.146   7.836   9.875 -1.1877 -0.8492  0.3542
  354MOL0     H47767   9.214   7.963   9.767 -0.3811 -0.7462 -6.2136
  354MOL0     H47768   9.178   7.690   9.642  0.8008 -1.7217  0.6891
  354MOL0     H47769   9.267   7.834   9.604  1.7731 -3.2084 -0.4612
  354MOL0     H47770   8.365   7.939  10.409  0.7514  0.1158 -1.5385
  354MOL0     H47771   8.170   7.770  10.416  4.2477 -1.9981  1.3262
  354MOL0     H47772   7.692   7.751  10.297 -1.3752  1.2918 -2.2456
  354MOL0     H47773   7.506   7.585  10.298 -0.1641 -1.9084  0.7737
  354MOL0     H47774   6.102   6.422   9.971  0.6402 -2.0084 -0.5228
  354MOL0     H47775   5.873   6.376  10.004 -2.2370  1.4528 -0.0711
  354MOL0     H47776   5.443   6.371   9.737  0.4384  0.0555  0.2272
  354MOL0     H47777   5.193   6.333   9.750  0.7914 -0.3254 -2.5121
  354MOL0     H47778   5.026   6.006  10.009  1.4413  0.5701  0.0148
  354MOL0     H47779   5.080   5.926   9.859  1.9541  0.6574  1.6023
  354MOL0     H47780   4.829   6.093   9.889 -1.3409 -0.7341 -1.5448
  354MOL0     H47781   4.846   5.925   9.933 -1.5563 -0.3787 -0.9674
  354MOL0     H47782   4.837   5.853   9.699 -0.7324 -0.1006  2.1223
  354MOL0     H47783   4.956   5.966   9.657  0.4844 -1.7697  0.8759
  354MOL0     H47784   4.793   6.161   9.662  1.9777 -0.7657 -1.1878
  354MOL0     H47785   4.739   6.050   9.538 -0.5397 -0.6089 -0.3366
  354MOL0     H47786   4.423   6.066   9.819 -0.0676 -0.7406  1.0171
  354MOL0     H47787   5.263   5.982   9.976 -1.4958  0.5749 -0.3012
  354MOL0     H47788   5.461   5.946  10.095  0.0790  2.4727  2.0944
  354MOL0     H47789   5.573   5.921   9.963 -0.9871  1.8507 -2.3913
  354MOL0     H47790   5.587   6.053  10.085  0.2068 -0.4053 -0.0493
  355MOL0     O47791   4.585   5.750   8.214 -0.9202 -0.1043 -0.2706
  355MOL0     C47792   4.526   5.693   8.115  0.2596  0.8405  0.5155
  355MOL0     O47793   4.573   5.596   8.037  0.1009  0.4392 -0.8908
  355MOL0     C47794   4.702   5.547   8.060 -0.2040 -0.2358  0.3888
  355MOL0     C47795   4.801   5.574   7.971 -0.3878  0.2668  0.8249
  355MOL0     C47796   4.923   5.509   7.984 -0.4403 -0.1873  0.1706
  355MOL0     C47797   4.948   5.412   8.090 -0.2065  1.2124 -0.4637
  355MOL0     O47798   5.059   5.332   8.094  0.4753  0.1761  0.2089
  355MOL0     C47799   5.066   5.211   8.169  1.0974 -0.4301  0.1226
  355MOL0     C47800   5.167   5.119   8.104  0.0554 -0.1136 -0.5151
  355MOL0     C47801   5.304   5.183   8.114 -0.0815  0.0800  0.5464
  355MOL0     C47802   5.350   5.206   8.263  0.9089  0.4052  0.6395
  355MOL0     C47803   5.505   5.220   8.287 -0.0603  0.4438  0.0442
  355MOL0     C47804   5.563   5.338   8.226  0.3750 -0.0634  0.3357
  355MOL0     C47805   5.718   5.347   8.233  0.8070  0.3597  0.0794
  355MOL0     C47806   5.772   5.307   8.369  0.6544 -0.9054  0.0157
  355MOL0     N47807   5.919   5.325   8.382  0.1298  0.2289 -0.0480
  355MOL0     C47808   5.982   5.295   8.505 -0.5055 -0.4213 -0.8424
  355MOL0     C47809   6.119   5.312   8.475 -0.7406 -0.6937 -1.0597
  355MOL0     C47810   6.230   5.294   8.582  0.6794  0.3211  0.6391
  355MOL0     C47811   6.369   5.327   8.522 -0.2475  0.5492 -0.2319
  355MOL0     C47812   6.487   5.330   8.627 -0.1682  0.3908  0.1278
  355MOL0     C47813   6.493   5.217   8.732 -0.0126  0.0858  0.1197
  355MOL0     O47814   6.497   5.091   8.661 -0.2876  0.7180  0.1007
  355MOL0     C47815   6.622   5.057   8.625 -0.4630  0.3596 -0.1559
  355MOL0     C47816   6.734   5.038   8.709 -0.3427  1.1003  0.2241
  355MOL0     C47817   6.864   5.001   8.656 -0.3278 -0.8425  0.4039
  355MOL0     C47818   6.872   4.968   8.514  0.0271  0.4344 -0.2413
  355MOL0     C47819   7.006   4.921   8.460  0.0360 -0.2448 -0.0980
  355MOL0     O47820   7.117   4.934   8.546 -0.1483 -0.3155 -0.6974
  355MOL0     C47821   7.230   4.868   8.517 -0.4748 -0.4018  0.3107
  355MOL0     C47822   7.278   4.779   8.610 -0.7076 -0.4655  0.7870
  355MOL0     C47823   7.405   4.729   8.595 -0.2072  0.6501 -0.7508
  355MOL0     C47824   7.479   4.750   8.478  1.1926  0.7735  0.2962
  355MOL0     O47825   7.593   4.675   8.466 -0.0054 -0.2673 -0.1977
  355MOL0     C47826   7.695   4.727   8.380 -0.2244  0.6406  0.2977
  355MOL0     C47827   7.828   4.671   8.430  1.2801  0.7546  0.2934
  355MOL0     C47828   7.933   4.708   8.334  0.6495  0.8158 -0.7775
  355MOL0     C47829   7.924   4.613   8.209 -0.2119 -0.2106  1.4550
  355MOL0     C47830   8.017   4.654   8.098 -0.2665 -0.1438 -0.6807
  355MOL0     C47831   8.000   4.560   7.985  0.0772  0.1430 -0.4564
  355MOL0     C47832   8.072   4.594   7.863 -1.2761 -0.1438  1.0914
  355MOL0     C47833   8.060   4.488   7.754 -0.1658  0.3002 -0.6984
  355MOL0    Cl47834   8.137   4.540   7.600  0.6980 -0.0766 -0.6317
  355MOL0     C47835   7.431   4.836   8.386 -0.9868  0.3019  0.5248
  355MOL0     C47836   7.305   4.901   8.400 -1.0175  0.0893  0.5570
  355MOL0     O47837   7.012   4.878   8.347  0.0126  0.1681  0.4824
  355MOL0     C47838   6.762   4.964   8.432  0.2954 -0.5749 -0.4770
  355MOL0     C47839   6.635   5.015   8.493  0.3582 -0.4831  0.4234
  355MOL0     N47840   6.128   5.365   8.347 -0.1642  0.3259 -0.6582
  355MOL0     N47841   6.008   5.361   8.289 -0.4167  0.1972  0.3848
  355MOL0     C47842   4.845   5.394   8.178 -0.5317  0.4707 -0.4420
  355MOL0     C47843   4.719   5.452   8.157  1.4705  0.0756  0.0490
  355MOL0     C47844   4.378   5.742   8.098 -0.6826  0.4794 -0.1538
  355MOL0     C47845   4.337   5.851   8.166  0.5915 -0.0316 -0.1081
  355MOL0     C47846   4.225   5.924   8.130 -1.1069 -0.1544  0.3051
  355MOL0     C47847   4.146   5.882   8.030  0.5733 -0.9667  0.1855
  355MOL0     O47848   4.037   5.967   8.003  0.1340  0.0775  0.6438
  355MOL0     C47849   3.957   5.943   7.886 -0.2401  0.9790  0.1212
  355MOL0     C47850   3.871   6.063   7.840 -1.2642 -1.1753  0.5858
  355MOL0     C47851   3.979   6.173   7.841  0.1211 -0.2102 -0.5370
  355MOL0     C47852   3.918   6.309   7.817 -0.1717  0.1925  0.4521
  355MOL0     C47853   4.033   6.404   7.795 -0.5666  1.1631 -0.8074
  355MOL0     C47854   4.115   6.492   7.788 -0.8527 -0.1483 -1.2827
  355MOL0     C47855   4.185   5.765   7.961  0.0365 -0.7847  0.4757
  355MOL0     C47856   4.298   5.683   8.001  0.0473 -0.2740 -0.0872
  355MOL0     C47857   4.323   5.554   7.944 -0.3127  0.3628 -0.4803
  355MOL0     H47858   4.772   5.638   7.888 -5.0237 -1.0681  1.1480
  355MOL0     H47859   5.007   5.531   7.920  0.7002  2.4216  2.3839
  355MOL0     H47860   5.088   5.246   8.270  0.7323 -0.3774  0.1875
  355MOL0     H47861   4.966   5.165   8.173  0.4283  1.0565  1.7956
  355MOL0     H47862   5.127   5.122   8.002  1.2862 -1.2298 -1.0425
  355MOL0     H47863   5.161   5.015   8.136 -1.2657  1.2945  4.7585
  355MOL0     H47864   5.321   5.282   8.070 -2.8178  1.8290  3.0257
  355MOL0     H47865   5.364   5.104   8.069 -2.6246 -0.5364 -2.0968
  355MOL0     H47866   5.301   5.295   8.304 -4.4128 -1.3494 -1.0729
  355MOL0     H47867   5.307   5.129   8.327 -1.0515  1.1730  0.3125
  355MOL0     H47868   5.512   5.220   8.396 -0.3789 -2.8262  0.1499
  355MOL0     H47869   5.561   5.131   8.255  2.0034  1.2874  1.1048
  355MOL0     H47870   5.529   5.341   8.122  0.0633  0.2070  0.4435
  355MOL0     H47871   5.515   5.430   8.262 -1.3057 -1.1898  1.0806
  355MOL0     H47872   5.746   5.451   8.217  0.9648  0.6320  1.9415
  355MOL0     H47873   5.745   5.273   8.157 -0.9535  0.4854 -0.6913
  355MOL0     H47874   5.720   5.372   8.440 -1.6837 -2.0745 -0.5333
  355MOL0     H47875   5.746   5.203   8.388  1.3936 -0.9063  1.0820
  355MOL0     H47876   5.934   5.262   8.597 -1.7833  0.3491 -1.1992
  355MOL0     H47877   6.205   5.352   8.671 -0.7181  0.1236  0.3923
  355MOL0     H47878   6.227   5.187   8.604 -0.5557  0.0637 -0.6434
  355MOL0     H47879   6.391   5.249   8.449  0.3107  1.1523 -0.7216
  355MOL0     H47880   6.373   5.423   8.470 -0.7712  1.5631  1.5071
  355MOL0     H47881   6.472   5.414   8.696 -1.7784  2.0987 -2.1496
  355MOL0     H47882   6.587   5.348   8.588 -0.8459  0.1483 -1.8447
  355MOL0     H47883   6.399   5.210   8.787  0.2645 -1.5386  0.4221
  355MOL0     H47884   6.576   5.232   8.802 -0.7325 -1.9778  1.4985
  355MOL0     H47885   6.730   5.042   8.818  3.9031  0.6289  0.5455
  355MOL0     H47886   6.957   5.005   8.711 -0.3439  0.5354  0.3835
  355MOL0     H47887   7.207   4.768   8.691 -1.0310 -2.0119  0.3290
  355MOL0     H47888   7.463   4.673   8.667 -2.1161  0.2017  0.4940
  355MOL0     H47889   7.668   4.701   8.277 -2.5738  1.6778  0.5836
  355MOL0     H47890   7.698   4.836   8.376  0.2596  0.6136 -3.5468
  355MOL0     H47891   7.848   4.707   8.532  0.6410 -3.3296  2.0547
  355MOL0     H47892   7.828   4.564   8.453  1.0915  0.3296 -1.5500
  355MOL0     H47893   7.927   4.811   8.299  2.6661  0.5695 -2.0096
  355MOL0     H47894   8.024   4.678   8.386 -2.0868  0.0924  4.3150
  355MOL0     H47895   7.821   4.609   8.171  0.0154  0.7138  0.7009
  355MOL0     H47896   7.957   4.515   8.246  1.3031 -0.2531  0.0994
  355MOL0     H47897   8.122   4.642   8.129 -0.3035  0.3887 -0.3383
  355MOL0     H47898   8.007   4.756   8.060 -1.7586 -0.2207 -0.5569
  355MOL0     H47899   8.011   4.455   8.012  0.7509  0.8389  2.2253
  355MOL0     H47900   7.893   4.563   7.963  0.2963  4.3869 -2.0421
  355MOL0     H47901   8.180   4.601   7.881 -0.1317  0.1765 -4.2931
  355MOL0     H47902   8.043   4.695   7.833  1.2419  0.5444  0.6644
  355MOL0     H47903   8.109   4.397   7.788 -0.8952  0.7444  1.7323
  355MOL0     H47904   7.956   4.458   7.741 -0.3814  0.7508 -0.0512
  355MOL0     H47905   7.488   4.846   8.294  2.5523 -5.0704  1.7025
  355MOL0     H47906   7.276   4.978   8.329 -3.7625 -3.6958 -2.8574
  355MOL0     H47907   6.775   4.932   8.329  1.0431  0.2012 -0.6345
  355MOL0     H47908   6.550   5.013   8.426 -1.2561 -0.6262  2.3625
  355MOL0     H47909   4.850   5.331   8.266 -1.3354  0.7898 -0.1551
  355MOL0     H47910   4.635   5.423   8.219  0.5238 -0.5567 -1.4653
  355MOL0     H47911   4.405   5.902   8.234  0.1163  3.4984 -2.0096
  355MOL0     H47912   4.190   6.007   8.190 -1.5724 -0.5417  0.5810
  355MOL0     H47913   3.889   5.863   7.918 -1.1087  0.7703 -2.0546
  355MOL0     H47914   4.024   5.916   7.803  0.3264  2.4915  0.0682
  355MOL0     H47915   3.789   6.090   7.908  1.6285  0.9715  3.5526
  355MOL0     H47916   3.825   6.046   7.743  2.1336  0.0043 -1.4163
  355MOL0     H47917   4.067   6.149   7.781  1.2038  0.2128  0.8285
  355MOL0     H47918   4.025   6.182   7.940  0.3798  0.3414 -0.7023
  355MOL0     H47919   3.854   6.295   7.729  1.5820 -1.9195 -0.5918
  355MOL0     H47920   3.865   6.341   7.906  0.6627 -1.1355  1.4628
  355MOL0     H47921   4.199   6.556   7.799  0.1072 -1.3703 -1.2514
  355MOL0     H47922   4.126   5.720   7.882  3.4353 -2.7432 -1.1668
  355MOL0     H47923   4.231   5.502   7.917  1.3811 -1.5824 -2.9940
  355MOL0     H47924   4.392   5.570   7.860 -0.5085  1.7624 -0.3986
  355MOL0     H47925   4.367   5.489   8.020 -1.7419  0.5388  0.5266
  356MOL0     O47926   5.286   4.557   7.003 -0.0663  0.5056 -0.3248
  356MOL0     C47927   5.317   4.668   7.049 -0.4415  0.0288  0.6554
  356MOL0     O47928   5.426   4.697   7.127 -0.6260 -0.7349 -0.5323
  356MOL0     C47929   5.501   4.587   7.177 -0.0704  0.3525  1.4024
  356MOL0     C47930   5.437   4.486   7.248 -0.8000  0.6967 -0.7395
  356MOL0     C47931   5.510   4.387   7.311 -0.4972 -0.2370  0.0418
  356MOL0     C47932   5.647   4.383   7.298  0.9941 -0.8118  0.6498
  356MOL0     O47933   5.710   4.289   7.376  1.0183 -0.7053 -0.1630
  356MOL0     C47934   5.848   4.270   7.375 -0.7741 -0.2535  0.1619
  356MOL0     C47935   5.877   4.140   7.441 -0.6663 -0.2377  0.3683
  356MOL0     C47936   6.030   4.111   7.466  0.1171  0.1431  0.1953
  356MOL0     C47937   6.045   3.967   7.511 -0.0103  0.4937 -0.0393
  356MOL0     C47938   6.192   3.920   7.506 -0.2272  0.3921  0.5990
  356MOL0     C47939   6.214   3.769   7.558  0.8091 -0.0728 -0.2076
  356MOL0     C47940   6.127   3.664   7.488 -0.0610  0.0165  0.0243
  356MOL0     C47941   6.177   3.517   7.492 -0.4023 -0.1893 -0.2195
  356MOL0     N47942   6.182   3.467   7.633 -0.3423  0.6619 -0.3488
  356MOL0     C47943   6.064   3.422   7.698 -0.4429  1.1580  0.1877
  356MOL0     C47944   6.109   3.392   7.823 -0.0297  0.4348  1.0834
  356MOL0     C47945   6.012   3.345   7.932  0.2250 -0.5714  1.1339
  356MOL0     C47946   6.086   3.265   8.048 -0.0297  0.1432  0.0105
  356MOL0     C47947   5.995   3.176   8.142  0.9119  0.3223  0.4963
  356MOL0     C47948   5.875   3.261   8.203 -0.3044  0.6709 -0.0086
  356MOL0     O47949   5.806   3.170   8.295 -0.8522  0.4226 -0.2975
  356MOL0     C47950   5.687   3.132   8.247  0.0894 -0.4407  0.5387
  356MOL0     C47951   5.645   3.000   8.248 -0.3670  0.4950 -0.1281
  356MOL0     C47952   5.503   2.977   8.224 -0.2293  0.4805 -0.9286
  356MOL0     C47953   5.407   3.081   8.209 -0.1714  0.1947  0.0634
  356MOL0     C47954   5.266   3.050   8.194 -0.3638 -0.0649  0.2439
  356MOL0     O47955   5.215   2.939   8.255 -0.1452  0.1582  0.6207
  356MOL0     C47956   5.087   2.893   8.225  0.3067 -0.4232 -0.3685
  356MOL0     C47957   5.031   2.890   8.099 -0.1488  0.2803  0.7999
  356MOL0     C47958   4.910   2.829   8.078 -0.3990 -0.1683  0.0559
  356MOL0     C47959   4.831   2.783   8.184  1.0130  0.5786  0.0031
  356MOL0     O47960   4.695   2.738   8.163  0.0350  0.4458 -0.5233
  356MOL0     C47961   4.630   2.646   8.262  0.6501 -1.1468  0.3662
  356MOL0     C47962   4.501   2.583   8.215 -0.7303 -0.0927 -0.2844
  356MOL0     C47963   4.438   2.509   8.329  0.0083  0.7509 -0.0225
  356MOL0     C47964   4.374   2.374   8.274 -0.3478 -0.1046  0.4918
  356MOL0     C47965   4.321   2.296   8.388  1.8710  0.1758 -0.7992
  356MOL0     C47966   4.438   2.212   8.447 -0.7080  0.5077 -0.6214
  356MOL0     C47967   4.378   2.097   8.534 -0.3787 -0.0414  0.7167
  356MOL0     C47968   4.487   2.018   8.597  0.3174 -0.2467  1.1155
  356MOL0    Cl47969   4.590   1.950   8.473  0.0494  0.0162 -0.3926
  356MOL0     C47970   4.889   2.764   8.310 -0.0418  0.9576  0.0086
  356MOL0     C47971   5.021   2.824   8.330  0.5251 -0.0050 -0.2363
  356MOL0     O47972   5.201   3.131   8.136  0.6357 -0.1856 -0.1293
  356MOL0     C47973   5.462   3.204   8.207 -0.1006  0.3005 -0.0050
  356MOL0     C47974   5.592   3.231   8.230 -0.3396  1.0053 -0.1150
  356MOL0     N47975   6.244   3.426   7.826 -0.0759  0.2901  0.1131
  356MOL0     N47976   6.295   3.461   7.715  0.6108  0.7041  0.1377
  356MOL0     C47977   5.712   4.480   7.215  0.5024  0.1130 -0.6710
  356MOL0     C47978   5.642   4.582   7.152 -0.2797 -0.3944 -0.3379
  356MOL0     C47979   5.234   4.783   7.011 -0.2035 -0.1451 -0.0027
  356MOL0     C47980   5.098   4.760   6.999 -0.1743 -0.3027  0.3417
  356MOL0     C47981   5.016   4.870   6.968  0.0473  0.0511 -0.1285
  356MOL0     C47982   5.070   4.994   6.941  0.6051  0.2869 -0.7485
  356MOL0     O47983   4.981   5.087   6.898 -0.2711 -0.3834  0.2256
  356MOL0     C47984   5.030   5.202   6.834 -0.3923 -0.8262 -0.8706
  356MOL0     C47985   4.936   5.240   6.726  0.1604 -0.7345  0.7440
  356MOL0     C47986   4.818   5.315   6.784  0.6226  0.0475  0.2111
  356MOL0     C47987   4.728   5.354   6.663  0.4609  0.4754  0.3885
  356MOL0     C47988   4.599   5.397   6.719  0.0181  0.3610  0.0712
  356MOL0     C47989   4.491   5.442   6.758 -0.4930  0.0603  0.0863
  356MOL0     C47990   5.206   5.012   6.935  0.5710  0.0135 -0.2095
  356MOL0     C47991   5.286   4.905   6.970  0.0725  0.0373  0.0381
  356MOL0     C47992   5.435   4.930   6.961 -0.7094 -0.2479  0.0658
  356MOL0     H47993   5.332   4.498   7.272  0.1726  1.7658  4.0462
  356MOL0     H47994   5.464   4.316   7.378  4.0838 -1.9601  1.7716
  356MOL0     H47995   5.893   4.269   7.275 -1.9421  1.2835 -0.4159
  356MOL0     H47996   5.895   4.351   7.431  0.7999 -0.3497 -0.9414
  356MOL0     H47997   5.846   4.061   7.372  3.8082 -1.6939 -0.3085
  356MOL0     H47998   5.822   4.138   7.535  1.6840  0.5545  1.8456
  356MOL0     H47999   6.068   4.186   7.536 -1.2165  3.8025 -2.6951
  356MOL0     H48000   6.092   4.114   7.376 -0.8999 -2.9504 -0.7501
  356MOL0     H48001   6.012   3.951   7.614  2.4258 -1.3817  0.5642
  356MOL0     H48002   5.986   3.903   7.445  1.7753 -1.2797 -0.0114
  356MOL0     H48003   6.225   3.925   7.402  0.2940 -1.9620  0.6011
  356MOL0     H48004   6.244   3.995   7.566 -0.5013 -1.3608  3.1526
  356MOL0     H48005   6.322   3.751   7.565  0.9589  0.6686 -0.4190
  356MOL0     H48006   6.183   3.764   7.662 -0.7645  0.2294 -0.6365
  356MOL0     H48007   6.127   3.691   7.381 -0.4935  0.5281  0.1514
  356MOL0     H48008   6.026   3.676   7.528 -0.5666  0.4169 -1.3096
  356MOL0     H48009   6.112   3.448   7.438  1.1014 -0.5492 -1.6594
  356MOL0     H48010   6.274   3.516   7.442  0.0021 -2.2766  0.5092
  356MOL0     H48011   5.963   3.399   7.665 -0.4519  0.3449  0.7414
  356MOL0     H48012   5.949   3.428   7.965  0.3629  0.3840 -0.9122
  356MOL0     H48013   5.946   3.269   7.888  0.1623  0.6014 -0.9051
  356MOL0     H48014   6.145   3.192   7.992  0.5049 -0.6544  1.5341
  356MOL0     H48015   6.160   3.321   8.106  1.1551 -2.1997  0.9077
  356MOL0     H48016   6.050   3.136   8.228 -2.9751 -1.3497  2.4634
  356MOL0     H48017   5.947   3.096   8.085  0.2418  1.5852 -0.7800
  356MOL0     H48018   5.814   3.299   8.121 -1.3016 -2.0499 -0.6304
  356MOL0     H48019   5.918   3.331   8.276  1.5326  0.0914 -0.4822
  356MOL0     H48020   5.714   2.918   8.262 -2.7111 -1.4017  0.8428
  356MOL0     H48021   5.478   2.872   8.236  0.7348  0.4549  1.6615
  356MOL0     H48022   5.088   2.935   8.018 -0.1177 -4.3498 -2.1114
  356MOL0     H48023   4.866   2.827   7.979  0.4269 -2.7370 -0.3325
  356MOL0     H48024   4.713   2.579   8.290  2.1278  0.4107 -0.1060
  356MOL0     H48025   4.617   2.707   8.352 -2.7787  0.9644 -1.3691
  356MOL0     H48026   4.430   2.663   8.190 -0.6346 -0.3632 -1.4948
  356MOL0     H48027   4.514   2.520   8.126  1.5386 -0.6721  0.4059
  356MOL0     H48028   4.524   2.491   8.395 -1.7066 -0.4484  2.0010
  356MOL0     H48029   4.362   2.571   8.378 -1.2720  0.4888 -1.6104
  356MOL0     H48030   4.438   2.314   8.210 -0.6091  2.6137 -2.5681
  356MOL0     H48031   4.297   2.407   8.204 -0.0412 -0.0070  0.1971
  356MOL0     H48032   4.240   2.236   8.345 -0.4432  2.9133 -0.5363
  356MOL0     H48033   4.271   2.363   8.459 -1.5907 -1.9340 -0.9634
  356MOL0     H48034   4.493   2.169   8.362 -2.4408 -1.9317 -0.6212
  356MOL0     H48035   4.489   2.284   8.512  0.5435  1.0668 -2.1426
  356MOL0     H48036   4.319   2.033   8.468  1.0978 -1.7361  0.9697
  356MOL0     H48037   4.315   2.131   8.617  1.7235  0.6006  2.1304
  356MOL0     H48038   4.550   2.084   8.658  1.4253  1.4932 -1.7531
  356MOL0     H48039   4.445   1.927   8.643 -0.5668 -1.7073 -2.2977
  356MOL0     H48040   4.856   2.690   8.383  0.3834  1.2736  0.5261
  356MOL0     H48041   5.070   2.814   8.426  0.2459  0.6542 -0.0194
  356MOL0     H48042   5.399   3.292   8.201 -0.5741  0.2140  2.5351
  356MOL0     H48043   5.621   3.335   8.243 -0.8323  0.9014  2.2788
  356MOL0     H48044   5.820   4.486   7.227  0.4001  0.4189  0.1838
  356MOL0     H48045   5.688   4.661   7.093  0.4320  1.1680  2.1034
  356MOL0     H48046   5.065   4.660   7.023 -0.2204 -0.1452  0.9504
  356MOL0     H48047   4.910   4.853   6.953 -0.4449  0.4373  2.4248
  356MOL0     H48048   5.125   5.187   6.782  1.3293  1.4410  1.3662
  356MOL0     H48049   5.030   5.293   6.895 -1.3944 -0.9521 -0.6752
  356MOL0     H48050   4.909   5.142   6.686  1.9841 -1.6612  1.6303
  356MOL0     H48051   4.990   5.304   6.656  0.6536 -2.6490 -0.7131
  356MOL0     H48052   4.849   5.408   6.833 -2.6321  2.1219 -1.3200
  356MOL0     H48053   4.763   5.262   6.862 -1.5981  1.0282 -0.6111
  356MOL0     H48054   4.776   5.439   6.613 -0.5828  0.0295 -1.4910
  356MOL0     H48055   4.717   5.270   6.593 -2.0174  0.2656  0.9487
  356MOL0     H48056   4.395   5.478   6.789 -0.9758  1.1423 -2.3760
  356MOL0     H48057   5.246   5.109   6.908 -0.4694  0.8906  1.2762
  356MOL0     H48058   5.487   4.848   6.910  1.9692 -0.3822  2.7074
  356MOL0     H48059   5.458   5.023   6.908  1.8997 -1.0189 -0.2614
  356MOL0     H48060   5.475   4.937   7.063  1.2165 -0.3263 -0.6583
  357MOL0     O48061   6.544   9.802   0.698  0.7834  0.3709  0.9239
  357MOL0     C48062   6.615   9.753   0.782 -0.3363  0.0814  0.4807
  357MOL0     O48063   6.662   9.628   0.784 -0.6537  0.0214  0.4674
  357MOL0     C48064   6.645   9.547   0.673 -0.5181 -0.2296 -0.3808
  357MOL0     C48065   6.517   9.520   0.621  0.4184  0.1320  0.8808
  357MOL0     C48066   6.504   9.421   0.526  0.2560 -0.0042 -0.0269
  357MOL0     C48067   6.616   9.350   0.476 -0.2441 -0.0484  0.0363
  357MOL0     O48068   6.586   9.267   0.377  0.1333  0.3445  0.5727
  357MOL0     C48069   6.674   9.159   0.346  0.6916 -0.3481  0.0150
  357MOL0     C48070   6.639   9.024   0.426 -0.1097 -0.0692  0.1314
  357MOL0     C48071   6.511   8.960   0.362  0.3299 -1.0206 -0.4000
  357MOL0     C48072   6.429   8.873   0.461  0.1210  0.0276 -0.1918
  357MOL0     C48073   6.288   8.839   0.412 -0.0684  0.2725  0.4926
  357MOL0     C48074   6.301   8.752   0.284  0.4845 -0.1462  0.1059
  357MOL0     C48075   6.182   8.672   0.232 -0.5451 -0.4828  0.0013
  357MOL0     C48076   6.107   8.567   0.327  0.0328 -0.6785  0.2747
  357MOL0     N48077   5.995   8.635   0.397  0.7908  0.0375  0.3763
  357MOL0     C48078   5.889   8.703   0.336  0.1671 -1.1666 -0.7556
  357MOL0     C48079   5.825   8.770   0.435 -0.2786 -0.1595  0.3451
  357MOL0     C48080   5.702   8.850   0.422 -0.6025 -0.0588  0.7014
  357MOL0     C48081   5.732   8.988   0.389 -0.6641 -0.8428  0.0973
  357MOL0     C48082   5.806   9.065   0.510 -0.2453 -0.1044  0.8463
  357MOL0     C48083   5.862   9.188   0.455  0.4302  0.1275  0.1777
  357MOL0     O48084   5.980   9.174   0.384 -0.6017  0.0832  1.2002
  357MOL0     C48085   6.062   9.285   0.335  0.8050 -0.1762 -0.6094
  357MOL0     C48086   6.171   9.250   0.250 -0.3429 -0.0720  0.0304
  357MOL0     C48087   6.252   9.350   0.208 -0.4466 -0.0252  0.6539
  357MOL0     C48088   6.230   9.492   0.228 -0.1590  0.7918 -0.3708
  357MOL0     C48089   6.317   9.596   0.175 -0.4715 -0.0028  0.4117
  357MOL0     O48090   6.289   9.717   0.206 -0.2767  0.4167  0.8877
  357MOL0     C48091   6.357   9.817   0.156 -0.2824  0.6104  0.9581
  357MOL0     C48092   6.427   9.833   0.034 -0.0887  0.7927 -0.1024
  357MOL0     C48093   6.526   9.920   0.010 -0.0238 -0.5950 -0.0529
  357MOL0     C48094   6.543  10.026   0.098  0.0639  0.0668 -0.0142
  357MOL0     O48095   6.618  10.137   0.066 -0.0037 -0.3489  0.2600
  357MOL0     C48096   6.698  10.135  -0.056 -0.3152 -1.1595  0.4148
  357MOL0     C48097   6.753  10.279  -0.070 -0.4788  0.0952  0.1109
  357MOL0     C48098   6.832  10.321   0.051  0.1396 -0.0887  0.5541
  357MOL0     C48099   6.969  10.256   0.075 -0.2179 -0.1360  0.3508
  357MOL0     C48100   7.039  10.294   0.204  0.4562 -0.7003  0.0897
  357MOL0     C48101   7.148  10.194   0.243  0.1250  0.7219 -0.4520
  357MOL0     C48102   7.258  10.174   0.141  0.4995 -0.0026  0.2113
  357MOL0     C48103   7.379  10.260   0.162 -0.8606 -0.1506  0.3429
  357MOL0    Cl48104   7.360  10.437   0.092  0.1046 -0.2609  0.2615
  357MOL0     C48105   6.453  10.032   0.209  0.3434  0.7145 -0.2371
  357MOL0     C48106   6.369   9.922   0.242  0.0988 -0.8922 -0.0707
  357MOL0     O48107   6.411   9.562   0.102 -0.7067 -0.0269  0.3646
  357MOL0     C48108   6.117   9.523   0.311  0.3450 -0.9435  0.1270
  357MOL0     C48109   6.031   9.425   0.348 -0.3965  0.2461 -0.2397
  357MOL0     N48110   5.903   8.753   0.543 -1.0962 -0.1056 -0.2715
  357MOL0     N48111   5.999   8.672   0.521  0.3133 -0.3758 -0.5324
  357MOL0     C48112   6.745   9.390   0.523 -0.0985  0.9746  0.4900
  357MOL0     C48113   6.759   9.484   0.625 -0.3456  0.1354  0.6007
  357MOL0     C48114   6.636   9.825   0.906  0.4424  0.5889  0.0352
  357MOL0     C48115   6.721   9.770   1.005  0.2487  0.4671 -0.2934
  357MOL0     C48116   6.742   9.832   1.133 -0.3427  0.7336  0.4179
  357MOL0     C48117   6.662   9.946   1.173  0.2433  0.5730  0.6619
  357MOL0     O48118   6.655  10.000   1.299  0.0020 -0.5829  0.5911
  357MOL0     C48119   6.728   9.936   1.401 -0.6168 -0.5980 -0.2733
  357MOL0     C48120   6.697   9.989   1.546 -0.5443  0.5745  0.2558
  357MOL0     C48121   6.720  10.143   1.556  0.8263  0.1926 -0.1959
  357MOL0     C48122   6.868  10.201   1.561 -0.1742 -0.5809  0.8429
  357MOL0     C48123   6.852  10.344   1.549 -1.4717  0.4682 -0.5911
  357MOL0     C48124   6.833  10.463   1.532 -0.4218 -0.1555  0.2211
  357MOL0     C48125   6.579   9.994   1.070  0.4848 -0.0469  0.2512
  357MOL0     C48126   6.568   9.951   0.934 -0.4010  0.0001  0.1829
  357MOL0     C48127   6.463  10.026   0.844 -0.1866  0.4094  0.0626
  357MOL0     H48128   6.426   9.559   0.665  0.1520  0.7987 -0.2565
  357MOL0     H48129   6.402   9.403   0.491  0.5837 -0.6985 -0.6378
  357MOL0     H48130   6.657   9.141   0.239 -1.2479  0.0645  0.2119
  357MOL0     H48131   6.780   9.183   0.347  0.7698 -0.6256 -0.8425
  357MOL0     H48132   6.618   9.064   0.526 -4.0127  2.8016 -1.5767
  357MOL0     H48133   6.715   8.945   0.429 -0.3947 -0.4195 -1.3230
  357MOL0     H48134   6.540   8.900   0.275 -0.9435 -2.4957  0.1472
  357MOL0     H48135   6.441   9.036   0.326  0.3283 -0.3012  1.0688
  357MOL0     H48136   6.484   8.783   0.488  1.9445  2.0550  3.4520
  357MOL0     H48137   6.426   8.928   0.555 -5.2039 -1.9887  1.2076
  357MOL0     H48138   6.233   8.788   0.492  0.9118 -0.0140  1.0168
  357MOL0     H48139   6.237   8.930   0.383 -6.3687 -2.5631  1.0327
  357MOL0     H48140   6.345   8.811   0.203  1.3982  0.9054  1.3180
  357MOL0     H48141   6.381   8.680   0.304 -0.3092 -0.3686  2.8805
  357MOL0     H48142   6.226   8.602   0.159 -1.5154 -1.4082  0.2803
  357MOL0     H48143   6.116   8.730   0.167  0.1149 -0.5413 -0.7370
  357MOL0     H48144   6.064   8.483   0.272 -2.2656  0.8998 -0.5177
  357MOL0     H48145   6.180   8.522   0.394 -0.0743 -0.3211  0.6364
  357MOL0     H48146   5.869   8.702   0.229  3.3281 -0.2956 -1.4512
  357MOL0     H48147   5.639   8.793   0.354 -1.6372 -0.2027  1.7437
  357MOL0     H48148   5.654   8.845   0.521  4.0602  1.3940  3.3583
  357MOL0     H48149   5.797   8.986   0.302  0.3172  0.3844  0.7711
  357MOL0     H48150   5.641   9.043   0.360  0.5458  0.3284 -1.6559
  357MOL0     H48151   5.876   9.010   0.573 -0.5964 -1.5921  0.0058
  357MOL0     H48152   5.721   9.083   0.576 -1.6696 -1.6834 -0.4652
  357MOL0     H48153   5.881   9.264   0.531 -2.8971  2.0254 -0.6683
  357MOL0     H48154   5.780   9.231   0.396  0.7774 -0.5866 -0.8509
  357MOL0     H48155   6.199   9.150   0.219 -0.0755 -0.4725  1.4713
  357MOL0     H48156   6.336   9.323   0.144 -3.0124 -1.2319 -2.4468
  357MOL0     H48157   6.413   9.755  -0.040 -3.1404 -1.1205  2.2012
  357MOL0     H48158   6.582   9.904  -0.082  3.3073  2.1708  1.2882
  357MOL0     H48159   6.789  10.075  -0.052  1.3048  1.2583  3.0451
  357MOL0     H48160   6.646  10.120  -0.152  1.5088 -1.1092 -0.6289
  357MOL0     H48161   6.814  10.292  -0.160 -0.4527 -1.6985 -0.1558
  357MOL0     H48162   6.674  10.355  -0.063 -0.1038  0.3593  1.8544
  357MOL0     H48163   6.859  10.422   0.020 -0.2155 -0.6064 -1.5930
  357MOL0     H48164   6.776  10.326   0.144 -1.4799  0.4574 -0.4163
  357MOL0     H48165   7.032  10.286  -0.009  1.3136  0.5028  1.6627
  357MOL0     H48166   6.967  10.147   0.064 -1.1217  0.0046 -1.0943
  357MOL0     H48167   6.964  10.289   0.284  1.3697 -1.6500  0.9163
  357MOL0     H48168   7.084  10.393   0.197 -0.9450  0.0980  1.6075
  357MOL0     H48169   7.191  10.220   0.341 -2.7823 -2.3914  1.8580
  357MOL0     H48170   7.091  10.102   0.256 -0.7580  0.9361 -2.4887
  357MOL0     H48171   7.225  10.191   0.038 -0.3423 -2.3645  0.0213
  357MOL0     H48172   7.282  10.068   0.153  0.0386 -0.2865 -1.2485
  357MOL0     H48173   7.416  10.268   0.265 -1.5770 -2.3963  0.8305
  357MOL0     H48174   7.460  10.212   0.108 -1.2966  0.6703 -1.0908
  357MOL0     H48175   6.468  10.110   0.283  4.7420  0.4697 -0.5951
  357MOL0     H48176   6.332   9.927   0.343  0.6508 -1.7128  0.1841
  357MOL0     H48177   6.101   9.626   0.343  1.4319 -0.1318 -1.7694
  357MOL0     H48178   5.956   9.446   0.424  0.7541  0.4312  0.8821
  357MOL0     H48179   6.831   9.347   0.473 -0.3494  0.3309  0.6008
  357MOL0     H48180   6.856   9.515   0.662  0.2518  0.1915 -0.9292
  357MOL0     H48181   6.763   9.669   1.001  1.3795  0.8665  0.9370
  357MOL0     H48182   6.793   9.777   1.212  0.8790 -2.3517 -2.2895
  357MOL0     H48183   6.834   9.960   1.389 -0.8674  0.0954 -1.2312
  357MOL0     H48184   6.707   9.828   1.398 -2.2137 -0.3666  1.1456
  357MOL0     H48185   6.747   9.932   1.625  0.9703 -0.4612 -1.3689
  357MOL0     H48186   6.591   9.967   1.559 -1.0648  1.7614 -1.6224
  357MOL0     H48187   6.663  10.175   1.643 -0.8888 -0.3633 -1.0677
  357MOL0     H48188   6.664  10.189   1.474  0.2094 -0.2599 -0.0368
  357MOL0     H48189   6.911  10.167   1.656  0.3937 -2.0448  0.1005
  357MOL0     H48190   6.930  10.155   1.483  1.1588  0.5153  1.2266
  357MOL0     H48191   6.829  10.569   1.512 -0.1376 -0.0284  0.8255
  357MOL0     H48192   6.514  10.074   1.105  1.6409  0.6819  0.7953
  357MOL0     H48193   6.389   9.953   0.810 -2.1437  1.7704  1.2164
  357MOL0     H48194   6.406  10.107   0.890  1.2522 -0.6005  4.0409
  357MOL0     H48195   6.518  10.078   0.764  0.5873 -1.2188 -0.5136
  358MOL0     O48196   0.233   0.424   2.865 -0.0604  0.1256 -0.1121
  358MOL0     C48197   0.279   0.463   2.971  0.7386  0.8697  0.6669
  358MOL0     O48198   0.404   0.440   3.015  0.0710  0.0402 -0.1369
  358MOL0     C48199   0.491   0.354   2.964  0.9985 -0.6948 -0.2447
  358MOL0     C48200   0.453   0.229   2.905  0.0915 -0.5435 -0.5749
  358MOL0     C48201   0.543   0.130   2.863  0.7010 -0.0314  0.3895
  358MOL0     C48202   0.678   0.162   2.887 -0.4256  1.0620 -0.7187
  358MOL0     O48203   0.777   0.071   2.878  0.4625  0.2264  0.2956
  358MOL0     C48204   0.774  -0.033   2.780  0.4402  0.2352 -0.6545
  358MOL0     C48205   0.899  -0.057   2.708 -0.6525  0.3335 -0.3572
  358MOL0     C48206   0.950   0.075   2.643 -0.2322  0.6743  0.6190
  358MOL0     C48207   1.081   0.057   2.557  1.0119 -0.0679 -0.0741
  358MOL0     C48208   1.105   0.176   2.463  0.1813 -0.1475  0.5988
  358MOL0     C48209   1.134   0.315   2.522  0.9242 -0.2871 -0.3475
  358MOL0     C48210   1.123   0.418   2.410 -0.7590 -0.5691  0.0057
  358MOL0     C48211   1.246   0.422   2.309  0.3513 -0.5215 -0.2890
  358MOL0     N48212   1.218   0.530   2.211  0.0459  0.6668  0.4810
  358MOL0     C48213   1.163   0.650   2.231 -0.6731  0.0321  0.6900
  358MOL0     C48214   1.172   0.715   2.110  0.4394  0.5286 -0.0505
  358MOL0     C48215   1.125   0.851   2.070 -0.9229  0.7033  0.5072
  358MOL0     C48216   1.239   0.936   2.019  0.1154 -0.1930  0.6100
  358MOL0     C48217   1.193   1.082   1.976 -0.3002  0.7024  0.2972
  358MOL0     C48218   1.157   1.174   2.090  0.5192 -0.5553 -0.2490
  358MOL0     O48219   1.261   1.199   2.187 -0.3755  0.0562  0.1502
  358MOL0     C48220   1.380   1.254   2.144  0.3569 -0.3918 -0.6233
  358MOL0     C48221   1.490   1.230   2.224  0.6196  0.1587  0.1992
  358MOL0     C48222   1.622   1.270   2.201  0.0463  0.5483  0.0783
  358MOL0     C48223   1.643   1.332   2.084 -0.1476 -0.4769  0.4718
  358MOL0     C48224   1.779   1.380   2.050 -0.4628  0.3954  0.3309
  358MOL0     O48225   1.881   1.299   2.090  0.8746  1.2286  0.1889
  358MOL0     C48226   2.004   1.352   2.088 -0.4735 -0.3380 -0.1820
  358MOL0     C48227   2.052   1.381   2.216 -0.5672 -0.2682  0.4077
  358MOL0     C48228   2.179   1.430   2.230 -0.5915  0.2015  0.2577
  358MOL0     C48229   2.261   1.454   2.122 -0.2306 -0.5428  1.1595
  358MOL0     O48230   2.390   1.487   2.149 -0.1572 -0.0862  0.5525
  358MOL0     C48231   2.489   1.487   2.047  0.4469  0.2084 -0.0899
  358MOL0     C48232   2.547   1.349   2.000 -0.5258 -1.2710  0.6343
  358MOL0     C48233   2.672   1.375   1.901  0.0128 -0.4631 -0.8014
  358MOL0     C48234   2.742   1.250   1.866 -0.4660  0.3705  0.0187
  358MOL0     C48235   2.877   1.268   1.791  0.0922  0.2914 -0.7361
  358MOL0     C48236   2.846   1.345   1.655  0.0309  0.9264 -0.6972
  358MOL0     C48237   2.979   1.358   1.582  0.7416 -0.1420  0.4208
  358MOL0     C48238   2.962   1.410   1.433  0.3813  0.0905 -0.4599
  358MOL0    Cl48239   3.127   1.416   1.363  0.2936  0.0522 -0.0946
  358MOL0     C48240   2.200   1.440   1.990 -0.0696 -0.0428  0.3845
  358MOL0     C48241   2.072   1.388   1.977 -1.5225 -0.4704 -0.0108
  358MOL0     O48242   1.793   1.488   1.993 -0.4412 -0.6275 -0.0792
  358MOL0     C48243   1.535   1.366   2.001 -0.1473 -0.6467  0.5505
  358MOL0     C48244   1.399   1.328   2.028 -0.6329  0.2861  0.1152
  358MOL0     N48245   1.247   0.630   2.023 -0.4884 -0.1139 -0.5746
  358MOL0     N48246   1.276   0.521   2.090  0.9773  0.4771  0.4468
  358MOL0     C48247   0.725   0.282   2.928 -0.2126  0.5536 -0.4724
  358MOL0     C48248   0.628   0.377   2.983 -0.5498  0.2520 -0.0601
  358MOL0     C48249   0.192   0.543   3.058  0.5805  0.3594 -0.4768
  358MOL0     C48250   0.051   0.524   3.049  0.1874  0.6954 -0.1075
  358MOL0     C48251  -0.042   0.613   3.112  0.1326  0.8134  0.3924
  358MOL0     C48252   0.003   0.718   3.184  0.6831 -0.7432 -0.4008
  358MOL0     O48253  -0.094   0.799   3.236  0.1553  0.9219  0.2890
  358MOL0     C48254  -0.065   0.931   3.260  0.2761 -0.5992  0.4128
  358MOL0     C48255  -0.189   1.019   3.295 -0.4092  0.2382  1.5054
  358MOL0     C48256  -0.309   0.947   3.354 -0.2787  0.2401 -0.0440
  358MOL0     C48257  -0.441   1.026   3.317  0.0739 -0.0571 -0.5176
  358MOL0     C48258  -0.448   1.160   3.366 -0.5814  0.1033 -0.0846
  358MOL0     C48259  -0.464   1.279   3.380 -0.3819 -0.3324  0.1192
  358MOL0     C48260   0.143   0.746   3.189  0.2994 -0.5654  1.1345
  358MOL0     C48261   0.240   0.660   3.126  0.0288 -0.0981  0.1635
  358MOL0     C48262   0.387   0.707   3.124  0.3107 -0.8644  0.6523
  358MOL0     H48263   0.346   0.211   2.896  0.0528 -0.3423 -0.5152
  358MOL0     H48264   0.502   0.036   2.826  1.6888  0.3879 -1.9136
  358MOL0     H48265   0.743  -0.125   2.831  2.7162  0.3729  1.1808
  358MOL0     H48266   0.690  -0.016   2.713 -2.6254 -0.3139  2.7147
  358MOL0     H48267   0.886  -0.139   2.637 -0.8280 -0.2313  0.3120
  358MOL0     H48268   0.978  -0.087   2.777  0.0622 -0.2572 -1.4183
  358MOL0     H48269   0.976   0.145   2.723  0.0369  0.1512  0.9982
  358MOL0     H48270   0.867   0.125   2.592  1.7981  1.5669 -2.0274
  358MOL0     H48271   1.166   0.030   2.621  0.0011  1.2227  1.9189
  358MOL0     H48272   1.071  -0.026   2.486 -0.2401 -0.5519  0.6367
  358MOL0     H48273   1.187   0.140   2.400  2.2998  0.9148  2.5888
  358MOL0     H48274   1.018   0.185   2.398  1.3404  0.5249 -0.9162
  358MOL0     H48275   1.051   0.329   2.592  0.0492 -0.4146 -1.3427
  358MOL0     H48276   1.232   0.324   2.569  0.6030 -0.9503  0.4711
  358MOL0     H48277   1.117   0.518   2.456 -0.9387  0.2082 -1.6422
  358MOL0     H48278   1.034   0.394   2.351 -1.3933  0.3293  0.5744
  358MOL0     H48279   1.343   0.440   2.357  0.6922  0.9270 -1.4685
  358MOL0     H48280   1.241   0.331   2.249 -0.6601  0.4753 -1.7887
  358MOL0     H48281   1.120   0.681   2.326 -1.7189  0.3049  0.1501
  358MOL0     H48282   1.042   0.849   1.998  0.5401  1.8522 -1.2954
  358MOL0     H48283   1.089   0.906   2.157 -3.2991  0.3701 -0.1928
  358MOL0     H48284   1.308   0.944   2.103 -1.4480  1.2571  1.8249
  358MOL0     H48285   1.291   0.888   1.935  3.3079  1.4755  1.4728
  358MOL0     H48286   1.101   1.077   1.918  0.7399  1.7669 -1.5527
  358MOL0     H48287   1.275   1.111   1.910 -0.3390 -2.5487 -1.4200
  358MOL0     H48288   1.078   1.125   2.147  0.3558  2.5337  2.5001
  358MOL0     H48289   1.101   1.262   2.057 -2.3034 -2.1834 -0.1204
  358MOL0     H48290   1.473   1.178   2.318 -0.8341  1.9790  0.9958
  358MOL0     H48291   1.709   1.259   2.266  1.7830  3.5192 -1.5373
  358MOL0     H48292   1.984   1.346   2.293 -0.7087 -1.8761 -0.4112
  358MOL0     H48293   2.212   1.447   2.332 -0.8885 -1.7278  0.7137
  358MOL0     H48294   2.446   1.536   1.960  0.6572 -2.8786 -2.0852
  358MOL0     H48295   2.571   1.550   2.083  1.2983  0.6819 -2.7157
  358MOL0     H48296   2.583   1.294   2.088  0.7801 -3.8268 -1.3521
  358MOL0     H48297   2.473   1.279   1.961 -0.3448 -1.3754  0.4756
  358MOL0     H48298   2.637   1.438   1.819  1.9705  2.6133  0.5356
  358MOL0     H48299   2.747   1.439   1.948  0.5766 -0.1609 -2.0966
  358MOL0     H48300   2.684   1.180   1.806  2.7493 -0.5545 -2.2867
  358MOL0     H48301   2.770   1.197   1.958  0.9937 -0.6417 -0.9497
  358MOL0     H48302   2.933   1.174   1.792  2.6028  1.6367  2.3856
  358MOL0     H48303   2.931   1.334   1.859 -2.9804  0.3005  1.9249
  358MOL0     H48304   2.781   1.288   1.589  0.8673  1.2952 -1.8728
  358MOL0     H48305   2.791   1.438   1.676 -0.9465  0.4063 -0.9082
  358MOL0     H48306   3.023   1.258   1.572  1.7415  0.2434  0.8005
  358MOL0     H48307   3.043   1.428   1.636  0.7309  0.3902 -0.2500
  358MOL0     H48308   2.902   1.343   1.371 -0.9990  0.9044 -0.0558
  358MOL0     H48309   2.915   1.509   1.431 -2.0998 -1.0288 -1.3220
  358MOL0     H48310   2.247   1.452   1.892  0.3169 -1.3846  0.3888
  358MOL0     H48311   2.028   1.373   1.879  2.9706  1.3288 -2.6184
  358MOL0     H48312   1.534   1.443   1.924 -1.8152 -4.1246 -3.2987
  358MOL0     H48313   1.313   1.351   1.967 -0.4190  2.6644  0.6100
  358MOL0     H48314   0.831   0.292   2.946  0.0652 -2.7556  0.4481
  358MOL0     H48315   0.652   0.475   3.024  2.0234  0.9709 -2.9452
  358MOL0     H48316   0.014   0.434   3.000  1.7461 -1.3595  2.2804
  358MOL0     H48317  -0.148   0.590   3.106  0.2038  0.0857  1.6404
  358MOL0     H48318  -0.015   0.968   3.169 -0.2583  0.5940  0.5823
  358MOL0     H48319  -0.002   0.931   3.349 -0.6453 -2.1459  1.1034
  358MOL0     H48320  -0.231   1.062   3.204 -3.5974  3.5910  4.2317
  358MOL0     H48321  -0.157   1.106   3.354  1.7447  0.7607 -0.2792
  358MOL0     H48322  -0.288   0.937   3.461  1.6932 -2.8582 -0.5798
  358MOL0     H48323  -0.321   0.842   3.322  0.3895 -0.1812  1.0420
  358MOL0     H48324  -0.449   1.030   3.208  2.2485  1.0069 -0.6862
  358MOL0     H48325  -0.529   0.978   3.361  1.0033 -1.3784 -0.0693
  358MOL0     H48326  -0.485   1.383   3.398 -0.0516 -0.0995 -0.8086
  358MOL0     H48327   0.185   0.832   3.241 -2.5492  2.6693 -1.4027
  358MOL0     H48328   0.444   0.647   3.195  1.2222 -0.4041  0.3186
  358MOL0     H48329   0.436   0.697   3.027 -0.3125  2.0543 -0.0474
  358MOL0     H48330   0.388   0.809   3.162 -2.1066 -1.6187  3.1088
  359MOL0     O48331   4.813   9.655   8.471  0.4420 -0.6367 -0.2422
  359MOL0     C48332   4.809   9.628   8.587 -0.1685  0.4456  0.8789
  359MOL0     O48333   4.913   9.642   8.674  0.6570  0.5020 -0.2076
  359MOL0     C48334   5.035   9.672   8.624  0.0288  0.8371 -0.0174
  359MOL0     C48335   5.094   9.797   8.663  0.7219  0.5829 -0.5901
  359MOL0     C48336   5.226   9.832   8.620 -0.5436  0.3086 -0.3258
  359MOL0     C48337   5.293   9.756   8.521 -0.3143  0.3829  1.2502
  359MOL0     O48338   5.414   9.800   8.480  0.4211  0.4181  0.5990
  359MOL0     C48339   5.516   9.697   8.501  0.3401  0.0345 -1.0195
  359MOL0     C48340   5.647   9.739   8.429  0.3314 -0.9142 -0.0476
  359MOL0     C48341   5.628   9.703   8.278  0.6823 -0.4645 -0.5942
  359MOL0     C48342   5.740   9.774   8.197 -0.2687 -0.2836  0.9464
  359MOL0     C48343   5.724   9.745   8.048  0.2763  0.0536 -0.1577
  359MOL0     C48344   5.852   9.788   7.978  0.5000 -0.3431  0.5488
  359MOL0     C48345   5.822   9.825   7.835  0.2021  0.5658  0.1229
  359MOL0     C48346   5.759   9.710   7.753  0.5926 -0.3220  0.7300
  359MOL0     N48347   5.745   9.758   7.615 -0.2638 -0.0096 -0.0640
  359MOL0     C48348   5.641   9.839   7.578  0.1379  0.1093  0.5947
  359MOL0     C48349   5.672   9.896   7.468  0.3591  0.8062 -0.0642
  359MOL0     C48350   5.596  10.002   7.385 -0.1348 -0.0711 -0.6568
  359MOL0     C48351   5.632  10.150   7.429 -0.9493  0.2318  0.6879
  359MOL0     C48352   5.786  10.167   7.437 -0.7898  0.1791 -0.3666
  359MOL0     C48353   5.864  10.160   7.304 -0.1249  0.2006  0.5096
  359MOL0     O48354   5.992  10.220   7.313  0.7109 -0.0146  0.4064
  359MOL0     C48355   6.103  10.136   7.330 -0.1885 -0.0600 -0.4443
  359MOL0     C48356   6.224  10.185   7.292 -0.0447 -0.4544  0.1100
  359MOL0     C48357   6.346  10.106   7.301  0.2910  0.5564  0.6501
  359MOL0     C48358   6.345   9.982   7.378  0.1515 -0.8738  0.0182
  359MOL0     C48359   6.466   9.895   7.385 -0.4977  0.2817  0.1126
  359MOL0     O48360   6.557   9.930   7.293 -0.4756  0.2864 -0.3359
  359MOL0     C48361   6.675   9.859   7.286 -0.0719 -0.4142  0.2043
  359MOL0     C48362   6.761   9.830   7.396 -0.4376 -0.2641 -0.8892
  359MOL0     C48363   6.882   9.759   7.382 -0.6858 -0.2023 -0.6847
  359MOL0     C48364   6.924   9.705   7.261  0.4592  0.2224  0.0666
  359MOL0     O48365   7.037   9.629   7.239  0.7924  1.0832 -0.0576
  359MOL0     C48366   7.104   9.581   7.357 -0.6870 -0.6408  0.4162
  359MOL0     C48367   7.214   9.483   7.350 -0.8067 -0.2323  0.3451
  359MOL0     C48368   7.304   9.485   7.470  0.0727  0.3442  0.1578
  359MOL0     C48369   7.406   9.375   7.468 -0.7883  0.5080  0.0933
  359MOL0     C48370   7.524   9.430   7.549  0.5500  0.3085  0.0937
  359MOL0     C48371   7.645   9.348   7.525 -0.7899  0.0644  0.1537
  359MOL0     C48372   7.638   9.201   7.547 -0.3398  0.5756  0.6282
  359MOL0     C48373   7.769   9.139   7.581 -1.4182  0.3683 -0.7301
  359MOL0    Cl48374   7.895   9.140   7.455 -0.0769  0.1743  0.4052
  359MOL0     C48375   6.838   9.719   7.152 -0.8538  0.3382 -1.4239
  359MOL0     C48376   6.714   9.790   7.162  0.1035  0.1597  0.0018
  359MOL0     O48377   6.484   9.802   7.468  0.5497  0.5497  0.4559
  359MOL0     C48378   6.221   9.940   7.429  0.3173  0.4427  0.3707
  359MOL0     C48379   6.105  10.015   7.397 -1.3044 -0.1309 -0.6357
  359MOL0     N48380   5.790   9.834   7.425  0.7748 -0.2134  0.5313
  359MOL0     N48381   5.835   9.754   7.517  0.6176  0.6035 -0.9995
  359MOL0     C48382   5.232   9.640   8.472 -0.5257  0.2043 -0.2792
  359MOL0     C48383   5.113   9.595   8.535 -0.0182  0.2065 -0.7049
  359MOL0     C48384   4.682   9.554   8.634  0.0510  0.0212  0.1869
  359MOL0     C48385   4.668   9.550   8.772 -0.4389  0.6490  0.0041
  359MOL0     C48386   4.558   9.500   8.835 -0.0706 -0.3237 -0.6996
  359MOL0     C48387   4.455   9.439   8.765  0.2427 -0.0373 -0.4339
  359MOL0     O48388   4.352   9.402   8.840 -0.1011 -0.1116  0.4519
  359MOL0     C48389   4.254   9.308   8.790  0.0441 -0.1758  0.2101
  359MOL0     C48390   4.172   9.241   8.896  0.5102  0.2455 -0.1439
  359MOL0     C48391   4.104   9.116   8.842 -0.8555 -0.6638 -0.0398
  359MOL0     C48392   4.036   9.044   8.959 -0.5192  0.4176 -0.5275
  359MOL0     C48393   3.975   8.926   8.900  0.0556 -0.1348 -0.1304
  359MOL0     C48394   3.931   8.821   8.848 -0.1466  0.1505 -1.0257
  359MOL0     C48395   4.465   9.450   8.625  0.3533  0.0923  0.1247
  359MOL0     C48396   4.579   9.499   8.561  0.4758  0.3882 -0.0592
  359MOL0     C48397   4.589   9.480   8.409 -0.1839  0.1861  0.3402
  359MOL0     H48398   5.039   9.865   8.727 -0.0160 -0.4695 -0.0752
  359MOL0     H48399   5.255   9.927   8.664 -2.1141  0.8568 -0.3785
  359MOL0     H48400   5.528   9.687   8.609 -3.0485 -1.8387 -0.6939
  359MOL0     H48401   5.483   9.598   8.467 -1.5020  0.4507 -0.5063
  359MOL0     H48402   5.741   9.698   8.467  0.7851 -0.1717 -0.3540
  359MOL0     H48403   5.662   9.846   8.447  1.1452 -1.2987  1.8284
  359MOL0     H48404   5.527   9.730   8.246  1.4486  0.0058 -2.7172
  359MOL0     H48405   5.638   9.595   8.268  1.5991 -0.1538 -4.1723
  359MOL0     H48406   5.723   9.880   8.219  1.0217 -0.1677  1.4553
  359MOL0     H48407   5.841   9.753   8.233  0.7783 -1.9850 -2.5426
  359MOL0     H48408   5.711   9.639   8.023 -1.8774  0.3789 -0.6767
  359MOL0     H48409   5.644   9.805   8.004  1.7066  0.6200 -2.0819
  359MOL0     H48410   5.881   9.875   8.038  1.8432 -0.7657  0.5277
  359MOL0     H48411   5.933   9.715   7.970  2.4421  1.8713 -1.7652
  359MOL0     H48412   5.912   9.861   7.783 -0.9854  1.7276 -1.2324
  359MOL0     H48413   5.752   9.908   7.830 -3.1199 -2.0219  0.5037
  359MOL0     H48414   5.821   9.621   7.768  0.6853 -0.2400  0.8382
  359MOL0     H48415   5.662   9.687   7.798 -0.5995 -0.7009 -1.8723
  359MOL0     H48416   5.550   9.850   7.636  0.4975  0.1813  1.1537
  359MOL0     H48417   5.623   9.994   7.279  0.5764 -0.3543 -0.4557
  359MOL0     H48418   5.489   9.978   7.380  0.3827 -2.4826 -3.6745
  359MOL0     H48419   5.600  10.210   7.343  2.9327  1.7719  0.1224
  359MOL0     H48420   5.581  10.169   7.525  0.1549 -0.5909  1.4690
  359MOL0     H48421   5.831  10.099   7.510 -0.8406 -1.3248 -1.6888
  359MOL0     H48422   5.801  10.265   7.485 -1.0236 -0.6598  1.5156
  359MOL0     H48423   5.800  10.217   7.236 -1.7181 -3.0634 -0.9533
  359MOL0     H48424   5.880  10.058   7.268  1.3610 -0.1381  1.9953
  359MOL0     H48425   6.231  10.281   7.242 -0.4858  0.3273  1.4839
  359MOL0     H48426   6.434  10.147   7.253 -2.0543  0.8680 -3.9679
  359MOL0     H48427   6.728   9.849   7.497 -2.0815  1.2284 -1.6555
  359MOL0     H48428   6.924   9.732   7.478  0.6047 -3.3447 -2.0369
  359MOL0     H48429   7.145   9.675   7.395 -0.4746  1.7402 -4.7455
  359MOL0     H48430   7.038   9.532   7.428  2.7932 -3.1898  2.1834
  359MOL0     H48431   7.173   9.382   7.336  0.4573 -0.8835  1.1516
  359MOL0     H48432   7.275   9.518   7.266 -1.1067  2.8828  1.2904
  359MOL0     H48433   7.349   9.584   7.458  2.1432 -0.3579  1.4971
  359MOL0     H48434   7.243   9.457   7.556 -1.6594 -2.2474 -1.7713
  359MOL0     H48435   7.435   9.359   7.364  0.4734 -1.6293  0.7157
  359MOL0     H48436   7.368   9.283   7.513  2.7254 -1.6950 -1.0188
  359MOL0     H48437   7.495   9.421   7.654  3.1086 -0.2120  0.8140
  359MOL0     H48438   7.547   9.533   7.521 -0.6553  0.4730 -0.3387
  359MOL0     H48439   7.686   9.380   7.429 -0.0739  1.1595  0.8146
  359MOL0     H48440   7.715   9.383   7.601 -0.7583  0.4626 -0.0595
  359MOL0     H48441   7.593   9.164   7.454  0.3895  0.7323  0.2008
  359MOL0     H48442   7.573   9.174   7.630  1.5862  0.8693  2.3079
  359MOL0     H48443   7.798   9.186   7.675 -2.4335 -0.1664 -0.1232
  359MOL0     H48444   7.762   9.035   7.616  1.5859 -0.1939 -1.5013
  359MOL0     H48445   6.862   9.654   7.068  1.7450 -0.7437  0.0434
  359MOL0     H48446   6.646   9.775   7.079 -0.5451  0.2548  0.5149
  359MOL0     H48447   6.214   9.846   7.482 -0.6006  1.5852  2.3993
  359MOL0     H48448   6.016   9.964   7.434 -0.2551 -3.1139 -1.9147
  359MOL0     H48449   5.284   9.581   8.397  1.8850 -0.7080  1.9239
  359MOL0     H48450   5.076   9.498   8.502 -0.9919  0.8606 -1.6070
  359MOL0     H48451   4.752   9.575   8.835  1.3852 -3.6317 -0.3512
  359MOL0     H48452   4.557   9.498   8.944 -2.2490 -1.0457 -0.6845
  359MOL0     H48453   4.320   9.236   8.741 -1.9772 -1.0105 -1.4023
  359MOL0     H48454   4.188   9.361   8.721  1.4551 -0.4515 -1.3892
  359MOL0     H48455   4.094   9.314   8.920 -1.4439 -0.6178 -3.2837
  359MOL0     H48456   4.233   9.221   8.984  2.2922 -2.5364 -1.8405
  359MOL0     H48457   4.183   9.053   8.802  3.0759  0.5214  4.8092
  359MOL0     H48458   4.034   9.140   8.762 -1.6861 -0.3620  0.7551
  359MOL0     H48459   4.111   9.007   9.029 -2.2972 -1.0855  0.6847
  359MOL0     H48460   3.960   9.106   9.008  1.0713  3.5150 -1.7098
  359MOL0     H48461   3.881   8.730   8.822  0.5260 -1.2952  2.2995
  359MOL0     H48462   4.384   9.414   8.562 -0.8462  1.9526  0.5190
  359MOL0     H48463   4.646   9.551   8.349 -3.0976  0.8142 -1.9544
  359MOL0     H48464   4.634   9.381   8.396  0.8637  0.2981  2.6347
  359MOL0     H48465   4.487   9.488   8.369 -0.2766 -0.0918  0.5245
  360MOL0     O48466   2.558   3.849   2.471 -0.4676 -0.0407 -0.2109
  360MOL0     C48467   2.620   3.787   2.558 -0.9626 -0.4929 -0.7370
  360MOL0     O48468   2.555   3.734   2.666 -0.8328  0.1544 -0.1527
  360MOL0     C48469   2.419   3.765   2.683  0.2795 -0.5273 -0.1783
  360MOL0     C48470   2.376   3.840   2.794  0.0619  0.1509  0.5012
  360MOL0     C48471   2.235   3.855   2.823  0.5798 -0.4218  0.4781
  360MOL0     C48472   2.143   3.809   2.736  0.1880 -0.1024 -0.1023
  360MOL0     O48473   2.012   3.821   2.772 -0.2170  0.1309  0.3023
  360MOL0     C48474   1.919   3.730   2.720  0.3993 -0.0471 -0.6053
  360MOL0     C48475   1.789   3.749   2.799  0.0472  1.0015 -0.3961
  360MOL0     C48476   1.678   3.665   2.738 -1.1361 -0.2025  0.2589
  360MOL0     C48477   1.546   3.689   2.793  0.7625 -1.1747 -0.3841
  360MOL0     C48478   1.444   3.603   2.730 -0.3703  0.1717 -0.1171
  360MOL0     C48479   1.300   3.649   2.765  0.1593 -0.6107  0.5392
  360MOL0     C48480   1.193   3.562   2.695  0.3483 -0.1203  0.7984
  360MOL0     C48481   1.047   3.590   2.745 -0.7986  0.2772  0.0187
  360MOL0     N48482   0.979   3.696   2.662 -0.2942  0.1464  0.6023
  360MOL0     C48483   1.006   3.830   2.655  0.5715  0.3134  0.3468
  360MOL0     C48484   0.920   3.872   2.566 -0.7957  0.2559  0.0380
  360MOL0     C48485   0.909   4.021   2.529  0.4676  0.0930  0.1775
  360MOL0     C48486   1.029   4.083   2.459  0.4451 -0.0775  0.7025
  360MOL0     C48487   1.043   4.027   2.314  0.0172  0.0482 -0.0826
  360MOL0     C48488   1.184   4.029   2.262 -0.2110  1.0427  0.5484
  360MOL0     O48489   1.280   3.965   2.351 -0.2837 -0.1038 -0.2770
  360MOL0     C48490   1.411   3.969   2.320 -0.8138 -0.5207  0.1616
  360MOL0     C48491   1.503   3.884   2.395  1.5593 -0.4964 -0.1101
  360MOL0     C48492   1.632   3.876   2.348  0.0940 -0.4417 -0.5065
  360MOL0     C48493   1.676   3.953   2.231 -0.3805  0.3916 -0.5457
  360MOL0     C48494   1.812   3.938   2.178 -1.1224  0.1735  0.2550
  360MOL0     O48495   1.905   3.855   2.240  0.2632 -0.4554 -0.4668
  360MOL0     C48496   2.014   3.795   2.176  0.6237 -0.0088  0.6483
  360MOL0     C48497   2.130   3.771   2.254 -0.1763  0.1535 -0.4221
  360MOL0     C48498   2.240   3.708   2.193  0.0627 -0.3982  0.2259
  360MOL0     C48499   2.239   3.669   2.068  0.6494  0.7957  0.0892
  360MOL0     O48500   2.344   3.621   1.999  0.7415 -0.2283  0.8381
  360MOL0     C48501   2.477   3.647   2.045  0.0746  0.1735 -0.2035
  360MOL0     C48502   2.588   3.602   1.945 -0.7622  0.0311 -0.5866
  360MOL0     C48503   2.721   3.592   2.016 -0.2035  0.0823 -0.7502
  360MOL0     C48504   2.801   3.491   1.935  0.2627  0.3167  1.4146
  360MOL0     C48505   2.948   3.469   1.994 -0.0550 -0.2806 -0.3793
  360MOL0     C48506   3.050   3.565   1.924 -0.4847 -0.8423 -0.2314
  360MOL0     C48507   3.186   3.565   1.996  0.1849 -0.4915  0.4467
  360MOL0     C48508   3.244   3.427   2.024  0.3354 -0.9594 -0.4626
  360MOL0    Cl48509   3.403   3.447   2.091  0.0253 -0.3939 -0.0175
  360MOL0     C48510   2.123   3.690   1.990  0.0793 -0.4326  0.5820
  360MOL0     C48511   2.012   3.747   2.037 -0.0656 -0.7238  0.0030
  360MOL0     O48512   1.845   4.008   2.082 -0.3364  0.5742  0.3707
  360MOL0     C48513   1.592   4.044   2.170  0.2743 -0.0361 -0.0133
  360MOL0     C48514   1.460   4.053   2.213  0.0111  0.1942  0.6438
  360MOL0     N48515   0.839   3.767   2.513 -0.4540 -1.7214 -0.4444
  360MOL0     N48516   0.880   3.666   2.571 -0.3250  0.1417  0.0867
  360MOL0     C48517   2.186   3.730   2.625  0.1646 -0.6287  0.4346
  360MOL0     C48518   2.324   3.706   2.597  0.2362 -0.0064 -0.1245
  360MOL0     C48519   2.759   3.752   2.542 -0.2435 -0.4120 -0.0047
  360MOL0     C48520   2.851   3.850   2.590  0.4579 -0.0114  1.1635
  360MOL0     C48521   2.992   3.826   2.563 -0.1411 -0.4441 -1.0241
  360MOL0     C48522   3.033   3.702   2.504  0.3810 -0.0842 -0.4171
  360MOL0     O48523   3.157   3.662   2.472  0.0926 -0.0637  0.0214
  360MOL0     C48524   3.265   3.739   2.520 -0.2622 -0.2731 -0.0889
  360MOL0     C48525   3.389   3.669   2.455 -0.3280  0.1224  0.5258
  360MOL0     C48526   3.532   3.741   2.455 -0.8028  0.4029 -0.0357
  360MOL0     C48527   3.632   3.662   2.371 -0.1663  0.3165 -0.8105
  360MOL0     C48528   3.774   3.681   2.417  0.7072  0.2235 -0.3261
  360MOL0     C48529   3.894   3.687   2.439 -0.6001  0.6097 -1.1553
  360MOL0     C48530   2.941   3.605   2.486 -0.4292 -0.2333  0.0613
  360MOL0     C48531   2.804   3.628   2.492 -0.2083 -0.3184  0.1460
  360MOL0     C48532   2.709   3.519   2.437 -0.1846  0.3231  0.2192
  360MOL0     H48533   2.448   3.878   2.867  0.9544  0.7406 -0.6393
  360MOL0     H48534   2.214   3.900   2.920  1.9739 -0.9150  1.0322
  360MOL0     H48535   1.904   3.740   2.612 -2.0150  0.7964 -0.2626
  360MOL0     H48536   1.954   3.630   2.746  1.2645  0.6800  1.2107
  360MOL0     H48537   1.758   3.854   2.799 -2.0784  0.4277 -1.1343
  360MOL0     H48538   1.804   3.731   2.905 -0.1453 -1.6409 -0.7588
  360MOL0     H48539   1.717   3.564   2.756  0.4085  0.4703  0.8961
  360MOL0     H48540   1.670   3.679   2.630  0.0818 -0.4716  0.1099
  360MOL0     H48541   1.547   3.675   2.901  0.8747  1.8881  0.1018
  360MOL0     H48542   1.519   3.794   2.778 -1.1107 -1.8840 -2.5324
  360MOL0     H48543   1.465   3.601   2.622  0.7601 -1.9354  0.0839
  360MOL0     H48544   1.457   3.503   2.771  1.0358 -1.2474 -3.6016
  360MOL0     H48545   1.290   3.628   2.872 -1.7434 -4.2208 -0.1798
  360MOL0     H48546   1.289   3.753   2.734  1.0081 -0.5478  0.4280
  360MOL0     H48547   1.207   3.460   2.732 -0.8305 -0.6019  0.0041
  360MOL0     H48548   1.208   3.575   2.587  0.1182  1.1355  0.9018
  360MOL0     H48549   0.994   3.495   2.734 -1.7713  0.3001  3.2883
  360MOL0     H48550   1.044   3.619   2.851 -1.9283  0.5133 -0.0657
  360MOL0     H48551   1.079   3.888   2.710  1.0267  1.2666 -1.1988
  360MOL0     H48552   0.823   4.026   2.461  0.6636 -1.3012 -0.1995
  360MOL0     H48553   0.914   4.076   2.623  1.4404 -1.1508  0.8742
  360MOL0     H48554   1.013   4.191   2.454  4.9357  0.7846  0.5336
  360MOL0     H48555   1.120   4.082   2.521  0.8356  2.4872  0.2643
  360MOL0     H48556   0.980   4.090   2.250  1.1868  2.2987  0.8874
  360MOL0     H48557   1.006   3.924   2.319  1.6335 -0.5566  0.0061
  360MOL0     H48558   1.209   4.135   2.252  0.2116  1.1732  2.6280
  360MOL0     H48559   1.182   3.973   2.168 -0.6057  2.8673 -0.5775
  360MOL0     H48560   1.466   3.838   2.486  2.4415  0.5804  0.8219
  360MOL0     H48561   1.696   3.800   2.392  0.0711  0.2989  0.8684
  360MOL0     H48562   2.140   3.797   2.359  0.2758 -2.3251  0.2222
  360MOL0     H48563   2.330   3.693   2.252  1.4600  2.3793 -1.0111
  360MOL0     H48564   2.482   3.754   2.068 -0.7441  0.6546 -2.0900
  360MOL0     H48565   2.507   3.594   2.136 -0.3264 -0.9157 -0.6894
  360MOL0     H48566   2.555   3.505   1.909  1.9460 -1.8711  1.6156
  360MOL0     H48567   2.596   3.671   1.860  0.8754 -2.1032 -2.2742
  360MOL0     H48568   2.775   3.686   2.012  2.5340 -1.3864 -0.5413
  360MOL0     H48569   2.707   3.585   2.125 -0.9839  0.3811 -0.8253
  360MOL0     H48570   2.816   3.501   1.827  1.4366 -2.2434  1.2463
  360MOL0     H48571   2.748   3.396   1.937 -0.3845  0.4159 -2.4087
  360MOL0     H48572   2.972   3.364   1.976 -0.5894 -0.7814  1.5596
  360MOL0     H48573   2.951   3.495   2.100 -0.2694  0.1552 -0.4804
  360MOL0     H48574   3.082   3.545   1.822  0.7712 -0.2999  0.0402
  360MOL0     H48575   3.017   3.669   1.929 -0.8823 -0.9949  0.6559
  360MOL0     H48576   3.172   3.608   2.095 -1.8645  1.4772 -0.6171
  360MOL0     H48577   3.260   3.622   1.938 -1.7738  4.3947  2.2064
  360MOL0     H48578   3.177   3.367   2.085  0.8833 -1.4703 -0.3532
  360MOL0     H48579   3.256   3.373   1.930  0.5272 -0.4554 -0.7337
  360MOL0     H48580   2.121   3.651   1.888 -0.9787 -2.2272  1.2421
  360MOL0     H48581   1.930   3.763   1.967  1.0613 -1.8406 -1.6547
  360MOL0     H48582   1.619   4.095   2.078 -0.6630 -0.4092 -0.5141
  360MOL0     H48583   1.398   4.116   2.150  0.6902  1.1443  0.8881
  360MOL0     H48584   2.119   3.673   2.562 -1.5640  1.4229  0.3114
  360MOL0     H48585   2.352   3.637   2.518 -0.7612  1.8201 -2.2151
  360MOL0     H48586   2.821   3.950   2.620  0.8915  0.2074  0.8913
  360MOL0     H48587   3.059   3.898   2.609 -1.5827 -1.0318  2.2948
  360MOL0     H48588   3.283   3.736   2.628  0.6210  0.7279 -0.1821
  360MOL0     H48589   3.258   3.843   2.487 -1.4249 -0.0151  0.9070
  360MOL0     H48590   3.346   3.675   2.355 -1.8112  1.6664  1.2090
  360MOL0     H48591   3.386   3.564   2.486 -5.1154  0.2877  1.4837
  360MOL0     H48592   3.554   3.737   2.562  2.3856 -0.0246 -0.6141
  360MOL0     H48593   3.521   3.839   2.409  1.6772  0.9093  0.3274
  360MOL0     H48594   3.609   3.555   2.384  1.9155 -0.3436 -2.1046
  360MOL0     H48595   3.622   3.693   2.267 -2.0608  1.5781 -0.3124
  360MOL0     H48596   3.995   3.667   2.467 -1.0696 -3.9922 -2.0038
  360MOL0     H48597   2.971   3.512   2.439 -3.7049 -0.9625 -0.8162
  360MOL0     H48598   2.606   3.551   2.455 -0.2463  0.6165 -0.6059
  360MOL0     H48599   2.718   3.504   2.329 -3.3310 -0.8806  0.0076
  360MOL0     H48600   2.746   3.428   2.485  0.3607 -0.6616 -1.9543
  361MOL0     O48601   5.229   0.281   6.257  0.1107 -0.0269 -0.3898
  361MOL0     C48602   5.124   0.342   6.240 -0.3306  0.1228 -0.2858
  361MOL0     O48603   5.120   0.476   6.195 -0.7749  0.0256 -0.1042
  361MOL0     C48604   5.236   0.528   6.148  0.6790  0.9693 -0.2012
  361MOL0     C48605   5.327   0.450   6.077  0.1765  0.4604  0.0891
  361MOL0     C48606   5.448   0.507   6.031 -0.4457  0.3206 -0.2304
  361MOL0     C48607   5.466   0.646   6.047 -0.5376 -0.2611  0.4190
  361MOL0     O48608   5.581   0.723   6.021  0.4385  0.1962  0.0655
  361MOL0     C48609   5.674   0.665   5.929  0.4574  0.2774 -0.3104
  361MOL0     C48610   5.769   0.774   5.873  0.5516  0.8214 -0.1711
  361MOL0     C48611   5.882   0.710   5.799 -0.0926 -0.2882  0.6701
  361MOL0     C48612   5.983   0.800   5.735  0.4857 -0.5802  0.3241
  361MOL0     C48613   6.067   0.727   5.627  0.7130  0.1834 -0.3216
  361MOL0     C48614   6.151   0.612   5.693 -0.4521 -0.1802 -0.6890
  361MOL0     C48615   6.243   0.529   5.600 -0.7884 -0.4611 -1.2011
  361MOL0     C48616   6.366   0.619   5.565 -0.3685 -0.2824  0.2145
  361MOL0     N48617   6.454   0.665   5.672  0.6619 -0.4338 -0.3744
  361MOL0     C48618   6.505   0.793   5.689  0.9118 -0.5097  0.3499
  361MOL0     C48619   6.539   0.808   5.816  0.5327 -0.1211 -0.1648
  361MOL0     C48620   6.589   0.938   5.884 -0.0596  0.4175  0.0179
  361MOL0     C48621   6.738   0.988   5.849 -0.2412 -1.4224 -0.7363
  361MOL0     C48622   6.852   0.874   5.851 -0.1845 -0.7080 -0.1391
  361MOL0     C48623   6.969   0.923   5.763 -0.7280 -0.4794  1.2380
  361MOL0     O48624   7.084   0.833   5.763 -0.2101  0.7452  0.1887
  361MOL0     C48625   7.206   0.880   5.715 -0.4884  0.1202 -0.3639
  361MOL0     C48626   7.312   0.792   5.737 -0.0597  0.1356 -0.2164
  361MOL0     C48627   7.446   0.833   5.711  0.4030  0.2378  0.2596
  361MOL0     C48628   7.482   0.953   5.647  0.2752  0.4338 -0.2011
  361MOL0     C48629   7.626   0.984   5.628  0.5986 -0.6497  0.0217
  361MOL0     O48630   7.643   1.102   5.556 -0.4139  1.3600 -0.4063
  361MOL0     C48631   7.767   1.151   5.544  0.3803 -0.2645 -0.2194
  361MOL0     C48632   7.816   1.247   5.634 -0.1496 -0.2174 -0.5398
  361MOL0     C48633   7.943   1.311   5.623  0.9518  0.2000  0.5874
  361MOL0     C48634   8.023   1.275   5.511 -0.4224  0.2444 -0.7293
  361MOL0     O48635   8.154   1.314   5.508 -0.4927 -0.6990 -0.2500
  361MOL0     C48636   8.245   1.241   5.595 -0.5614  0.7882  0.1859
  361MOL0     C48637   8.382   1.316   5.589  0.0331 -0.2212  0.1122
  361MOL0     C48638   8.451   1.314   5.449 -0.1679  0.1563 -0.0092
  361MOL0     C48639   8.559   1.423   5.446 -0.2803  0.2952 -0.2416
  361MOL0     C48640   8.619   1.448   5.308 -0.1374 -0.3445 -0.2362
  361MOL0     C48641   8.703   1.574   5.304  0.3879  0.3918 -0.9788
  361MOL0     C48642   8.641   1.693   5.237 -0.2287 -0.0703 -0.2164
  361MOL0     C48643   8.531   1.742   5.319  0.7544  0.1119 -0.4813
  361MOL0    Cl48644   8.451   1.867   5.222  0.0201 -0.0180  0.1802
  361MOL0     C48645   7.982   1.181   5.421  0.3774  0.1607  0.2093
  361MOL0     C48646   7.851   1.117   5.436 -0.5068 -0.5281 -0.6648
  361MOL0     O48647   7.711   0.906   5.666 -0.5413  0.4211  0.1597
  361MOL0     C48648   7.376   1.043   5.619 -0.6731 -0.0322 -0.1427
  361MOL0     C48649   7.243   0.999   5.647  0.1188  0.1830 -0.1057
  361MOL0     N48650   6.531   0.681   5.867 -0.5697  0.2586 -0.1083
  361MOL0     N48651   6.482   0.595   5.786  0.8466 -0.6688  0.3666
  361MOL0     C48652   5.369   0.718   6.111  0.2535 -0.0534 -0.3678
  361MOL0     C48653   5.254   0.664   6.164  0.0460  0.4325  0.8679
  361MOL0     C48654   4.993   0.274   6.251 -0.2781 -0.1194 -0.0134
  361MOL0     C48655   4.879   0.354   6.242 -0.6270 -0.4203 -0.1332
  361MOL0     C48656   4.751   0.303   6.258  0.0445  0.2890  0.4176
  361MOL0     C48657   4.732   0.161   6.270 -0.7125 -0.3532 -0.8229
  361MOL0     O48658   4.621   0.096   6.293 -0.0093 -0.4148 -0.2973
  361MOL0     C48659   4.504   0.155   6.249 -0.2313  0.8985 -0.0630
  361MOL0     C48660   4.374   0.079   6.291  0.1702 -0.6992  0.7650
  361MOL0     C48661   4.250   0.171   6.293 -0.2743 -0.2739  0.1532
  361MOL0     C48662   4.214   0.218   6.156 -0.3369 -0.2953 -0.3910
  361MOL0     C48663   4.082   0.293   6.165 -0.2347 -1.0430 -0.0412
  361MOL0     C48664   3.974   0.345   6.179 -0.1308  1.0895 -0.6199
  361MOL0     C48665   4.845   0.081   6.277  0.8561  0.5167 -0.4342
  361MOL0     C48666   4.976   0.137   6.281 -0.7126 -0.0903  0.6490
  361MOL0     C48667   5.086   0.043   6.317 -0.3168  0.2814  0.1343
  361MOL0     H48668   5.322   0.347   6.045  1.2901  0.6861 -0.8863
  361MOL0     H48669   5.525   0.444   5.988  1.8970  1.3285  2.2687
  361MOL0     H48670   5.727   0.588   5.986  1.3950  2.3178  1.7523
  361MOL0     H48671   5.623   0.615   5.847  1.0149  0.0774 -0.5407
  361MOL0     H48672   5.814   0.841   5.947 -2.4083  2.7366  0.0777
  361MOL0     H48673   5.716   0.827   5.794  1.3232  0.1411 -1.1688
  361MOL0     H48674   5.844   0.656   5.712  2.1132  0.3159 -0.7548
  361MOL0     H48675   5.923   0.634   5.866 -2.6019 -1.4257  1.0063
  361MOL0     H48676   5.940   0.884   5.679  1.4009 -1.3183 -1.5703
  361MOL0     H48677   6.042   0.843   5.817  0.6268 -0.0420 -0.0486
  361MOL0     H48678   5.992   0.676   5.566 -2.4749 -0.2823  3.6068
  361MOL0     H48679   6.135   0.786   5.565  1.2734 -0.2881 -0.1700
  361MOL0     H48680   6.218   0.662   5.764 -1.7678  0.5694  0.0690
  361MOL0     H48681   6.087   0.546   5.751  1.5902 -0.6594  1.1606
  361MOL0     H48682   6.184   0.486   5.518  0.8006 -0.5604 -2.3330
  361MOL0     H48683   6.270   0.441   5.659 -4.8572 -0.2967  1.3348
  361MOL0     H48684   6.423   0.561   5.493 -1.5254 -0.4552 -0.5932
  361MOL0     H48685   6.337   0.711   5.514  0.8103 -1.2100 -2.2767
  361MOL0     H48686   6.500   0.875   5.618  2.7621 -0.7427 -0.0849
  361MOL0     H48687   6.513   1.013   5.861 -2.1705 -1.8661 -0.8847
  361MOL0     H48688   6.581   0.931   5.993 -3.4745 -2.3433 -0.2210
  361MOL0     H48689   6.735   1.044   5.755 -0.9414 -0.5104 -0.1926
  361MOL0     H48690   6.761   1.061   5.928  5.1039 -3.5874  0.1386
  361MOL0     H48691   6.820   0.774   5.820  1.0065 -1.9244  2.3212
  361MOL0     H48692   6.887   0.865   5.954 -1.5535 -0.6083  0.3539
  361MOL0     H48693   6.992   1.023   5.799  1.0117 -0.5087  0.3288
  361MOL0     H48694   6.946   0.946   5.659  1.5021  0.2371  0.8425
  361MOL0     H48695   7.287   0.694   5.777  2.6937 -0.6685 -0.2285
  361MOL0     H48696   7.526   0.760   5.721  0.7077  0.4858 -0.3245
  361MOL0     H48697   7.750   1.276   5.715  0.4785 -1.2576  0.3498
  361MOL0     H48698   7.976   1.378   5.702 -0.6921  0.0936  1.4036
  361MOL0     H48699   8.207   1.236   5.698 -1.5373 -0.0877 -0.2062
  361MOL0     H48700   8.252   1.138   5.560  0.5144  0.5088  1.1351
  361MOL0     H48701   8.371   1.413   5.637 -0.0098  0.0869 -0.5075
  361MOL0     H48702   8.457   1.262   5.646 -2.5162 -2.3123  1.7401
  361MOL0     H48703   8.500   1.219   5.429 -0.4971  0.5549 -3.1813
  361MOL0     H48704   8.383   1.325   5.364  0.5895 -3.0585 -1.1370
  361MOL0     H48705   8.631   1.406   5.526 -0.6946 -0.1484  0.0387
  361MOL0     H48706   8.502   1.512   5.475 -1.3151 -0.4700  0.1398
  361MOL0     H48707   8.548   1.462   5.225 -1.0753 -0.6099  0.4982
  361MOL0     H48708   8.682   1.361   5.286  0.2117 -0.7590  2.1814
  361MOL0     H48709   8.714   1.614   5.406  1.0454 -3.1133  0.4802
  361MOL0     H48710   8.801   1.549   5.262  1.1541  0.7782  0.5072
  361MOL0     H48711   8.615   1.679   5.131  3.3086  0.5473 -1.3384
  361MOL0     H48712   8.722   1.767   5.235  0.5580 -0.9068 -1.4639
  361MOL0     H48713   8.451   1.669   5.336 -1.0040  1.2463 -3.0894
  361MOL0     H48714   8.551   1.784   5.418  0.1236 -1.6753  0.4517
  361MOL0     H48715   8.025   1.149   5.326 -1.8581 -2.2607 -0.0861
  361MOL0     H48716   7.813   1.061   5.352 -0.2449 -2.0135  0.1617
  361MOL0     H48717   7.387   1.134   5.561  1.0160 -0.4993 -0.5892
  361MOL0     H48718   7.161   1.064   5.620 -2.7308 -3.8078 -2.2176
  361MOL0     H48719   5.392   0.820   6.142  0.2891 -1.2552  4.3347
  361MOL0     H48720   5.179   0.722   6.217 -2.9421 -1.7117 -0.6854
  361MOL0     H48721   4.886   0.461   6.226 -0.4302 -0.2080  1.2241
  361MOL0     H48722   4.660   0.362   6.255 -0.6723 -0.7069  1.4761
  361MOL0     H48723   4.500   0.185   6.144 -0.2537 -0.9587 -0.6251
  361MOL0     H48724   4.502   0.252   6.300  1.9245 -0.5862  3.1305
  361MOL0     H48725   4.392   0.030   6.387  1.6851 -3.6024 -0.8206
  361MOL0     H48726   4.351   0.001   6.217 -1.8952 -1.0187  1.6820
  361MOL0     H48727   4.259   0.269   6.342 -3.3405  1.2758 -2.0796
  361MOL0     H48728   4.177   0.110   6.347 -0.9706 -2.2247 -2.7606
  361MOL0     H48729   4.291   0.293   6.138  1.3103 -0.9321  3.0612
  361MOL0     H48730   4.213   0.149   6.071 -1.4695 -2.2504  1.1049
  361MOL0     H48731   3.876   0.387   6.192 -0.0000  0.8929  1.2496
  361MOL0     H48732   4.845  -0.027   6.286  0.4029  0.4434 -1.1653
  361MOL0     H48733   5.056  -0.054   6.358  0.6397 -0.4700 -0.9077
  361MOL0     H48734   5.163   0.032   6.240  0.1404 -1.3560  0.7702
  361MOL0     H48735   5.148   0.074   6.402 -0.5922 -1.5792  1.0644
  362MOL0     O48736   7.372   0.740   9.991 -0.0900 -0.5116 -0.5392
  362MOL0     C48737   7.335   0.622  10.009 -0.2313 -0.2271  0.5085
  362MOL0     O48738   7.412   0.514   9.999  0.0958  0.2558 -0.3708
  362MOL0     C48739   7.541   0.541   9.952 -0.0137 -0.1838 -0.9346
  362MOL0     C48740   7.578   0.586   9.824 -0.1189  0.2299 -0.2912
  362MOL0     C48741   7.705   0.578   9.785 -0.2567 -0.3348  0.1739
  362MOL0     C48742   7.812   0.535   9.868  0.1170 -0.5502 -0.1056
  362MOL0     O48743   7.945   0.513   9.826 -0.5154  0.1645  0.0862
  362MOL0     C48744   7.979   0.533   9.688  0.0362  0.0200  0.5285
  362MOL0     C48745   8.132   0.504   9.654  0.0768 -0.9861 -0.2661
  362MOL0     C48746   8.163   0.381   9.562 -0.7204 -0.0632  0.2903
  362MOL0     C48747   8.315   0.371   9.566 -0.3622  0.2667 -0.5055
  362MOL0     C48748   8.385   0.259   9.478  0.9487  0.3074  0.3584
  362MOL0     C48749   8.410   0.125   9.543  0.2710 -0.3822 -0.0358
  362MOL0     C48750   8.465   0.019   9.449  0.5984  1.1426  0.2404
  362MOL0     C48751   8.616   0.030   9.416  0.6370 -0.5208 -0.0021
  362MOL0     N48752   8.636   0.152   9.336 -0.6570 -0.3105 -0.3610
  362MOL0     C48753   8.749   0.240   9.351 -0.2081  0.7780  0.8616
  362MOL0     C48754   8.719   0.342   9.267 -0.6732  0.1384  0.2753
  362MOL0     C48755   8.817   0.448   9.230 -0.0076  0.0591  0.0284
  362MOL0     C48756   8.942   0.394   9.154 -0.8315  0.8258  1.0079
  362MOL0     C48757   8.902   0.328   9.020  0.7478 -0.3444 -0.5629
  362MOL0     C48758   9.028   0.314   8.945 -0.1427  0.5530 -0.7281
  362MOL0     O48759   9.082   0.180   8.978  0.5190 -0.2931  0.7708
  362MOL0     C48760   9.193   0.127   8.918  0.2032 -0.2566  0.5980
  362MOL0     C48761   9.274   0.209   8.834  0.2909 -0.1660  0.0178
  362MOL0     C48762   9.397   0.159   8.784  0.3889  0.1610 -0.9753
  362MOL0     C48763   9.444   0.025   8.809  0.8047 -0.0188 -0.8307
  362MOL0     C48764   9.576  -0.028   8.794 -0.1743 -0.2782  0.0388
  362MOL0     O48765   9.670   0.060   8.733  0.1440  0.1302 -0.0551
  362MOL0     C48766   9.803   0.017   8.728 -0.0922 -0.8580  1.4915
  362MOL0     C48767   9.881  -0.078   8.805  0.0325  0.4488 -0.7624
  362MOL0     C48768  10.017  -0.082   8.808  0.6679  0.2883  0.4250
  362MOL0     C48769  10.092  -0.003   8.721 -1.1937 -0.3944  0.4071
  362MOL0     O48770  10.235  -0.001   8.719  0.3671  0.0766 -0.0446
  362MOL0     C48771  10.303  -0.108   8.772 -0.0339  0.2161 -0.8756
  362MOL0     C48772  10.447  -0.073   8.744 -0.1648 -0.6188  0.2629
  362MOL0     C48773  10.532  -0.200   8.780  0.5199  0.0257 -0.8701
  362MOL0     C48774  10.537  -0.237   8.925 -0.2230 -0.0094 -0.0100
  362MOL0     C48775  10.591  -0.379   8.945  0.1727 -0.0649 -0.4092
  362MOL0     C48776  10.564  -0.424   9.097  0.7230  0.0922  0.2816
  362MOL0     C48777  10.636  -0.327   9.188  0.0445 -0.6208 -0.6651
  362MOL0     C48778  10.665  -0.385   9.327 -0.7763  0.0349 -0.1854
  362MOL0    Cl48779  10.772  -0.259   9.408 -0.1539  0.1866 -0.0362
  362MOL0     C48780  10.025   0.090   8.642  0.1592  0.3019 -0.7840
  362MOL0     C48781   9.888   0.108   8.647  0.2831  0.6109 -0.0101
  362MOL0     O48782   9.590  -0.147   8.809 -0.3898 -0.3681 -0.3712
  362MOL0     C48783   9.355  -0.058   8.885  0.0305  0.1359  0.7495
  362MOL0     C48784   9.229  -0.007   8.937 -0.1993  0.2804 -0.2427
  362MOL0     N48785   8.607   0.319   9.192  0.1462 -0.0150 -0.4868
  362MOL0     N48786   8.557   0.204   9.233 -0.3875 -0.6276  0.0409
  362MOL0     C48787   7.772   0.509   9.999  1.3157  0.2522  0.6917
  362MOL0     C48788   7.641   0.514  10.049 -0.2137 -0.5658 -0.5704
  362MOL0     C48789   7.191   0.623  10.038 -0.9614  0.1423  0.8960
  362MOL0     C48790   7.148   0.506  10.106  0.5756 -0.7871 -0.1521
  362MOL0     C48791   7.009   0.485  10.124  1.2427  0.1677 -0.0354
  362MOL0     C48792   6.912   0.577  10.083  0.5840  0.3023 -1.0507
  362MOL0     O48793   6.773   0.532  10.094 -0.0094 -0.2288  0.5076
  362MOL0     C48794   6.664   0.612  10.035 -1.0332  0.1769  0.0682
  362MOL0     C48795   6.611   0.729  10.135 -0.6731  0.8100 -0.3525
  362MOL0     C48796   6.522   0.663  10.244  1.1508 -0.1517 -0.1132
  362MOL0     C48797   6.428   0.764  10.325 -0.1795 -0.7305 -0.1939
  362MOL0     C48798   6.398   0.719  10.464  0.0571 -0.4970 -0.8686
  362MOL0     C48799   6.349   0.669  10.562 -0.8005 -0.6597 -0.4669
  362MOL0     C48800   6.957   0.695  10.032  1.2004  0.2167  0.1936
  362MOL0     C48801   7.090   0.719  10.001  0.7382 -0.5191  0.0861
  362MOL0     C48802   7.099   0.822   9.896  0.0299 -0.7131 -0.3507
  362MOL0     H48803   7.496   0.620   9.762  0.2136 -0.8352 -1.3274
  362MOL0     H48804   7.708   0.596   9.678 -1.6827  3.6736  0.6546
  362MOL0     H48805   7.916   0.469   9.625 -0.5779 -0.3089  1.4696
  362MOL0     H48806   7.948   0.634   9.660 -1.8760 -0.9097 -0.9526
  362MOL0     H48807   8.184   0.503   9.750  1.6501  2.7942 -0.8720
  362MOL0     H48808   8.174   0.592   9.604 -0.0190 -0.3016  0.8164
  362MOL0     H48809   8.132   0.394   9.458 -0.7185  0.3576  0.3386
  362MOL0     H48810   8.119   0.292   9.606 -0.1517 -1.0607 -1.0835
  362MOL0     H48811   8.353   0.468   9.535  0.3525  0.0862 -0.2227
  362MOL0     H48812   8.340   0.343   9.669 -1.5618 -1.5513 -0.6544
  362MOL0     H48813   8.316   0.258   9.393  1.6075  3.6369 -0.3484
  362MOL0     H48814   8.476   0.305   9.437  1.2224 -1.3647 -1.0647
  362MOL0     H48815   8.478   0.137   9.628 -0.8036  0.6933  0.6977
  362MOL0     H48816   8.313   0.087   9.574  0.3167 -0.7334 -0.3106
  362MOL0     H48817   8.408   0.016   9.355  1.1966 -0.1339 -0.1094
  362MOL0     H48818   8.454  -0.075   9.504 -1.9881  1.4079  0.2898
  362MOL0     H48819   8.666   0.024   9.513  0.7433  0.6201  0.0319
  362MOL0     H48820   8.636  -0.057   9.353 -2.7124  0.6003 -2.9866
  362MOL0     H48821   8.839   0.222   9.409  0.7158 -1.0996 -1.0082
  362MOL0     H48822   8.767   0.524   9.169 -2.9885  0.7163  3.0269
  362MOL0     H48823   8.848   0.496   9.323 -1.1294 -1.1911  1.0852
  362MOL0     H48824   9.012   0.477   9.137 -1.0224  1.3352  2.5462
  362MOL0     H48825   9.003   0.332   9.220  0.7580 -2.3208 -3.0182
  362MOL0     H48826   8.834   0.394   8.965 -2.6329 -0.7181  2.7572
  362MOL0     H48827   8.858   0.229   9.036  1.1642 -0.3589  0.5350
  362MOL0     H48828   9.104   0.391   8.957  1.6943 -1.1853 -0.5500
  362MOL0     H48829   9.002   0.328   8.839 -0.7482 -0.5693 -0.7476
  362MOL0     H48830   9.257   0.315   8.819  3.5217  0.5526  0.7407
  362MOL0     H48831   9.466   0.229   8.739  0.4316  0.1976 -0.8535
  362MOL0     H48832   9.833  -0.152   8.869 -0.1866 -1.6580 -3.1950
  362MOL0     H48833  10.066  -0.136   8.888 -0.0835  0.0912  0.7577
  362MOL0     H48834  10.283  -0.109   8.880 -0.5092  1.3807 -0.9278
  362MOL0     H48835  10.273  -0.203   8.728 -0.9556 -0.8801  1.8570
  362MOL0     H48836  10.456  -0.049   8.638 -1.8657 -0.0446  0.2244
  362MOL0     H48837  10.485   0.007   8.808  0.7710 -1.2350  0.5027
  362MOL0     H48838  10.485  -0.275   8.716 -1.5825  2.7117 -2.6985
  362MOL0     H48839  10.635  -0.188   8.745  0.9543 -3.0535 -0.9401
  362MOL0     H48840  10.440  -0.221   8.972 -0.5339  1.8056 -1.1781
  362MOL0     H48841  10.606  -0.166   8.972 -0.9978  0.6444  0.1458
  362MOL0     H48842  10.700  -0.380   8.934  0.8437  0.2867  4.2153
  362MOL0     H48843  10.535  -0.455   8.890  0.5373 -1.6654  1.3255
  362MOL0     H48844  10.457  -0.411   9.112  1.1343  1.0691  2.7692
  362MOL0     H48845  10.588  -0.529   9.115 -0.2466 -0.7436 -2.7081
  362MOL0     H48846  10.577  -0.238   9.214  1.3398 -0.2216  1.1783
  362MOL0     H48847  10.727  -0.289   9.139  1.9680  0.0388  3.0124
  362MOL0     H48848  10.575  -0.401   9.387 -2.0640  0.6922 -1.8645
  362MOL0     H48849  10.723  -0.476   9.317 -0.1968  0.2484  0.9926
  362MOL0     H48850  10.086   0.153   8.577 -0.8076  1.2404 -0.8193
  362MOL0     H48851   9.834   0.187   8.595 -1.1451 -1.4306 -1.8360
  362MOL0     H48852   9.386  -0.153   8.928  1.8856 -0.4685 -1.7039
  362MOL0     H48853   9.168  -0.057   9.011  2.1184  1.5154  2.7312
  362MOL0     H48854   7.853   0.479  10.065  0.2897 -0.5675  1.5978
  362MOL0     H48855   7.608   0.495  10.151  1.4590  0.0858  0.1178
  362MOL0     H48856   7.222   0.431  10.130 -0.0413 -0.9667  1.3037
  362MOL0     H48857   6.979   0.394  10.174  0.9715 -0.4620 -1.2952
  362MOL0     H48858   6.582   0.541  10.018  0.0944 -1.0588 -0.4304
  362MOL0     H48859   6.692   0.660   9.941  1.2445  0.6782  0.9375
  362MOL0     H48860   6.562   0.809  10.080 -3.6495 -0.7898 -0.2507
  362MOL0     H48861   6.701   0.770  10.181  1.1675 -3.1183 -0.0137
  362MOL0     H48862   6.591   0.611  10.310 -0.8707 -2.9705 -0.0405
  362MOL0     H48863   6.456   0.589  10.197  0.2894  1.5593 -1.7633
  362MOL0     H48864   6.472   0.864  10.327 -1.9178  0.1037 -1.9274
  362MOL0     H48865   6.340   0.790  10.266 -0.4163  1.6354  1.0828
  362MOL0     H48866   6.300   0.639  10.652 -2.0620  1.4122 -0.4189
  362MOL0     H48867   6.885   0.766   9.992  0.8585  0.0611  0.5310
  362MOL0     H48868   7.002   0.845   9.852 -1.2787 -0.0524  2.6302
  362MOL0     H48869   7.143   0.911   9.942 -1.2051 -0.7094  0.8792
  362MOL0     H48870   7.160   0.792   9.810  0.7675 -0.6965  0.1511
  363MOL0     O48871   7.634   3.548   1.350 -0.3227 -0.0237  0.2884
  363MOL0     C48872   7.678   3.434   1.344 -0.1150  0.1563 -0.2371
  363MOL0     O48873   7.678   3.349   1.448  0.7829 -0.3022 -0.2749
  363MOL0     C48874   7.600   3.380   1.565  0.2116  0.8659  0.3419
  363MOL0     C48875   7.472   3.433   1.559 -0.8842 -0.5054 -0.5461
  363MOL0     C48876   7.414   3.465   1.681 -0.0825 -0.1819 -0.2649
  363MOL0     C48877   7.468   3.428   1.803 -0.3537 -0.1089  0.1430
  363MOL0     O48878   7.415   3.449   1.927 -0.4978  0.2129 -0.5703
  363MOL0     C48879   7.272   3.477   1.922 -0.0726  0.5708 -0.2358
  363MOL0     C48880   7.229   3.462   2.072 -0.3362  0.6224  1.0048
  363MOL0     C48881   7.244   3.322   2.138 -0.3151  0.7541 -0.6192
  363MOL0     C48882   7.386   3.277   2.177 -0.0587 -0.5311 -0.7676
  363MOL0     C48883   7.381   3.144   2.249  0.5934  0.2322 -0.7062
  363MOL0     C48884   7.383   3.033   2.149  0.3063  0.3140  0.6545
  363MOL0     C48885   7.289   2.914   2.180  0.3936 -0.2617  0.4786
  363MOL0     C48886   7.225   2.865   2.051  1.3712  0.1199  0.4566
  363MOL0     N48887   7.180   2.728   2.067 -0.0773 -0.0208 -0.1361
  363MOL0     C48888   7.082   2.677   2.153 -0.1168 -0.3072 -0.5062
  363MOL0     C48889   7.082   2.549   2.152  0.0878  0.0964 -0.0526
  363MOL0     C48890   6.990   2.456   2.232  0.3237 -0.7403  0.5263
  363MOL0     C48891   6.837   2.442   2.186 -0.6164  0.1649 -0.6567
  363MOL0     C48892   6.774   2.583   2.197 -0.1004 -0.6508 -0.0333
  363MOL0     C48893   6.622   2.572   2.166  0.2761 -0.1300  0.3911
  363MOL0     O48894   6.595   2.533   2.028 -0.4028  0.6771  0.2647
  363MOL0     C48895   6.462   2.513   2.003 -0.2921  0.5254 -0.3747
  363MOL0     C48896   6.351   2.518   2.098  0.0622 -0.7089  0.3082
  363MOL0     C48897   6.218   2.468   2.065  0.0446 -1.0048 -0.3740
  363MOL0     C48898   6.193   2.442   1.929 -0.0237  0.0569  0.2414
  363MOL0     C48899   6.057   2.399   1.889 -0.4123  0.2903  0.1546
  363MOL0     O48900   5.953   2.421   1.976  0.2154  0.5066 -0.5217
  363MOL0     C48901   5.836   2.357   1.952 -0.0815  0.1606 -0.0349
  363MOL0     C48902   5.823   2.216   1.973  0.3463 -0.1183  0.5145
  363MOL0     C48903   5.688   2.158   1.962 -0.1086 -0.8124 -0.6601
  363MOL0     C48904   5.572   2.238   1.939 -0.0619  0.9410  0.1219
  363MOL0     O48905   5.446   2.172   1.946  0.1770  0.1743 -0.2474
  363MOL0     C48906   5.342   2.262   1.998  0.4801  0.3249 -0.3718
  363MOL0     C48907   5.265   2.187   2.100  0.7550  0.0526  0.3815
  363MOL0     C48908   5.138   2.267   2.133  0.4474  0.0517 -0.5077
  363MOL0     C48909   5.081   2.224   2.276  0.2539 -0.1899  0.7186
  363MOL0     C48910   4.963   2.299   2.322  0.4124 -0.1199  0.4029
  363MOL0     C48911   4.988   2.443   2.348  0.4123 -0.8374 -1.7397
  363MOL0     C48912   4.864   2.507   2.426  0.5451 -0.5164 -0.4400
  363MOL0     C48913   4.804   2.627   2.337 -0.1108 -0.3803  0.9595
  363MOL0    Cl48914   4.749   2.562   2.177  0.0188 -0.0605  0.2825
  363MOL0     C48915   5.595   2.376   1.931  0.4619 -0.3286 -0.3899
  363MOL0     C48916   5.727   2.435   1.932  1.0070  0.1313  0.6241
  363MOL0     O48917   6.050   2.322   1.796  0.2740  0.0284  0.0529
  363MOL0     C48918   6.301   2.440   1.836 -0.0110 -0.2120 -0.9628
  363MOL0     C48919   6.434   2.466   1.883  0.4504  0.8655 -0.1479
  363MOL0     N48920   7.195   2.511   2.077  0.7659 -0.1628 -0.1624
  363MOL0     N48921   7.248   2.622   2.025 -0.2096  0.2934 -0.2724
  363MOL0     C48922   7.595   3.378   1.807 -0.4402  0.4985 -0.1391
  363MOL0     C48923   7.661   3.350   1.693  0.1512  1.0957  0.3343
  363MOL0     C48924   7.748   3.400   1.213  1.1250 -1.1036 -0.3393
  363MOL0     C48925   7.681   3.441   1.098  0.1951  0.4397 -0.0626
  363MOL0     C48926   7.730   3.403   0.972 -0.5947 -0.6298  0.3507
  363MOL0     C48927   7.860   3.346   0.958 -0.1014  0.4992  0.0779
  363MOL0     O48928   7.912   3.315   0.839 -0.3005 -0.2716 -0.2561
  363MOL0     C48929   7.943   3.424   0.748  0.0211  0.7497 -0.4060
  363MOL0     C48930   8.052   3.521   0.809 -0.1332 -0.5159  0.3737
  363MOL0     C48931   8.183   3.453   0.830 -0.2624  0.0266  0.3836
  363MOL0     C48932   8.254   3.389   0.710 -0.7191  0.3531  0.3433
  363MOL0     C48933   8.285   3.474   0.599  0.0610  1.1963 -0.0505
  363MOL0     C48934   8.308   3.522   0.487  0.0318 -0.0576  0.3177
  363MOL0     C48935   7.930   3.304   1.077  0.4904  0.1525 -0.3014
  363MOL0     C48936   7.876   3.323   1.204 -1.2816  0.1375 -0.4158
  363MOL0     C48937   7.956   3.297   1.334 -0.1671  0.0476 -0.1033
  363MOL0     H48938   7.438   3.454   1.458  0.2275 -1.5781 -1.1625
  363MOL0     H48939   7.314   3.504   1.665 -0.9893 -1.6795  1.4778
  363MOL0     H48940   7.248   3.571   1.871 -2.9957 -1.1142 -2.2321
  363MOL0     H48941   7.222   3.402   1.860 -0.7794  0.1968  0.7587
  363MOL0     H48942   7.123   3.488   2.064  0.0427  1.6468 -1.4226
  363MOL0     H48943   7.271   3.536   2.140 -0.3228 -0.2588  1.9773
  363MOL0     H48944   7.208   3.241   2.074  1.2558 -0.4056 -0.1108
  363MOL0     H48945   7.183   3.330   2.229  1.1856  1.3337  0.3913
  363MOL0     H48946   7.452   3.270   2.090 -0.1545 -1.6699 -0.7729
  363MOL0     H48947   7.423   3.346   2.253 -2.1958 -1.5461  1.3302
  363MOL0     H48948   7.473   3.137   2.308  0.0638  1.1401  0.2699
  363MOL0     H48949   7.297   3.140   2.320  3.0437 -0.3214  2.3721
  363MOL0     H48950   7.361   3.083   2.054  2.3753  1.6965  0.8385
  363MOL0     H48951   7.483   2.995   2.128 -0.0454 -1.1199  1.4304
  363MOL0     H48952   7.209   2.935   2.253 -0.0550  0.1774 -0.1283
  363MOL0     H48953   7.361   2.837   2.209  0.1268 -0.3889  0.8212
  363MOL0     H48954   7.143   2.931   2.022  2.7663  0.7978 -2.2587
  363MOL0     H48955   7.286   2.871   1.961  0.0484 -1.0825 -0.5678
  363MOL0     H48956   7.010   2.740   2.204 -0.5492  0.3227 -1.8615
  363MOL0     H48957   7.042   2.359   2.235  1.7273 -0.3317 -3.5600
  363MOL0     H48958   6.984   2.487   2.336 -1.0261 -2.5870  1.0360
  363MOL0     H48959   6.837   2.408   2.082  1.4777  1.9927 -1.3382
  363MOL0     H48960   6.796   2.370   2.258 -0.8052 -0.3475 -1.2719
  363MOL0     H48961   6.824   2.648   2.125 -1.6481 -0.4815 -0.9933
  363MOL0     H48962   6.793   2.625   2.296 -0.7173  1.1612 -0.6454
  363MOL0     H48963   6.581   2.672   2.187  0.8336  0.5292 -1.4293
  363MOL0     H48964   6.584   2.495   2.234  1.5601  0.2609  1.6157
  363MOL0     H48965   6.365   2.550   2.201 -2.3311  1.2888  0.0973
  363MOL0     H48966   6.149   2.452   2.147  0.4056  0.5233  0.2732
  363MOL0     H48967   5.913   2.155   1.983 -2.0543 -3.8724  1.4261
  363MOL0     H48968   5.677   2.052   1.982 -7.8160 -0.4060  0.0215
  363MOL0     H48969   5.378   2.352   2.048  1.1460  1.1802 -2.2632
  363MOL0     H48970   5.272   2.308   1.927 -1.3057  1.5015  1.9887
  363MOL0     H48971   5.235   2.097   2.045  3.4986 -1.0896  0.6354
  363MOL0     H48972   5.316   2.151   2.189 -0.2878 -0.1784  0.9055
  363MOL0     H48973   5.162   2.374   2.132  3.7517 -0.4959 -3.9027
  363MOL0     H48974   5.063   2.248   2.056 -0.6209  1.7729  0.0466
  363MOL0     H48975   5.155   2.232   2.356 -0.0565 -0.9806  1.1000
  363MOL0     H48976   5.060   2.116   2.274 -2.9144  0.3409 -0.5191
  363MOL0     H48977   4.916   2.261   2.414  1.1482  2.8030  2.1253
  363MOL0     H48978   4.884   2.294   2.247  1.1329  1.0182 -0.4593
  363MOL0     H48979   5.066   2.458   2.423 -0.3240 -0.2834 -1.0717
  363MOL0     H48980   5.013   2.487   2.251 -2.1523  2.1687 -1.1914
  363MOL0     H48981   4.910   2.557   2.511  0.8265  2.9843 -2.4706
  363MOL0     H48982   4.793   2.439   2.473 -0.2938  1.6137  1.5430
  363MOL0     H48983   4.715   2.676   2.380  1.3377  0.7615  2.8285
  363MOL0     H48984   4.878   2.704   2.315 -0.8958  0.2685  0.5146
  363MOL0     H48985   5.507   2.439   1.919  0.4132  0.0402  1.5218
  363MOL0     H48986   5.751   2.540   1.926  0.2088  0.2887  0.0387
  363MOL0     H48987   6.282   2.407   1.734 -1.8231  0.8240 -1.0008
  363MOL0     H48988   6.511   2.464   1.807 -0.7797  0.1341 -1.4370
  363MOL0     H48989   7.637   3.354   1.904 -1.9724  0.2261  0.4866
  363MOL0     H48990   7.765   3.323   1.702  0.1885  0.4880 -1.5247
  363MOL0     H48991   7.586   3.494   1.106  1.2383  2.2120  1.4019
  363MOL0     H48992   7.673   3.428   0.882 -0.9128 -0.9685  0.4528
  363MOL0     H48993   7.852   3.481   0.725  0.3334  1.4235  0.0134
  363MOL0     H48994   7.980   3.388   0.651 -1.4568 -1.0568 -0.3486
  363MOL0     H48995   8.000   3.554   0.900  0.4429  0.6778  0.2772
  363MOL0     H48996   8.069   3.615   0.757  0.8523  2.1376  4.9199
  363MOL0     H48997   8.155   3.374   0.901  1.0209  0.6607  1.6465
  363MOL0     H48998   8.249   3.530   0.870 -0.1951  0.0695  0.1892
  363MOL0     H48999   8.354   3.353   0.735  1.1523  3.3572 -2.0238
  363MOL0     H49000   8.205   3.296   0.679  0.8530 -0.2681 -0.4024
  363MOL0     H49001   8.342   3.558   0.392 -2.4111  2.2651  0.2158
  363MOL0     H49002   8.026   3.257   1.062  1.2773  1.9427 -1.2299
  363MOL0     H49003   8.061   3.271   1.315  0.6284  0.4315  3.1301
  363MOL0     H49004   7.950   3.385   1.399  0.2245 -0.9628  1.3597
  363MOL0     H49005   7.912   3.218   1.396  2.6258 -1.3069  0.3237
  364MOL0     O49006  10.358   3.929   9.831  0.0178 -0.3179  0.0368
  364MOL0     C49007  10.267   3.991   9.881  0.0924 -0.0219 -0.6741
  364MOL0     O49008  10.287   4.101   9.962  0.4639  0.7242  0.0185
  364MOL0     C49009  10.397   4.181   9.957 -0.2297 -0.0276 -0.7718
  364MOL0     C49010  10.422   4.257  10.072  0.3329 -0.2122 -0.1900
  364MOL0     C49011  10.530   4.344  10.085  0.6638  0.1267 -0.0083
  364MOL0     C49012  10.631   4.352   9.989  0.5500 -0.3814  0.0314
  364MOL0     O49013  10.750   4.433  10.007 -0.3821  0.0469 -0.5190
  364MOL0     C49014  10.853   4.439   9.910 -0.3103  0.0192  0.4387
  364MOL0     C49015  10.950   4.551   9.950 -0.4374  0.2298  0.0891
  364MOL0     C49016  11.055   4.498  10.054  0.0914 -0.5078 -0.5171
  364MOL0     C49017  11.196   4.541  10.019 -0.3887 -0.2451  1.1941
  364MOL0     C49018  11.304   4.512  10.118 -0.3949 -0.7347 -0.6705
  364MOL0     C49019  11.450   4.508  10.068 -0.4954 -0.5860 -0.8031
  364MOL0     C49020  11.551   4.559  10.177 -0.3634 -0.6036  0.4335
  364MOL0     C49021  11.545   4.485  10.308 -0.4299 -0.2774  0.2071
  364MOL0     N49022  11.652   4.535  10.397 -0.4175 -0.9114 -0.6018
  364MOL0     C49023  11.638   4.653  10.467  0.0364 -0.0423  0.2340
  364MOL0     C49024  11.764   4.694  10.491  0.2023 -0.4592 -0.8683
  364MOL0     C49025  11.806   4.826  10.558  0.3446  0.3038 -0.3196
  364MOL0     C49026  11.872   4.903  10.443  0.8158 -0.0686 -0.1033
  364MOL0     C49027  12.004   4.968  10.492  0.6157 -0.0964  0.5374
  364MOL0     C49028  11.978   5.074  10.602 -0.7316 -0.0615 -0.3231
  364MOL0     O49029  12.103   5.107  10.653 -1.0240 -0.2098 -0.4809
  364MOL0     C49030  12.181   5.205  10.599  0.0149 -0.3045  0.0827
  364MOL0     C49031  12.301   5.237  10.661  0.1778 -0.3479  0.1898
  364MOL0     C49032  12.377   5.339  10.599 -0.8111  0.0249  0.2661
  364MOL0     C49033  12.352   5.397  10.476 -0.1923 -0.6099  0.1759
  364MOL0     C49034  12.435   5.504  10.415 -0.7780  0.0070  0.4878
  364MOL0     O49035  12.397   5.561  10.297  0.1392 -0.1587 -0.1706
  364MOL0     C49036  12.462   5.668  10.238  0.6527 -1.0315 -0.1431
  364MOL0     C49037  12.403   5.792  10.211 -0.4235 -0.3935 -0.8011
  364MOL0     C49038  12.477   5.894  10.143  0.0303 -0.0436 -0.3870
  364MOL0     C49039  12.602   5.866  10.094  0.1182 -0.3462  0.7081
  364MOL0     O49040  12.671   5.964  10.033  0.6531 -0.0098 -0.2356
  364MOL0     C49041  12.788   5.937   9.954  0.7719  1.0392  0.0871
  364MOL0     C49042  12.839   6.079   9.912 -0.4172  0.5707  0.5115
  364MOL0     C49043  12.928   6.130  10.036 -0.2648 -1.1732  0.0158
  364MOL0     C49044  13.057   6.042  10.055  0.7632 -0.0082  1.0110
  364MOL0     C49045  13.156   6.102  10.159  0.2269  0.1238  0.2444
  364MOL0     C49046  13.298   6.041  10.147 -0.7087  0.2704 -1.2751
  364MOL0     C49047  13.312   5.895  10.210 -1.0225  0.9511  0.5040
  364MOL0     C49048  13.461   5.862  10.205 -0.0690  0.3044  0.4181
  364MOL0    Cl49049  13.561   5.948  10.320 -0.2732 -0.2309 -0.0179
  364MOL0     C49050  12.664   5.741  10.119  0.6734  0.2713  0.1605
  364MOL0     C49051  12.590   5.645  10.189 -1.2311 -0.0893 -0.3201
  364MOL0     O49052  12.536   5.539  10.475  0.0713  0.4241 -0.2100
  364MOL0     C49053  12.245   5.342  10.412 -0.9082 -0.4086 -1.2200
  364MOL0     C49054  12.154   5.260  10.476 -0.0037 -0.3840  0.2202
  364MOL0     N49055  11.846   4.590  10.451 -0.0481  0.4486  0.4456
  364MOL0     N49056  11.778   4.493  10.407 -0.3480 -0.5163  0.7250
  364MOL0     C49057  10.605   4.271   9.867 -0.9119  0.6031 -0.9439
  364MOL0     C49058  10.488   4.190   9.853  1.0523  0.6366  0.0797
  364MOL0     C49059  10.131   3.938   9.880  0.7712  0.7323 -0.6440
  364MOL0     C49060  10.034   4.022   9.939  0.3116  0.5553 -0.7915
  364MOL0     C49061   9.898   3.976   9.947 -0.4877 -0.4120 -0.1754
  364MOL0     C49062   9.863   3.852   9.901  1.0791 -0.2910  0.0424
  364MOL0     O49063   9.729   3.806   9.915  0.6329 -0.1916  0.1076
  364MOL0     C49064   9.613   3.894   9.917  0.5975  0.5866  0.4271
  364MOL0     C49065   9.604   3.971   9.774 -0.8174 -0.1333 -0.5665
  364MOL0     C49066   9.519   4.094   9.791 -0.0984 -0.7515 -0.8230
  364MOL0     C49067   9.598   4.210   9.853 -0.1857  0.0252  0.7077
  364MOL0     C49068   9.722   4.260   9.782 -0.3668  1.0702  0.3342
  364MOL0     C49069   9.820   4.293   9.725  0.9359  0.0397 -0.2920
  364MOL0     C49070   9.958   3.773   9.837  0.3971 -0.5566  0.0881
  364MOL0     C49071  10.094   3.815   9.828  0.3162  0.2346  0.7488
  364MOL0     C49072  10.193   3.722   9.750  0.3163 -0.1984 -0.7511
  364MOL0     H49073  10.337   4.253  10.140 -0.7607 -0.3508 -1.5133
  364MOL0     H49074  10.536   4.406  10.174 -3.2924  1.2878 -0.3774
  364MOL0     H49075  10.910   4.348   9.891  0.8468  1.0439 -1.2882
  364MOL0     H49076  10.800   4.473   9.820 -3.5546  1.5297  2.6991
  364MOL0     H49077  10.899   4.634   9.998  1.5229  0.3065  2.2372
  364MOL0     H49078  10.993   4.584   9.855  1.6370 -3.3093 -0.3815
  364MOL0     H49079  11.055   4.389  10.066  1.9353 -0.6111 -1.1212
  364MOL0     H49080  11.040   4.548  10.150  1.3154 -1.4818  0.2271
  364MOL0     H49081  11.216   4.488   9.926  3.3450  1.3125  0.9035
  364MOL0     H49082  11.193   4.650  10.006  0.8809 -0.4589 -1.6296
  364MOL0     H49083  11.300   4.591  10.194  1.3622  0.2697 -1.5829
  364MOL0     H49084  11.283   4.415  10.163 -1.2396  0.4000  1.5716
  364MOL0     H49085  11.470   4.405  10.038  1.1317 -1.5891  3.0902
  364MOL0     H49086  11.460   4.591   9.997 -1.0052  1.0505  0.9539
  364MOL0     H49087  11.530   4.663  10.201  3.0117  0.1119  0.7821
  364MOL0     H49088  11.655   4.556  10.143  0.3192  1.0695  2.1686
  364MOL0     H49089  11.450   4.496  10.361  1.2828 -0.2420  3.4724
  364MOL0     H49090  11.578   4.384  10.281  3.3532  1.1446 -1.1100
  364MOL0     H49091  11.556   4.723  10.474 -1.5143 -1.6589 -0.7641
  364MOL0     H49092  11.716   4.873  10.597 -0.9651 -3.3515  1.5764
  364MOL0     H49093  11.888   4.808  10.630 -0.3293  0.4169  0.4936
  364MOL0     H49094  11.907   4.844  10.358  4.0893 -0.4704  1.3542
  364MOL0     H49095  11.810   4.985  10.407  0.1034 -0.9448 -0.9195
  364MOL0     H49096  12.056   5.010  10.406  3.2298 -0.4634  1.8207
  364MOL0     H49097  12.077   4.895  10.527  2.3434  1.0710 -0.5018
  364MOL0     H49098  11.908   5.029  10.673 -0.1853 -1.6550 -0.7658
  364MOL0     H49099  11.924   5.160  10.562 -1.3775 -0.4808 -0.3657
  364MOL0     H49100  12.351   5.197  10.748  4.1023 -0.1685 -1.7570
  364MOL0     H49101  12.461   5.375  10.658 -2.9713  0.3712  3.3771
  364MOL0     H49102  12.314   5.812  10.270  0.8641 -2.3555  2.0508
  364MOL0     H49103  12.432   5.993  10.144  0.8933  0.3558  0.8489
  364MOL0     H49104  12.862   5.868   9.997 -1.0959 -1.5813 -0.6444
  364MOL0     H49105  12.764   5.892   9.857  2.4826  2.5860 -1.1166
  364MOL0     H49106  12.897   6.065   9.821 -0.3126 -0.5763  0.7336
  364MOL0     H49107  12.757   6.148   9.893  0.4998  1.4930 -0.1827
  364MOL0     H49108  12.952   6.234  10.015 -1.7754 -1.1525 -1.8417
  364MOL0     H49109  12.873   6.135  10.131  0.2796  1.8271  0.2770
  364MOL0     H49110  13.111   6.058   9.961 -1.5454 -0.7662 -0.5321
  364MOL0     H49111  13.042   5.934  10.070 -0.7595 -0.3267 -2.0571
  364MOL0     H49112  13.121   6.077  10.260 -1.0191 -0.4177 -0.3043
  364MOL0     H49113  13.162   6.211  10.154 -0.7631  0.2485  1.2140
  364MOL0     H49114  13.334   6.029  10.044  1.1473 -4.0000 -0.3431
  364MOL0     H49115  13.370   6.100  10.204  0.9815 -0.0746 -2.9303
  364MOL0     H49116  13.253   5.825  10.151 -1.8020 -0.0305  2.3847
  364MOL0     H49117  13.280   5.891  10.315  1.1546 -0.2523  1.1686
  364MOL0     H49118  13.469   5.757  10.234 -6.1300 -0.8867 -0.8381
  364MOL0     H49119  13.507   5.884  10.108 -0.3894  2.4298  0.6864
  364MOL0     H49120  12.766   5.719  10.092  0.6603  1.4219 -0.8959
  364MOL0     H49121  12.633   5.547  10.205 -0.7259 -0.2533 -2.3461
  364MOL0     H49122  12.218   5.356  10.308 -0.6243 -4.6198 -2.0103
  364MOL0     H49123  12.066   5.236  10.417  1.2238  0.9673 -2.3543
  364MOL0     H49124  10.678   4.280   9.787  0.8148 -2.1798  0.1781
  364MOL0     H49125  10.473   4.132   9.763  2.2639  1.0488 -0.4106
  364MOL0     H49126  10.061   4.118   9.981  1.7185 -0.7425  1.4315
  364MOL0     H49127   9.823   4.047   9.981  0.0792  1.2328 -2.1519
  364MOL0     H49128   9.615   3.964  10.001 -3.5558 -0.6934  1.8285
  364MOL0     H49129   9.529   3.826   9.934 -0.3062  1.5637 -0.0723
  364MOL0     H49130   9.562   3.910   9.694  0.5103 -2.0781  0.1298
  364MOL0     H49131   9.704   4.002   9.742  0.0939 -2.9899 -0.7521
  364MOL0     H49132   9.432   4.067   9.853  1.5329  2.6088  3.5238
  364MOL0     H49133   9.482   4.127   9.694 -1.1915  0.3529 -0.0607
  364MOL0     H49134   9.530   4.296   9.855 -0.2322  0.1753 -2.5272
  364MOL0     H49135   9.621   4.186   9.957  4.0902  4.0481  0.9950
  364MOL0     H49136   9.895   4.330   9.658  1.7445  0.7773  0.9879
  364MOL0     H49137   9.931   3.677   9.794 -1.3586 -0.3202  0.5651
  364MOL0     H49138  10.249   3.768   9.669 -0.4961  0.8969 -0.7141
  364MOL0     H49139  10.257   3.695   9.834 -1.2743  1.6312  1.1815
  364MOL0     H49140  10.144   3.627   9.727 -0.8346 -0.4561  2.2685
  365MOL0     O49141   8.984  10.083   5.966  0.4317  0.1884  0.0445
  365MOL0     C49142   8.924   9.994   6.031  0.8285 -0.6102  0.1985
  365MOL0     O49143   8.993   9.902   6.105 -0.4914  0.5835  0.6759
  365MOL0     C49144   9.120   9.921   6.152 -0.6077  0.1736 -0.2559
  365MOL0     C49145   9.229   9.962   6.073  0.3872  0.1207  0.3000
  365MOL0     C49146   9.355   9.985   6.125 -0.0406  0.6784  0.5356
  365MOL0     C49147   9.368   9.969   6.267 -1.0147 -0.8415 -0.8520
  365MOL0     O49148   9.498   9.984   6.312 -0.2479  0.0531  0.6384
  365MOL0     C49149   9.542   9.887   6.409 -0.0466  0.0354  0.6908
  365MOL0     C49150   9.693   9.923   6.429 -0.4179 -0.2508  0.3498
  365MOL0     C49151   9.712  10.043   6.520 -0.2811 -0.3517 -0.1452
  365MOL0     C49152   9.834  10.123   6.476 -0.2566 -1.2578  0.7193
  365MOL0     C49153   9.905  10.181   6.594  0.2332  0.1921 -1.4921
  365MOL0     C49154  10.037  10.098   6.607  0.6108 -0.7524 -0.0719
  365MOL0     C49155  10.133  10.150   6.716  0.8926  0.0842  0.3717
  365MOL0     C49156  10.187  10.292   6.704  0.3233 -0.3063  0.2720
  365MOL0     N49157  10.234  10.364   6.824  0.5668 -0.0670 -0.2181
  365MOL0     C49158  10.172  10.375   6.946 -0.1622  0.7305 -0.4698
  365MOL0     C49159  10.271  10.413   7.034  0.1431 -0.4055  0.2840
  365MOL0     C49160  10.263  10.455   7.176 -0.8892  0.7683  0.5538
  365MOL0     C49161  10.324  10.351   7.264 -0.1689 -0.3800  0.0591
  365MOL0     C49162  10.468  10.315   7.217  0.4847 -0.5236  0.2949
  365MOL0     C49163  10.546  10.246   7.335 -0.2031  0.5015  0.5729
  365MOL0     O49164  10.661  10.182   7.271  0.6606  0.1561 -0.1134
  365MOL0     C49165  10.764  10.141   7.352  0.6481 -0.3769  0.6141
  365MOL0     C49166  10.887  10.117   7.292 -0.1160 -0.4303  0.1548
  365MOL0     C49167  10.995  10.072   7.365  0.1112 -0.3622  0.4799
  365MOL0     C49168  10.990  10.073   7.498 -0.0829 -0.3376 -0.1548
  365MOL0     C49169  11.114  10.038   7.561  0.4571  0.5227 -0.4742
  365MOL0     O49170  11.222  10.040   7.489 -0.5058  0.1867  0.1465
  365MOL0     C49171  11.344   9.996   7.535 -0.6072  0.1233 -0.2649
  365MOL0     C49172  11.429   9.940   7.441  0.2484  0.0674  0.6944
  365MOL0     C49173  11.559   9.882   7.473  0.2787 -0.2006 -0.3723
  365MOL0     C49174  11.595   9.895   7.608  0.9354  0.3161 -0.0210
  365MOL0     O49175  11.724   9.853   7.630 -0.0567  0.0250 -0.0160
  365MOL0     C49176  11.797   9.913   7.737 -0.0279  0.5624 -0.8493
  365MOL0     C49177  11.826  10.062   7.725  1.2471 -0.3972  0.5114
  365MOL0     C49178  11.923  10.106   7.618 -0.0247  0.2796 -0.9639
  365MOL0     C49179  11.983  10.250   7.656  0.3165  0.7915 -0.6280
  365MOL0     C49180  12.096  10.280   7.557  0.6089 -0.3534  0.1054
  365MOL0     C49181  12.153  10.417   7.579  0.1391  0.5388  0.6474
  365MOL0     C49182  12.220  10.471   7.450 -0.4065  0.2546  0.6398
  365MOL0     C49183  12.159  10.594   7.382 -0.2797  0.6525  0.7162
  365MOL0    Cl49184  12.247  10.647   7.231 -0.0230  0.5343 -0.0856
  365MOL0     C49185  11.517   9.951   7.699  0.9152 -0.3224 -0.1872
  365MOL0     C49186  11.389  10.001   7.670 -0.7045 -0.1789  0.7977
  365MOL0     O49187  11.108  10.004   7.676 -0.9774 -0.9543 -0.3801
  365MOL0     C49188  10.870  10.093   7.560 -0.6923 -0.1787  0.1404
  365MOL0     C49189  10.753  10.129   7.494 -0.4594  0.2575  0.1377
  365MOL0     N49190  10.385  10.438   6.959  0.0567 -1.2378  0.5416
  365MOL0     N49191  10.367  10.402   6.833  0.5086  0.9030 -0.3030
  365MOL0     C49192   9.259   9.946   6.352 -0.0315 -0.1767  0.4890
  365MOL0     C49193   9.145   9.901   6.285  1.0862  0.0172  1.1303
  365MOL0     C49194   8.775   9.979   6.034 -0.5906 -0.0819  0.5130
  365MOL0     C49195   8.699  10.026   5.922  0.2493  0.4074  0.2276
  365MOL0     C49196   8.561  10.031   5.913  0.3176  0.5559 -0.1921
  365MOL0     C49197   8.488   9.983   6.023  0.7459 -0.3140 -1.0054
  365MOL0     O49198   8.345   9.987   6.037  0.7162 -0.3818 -0.3598
  365MOL0     C49199   8.268  10.022   5.930 -0.5900  0.1367  0.5180
  365MOL0     C49200   8.121  10.023   5.970  0.2123  0.5282  0.5873
  365MOL0     C49201   8.045  10.092   5.858  0.5794  0.9852 -0.8105
  365MOL0     C49202   7.893  10.075   5.884  0.3777  0.6820 -0.7458
  365MOL0     C49203   7.797  10.132   5.786  0.1635  0.8696  0.0678
  365MOL0     C49204   7.717  10.157   5.703  0.0023 -0.6944 -0.2653
  365MOL0     C49205   8.564   9.932   6.133 -0.5766  0.2376 -0.4929
  365MOL0     C49206   8.700   9.932   6.141  0.7263 -0.5049 -0.1902
  365MOL0     C49207   8.765   9.889   6.268  1.0414 -0.2590  0.2232
  365MOL0     H49208   9.215   9.976   5.966 -2.6342  1.1556  0.7228
  365MOL0     H49209   9.436  10.004   6.057  0.6818  0.0771  1.2059
  365MOL0     H49210   9.477   9.895   6.497 -1.3340  0.9253 -0.2981
  365MOL0     H49211   9.534   9.785   6.371  0.9316  1.5828 -4.3653
  365MOL0     H49212   9.730   9.938   6.327  0.6754  0.1648  0.7981
  365MOL0     H49213   9.742   9.835   6.471 -2.2492 -1.6302 -0.2835
  365MOL0     H49214   9.736   9.999   6.617  2.5918  1.0573 -0.1115
  365MOL0     H49215   9.618  10.099   6.515 -1.2644 -2.0179 -1.5816
  365MOL0     H49216   9.899  10.061   6.413 -0.4591  1.9020 -2.9175
  365MOL0     H49217   9.805  10.209   6.417  2.1021  0.2950  1.6614
  365MOL0     H49218   9.929  10.287   6.582  2.7296 -0.1909 -0.4557
  365MOL0     H49219   9.844  10.166   6.683  1.8070 -0.7558 -0.5299
  365MOL0     H49220  10.005   9.996   6.630 -1.5025  0.1844  1.4785
  365MOL0     H49221  10.092  10.100   6.512 -0.5016  0.6212 -0.7285
  365MOL0     H49222  10.218  10.082   6.725  0.5694 -0.1153  2.3724
  365MOL0     H49223  10.064  10.142   6.801  0.5436 -1.7567 -0.0583
  365MOL0     H49224  10.265  10.288   6.628  0.7564 -3.9905  0.7387
  365MOL0     H49225  10.101  10.342   6.656 -1.8634 -2.6648  1.4866
  365MOL0     H49226  10.069  10.351   6.971  0.5588 -0.3873  1.6319
  365MOL0     H49227  10.294  10.556   7.205  2.2209 -0.3622  1.5911
  365MOL0     H49228  10.158  10.445   7.207 -0.4634  0.3799  1.9253
  365MOL0     H49229  10.323  10.395   7.364 -0.9214 -2.6225  1.0861
  365MOL0     H49230  10.266  10.259   7.265 -0.4842 -0.1953 -0.4681
  365MOL0     H49231  10.517  10.406   7.183 -0.9812 -0.6245 -2.2811
  365MOL0     H49232  10.463  10.243   7.135 -0.1741  2.3684 -2.3540
  365MOL0     H49233  10.484  10.180   7.397  4.7170 -0.8367  4.7435
  365MOL0     H49234  10.579  10.328   7.400 -1.1082  4.4833 -3.4903
  365MOL0     H49235  10.904  10.119   7.185  1.6462  0.6955  0.4129
  365MOL0     H49236  11.086  10.043   7.313 -0.0617  0.3447 -0.2246
  365MOL0     H49237  11.408   9.938   7.334  2.1441  1.4249  0.2500
  365MOL0     H49238  11.635   9.848   7.403  0.6142  1.4547 -0.8430
  365MOL0     H49239  11.736   9.885   7.824  0.0833 -1.8305 -1.4676
  365MOL0     H49240  11.894   9.865   7.750 -0.0041  0.7754 -0.2447
  365MOL0     H49241  11.729  10.111   7.709  0.7565 -1.6566 -0.6204
  365MOL0     H49242  11.863  10.101   7.820  2.2355 -1.7600  0.7157
  365MOL0     H49243  12.008  10.037   7.621 -0.4412 -0.2117  0.0647
  365MOL0     H49244  11.869  10.092   7.524  1.4778  0.0978 -1.8361
  365MOL0     H49245  12.033  10.239   7.753  1.6245  1.5534 -1.1807
  365MOL0     H49246  11.905  10.325   7.659 -0.2201  0.3085 -1.7536
  365MOL0     H49247  12.048  10.263   7.460  1.6181 -1.1888 -0.2737
  365MOL0     H49248  12.179  10.209   7.566  0.2392 -0.6901  0.9046
  365MOL0     H49249  12.067  10.482   7.599 -1.0362 -1.0658  1.0259
  365MOL0     H49250  12.227  10.423   7.659  1.6457  1.3714 -0.7566
  365MOL0     H49251  12.232  10.391   7.377 -1.2380  1.2088 -0.5825
  365MOL0     H49252  12.322  10.499   7.479 -0.7706  1.1985  1.0603
  365MOL0     H49253  12.060  10.555   7.357  0.1814 -0.5972  0.7727
  365MOL0     H49254  12.153  10.675   7.456 -2.7412  0.7664  0.4523
  365MOL0     H49255  11.537   9.959   7.806  0.0155 -3.0832  0.2830
  365MOL0     H49256  11.327  10.060   7.736 -1.9279 -1.7121  1.0651
  365MOL0     H49257  10.861  10.068   7.666 -0.8811  1.8477  0.6316
  365MOL0     H49258  10.660  10.144   7.548  1.0579  1.5236  2.6001
  365MOL0     H49259   9.282   9.952   6.458  0.1119  0.9117  0.4068
  365MOL0     H49260   9.052   9.866   6.329  0.7911  0.5173  0.9125
  365MOL0     H49261   8.759  10.064   5.840  2.4682  1.1435  2.0818
  365MOL0     H49262   8.515  10.063   5.820  2.3715 -1.1837 -1.9325
  365MOL0     H49263   8.291   9.945   5.855  0.1082  1.0560 -0.2307
  365MOL0     H49264   8.287  10.121   5.888 -0.3908 -0.3102 -0.4898
  365MOL0     H49265   8.108  10.085   6.059 -1.3115  0.2494  0.5854
  365MOL0     H49266   8.088   9.921   5.993  1.3305  0.3641  1.5812
  365MOL0     H49267   8.074  10.047   5.762  0.1837  3.9424 -2.4519
  365MOL0     H49268   8.059  10.201   5.850  3.4323  0.7371 -0.3418
  365MOL0     H49269   7.879   9.966   5.879  1.2026  0.4878  0.7643
  365MOL0     H49270   7.875  10.100   5.989 -1.1209  1.6429 -1.1985
  365MOL0     H49271   7.643  10.184   5.630  0.7261  1.0380 -0.4020
  365MOL0     H49272   8.507   9.889   6.215 -0.2053 -0.5821 -0.6570
  365MOL0     H49273   8.694   9.865   6.348 -0.6126 -0.5121 -1.2543
  365MOL0     H49274   8.827   9.801   6.250 -0.4585 -1.1299 -1.0039
  365MOL0     H49275   8.822   9.969   6.317  0.7399 -0.6226  1.1913
  366MOL0     O49276   6.833   1.163   5.546 -0.4910 -0.5406 -0.3839
  366MOL0     C49277   6.812   1.202   5.428 -0.4786  0.4032  0.5383
  366MOL0     O49278   6.699   1.184   5.353 -0.0962  0.1106 -0.4395
  366MOL0     C49279   6.569   1.162   5.403  0.2304  0.6188  0.1119
  366MOL0     C49280   6.468   1.149   5.312 -0.3437  0.2068  0.5383
  366MOL0     C49281   6.339   1.121   5.343  0.4881 -0.4128 -0.6333
  366MOL0     C49282   6.296   1.111   5.478  0.4048 -0.7801 -0.5948
  366MOL0     O49283   6.171   1.090   5.513  0.5117 -0.2994 -0.0981
  366MOL0     C49284   6.084   1.203   5.508  0.3655  0.2468 -0.2971
  366MOL0     C49285   5.949   1.171   5.557  0.4450  0.1621 -0.8421
  366MOL0     C49286   5.863   1.303   5.547  0.4863  1.1364  1.0711
  366MOL0     C49287   5.731   1.285   5.475  0.2463  0.6844 -0.1794
  366MOL0     C49288   5.635   1.401   5.493  0.5011 -0.5552  0.1848
  366MOL0     C49289   5.501   1.371   5.430  0.1351 -0.4375 -1.0057
  366MOL0     C49290   5.406   1.493   5.403 -0.0191  0.2969  0.3188
  366MOL0     C49291   5.303   1.509   5.515  0.5868  0.1156 -0.0155
  366MOL0     N49292   5.199   1.610   5.498  0.0704  0.0576  0.3765
  366MOL0     C49293   5.112   1.607   5.390  0.8432 -0.8303 -0.2364
  366MOL0     C49294   5.059   1.737   5.386 -0.3517 -0.0039 -0.7475
  366MOL0     C49295   4.976   1.789   5.276 -0.6648 -0.0644  0.8494
  366MOL0     C49296   4.998   1.734   5.139 -0.1628 -1.0697  0.1231
  366MOL0     C49297   5.114   1.803   5.060 -0.9106 -0.2780  0.3567
  366MOL0     C49298   5.254   1.836   5.115  0.5749 -0.7346 -0.2809
  366MOL0     O49299   5.327   1.720   5.120  0.0415 -0.4984 -0.5095
  366MOL0     C49300   5.463   1.719   5.150 -0.0091 -0.6550  0.3305
  366MOL0     C49301   5.534   1.603   5.123  0.1873 -0.2305  0.0552
  366MOL0     C49302   5.672   1.597   5.155  0.5041  0.9174 -0.4380
  366MOL0     C49303   5.729   1.703   5.219 -0.1627 -0.6084  0.1054
  366MOL0     C49304   5.872   1.692   5.252  0.8403  0.2398 -0.7208
  366MOL0     O49305   5.936   1.586   5.219 -0.3174  0.3059 -0.2260
  366MOL0     C49306   6.071   1.589   5.232 -0.7391  0.8280  0.0801
  366MOL0     C49307   6.158   1.596   5.118 -0.1851 -0.8613  0.4838
  366MOL0     C49308   6.294   1.570   5.136  0.5715  0.2437  0.2574
  366MOL0     C49309   6.356   1.539   5.255  0.1484 -0.2299  0.1863
  366MOL0     O49310   6.492   1.516   5.257  0.5535  0.2509  0.4121
  366MOL0     C49311   6.566   1.547   5.379  0.1339 -1.0681 -0.0567
  366MOL0     C49312   6.724   1.544   5.375 -0.4893  0.9496 -0.8359
  366MOL0     C49313   6.781   1.654   5.278  0.1238 -0.0208 -0.0343
  366MOL0     C49314   6.915   1.622   5.221 -0.2930  0.0086 -0.0853
  366MOL0     C49315   6.988   1.743   5.158 -0.0727  0.4100 -0.9016
  366MOL0     C49316   7.132   1.714   5.116 -0.2404  0.8629 -0.2982
  366MOL0     C49317   7.191   1.834   5.041 -0.1558 -0.0306 -0.4826
  366MOL0     C49318   7.297   1.807   4.939  0.0160 -0.3440 -0.3653
  366MOL0    Cl49319   7.441   1.733   5.015 -0.4596 -0.0591  0.0884
  366MOL0     C49320   6.271   1.536   5.366 -0.8337 -0.9551 -0.1406
  366MOL0     C49321   6.134   1.562   5.354  0.1633  0.1473  0.1601
  366MOL0     O49322   5.918   1.784   5.319 -0.0214  0.1841  0.7934
  366MOL0     C49323   5.651   1.821   5.245 -1.4207  1.4446 -0.0991
  366MOL0     C49324   5.520   1.832   5.210  0.2025  0.2920  0.6948
  366MOL0     N49325   5.099   1.795   5.503 -1.1964  0.3857  0.4860
  366MOL0     N49326   5.192   1.729   5.560 -0.4117  0.4356  0.4405
  366MOL0     C49327   6.407   1.131   5.576 -0.2654  0.3675  1.3548
  366MOL0     C49328   6.535   1.162   5.537 -0.1217 -0.3076 -0.2913
  366MOL0     C49329   6.938   1.242   5.354 -0.9082  0.2628 -0.2421
  366MOL0     C49330   7.009   1.347   5.421  0.1023  0.7647  0.1469
  366MOL0     C49331   7.133   1.400   5.365 -0.2296  0.2910  0.5196
  366MOL0     C49332   7.179   1.362   5.239  0.1032  0.5255 -0.0809
  366MOL0     O49333   7.294   1.428   5.199 -0.1355  0.6968  0.2914
  366MOL0     C49334   7.394   1.344   5.129  0.2123 -0.4097 -0.1288
  366MOL0     C49335   7.535   1.390   5.171  0.6379  0.0780  1.7359
  366MOL0     C49336   7.643   1.317   5.099 -0.0855  0.7609  0.7105
  366MOL0     C49337   7.778   1.355   5.149 -0.7758  0.1377  0.8745
  366MOL0     C49338   7.877   1.273   5.071 -0.3354  0.1277 -0.4348
  366MOL0     C49339   7.953   1.206   4.998  0.7761 -0.7556 -0.9267
  366MOL0     C49340   7.106   1.256   5.175 -0.8693 -0.6330  0.1841
  366MOL0     C49341   6.995   1.196   5.234  0.1278 -0.2735  0.8225
  366MOL0     C49342   6.923   1.083   5.172  0.1633  0.2662 -0.5557
  366MOL0     H49343   6.501   1.159   5.209 -1.6331  0.5363  0.1374
  366MOL0     H49344   6.272   1.119   5.258  2.5761 -0.1652 -2.3749
  366MOL0     H49345   6.120   1.287   5.568  0.4491 -1.0159  1.4908
  366MOL0     H49346   6.073   1.228   5.402 -1.4256  0.6055 -0.0443
  366MOL0     H49347   5.963   1.147   5.663  1.6520 -1.8942 -1.4248
  366MOL0     H49348   5.902   1.085   5.508  0.4523 -0.2950 -0.0675
  366MOL0     H49349   5.912   1.372   5.479  1.1618 -0.1175  0.2437
  366MOL0     H49350   5.855   1.349   5.646  0.2683 -0.7349  1.9867
  366MOL0     H49351   5.737   1.271   5.367  0.7707  1.1044 -0.2074
  366MOL0     H49352   5.686   1.198   5.524  1.1777  0.5570  0.4766
  366MOL0     H49353   5.612   1.424   5.597  3.9032  0.7384  0.7847
  366MOL0     H49354   5.691   1.489   5.459  3.3347 -0.4909  4.2921
  366MOL0     H49355   5.517   1.318   5.337 -0.8365 -1.5477 -0.5698
  366MOL0     H49356   5.445   1.304   5.496  1.6545 -1.3562 -0.6197
  366MOL0     H49357   5.355   1.476   5.308 -0.5091 -1.0291  0.7975
  366MOL0     H49358   5.472   1.580   5.394  2.4903 -1.4268  0.6873
  366MOL0     H49359   5.249   1.414   5.521  2.6423 -1.0742  4.3462
  366MOL0     H49360   5.351   1.535   5.610  2.2774 -1.4755 -0.3784
  366MOL0     H49361   5.110   1.531   5.312 -0.1363 -0.4964 -0.5464
  366MOL0     H49362   4.874   1.765   5.308 -0.7314  0.1444  0.7950
  366MOL0     H49363   4.989   1.898   5.272 -0.4712  0.0622  3.2666
  366MOL0     H49364   5.024   1.628   5.149 -1.7959 -1.4908  0.1319
  366MOL0     H49365   4.902   1.749   5.089  1.6206  2.7725 -2.6383
  366MOL0     H49366   5.069   1.892   5.015 -0.5383 -0.6088 -0.6983
  366MOL0     H49367   5.132   1.739   4.973 -0.2338  3.4833 -2.5335
  366MOL0     H49368   5.242   1.892   5.208 -2.1394  0.1677 -1.0688
  366MOL0     H49369   5.305   1.899   5.043 -0.7331  0.6436 -0.0613
  366MOL0     H49370   5.488   1.515   5.079 -0.1038 -0.8583  1.5370
  366MOL0     H49371   5.727   1.503   5.154 -0.5613  0.1053  2.7072
  366MOL0     H49372   6.114   1.617   5.021  3.2694  1.0088 -0.8344
  366MOL0     H49373   6.352   1.592   5.047  0.5895  1.7615  0.6098
  366MOL0     H49374   6.540   1.650   5.404  0.4014 -0.1972 -2.9704
  366MOL0     H49375   6.523   1.479   5.453 -0.1440 -1.4139 -0.5361
  366MOL0     H49376   6.769   1.547   5.475 -2.7595 -0.8938  0.3530
  366MOL0     H49377   6.744   1.448   5.327  0.5618 -0.0272  1.4211
  366MOL0     H49378   6.712   1.665   5.193  1.2243  0.4982 -0.8825
  366MOL0     H49379   6.785   1.750   5.331  0.2191  1.5115 -2.6547
  366MOL0     H49380   6.907   1.544   5.145  0.3043  2.1045 -2.4563
  366MOL0     H49381   6.988   1.583   5.292 -0.3482 -0.7792 -0.4563
  366MOL0     H49382   6.979   1.828   5.227  1.3178  0.3177 -0.5898
  366MOL0     H49383   6.935   1.782   5.070 -1.3675 -0.3255 -0.4770
  366MOL0     H49384   7.188   1.699   5.209 -0.0879  1.5401 -0.2786
  366MOL0     H49385   7.146   1.628   5.050  1.4819  0.8857 -0.0129
  366MOL0     H49386   7.237   1.899   5.117 -1.5528 -0.5888  0.8854
  366MOL0     H49387   7.111   1.903   5.011  0.8612  2.6978  2.4733
  366MOL0     H49388   7.258   1.732   4.869 -2.7895  1.2403 -0.6397
  366MOL0     H49389   7.328   1.900   4.890  2.0719 -0.5159  0.4977
  366MOL0     H49390   6.310   1.507   5.464  1.5776  0.1978 -0.6711
  366MOL0     H49391   6.058   1.548   5.430 -4.1112  4.0656 -2.8248
  366MOL0     H49392   5.703   1.908   5.286 -0.5424  1.8837 -2.0268
  366MOL0     H49393   5.469   1.926   5.228  0.6896  0.8168 -0.5113
  366MOL0     H49394   6.378   1.125   5.680 -1.9861  0.6077  0.9350
  366MOL0     H49395   6.608   1.175   5.616  0.2271 -0.8777 -0.5129
  366MOL0     H49396   6.976   1.391   5.515 -2.2457  0.2700 -0.3884
  366MOL0     H49397   7.174   1.479   5.426 -0.2451  1.8273 -1.3923
  366MOL0     H49398   7.383   1.348   5.020 -1.5749 -0.6052  0.0179
  366MOL0     H49399   7.384   1.240   5.161  0.7026 -0.0423  1.2845
  366MOL0     H49400   7.539   1.370   5.278  1.5491  0.9130  1.8666
  366MOL0     H49401   7.551   1.495   5.146 -5.5081  0.6234 -2.0580
  366MOL0     H49402   7.632   1.333   4.991  0.0406  2.7330  0.9624
  366MOL0     H49403   7.632   1.210   5.119  0.9814  0.2828 -1.0506
  366MOL0     H49404   7.785   1.461   5.121 -1.0043  0.5160  2.2150
  366MOL0     H49405   7.796   1.343   5.256  2.5704  1.0547  0.5515
  366MOL0     H49406   8.016   1.146   4.937  0.1396 -2.5332  0.0948
  366MOL0     H49407   7.136   1.214   5.080 -2.3726 -1.2798 -0.0257
  366MOL0     H49408   6.973   1.026   5.093 -0.8434 -1.2910 -0.1114
  366MOL0     H49409   6.907   1.015   5.256 -2.0106  2.6415  1.0910
  366MOL0     H49410   6.829   1.125   5.137 -0.7539 -0.4832  0.9335
  367MOL0     O49411   2.371   8.235   5.228  0.1771 -0.2048 -0.9752
  367MOL0     C49412   2.345   8.259   5.343  0.6064 -0.1748 -0.5318
  367MOL0     O49413   2.398   8.199   5.452 -0.7487  0.0024 -0.4811
  367MOL0     C49414   2.498   8.107   5.433  0.4534  0.2632  0.1036
  367MOL0     C49415   2.629   8.139   5.481  0.7618 -0.1952  0.4872
  367MOL0     C49416   2.730   8.039   5.474 -0.1092 -0.9338  1.0759
  367MOL0     C49417   2.698   7.912   5.419  0.0568 -0.5745 -0.1231
  367MOL0     O49418   2.791   7.816   5.411 -0.2292 -0.9299 -0.2580
  367MOL0     C49419   2.827   7.739   5.532  0.0654  0.3069  0.4424
  367MOL0     C49420   2.921   7.620   5.503  0.0376 -0.3829 -0.6141
  367MOL0     C49421   2.867   7.512   5.413  0.0411  0.2223  0.0966
  367MOL0     C49422   2.961   7.384   5.434  0.2377 -0.0233  0.1834
  367MOL0     C49423   2.945   7.257   5.345 -0.6629 -0.0967 -0.9643
  367MOL0     C49424   3.058   7.155   5.361 -0.2183 -0.9955  0.2327
  367MOL0     C49425   3.077   7.050   5.254  0.2420  0.9418  1.2455
  367MOL0     C49426   3.201   6.968   5.282  0.3061 -0.1777  0.2074
  367MOL0     N49427   3.220   6.868   5.172 -0.9450  0.1761  0.4062
  367MOL0     C49428   3.213   6.890   5.037  0.3765  0.5010  0.1877
  367MOL0     C49429   3.229   6.765   4.984 -0.2164  0.3948 -1.0821
  367MOL0     C49430   3.225   6.719   4.842 -0.4045 -1.2849 -1.2503
  367MOL0     C49431   3.329   6.805   4.757  0.1832  0.5062 -1.0624
  367MOL0     C49432   3.343   6.733   4.619 -0.8476  0.4507 -0.4776
  367MOL0     C49433   3.460   6.793   4.540 -0.2868 -0.2699 -0.1364
  367MOL0     O49434   3.458   6.936   4.528  0.1791  1.2478  0.1870
  367MOL0     C49435   3.572   7.008   4.549 -0.2020  0.4260 -0.1981
  367MOL0     C49436   3.706   6.953   4.546 -0.4157  0.4189 -0.4840
  367MOL0     C49437   3.820   7.038   4.573  0.8203  0.1110 -0.6572
  367MOL0     C49438   3.803   7.172   4.593 -0.2584 -0.1989  0.1139
  367MOL0     C49439   3.923   7.254   4.628  0.6342 -0.2511 -0.1730
  367MOL0     O49440   4.047   7.198   4.645 -0.6531  0.1707  0.3078
  367MOL0     C49441   4.156   7.270   4.659 -0.6157  0.9355  0.1391
  367MOL0     C49442   4.254   7.206   4.738  0.2366  1.3481 -0.5657
  367MOL0     C49443   4.368   7.274   4.771 -0.1090 -0.0192 -0.0743
  367MOL0     C49444   4.390   7.407   4.721  0.7639  0.6739  0.0897
  367MOL0     O49445   4.507   7.472   4.750 -0.6579  0.1032  1.0246
  367MOL0     C49446   4.619   7.399   4.803 -0.0670  0.0212  0.0666
  367MOL0     C49447   4.627   7.418   4.957  0.5456  0.0453  0.9071
  367MOL0     C49448   4.657   7.564   5.007  0.1102  0.0025 -0.4394
  367MOL0     C49449   4.614   7.602   5.150 -0.4601 -0.3342  0.2170
  367MOL0     C49450   4.718   7.540   5.252  0.1008 -0.0447 -0.3015
  367MOL0     C49451   4.812   7.648   5.314  0.7111 -0.0640  1.0199
  367MOL0     C49452   4.916   7.600   5.418  0.6210  0.0977 -0.1199
  367MOL0     C49453   5.023   7.705   5.429  0.9586 -0.4533 -0.4955
  367MOL0    Cl49454   5.160   7.635   5.531  0.0532 -0.0822  0.2531
  367MOL0     C49455   4.302   7.466   4.632 -0.5181 -0.1724 -0.2083
  367MOL0     C49456   4.181   7.403   4.610  0.7385 -0.0362  0.7302
  367MOL0     O49457   3.887   7.369   4.659 -0.1281  0.2681  0.3488
  367MOL0     C49458   3.677   7.225   4.584  0.2574 -0.3058 -0.7618
  367MOL0     C49459   3.564   7.142   4.565 -0.5574 -0.0280 -0.8490
  367MOL0     N49460   3.239   6.663   5.085  0.1876 -0.0123 -0.0529
  367MOL0     N49461   3.229   6.733   5.198 -0.6641  0.3262  0.3154
  367MOL0     C49462   2.568   7.883   5.375 -1.0081 -0.1918  0.3924
  367MOL0     C49463   2.472   7.977   5.383 -0.6253  0.5165 -0.0531
  367MOL0     C49464   2.249   8.360   5.370 -0.6153 -0.1785  0.1095
  367MOL0     C49465   2.295   8.453   5.465 -0.4113  0.8657 -0.3017
  367MOL0     C49466   2.216   8.555   5.520 -0.4848 -0.5691 -0.3170
  367MOL0     C49467   2.088   8.566   5.481  0.8597 -0.7215 -0.2694
  367MOL0     O49468   2.004   8.658   5.540  0.2190  0.4042  0.0064
  367MOL0     C49469   1.953   8.600   5.665 -0.2493 -0.0931  0.3284
  367MOL0     C49470   1.861   8.708   5.727  1.0506 -0.0178  0.4613
  367MOL0     C49471   1.728   8.728   5.646  0.3042  0.0508 -0.2999
  367MOL0     C49472   1.634   8.836   5.723 -0.5582 -0.8764  0.3375
  367MOL0     C49473   1.527   8.892   5.640 -0.4172 -0.2910 -0.2062
  367MOL0     C49474   1.445   8.938   5.571  0.0502  0.8524 -0.1974
  367MOL0     C49475   2.033   8.473   5.384  0.2986 -0.4736 -0.5483
  367MOL0     C49476   2.116   8.377   5.326  0.1012  0.5771 -0.2116
  367MOL0     C49477   2.037   8.281   5.243  0.6431  0.0058 -0.3178
  367MOL0     H49478   2.636   8.237   5.526 -0.2706 -0.3120  0.9167
  367MOL0     H49479   2.833   8.055   5.503  0.4914  0.1193 -1.3520
  367MOL0     H49480   2.870   7.805   5.607  4.3748 -1.8239  0.1295
  367MOL0     H49481   2.736   7.686   5.564  0.0185 -2.2474 -3.2840
  367MOL0     H49482   2.930   7.566   5.598 -1.4714  2.5413  1.3257
  367MOL0     H49483   3.020   7.649   5.466  0.9555 -1.0300  1.1896
  367MOL0     H49484   2.853   7.546   5.310  2.4149  0.5802 -0.1478
  367MOL0     H49485   2.767   7.478   5.442 -0.4482 -0.3071 -2.0171
  367MOL0     H49486   3.061   7.424   5.413  0.3204 -0.5936 -0.5428
  367MOL0     H49487   2.964   7.364   5.542 -0.5353  2.9109  0.8289
  367MOL0     H49488   2.854   7.200   5.368 -0.0002 -1.2135 -1.0240
  367MOL0     H49489   2.933   7.278   5.239 -1.3251 -0.1565 -0.9091
  367MOL0     H49490   3.152   7.211   5.358 -0.4295 -0.2211  3.8525
  367MOL0     H49491   3.054   7.119   5.464  1.0821 -0.9002  0.3401
  367MOL0     H49492   3.090   7.099   5.157  0.7493 -2.1589 -0.3644
  367MOL0     H49493   2.983   6.993   5.257 -0.6324  2.1808 -0.4873
  367MOL0     H49494   3.288   7.035   5.285  0.9634 -0.7362 -2.8668
  367MOL0     H49495   3.186   6.915   5.377 -2.4673  1.1838  0.6379
  367MOL0     H49496   3.203   6.989   4.995  0.7469 -0.2154 -1.6912
  367MOL0     H49497   3.267   6.617   4.835 -0.2820 -1.1774 -2.2624
  367MOL0     H49498   3.125   6.719   4.798 -1.0976 -1.0307  0.2968
  367MOL0     H49499   3.291   6.907   4.748 -3.8238 -0.4542  1.9583
  367MOL0     H49500   3.421   6.817   4.815 -0.4732  1.8139 -0.2471
  367MOL0     H49501   3.250   6.744   4.563 -1.1675 -1.8030 -0.4800
  367MOL0     H49502   3.347   6.625   4.634 -2.1702  0.2978 -1.1298
  367MOL0     H49503   3.468   6.739   4.445 -2.3715 -0.2534 -0.3702
  367MOL0     H49504   3.540   6.752   4.603 -2.5410 -1.7150  1.9832
  367MOL0     H49505   3.725   6.847   4.527  3.7308  0.5860  1.6549
  367MOL0     H49506   3.921   6.998   4.578  0.9949  0.6701  0.7193
  367MOL0     H49507   4.228   7.111   4.785 -1.1313  1.3245 -1.3228
  367MOL0     H49508   4.439   7.218   4.831 -1.0277 -0.6091  0.4960
  367MOL0     H49509   4.625   7.291   4.791 -0.0223 -0.0422  0.6462
  367MOL0     H49510   4.709   7.437   4.753  0.1566 -1.5799 -0.7939
  367MOL0     H49511   4.523   7.396   4.979 -0.4222  4.1889  1.2867
  367MOL0     H49512   4.699   7.351   5.005 -2.1724 -2.8625  1.2795
  367MOL0     H49513   4.761   7.594   4.997  0.0276  0.4179 -0.0883
  367MOL0     H49514   4.590   7.630   4.952 -0.9187 -0.1170  0.6075
  367MOL0     H49515   4.519   7.550   5.172 -0.5447  0.8178  3.0156
  367MOL0     H49516   4.604   7.710   5.162 -1.1892 -0.2816 -0.7614
  367MOL0     H49517   4.774   7.452   5.217 -2.0486 -1.7409  0.2946
  367MOL0     H49518   4.662   7.501   5.338 -1.2624 -0.5948 -1.4063
  367MOL0     H49519   4.858   7.696   5.228 -3.3899 -0.3201 -1.6088
  367MOL0     H49520   4.752   7.724   5.366  2.3462  1.7014  0.4356
  367MOL0     H49521   4.964   7.506   5.390  1.7093  0.4486  0.5100
  367MOL0     H49522   4.871   7.600   5.518 -1.2224 -0.5220 -0.9021
  367MOL0     H49523   5.056   7.737   5.330 -0.6233 -0.7769 -1.1632
  367MOL0     H49524   4.982   7.796   5.473 -0.5325 -1.4789  0.3395
  367MOL0     H49525   4.318   7.563   4.587 -1.0683 -0.5886 -1.3304
  367MOL0     H49526   4.097   7.466   4.584  1.2590  0.9758  1.4421
  367MOL0     H49527   3.653   7.330   4.594 -2.3063 -0.7300 -1.7258
  367MOL0     H49528   3.464   7.184   4.556  1.4308  5.6475 -0.3082
  367MOL0     H49529   2.552   7.786   5.329 -3.3152 -1.1463  2.9681
  367MOL0     H49530   2.371   7.971   5.343 -1.2314  2.0723  1.1196
  367MOL0     H49531   2.401   8.449   5.489 -0.2749 -2.3140 -0.8913
  367MOL0     H49532   2.265   8.621   5.591 -0.1742 -0.9557 -0.1677
  367MOL0     H49533   2.031   8.576   5.737  1.3467  1.0078 -0.9824
  367MOL0     H49534   1.891   8.510   5.654 -0.7302  0.3940 -1.3433
  367MOL0     H49535   1.916   8.801   5.720  0.9472 -0.0517 -1.2089
  367MOL0     H49536   1.844   8.683   5.833  0.5525  0.2220  0.4432
  367MOL0     H49537   1.686   8.627   5.652 -3.3308  1.4412  0.3296
  367MOL0     H49538   1.738   8.743   5.538 -0.0098  0.8904 -0.2132
  367MOL0     H49539   1.598   8.785   5.812  3.0813 -2.3742  1.1132
  367MOL0     H49540   1.691   8.926   5.751 -3.2905  1.3467 -0.7327
  367MOL0     H49541   1.363   8.966   5.508 -0.3541  0.5821  0.1982
  367MOL0     H49542   1.928   8.481   5.358  0.1660 -0.1561  0.0664
  367MOL0     H49543   1.970   8.230   5.313 -1.1152  1.3022 -0.9701
  367MOL0     H49544   1.973   8.345   5.181 -3.4988 -2.6244  0.8417
  367MOL0     H49545   2.089   8.205   5.185  0.3116 -2.1416  2.0160
  368MOL0     O49546   8.494  10.717   4.995  0.0362  0.4724 -0.3522
  368MOL0     C49547   8.437  10.749   5.095  0.4349  0.1340 -0.3509
  368MOL0     O49548   8.485  10.722   5.221  0.0829  0.7753 -0.3413
  368MOL0     C49549   8.594  10.641   5.223 -0.5457 -0.0504  0.0758
  368MOL0     C49550   8.719  10.707   5.205 -0.0235  0.2548  1.3959
  368MOL0     C49551   8.838  10.640   5.227  0.8158  0.3152  0.6605
  368MOL0     C49552   8.836  10.507   5.267 -0.3127  0.3408  0.3566
  368MOL0     O49553   8.951  10.434   5.275  0.0277  0.2097 -0.1092
  368MOL0     C49554   9.080  10.497   5.308 -0.2575 -0.3885 -0.1085
  368MOL0     C49555   9.196  10.397   5.333 -0.6287  0.0819 -0.1936
  368MOL0     C49556   9.318  10.465   5.389  0.2032 -0.7403 -1.0451
  368MOL0     C49557   9.438  10.377   5.379 -0.1044  0.0947 -0.4232
  368MOL0     C49558   9.560  10.446   5.430  0.9892  0.2390 -0.3238
  368MOL0     C49559   9.553  10.523   5.560 -0.2445 -0.3425  0.5799
  368MOL0     C49560   9.686  10.556   5.622  0.6994 -0.1156  0.5282
  368MOL0     C49561   9.784  10.631   5.528  1.0771  0.1671  0.2378
  368MOL0     N49562   9.915  10.639   5.578  0.8205  0.4796 -0.2781
  368MOL0     C49563   9.974  10.767   5.595  0.5412 -0.8662 -0.4940
  368MOL0     C49564  10.086  10.740   5.657  0.0938 -0.1101  0.2730
  368MOL0     C49565  10.198  10.838   5.699  0.1747  0.5050 -0.1111
  368MOL0     C49566  10.279  10.877   5.575 -1.0056  0.7049  0.4893
  368MOL0     C49567  10.380  10.771   5.522  0.0780  0.4549 -0.5517
  368MOL0     C49568  10.402  10.775   5.375  0.9228 -0.5840 -0.1632
  368MOL0     O49569  10.530  10.714   5.334 -0.1307  0.4871  0.3044
  368MOL0     C49570  10.649  10.783   5.341  0.3942  0.7009  0.1454
  368MOL0     C49571  10.765  10.724   5.298  0.7995 -1.1654 -0.4558
  368MOL0     C49572  10.884  10.793   5.295 -0.5330  0.3695  0.4607
  368MOL0     C49573  10.900  10.917   5.349  0.6157 -0.2911  0.2771
  368MOL0     C49574  11.026  10.988   5.328  0.2676  0.6452  0.0447
  368MOL0     O49575  11.104  10.924   5.241  0.5377 -0.4651 -0.1954
  368MOL0     C49576  11.230  10.958   5.222  0.6312 -0.0684  0.4466
  368MOL0     C49577  11.284  10.926   5.102  0.8986 -0.0080  0.3643
  368MOL0     C49578  11.412  10.945   5.074  0.4130 -0.3310  0.0745
  368MOL0     C49579  11.498  11.002   5.169  0.4292 -0.1234 -0.0287
  368MOL0     O49580  11.634  11.033   5.150  0.1885 -0.3448  0.0524
  368MOL0     C49581  11.685  11.009   5.015 -0.2033 -0.0716 -0.7123
  368MOL0     C49582  11.832  11.036   5.017 -0.8878 -0.4108 -0.6548
  368MOL0     C49583  11.914  11.044   4.888  0.5567 -0.2060  0.3962
  368MOL0     C49584  11.927  10.899   4.828 -1.1282  0.0245  0.7683
  368MOL0     C49585  12.021  10.903   4.708 -0.7150  0.1308  0.1469
  368MOL0     C49586  12.091  10.770   4.682 -0.2998  0.4129  0.2999
  368MOL0     C49587  12.179  10.757   4.552 -0.1125  0.4159  0.0784
  368MOL0     C49588  12.246  10.622   4.550 -0.0021 -0.1940  0.7236
  368MOL0    Cl49589  12.271  10.588   4.382 -0.4227  0.3955 -0.4119
  368MOL0     C49590  11.444  11.024   5.297 -0.2633 -0.0023 -0.5412
  368MOL0     C49591  11.310  10.994   5.335  0.1719  0.7191  0.0561
  368MOL0     O49592  11.045  11.098   5.374 -0.0161 -0.1659  0.0153
  368MOL0     C49593  10.785  10.971   5.413  0.7224 -0.6460  0.0632
  368MOL0     C49594  10.658  10.906   5.410  0.6544  0.5000 -0.9180
  368MOL0     N49595  10.105  10.597   5.663 -0.7007 -0.3448 -0.6130
  368MOL0     N49596   9.998  10.543   5.617 -0.7898 -0.1339 -0.3635
  368MOL0     C49597   8.714  10.442   5.276  0.1745  0.7782  0.4926
  368MOL0     C49598   8.600  10.508   5.260  0.1168 -0.3272  0.7423
  368MOL0     C49599   8.294  10.783   5.094  0.0719  0.1568  0.2403
  368MOL0     C49600   8.202  10.704   5.018  0.1505 -0.1839 -0.1037
  368MOL0     C49601   8.068  10.749   5.008  1.3706  0.3830 -1.2382
  368MOL0     C49602   8.022  10.861   5.077  0.0757  1.0193  0.4154
  368MOL0     O49603   7.900  10.916   5.053  0.3872 -0.0122 -0.3152
  368MOL0     C49604   7.855  11.036   5.132  0.5516  0.5490  0.2976
  368MOL0     C49605   7.707  11.035   5.102 -0.5787 -0.3754 -0.7180
  368MOL0     C49606   7.635  10.899   5.140 -0.0135 -0.4622 -0.5168
  368MOL0     C49607   7.489  10.902   5.124  0.7040 -0.2203 -0.5301
  368MOL0     C49608   7.446  10.894   4.979  0.3963  0.2530 -0.2287
  368MOL0     C49609   7.417  10.908   4.860  0.3046 -0.4459 -0.0578
  368MOL0     C49610   8.116  10.921   5.160 -0.1934 -0.0695 -0.0815
  368MOL0     C49611   8.250  10.888   5.171  0.6474 -1.0429  0.5432
  368MOL0     C49612   8.341  10.971   5.260 -0.1118 -0.5304 -0.2913
  368MOL0     H49613   8.730  10.809   5.171 -0.7200 -0.3506 -0.8250
  368MOL0     H49614   8.931  10.694   5.216  1.2977 -0.5143  0.5491
  368MOL0     H49615   9.106  10.563   5.224 -0.6911 -0.9360 -0.6870
  368MOL0     H49616   9.072  10.554   5.401  1.5894  0.8988 -0.6863
  368MOL0     H49617   9.225  10.357   5.235 -4.5990  0.6310 -1.8096
  368MOL0     H49618   9.164  10.321   5.405  3.3238  0.6705  2.4557
  368MOL0     H49619   9.305  10.488   5.495  1.2772  0.5151 -1.1472
  368MOL0     H49620   9.348  10.556   5.335  4.0837  0.9852  3.2908
  368MOL0     H49621   9.422  10.287   5.439  0.4382 -0.1504 -0.6443
  368MOL0     H49622   9.455  10.351   5.274 -2.1212 -0.4409 -0.6640
  368MOL0     H49623   9.629  10.361   5.433  0.7552 -0.0040 -1.4700
  368MOL0     H49624   9.590  10.510   5.347  1.0434  1.3075  0.4854
  368MOL0     H49625   9.507  10.621   5.551  1.9546  0.6501 -0.6441
  368MOL0     H49626   9.500  10.452   5.624 -2.4284  0.8728  0.1953
  368MOL0     H49627   9.731  10.462   5.655 -1.0273 -1.6423 -1.2353
  368MOL0     H49628   9.666  10.624   5.705  0.0390 -0.1045  0.3699
  368MOL0     H49629   9.800  10.579   5.433 -2.4969 -0.8537  0.0472
  368MOL0     H49630   9.744  10.730   5.502  3.1592  0.9345 -0.2370
  368MOL0     H49631   9.924  10.863   5.590 -1.4805 -1.8907 -1.3201
  368MOL0     H49632  10.150  10.929   5.736 -1.8402 -0.6709  0.3404
  368MOL0     H49633  10.260  10.785   5.772  0.5768  0.7895 -0.2396
  368MOL0     H49634  10.208  10.893   5.493 -1.6204 -3.2734  0.0666
  368MOL0     H49635  10.330  10.968   5.608  1.0710 -1.1290  2.7932
  368MOL0     H49636  10.342  10.673   5.552 -1.3925  0.1264 -3.2337
  368MOL0     H49637  10.469  10.795   5.580 -0.6236  1.1142  0.2866
  368MOL0     H49638  10.401  10.879   5.342 -1.4058 -0.9727 -1.5998
  368MOL0     H49639  10.318  10.715   5.339  0.1317 -0.8651  1.9822
  368MOL0     H49640  10.759  10.627   5.249 -1.9691  0.1408 -3.0552
  368MOL0     H49641  10.962  10.743   5.239  1.2439  0.6336  2.5747
  368MOL0     H49642  11.228  10.871   5.027  2.0466  1.1246 -1.3943
  368MOL0     H49643  11.456  10.921   4.978  3.9947  0.6550  1.2994
  368MOL0     H49644  11.668  10.902   5.000  0.1478  0.0668 -2.2553
  368MOL0     H49645  11.645  11.074   4.937 -1.7602 -1.8489 -1.4720
  368MOL0     H49646  11.845  11.126   5.078  0.4767  0.9468 -2.8345
  368MOL0     H49647  11.877  10.963   5.084  3.0246  1.9128 -0.4757
  368MOL0     H49648  11.883  11.121   4.817 -1.6171 -1.2779  0.1085
  368MOL0     H49649  12.016  11.079   4.907  0.9701  0.1891 -2.2325
  368MOL0     H49650  11.829  10.868   4.790 -1.6253  2.9490 -0.6204
  368MOL0     H49651  11.973  10.842   4.908  0.4595  1.9979  1.3359
  368MOL0     H49652  12.105  10.971   4.727 -2.8212  3.9580 -2.7649
  368MOL0     H49653  11.975  10.948   4.620  0.3864 -0.5908 -0.8379
  368MOL0     H49654  12.147  10.749   4.774 -0.0308  2.3379  0.6073
  368MOL0     H49655  12.009  10.698   4.684 -0.5342  0.5829 -1.4268
  368MOL0     H49656  12.259  10.831   4.561  1.5042 -1.2926  0.3249
  368MOL0     H49657  12.114  10.770   4.465 -2.7081 -0.5334  1.7697
  368MOL0     H49658  12.344  10.608   4.596  0.4304 -0.8303 -0.3408
  368MOL0     H49659  12.191  10.549   4.611  0.9727 -0.6542  1.0742
  368MOL0     H49660  11.507  11.066   5.375 -3.0222 -1.7017  2.8881
  368MOL0     H49661  11.271  11.008   5.435 -0.1742 -1.5047  0.2740
  368MOL0     H49662  10.781  11.073   5.449 -0.0296 -0.9668  0.9310
  368MOL0     H49663  10.565  10.942   5.454 -1.3248  0.1795 -4.4892
  368MOL0     H49664   8.714  10.335   5.297 -3.4156  0.7124  0.7536
  368MOL0     H49665   8.503  10.462   5.278  0.5437 -0.8369  1.8082
  368MOL0     H49666   8.240  10.622   4.958  3.0502  1.1686 -0.2295
  368MOL0     H49667   8.001  10.688   4.949  1.5913  0.0620 -1.1588
  368MOL0     H49668   7.908  11.125   5.099 -1.3523  0.2282 -4.4119
  368MOL0     H49669   7.864  11.023   5.240 -2.4378 -1.6918  0.4418
  368MOL0     H49670   7.689  11.046   4.994 -1.6866 -3.6228 -0.9797
  368MOL0     H49671   7.673  11.114   5.168  0.8602 -1.6660  1.7134
  368MOL0     H49672   7.663  10.882   5.244 -2.6891  3.4778  1.0399
  368MOL0     H49673   7.672  10.812   5.084 -0.2844 -3.5469  3.6672
  368MOL0     H49674   7.449  10.816   5.179 -2.3739 -0.9065 -3.5023
  368MOL0     H49675   7.450  10.996   5.163 -1.2584 -0.8625 -0.8736
  368MOL0     H49676   7.384  10.916   4.758  1.1712 -2.1386 -0.5114
  368MOL0     H49677   8.085  10.999   5.230 -1.6966 -0.9073  0.2317
  368MOL0     H49678   8.444  10.955   5.226 -0.1124 -1.4352  0.1176
  368MOL0     H49679   8.317  11.077   5.242  0.8548 -0.1321  0.6822
  368MOL0     H49680   8.331  10.938   5.363  1.1009 -1.7191 -0.5283
  369MOL0     O49681   1.556   8.781   9.835 -0.1225 -0.1055 -0.1887
  369MOL0     C49682   1.532   8.688   9.767  0.4291  0.1717  0.3833
  369MOL0     O49683   1.617   8.582   9.738  0.5554  0.0575  0.4881
  369MOL0     C49684   1.732   8.575   9.807 -0.2349 -0.2885  0.4397
  369MOL0     C49685   1.848   8.552   9.733  0.1990  0.5751  0.5619
  369MOL0     C49686   1.977   8.547   9.784 -0.7121  0.0150  0.5474
  369MOL0     C49687   1.994   8.575   9.919  0.7364 -0.6006 -0.5029
  369MOL0     O49688   2.110   8.585   9.988 -0.6276  0.4707  0.0397
  369MOL0     C49689   2.231   8.576   9.915 -0.2130 -0.2030 -0.3415
  369MOL0     C49690   2.342   8.563  10.016 -0.5057  0.7244 -0.2435
  369MOL0     C49691   2.487   8.555   9.955  0.1748 -0.9225  0.7267
  369MOL0     C49692   2.594   8.600  10.055  0.1628 -0.6859  0.0792
  369MOL0     C49693   2.731   8.604   9.986 -0.2836  0.4637 -0.4152
  369MOL0     C49694   2.843   8.663  10.073 -0.6545 -0.3200 -0.2211
  369MOL0     C49695   2.981   8.668  10.007 -0.6389  0.2072 -0.4439
  369MOL0     C49696   3.067   8.741  10.110  0.1585  0.3837 -0.3887
  369MOL0     N49697   3.213   8.729  10.069 -0.3110 -0.3942  0.3851
  369MOL0     C49698   3.315   8.658  10.127 -0.1544  0.0141 -1.1132
  369MOL0     C49699   3.431   8.694  10.069 -0.2598  1.0917 -0.0487
  369MOL0     C49700   3.562   8.617  10.090 -0.0549  1.0862  0.4741
  369MOL0     C49701   3.682   8.678  10.019 -0.2124 -0.0501  0.4919
  369MOL0     C49702   3.800   8.572  10.010  0.3946 -0.5404 -1.2643
  369MOL0     C49703   3.900   8.611   9.902  0.6760 -0.6290  0.1097
  369MOL0     O49704   3.995   8.508   9.888 -0.0839  0.4664 -0.1449
  369MOL0     C49705   4.097   8.532   9.805  0.3464 -0.4468 -0.5846
  369MOL0     C49706   4.203   8.444   9.812 -0.2600  0.3175 -0.0779
  369MOL0     C49707   4.316   8.469   9.732  0.7781  0.0848 -0.1431
  369MOL0     C49708   4.327   8.568   9.637  0.2742 -0.4671  0.4298
  369MOL0     C49709   4.455   8.594   9.567 -0.9357 -0.7983 -0.3352
  369MOL0     O49710   4.466   8.710   9.503 -0.2328  0.3831  0.5497
  369MOL0     C49711   4.593   8.749   9.470 -0.7576  0.9487  0.1993
  369MOL0     C49712   4.629   8.888   9.488  0.2427 -0.2885  0.3159
  369MOL0     C49713   4.742   8.939   9.426 -0.9530  0.5153  0.7735
  369MOL0     C49714   4.831   8.846   9.361  0.0482 -0.4097 -0.3299
  369MOL0     O49715   4.952   8.888   9.306 -0.0727  0.3073 -0.5501
  369MOL0     C49716   5.036   8.797   9.225  0.7667 -0.0991 -0.6328
  369MOL0     C49717   5.160   8.877   9.188 -0.1275  0.1929  1.0552
  369MOL0     C49718   5.278   8.790   9.133 -0.2196  0.1953  0.4359
  369MOL0     C49719   5.232   8.716   9.007 -0.2377  0.9024  0.0123
  369MOL0     C49720   5.341   8.658   8.921 -0.7621 -0.0425  0.4133
  369MOL0     C49721   5.287   8.582   8.802 -0.4256  0.6944 -0.3237
  369MOL0     C49722   5.398   8.529   8.711  0.2248 -0.8353  0.0994
  369MOL0     C49723   5.346   8.457   8.584  0.7342 -0.2004 -0.1690
  369MOL0    Cl49724   5.285   8.568   8.462  0.1310 -0.1171  0.3230
  369MOL0     C49725   4.796   8.714   9.345  0.1042 -0.1767  0.4700
  369MOL0     C49726   4.676   8.665   9.391  0.2046 -1.0627 -0.4458
  369MOL0     O49727   4.537   8.507   9.573  0.2072  0.5880  0.0894
  369MOL0     C49728   4.220   8.665   9.635 -0.0726 -0.4702  0.2618
  369MOL0     C49729   4.110   8.647   9.722  0.3715  0.2905  0.2740
  369MOL0     N49730   3.404   8.787   9.977  0.2936 -0.8008 -0.1046
  369MOL0     N49731   3.280   8.820   9.982  0.4703  1.0264 -0.0268
  369MOL0     C49732   1.879   8.593   9.997  0.0054 -0.7953  0.0630
  369MOL0     C49733   1.748   8.596   9.940 -0.4009  0.3143  0.0855
  369MOL0     C49734   1.391   8.673   9.717 -0.0470 -0.4378 -0.3785
  369MOL0     C49735   1.342   8.547   9.665  0.0324  0.3038 -1.3214
  369MOL0     C49736   1.207   8.534   9.620 -0.9393  0.3081 -0.1725
  369MOL0     C49737   1.121   8.640   9.624 -0.4501  0.3294 -0.4151
  369MOL0     O49738   0.992   8.615   9.578 -0.4205  0.0489 -0.0789
  369MOL0     C49739   0.887   8.714   9.602  0.8805  0.1889  0.1807
  369MOL0     C49740   0.755   8.667   9.570  1.0908  0.4621  0.6755
  369MOL0     C49741   0.706   8.590   9.688  0.1346 -0.1469  0.2280
  369MOL0     C49742   0.558   8.564   9.671 -0.0970  0.2026 -0.3838
  369MOL0     C49743   0.482   8.674   9.722  0.1167  0.2292  0.3419
  369MOL0     C49744   0.427   8.771   9.772 -0.5253  0.0706 -0.8292
  369MOL0     C49745   1.175   8.762   9.674  0.6340  0.1120  0.3650
  369MOL0     C49746   1.299   8.780   9.719  0.0815  0.1389 -0.3947
  369MOL0     C49747   1.329   8.927   9.746  0.0067 -0.5254 -0.2768
  369MOL0     H49748   1.829   8.529   9.628  2.9435 -1.9674  0.4769
  369MOL0     H49749   2.059   8.538   9.713 -0.9484  3.4931 -0.3833
  369MOL0     H49750   2.237   8.484   9.856  1.6179 -0.2793 -0.0886
  369MOL0     H49751   2.262   8.663   9.856  2.0681  0.2395  1.3772
  369MOL0     H49752   2.317   8.478  10.081  1.6361  1.4471  1.6933
  369MOL0     H49753   2.331   8.659  10.068 -1.1129  0.0163  0.9915
  369MOL0     H49754   2.489   8.621   9.867  3.6506  2.7518  3.1447
  369MOL0     H49755   2.506   8.455   9.916  4.5151  0.4783 -1.4882
  369MOL0     H49756   2.572   8.697  10.101  1.0092 -1.0985  1.4344
  369MOL0     H49757   2.600   8.526  10.135  3.3324  0.4384  1.0563
  369MOL0     H49758   2.755   8.504   9.946 -2.8912  0.2619 -1.7085
  369MOL0     H49759   2.718   8.664   9.895 -1.9889 -1.1963 -1.3449
  369MOL0     H49760   2.806   8.762  10.102 -1.2714  0.0566 -2.1334
  369MOL0     H49761   2.850   8.603  10.164  2.0624  0.6187  0.2777
  369MOL0     H49762   2.962   8.715   9.910 -0.9852  1.2837  0.1286
  369MOL0     H49763   3.029   8.572   9.987 -2.3181 -0.8612  0.4115
  369MOL0     H49764   3.041   8.846  10.124 -0.2348 -0.0605  2.8452
  369MOL0     H49765   3.040   8.701  10.208 -0.8087 -0.3482 -0.9397
  369MOL0     H49766   3.304   8.577  10.199  2.3932 -0.7338 -1.4496
  369MOL0     H49767   3.573   8.614  10.199 -3.4647 -0.6149  0.9310
  369MOL0     H49768   3.542   8.514  10.059  2.3314  2.0645 -5.7253
  369MOL0     H49769   3.653   8.718   9.922 -0.5510  1.9038  1.3413
  369MOL0     H49770   3.716   8.768  10.070 -1.2029  1.0247 -0.6956
  369MOL0     H49771   3.752   8.480   9.977 -1.0850 -0.6041  0.8499
  369MOL0     H49772   3.839   8.559  10.111 -2.7726 -2.2943 -0.1441
  369MOL0     H49773   3.948   8.705   9.932  1.9130 -0.8710 -0.9924
  369MOL0     H49774   3.836   8.627   9.816 -1.2931 -0.4918  1.5350
  369MOL0     H49775   4.199   8.362   9.883  1.8067 -1.7590 -2.1798
  369MOL0     H49776   4.397   8.398   9.748 -0.9055 -1.2314  3.7410
  369MOL0     H49777   4.573   8.968   9.536  2.7666  0.9171  1.3879
  369MOL0     H49778   4.762   9.044   9.446 -0.8585  0.7172 -0.2826
  369MOL0     H49779   5.063   8.707   9.281 -2.5220  1.3254  3.8314
  369MOL0     H49780   4.976   8.771   9.138 -1.1916  0.4991  0.4728
  369MOL0     H49781   5.129   8.947   9.110  0.1283 -0.3384  0.4667
  369MOL0     H49782   5.196   8.945   9.265  2.6286 -0.0096  0.0690
  369MOL0     H49783   5.354   8.866   9.116 -1.4119  1.7207  1.5672
  369MOL0     H49784   5.319   8.713   9.198  0.0074 -1.0705 -1.1543
  369MOL0     H49785   5.167   8.781   8.948 -0.9075 -1.3450 -1.8861
  369MOL0     H49786   5.166   8.632   9.033 -0.4085  0.7504 -0.8799
  369MOL0     H49787   5.413   8.599   8.979 -0.6425  0.6201  0.9564
  369MOL0     H49788   5.402   8.740   8.882 -0.7190  1.0039  2.5428
  369MOL0     H49789   5.241   8.495   8.849  1.4713 -0.6569 -0.8663
  369MOL0     H49790   5.219   8.651   8.751 -1.4771 -0.1944 -0.1391
  369MOL0     H49791   5.456   8.463   8.777  1.7115  2.0387  1.8542
  369MOL0     H49792   5.467   8.607   8.678 -2.1579  1.1446 -0.4631
  369MOL0     H49793   5.430   8.396   8.548 -1.1735 -1.4140 -3.0175
  369MOL0     H49794   5.266   8.389   8.613  2.6076 -2.0886  0.8468
  369MOL0     H49795   4.834   8.648   9.268 -1.5710  2.1294 -2.5572
  369MOL0     H49796   4.648   8.563   9.372  1.0374 -1.2771 -0.5815
  369MOL0     H49797   4.228   8.749   9.566  0.1289  0.9845  1.9840
  369MOL0     H49798   4.039   8.728   9.735  1.2436  1.4098 -1.4867
  369MOL0     H49799   1.904   8.610  10.102  0.7539 -0.7307 -0.1227
  369MOL0     H49800   1.664   8.612  10.007  1.1691  0.5686  2.0723
  369MOL0     H49801   1.409   8.462   9.665  1.7881  1.6075 -1.9711
  369MOL0     H49802   1.168   8.440   9.583 -1.7166  0.4040  0.3750
  369MOL0     H49803   0.904   8.795   9.530  3.7324  0.3241  0.8987
  369MOL0     H49804   0.898   8.755   9.703 -1.0651 -1.8205  1.2920
  369MOL0     H49805   0.740   8.600   9.485  1.1467 -1.8143  2.3624
  369MOL0     H49806   0.688   8.749   9.547  0.6474 -0.3326 -1.0460
  369MOL0     H49807   0.718   8.664   9.768  1.5502  1.9440 -1.8098
  369MOL0     H49808   0.756   8.498   9.721 -1.4017 -1.2675 -0.4270
  369MOL0     H49809   0.528   8.552   9.566 -1.6498  0.2953  0.0345
  369MOL0     H49810   0.534   8.473   9.726  0.2650 -0.0115 -0.5732
  369MOL0     H49811   0.381   8.859   9.811  0.4783  0.3560 -0.2424
  369MOL0     H49812   1.100   8.840   9.687  0.8550  0.5597 -0.8915
  369MOL0     H49813   1.260   8.992   9.691  1.9227 -0.6537 -3.0514
  369MOL0     H49814   1.327   8.944   9.854  2.6448 -5.0600  0.7472
  369MOL0     H49815   1.428   8.959   9.714 -0.0850  0.5829  0.5064
  370MOL0     O49816   8.690   8.810   6.785 -0.9032  0.7008 -0.2342
  370MOL0     C49817   8.607   8.726   6.753  0.4325 -0.5487  0.5008
  370MOL0     O49818   8.632   8.595   6.733 -0.6602  0.5426 -0.0797
  370MOL0     C49819   8.763   8.557   6.708 -0.5303 -0.3800  0.8456
  370MOL0     C49820   8.807   8.536   6.576 -1.0368 -0.9220 -0.0443
  370MOL0     C49821   8.933   8.481   6.542  0.0933  0.0539 -0.3210
  370MOL0     C49822   9.026   8.471   6.638  0.8814  0.3318  0.1627
  370MOL0     O49823   9.153   8.423   6.621 -0.8114  0.2984 -0.3467
  370MOL0     C49824   9.181   8.354   6.497  0.5340  0.6421  0.5376
  370MOL0     C49825   9.315   8.278   6.485 -0.0881 -0.1567 -0.5662
  370MOL0     C49826   9.367   8.215   6.615  0.4079 -0.2912  0.2102
  370MOL0     C49827   9.270   8.107   6.670  0.2052  1.2337  0.4718
  370MOL0     C49828   9.329   8.033   6.789  1.2399 -1.0559 -0.1657
  370MOL0     C49829   9.469   7.982   6.784 -0.3298  0.5609  1.0338
  370MOL0     C49830   9.514   7.887   6.901 -0.4758  0.4668  0.9094
  370MOL0     C49831   9.661   7.842   6.870  0.3803  0.3915  0.2936
  370MOL0     N49832   9.701   7.704   6.922 -0.2207 -0.2675  0.1284
  370MOL0     C49833   9.722   7.596   6.849 -0.4119  0.1066 -0.1766
  370MOL0     C49834   9.764   7.506   6.934 -0.1545  0.5508  0.3234
  370MOL0     C49835   9.790   7.363   6.911 -0.1844 -0.6463  0.1755
  370MOL0     C49836   9.904   7.345   6.805 -0.5804  0.2398  0.7692
  370MOL0     C49837   9.870   7.368   6.660  0.1226  0.5866 -0.2931
  370MOL0     C49838   9.953   7.293   6.553 -0.1466  0.4976  0.6229
  370MOL0     O49839  10.096   7.319   6.558  0.1409  0.5212  0.3136
  370MOL0     C49840  10.143   7.438   6.510 -0.4647  0.5863 -0.5745
  370MOL0     C49841  10.074   7.528   6.434  0.0531 -1.0264 -0.4179
  370MOL0     C49842  10.139   7.639   6.380  0.8989  0.7666  0.1351
  370MOL0     C49843  10.276   7.652   6.386  0.0048  0.1157  0.3229
  370MOL0     C49844  10.344   7.769   6.330  0.9964 -0.0093 -0.2931
  370MOL0     O49845  10.480   7.746   6.324  0.1574 -0.5762 -0.4717
  370MOL0     C49846  10.547   7.842   6.251 -0.1515 -0.7612  0.5845
  370MOL0     C49847  10.584   7.816   6.112 -0.4232  0.1719  0.2901
  370MOL0     C49848  10.677   7.912   6.054  0.4458  0.2270  0.1955
  370MOL0     C49849  10.722   8.027   6.119 -0.9548 -0.3048 -0.9422
  370MOL0     O49850  10.827   8.096   6.067 -0.6287  0.2315  0.8427
  370MOL0     C49851  10.892   8.187   6.145  0.5604 -0.3992  0.3990
  370MOL0     C49852  11.031   8.203   6.088 -0.0672  0.7418 -0.1551
  370MOL0     C49853  11.021   8.315   5.996 -0.0187 -0.3736 -0.9003
  370MOL0     C49854  11.142   8.314   5.901 -0.2386  0.5846  0.6566
  370MOL0     C49855  11.257   8.392   5.975 -0.1179 -0.1534  1.4353
  370MOL0     C49856  11.370   8.420   5.873 -0.0174  0.3770  0.3607
  370MOL0     C49857  11.342   8.537   5.775 -0.4886  0.3339  0.3677
  370MOL0     C49858  11.455   8.547   5.671  0.0727 -0.2055  0.7733
  370MOL0    Cl49859  11.586   8.641   5.743  0.0670 -0.2569  0.3311
  370MOL0     C49860  10.669   8.059   6.246  0.9673 -0.1321 -0.3123
  370MOL0     C49861  10.582   7.965   6.305  0.0348  0.3806 -0.5264
  370MOL0     O49862  10.293   7.870   6.298 -0.0799  0.0189  0.1167
  370MOL0     C49863  10.349   7.557   6.453 -0.0468 -0.1297  0.4161
  370MOL0     C49864  10.283   7.451   6.519  0.5477  0.3663 -0.6753
  370MOL0     N49865   9.791   7.564   7.052 -0.1060 -0.1392  1.1290
  370MOL0     N49866   9.752   7.681   7.039 -0.0703 -1.0148 -0.7210
  370MOL0     C49867   8.988   8.479   6.777  0.0555 -0.3394  0.3288
  370MOL0     C49868   8.855   8.522   6.813  1.0140  0.5161  0.9372
  370MOL0     C49869   8.463   8.764   6.740 -1.2623  0.5555 -0.3853
  370MOL0     C49870   8.378   8.672   6.805  0.0271  0.4873  0.0788
  370MOL0     C49871   8.243   8.711   6.815 -0.5246  0.4136  1.3663
  370MOL0     C49872   8.195   8.825   6.765 -0.5560 -0.8176  0.4564
  370MOL0     O49873   8.068   8.854   6.801  0.2838  0.8919 -0.6183
  370MOL0     C49874   8.005   8.970   6.730 -0.1564 -0.0371 -0.2147
  370MOL0     C49875   7.847   8.970   6.742  0.2089 -0.5781 -0.0957
  370MOL0     C49876   7.806   8.841   6.671 -0.5351 -0.5625  0.2457
  370MOL0     C49877   7.655   8.830   6.663 -0.1150  1.0401  1.1654
  370MOL0     C49878   7.595   8.823   6.802  0.2337  0.3571 -0.1957
  370MOL0     C49879   7.545   8.844   6.915 -0.4468  0.3179  0.5504
  370MOL0     C49880   8.286   8.917   6.706  0.7997 -0.9143 -0.8939
  370MOL0     C49881   8.419   8.885   6.691 -0.1092 -0.1849  0.3879
  370MOL0     C49882   8.506   8.974   6.616  0.0229  0.0011  0.2886
  370MOL0     H49883   8.739   8.560   6.495 -2.8283 -1.1670  1.3334
  370MOL0     H49884   8.953   8.462   6.437  1.2714  0.9125 -0.2671
  370MOL0     H49885   9.107   8.273   6.486  0.5411  1.0096 -3.7176
  370MOL0     H49886   9.165   8.418   6.410  0.2173 -0.6125 -0.3460
  370MOL0     H49887   9.387   8.353   6.451  0.5325 -0.0975  0.8125
  370MOL0     H49888   9.314   8.206   6.403  3.0361  0.8130 -1.5721
  370MOL0     H49889   9.386   8.295   6.687 -0.1207  0.5673 -0.5749
  370MOL0     H49890   9.464   8.174   6.586  1.3249  1.9253 -0.1003
  370MOL0     H49891   9.187   8.161   6.716  0.0503  1.5970 -0.2201
  370MOL0     H49892   9.249   8.032   6.592  1.2309  2.7650 -1.3582
  370MOL0     H49893   9.321   8.105   6.872 -1.2221 -1.2278 -0.1578
  370MOL0     H49894   9.258   7.951   6.800  0.8180 -0.5946  0.7265
  370MOL0     H49895   9.483   7.925   6.692 -0.7778  0.1528  1.2147
  370MOL0     H49896   9.536   8.069   6.780  1.3508 -0.5547 -4.5678
  370MOL0     H49897   9.448   7.800   6.904  0.6153 -0.3635  1.2676
  370MOL0     H49898   9.506   7.941   6.995 -1.1019  0.6026  0.7859
  370MOL0     H49899   9.672   7.846   6.761 -1.9052  1.2527  0.0573
  370MOL0     H49900   9.725   7.917   6.918 -0.3354  1.5267 -0.4612
  370MOL0     H49901   9.715   7.579   6.742  2.6260 -0.9685 -0.2982
  370MOL0     H49902   9.814   7.327   7.011  1.8584  1.8465  0.7006
  370MOL0     H49903   9.699   7.320   6.868 -1.0725  1.7278 -0.5308
  370MOL0     H49904   9.985   7.415   6.826 -0.1661 -0.5229  1.7539
  370MOL0     H49905   9.930   7.239   6.812  0.0156  0.4398  1.6973
  370MOL0     H49906   9.873   7.475   6.640 -0.5245  0.9648  1.4811
  370MOL0     H49907   9.766   7.336   6.654 -0.3904  1.4318  2.5319
  370MOL0     H49908   9.911   7.288   6.452 -0.0425 -1.4610  0.6414
  370MOL0     H49909   9.957   7.185   6.572  0.9474  0.2826 -0.6838
  370MOL0     H49910   9.969   7.515   6.411  0.2440 -3.3974 -0.1714
  370MOL0     H49911  10.073   7.700   6.320  1.1047 -1.5345 -2.6180
  370MOL0     H49912  10.562   7.718   6.070 -1.3668  0.1238  0.8581
  370MOL0     H49913  10.720   7.909   5.954 -0.6586  2.1248 -0.4030
  370MOL0     H49914  10.834   8.279   6.147  1.8780  0.6940 -3.3559
  370MOL0     H49915  10.899   8.138   6.243  1.4942  1.4336  1.2875
  370MOL0     H49916  11.110   8.226   6.160  4.0117 -1.6885 -3.4519
  370MOL0     H49917  11.059   8.106   6.047 -2.0855  0.8667 -2.0114
  370MOL0     H49918  10.926   8.303   5.945 -1.2730 -1.7821  1.5769
  370MOL0     H49919  11.027   8.410   6.049  0.4867 -0.7259 -0.3064
  370MOL0     H49920  11.104   8.364   5.812  0.7412 -0.7617 -0.5519
  370MOL0     H49921  11.177   8.218   5.864 -0.5355  1.4495 -2.0673
  370MOL0     H49922  11.308   8.314   6.033  2.2751 -1.5456 -2.1658
  370MOL0     H49923  11.229   8.476   6.038  1.0618 -0.0038  1.7912
  370MOL0     H49924  11.460   8.454   5.926 -0.5009  0.8094  0.9186
  370MOL0     H49925  11.383   8.339   5.801  1.9672 -1.2039  2.3271
  370MOL0     H49926  11.333   8.632   5.830 -0.7580  0.4712  0.0880
  370MOL0     H49927  11.250   8.524   5.716 -0.1297  0.6891 -0.2741
  370MOL0     H49928  11.497   8.453   5.634 -4.3404 -1.7895 -0.9144
  370MOL0     H49929  11.415   8.592   5.579 -0.1277  0.3450  1.1244
  370MOL0     H49930  10.703   8.139   6.311  0.4422 -1.6068  1.9292
  370MOL0     H49931  10.546   7.990   6.404 -1.6694 -3.1761 -0.0877
  370MOL0     H49932  10.456   7.563   6.466  0.0906 -1.5880  0.1062
  370MOL0     H49933  10.338   7.379   6.580 -1.3663  0.4359  1.2785
  370MOL0     H49934   9.070   8.468   6.847 -1.7973 -3.9071  2.2111
  370MOL0     H49935   8.825   8.521   6.918 -1.0933  1.8056  0.4177
  370MOL0     H49936   8.424   8.581   6.843  2.9085  1.7422 -0.1067
  370MOL0     H49937   8.171   8.637   6.850 -0.1759 -1.7520 -2.0863
  370MOL0     H49938   8.039   8.970   6.626 -2.7702  2.5716 -1.2188
  370MOL0     H49939   8.047   9.060   6.777  1.9675 -2.2008  2.3664
  370MOL0     H49940   7.804   9.059   6.696 -0.7604  0.8697  3.2680
  370MOL0     H49941   7.817   8.965   6.847  2.3742 -2.1655  0.5264
  370MOL0     H49942   7.842   8.749   6.718  1.0667  0.3619  0.9331
  370MOL0     H49943   7.834   8.849   6.566 -3.4237 -1.5681 -0.7114
  370MOL0     H49944   7.605   8.913   6.612 -4.9513 -0.5789  2.6524
  370MOL0     H49945   7.612   8.750   6.603 -0.8694  2.6740 -0.5626
  370MOL0     H49946   7.505   8.870   7.011  0.8846  0.9390  0.9641
  370MOL0     H49947   8.260   9.019   6.680  0.6543 -0.2873  1.5207
  370MOL0     H49948   8.447   9.039   6.551  1.8023  2.3439  0.8698
  370MOL0     H49949   8.565   9.032   6.689  1.1535 -0.2425 -0.4071
  370MOL0     H49950   8.581   8.913   6.565 -0.8152 -0.0756 -0.8809
  371MOL0     O49951   8.230  10.508   9.564 -0.1491 -0.2624  0.0668
  371MOL0     C49952   8.153  10.513   9.470  0.1749 -0.2695 -0.2004
  371MOL0     O49953   8.173  10.590   9.363 -0.0200  0.2579  0.0291
  371MOL0     C49954   8.277  10.681   9.361 -0.4391  0.1087 -0.2295
  371MOL0     C49955   8.417  10.654   9.376 -0.2092 -0.0381 -0.2975
  371MOL0     C49956   8.508  10.760   9.369 -0.5747 -0.9232  0.9877
  371MOL0     C49957   8.462  10.889   9.337 -0.3726  0.2205 -0.5090
  371MOL0     O49958   8.551  10.991   9.318 -0.2230 -0.1968 -0.5162
  371MOL0     C49959   8.684  10.973   9.370 -1.4598 -0.0525  0.0846
  371MOL0     C49960   8.790  10.942   9.258  0.9535  0.2093  0.2354
  371MOL0     C49961   8.769  11.038   9.128 -0.5411 -0.2021 -0.3572
  371MOL0     C49962   8.846  11.168   9.130  0.2199 -1.0754  0.5870
  371MOL0     C49963   8.785  11.291   9.051  0.0318  0.4678 -1.2674
  371MOL0     C49964   8.765  11.257   8.904  0.2207  1.3315  1.3417
  371MOL0     C49965   8.890  11.207   8.830  0.6451  0.1005 -0.2262
  371MOL0     C49966   8.847  11.132   8.700 -0.5915 -0.4300 -0.5232
  371MOL0     N49967   8.958  11.073   8.628 -0.3080  0.3114 -0.2653
  371MOL0     C49968   9.072  11.136   8.589  0.0947 -0.6200 -0.5528
  371MOL0     C49969   9.163  11.041   8.558  1.0336 -0.2440  0.0368
  371MOL0     C49970   9.299  11.067   8.494 -0.0641 -0.2976  0.3308
  371MOL0     C49971   9.283  11.126   8.340  0.4584  0.1861 -0.8217
  371MOL0     C49972   9.415  11.114   8.266 -0.5574  0.2999 -1.3419
  371MOL0     C49973   9.532  11.201   8.323  0.6543  0.0754 -0.5545
  371MOL0     O49974   9.624  11.231   8.219 -0.0652  0.6350  0.3447
  371MOL0     C49975   9.757  11.223   8.253  0.3198 -0.0154 -0.5476
  371MOL0     C49976   9.841  11.204   8.153  0.4650 -1.0726 -0.6365
  371MOL0     C49977   9.976  11.197   8.176  0.0706  0.7036  0.5370
  371MOL0     C49978  10.031  11.210   8.300 -1.2892 -0.9220 -0.6502
  371MOL0     C49979  10.172  11.210   8.323 -0.5955 -0.7160  0.7888
  371MOL0     O49980  10.260  11.207   8.222  0.1795  0.0646  0.3627
  371MOL0     C49981  10.393  11.223   8.257 -0.5395  0.8438  0.1651
  371MOL0     C49982  10.477  11.138   8.182  0.2857 -0.0936  0.4498
  371MOL0     C49983  10.617  11.142   8.189  0.2741  0.0612 -0.5763
  371MOL0     C49984  10.675  11.237   8.271  0.0907 -0.1628  0.3436
  371MOL0     O49985  10.811  11.243   8.276  0.0307 -0.1772 -0.8152
  371MOL0     C49986  10.880  11.348   8.222 -0.2761  0.1072  0.0411
  371MOL0     C49987  11.038  11.329   8.258  0.3189 -0.4147 -0.6097
  371MOL0     C49988  11.086  11.193   8.207  0.4557  0.0031 -0.1147
  371MOL0     C49989  11.231  11.159   8.208  0.8203 -0.3586 -0.2075
  371MOL0     C49990  11.232  11.005   8.169  0.1962  0.1470  0.6268
  371MOL0     C49991  11.355  10.946   8.236 -0.7828  0.2757 -0.4059
  371MOL0     C49992  11.347  10.796   8.230  0.5140 -0.3334 -0.1210
  371MOL0     C49993  11.453  10.724   8.313 -0.4649 -0.1658  0.5974
  371MOL0    Cl49994  11.461  10.552   8.302 -0.2011  0.2488  0.0287
  371MOL0     C49995  10.597  11.323   8.345  0.9134 -0.0775  0.4451
  371MOL0     C49996  10.452  11.319   8.339  0.4359  0.4765  0.3250
  371MOL0     O49997  10.206  11.195   8.435 -0.1790  0.2253 -0.1671
  371MOL0     C49998   9.945  11.232   8.403  0.2230  0.2051  0.3784
  371MOL0     C49999   9.807  11.240   8.384  0.6035 -1.1990  0.0415
  371MOL0     N50000   9.099  10.919   8.589 -0.1205  0.8052 -0.1370
  371MOL0     N50001   8.985  10.940   8.638  0.3629  0.0670  0.0778
  371MOL0     C50002   8.325  10.912   9.316 -0.3772  0.5433 -0.2952
  371MOL0     C50003   8.234  10.806   9.327 -0.2385 -0.2196  0.4448
  371MOL0     C50004   8.035  10.431   9.484  0.0863 -0.4499  0.0789
  371MOL0     C50005   8.056  10.292   9.508  0.7702  0.0448 -1.3761
  371MOL0     C50006   7.947  10.205   9.504 -0.6517  0.1840  0.3681
  371MOL0     C50007   7.813  10.260   9.507 -0.5567 -0.3223 -0.3670
  371MOL0     O50008   7.719  10.167   9.524 -0.1943  0.2225 -0.1668
  371MOL0     C50009   7.584  10.207   9.499  0.8503 -0.0276  1.0911
  371MOL0     C50010   7.561  10.201   9.349  0.0793 -0.0859 -0.2763
  371MOL0     C50011   7.410  10.167   9.311 -0.8062 -0.3054  0.0307
  371MOL0     C50012   7.331  10.289   9.265  0.0236 -0.3958 -0.2870
  371MOL0     C50013   7.351  10.394   9.361  0.2323 -0.6014 -0.0586
  371MOL0     C50014   7.371  10.479   9.445 -0.0882  0.1907 -0.2992
  371MOL0     C50015   7.798  10.399   9.501 -0.4290  0.0611  0.1514
  371MOL0     C50016   7.907  10.480   9.484 -0.0797  0.7366 -0.2152
  371MOL0     C50017   7.857  10.618   9.451  0.1873 -0.6162  0.4198
  371MOL0     H50018   8.443  10.550   9.393 -1.1833  0.2696  4.6691
  371MOL0     H50019   8.611  10.729   9.378 -0.6030 -0.7491  2.2015
  371MOL0     H50020   8.714  11.067   9.417 -1.0589 -0.8993  1.5805
  371MOL0     H50021   8.695  10.895   9.446 -1.9241 -0.7745 -0.5632
  371MOL0     H50022   8.780  10.841   9.217  0.1721  0.5277 -0.3831
  371MOL0     H50023   8.887  10.942   9.308  1.8041 -1.1652 -1.3178
  371MOL0     H50024   8.664  11.036   9.096 -0.6393 -1.0173 -0.0376
  371MOL0     H50025   8.816  10.986   9.044  0.7965 -0.0350  0.2660
  371MOL0     H50026   8.854  11.193   9.236  0.3951 -2.4375  0.9164
  371MOL0     H50027   8.952  11.161   9.103  0.3715 -0.7560  1.0793
  371MOL0     H50028   8.688  11.319   9.092  0.2513  1.0851 -1.1557
  371MOL0     H50029   8.853  11.376   9.065 -0.2313  0.2297  2.4058
  371MOL0     H50030   8.682  11.186   8.898  1.9649 -0.6808 -0.7359
  371MOL0     H50031   8.737  11.346   8.847  2.8055  2.5397  1.8133
  371MOL0     H50032   8.948  11.137   8.891  0.3677 -0.7100 -0.8651
  371MOL0     H50033   8.963  11.285   8.809  3.4620 -2.5494 -0.9898
  371MOL0     H50034   8.767  11.060   8.721  2.6176 -3.7891  1.0945
  371MOL0     H50035   8.788  11.202   8.640 -3.7929 -0.9388  1.7698
  371MOL0     H50036   9.087  11.243   8.590 -0.1096 -0.5903 -0.5946
  371MOL0     H50037   9.351  11.141   8.555  1.3455  1.2040 -2.4734
  371MOL0     H50038   9.360  10.976   8.495 -1.5184 -1.3127  0.0151
  371MOL0     H50039   9.203  11.069   8.293 -1.2113  3.0217 -1.6934
  371MOL0     H50040   9.242  11.227   8.349  0.5388  0.0777  1.2606
  371MOL0     H50041   9.387  11.146   8.166 -4.1201  1.4793 -0.1219
  371MOL0     H50042   9.454  11.012   8.270 -0.4730  0.3558 -0.4535
  371MOL0     H50043   9.567  11.142   8.408 -2.0025 -0.9182 -0.0469
  371MOL0     H50044   9.496  11.300   8.353 -0.2097 -0.0480 -1.1533
  371MOL0     H50045   9.800  11.184   8.054  1.6259  0.0591 -1.3743
  371MOL0     H50046  10.035  11.176   8.087  0.0857 -4.7343  1.4836
  371MOL0     H50047  10.428  11.054   8.135 -1.0999  0.4523  0.8429
  371MOL0     H50048  10.671  11.062   8.138  0.5017 -0.0878 -0.1070
  371MOL0     H50049  10.858  11.356   8.116  2.3970 -3.1108 -0.9524
  371MOL0     H50050  10.846  11.434   8.280 -0.1564  0.6872 -0.7370
  371MOL0     H50051  11.092  11.405   8.200 -2.6342  4.2460  2.1361
  371MOL0     H50052  11.068  11.335   8.363  0.3966  0.8988 -0.6928
  371MOL0     H50053  11.025  11.136   8.277  0.0547  1.4842  0.7707
  371MOL0     H50054  11.044  11.188   8.106 -3.0598 -0.4323  1.2296
  371MOL0     H50055  11.269  11.171   8.310  1.0580  2.1667 -0.5357
  371MOL0     H50056  11.279  11.229   8.140  0.2119  1.0626  0.7806
  371MOL0     H50057  11.228  10.995   8.060  2.1039  1.7927  0.3485
  371MOL0     H50058  11.141  10.961   8.211 -0.0995 -1.6697 -1.7121
  371MOL0     H50059  11.447  10.969   8.180 -1.8420  1.4869 -1.7243
  371MOL0     H50060  11.375  10.976   8.340  2.5359 -1.3611 -0.4102
  371MOL0     H50061  11.350  10.775   8.123 -0.6371  2.0298 -0.6833
  371MOL0     H50062  11.251  10.762   8.270  0.4430  0.5273  0.4782
  371MOL0     H50063  11.550  10.759   8.278 -0.3392 -0.2199  0.8821
  371MOL0     H50064  11.451  10.759   8.417 -0.1649 -2.4357  1.4337
  371MOL0     H50065  10.635  11.405   8.404 -1.6826 -0.7964  3.3329
  371MOL0     H50066  10.388  11.392   8.386 -1.8238  0.5519 -2.6044
  371MOL0     H50067   9.977  11.229   8.507 -1.3600  0.3742  0.9004
  371MOL0     H50068   9.739  11.275   8.461  2.5067  2.4159  0.3309
  371MOL0     H50069   8.302  11.015   9.289 -0.7599  0.7538  0.7965
  371MOL0     H50070   8.128  10.826   9.313 -0.2858  1.9145  3.0590
  371MOL0     H50071   8.160  10.260   9.500  1.9436  1.9399  3.0504
  371MOL0     H50072   7.965  10.097   9.507  1.7704  0.2957 -3.3483
  371MOL0     H50073   7.550  10.305   9.533  1.0518 -0.2847  2.0622
  371MOL0     H50074   7.519  10.134   9.549 -0.1666  1.5392  2.1124
  371MOL0     H50075   7.627  10.130   9.297  0.3542  0.3677 -0.5558
  371MOL0     H50076   7.591  10.298   9.308  0.5399 -0.0582  0.1200
  371MOL0     H50077   7.368  10.127   9.404  0.6602 -0.6812  0.5620
  371MOL0     H50078   7.407  10.094   9.230  0.6625 -0.0835 -0.2423
  371MOL0     H50079   7.364  10.306   9.162 -0.8810 -0.4104 -0.5851
  371MOL0     H50080   7.225  10.268   9.281  0.0787  1.1859  2.9746
  371MOL0     H50081   7.395  10.569   9.498  0.6951  0.6963 -1.4530
  371MOL0     H50082   7.702  10.446   9.516  0.3707  1.3442  1.5128
  371MOL0     H50083   7.937  10.685   9.419  0.6626 -0.9628  0.8628
  371MOL0     H50084   7.784  10.617   9.370  1.4455  1.7827 -0.8564
  371MOL0     H50085   7.811  10.674   9.533 -1.6248  0.5715 -1.3005
  372MOL0     O50086   6.632   5.217   0.936  0.2800  0.2749 -0.7182
  372MOL0     C50087   6.614   5.333   0.903 -0.6699  0.3701 -0.3295
  372MOL0     O50088   6.685   5.409   0.813  0.5582 -0.3914  0.2277
  372MOL0     C50089   6.802   5.376   0.760 -0.1878  0.2958  0.1050
  372MOL0     C50090   6.819   5.410   0.632  0.6518  0.2141  0.6156
  372MOL0     C50091   6.942   5.375   0.567  0.2383 -0.5352  0.4162
  372MOL0     C50092   7.041   5.313   0.637 -0.1987 -0.7077  0.9726
  372MOL0     O50093   7.158   5.307   0.571  0.3654  0.8444 -0.4964
  372MOL0     C50094   7.255   5.201   0.609  0.5178 -0.3857  0.6239
  372MOL0     C50095   7.350   5.193   0.498  0.0499 -0.2797 -0.5410
  372MOL0     C50096   7.316   5.079   0.402  0.6916 -0.2756 -0.8977
  372MOL0     C50097   7.437   5.025   0.325 -0.1217 -0.1767  0.0982
  372MOL0     C50098   7.461   5.123   0.214 -0.1665  0.6572 -0.3981
  372MOL0     C50099   7.572   5.061   0.122  0.1170  0.2142 -0.2681
  372MOL0     C50100   7.591   5.124  -0.012 -0.5060 -0.5168 -0.6941
  372MOL0     C50101   7.670   5.042  -0.113  0.3863 -0.0215 -0.1787
  372MOL0     N50102   7.811   5.023  -0.086  0.0049  1.0603  0.6236
  372MOL0     C50103   7.903   5.122  -0.062  0.1333  0.5400 -0.1497
  372MOL0     C50104   8.005   5.048  -0.004  0.1464 -0.0097  0.6934
  372MOL0     C50105   8.132   5.107   0.054  0.7372 -0.1818 -0.7614
  372MOL0     C50106   8.118   5.116   0.209  0.7081  0.5481  0.0522
  372MOL0     C50107   8.092   4.976   0.277 -0.5960 -0.3225 -0.2442
  372MOL0     C50108   8.214   4.896   0.294 -0.5771  0.9259  0.7682
  372MOL0     O50109   8.328   4.975   0.322 -0.2146  0.1339 -0.1688
  372MOL0     C50110   8.445   4.909   0.350  0.1043 -0.2644 -0.0669
  372MOL0     C50111   8.494   4.810   0.272  0.9895 -0.7294  0.2601
  372MOL0     C50112   8.618   4.756   0.296  0.1779 -0.2127  0.7776
  372MOL0     C50113   8.699   4.794   0.400 -0.6491  0.6913 -0.4927
  372MOL0     C50114   8.833   4.730   0.429 -0.0980  0.1886 -1.0178
  372MOL0     O50115   8.900   4.778   0.539  0.5517  0.3557  0.3384
  372MOL0     C50116   9.036   4.775   0.551 -0.6192 -0.6729  0.6247
  372MOL0     C50117   9.127   4.769   0.447 -0.1178 -1.3345  0.2035
  372MOL0     C50118   9.268   4.765   0.475 -0.0539 -0.6749  0.7184
  372MOL0     C50119   9.309   4.798   0.601 -0.6145 -0.0853 -0.3880
  372MOL0     O50120   9.443   4.813   0.640  0.5772 -0.1573  0.6355
  372MOL0     C50121   9.537   4.727   0.574 -0.2711  0.0097 -0.1391
  372MOL0     C50122   9.504   4.578   0.613 -0.3720  0.1946  0.4406
  372MOL0     C50123   9.604   4.466   0.579 -0.6328  0.7516  0.7487
  372MOL0     C50124   9.630   4.447   0.431  0.1127 -0.5010  0.3774
  372MOL0     C50125   9.515   4.387   0.353  0.4491 -0.0386  0.4572
  372MOL0     C50126   9.565   4.366   0.210 -0.1332  0.0947 -0.4806
  372MOL0     C50127   9.457   4.291   0.127 -0.0493 -0.1968 -0.5261
  372MOL0     C50128   9.307   4.332   0.133 -0.5018  0.5344 -0.7608
  372MOL0    Cl50129   9.222   4.235   0.011  0.1762  0.1056  0.5985
  372MOL0     C50130   9.214   4.821   0.703  0.1733  0.4157  0.2863
  372MOL0     C50131   9.079   4.805   0.681  0.7915 -0.1313  0.7903
  372MOL0     O50132   8.875   4.644   0.351  0.1017 -0.4122  0.8777
  372MOL0     C50133   8.649   4.896   0.483 -0.5604 -0.4717 -1.3572
  372MOL0     C50134   8.526   4.956   0.457  1.1057  0.1650 -0.6000
  372MOL0     N50135   7.979   4.906  -0.021  0.0284 -0.8077  0.2424
  372MOL0     N50136   7.861   4.896  -0.076 -0.6448 -0.0460  0.1540
  372MOL0     C50137   7.021   5.267   0.763 -0.8785 -0.1775 -0.4750
  372MOL0     C50138   6.904   5.301   0.826 -0.0494 -1.0272  0.2760
  372MOL0     C50139   6.486   5.394   0.942  0.1923 -0.6376 -0.2630
  372MOL0     C50140   6.383   5.300   0.976  0.6853 -0.4218  0.4999
  372MOL0     C50141   6.266   5.346   1.026  0.3862  0.2594  0.6362
  372MOL0     C50142   6.235   5.482   1.040 -0.1361  0.2035  0.2308
  372MOL0     O50143   6.129   5.534   1.098 -0.2751  0.0806  0.0435
  372MOL0     C50144   6.013   5.502   1.021  0.4897  0.2393  0.2102
  372MOL0     C50145   5.997   5.616   0.921 -0.8615 -0.5274 -0.1965
  372MOL0     C50146   5.879   5.600   0.823  0.2570  0.8418  0.1736
  372MOL0     C50147   5.742   5.598   0.894  0.8802 -0.2891 -0.0401
  372MOL0     C50148   5.687   5.464   0.906  0.2034  0.1162  0.2478
  372MOL0     C50149   5.646   5.355   0.902 -0.2461 -1.0230 -0.0028
  372MOL0     C50150   6.339   5.571   1.007  0.5073 -0.4094 -0.4897
  372MOL0     C50151   6.458   5.531   0.951 -0.5452 -0.0864  0.0163
  372MOL0     C50152   6.559   5.635   0.923 -0.4028 -0.2885  0.3241
  372MOL0     H50153   6.741   5.469   0.585  0.9130 -0.7712 -1.1502
  372MOL0     H50154   6.942   5.409   0.464 -0.4192  0.0375  0.5975
  372MOL0     H50155   7.310   5.228   0.700  1.0754 -1.6770  0.7009
  372MOL0     H50156   7.190   5.114   0.629 -1.6867  0.8836 -0.6162
  372MOL0     H50157   7.440   5.144   0.537  0.0228  0.8250  0.9695
  372MOL0     H50158   7.380   5.287   0.451  1.6849 -0.8861 -0.7810
  372MOL0     H50159   7.226   5.102   0.344 -0.9600  0.1419  1.6430
  372MOL0     H50160   7.288   4.999   0.472 -2.4822  0.6281 -0.9718
  372MOL0     H50161   7.522   5.028   0.393 -1.3293 -1.0239  1.7416
  372MOL0     H50162   7.421   4.921   0.295  2.7356  0.0674 -2.7840
  372MOL0     H50163   7.371   5.138   0.155 -0.9340 -1.3975  0.1701
  372MOL0     H50164   7.497   5.215   0.262  0.5755  0.3667 -0.3793
  372MOL0     H50165   7.669   5.068   0.174  3.3957 -0.9334 -5.4955
  372MOL0     H50166   7.548   4.956   0.107 -0.8365  0.4134 -0.1894
  372MOL0     H50167   7.631   5.224   0.004  1.2728 -1.1550 -0.8694
  372MOL0     H50168   7.487   5.137  -0.044 -0.9600 -1.0710  0.5026
  372MOL0     H50169   7.621   4.945  -0.119 -4.2749  2.0619 -0.7179
  372MOL0     H50170   7.653   5.088  -0.211 -2.0557  0.8376  0.5815
  372MOL0     H50171   7.892   5.229  -0.077 -2.4869  0.6001  1.5718
  372MOL0     H50172   8.211   5.038   0.024  0.6550  0.7935 -3.5861
  372MOL0     H50173   8.153   5.209   0.020 -0.3957  1.9115  4.0390
  372MOL0     H50174   8.207   5.158   0.256 -0.9555  2.2369  1.8808
  372MOL0     H50175   8.030   5.176   0.234 -1.9887 -3.0928  0.0468
  372MOL0     H50176   8.018   4.922   0.217 -1.5411  0.5653  0.0774
  372MOL0     H50177   8.062   4.995   0.381  2.3150 -0.5672  0.7187
  372MOL0     H50178   8.221   4.841   0.200  0.2922  3.6383 -0.8564
  372MOL0     H50179   8.202   4.830   0.381  0.8270  1.6639  1.5571
  372MOL0     H50180   8.437   4.788   0.183 -1.3933  2.4162  0.8430
  372MOL0     H50181   8.650   4.674   0.233 -1.7071  0.9258 -1.7922
  372MOL0     H50182   9.090   4.756   0.345  1.1350 -2.7282 -0.1094
  372MOL0     H50183   9.336   4.764   0.391 -0.3815  1.7631  0.3298
  372MOL0     H50184   9.559   4.734   0.467  0.4889 -1.1322 -0.0830
  372MOL0     H50185   9.633   4.753   0.619 -0.0727 -1.2052  0.1802
  372MOL0     H50186   9.494   4.563   0.721  2.1278 -1.0411  0.5681
  372MOL0     H50187   9.410   4.543   0.569 -0.9653  2.4783 -0.2932
  372MOL0     H50188   9.698   4.499   0.626  1.5947 -3.1974 -0.4777
  372MOL0     H50189   9.579   4.369   0.624  1.5903  0.4087  1.3814
  372MOL0     H50190   9.723   4.390   0.420 -0.1249 -0.5210 -2.0778
  372MOL0     H50191   9.651   4.545   0.385 -2.3102  0.4098  1.0778
  372MOL0     H50192   9.433   4.458   0.354  2.7321  2.8134 -0.7897
  372MOL0     H50193   9.488   4.292   0.400  0.3360  0.2735  1.0298
  372MOL0     H50194   9.596   4.460   0.164 -0.6573  1.0447  1.0276
  372MOL0     H50195   9.655   4.305   0.212 -0.8991 -1.0724  1.6973
  372MOL0     H50196   9.464   4.192   0.173 -1.7980 -0.1665 -0.1248
  372MOL0     H50197   9.482   4.288   0.021 -1.3874  2.1024 -0.9616
  372MOL0     H50198   9.262   4.325   0.232 -0.1479  2.4695 -0.4139
  372MOL0     H50199   9.297   4.436   0.100 -0.6560  1.5219  2.1674
  372MOL0     H50200   9.237   4.848   0.806  0.8744  1.6727 -0.1765
  372MOL0     H50201   9.013   4.820   0.765 -0.2151  0.6929 -0.1215
  372MOL0     H50202   8.699   4.919   0.577  0.0867  3.3356 -2.4495
  372MOL0     H50203   8.498   5.043   0.516 -2.1894  0.0787 -1.8440
  372MOL0     H50204   7.095   5.220   0.827 -0.1577 -1.7073 -2.3480
  372MOL0     H50205   6.886   5.262   0.926 -1.5819  1.1866  0.9473
  372MOL0     H50206   6.380   5.192   0.965 -2.8691 -0.3677 -0.0721
  372MOL0     H50207   6.185   5.279   1.054  1.3870 -0.4458  1.9151
  372MOL0     H50208   5.927   5.501   1.089  0.4909 -0.8640  0.2153
  372MOL0     H50209   6.012   5.407   0.966  3.5304  0.8242 -1.0618
  372MOL0     H50210   6.088   5.617   0.861 -0.0544 -0.1120  1.0041
  372MOL0     H50211   5.986   5.708   0.979  2.4566 -0.4601  0.5089
  372MOL0     H50212   5.884   5.510   0.761  0.7990 -0.7415  2.3463
  372MOL0     H50213   5.889   5.691   0.764 -0.7597  0.6667 -0.2906
  372MOL0     H50214   5.747   5.641   0.994 -0.7231 -3.2186  1.4361
  372MOL0     H50215   5.664   5.650   0.837 -0.0621  1.3706  2.6139
  372MOL0     H50216   5.599   5.261   0.884 -0.1751 -1.0266 -0.1708
  372MOL0     H50217   6.309   5.674   1.023 -1.1870 -0.0628 -4.6499
  372MOL0     H50218   6.563   5.645   0.814 -0.5334 -1.5322  0.1946
  372MOL0     H50219   6.523   5.725   0.974  2.4365  0.1756  1.7315
  372MOL0     H50220   6.657   5.611   0.965 -1.9250 -2.2715  3.0540
  373MOL0     O50221   6.894   7.013   3.388  0.1165 -0.6834 -0.2325
  373MOL0     C50222   6.787   6.956   3.403  0.1335  0.0476 -0.0080
  373MOL0     O50223   6.760   6.822   3.390 -0.3682 -0.2812 -0.3852
  373MOL0     C50224   6.853   6.756   3.315 -0.8796 -0.4413 -0.5455
  373MOL0     C50225   6.976   6.698   3.364 -0.2036 -0.0892 -0.4700
  373MOL0     C50226   7.068   6.641   3.278 -0.3332  0.0438  0.3118
  373MOL0     C50227   7.038   6.625   3.139  0.3670 -0.6280  0.1111
  373MOL0     O50228   7.125   6.551   3.058 -0.4825  0.4798 -0.6560
  373MOL0     C50229   7.269   6.557   3.098  0.6547  0.6285 -0.2282
  373MOL0     C50230   7.345   6.537   2.959  0.5174 -0.0210  0.6425
  373MOL0     C50231   7.487   6.488   2.987  0.0628 -0.3239 -1.4417
  373MOL0     C50232   7.563   6.519   2.861 -0.6747  1.0033  0.2526
  373MOL0     C50233   7.712   6.484   2.857  0.6116  0.1836 -0.4480
  373MOL0     C50234   7.736   6.336   2.883  0.4280 -0.1442 -0.2320
  373MOL0     C50235   7.880   6.284   2.854 -0.7470  0.4858 -0.2669
  373MOL0     C50236   7.879   6.126   2.864  0.0457 -0.7691  0.5153
  373MOL0     N50237   8.013   6.070   2.864  0.6000  0.4825  0.9424
  373MOL0     C50238   8.105   6.091   2.777 -0.0492 -0.3683  0.7330
  373MOL0     C50239   8.210   6.012   2.818  0.3140  0.1918  0.9094
  373MOL0     C50240   8.341   5.991   2.740  1.0296  0.4978 -0.3503
  373MOL0     C50241   8.424   5.878   2.803  0.5801 -0.4891  0.2692
  373MOL0     C50242   8.551   5.849   2.716 -0.3727  0.1318  0.1145
  373MOL0     C50243   8.678   5.929   2.739 -0.0034  0.8290  0.4095
  373MOL0     O50244   8.729   5.897   2.873  0.5813 -0.3185 -0.0972
  373MOL0     C50245   8.864   5.889   2.875  0.0549  0.3686 -0.1815
  373MOL0     C50246   8.943   5.988   2.922  0.2807  0.6700  0.6221
  373MOL0     C50247   9.084   5.974   2.928  0.1175 -0.1411  0.3405
  373MOL0     C50248   9.136   5.858   2.874 -0.3986  0.6151  0.6505
  373MOL0     C50249   9.283   5.832   2.877 -0.6993 -0.2618  0.4896
  373MOL0     O50250   9.331   5.731   2.801 -0.2871  1.0027 -0.3429
  373MOL0     C50251   9.463   5.696   2.812 -0.1371  0.5362 -0.7874
  373MOL0     C50252   9.503   5.584   2.884 -0.1488 -0.4312 -0.1449
  373MOL0     C50253   9.641   5.555   2.888 -0.7049 -0.1913 -0.2649
  373MOL0     C50254   9.742   5.630   2.834  1.0144 -0.0211 -1.1432
  373MOL0     O50255   9.871   5.594   2.852 -0.1416  0.2983 -0.6577
  373MOL0     C50256   9.946   5.603   2.731  0.2734  0.3685 -0.6713
  373MOL0     C50257  10.100   5.588   2.768 -0.4377 -0.1386 -0.2093
  373MOL0     C50258  10.191   5.584   2.650 -0.2308  0.1010  0.1985
  373MOL0     C50259  10.340   5.591   2.695 -0.1052 -0.3983 -0.0324
  373MOL0     C50260  10.446   5.560   2.590  0.6226 -0.0977 -0.1165
  373MOL0     C50261  10.424   5.636   2.457 -1.0103 -0.2353  0.0776
  373MOL0     C50262  10.546   5.620   2.367 -0.2332  0.2573  0.5271
  373MOL0     C50263  10.633   5.743   2.390  0.4632 -0.6559  0.0102
  373MOL0    Cl50264  10.792   5.704   2.310  0.1020 -0.0114  0.3733
  373MOL0     C50265   9.700   5.741   2.762  0.1975 -0.6606 -0.2313
  373MOL0     C50266   9.559   5.771   2.750 -0.4266  0.0610 -0.7127
  373MOL0     O50267   9.348   5.906   2.957 -0.9302  0.1491 -0.1456
  373MOL0     C50268   9.053   5.757   2.825 -0.0711  0.0236 -0.0998
  373MOL0     C50269   8.917   5.776   2.820 -0.5747 -0.1012 -0.0319
  373MOL0     N50270   8.170   5.944   2.927 -0.3849  0.0365 -0.0816
  373MOL0     N50271   8.049   5.977   2.950  0.0222 -0.6909 -0.2765
  373MOL0     C50272   6.926   6.672   3.087  0.1073  0.2651 -0.3833
  373MOL0     C50273   6.833   6.732   3.178 -0.0658  0.3258  1.7583
  373MOL0     C50274   6.672   7.031   3.461 -0.1257 -0.0861  0.4525
  373MOL0     C50275   6.583   6.960   3.536 -0.5349  0.3250  0.0610
  373MOL0     C50276   6.471   7.021   3.608 -0.6149 -0.4263  0.0394
  373MOL0     C50277   6.454   7.158   3.588 -0.5861 -0.0078  0.2306
  373MOL0     O50278   6.337   7.216   3.634  0.2290 -0.0862 -0.5008
  373MOL0     C50279   6.269   7.325   3.575  0.1294  0.8425  1.3707
  373MOL0     C50280   6.219   7.296   3.430 -0.3001 -0.7977  0.7655
  373MOL0     C50281   6.152   7.160   3.412  0.6429 -0.1071 -0.2929
  373MOL0     C50282   6.040   7.131   3.510 -0.8170  0.0458  0.2422
  373MOL0     C50283   5.942   7.229   3.508  0.4634  0.0330 -0.3950
  373MOL0     C50284   5.841   7.291   3.497  0.1622 -0.4244 -1.7023
  373MOL0     C50285   6.544   7.231   3.516 -0.2919  0.3690  1.0525
  373MOL0     C50286   6.657   7.174   3.454  0.0139 -0.6744  0.6288
  373MOL0     C50287   6.738   7.263   3.370 -0.3087 -0.7811  0.3677
  373MOL0     H50288   7.005   6.709   3.468  0.5381 -3.2081 -0.2457
  373MOL0     H50289   7.160   6.610   3.327 -0.9898  0.8853  2.1687
  373MOL0     H50290   7.304   6.655   3.131  1.7323 -0.0669  0.7557
  373MOL0     H50291   7.286   6.475   3.169  5.5800  0.7930 -0.9090
  373MOL0     H50292   7.347   6.635   2.910 -1.9509  0.3812  1.1779
  373MOL0     H50293   7.298   6.464   2.892  2.0151 -0.1926 -0.2603
  373MOL0     H50294   7.497   6.379   3.000  1.5094 -0.1942 -1.3029
  373MOL0     H50295   7.528   6.539   3.074  0.5969  1.1079 -2.5057
  373MOL0     H50296   7.514   6.461   2.782  0.0690 -2.3615  2.0963
  373MOL0     H50297   7.550   6.624   2.831  0.1204  0.7974 -0.8663
  373MOL0     H50298   7.755   6.497   2.757  1.1466 -0.8270 -0.3688
  373MOL0     H50299   7.766   6.551   2.923 -0.6093  0.3168  0.4594
  373MOL0     H50300   7.702   6.325   2.986 -1.4496  1.0836 -0.6752
  373MOL0     H50301   7.667   6.285   2.815 -0.5474  0.0171  0.6205
  373MOL0     H50302   7.944   6.322   2.934  2.5721 -1.9794 -1.5190
  373MOL0     H50303   7.923   6.309   2.757 -1.5249 -1.4734 -1.1899
  373MOL0     H50304   7.827   6.084   2.951 -1.0586  0.9414  0.7366
  373MOL0     H50305   7.837   6.086   2.772 -0.8862  2.4307 -0.6078
  373MOL0     H50306   8.086   6.143   2.684 -4.0908  0.4518  1.8170
  373MOL0     H50307   8.325   5.973   2.633 -0.5139 -0.9350  0.0797
  373MOL0     H50308   8.404   6.079   2.752  3.5046 -1.0643 -1.0643
  373MOL0     H50309   8.465   5.907   2.900  1.0723  0.9526 -0.3302
  373MOL0     H50310   8.363   5.788   2.810  1.6730 -1.2930 -0.2347
  373MOL0     H50311   8.536   5.876   2.611  0.1530 -0.8135 -0.2140
  373MOL0     H50312   8.576   5.743   2.717 -0.5180  0.0980  1.0694
  373MOL0     H50313   8.661   6.037   2.728 -2.9622  0.4777  0.8480
  373MOL0     H50314   8.750   5.900   2.662 -0.3612 -1.3137  0.8278
  373MOL0     H50315   8.879   6.073   2.945 -2.8358 -0.3037 -3.2553
  373MOL0     H50316   9.154   6.053   2.954  1.6765 -0.7150 -1.8650
  373MOL0     H50317   9.437   5.516   2.936  1.5778 -3.1236 -1.2297
  373MOL0     H50318   9.671   5.468   2.945 -0.7688  0.2661  0.4693
  373MOL0     H50319   9.908   5.521   2.668  0.3673  1.0399 -1.6211
  373MOL0     H50320   9.937   5.693   2.670  0.5999  0.5396 -0.4714
  373MOL0     H50321  10.120   5.678   2.827  0.1829 -1.2042  1.2708
  373MOL0     H50322  10.113   5.504   2.837 -2.8554  0.8017  1.5443
  373MOL0     H50323  10.173   5.502   2.581  0.7350  1.0350 -1.2259
  373MOL0     H50324  10.170   5.674   2.591  0.5469 -0.8866 -1.6596
  373MOL0     H50325  10.345   5.519   2.777  1.7325 -1.5580 -1.0990
  373MOL0     H50326  10.365   5.691   2.734  0.4903 -2.0776  4.4805
  373MOL0     H50327  10.439   5.453   2.573  1.5296 -0.0845 -0.6157
  373MOL0     H50328  10.543   5.589   2.632 -0.2795  0.3913  1.7526
  373MOL0     H50329  10.329   5.609   2.410 -0.3379 -1.5272 -0.5943
  373MOL0     H50330  10.410   5.740   2.489 -0.8729 -0.1164 -0.2541
  373MOL0     H50331  10.519   5.605   2.262 -0.8792  1.2815  0.5247
  373MOL0     H50332  10.618   5.543   2.396  1.2726  0.7087 -1.7908
  373MOL0     H50333  10.587   5.836   2.355  2.9850 -0.0534 -1.9945
  373MOL0     H50334  10.659   5.761   2.494  2.5360 -1.5223 -0.3195
  373MOL0     H50335   9.766   5.820   2.727 -0.7283  0.0193 -0.4887
  373MOL0     H50336   9.530   5.855   2.687  2.0932  1.5512 -0.0361
  373MOL0     H50337   9.093   5.663   2.791  0.0057 -0.2159  0.6367
  373MOL0     H50338   8.863   5.706   2.757  0.7533 -0.0610 -1.2771
  373MOL0     H50339   6.902   6.643   2.985 -2.4986 -1.1102  0.5249
  373MOL0     H50340   6.737   6.752   3.131  0.2241 -1.9637  0.0163
  373MOL0     H50341   6.603   6.854   3.546  3.2445  0.9184  0.0922
  373MOL0     H50342   6.409   6.977   3.685  0.5367  0.7615  1.7170
  373MOL0     H50343   6.337   7.410   3.576  2.6762 -1.0651  0.3412
  373MOL0     H50344   6.185   7.367   3.632  0.2749 -0.0743  2.2920
  373MOL0     H50345   6.299   7.301   3.355  1.1354  2.6904  2.2933
  373MOL0     H50346   6.153   7.379   3.405  0.6534 -0.5470 -1.1352
  373MOL0     H50347   6.227   7.081   3.415  2.1927  1.2372 -1.7907
  373MOL0     H50348   6.112   7.164   3.310  0.3941  1.3283 -0.1628
  373MOL0     H50349   6.010   7.032   3.477  3.2234 -1.1690 -0.3020
  373MOL0     H50350   6.080   7.128   3.612  0.1185 -1.0244 -0.1463
  373MOL0     H50351   5.760   7.360   3.489  1.4558  1.2746 -0.8224
  373MOL0     H50352   6.531   7.339   3.509 -1.7676  0.2119  1.0983
  373MOL0     H50353   6.771   7.194   3.291 -2.2083 -1.8303  0.4172
  373MOL0     H50354   6.671   7.337   3.324 -1.1646 -0.6213  1.8082
  373MOL0     H50355   6.824   7.301   3.424 -0.7214 -3.9717  3.6740
  374MOL0     O50356  11.324   2.664   7.514 -0.6541 -0.3629  0.0580
  374MOL0     C50357  11.291   2.683   7.629  0.6505  0.6121 -0.4779
  374MOL0     O50358  11.183   2.637   7.690  0.9593  0.1478  0.6564
  374MOL0     C50359  11.076   2.568   7.629  0.3735  0.8376  0.5259
  374MOL0     C50360  10.958   2.543   7.707  0.0736  0.1822 -0.7371
  374MOL0     C50361  10.845   2.468   7.655 -0.1715 -0.5677  0.5417
  374MOL0     C50362  10.842   2.435   7.520  0.3828 -0.5085  0.3194
  374MOL0     O50363  10.725   2.366   7.476 -0.0978 -1.3176 -0.5716
  374MOL0     C50364  10.734   2.305   7.348  1.1635  0.1540  0.0056
  374MOL0     C50365  10.639   2.178   7.361 -0.0121 -1.4249 -0.1525
  374MOL0     C50366  10.568   2.133   7.239 -0.5358  0.3495  0.1393
  374MOL0     C50367  10.434   2.050   7.273  0.0180  0.0849  0.6247
  374MOL0     C50368  10.347   2.018   7.150  0.5871  0.0952 -0.5151
  374MOL0     C50369  10.424   1.964   7.027 -0.0332 -0.1408  0.2103
  374MOL0     C50370  10.324   1.951   6.899 -0.6471 -1.1999 -0.2999
  374MOL0     C50371  10.245   1.816   6.907  0.4287 -0.3062  0.1448
  374MOL0     N50372  10.175   1.788   6.783 -0.2270 -0.2119 -0.3666
  374MOL0     C50373  10.222   1.705   6.682  0.3924 -0.2179 -0.6406
  374MOL0     C50374  10.142   1.723   6.577  0.6603  1.0521  0.5485
  374MOL0     C50375  10.162   1.639   6.450 -0.2526 -0.6786 -0.4411
  374MOL0     C50376  10.161   1.732   6.335  0.1758 -0.2315  0.1102
  374MOL0     C50377  10.207   1.671   6.205  0.8138 -0.2185  0.8244
  374MOL0     C50378  10.100   1.611   6.118  0.2790  0.4390  0.7597
  374MOL0     O50379  10.145   1.534   6.002  0.3507 -0.0578  0.3305
  374MOL0     C50380  10.198   1.622   5.908  0.1578 -0.0014 -0.6516
  374MOL0     C50381  10.336   1.624   5.885  1.3030  0.3636  0.1049
  374MOL0     C50382  10.399   1.704   5.790 -0.5850 -0.1817 -0.4030
  374MOL0     C50383  10.314   1.793   5.719  0.0628 -0.1802 -0.7463
  374MOL0     C50384  10.380   1.884   5.617  0.3427  0.2511 -0.4229
  374MOL0     O50385  10.513   1.859   5.591 -1.1524 -0.1593  0.0228
  374MOL0     C50386  10.584   1.938   5.503 -0.0842  0.2912  0.1620
  374MOL0     C50387  10.576   1.913   5.372 -0.4842  0.0526  1.4603
  374MOL0     C50388  10.662   1.973   5.274 -0.5486  0.9218  0.0263
  374MOL0     C50389  10.756   2.062   5.313  0.5638 -0.2857  0.2563
  374MOL0     O50390  10.842   2.106   5.214  0.1798  0.7235 -0.3244
  374MOL0     C50391  10.956   2.178   5.251 -0.7543 -0.3402  0.2661
  374MOL0     C50392  11.049   2.161   5.130 -0.4535  0.1449  0.0715
  374MOL0     C50393  11.188   2.216   5.162 -0.5370  0.5818  0.2922
  374MOL0     C50394  11.289   2.172   5.046 -0.5422  0.2516  0.1601
  374MOL0     C50395  11.425   2.233   5.073  0.7568 -0.2738 -0.0500
  374MOL0     C50396  11.533   2.184   4.970  0.3844  0.6207 -0.7548
  374MOL0     C50397  11.663   2.266   4.980 -0.3375  0.1207  0.2730
  374MOL0     C50398  11.745   2.225   5.104 -0.0597 -0.1709  0.3661
  374MOL0    Cl50399  11.924   2.283   5.088  0.0483  0.2558 -0.1257
  374MOL0     C50400  10.763   2.103   5.453  0.3583 -0.5429 -0.7393
  374MOL0     C50401  10.680   2.037   5.546  0.0621  1.4258  0.0697
  374MOL0     O50402  10.301   1.955   5.564 -0.6590  0.5957  0.3507
  374MOL0     C50403  10.177   1.798   5.744  0.4788 -0.9500 -0.1201
  374MOL0     C50404  10.118   1.714   5.839 -0.5577 -0.7567  0.3260
  374MOL0     N50405  10.045   1.810   6.616  0.3808 -0.1143  0.0671
  374MOL0     N50406  10.072   1.862   6.737  0.0588 -0.1274  0.5573
  374MOL0     C50407  10.951   2.457   7.446 -0.5922 -0.2381 -0.1338
  374MOL0     C50408  11.072   2.521   7.497  0.1988  0.3487  0.5227
  374MOL0     C50409  11.396   2.731   7.723 -0.4370 -0.7553  0.3777
  374MOL0     C50410  11.418   2.657   7.841  0.0786  0.2566  0.4612
  374MOL0     C50411  11.524   2.688   7.926  0.1579 -0.0135 -0.2723
  374MOL0     C50412  11.602   2.797   7.894 -0.1131 -0.2710 -0.3607
  374MOL0     O50413  11.709   2.844   7.972 -0.3170 -0.9522 -0.6083
  374MOL0     C50414  11.771   2.752   8.058  0.0078 -0.2401  0.7716
  374MOL0     C50415  11.882   2.832   8.142 -0.8815  0.3802  0.2623
  374MOL0     C50416  12.000   2.880   8.057 -0.7204  0.0610  0.6099
  374MOL0     C50417  12.106   2.769   8.024 -0.4744 -0.7252 -0.1214
  374MOL0     C50418  12.066   2.657   7.933 -0.5326  0.1011 -0.9888
  374MOL0     C50419  12.034   2.564   7.867  0.1245 -1.0291  0.6848
  374MOL0     C50420  11.570   2.886   7.787  0.6683 -0.2133  0.0087
  374MOL0     C50421  11.464   2.857   7.702 -0.1075 -0.5120 -0.4146
  374MOL0     C50422  11.420   2.949   7.597  0.2746 -0.8372  0.4154
  374MOL0     H50423  10.954   2.584   7.807 -0.4585 -0.5911 -0.4324
  374MOL0     H50424  10.762   2.442   7.720 -0.1958 -0.8091  0.4173
  374MOL0     H50425  10.699   2.369   7.265 -1.2946 -0.4504  0.4865
  374MOL0     H50426  10.834   2.263   7.335  0.9587 -0.7651  1.2174
  374MOL0     H50427  10.573   2.208   7.443 -0.0020  2.8368 -1.4574
  374MOL0     H50428  10.710   2.104   7.398  2.3474  0.7255 -0.1450
  374MOL0     H50429  10.635   2.066   7.184 -0.3491 -0.6381  1.5218
  374MOL0     H50430  10.528   2.213   7.176 -1.1335  1.2089  1.5609
  374MOL0     H50431  10.460   1.956   7.322 -1.7822 -1.5510 -1.3550
  374MOL0     H50432  10.368   2.098   7.346 -1.9720  0.5144 -1.3352
  374MOL0     H50433  10.271   1.946   7.181  1.4365  0.1144  1.7515
  374MOL0     H50434  10.301   2.114   7.124  0.5485 -0.5505 -3.1917
  374MOL0     H50435  10.510   2.026   7.000 -2.3562  2.3833 -1.9523
  374MOL0     H50436  10.461   1.863   7.046  3.1783  1.4300  3.3927
  374MOL0     H50437  10.391   1.960   6.813  1.0848  0.1245  1.1130
  374MOL0     H50438  10.261   2.040   6.903 -0.7706 -1.3472  2.4545
  374MOL0     H50439  10.308   1.733   6.939  0.6222 -0.0129  0.5394
  374MOL0     H50440  10.175   1.837   6.988  0.3349 -2.7036  0.7565
  374MOL0     H50441  10.301   1.630   6.681  0.2608 -0.5985  3.3478
  374MOL0     H50442  10.261   1.594   6.462  0.1486  0.4221  0.6107
  374MOL0     H50443  10.092   1.555   6.444 -1.6999  0.0117  3.5599
  374MOL0     H50444  10.067   1.780   6.306  0.3715 -0.3375 -0.7325
  374MOL0     H50445  10.226   1.816   6.359 -0.0027 -0.7699  2.7915
  374MOL0     H50446  10.284   1.596   6.226  0.6630 -0.4166  0.6736
  374MOL0     H50447  10.245   1.754   6.145 -0.5781  0.3119  0.6463
  374MOL0     H50448  10.032   1.688   6.078  0.4669 -0.1564 -0.7892
  374MOL0     H50449  10.042   1.534   6.169  0.0439  0.1089  0.0117
  374MOL0     H50450  10.401   1.557   5.940 -0.2717 -1.4345 -0.1253
  374MOL0     H50451  10.507   1.699   5.778 -0.4256 -0.6457  0.9964
  374MOL0     H50452  10.499   1.837   5.364 -0.0734 -0.4566  2.2657
  374MOL0     H50453  10.647   1.940   5.172 -2.2949 -0.0742  0.5525
  374MOL0     H50454  10.943   2.285   5.271 -0.7658  0.1104 -1.9279
  374MOL0     H50455  11.011   2.131   5.333  1.2134 -2.0247 -1.8816
  374MOL0     H50456  11.055   2.059   5.091 -2.1543  0.0710 -0.0451
  374MOL0     H50457  11.017   2.227   5.049  2.9508  2.9827  0.7860
  374MOL0     H50458  11.186   2.325   5.166 -1.1476  0.7525 -2.6907
  374MOL0     H50459  11.216   2.172   5.258 -0.7730 -0.6541 -0.1783
  374MOL0     H50460  11.257   2.205   4.947 -2.2004  0.2944  0.6740
  374MOL0     H50461  11.293   2.063   5.050 -1.3666  0.2136  0.1867
  374MOL0     H50462  11.459   2.211   5.174  2.5269  0.7386 -0.3903
  374MOL0     H50463  11.415   2.340   5.058 -1.7115 -0.7031 -2.1952
  374MOL0     H50464  11.543   2.079   4.997 -1.7127  0.9799  1.8869
  374MOL0     H50465  11.498   2.201   4.868  2.0356 -1.6044 -1.7718
  374MOL0     H50466  11.644   2.373   4.976 -2.2027 -0.0494  2.4123
  374MOL0     H50467  11.708   2.249   4.881 -0.0903  2.0566  0.0148
  374MOL0     H50468  11.709   2.271   5.196 -0.5286 -1.9228  1.1015
  374MOL0     H50469  11.747   2.115   5.106 -3.9708 -0.3822 -0.1072
  374MOL0     H50470  10.824   2.185   5.490 -0.3461  0.8084 -2.4567
  374MOL0     H50471  10.694   2.049   5.653  0.7578 -0.5662  0.2539
  374MOL0     H50472  10.113   1.866   5.688  0.5098 -1.8155 -1.2297
  374MOL0     H50473  10.013   1.733   5.860 -0.1399  0.2984  1.6548
  374MOL0     H50474  10.956   2.429   7.342 -0.7206  3.9871 -1.4797
  374MOL0     H50475  11.156   2.516   7.428  0.4167 -0.5642  0.8384
  374MOL0     H50476  11.344   2.587   7.880 -1.7640  2.9308  2.1012
  374MOL0     H50477  11.534   2.632   8.018 -1.3241  0.6968  0.3623
  374MOL0     H50478  11.812   2.674   7.993 -0.4014  0.6655 -0.5960
  374MOL0     H50479  11.697   2.703   8.122 -0.3659  0.9434  1.2632
  374MOL0     H50480  11.917   2.779   8.231 -0.7514 -2.7919 -1.5504
  374MOL0     H50481  11.823   2.917   8.178 -4.1086 -0.8815 -1.6094
  374MOL0     H50482  12.051   2.972   8.086  0.1456  0.3646 -1.6339
  374MOL0     H50483  11.953   2.916   7.965 -0.4722 -2.5489 -0.6563
  374MOL0     H50484  12.190   2.815   7.971  1.4345 -1.5260  2.0643
  374MOL0     H50485  12.146   2.734   8.119  0.5362 -3.0375 -1.3235
  374MOL0     H50486  12.021   2.475   7.809  2.1265 -1.5251  0.9312
  374MOL0     H50487  11.624   2.980   7.774 -0.5838  0.4141 -0.9162
  374MOL0     H50488  11.498   3.024   7.579  1.5962 -2.2516  0.0729
  374MOL0     H50489  11.404   2.898   7.502  0.5611  3.2544 -2.0376
  374MOL0     H50490  11.327   3.001   7.624  0.0802 -0.5577 -0.7347
  375MOL0     O50491  10.002   5.339   1.412 -0.0190 -0.1041 -0.1247
  375MOL0     C50492   9.952   5.321   1.301  0.2183 -0.9221  0.0030
  375MOL0     O50493  10.018   5.291   1.188 -0.4315 -0.4144 -0.0600
  375MOL0     C50494  10.157   5.271   1.212  0.6850 -0.5066  0.5558
  375MOL0     C50495  10.242   5.361   1.165 -0.4336  0.2149 -0.4843
  375MOL0     C50496  10.381   5.354   1.189  0.7433 -0.7662 -0.1324
  375MOL0     C50497  10.436   5.233   1.241  0.3723 -1.0426 -0.3731
  375MOL0     O50498  10.570   5.219   1.259 -0.3811  0.4242 -0.7924
  375MOL0     C50499  10.656   5.327   1.239 -0.2132  0.2258 -0.2609
  375MOL0     C50500  10.798   5.291   1.275  0.0390  0.5324  0.6200
  375MOL0     C50501  10.867   5.202   1.178  1.0625  0.0955 -0.1462
  375MOL0     C50502  11.019   5.241   1.158  0.4203  0.8657  0.1726
  375MOL0     C50503  11.100   5.213   1.273  0.7350  0.4819  0.1464
  375MOL0     C50504  11.257   5.230   1.257  0.4724 -0.5971 -0.3831
  375MOL0     C50505  11.326   5.125   1.179  0.3581  0.4339  0.7300
  375MOL0     C50506  11.476   5.173   1.173  0.2350  0.4893  0.3907
  375MOL0     N50507  11.541   5.127   1.053  0.4706 -0.1926 -0.1728
  375MOL0     C50508  11.631   5.207   0.979  0.4907 -0.4394  0.7366
  375MOL0     C50509  11.693   5.119   0.900  0.1662 -0.9907 -0.1543
  375MOL0     C50510  11.782   5.166   0.796  0.1882 -1.0022  0.2496
  375MOL0     C50511  11.919   5.111   0.784 -0.0969 -0.6830  0.8256
  375MOL0     C50512  11.989   5.161   0.653  0.3638 -0.1882 -0.2613
  375MOL0     C50513  12.132   5.122   0.641 -0.4697 -0.8890 -1.0104
  375MOL0     O50514  12.206   5.171   0.754 -0.2841  0.4210  0.5973
  375MOL0     C50515  12.330   5.121   0.765  0.4051  0.4998 -0.6116
  375MOL0     C50516  12.348   4.989   0.801  0.2851  1.1415 -0.5309
  375MOL0     C50517  12.474   4.934   0.802  0.4971 -0.3986 -0.1987
  375MOL0     C50518  12.585   5.015   0.766 -0.3201 -0.4159  0.4165
  375MOL0     C50519  12.726   4.965   0.762  1.1469  0.2834  1.1757
  375MOL0     O50520  12.741   4.838   0.793 -0.4066  0.3720  0.0658
  375MOL0     C50521  12.870   4.784   0.795 -0.1277 -0.4745 -0.9610
  375MOL0     C50522  12.917   4.712   0.685  0.2452  0.0449  0.2115
  375MOL0     C50523  13.049   4.672   0.684 -0.2218 -0.4749 -0.3298
  375MOL0     C50524  13.132   4.692   0.805  0.3887 -0.0675  0.5637
  375MOL0     O50525  13.255   4.633   0.813 -0.3254  0.0650 -0.3020
  375MOL0     C50526  13.359   4.723   0.775  0.5397  0.0723 -0.3825
  375MOL0     C50527  13.493   4.682   0.845  0.0148  0.4718  0.3799
  375MOL0     C50528  13.493   4.690   1.004  0.8023  0.1115 -0.0004
  375MOL0     C50529  13.459   4.830   1.060 -0.6721 -0.5984 -0.6757
  375MOL0     C50530  13.450   4.838   1.211 -0.5374  0.5922 -0.3554
  375MOL0     C50531  13.583   4.807   1.289 -0.8515  0.3824 -0.2298
  375MOL0     C50532  13.562   4.822   1.435  0.5073 -0.6415 -0.2593
  375MOL0     C50533  13.684   4.813   1.524 -0.3399 -0.0162  0.7055
  375MOL0    Cl50534  13.725   4.648   1.552 -0.2303  0.1725  0.6170
  375MOL0     C50535  13.082   4.749   0.911 -0.2802  0.8416 -0.1853
  375MOL0     C50536  12.951   4.802   0.902 -0.1022  0.1968 -0.6479
  375MOL0     O50537  12.813   5.042   0.726 -0.2256 -0.7785 -0.3659
  375MOL0     C50538  12.563   5.153   0.738  0.1336 -0.4750 -0.6968
  375MOL0     C50539  12.434   5.202   0.735 -0.3934 -0.7512 -0.0348
  375MOL0     N50540  11.638   4.995   0.919  0.1623  1.0953  0.5184
  375MOL0     N50541  11.566   5.000   1.019 -0.2842 -0.0601 -0.0651
  375MOL0     C50542  10.343   5.130   1.274  0.3589 -1.0655 -0.6534
  375MOL0     C50543  10.207   5.153   1.258  0.3362  0.4028 -0.1162
  375MOL0     C50544   9.804   5.309   1.286  1.0649  0.6754  0.3599
  375MOL0     C50545   9.758   5.244   1.166  0.8227 -0.0956 -0.2504
  375MOL0     C50546   9.616   5.215   1.154 -0.0599 -0.6961 -0.1062
  375MOL0     C50547   9.529   5.247   1.264  0.6621 -0.3314  0.1203
  375MOL0     O50548   9.392   5.226   1.258  0.8793  0.4762 -0.8477
  375MOL0     C50549   9.317   5.246   1.138  0.2063  0.0431 -0.3078
  375MOL0     C50550   9.235   5.376   1.141 -0.5466 -0.2821 -0.2667
  375MOL0     C50551   9.121   5.352   1.232  0.7272  0.4221 -0.3850
  375MOL0     C50552   9.039   5.480   1.265  0.0977  0.2267  0.0764
  375MOL0     C50553   8.977   5.562   1.150 -0.4023 -0.6534  0.4896
  375MOL0     C50554   8.925   5.625   1.061  0.3241 -0.6866  0.1908
  375MOL0     C50555   9.574   5.316   1.371  0.1719  0.0994 -0.0379
  375MOL0     C50556   9.713   5.339   1.386  0.4404 -0.4467 -0.4176
  375MOL0     C50557   9.746   5.409   1.510  0.1258 -0.2541 -0.2169
  375MOL0     H50558  10.201   5.449   1.116 -2.3645 -0.8374 -0.8894
  375MOL0     H50559  10.436   5.444   1.165 -0.2454 -0.2832 -0.6421
  375MOL0     H50560  10.658   5.355   1.134 -2.1864 -1.4525 -0.8073
  375MOL0     H50561  10.624   5.415   1.296  1.6087  0.8003 -0.0718
  375MOL0     H50562  10.812   5.250   1.375  0.6729  0.5727  0.5524
  375MOL0     H50563  10.851   5.387   1.282 -1.6369  1.4128  1.7787
  375MOL0     H50564  10.810   5.192   1.085  1.4665  1.0837 -0.5118
  375MOL0     H50565  10.869   5.105   1.230 -1.1307  0.0363 -0.0701
  375MOL0     H50566  11.059   5.184   1.073 -0.9291  2.3754 -1.5569
  375MOL0     H50567  11.023   5.346   1.129  0.3902  0.2087 -2.5139
  375MOL0     H50568  11.069   5.271   1.361 -1.1550  0.6136 -0.5601
  375MOL0     H50569  11.078   5.114   1.313  1.5244  1.4486  3.3088
  375MOL0     H50570  11.269   5.328   1.210 -5.7388  1.0655  0.5275
  375MOL0     H50571  11.295   5.241   1.359 -0.0606  1.3352 -0.3526
  375MOL0     H50572  11.274   5.108   1.084 -0.9511  0.0475  1.4936
  375MOL0     H50573  11.319   5.027   1.225  0.7217 -0.2753 -0.6584
  375MOL0     H50574  11.489   5.281   1.180  2.0688  0.2257  1.8939
  375MOL0     H50575  11.537   5.125   1.250  0.0021 -1.5058 -0.5990
  375MOL0     H50576  11.645   5.313   0.996 -1.2135  0.3430 -2.0664
  375MOL0     H50577  11.722   5.153   0.705 -0.8570  0.0017  0.7718
  375MOL0     H50578  11.795   5.273   0.809 -0.9287 -0.4293 -2.5482
  375MOL0     H50579  11.983   5.143   0.867  0.5584  0.2266 -0.0167
  375MOL0     H50580  11.920   5.002   0.790 -0.5338 -0.6983  0.6650
  375MOL0     H50581  11.981   5.270   0.644  1.3524 -0.0288  0.6351
  375MOL0     H50582  11.933   5.124   0.566 -1.0454 -0.2507  0.6317
  375MOL0     H50583  12.181   5.176   0.559 -2.5655 -2.1979 -3.2294
  375MOL0     H50584  12.127   5.014   0.627 -2.3987 -0.7923 -1.2717
  375MOL0     H50585  12.268   4.920   0.824  3.3175 -2.5758 -0.0335
  375MOL0     H50586  12.505   4.837   0.840  3.4916 -0.8833 -3.2882
  375MOL0     H50587  12.852   4.693   0.600  0.6523  1.8180 -0.5249
  375MOL0     H50588  13.085   4.609   0.604 -1.6663 -1.7882  0.0109
  375MOL0     H50589  13.379   4.713   0.668  1.8825 -3.4319  0.0386
  375MOL0     H50590  13.338   4.828   0.797 -2.7383 -0.3367 -1.0386
  375MOL0     H50591  13.506   4.579   0.811  0.0751  0.6858 -0.2611
  375MOL0     H50592  13.573   4.745   0.807  0.8802 -0.5680  0.4207
  375MOL0     H50593  13.415   4.624   1.045 -0.6336  0.8814 -1.4051
  375MOL0     H50594  13.593   4.673   1.045  0.3398  0.1119  1.1764
  375MOL0     H50595  13.365   4.865   1.015 -0.1461  2.0562  0.0740
  375MOL0     H50596  13.542   4.898   1.040 -1.7869  1.4950  1.2946
  375MOL0     H50597  13.359   4.790   1.251  0.7353 -1.0883  0.6772
  375MOL0     H50598  13.430   4.943   1.234  0.6892  0.4466  1.5751
  375MOL0     H50599  13.611   4.702   1.283  0.1437  0.2647  4.0333
  375MOL0     H50600  13.658   4.865   1.233 -3.2597  1.8132 -2.2261
  375MOL0     H50601  13.494   4.742   1.465  0.5863  0.3923  3.0321
  375MOL0     H50602  13.509   4.916   1.453  1.3483 -0.1755 -0.1221
  375MOL0     H50603  13.770   4.863   1.478 -1.1904 -1.2830 -2.5355
  375MOL0     H50604  13.669   4.855   1.623 -2.8391  0.5729  0.1386
  375MOL0     H50605  13.151   4.777   0.990  0.5242 -0.8763 -0.2365
  375MOL0     H50606  12.897   4.862   0.973 -0.7735  2.2472 -2.7883
  375MOL0     H50607  12.641   5.228   0.724 -1.0075  1.2013  1.2844
  375MOL0     H50608  12.418   5.303   0.698 -0.0245 -0.2109  1.1931
  375MOL0     H50609  10.382   5.033   1.304  2.9218  0.7268  2.4689
  375MOL0     H50610  10.138   5.073   1.281 -0.3010  0.8565 -0.4134
  375MOL0     H50611   9.826   5.218   1.085  0.6764  2.0031 -1.1234
  375MOL0     H50612   9.570   5.166   1.069  0.0522  2.1524 -1.9720
  375MOL0     H50613   9.253   5.159   1.124  1.9219 -1.2982 -0.1939
  375MOL0     H50614   9.379   5.242   1.048  0.2664  2.4720 -0.4483
  375MOL0     H50615   9.214   5.406   1.038  0.8227  1.4922 -0.1009
  375MOL0     H50616   9.304   5.455   1.174  1.0274 -1.1228 -1.4185
  375MOL0     H50617   9.144   5.296   1.323 -4.0949 -1.2380  0.0931
  375MOL0     H50618   9.054   5.284   1.179  0.8321 -0.5526  0.6929
  375MOL0     H50619   8.962   5.453   1.338  0.5113 -2.9127 -0.4831
  375MOL0     H50620   9.108   5.545   1.318 -2.0860  0.2138  3.2306
  375MOL0     H50621   8.890   5.687   0.981 -0.0053  0.0510  0.8885
  375MOL0     H50622   9.502   5.333   1.450  0.9294  1.8264  0.3178
  375MOL0     H50623   9.762   5.515   1.487  0.1653 -0.6152 -1.9544
  375MOL0     H50624   9.667   5.404   1.586  2.4783 -0.2974  2.4021
  375MOL0     H50625   9.829   5.367   1.568  0.2916 -0.9945 -0.9645
  376MOL0     O50626   8.004  11.238   7.429  0.2584 -0.2512 -0.2579
  376MOL0     C50627   7.940  11.337   7.399  0.5841  0.2335 -0.1429
  376MOL0     O50628   7.986  11.441   7.331 -0.2410  0.7652 -0.1052
  376MOL0     C50629   8.123  11.477   7.343 -0.0653  0.0218 -0.1145
  376MOL0     C50630   8.233  11.391   7.352 -0.6677 -0.0967 -0.5492
  376MOL0     C50631   8.359  11.440   7.346 -0.0642 -0.2900 -0.5674
  376MOL0     C50632   8.385  11.579   7.326 -0.2242 -0.1473 -0.8245
  376MOL0     O50633   8.511  11.615   7.287  0.3226 -0.8985  0.2763
  376MOL0     C50634   8.524  11.613   7.139 -0.0367  0.4095 -0.1106
  376MOL0     C50635   8.606  11.732   7.071  0.2929  0.1097 -0.2915
  376MOL0     C50636   8.740  11.747   7.145  0.1778 -0.8217 -0.4846
  376MOL0     C50637   8.803  11.880   7.113 -0.3755 -0.5435  0.0290
  376MOL0     C50638   8.948  11.873   7.142 -0.6340 -0.4297 -0.8352
  376MOL0     C50639   8.980  11.827   7.286 -0.6281  0.1748  0.5143
  376MOL0     C50640   9.113  11.898   7.323 -0.2695 -0.2550  0.2320
  376MOL0     C50641   9.079  12.044   7.362  0.7927 -0.0661 -0.0638
  376MOL0     N50642   9.201  12.109   7.411 -0.1912 -0.2037  0.1552
  376MOL0     C50643   9.282  12.199   7.345 -1.7763 -0.4520  0.2322
  376MOL0     C50644   9.371  12.238   7.439 -0.0741  0.5816 -0.5392
  376MOL0     C50645   9.477  12.338   7.420 -0.7209  0.1479 -0.4899
  376MOL0     C50646   9.609  12.269   7.385 -0.4117 -0.2193 -0.3442
  376MOL0     C50647   9.670  12.197   7.494 -0.2167 -0.1328 -0.1414
  376MOL0     C50648   9.804  12.126   7.461  0.6234  0.4783 -0.4475
  376MOL0     O50649   9.902  12.222   7.424  0.5221  0.0601 -0.3941
  376MOL0     C50650  10.033  12.205   7.463  0.1260 -0.2037 -0.4288
  376MOL0     C50651  10.132  12.242   7.367 -0.0017 -0.1479  0.0139
  376MOL0     C50652  10.269  12.243   7.395 -0.0688  0.6791 -0.9149
  376MOL0     C50653  10.319  12.199   7.522  0.0992 -0.3993  0.9198
  376MOL0     C50654  10.456  12.200   7.563 -0.0822  0.4595  0.0268
  376MOL0     O50655  10.492  12.179   7.694  0.7134  0.3598  0.4939
  376MOL0     C50656  10.624  12.144   7.710 -0.5060  0.1278 -0.4000
  376MOL0     C50657  10.665  12.015   7.761  0.0864  0.1438 -0.5948
  376MOL0     C50658  10.797  11.977   7.770  0.6271  0.0413  0.4264
  376MOL0     C50659  10.902  12.066   7.723  0.7872 -1.2775 -1.0308
  376MOL0     O50660  11.036  12.040   7.726 -0.2854  0.7037  0.3571
  376MOL0     C50661  11.070  11.952   7.834 -0.0150  0.0134  0.7015
  376MOL0     C50662  11.226  11.952   7.846  0.0064  0.2256 -0.3944
  376MOL0     C50663  11.294  12.093   7.881  1.0552 -0.1538  0.5818
  376MOL0     C50664  11.453  12.084   7.856  0.1718 -0.0792  0.2132
  376MOL0     C50665  11.528  12.221   7.871 -0.1801 -0.9697 -0.4420
  376MOL0     C50666  11.578  12.260   8.017  0.3041  0.0891  0.4229
  376MOL0     C50667  11.659  12.138   8.080 -0.7091 -1.2825 -0.6613
  376MOL0     C50668  11.750  12.193   8.197  1.4381 -0.9096 -0.1457
  376MOL0    Cl50669  11.876  12.068   8.245  0.1376  0.0018 -0.2310
  376MOL0     C50670  10.861  12.199   7.694  0.4698  0.2705  0.2436
  376MOL0     C50671  10.729  12.236   7.685 -0.2933  0.0852 -0.5149
  376MOL0     O50672  10.536  12.230   7.477  0.0812  0.2503  0.4123
  376MOL0     C50673  10.219  12.164   7.619  0.0786 -0.1318 -0.5058
  376MOL0     C50674  10.085  12.174   7.588 -0.0845  0.7491 -0.4745
  376MOL0     N50675   9.342  12.182   7.556  0.6952 -0.0568  0.4638
  376MOL0     N50676   9.248  12.096   7.535  0.2290  0.6315  0.5318
  376MOL0     C50677   8.271  11.667   7.328  1.0341  0.9592 -0.1561
  376MOL0     C50678   8.143  11.614   7.335  0.1069  0.1370 -0.8637
  376MOL0     C50679   7.798  11.323   7.432  0.0818 -0.3751  0.0379
  376MOL0     C50680   7.751  11.190   7.434  0.8391 -0.1451  0.5888
  376MOL0     C50681   7.611  11.160   7.458  0.5741 -0.2544  0.3292
  376MOL0     C50682   7.524  11.257   7.497 -0.0470  0.4180 -0.7495
  376MOL0     O50683   7.393  11.224   7.518  0.1245  0.1707 -0.0171
  376MOL0     C50684   7.311  11.307   7.609 -0.5490  0.6707  0.3167
  376MOL0     C50685   7.182  11.226   7.634 -0.6514 -0.5464 -0.7435
  376MOL0     C50686   7.096  11.202   7.513  0.3565 -0.6071  0.1132
  376MOL0     C50687   7.039  11.332   7.457 -0.0308  0.4531  0.1720
  376MOL0     C50688   6.984  11.426   7.560  0.8475  1.6885  0.3471
  376MOL0     C50689   6.937  11.487   7.651 -0.1693 -0.4987  0.1870
  376MOL0     C50690   7.570  11.391   7.490  0.2936  0.2422  0.2344
  376MOL0     C50691   7.708  11.423   7.471 -0.3252 -0.3758 -0.4286
  376MOL0     C50692   7.744  11.570   7.489  0.0016 -0.3959 -0.8761
  376MOL0     H50693   8.225  11.283   7.361  3.0610 -0.7236 -2.7222
  376MOL0     H50694   8.440  11.372   7.368  0.3044  0.8918  2.0794
  376MOL0     H50695   8.568  11.514   7.121 -1.1834 -0.5067  1.7682
  376MOL0     H50696   8.425  11.619   7.093 -1.1368  1.5884  2.2229
  376MOL0     H50697   8.551  11.826   7.080  1.1293  0.7927 -1.8647
  376MOL0     H50698   8.633  11.702   6.969  1.1724  0.7492 -0.2604
  376MOL0     H50699   8.804  11.659   7.126  1.9976  0.4098 -0.3426
  376MOL0     H50700   8.723  11.753   7.253 -0.8178  1.5768 -0.7248
  376MOL0     H50701   8.795  11.891   7.005  1.7362  3.0540  0.0574
  376MOL0     H50702   8.748  11.957   7.167  1.1616  0.1628  0.6358
  376MOL0     H50703   8.996  11.804   7.072  3.1463  1.2398 -0.1216
  376MOL0     H50704   8.996  11.970   7.126 -1.2078  0.2102  1.0632
  376MOL0     H50705   8.893  11.856   7.347 -1.2395 -0.6737  0.0555
  376MOL0     H50706   8.996  11.719   7.290 -0.7898 -0.0626 -2.8893
  376MOL0     H50707   9.187  11.903   7.243 -1.6015  2.2769 -0.9724
  376MOL0     H50708   9.151  11.848   7.412 -2.9458  0.7891  2.0849
  376MOL0     H50709   9.034  12.098   7.279  0.0955 -2.9335 -1.6710
  376MOL0     H50710   9.009  12.051   7.445  0.0300  1.2949 -0.8016
  376MOL0     H50711   9.274  12.233   7.242  0.9956  2.0186  0.6772
  376MOL0     H50712   9.445  12.402   7.338  2.1195 -0.9294 -2.6023
  376MOL0     H50713   9.502  12.402   7.506 -0.7491  0.2744 -0.5743
  376MOL0     H50714   9.594  12.195   7.306  2.1656 -2.2722  0.9354
  376MOL0     H50715   9.682  12.338   7.341 -0.2727 -2.2319 -3.5750
  376MOL0     H50716   9.594  12.125   7.525 -3.0252  3.3271  1.7200
  376MOL0     H50717   9.680  12.262   7.581 -1.6567  0.2111 -0.2089
  376MOL0     H50718   9.780  12.058   7.378 -1.1344 -0.4694  0.7581
  376MOL0     H50719   9.837  12.078   7.553 -0.3860  0.8821  0.1392
  376MOL0     H50720  10.102  12.252   7.263  0.3499 -1.3595 -0.2267
  376MOL0     H50721  10.343  12.269   7.320  0.8068 -0.3157 -0.4247
  376MOL0     H50722  10.599  11.939   7.803  0.8162  0.3804  1.0803
  376MOL0     H50723  10.822  11.893   7.834  0.3565  0.2774  0.8474
  376MOL0     H50724  11.027  11.986   7.929 -0.5650  1.0778  0.0875
  376MOL0     H50725  11.038  11.851   7.808 -0.1400 -0.0542  1.0995
  376MOL0     H50726  11.247  11.879   7.924 -2.4899 -2.4673 -2.0270
  376MOL0     H50727  11.268  11.902   7.758 -1.4641 -2.5485  0.3660
  376MOL0     H50728  11.250  12.175   7.824  1.2445 -0.4747 -0.0393
  376MOL0     H50729  11.290  12.101   7.990 -0.0213 -1.3855  0.6629
  376MOL0     H50730  11.466  12.049   7.753 -0.8746 -0.5704  0.2298
  376MOL0     H50731  11.504  12.002   7.907 -0.7653 -1.3473 -0.8227
  376MOL0     H50732  11.467  12.300   7.826  0.5102 -0.5292 -0.6247
  376MOL0     H50733  11.610  12.205   7.800 -0.6045 -1.8580 -0.7462
  376MOL0     H50734  11.631  12.355   8.025 -0.3562  0.3962  1.2339
  376MOL0     H50735  11.483  12.275   8.068 -0.3537  0.4716 -0.8766
  376MOL0     H50736  11.723  12.094   8.003  2.5182  1.2126  0.3659
  376MOL0     H50737  11.588  12.066   8.120 -3.0568  1.9780  1.5854
  376MOL0     H50738  11.788  12.289   8.161 -0.6365  0.7718  1.8051
  376MOL0     H50739  11.683  12.215   8.281 -0.3121  1.1152 -1.9373
  376MOL0     H50740  10.931  12.281   7.682 -0.0990  0.7683  0.2857
  376MOL0     H50741  10.695  12.333   7.651 -0.4620  0.0371 -0.4829
  376MOL0     H50742  10.249  12.145   7.721  2.1990  0.2604 -1.0145
  376MOL0     H50743  10.023  12.152   7.675  2.3825  1.9604  1.7070
  376MOL0     H50744   8.275  11.769   7.292  0.8623 -0.0146 -3.2545
  376MOL0     H50745   8.053  11.670   7.316 -0.5167 -1.6468 -3.8513
  376MOL0     H50746   7.807  11.104   7.398  0.0812  0.9880 -4.0318
  376MOL0     H50747   7.574  11.059   7.465 -1.1987  0.2393 -0.9989
  376MOL0     H50748   7.289  11.405   7.567  2.3561  0.6971 -1.4783
  376MOL0     H50749   7.363  11.317   7.705 -1.1662  1.5101  0.5692
  376MOL0     H50750   7.118  11.283   7.702  0.2983  1.1249 -1.1825
  376MOL0     H50751   7.214  11.135   7.684  0.3844 -0.6089 -1.4771
  376MOL0     H50752   7.016  11.131   7.538  0.0714 -0.6105 -0.7578
  376MOL0     H50753   7.153  11.155   7.432  0.0895 -4.3717  1.8750
  376MOL0     H50754   7.120  11.383   7.404 -0.4156 -0.2444 -1.1563
  376MOL0     H50755   6.956  11.302   7.391  1.2861 -2.7211 -0.2377
  376MOL0     H50756   6.885  11.528   7.735 -1.1225  0.9784 -1.0732
  376MOL0     H50757   7.503  11.476   7.501 -1.3419 -1.2380  2.7941
  376MOL0     H50758   7.713  11.636   7.407 -0.0219 -1.3725 -1.6620
  376MOL0     H50759   7.687  11.604   7.576 -0.5201  0.6170 -1.5890
  376MOL0     H50760   7.851  11.589   7.497 -0.5150  2.5020  0.7897
  377MOL0     O50761   7.528   3.028   5.753  0.0128 -0.2621  0.0620
  377MOL0     C50762   7.515   3.088   5.863 -0.6467 -0.3983 -0.2537
  377MOL0     O50763   7.433   3.197   5.880 -0.1049 -0.8640 -0.4985
  377MOL0     C50764   7.325   3.223   5.797  1.3075  0.4667  0.1492
  377MOL0     C50765   7.247   3.345   5.831  0.0390 -0.9320 -0.1509
  377MOL0     C50766   7.135   3.378   5.750 -1.0206 -0.3929 -1.0611
  377MOL0     C50767   7.082   3.293   5.649  0.1893 -0.7174 -0.9850
  377MOL0     O50768   6.964   3.320   5.583  0.2077 -0.0754  0.0169
  377MOL0     C50769   6.863   3.378   5.661 -0.8449  0.5293 -1.2982
  377MOL0     C50770   6.737   3.386   5.577  0.1794 -1.3910 -0.6316
  377MOL0     C50771   6.723   3.513   5.485  0.1363  0.7685  0.1963
  377MOL0     C50772   6.607   3.504   5.377  1.0250  0.2524 -1.1959
  377MOL0     C50773   6.463   3.476   5.425 -0.3496 -0.1775 -1.9041
  377MOL0     C50774   6.417   3.565   5.539  0.2068  0.0813  0.0522
  377MOL0     C50775   6.264   3.550   5.567  0.0075  1.3206  0.3448
  377MOL0     C50776   6.237   3.432   5.665 -0.4062 -0.8324 -0.4540
  377MOL0     N50777   6.217   3.289   5.612  0.6854 -0.4326 -0.7279
  377MOL0     C50778   6.305   3.186   5.636 -0.5689 -0.5157  0.7390
  377MOL0     C50779   6.263   3.088   5.557  0.1226  1.2880 -0.2265
  377MOL0     C50780   6.340   2.962   5.538 -1.0590  0.6196 -0.5774
  377MOL0     C50781   6.396   2.968   5.392  0.4855 -0.2818 -0.2981
  377MOL0     C50782   6.488   3.087   5.358  0.5501 -0.7291 -0.0727
  377MOL0     C50783   6.592   3.042   5.256  0.4268 -0.3594 -0.4602
  377MOL0     O50784   6.687   3.145   5.247  0.5033  0.5344 -0.0978
  377MOL0     C50785   6.782   3.141   5.150 -0.3833 -1.1812 -0.2936
  377MOL0     C50786   6.795   3.037   5.057  0.4274  0.3164  0.0279
  377MOL0     C50787   6.883   3.049   4.944 -0.1199 -0.1680 -0.2778
  377MOL0     C50788   6.963   3.169   4.931  0.1219  0.1750  0.0180
  377MOL0     C50789   7.052   3.184   4.814  0.8840  0.0809  0.5663
  377MOL0     O50790   7.067   3.086   4.715 -0.4692 -0.7188  0.2013
  377MOL0     C50791   7.183   3.101   4.636  0.4935 -0.2282  0.2442
  377MOL0     C50792   7.307   3.074   4.698 -1.0590  0.1849 -0.8723
  377MOL0     C50793   7.428   3.084   4.629  0.5980  0.1868  0.1244
  377MOL0     C50794   7.434   3.128   4.499  0.4876 -0.4705  0.0365
  377MOL0     O50795   7.556   3.142   4.428 -0.5698 -0.2589 -0.8081
  377MOL0     C50796   7.667   3.169   4.511 -0.5806 -0.0269 -0.1377
  377MOL0     C50797   7.764   3.251   4.426  0.6037  0.2546  0.4989
  377MOL0     C50798   7.913   3.233   4.459 -0.1466  0.4420 -0.4105
  377MOL0     C50799   7.931   3.265   4.611 -0.0061 -0.4790 -0.0790
  377MOL0     C50800   8.082   3.272   4.634 -0.0920 -0.8809 -0.8652
  377MOL0     C50801   8.124   3.292   4.780  0.1415  0.4681 -0.3496
  377MOL0     C50802   8.266   3.358   4.789 -0.0529  0.8031  0.6533
  377MOL0     C50803   8.316   3.364   4.926  0.1878 -0.4319 -0.5899
  377MOL0    Cl50804   8.382   3.204   4.965 -0.3331 -0.0430  0.3298
  377MOL0     C50805   7.309   3.155   4.434  0.3601  1.0744  0.1603
  377MOL0     C50806   7.183   3.128   4.493 -0.2216 -0.3989 -1.2437
  377MOL0     O50807   7.116   3.293   4.808  0.8632 -0.5152  0.7736
  377MOL0     C50808   6.941   3.280   5.027 -0.4230 -0.7657  0.1626
  377MOL0     C50809   6.848   3.265   5.137  0.1325 -0.1191 -0.2806
  377MOL0     N50810   6.136   3.116   5.509 -0.1875  0.6230  0.4121
  377MOL0     N50811   6.118   3.245   5.528 -0.4467 -0.4973 -0.2060
  377MOL0     C50812   7.147   3.177   5.626  0.0445  0.1578  0.7369
  377MOL0     C50813   7.266   3.141   5.698 -0.6485 -0.2046  0.5539
  377MOL0     C50814   7.611   3.060   5.972 -0.4555  0.2632 -0.0304
  377MOL0     C50815   7.645   3.166   6.059  0.1740  0.0798 -0.1855
  377MOL0     C50816   7.753   3.171   6.144  0.4115  0.3636 -0.2819
  377MOL0     C50817   7.833   3.054   6.157 -0.0181  0.1420  0.1546
  377MOL0     O50818   7.949   3.049   6.224 -0.0588  0.3213 -0.2970
  377MOL0     C50819   7.983   3.162   6.308 -0.5787  0.0940 -0.5624
  377MOL0     C50820   7.884   3.200   6.420  0.2745  0.3275 -0.6409
  377MOL0     C50821   7.948   3.270   6.545  0.3232  0.1720  0.5641
  377MOL0     C50822   7.835   3.327   6.637 -0.3193  0.1091  0.1879
  377MOL0     C50823   7.895   3.413   6.739 -0.2813 -1.2281 -0.0548
  377MOL0     C50824   7.945   3.486   6.822 -0.3080 -0.1678 -0.1656
  377MOL0     C50825   7.795   2.935   6.080 -0.1242 -0.2702 -0.5816
  377MOL0     C50826   7.683   2.938   5.993  0.6308 -0.5474  0.1807
  377MOL0     C50827   7.634   2.806   5.927  0.1606 -0.3419 -0.0954
  377MOL0     H50828   7.283   3.418   5.903 -1.9080  0.9867 -0.9860
  377MOL0     H50829   7.099   3.480   5.758  2.6944  1.0198 -0.2555
  377MOL0     H50830   6.836   3.307   5.740 -1.4946  0.4653 -1.5744
  377MOL0     H50831   6.881   3.471   5.715 -1.6826 -0.0451  0.0460
  377MOL0     H50832   6.658   3.394   5.652  1.1764  0.1496  0.2835
  377MOL0     H50833   6.722   3.301   5.509  1.4938 -2.0876 -0.0940
  377MOL0     H50834   6.821   3.534   5.441  1.1055  0.5635  2.1664
  377MOL0     H50835   6.701   3.604   5.541  3.3115  0.6172  1.8909
  377MOL0     H50836   6.603   3.606   5.339  2.1528  1.5217  1.7741
  377MOL0     H50837   6.640   3.438   5.296 -0.3067 -0.9160 -0.8077
  377MOL0     H50838   6.393   3.483   5.341 -0.9631  2.7312 -1.2318
  377MOL0     H50839   6.461   3.372   5.461  1.4927  0.0811 -0.9374
  377MOL0     H50840   6.480   3.541   5.626  1.9395  2.1434 -0.5410
  377MOL0     H50841   6.427   3.669   5.507 -2.0040 -0.6318 -3.4116
  377MOL0     H50842   6.192   3.544   5.485 -2.4436 -1.6288  2.4373
  377MOL0     H50843   6.236   3.638   5.625 -1.0917  0.9860  0.3521
  377MOL0     H50844   6.321   3.427   5.734  2.0402  5.2530 -2.2956
  377MOL0     H50845   6.150   3.468   5.720 -0.2155 -2.0308  0.6709
  377MOL0     H50846   6.397   3.197   5.693  0.3181 -0.2193 -0.7079
  377MOL0     H50847   6.411   2.951   5.620 -1.9292  2.0546  0.4131
  377MOL0     H50848   6.279   2.871   5.542 -1.3327  0.8099 -0.4420
  377MOL0     H50849   6.444   2.873   5.366  2.3190  1.2883 -3.1984
  377MOL0     H50850   6.312   2.970   5.323  1.2552  0.5553 -1.2411
  377MOL0     H50851   6.549   3.120   5.442 -1.3720  0.5699  0.9006
  377MOL0     H50852   6.429   3.170   5.318  1.8786 -0.2798 -1.1844
  377MOL0     H50853   6.533   3.031   5.165 -0.2610  1.0615 -0.2073
  377MOL0     H50854   6.634   2.948   5.295  0.1656 -1.8127 -3.4439
  377MOL0     H50855   6.738   2.945   5.065  0.1444  0.4591 -0.3238
  377MOL0     H50856   6.891   2.977   4.864  2.4757  1.0426 -1.2030
  377MOL0     H50857   7.313   3.052   4.805  0.0452 -1.7179 -1.2637
  377MOL0     H50858   7.519   3.071   4.686 -0.2990  2.7683  2.3719
  377MOL0     H50859   7.660   3.219   4.608 -0.1585  0.5353 -0.3946
  377MOL0     H50860   7.724   3.079   4.539 -1.5765 -1.4165 -2.3196
  377MOL0     H50861   7.755   3.227   4.320  1.6258 -2.5236  0.9647
  377MOL0     H50862   7.740   3.357   4.439 -1.6296 -0.0822 -0.3791
  377MOL0     H50863   7.942   3.128   4.458 -0.3373  0.3752  0.2098
  377MOL0     H50864   7.987   3.284   4.397  3.0634  0.1911  2.8743
  377MOL0     H50865   7.894   3.178   4.667  1.0843 -2.9168 -2.8459
  377MOL0     H50866   7.884   3.359   4.639  1.5494  0.1668  0.4862
  377MOL0     H50867   8.116   3.365   4.588 -1.0924 -1.1592 -2.2468
  377MOL0     H50868   8.131   3.187   4.585  0.0523  1.0552 -4.4435
  377MOL0     H50869   8.054   3.349   4.841  0.7722 -0.4016  1.2337
  377MOL0     H50870   8.130   3.191   4.821  1.6398  1.0314  0.9211
  377MOL0     H50871   8.269   3.457   4.742 -0.4073  1.0770  1.2023
  377MOL0     H50872   8.331   3.294   4.729 -1.7445 -0.5658  0.2240
  377MOL0     H50873   8.393   3.440   4.937  0.4231 -0.7399 -0.0379
  377MOL0     H50874   8.244   3.389   5.005  2.1938  1.9165  0.6111
  377MOL0     H50875   7.318   3.161   4.326 -0.3613 -1.5653 -0.1175
  377MOL0     H50876   7.078   3.141   4.466 -0.9355  1.3490  1.8824
  377MOL0     H50877   6.987   3.378   5.022  2.0955 -1.8688 -0.0355
  377MOL0     H50878   6.826   3.357   5.190 -1.0275 -1.0730  0.9656
  377MOL0     H50879   7.106   3.104   5.557 -2.2104  1.5802  0.4741
  377MOL0     H50880   7.317   3.047   5.680  1.6965  0.7738  1.5088
  377MOL0     H50881   7.591   3.258   6.039  1.3705 -0.0846 -5.5137
  377MOL0     H50882   7.771   3.263   6.199  0.9527 -0.3981  0.8366
  377MOL0     H50883   8.002   3.244   6.238 -1.1582 -0.0274 -0.8763
  377MOL0     H50884   8.077   3.135   6.355 -2.5425 -0.9722  3.1239
  377MOL0     H50885   7.827   3.114   6.455 -0.2879  0.4801 -1.1699
  377MOL0     H50886   7.817   3.273   6.374  1.6191  1.3371 -1.0618
  377MOL0     H50887   8.006   3.355   6.510 -1.5833  0.6614 -1.7616
  377MOL0     H50888   8.008   3.195   6.597 -0.8237 -0.6374  0.7786
  377MOL0     H50889   7.764   3.385   6.577 -2.0459 -2.8689 -0.8688
  377MOL0     H50890   7.772   3.245   6.672 -2.1403  0.2698 -2.4153
  377MOL0     H50891   7.976   3.558   6.895  1.9633 -1.2839  0.0834
  377MOL0     H50892   7.853   2.845   6.094 -0.4524 -0.3566  0.2591
  377MOL0     H50893   7.531   2.832   5.900  0.8775  3.3386  0.1014
  377MOL0     H50894   7.696   2.796   5.837 -0.6588  0.5593 -0.7926
  377MOL0     H50895   7.648   2.720   5.992 -0.9794 -1.1334 -0.8619
  378MOL0     O50896   3.992   4.745   5.916 -0.4111 -0.1202  0.4760
  378MOL0     C50897   3.983   4.849   5.862  0.2225 -0.2986  0.5146
  378MOL0     O50898   4.086   4.930   5.827 -0.1030 -0.0109 -0.3153
  378MOL0     C50899   4.210   4.914   5.874 -0.2746 -0.7567 -0.3326
  378MOL0     C50900   4.322   4.968   5.809  0.6836  0.1130  0.3687
  378MOL0     C50901   4.455   4.951   5.850  0.4224 -0.3837  0.1477
  378MOL0     C50902   4.490   4.879   5.964  0.8721 -0.3914  0.2628
  378MOL0     O50903   4.615   4.862   6.016 -0.5368 -0.4385 -0.2944
  378MOL0     C50904   4.700   4.981   6.026  0.1658  0.5218  0.3768
  378MOL0     C50905   4.803   4.949   6.129  1.2493 -0.3872  0.6035
  378MOL0     C50906   4.909   4.847   6.076 -0.5188 -0.9636  0.0636
  378MOL0     C50907   5.019   4.803   6.182  1.2717 -0.7069 -0.7391
  378MOL0     C50908   5.096   4.683   6.129 -0.3096  0.1696 -0.4920
  378MOL0     C50909   5.190   4.602   6.232 -0.6200  0.4256  0.9539
  378MOL0     C50910   5.266   4.500   6.141 -0.1578 -0.2995 -0.3241
  378MOL0     C50911   5.395   4.567   6.096 -0.2798  0.4769 -0.2590
  378MOL0     N50912   5.461   4.511   5.977  0.8492 -1.0211 -0.2295
  378MOL0     C50913   5.526   4.389   5.968 -0.1596 -0.1292 -0.3187
  378MOL0     C50914   5.620   4.400   5.869  1.0504  0.0892  0.6368
  378MOL0     C50915   5.717   4.288   5.835  0.4933  0.4842 -0.3916
  378MOL0     C50916   5.854   4.279   5.907 -0.4912  0.0423 -0.3782
  378MOL0     C50917   5.837   4.255   6.060 -0.4403  0.3827 -0.4327
  378MOL0     C50918   5.963   4.190   6.115  1.0358  0.1463 -0.6687
  378MOL0     O50919   5.959   4.051   6.085 -0.6805  0.4294 -0.2701
  378MOL0     C50920   6.070   3.960   6.070  0.5265 -0.5351 -0.2848
  378MOL0     C50921   6.204   3.999   6.089 -0.1873  0.3853 -0.4757
  378MOL0     C50922   6.308   3.898   6.072 -0.0112 -0.7749 -0.7645
  378MOL0     C50923   6.276   3.770   6.035  0.0187  0.7701 -0.0178
  378MOL0     C50924   6.383   3.670   6.007 -0.3195 -0.5439 -0.3858
  378MOL0     O50925   6.351   3.540   6.000 -0.2552 -0.5936 -0.8735
  378MOL0     C50926   6.449   3.438   6.035 -0.7880 -0.3662  0.6299
  378MOL0     C50927   6.404   3.314   6.009 -0.3070 -0.0426 -0.1927
  378MOL0     C50928   6.488   3.206   6.044 -0.4855  1.2237 -0.7353
  378MOL0     C50929   6.610   3.225   6.109 -0.5888 -0.2715  0.1783
  378MOL0     O50930   6.704   3.137   6.159  0.2008 -0.6134  1.3642
  378MOL0     C50931   6.761   3.040   6.064  0.2802  0.0987 -0.8866
  378MOL0     C50932   6.867   3.114   5.990 -0.7782 -0.9905  0.0720
  378MOL0     C50933   6.996   3.159   6.079  0.4348 -0.3728 -0.7235
  378MOL0     C50934   7.091   3.037   6.105  0.1287  0.2844 -0.0197
  378MOL0     C50935   7.209   3.087   6.189 -0.4766 -0.0880 -0.1006
  378MOL0     C50936   7.322   2.988   6.231 -0.0754 -0.0082 -0.2675
  378MOL0     C50937   7.442   3.045   6.298 -0.3905  0.8420  0.2475
  378MOL0     C50938   7.412   3.049   6.450  1.1966 -0.6444  0.1963
  378MOL0    Cl50939   7.545   3.126   6.543  0.1730  0.0359 -0.3007
  378MOL0     C50940   6.645   3.356   6.148 -0.1475 -0.5849 -0.4570
  378MOL0     C50941   6.567   3.462   6.107  0.3371 -0.1127  0.3073
  378MOL0     O50942   6.494   3.714   5.997  0.4091  0.1297  0.5985
  378MOL0     C50943   6.140   3.733   6.018  0.2867 -0.2540  0.2572
  378MOL0     C50944   6.040   3.829   6.037 -0.2423  0.2025 -0.0728
  378MOL0     N50945   5.611   4.529   5.822 -0.0994 -0.0449 -0.6101
  378MOL0     N50946   5.514   4.589   5.883 -0.3931 -0.0780 -0.0028
  378MOL0     C50947   4.382   4.820   6.029 -1.4169  0.0813  0.0379
  378MOL0     C50948   4.248   4.834   5.988  0.6181  0.1073  0.4631
  378MOL0     C50949   3.847   4.911   5.822  0.7714  0.8157 -0.0014
  378MOL0     C50950   3.848   5.042   5.772  0.7455  0.3586 -0.2375
  378MOL0     C50951   3.727   5.112   5.736 -0.8666 -0.8667 -0.0873
  378MOL0     C50952   3.603   5.046   5.734 -0.4879 -0.4931  0.3040
  378MOL0     O50953   3.476   5.094   5.692 -0.2579 -0.1803  0.1170
  378MOL0     C50954   3.466   5.228   5.620 -0.9658 -0.2802 -0.6750
  378MOL0     C50955   3.328   5.234   5.559  0.8731 -0.2387 -0.1724
  378MOL0     C50956   3.223   5.262   5.670 -0.5132 -0.9770 -0.6074
  378MOL0     C50957   3.083   5.281   5.622  0.1894 -0.2255 -0.8773
  378MOL0     C50958   3.023   5.166   5.559 -0.0809 -0.7184  0.1088
  378MOL0     C50959   2.972   5.073   5.499  0.7702 -1.1573  0.0393
  378MOL0     C50960   3.597   4.914   5.783  0.0268 -0.9636 -0.3792
  378MOL0     C50961   3.716   4.842   5.812  0.6564 -0.4127 -0.3332
  378MOL0     C50962   3.691   4.703   5.858  0.4219 -0.5289 -0.4222
  378MOL0     H50963   4.295   5.007   5.711  0.8471  1.3645  0.8041
  378MOL0     H50964   4.530   4.995   5.785  1.1355 -0.9374  0.5901
  378MOL0     H50965   4.754   4.975   5.931 -2.2166  0.4207 -1.0640
  378MOL0     H50966   4.644   5.073   6.041 -1.2040 -0.2146 -0.0236
  378MOL0     H50967   4.749   4.907   6.214 -0.8004  0.2905 -0.2986
  378MOL0     H50968   4.853   5.040   6.163 -0.4956  1.3501 -1.1728
  378MOL0     H50969   4.960   4.891   5.991 -0.1797  1.5144  1.4526
  378MOL0     H50970   4.856   4.758   6.040 -1.6798  0.2977 -1.5109
  378MOL0     H50971   5.079   4.890   6.208  1.8079 -0.1215 -3.5712
  378MOL0     H50972   4.961   4.775   6.270  2.3434 -0.1156  0.1733
  378MOL0     H50973   5.024   4.612   6.087  3.2697 -2.0961 -3.4288
  378MOL0     H50974   5.176   4.710   6.061 -0.1401 -0.2444 -0.4620
  378MOL0     H50975   5.259   4.664   6.288  1.0937  1.7417 -2.3253
  378MOL0     H50976   5.124   4.548   6.300 -0.2863  0.4741  1.3146
  378MOL0     H50977   5.207   4.473   6.053 -2.1663  1.0042  0.5545
  378MOL0     H50978   5.276   4.408   6.200 -1.7950 -0.0232  0.4494
  378MOL0     H50979   5.388   4.676   6.088 -0.8736  0.5744  1.3490
  378MOL0     H50980   5.466   4.546   6.177  1.0948 -0.2979 -1.6045
  378MOL0     H50981   5.497   4.300   6.023  0.9400  1.3936  2.9925
  378MOL0     H50982   5.669   4.191   5.852  3.6380 -1.2580 -0.7538
  378MOL0     H50983   5.730   4.283   5.727  2.7081 -1.3115 -0.0886
  378MOL0     H50984   5.905   4.196   5.857  1.3468  1.2399 -0.5892
  378MOL0     H50985   5.919   4.367   5.903  0.5273 -0.6716 -0.0263
  378MOL0     H50986   5.755   4.185   6.080  0.2357  0.1375  1.7527
  378MOL0     H50987   5.822   4.348   6.115 -0.7799 -1.4990  2.9338
  378MOL0     H50988   5.962   4.202   6.224 -0.9915  0.2589 -0.6616
  378MOL0     H50989   6.048   4.249   6.081  0.6205  1.2199  0.0881
  378MOL0     H50990   6.221   4.102   6.116  1.1936  0.1449 -0.3586
  378MOL0     H50991   6.407   3.924   6.109 -0.0216  0.0424 -1.2688
  378MOL0     H50992   6.309   3.292   5.962 -1.5874 -1.1985  2.7619
  378MOL0     H50993   6.465   3.105   6.010 -0.0663  1.1648 -0.8426
  378MOL0     H50994   6.792   2.955   6.126 -0.3116  0.6370  0.1755
  378MOL0     H50995   6.683   3.002   5.997 -0.0375 -1.1985  0.1831
  378MOL0     H50996   6.896   3.068   5.895  1.2258  0.3609 -0.0284
  378MOL0     H50997   6.827   3.205   5.944 -0.8879  1.0349  3.8168
  378MOL0     H50998   7.053   3.240   6.033 -2.1750  3.6751  2.4617
  378MOL0     H50999   6.959   3.208   6.170  4.1230  0.7415  0.3367
  378MOL0     H51000   7.125   2.990   6.012  0.2594 -0.0985  0.2195
  378MOL0     H51001   7.043   2.956   6.161  0.3586  0.6186  0.6693
  378MOL0     H51002   7.173   3.135   6.280 -2.3404  1.1078 -1.4042
  378MOL0     H51003   7.248   3.174   6.136 -0.9528  2.8796  3.9067
  378MOL0     H51004   7.280   2.904   6.288 -1.3313 -2.8673 -4.9197
  378MOL0     H51005   7.346   2.937   6.138  0.7915  0.7765 -0.4913
  378MOL0     H51006   7.465   3.147   6.265  0.4639  0.0339 -1.8962
  378MOL0     H51007   7.531   2.993   6.260 -2.3417 -0.8633 -2.3892
  378MOL0     H51008   7.326   3.113   6.472  1.1570 -1.2268  1.9725
  378MOL0     H51009   7.390   2.947   6.482 -1.7595 -0.7870 -1.9296
  378MOL0     H51010   6.731   3.371   6.213 -1.1228  1.5673  0.4531
  378MOL0     H51011   6.598   3.559   6.145  0.4717  1.4958 -3.5152
  378MOL0     H51012   6.102   3.636   5.990 -0.5948  0.0984  0.2000
  378MOL0     H51013   5.934   3.821   6.017 -0.2747  0.4222  0.0075
  378MOL0     H51014   4.405   4.760   6.117  1.2039  1.2763  0.2624
  378MOL0     H51015   4.167   4.791   6.047 -0.0596 -4.3345 -3.1276
  378MOL0     H51016   3.940   5.098   5.770  0.5594  0.7767  1.4241
  378MOL0     H51017   3.734   5.215   5.702  0.7794 -0.6526  0.8263
  378MOL0     H51018   3.535   5.230   5.535 -0.8761  0.8405 -0.5921
  378MOL0     H51019   3.500   5.308   5.687  1.1549 -1.2556 -0.5184
  378MOL0     H51020   3.300   5.146   5.500  0.3391  1.7999 -3.1444
  378MOL0     H51021   3.333   5.317   5.489  2.1383  1.0411  1.3657
  378MOL0     H51022   3.253   5.362   5.705  2.1936 -0.3049 -4.2015
  378MOL0     H51023   3.230   5.202   5.761  3.0342  0.7542  0.4792
  378MOL0     H51024   3.027   5.298   5.714  1.4854 -0.1221 -0.0962
  378MOL0     H51025   3.078   5.365   5.552 -2.8396 -0.4024 -1.0064
  378MOL0     H51026   2.934   5.004   5.427 -0.8359  2.6276 -3.0800
  378MOL0     H51027   3.500   4.867   5.773  0.5007 -1.8056 -1.1935
  378MOL0     H51028   3.758   4.632   5.808 -1.0149 -1.9847 -0.3970
  378MOL0     H51029   3.704   4.688   5.965 -0.1661  1.6644 -0.0067
  378MOL0     H51030   3.589   4.674   5.830  0.6687 -3.4578  1.2864
  379MOL0     O51031   1.443   6.153   6.800 -0.1460 -0.4869 -0.5963
  379MOL0     C51032   1.526   6.079   6.742  0.9201  0.8355 -0.1008
  379MOL0     O51033   1.499   5.972   6.667 -0.4630 -0.0434  0.2052
  379MOL0     C51034   1.374   5.917   6.670 -0.1316  0.4166  0.7679
  379MOL0     C51035   1.370   5.779   6.640  0.5843 -0.2014 -0.8382
  379MOL0     C51036   1.241   5.711   6.633 -0.3000  0.9707 -0.5814
  379MOL0     C51037   1.119   5.781   6.660 -0.1697  0.0839  1.0643
  379MOL0     O51038   0.997   5.722   6.672  0.6055  0.3930  0.2444
  379MOL0     C51039   0.997   5.578   6.687 -0.2563 -0.4950  0.9135
  379MOL0     C51040   0.875   5.540   6.766  0.1419 -0.0312 -0.0991
  379MOL0     C51041   0.742   5.606   6.724  0.5640 -0.8181  0.1524
  379MOL0     C51042   0.620   5.524   6.780  0.2517  0.1865 -0.8484
  379MOL0     C51043   0.488   5.607   6.745 -0.4916  0.4214  0.6242
  379MOL0     C51044   0.361   5.532   6.770  0.5979  0.1138 -0.2178
  379MOL0     C51045   0.305   5.551   6.914  0.0723 -0.2010  0.1774
  379MOL0     C51046   0.213   5.429   6.931  0.1895 -0.1989  0.2638
  379MOL0     N51047   0.149   5.445   7.063  0.2996  0.3268 -0.3330
  379MOL0     C51048   0.209   5.433   7.189  0.7000  0.0915  0.0465
  379MOL0     C51049   0.128   5.494   7.269 -0.4433 -0.0584 -0.0168
  379MOL0     C51050   0.131   5.519   7.415 -0.4060  0.0869 -1.1350
  379MOL0     C51051   0.027   5.446   7.494  0.1278  0.1323  0.0669
  379MOL0     C51052   0.071   5.414   7.638  1.1589  0.2794 -0.5178
  379MOL0     C51053  -0.060   5.372   7.716  0.6591 -0.5197 -0.9788
  379MOL0     O51054  -0.133   5.278   7.648  0.0476 -0.0523  0.3416
  379MOL0     C51055  -0.254   5.243   7.685 -0.0770  0.1099 -0.1701
  379MOL0     C51056  -0.332   5.188   7.585 -0.1609  0.0035  0.0159
  379MOL0     C51057  -0.460   5.163   7.610 -0.2895  0.9709 -0.9244
  379MOL0     C51058  -0.522   5.174   7.740 -0.4983 -0.2194  0.6131
  379MOL0     C51059  -0.653   5.129   7.767  0.0944  1.0481  0.1400
  379MOL0     O51060  -0.681   5.093   7.894 -0.3842  0.2093  0.5791
  379MOL0     C51061  -0.805   5.044   7.913 -0.3410 -0.2880 -0.6242
  379MOL0     C51062  -0.900   5.133   7.982 -0.1538  0.4324  0.0653
  379MOL0     C51063  -1.031   5.097   7.984 -0.0805 -0.9581  0.0748
  379MOL0     C51064  -1.075   4.981   7.922  0.2849 -0.1461 -1.1865
  379MOL0     O51065  -1.211   4.957   7.914 -0.0039  0.5680 -0.0340
  379MOL0     C51066  -1.300   4.988   8.026  0.0561 -0.0874 -0.7718
  379MOL0     C51067  -1.302   4.882   8.133 -0.1779 -0.3932 -0.4780
  379MOL0     C51068  -1.399   4.776   8.111  0.2165  0.0442  0.1885
  379MOL0     C51069  -1.405   4.667   8.220  0.4338  0.6272  0.0804
  379MOL0     C51070  -1.472   4.708   8.351 -0.0782 -0.2099 -0.4229
  379MOL0     C51071  -1.632   4.739   8.353  0.2727 -0.1086  0.0351
  379MOL0     C51072  -1.669   4.882   8.378 -0.0394 -0.3532 -0.1304
  379MOL0     C51073  -1.812   4.909   8.412  0.7048  0.6280 -0.3552
  379MOL0    Cl51074  -1.844   5.082   8.429  0.0569  0.3150 -0.0495
  379MOL0     C51075  -0.984   4.889   7.866  0.3301 -0.3816 -0.3719
  379MOL0     C51076  -0.852   4.926   7.862 -0.1123 -0.0945  0.8602
  379MOL0     O51077  -0.725   5.113   7.664  0.1410  1.1686 -0.0956
  379MOL0     C51078  -0.441   5.235   7.836 -0.1651 -0.3781 -0.2129
  379MOL0     C51079  -0.310   5.265   7.811  0.1966 -0.4521 -0.0684
  379MOL0     N51080   0.012   5.537   7.194  0.0543  0.1448 -0.0844
  379MOL0     N51081   0.033   5.511   7.070  0.8151  0.1794  0.2060
  379MOL0     C51082   1.127   5.912   6.685  0.4453 -0.1123 -0.0922
  379MOL0     C51083   1.250   5.982   6.694  0.3175 -0.4206 -0.6184
  379MOL0     C51084   1.669   6.115   6.761 -0.2410 -0.3277  0.0097
  379MOL0     C51085   1.757   6.084   6.651  0.9259 -0.7221 -0.0303
  379MOL0     C51086   1.889   6.108   6.658 -0.4573  1.0718 -0.1089
  379MOL0     C51087   1.947   6.147   6.778  0.4236 -0.7598  0.5096
  379MOL0     O51088   2.083   6.150   6.793 -0.1820 -0.6833  0.5953
  379MOL0     C51089   2.166   6.215   6.696  0.1823 -0.1089  0.7911
  379MOL0     C51090   2.304   6.142   6.701  0.6249  0.5867  0.2548
  379MOL0     C51091   2.414   6.218   6.622 -0.4020  1.2480 -0.2670
  379MOL0     C51092   2.548   6.146   6.635  0.2206  0.5871 -0.2808
  379MOL0     C51093   2.619   6.155   6.765  0.2860  0.5561 -0.2408
  379MOL0     C51094   2.662   6.160   6.878 -0.0905 -0.4024  0.0435
  379MOL0     C51095   1.866   6.185   6.887  0.4394 -0.1350  0.2273
  379MOL0     C51096   1.731   6.175   6.884 -0.6555  0.2073 -0.1633
  379MOL0     C51097   1.649   6.231   7.006 -0.8267  0.7167 -0.5009
  379MOL0     H51098   1.461   5.723   6.620 -0.0283 -1.6283  0.1668
  379MOL0     H51099   1.245   5.605   6.613 -0.7423  1.0266 -0.9856
  379MOL0     H51100   0.996   5.541   6.584 -1.0312  3.9167 -0.8863
  379MOL0     H51101   1.074   5.542   6.756 -0.4246  0.5520  1.6741
  379MOL0     H51102   0.893   5.576   6.868  0.9371 -0.4163 -0.1022
  379MOL0     H51103   0.859   5.433   6.752 -0.6462 -0.1458  1.4386
  379MOL0     H51104   0.733   5.609   6.615 -2.4956 -0.5256  0.3511
  379MOL0     H51105   0.738   5.707   6.766 -1.7825 -1.6455  2.1705
  379MOL0     H51106   0.619   5.427   6.728  2.8847 -0.0200 -0.6790
  379MOL0     H51107   0.625   5.509   6.888 -2.7610 -1.3580 -0.8009
  379MOL0     H51108   0.490   5.704   6.794 -1.2551  0.7909 -0.0562
  379MOL0     H51109   0.488   5.615   6.636  2.1890  0.6460  0.5767
  379MOL0     H51110   0.281   5.566   6.704 -1.1075 -2.6031  0.2882
  379MOL0     H51111   0.373   5.426   6.742  2.4490 -0.3384  1.9937
  379MOL0     H51112   0.248   5.644   6.902 -1.1363 -1.0991 -1.4825
  379MOL0     H51113   0.380   5.553   6.994 -0.6125 -2.7899  0.9689
  379MOL0     H51114   0.138   5.430   6.851  0.2946 -0.0342  0.1671
  379MOL0     H51115   0.267   5.334   6.926  1.4173  0.4030  1.6015
  379MOL0     H51116   0.305   5.391   7.215  1.9501  2.6674 -0.0121
  379MOL0     H51117   0.233   5.495   7.446 -0.1326  1.2113 -1.1056
  379MOL0     H51118   0.131   5.627   7.434 -0.4572 -0.4599  2.7572
  379MOL0     H51119  -0.065   5.506   7.496  0.9512  1.4280  2.2378
  379MOL0     H51120   0.026   5.353   7.437  0.4302  1.4105 -2.1426
  379MOL0     H51121   0.102   5.501   7.696  2.8455 -1.5463  1.4742
  379MOL0     H51122   0.148   5.337   7.647 -0.3782 -1.5307 -1.8815
  379MOL0     H51123  -0.114   5.466   7.728 -0.2003 -1.2281  1.5446
  379MOL0     H51124  -0.037   5.324   7.812  2.4416  0.7198 -0.7520
  379MOL0     H51125  -0.296   5.152   7.489 -1.4623  1.3211 -1.0059
  379MOL0     H51126  -0.514   5.119   7.526  0.8252  1.8560 -2.1527
  379MOL0     H51127  -0.857   5.220   8.030  1.2760 -0.5454  0.6430
  379MOL0     H51128  -1.109   5.168   8.006  0.0867 -0.5058 -0.7635
  379MOL0     H51129  -1.278   5.081   8.078  0.8005 -0.3119 -0.6820
  379MOL0     H51130  -1.405   4.993   7.992  0.2898 -0.2153 -1.5437
  379MOL0     H51131  -1.199   4.855   8.158 -0.0459  2.8260  3.4443
  379MOL0     H51132  -1.325   4.931   8.228  2.9284  0.3850 -0.0022
  379MOL0     H51133  -1.497   4.820   8.095  0.1405 -0.3601 -0.4906
  379MOL0     H51134  -1.374   4.723   8.019 -0.9771  0.0999 -0.1775
  379MOL0     H51135  -1.303   4.639   8.247  0.1974  0.0740  0.4131
  379MOL0     H51136  -1.450   4.576   8.180  0.9409  0.6904 -0.6416
  379MOL0     H51137  -1.416   4.785   8.406 -0.2196 -0.1173 -0.4079
  379MOL0     H51138  -1.469   4.614   8.406 -2.4058 -0.6746 -0.9760
  379MOL0     H51139  -1.672   4.693   8.262  1.8685 -1.3807 -0.0652
  379MOL0     H51140  -1.675   4.692   8.442 -1.0079  0.8094 -0.0704
  379MOL0     H51141  -1.637   4.930   8.285 -1.2732 -1.7570 -1.3288
  379MOL0     H51142  -1.601   4.920   8.456  0.3453 -1.1737 -0.0527
  379MOL0     H51143  -1.867   4.870   8.326  0.3064  0.9941 -0.2715
  379MOL0     H51144  -1.846   4.856   8.501 -1.0941  0.1828 -1.2441
  379MOL0     H51145  -1.022   4.799   7.817 -0.7975  0.1154 -0.4460
  379MOL0     H51146  -0.785   4.864   7.803 -0.6227  1.6919 -1.8009
  379MOL0     H51147  -0.477   5.269   7.933  2.4919 -0.2986  0.8233
  379MOL0     H51148  -0.242   5.301   7.887  3.5379 -1.9123 -2.1366
  379MOL0     H51149   1.032   5.963   6.694  0.1433 -0.6125 -0.4477
  379MOL0     H51150   1.245   6.090   6.710  0.9932 -0.4800  0.0538
  379MOL0     H51151   1.714   6.044   6.560  1.8654 -0.3607 -0.6427
  379MOL0     H51152   1.948   6.085   6.570  0.7986 -0.2370  1.0175
  379MOL0     H51153   2.175   6.319   6.729  1.0103 -0.0657  0.4347
  379MOL0     H51154   2.128   6.202   6.594 -0.6246 -1.0893  1.1922
  379MOL0     H51155   2.302   6.044   6.653  2.7222  0.4234  0.4179
  379MOL0     H51156   2.329   6.127   6.806  0.3176 -2.3383 -0.0228
  379MOL0     H51157   2.423   6.312   6.677  0.6118  0.8919  0.2027
  379MOL0     H51158   2.378   6.227   6.519 -3.8111  1.2602  0.8261
  379MOL0     H51159   2.540   6.040   6.607  2.0712  0.1240  0.7714
  379MOL0     H51160   2.628   6.191   6.576  0.1066  1.0177 -0.1067
  379MOL0     H51161   2.703   6.165   6.977 -2.5111 -1.5655  1.1981
  379MOL0     H51162   1.920   6.225   6.972  0.4314  0.7809 -0.1878
  379MOL0     H51163   1.624   6.150   7.074  0.8492 -0.4513 -1.2133
  379MOL0     H51164   1.714   6.307   7.051  2.2741 -2.3101  0.6063
  379MOL0     H51165   1.564   6.285   6.962 -0.6932 -0.0311 -1.7157
  380MOL0     O51166   4.081   2.964   8.690  1.0529 -0.3218  0.2601
  380MOL0     C51167   3.974   2.968   8.619 -0.0487  0.1133  0.2202
  380MOL0     O51168   3.967   3.022   8.495  0.2168  0.0673  0.0063
  380MOL0     C51169   4.089   3.043   8.436  0.0244 -0.8969 -0.0844
  380MOL0     C51170   4.146   3.170   8.460 -0.3923  0.7158  0.3933
  380MOL0     C51171   4.270   3.200   8.388  0.3276 -0.3523  1.0076
  380MOL0     C51172   4.334   3.105   8.308 -0.0607 -0.6834 -0.1279
  380MOL0     O51173   4.464   3.137   8.256  0.6447  0.8532 -0.0635
  380MOL0     C51174   4.532   3.026   8.201  0.5540 -0.1740  0.9091
  380MOL0     C51175   4.670   3.086   8.166  0.8619  0.8459 -0.9834
  380MOL0     C51176   4.753   3.117   8.286 -0.1680 -0.1555  0.6192
  380MOL0     C51177   4.864   3.208   8.235 -0.3676  0.8655  0.0772
  380MOL0     C51178   4.942   3.263   8.354 -0.1854  0.9578 -0.5092
  380MOL0     C51179   4.950   3.416   8.351  0.7412  0.3346 -0.2657
  380MOL0     C51180   5.056   3.469   8.254  0.1369  1.5742  0.5469
  380MOL0     C51181   4.997   3.495   8.112  0.0175  0.1960 -0.4668
  380MOL0     N51182   5.076   3.596   8.037 -0.1638 -0.2312 -1.0234
  380MOL0     C51183   5.208   3.587   7.997 -0.6512 -0.5989 -0.0786
  380MOL0     C51184   5.223   3.710   7.936 -0.7375 -0.6056 -0.0301
  380MOL0     C51185   5.347   3.749   7.867  0.7907  0.5334  0.1821
  380MOL0     C51186   5.379   3.895   7.875  0.7092  0.1203  0.7814
  380MOL0     C51187   5.528   3.916   7.854 -0.1983  0.2236 -0.1001
  380MOL0     C51188   5.596   3.866   7.721  0.4323 -0.0412 -0.1293
  380MOL0     O51189   5.542   3.934   7.602  0.2880 -0.2429 -0.5390
  380MOL0     C51190   5.617   3.896   7.490  0.7282  0.3401  0.5389
  380MOL0     C51191   5.723   3.797   7.479  0.3000 -0.9344 -0.3970
  380MOL0     C51192   5.756   3.745   7.358  0.4452 -0.2061  0.8442
  380MOL0     C51193   5.698   3.802   7.238  0.1071  0.2425 -1.0587
  380MOL0     C51194   5.750   3.755   7.104 -0.3515  0.2234 -0.4294
  380MOL0     O51195   5.849   3.662   7.104 -0.5254  0.9195 -0.0636
  380MOL0     C51196   5.896   3.591   7.001  0.4684 -0.1282  0.0310
  380MOL0     C51197   5.860   3.602   6.866 -0.2119 -0.0730  0.3830
  380MOL0     C51198   5.931   3.527   6.761 -0.2764 -0.0346 -0.2833
  380MOL0     C51199   6.041   3.447   6.798  0.9503  0.7110  1.1777
  380MOL0     O51200   6.098   3.363   6.698 -0.6203 -0.0749  0.4853
  380MOL0     C51201   6.022   3.314   6.579 -0.4174 -0.1846  0.0687
  380MOL0     C51202   5.904   3.225   6.624  0.1831  0.3284 -0.6722
  380MOL0     C51203   5.855   3.136   6.498  0.2669 -0.5869 -0.3098
  380MOL0     C51204   5.770   3.227   6.405 -0.7897 -0.8955 -0.3191
  380MOL0     C51205   5.709   3.143   6.301  0.9766 -0.4713  0.4943
  380MOL0     C51206   5.591   3.057   6.352  0.2248 -0.7955  0.3403
  380MOL0     C51207   5.517   2.989   6.222  0.4082 -0.3939 -1.0942
  380MOL0     C51208   5.604   2.893   6.140  1.2399 -0.2590 -0.0472
  380MOL0    Cl51209   5.649   2.765   6.240  0.2317 -0.0683  0.3420
  380MOL0     C51210   6.079   3.441   6.930  1.1501  1.0015  0.9712
  380MOL0     C51211   6.012   3.517   7.028 -0.2181  0.2685  0.0122
  380MOL0     O51212   5.705   3.813   7.007 -0.4734  0.6894  0.1037
  380MOL0     C51213   5.608   3.904   7.247 -0.5749 -0.6462  0.1860
  380MOL0     C51214   5.577   3.964   7.374 -0.7729  0.3814 -1.3267
  380MOL0     N51215   5.096   3.781   7.951 -0.5170  0.4137  0.0296
  380MOL0     N51216   5.011   3.706   8.005 -0.3223 -0.2743 -0.0699
  380MOL0     C51217   4.273   2.982   8.290  1.0880  1.0599  0.0972
  380MOL0     C51218   4.149   2.951   8.350  0.4359  0.1355  0.8127
  380MOL0     C51219   3.858   2.908   8.679  0.4669 -0.1229  0.7639
  380MOL0     C51220   3.749   2.877   8.592 -0.3128 -0.1617 -1.0016
  380MOL0     C51221   3.627   2.835   8.638  0.3190 -0.1049  0.2439
  380MOL0     C51222   3.585   2.825   8.768 -0.2677  0.1399  0.4381
  380MOL0     O51223   3.457   2.805   8.818  0.1639 -0.4225 -0.2640
  380MOL0     C51224   3.350   2.761   8.732 -0.6926  0.1625  0.5687
  380MOL0     C51225   3.222   2.801   8.805  0.6562  0.6484  0.3048
  380MOL0     C51226   3.193   2.725   8.932  1.0238  0.3280 -0.3517
  380MOL0     C51227   3.060   2.753   9.005 -0.3597  0.0926 -0.5146
  380MOL0     C51228   3.076   2.871   9.088  0.0474 -0.3107 -0.1882
  380MOL0     C51229   3.088   2.968   9.167  0.5491 -0.0732  0.9101
  380MOL0     C51230   3.691   2.862   8.851 -0.8298  0.3397 -0.7265
  380MOL0     C51231   3.825   2.899   8.818 -0.4095  1.0411 -0.2385
  380MOL0     C51232   3.915   2.931   8.935  0.4678 -1.0905  0.0762
  380MOL0     H51233   4.103   3.251   8.518 -1.2443  1.3219 -1.0339
  380MOL0     H51234   4.315   3.298   8.398 -2.2780  1.2310 -1.3030
  380MOL0     H51235   4.543   2.941   8.269  2.2533 -2.2517 -1.7142
  380MOL0     H51236   4.494   2.995   8.103 -2.0042  2.5709  0.8964
  380MOL0     H51237   4.656   3.163   8.090 -1.0210  1.1189 -0.4177
  380MOL0     H51238   4.719   3.005   8.111  2.1595 -0.6608  2.1464
  380MOL0     H51239   4.785   3.021   8.327  3.9459  0.1043 -1.4364
  380MOL0     H51240   4.694   3.169   8.361  0.4383  0.6572  0.5387
  380MOL0     H51241   4.929   3.147   8.172 -2.9662 -1.6038 -0.4058
  380MOL0     H51242   4.813   3.287   8.178 -1.9476  0.0786  0.3440
  380MOL0     H51243   4.893   3.228   8.446 -0.0947  0.3848 -0.6746
  380MOL0     H51244   5.045   3.229   8.362  0.3107  2.4603 -0.3085
  380MOL0     H51245   4.855   3.464   8.326 -0.4866 -2.4639 -1.4131
  380MOL0     H51246   4.992   3.447   8.447  0.0766 -0.4060  0.2782
  380MOL0     H51247   5.138   3.398   8.244 -1.7281 -0.5708 -0.1431
  380MOL0     H51248   5.090   3.561   8.303  2.3053  0.6747  0.8215
  380MOL0     H51249   5.004   3.407   8.048  3.1106  0.7083 -1.0031
  380MOL0     H51250   4.893   3.525   8.128 -0.4675  0.1272 -2.9918
  380MOL0     H51251   5.275   3.502   8.006 -1.2148 -1.1420 -0.8787
  380MOL0     H51252   5.425   3.695   7.921  1.9260  0.6594 -1.2684
  380MOL0     H51253   5.352   3.736   7.759  2.6469  0.7700  0.2170
  380MOL0     H51254   5.311   3.944   7.804 -0.7440 -1.0469  1.3147
  380MOL0     H51255   5.363   3.932   7.977  2.0649 -1.4633  1.6213
  380MOL0     H51256   5.578   3.866   7.938  0.9982 -0.7232 -1.3281
  380MOL0     H51257   5.551   4.022   7.867 -2.7028  1.0779 -1.8993
  380MOL0     H51258   5.587   3.757   7.714  1.9247 -0.5158  3.4524
  380MOL0     H51259   5.704   3.877   7.733  0.8046  0.2685 -3.0044
  380MOL0     H51260   5.761   3.755   7.571  0.5984  1.4325  0.6317
  380MOL0     H51261   5.829   3.665   7.346  1.2548  0.7432 -0.8982
  380MOL0     H51262   5.780   3.666   6.831 -1.9270 -2.4423 -0.3073
  380MOL0     H51263   5.897   3.529   6.658 -0.2093 -0.1144 -0.3072
  380MOL0     H51264   5.991   3.402   6.522  5.2617  1.6476 -0.7778
  380MOL0     H51265   6.084   3.246   6.520  2.9350  0.2020  2.8834
  380MOL0     H51266   5.942   3.166   6.707 -0.3080  2.1812  0.9225
  380MOL0     H51267   5.826   3.287   6.669 -0.7298 -3.2059  3.2942
  380MOL0     H51268   5.944   3.104   6.442  1.1282 -0.3995  0.9134
  380MOL0     H51269   5.797   3.054   6.541 -1.8132  1.8367  1.8134
  380MOL0     H51270   5.829   3.307   6.359 -2.0680  0.8421  0.9411
  380MOL0     H51271   5.691   3.260   6.473  0.2991  1.1882  0.0146
  380MOL0     H51272   5.784   3.073   6.262 -0.9484 -2.1566 -0.3723
  380MOL0     H51273   5.674   3.208   6.220  1.1558 -0.2117  0.6222
  380MOL0     H51274   5.620   2.992   6.435 -0.0373 -0.4402  0.7134
  380MOL0     H51275   5.522   3.133   6.391  2.6367  1.1582  1.0978
  380MOL0     H51276   5.488   3.065   6.150 -2.8807  1.2359  1.6467
  380MOL0     H51277   5.425   2.944   6.262  2.2760 -0.7955  3.2205
  380MOL0     H51278   5.547   2.852   6.056 -1.1263  2.2015  0.2140
  380MOL0     H51279   5.695   2.939   6.103  0.4770  0.0944 -1.5731
  380MOL0     H51280   6.152   3.366   6.958 -0.2562 -0.9859 -0.3864
  380MOL0     H51281   6.038   3.507   7.132 -0.8246 -0.6709  0.0856
  380MOL0     H51282   5.584   3.952   7.153  5.6284  0.3395 -1.3727
  380MOL0     H51283   5.516   4.053   7.386  2.5258  2.7362 -0.6988
  380MOL0     H51284   4.319   2.904   8.229  2.1360 -0.2187  2.3936
  380MOL0     H51285   4.103   2.855   8.327 -0.1052  1.0690 -2.4173
  380MOL0     H51286   3.766   2.889   8.486 -1.0146 -0.1848 -1.1207
  380MOL0     H51287   3.556   2.827   8.556  0.6613  0.6425 -0.1358
  380MOL0     H51288   3.349   2.653   8.715  0.9124  0.3520 -1.0975
  380MOL0     H51289   3.343   2.821   8.640 -0.7834  1.4471  1.3795
  380MOL0     H51290   3.134   2.782   8.742 -0.0414 -0.7673  1.6296
  380MOL0     H51291   3.230   2.909   8.821  1.6482  0.6079  0.1358
  380MOL0     H51292   3.274   2.744   9.002 -1.5002  0.9253  2.6193
  380MOL0     H51293   3.203   2.620   8.901 -1.9224  0.0783 -0.7788
  380MOL0     H51294   2.980   2.761   8.930 -2.0106  3.7124  1.4081
  380MOL0     H51295   3.029   2.675   9.074 -1.8143  1.3580  0.3174
  380MOL0     H51296   3.099   3.059   9.223  0.8413  0.1984  0.4194
  380MOL0     H51297   3.664   2.859   8.956  1.2428 -1.9210 -0.1475
  380MOL0     H51298   3.857   2.921   9.027  0.5317 -1.7348  0.0481
  380MOL0     H51299   4.000   2.862   8.927 -0.4448 -2.1506 -0.8252
  380MOL0     H51300   3.957   3.032   8.928  2.2255 -1.8015 -0.3244
  381MOL0     O51301   6.733   8.919  11.238  0.2928 -0.0425  0.7424
  381MOL0     C51302   6.734   8.821  11.306 -0.6221  0.0012 -0.2781
  381MOL0     O51303   6.831   8.769  11.373 -0.3408 -0.2381  0.4753
  381MOL0     C51304   6.939   8.842  11.415  0.3112  0.4312 -0.3755
  381MOL0     C51305   7.065   8.838  11.348  0.0382 -0.9239  0.3718
  381MOL0     C51306   7.169   8.915  11.404 -0.4410 -0.3072 -0.1640
  381MOL0     C51307   7.155   8.998  11.512  0.0426  0.2178 -0.5186
  381MOL0     O51308   7.256   9.078  11.559  0.1716 -0.1359 -0.5480
  381MOL0     C51309   7.304   9.167  11.464  0.2126 -0.2298 -0.6939
  381MOL0     C51310   7.197   9.249  11.381  0.1809 -0.4294 -0.1684
  381MOL0     C51311   7.267   9.299  11.259 -0.2923 -0.5959  0.1492
  381MOL0     C51312   7.226   9.443  11.226 -0.0103  0.2104  0.3080
  381MOL0     C51313   7.287   9.502  11.094 -0.0790 -0.1894  0.3612
  381MOL0     C51314   7.229   9.646  11.078 -0.2621 -0.6893 -0.3602
  381MOL0     C51315   7.297   9.737  10.973  0.9595 -0.1321 -1.0972
  381MOL0     C51316   7.453   9.747  10.990 -0.4900 -0.2740  0.5097
  381MOL0     N51317   7.477   9.800  11.127  0.1005 -0.8663  0.4430
  381MOL0     C51318   7.497   9.723  11.237 -0.6738 -0.7431 -0.0512
  381MOL0     C51319   7.540   9.807  11.331  0.2682  0.0285  0.0954
  381MOL0     C51320   7.573   9.764  11.472  0.0846  0.1333 -0.4474
  381MOL0     C51321   7.704   9.828  11.514  0.4194 -0.1110 -0.0940
  381MOL0     C51322   7.749   9.795  11.651 -0.1004 -0.1683 -0.4337
  381MOL0     C51323   7.892   9.857  11.683 -0.0027 -0.6312 -0.3169
  381MOL0     O51324   7.872   9.981  11.756  0.3369 -0.3295  0.5789
  381MOL0     C51325   7.983  10.047  11.788 -1.4272 -0.3116  0.1947
  381MOL0     C51326   7.973  10.183  11.834  0.2351 -0.5936  0.7463
  381MOL0     C51327   8.083  10.253  11.882 -0.6647  0.2323 -0.2182
  381MOL0     C51328   8.216  10.203  11.865  0.2269  0.7520  0.1283
  381MOL0     C51329   8.336  10.276  11.915  0.0535  0.1035 -0.0901
  381MOL0     O51330   8.317  10.388  11.990 -0.2917 -0.5651 -0.1570
  381MOL0     C51331   8.409  10.470  12.041 -0.4163  0.1233  0.4132
  381MOL0     C51332   8.382  10.603  12.063  0.1221  0.9511  0.5008
  381MOL0     C51333   8.464  10.682  12.139  1.0587 -0.3865  0.0322
  381MOL0     C51334   8.581  10.640  12.188  0.4523 -0.4095 -0.0235
  381MOL0     O51335   8.670  10.698  12.274 -0.5792  0.1866  0.0065
  381MOL0     C51336   8.663  10.840  12.276  0.6242 -0.3167 -0.2731
  381MOL0     C51337   8.774  10.903  12.365  0.2124  0.2678 -0.4860
  381MOL0     C51338   8.919  10.863  12.313 -0.0247 -0.4497 -0.2633
  381MOL0     C51339   9.006  10.909  12.432  0.5588  0.0620 -0.8667
  381MOL0     C51340   9.159  10.887  12.425 -0.0230 -1.0423 -0.1613
  381MOL0     C51341   9.216  10.903  12.568 -0.6281  0.1522  0.6695
  381MOL0     C51342   9.371  10.895  12.539 -0.1852  0.0536 -0.1541
  381MOL0     C51343   9.463  10.910  12.663  0.2937 -0.2978  0.3995
  381MOL0    Cl51344   9.435  10.776  12.779 -0.0908 -0.2124 -0.3087
  381MOL0     C51345   8.615  10.504  12.159  0.5180 -0.3928  1.0713
  381MOL0     C51346   8.537  10.421  12.081  0.6424  0.6261 -0.1038
  381MOL0     O51347   8.447  10.234  11.871 -0.1671  0.1414  0.3865
  381MOL0     C51348   8.228  10.070  11.807  1.4439  0.5594 -0.6636
  381MOL0     C51349   8.115   9.996  11.774 -0.4885  0.3768 -0.6073
  381MOL0     N51350   7.540   9.937  11.277 -0.3111 -0.6473  0.3680
  381MOL0     N51351   7.503   9.933  11.161 -0.6615  0.0388 -0.7428
  381MOL0     C51352   7.028   9.007  11.569  0.4591  0.0921 -0.1019
  381MOL0     C51353   6.923   8.925  11.526 -0.1356  0.2246 -0.7384
  381MOL0     C51354   6.621   8.733  11.279  0.2413 -0.1755 -0.3208
  381MOL0     C51355   6.643   8.603  11.232 -0.3565  0.0294 -0.5081
  381MOL0     C51356   6.535   8.520  11.206 -0.8744  0.2032 -0.3233
  381MOL0     C51357   6.401   8.558  11.223  1.1354 -0.0999 -0.6004
  381MOL0     O51358   6.294   8.488  11.185 -0.6763 -0.5935  0.0384
  381MOL0     C51359   6.302   8.351  11.152 -0.3324  0.2459  0.3359
  381MOL0     C51360   6.164   8.300  11.175  0.2626 -1.2615 -1.2082
  381MOL0     C51361   6.143   8.277  11.319  0.1809 -0.1937 -0.4099
  381MOL0     C51362   6.003   8.240  11.347 -0.6556 -0.4218 -0.0224
  381MOL0     C51363   5.967   8.223  11.492  0.5068  0.6653  0.2098
  381MOL0     C51364   5.925   8.221  11.607  0.0089 -0.0740 -0.3111
  381MOL0     C51365   6.385   8.690  11.264 -0.6231  0.0663  0.6442
  381MOL0     C51366   6.492   8.779  11.294 -0.2523  0.5224  0.4289
  381MOL0     C51367   6.447   8.921  11.320  0.5769  0.7205 -0.0511
  381MOL0     H51368   7.082   8.776  11.260 -0.8882  0.4318 -0.7988
  381MOL0     H51369   7.271   8.913  11.365 -0.6258  0.5170 -0.7209
  381MOL0     H51370   7.373   9.237  11.511  3.2682 -1.8092 -2.5496
  381MOL0     H51371   7.367   9.107  11.399  0.1135  1.3579 -2.3295
  381MOL0     H51372   7.165   9.335  11.441 -0.3509  0.4892 -1.7255
  381MOL0     H51373   7.111   9.202  11.333  0.7109  0.5630 -2.1632
  381MOL0     H51374   7.251   9.236  11.171  1.1495  0.7157 -1.1070
  381MOL0     H51375   7.376   9.308  11.264 -0.0694 -0.7959 -2.7700
  381MOL0     H51376   7.119   9.451  11.208  0.1321 -1.5289 -1.5325
  381MOL0     H51377   7.252   9.513  11.307  0.1211 -0.8758  1.2204
  381MOL0     H51378   7.396   9.505  11.093  0.1099 -3.1038 -2.2358
  381MOL0     H51379   7.248   9.441  11.012 -0.8666 -0.9251  1.2516
  381MOL0     H51380   7.125   9.648  11.044 -0.6878  0.6282  0.9017
  381MOL0     H51381   7.232   9.696  11.176  3.0163 -1.4253  0.0456
  381MOL0     H51382   7.263   9.838  10.996  0.2053 -0.8867  1.4882
  381MOL0     H51383   7.270   9.712  10.870  0.2364  1.2805 -1.2658
  381MOL0     H51384   7.509   9.654  10.975  1.4821  1.3091 -3.7176
  381MOL0     H51385   7.497   9.814  10.916 -0.0684 -0.9267  0.1659
  381MOL0     H51386   7.486   9.615  11.246 -2.5179 -0.9624 -3.2645
  381MOL0     H51387   7.499   9.806  11.542 -0.8910  2.2833 -2.6047
  381MOL0     H51388   7.574   9.656  11.490 -0.1559 -0.0930 -1.7238
  381MOL0     H51389   7.786   9.797  11.448  1.7769 -1.5220  2.1633
  381MOL0     H51390   7.681   9.935  11.506 -1.9145 -0.4848  0.7543
  381MOL0     H51391   7.758   9.686  11.653  1.0370 -0.0841 -0.0757
  381MOL0     H51392   7.673   9.836  11.718 -0.1759  1.2536 -1.3493
  381MOL0     H51393   7.956   9.870  11.595  0.3983  0.8478  0.1682
  381MOL0     H51394   7.947   9.790  11.749  1.6086  2.0014  1.1806
  381MOL0     H51395   7.877  10.233  11.833  1.1657  1.2794 -0.1157
  381MOL0     H51396   8.068  10.351  11.928 -1.5696 -0.6673  1.5053
  381MOL0     H51397   8.292  10.652  12.028 -0.5750 -0.8404 -0.3462
  381MOL0     H51398   8.417  10.772  12.177  1.4656  0.0371 -0.4567
  381MOL0     H51399   8.688  10.879  12.177  3.9717  0.6046  0.8034
  381MOL0     H51400   8.561  10.864  12.307 -0.0890 -1.6611 -1.4640
  381MOL0     H51401   8.755  11.010  12.375 -4.1409 -0.4444  1.1620
  381MOL0     H51402   8.767  10.865  12.467  1.2037 -2.1583 -1.2451
  381MOL0     H51403   8.929  10.757  12.285 -2.7432 -0.5670 -1.0710
  381MOL0     H51404   8.953  10.931  12.234 -1.4604  0.9913  0.3119
  381MOL0     H51405   8.971  10.854  12.520 -1.4553  0.6426 -1.2322
  381MOL0     H51406   8.987  11.015  12.454 -1.4059 -0.5973  1.1268
  381MOL0     H51407   9.198  10.967  12.360 -2.4484  0.0098 -0.4263
  381MOL0     H51408   9.184  10.789  12.385 -2.7775 -1.6116 -0.6736
  381MOL0     H51409   9.198  11.003  12.608  2.6936  0.2191  2.3341
  381MOL0     H51410   9.174  10.824  12.631  1.8102 -2.5653 -0.8736
  381MOL0     H51411   9.407  10.973  12.472  1.5893  1.3528  2.1541
  381MOL0     H51412   9.403  10.799  12.497 -1.3846 -0.8813  0.9697
  381MOL0     H51413   9.567  10.895  12.635  1.1959 -0.5815  3.5112
  381MOL0     H51414   9.449  11.004  12.718  0.5358  1.4920 -2.4005
  381MOL0     H51415   8.707  10.470  12.207 -0.0183  2.4233  4.5595
  381MOL0     H51416   8.561  10.316  12.069 -2.9017 -0.4687  1.0911
  381MOL0     H51417   8.328  10.029  11.797  1.6875  0.4296  1.6473
  381MOL0     H51418   8.133   9.894  11.743  0.8673  0.2453  0.5093
  381MOL0     H51419   7.009   9.066  11.659 -0.6147 -0.5333  0.0945
  381MOL0     H51420   6.827   8.946  11.573 -0.3383  0.1252 -1.1011
  381MOL0     H51421   6.742   8.569  11.204 -0.2914  1.6272 -2.4156
  381MOL0     H51422   6.565   8.420  11.174 -0.8450 -0.5376  1.8150
  381MOL0     H51423   6.375   8.290  11.205  0.8665  1.3183 -0.0273
  381MOL0     H51424   6.329   8.342  11.046 -0.6049 -0.6652  0.3356
  381MOL0     H51425   6.151   8.206  11.121 -1.7376 -1.2363 -0.8553
  381MOL0     H51426   6.093   8.375  11.139 -1.6605 -2.0087  0.7286
  381MOL0     H51427   6.159   8.371  11.372 -4.8893  1.5243 -1.3096
  381MOL0     H51428   6.203   8.196  11.361 -0.5232 -0.8031 -0.5572
  381MOL0     H51429   5.951   8.333  11.320 -0.3282  0.1576  1.2697
  381MOL0     H51430   5.971   8.151  11.292 -3.8206 -0.3418  1.4652
  381MOL0     H51431   5.891   8.220  11.709  1.4295  0.2316  0.1829
  381MOL0     H51432   6.288   8.735  11.281  0.2412  1.7274  1.4745
  381MOL0     H51433   6.455   8.979  11.228  2.2586  0.5112 -0.0697
  381MOL0     H51434   6.356   8.947  11.375  0.3456  1.2786 -0.6769
  381MOL0     H51435   6.528   8.949  11.389  1.2229 -0.6535 -0.2157
  382MOL0     O51436   1.723   0.570  10.598 -0.0662  0.4698  0.3947
  382MOL0     C51437   1.652   0.467  10.585  0.1360 -0.8097  0.4233
  382MOL0     O51438   1.679   0.346  10.636 -0.3667  0.3632 -0.1312
  382MOL0     C51439   1.804   0.298  10.663 -0.6687  0.2676 -0.2976
  382MOL0     C51440   1.810   0.192  10.752  0.0188  1.2632 -0.4832
  382MOL0     C51441   1.933   0.145  10.799 -0.2446  0.3372 -0.4360
  382MOL0     C51442   2.053   0.185  10.748 -0.8322  0.5774  0.3839
  382MOL0     O51443   2.170   0.117  10.789 -0.8721 -0.2123  0.3754
  382MOL0     C51444   2.298   0.180  10.775 -0.0914 -0.5900 -0.0449
  382MOL0     C51445   2.381   0.123  10.886 -0.9086  0.9116  0.1249
  382MOL0     C51446   2.532   0.130  10.863  0.7139  0.0431 -0.2686
  382MOL0     C51447   2.571   0.273  10.894  0.5052  0.0985 -0.5700
  382MOL0     C51448   2.713   0.309  10.845 -0.4779  0.1569 -0.2499
  382MOL0     C51449   2.821   0.236  10.931  0.5728  0.4988 -0.0206
  382MOL0     C51450   2.952   0.302  10.902  0.4211  0.1586  0.4855
  382MOL0     C51451   3.044   0.293  11.028  1.0843 -0.5708 -0.5636
  382MOL0     N51452   3.188   0.318  11.020  0.2267  0.3320  0.0649
  382MOL0     C51453   3.269   0.306  11.123  0.4053  0.1037 -0.3901
  382MOL0     C51454   3.395   0.302  11.070 -0.0801 -0.8009  0.0070
  382MOL0     C51455   3.510   0.269  11.162  0.2245  0.0152  0.1650
  382MOL0     C51456   3.557   0.394  11.235  0.4866  0.6734 -0.1612
  382MOL0     C51457   3.622   0.493  11.148 -0.2798  1.4264 -0.5989
  382MOL0     C51458   3.684   0.616  11.215  0.3569 -0.0636  0.0094
  382MOL0     O51459   3.810   0.591  11.288 -0.0703  0.7543  0.6913
  382MOL0     C51460   3.926   0.571  11.215 -0.7421 -0.1473 -0.5785
  382MOL0     C51461   4.038   0.558  11.290 -0.4093 -0.3246  0.6096
  382MOL0     C51462   4.155   0.535  11.225 -0.2514 -0.2936  1.1755
  382MOL0     C51463   4.175   0.520  11.089  1.0015  0.4988  0.2148
  382MOL0     C51464   4.307   0.497  11.043  0.2860 -0.4595  0.3852
  382MOL0     O51465   4.410   0.525  11.139  0.3330 -0.0604  0.2213
  382MOL0     C51466   4.544   0.508  11.113  0.1024  0.3586  0.0003
  382MOL0     C51467   4.611   0.560  11.000 -0.1574 -0.0874  0.2458
  382MOL0     C51468   4.744   0.566  11.000  0.3261 -0.9554 -0.3058
  382MOL0     C51469   4.821   0.512  11.098 -0.6217 -0.1848  0.2767
  382MOL0     O51470   4.956   0.508  11.070  0.3564 -1.0100 -0.0098
  382MOL0     C51471   5.051   0.467  11.167 -0.3376  0.6860 -0.3325
  382MOL0     C51472   5.190   0.504  11.117 -1.0377  0.3464  0.5921
  382MOL0     C51473   5.299   0.409  11.175 -0.6111  0.2660 -1.1354
  382MOL0     C51474   5.440   0.422  11.114 -0.6724 -0.6433  0.3868
  382MOL0     C51475   5.546   0.340  11.186  0.6092  0.1233 -0.1356
  382MOL0     C51476   5.677   0.325  11.110  0.2942  0.1277 -0.6079
  382MOL0     C51477   5.758   0.219  11.169 -0.0208  0.6035  0.3672
  382MOL0     C51478   5.908   0.244  11.142 -0.2511  0.2518  0.7262
  382MOL0    Cl51479   5.998   0.083  11.127  0.7457  0.2345  0.6853
  382MOL0     C51480   4.765   0.448  11.202 -0.1656 -0.7107  0.1286
  382MOL0     C51481   4.621   0.465  11.224 -0.4779 -0.2298  0.3273
  382MOL0     O51482   4.327   0.460  10.934  0.5253 -0.2762 -0.1231
  382MOL0     C51483   4.062   0.534  11.006 -0.0138 -0.4039  0.6336
  382MOL0     C51484   3.938   0.558  11.072  0.0005 -0.2081  0.2674
  382MOL0     N51485   3.389   0.343  10.940  0.0088 -0.8213  0.4722
  382MOL0     N51486   3.262   0.349  10.906  0.3367  0.2637 -0.4116
  382MOL0     C51487   2.054   0.293  10.665  0.7251  0.4992  0.4908
  382MOL0     C51488   1.926   0.350  10.620 -0.3181  0.1529  0.8935
  382MOL0     C51489   1.513   0.480  10.528 -0.0669 -0.4648  0.1254
  382MOL0     C51490   1.410   0.394  10.555 -0.9583  0.7321  0.0054
  382MOL0     C51491   1.282   0.406  10.510 -0.5245 -0.4911 -0.3556
  382MOL0     C51492   1.241   0.511  10.427 -0.6803 -0.2113 -0.0468
  382MOL0     O51493   1.116   0.533  10.383  0.0300 -0.5647  0.0514
  382MOL0     C51494   1.028   0.418  10.376 -0.2965  0.1746 -0.1327
  382MOL0     C51495   0.916   0.448  10.284 -0.6305 -0.5926 -0.2481
  382MOL0     C51496   0.825   0.326  10.260 -0.3905  0.1844 -0.4967
  382MOL0     C51497   0.784   0.246  10.383  0.3954  0.1109  0.3114
  382MOL0     C51498   0.683   0.318  10.464  0.1810  0.4096  0.9770
  382MOL0     C51499   0.604   0.382  10.530 -0.3439  0.6081  0.0801
  382MOL0     C51500   1.341   0.603  10.403 -0.2976 -1.0155  0.0265
  382MOL0     C51501   1.478   0.591  10.441  0.2704 -0.2766  0.2850
  382MOL0     C51502   1.572   0.701  10.394  0.1113  0.2198  0.8337
  382MOL0     H51503   1.719   0.147  10.792  0.1970  2.2628  1.1500
  382MOL0     H51504   1.928   0.060  10.866 -0.2813  0.7191  0.0473
  382MOL0     H51505   2.343   0.159  10.678 -0.3759  1.8068 -0.7615
  382MOL0     H51506   2.277   0.287  10.774  0.3457 -0.4990  0.0278
  382MOL0     H51507   2.353   0.017  10.890  0.1154  0.6014 -0.4139
  382MOL0     H51508   2.359   0.167  10.984 -2.4049  1.5171 -0.4533
  382MOL0     H51509   2.543   0.101  10.758 -0.1229 -3.5504  0.5010
  382MOL0     H51510   2.583   0.058  10.926  0.0624 -0.9413 -0.8476
  382MOL0     H51511   2.508   0.344  10.841 -1.6435  0.3817  2.1310
  382MOL0     H51512   2.565   0.291  11.002  3.1910 -1.3937 -0.0774
  382MOL0     H51513   2.729   0.274  10.743  0.9617  0.4364 -0.1387
  382MOL0     H51514   2.726   0.417  10.847 -1.4236  0.3311  3.4557
  382MOL0     H51515   2.797   0.239  11.038  0.9153  2.1359  0.0394
  382MOL0     H51516   2.814   0.134  10.891  0.0933  0.4888  0.0941
  382MOL0     H51517   2.939   0.409  10.885  2.6728  0.0765 -2.5070
  382MOL0     H51518   3.020   0.252  10.833  1.4804  0.2039  1.4787
  382MOL0     H51519   2.997   0.367  11.093 -0.6813 -1.9007 -0.2082
  382MOL0     H51520   3.008   0.201  11.076 -1.0803  0.4609 -0.0452
  382MOL0     H51521   3.234   0.295  11.225 -0.2783  3.5125 -0.1351
  382MOL0     H51522   3.498   0.191  11.237 -0.0712  1.1885  1.3670
  382MOL0     H51523   3.591   0.241  11.093  1.1296 -0.7665  1.4930
  382MOL0     H51524   3.474   0.428  11.297 -1.1368 -1.6411 -0.9318
  382MOL0     H51525   3.638   0.362  11.301 -1.2302 -0.4619  1.4610
  382MOL0     H51526   3.545   0.537  11.084  0.9325  1.6547 -1.9531
  382MOL0     H51527   3.702   0.446  11.090 -0.1827  0.7457  0.0763
  382MOL0     H51528   3.608   0.667  11.275 -3.2979 -3.0412 -1.6308
  382MOL0     H51529   3.708   0.684  11.132 -0.6028  0.2787  0.0015
  382MOL0     H51530   4.039   0.562  11.398  2.7400  0.9549  0.6254
  382MOL0     H51531   4.234   0.531  11.299 -0.2858  0.3688  1.2508
  382MOL0     H51532   4.558   0.608  10.918 -0.1305 -1.1169 -0.3894
  382MOL0     H51533   4.791   0.628  10.924 -0.3200  1.9814  1.4845
  382MOL0     H51534   5.026   0.524  11.257 -2.5997 -0.4580 -0.1765
  382MOL0     H51535   5.063   0.360  11.183  1.4657  1.0909  1.3667
  382MOL0     H51536   5.196   0.508  11.008 -2.5129 -0.0577  0.4785
  382MOL0     H51537   5.220   0.604  11.149  1.4016  0.3822 -1.5624
  382MOL0     H51538   5.305   0.427  11.282 -1.5785  0.3715 -1.0937
  382MOL0     H51539   5.270   0.303  11.176 -1.7332  0.4538  3.0597
  382MOL0     H51540   5.464   0.528  11.116 -0.9015 -0.5924  2.3081
  382MOL0     H51541   5.445   0.388  11.010  3.7872  0.3031  0.0726
  382MOL0     H51542   5.500   0.241  11.197 -1.9452  1.0285 -1.6792
  382MOL0     H51543   5.562   0.385  11.284  2.4041 -1.7587  0.5124
  382MOL0     H51544   5.656   0.312  11.003 -1.4784  2.4352 -0.6155
  382MOL0     H51545   5.738   0.415  11.118 -0.6057  0.6721  0.5872
  382MOL0     H51546   5.742   0.122  11.120  1.4808  0.9404 -0.8726
  382MOL0     H51547   5.744   0.207  11.277  1.5665  1.3407  0.6906
  382MOL0     H51548   5.922   0.303  11.051  2.5073 -1.0011  0.2498
  382MOL0     H51549   5.949   0.305  11.224 -1.0000 -1.5269  2.5165
  382MOL0     H51550   4.825   0.405  11.282 -1.4761 -2.7770  0.0755
  382MOL0     H51551   4.579   0.433  11.320 -2.2725 -2.1618 -0.9927
  382MOL0     H51552   4.081   0.523  10.900 -3.0875  0.9891 -0.1735
  382MOL0     H51553   3.858   0.591  11.007  3.1619  1.5660 -3.1124
  382MOL0     H51554   2.144   0.333  10.620  0.3174 -0.7017 -1.5427
  382MOL0     H51555   1.918   0.437  10.555 -2.1932 -0.3331  0.4148
  382MOL0     H51556   1.427   0.302  10.609  1.2728  0.2570 -1.3557
  382MOL0     H51557   1.210   0.335  10.551 -0.1315  0.7280  2.7364
  382MOL0     H51558   0.995   0.403  10.479  1.3245  0.0204  0.3901
  382MOL0     H51559   1.089   0.331  10.353 -0.2454  0.6257 -1.9127
  382MOL0     H51560   0.946   0.499  10.192 -0.6350  3.7488  1.9110
  382MOL0     H51561   0.859   0.528  10.332  0.6648  0.7720 -0.9255
  382MOL0     H51562   0.861   0.265  10.177  0.0749  0.6729 -0.6522
  382MOL0     H51563   0.729   0.355  10.216 -0.4393 -0.1085 -0.5854
  382MOL0     H51564   0.721   0.165  10.345  0.3009  0.0069  0.6839
  382MOL0     H51565   0.873   0.209  10.436  1.9940  2.3541 -0.6682
  382MOL0     H51566   0.518   0.434  10.567 -0.7437  1.9262 -2.4761
  382MOL0     H51567   1.320   0.692  10.345 -1.9098 -1.3004  0.1327
  382MOL0     H51568   1.533   0.770  10.319  2.6878  0.2708 -0.5936
  382MOL0     H51569   1.603   0.751  10.486  2.9310 -0.0794  0.1417
  382MOL0     H51570   1.664   0.657  10.353 -0.9280 -0.7179 -0.5931
  383MOL0     O51571   5.401   2.726   1.930 -1.3253 -0.6089  0.0870
  383MOL0     C51572   5.354   2.831   1.896 -0.1333  0.1001  0.3816
  383MOL0     O51573   5.424   2.937   1.847 -0.0199  0.3066 -0.9434
  383MOL0     C51574   5.556   2.918   1.821 -0.9568  0.6929 -0.8192
  383MOL0     C51575   5.645   2.955   1.929  0.8262  0.6242  0.0676
  383MOL0     C51576   5.781   2.951   1.902 -0.9888  0.1543  0.0069
  383MOL0     C51577   5.832   2.920   1.769  0.0817  0.4593 -0.1467
  383MOL0     O51578   5.960   2.914   1.732  0.3284  0.1959  0.0352
  383MOL0     C51579   6.010   2.780   1.748  0.1776  0.2756  0.1265
  383MOL0     C51580   6.150   2.782   1.684  0.4064 -0.1157 -0.3338
  383MOL0     C51581   6.256   2.885   1.729  0.5752  0.0369 -0.6701
  383MOL0     C51582   6.303   2.850   1.872  0.5744 -0.0593 -1.0320
  383MOL0     C51583   6.425   2.951   1.907  0.9160 -0.0136  0.0009
  383MOL0     C51584   6.496   2.915   2.031  0.5364  0.5513 -0.3746
  383MOL0     C51585   6.403   2.921   2.154  0.6626 -0.0518 -0.6511
  383MOL0     C51586   6.426   3.058   2.231 -0.1092 -0.3877  0.6303
  383MOL0     N51587   6.567   3.068   2.282  0.3864  0.4094  0.3101
  383MOL0     C51588   6.630   2.970   2.359  0.3166 -0.7573 -0.1242
  383MOL0     C51589   6.760   3.007   2.375  0.1209  0.2056 -0.2079
  383MOL0     C51590   6.870   2.947   2.451 -0.2395  0.6708  0.0703
  383MOL0     C51591   6.829   2.908   2.598 -0.5656  0.0282  0.2098
  383MOL0     C51592   6.801   3.032   2.687 -0.0031  0.7826 -0.4979
  383MOL0     C51593   6.820   3.000   2.835  0.8075  0.3187 -0.1599
  383MOL0     O51594   6.718   3.064   2.918 -0.8949  0.1597 -0.0985
  383MOL0     C51595   6.590   3.013   2.935  0.6409  0.7125 -0.1620
  383MOL0     C51596   6.560   2.874   2.909  0.2927  0.1859  0.7009
  383MOL0     C51597   6.424   2.838   2.927  0.4668 -0.2614 -1.1891
  383MOL0     C51598   6.321   2.922   2.984 -0.2892  0.0105  0.0953
  383MOL0     C51599   6.184   2.870   3.009  0.1118 -0.0888  0.2882
  383MOL0     O51600   6.157   2.749   2.964 -0.2979 -0.1929 -0.7817
  383MOL0     C51601   6.040   2.689   2.992 -0.2260  0.2057 -0.4098
  383MOL0     C51602   5.934   2.685   2.896 -0.5850 -0.5601  0.8736
  383MOL0     C51603   5.810   2.650   2.931 -0.3372  0.8276  0.2067
  383MOL0     C51604   5.777   2.599   3.053 -0.4437 -0.5951 -0.1405
  383MOL0     O51605   5.655   2.559   3.092  0.0936  0.6080  0.6149
  383MOL0     C51606   5.550   2.607   3.007  0.0441 -0.6139 -0.3549
  383MOL0     C51607   5.419   2.554   3.056  0.2853  0.3081 -0.4324
  383MOL0     C51608   5.375   2.627   3.184  0.4909  0.6646 -0.2960
  383MOL0     C51609   5.264   2.544   3.253 -0.3136 -0.5109 -0.3895
  383MOL0     C51610   5.182   2.630   3.345  0.3939 -0.2378 -0.8430
  383MOL0     C51611   5.072   2.555   3.433  0.2513 -1.4873 -0.0862
  383MOL0     C51612   4.951   2.506   3.359  0.0428  0.1322 -0.8017
  383MOL0     C51613   4.852   2.423   3.459 -0.2997  0.1143  0.3853
  383MOL0    Cl51614   4.754   2.311   3.342  0.1935  0.2268 -0.0594
  383MOL0     C51615   5.881   2.579   3.151 -0.7768  0.1769  0.6766
  383MOL0     C51616   6.014   2.636   3.118 -0.1264 -0.3197 -0.4205
  383MOL0     O51617   6.108   2.945   3.063 -0.2572 -0.4960  0.2142
  383MOL0     C51618   6.361   3.051   3.007 -0.7142  1.0555  0.6306
  383MOL0     C51619   6.491   3.095   2.973  0.0269 -1.3876 -0.3525
  383MOL0     N51620   6.780   3.125   2.303  0.1241  0.1642 -0.0993
  383MOL0     N51621   6.664   3.162   2.243 -0.0407 -0.9032  0.1233
  383MOL0     C51622   5.734   2.889   1.669  0.1220 -0.0076  0.1447
  383MOL0     C51623   5.601   2.878   1.697  0.5899 -0.6467  0.0049
  383MOL0     C51624   5.206   2.847   1.909 -1.0794 -0.5209 -0.1901
  383MOL0     C51625   5.157   2.973   1.863 -0.4264  0.8303  0.5196
  383MOL0     C51626   5.024   2.999   1.850  1.3608 -0.4613  0.2587
  383MOL0     C51627   4.934   2.899   1.895 -0.2017  0.2165  0.5991
  383MOL0     O51628   4.798   2.917   1.901  0.1036 -0.1823 -0.4334
  383MOL0     C51629   4.742   3.025   1.818 -0.2137 -0.7696  0.0164
  383MOL0     C51630   4.599   2.992   1.779  0.1035 -0.1904 -1.0329
  383MOL0     C51631   4.515   3.022   1.905  0.1907 -0.7352  0.4677
  383MOL0     C51632   4.406   2.926   1.926 -0.1247  0.2651  0.5505
  383MOL0     C51633   4.457   2.790   1.929  0.5467 -0.1444 -0.2114
  383MOL0     C51634   4.482   2.668   1.918  0.8534 -0.3247 -0.2794
  383MOL0     C51635   4.979   2.780   1.946 -0.3897  0.0477  0.5404
  383MOL0     C51636   5.111   2.750   1.949  0.3858  0.6181 -0.2870
  383MOL0     C51637   5.140   2.605   1.982  0.5397  0.1958 -0.2448
  383MOL0     H51638   5.615   2.979   2.031  1.5630 -1.9945  0.9841
  383MOL0     H51639   5.851   2.992   1.974  0.8045 -0.7559 -1.1720
  383MOL0     H51640   6.006   2.735   1.848 -4.2153 -0.3146 -0.1411
  383MOL0     H51641   5.951   2.708   1.690  0.4698 -0.4715  0.7299
  383MOL0     H51642   6.144   2.801   1.577  1.2080 -0.6406 -0.4841
  383MOL0     H51643   6.179   2.678   1.702 -0.1965 -0.5644 -1.8099
  383MOL0     H51644   6.216   2.987   1.736  4.8101  1.8423  0.2596
  383MOL0     H51645   6.331   2.893   1.650 -0.0609  2.2050 -1.1274
  383MOL0     H51646   6.222   2.867   1.944  0.6134 -0.0132 -0.9990
  383MOL0     H51647   6.327   2.744   1.884 -3.4119 -0.9774  0.4616
  383MOL0     H51648   6.482   2.953   1.814 -3.3747 -2.2870 -3.0697
  383MOL0     H51649   6.376   3.049   1.908  2.8528  1.0254  2.1914
  383MOL0     H51650   6.529   2.811   2.025  0.1140  0.4710 -1.8539
  383MOL0     H51651   6.588   2.973   2.045  0.4879  1.0340 -1.8367
  383MOL0     H51652   6.421   2.834   2.217  2.7022 -0.4898 -1.7664
  383MOL0     H51653   6.296   2.907   2.136  0.6437 -4.1530  1.6752
  383MOL0     H51654   6.390   3.137   2.166 -2.9828  0.1272  2.6475
  383MOL0     H51655   6.360   3.065   2.318 -0.2838  2.2167  0.3639
  383MOL0     H51656   6.584   2.876   2.388 -0.9737 -1.6314 -4.3765
  383MOL0     H51657   6.910   2.857   2.403  2.3374  1.6920  0.1025
  383MOL0     H51658   6.945   3.027   2.452  1.0654 -0.5143  0.0494
  383MOL0     H51659   6.744   2.840   2.584 -2.2113  2.5077 -3.4542
  383MOL0     H51660   6.909   2.849   2.643 -1.3527 -0.3277  1.1761
  383MOL0     H51661   6.709   3.085   2.659 -0.1042  1.4634  1.0338
  383MOL0     H51662   6.875   3.113   2.678  1.9346 -0.9820 -1.1509
  383MOL0     H51663   6.909   3.053   2.872  0.1344  1.3338  0.0388
  383MOL0     H51664   6.823   2.891   2.845  1.8734 -0.1383 -3.9892
  383MOL0     H51665   6.640   2.807   2.882 -1.8035 -1.4223 -2.0665
  383MOL0     H51666   6.412   2.730   2.925 -0.6401 -0.1468 -1.3938
  383MOL0     H51667   5.957   2.722   2.796 -0.9339  3.5553  2.1163
  383MOL0     H51668   5.734   2.678   2.859 -1.8027 -0.1872  1.3058
  383MOL0     H51669   5.549   2.716   3.008 -3.2191 -0.5599 -0.0549
  383MOL0     H51670   5.567   2.581   2.902 -0.7267  0.5724 -0.7982
  383MOL0     H51671   5.342   2.568   2.981  0.7688 -0.8506 -1.1841
  383MOL0     H51672   5.429   2.447   3.079  1.4665  0.8389  1.7965
  383MOL0     H51673   5.455   2.633   3.259 -0.8330 -0.4325  1.2692
  383MOL0     H51674   5.338   2.728   3.164 -0.4731  0.6033  1.0860
  383MOL0     H51675   5.309   2.459   3.305  0.5277 -0.0784 -0.3953
  383MOL0     H51676   5.190   2.503   3.183  0.8153 -0.3781 -1.7097
  383MOL0     H51677   5.129   2.704   3.284 -1.5714 -0.2820  0.7108
  383MOL0     H51678   5.249   2.687   3.411 -0.5171  2.5392 -2.1566
  383MOL0     H51679   5.127   2.471   3.476  3.0124  0.1018 -0.2048
  383MOL0     H51680   5.043   2.621   3.515 -2.2110 -0.7444 -1.4480
  383MOL0     H51681   4.987   2.441   3.278  0.3125 -1.9999  0.9386
  383MOL0     H51682   4.891   2.583   3.310 -2.4181 -1.8916 -1.1518
  383MOL0     H51683   4.909   2.371   3.537  2.0071  0.8404 -0.7268
  383MOL0     H51684   4.781   2.489   3.508 -1.4329  1.7877 -3.1987
  383MOL0     H51685   5.859   2.522   3.240 -0.8728 -1.6993 -0.5004
  383MOL0     H51686   6.088   2.630   3.198 -0.3356 -1.7226 -0.3045
  383MOL0     H51687   6.292   3.126   3.045 -0.4618  1.0689  1.0728
  383MOL0     H51688   6.513   3.199   2.992 -3.5206 -0.5968  0.2586
  383MOL0     H51689   5.766   2.859   1.570 -2.8111 -1.4691 -0.4942
  383MOL0     H51690   5.532   2.836   1.625 -1.5366  1.1365  0.8725
  383MOL0     H51691   5.232   3.047   1.836  0.0099  0.4117  0.5773
  383MOL0     H51692   4.995   3.095   1.808 -0.8179 -1.4052 -0.4966
  383MOL0     H51693   4.795   3.042   1.724  0.3479  2.1291  0.7338
  383MOL0     H51694   4.748   3.117   1.878  1.9736 -1.7294  1.3618
  383MOL0     H51695   4.594   2.890   1.741  0.6906 -0.1429 -1.2515
  383MOL0     H51696   4.569   3.059   1.699  2.3205 -1.0529 -2.6894
  383MOL0     H51697   4.476   3.124   1.896 -1.7519 -1.4743 -0.0089
  383MOL0     H51698   4.582   3.026   1.992  3.4678  2.6707 -1.9349
  383MOL0     H51699   4.343   2.945   2.014 -0.9743  1.2474 -0.2394
  383MOL0     H51700   4.344   2.931   1.836  0.7036 -0.5819 -0.0892
  383MOL0     H51701   4.498   2.568   1.882  2.4801  0.5236 -2.1276
  383MOL0     H51702   4.901   2.713   1.980 -1.2261  0.1977 -1.0138
  383MOL0     H51703   5.191   2.600   2.079 -3.0087 -1.6217  1.7341
  383MOL0     H51704   5.056   2.536   1.992  0.4128  0.0876 -1.7985
  383MOL0     H51705   5.196   2.554   1.904  1.1424 -0.8159  0.8161
  384MOL0     O51706   9.853   7.463   7.862  0.1523 -0.1956  0.1801
  384MOL0     C51707   9.830   7.467   7.738  0.3050  0.2757  0.4601
  384MOL0     O51708   9.875   7.377   7.639 -0.0191  0.0975 -0.9877
  384MOL0     C51709   9.931   7.262   7.681 -1.0215 -0.0134 -0.9522
  384MOL0     C51710  10.059   7.269   7.735  0.0891  0.6424  0.5428
  384MOL0     C51711  10.109   7.157   7.791  0.5138 -0.6560  0.3408
  384MOL0     C51712  10.024   7.039   7.818 -0.6690 -0.5918 -0.3069
  384MOL0     O51713  10.087   6.939   7.887 -0.0552 -0.5390 -0.1898
  384MOL0     C51714  10.104   6.947   8.027  0.5824  0.5149 -0.0269
  384MOL0     C51715  10.199   6.839   8.078  1.0213  0.1654  0.3281
  384MOL0     C51716  10.342   6.855   8.008  0.3097  0.0374 -0.5069
  384MOL0     C51717  10.457   6.802   8.094 -0.5196 -0.2293  0.0919
  384MOL0     C51718  10.592   6.812   8.029 -0.0103  0.2031 -0.1175
  384MOL0     C51719  10.717   6.796   8.128 -0.9042  1.1374 -0.1187
  384MOL0     C51720  10.837   6.778   8.038 -0.4330 -0.0473  0.5964
  384MOL0     C51721  10.888   6.918   7.993 -0.6650  0.2048 -0.1809
  384MOL0     N51722  11.015   6.893   7.916  0.3417 -0.0022  0.2946
  384MOL0     C51723  11.133   6.851   7.975  0.0449  0.5611 -0.7374
  384MOL0     C51724  11.195   6.799   7.864  0.1938 -0.5656  0.4100
  384MOL0     C51725  11.326   6.724   7.851  0.1454  0.1104 -0.2145
  384MOL0     C51726  11.322   6.570   7.890  0.1327  0.7586  0.3453
  384MOL0     C51727  11.271   6.476   7.773  0.4574  0.5649 -0.0059
  384MOL0     C51728  11.117   6.462   7.772  0.0850 -0.2670  0.5802
  384MOL0     O51729  11.053   6.450   7.900 -0.7056  0.2592  1.4101
  384MOL0     C51730  10.924   6.433   7.907  0.3649 -0.5326  0.7828
  384MOL0     C51731  10.875   6.412   8.030 -0.1735  0.5981 -0.1790
  384MOL0     C51732  10.739   6.392   8.049  0.7147  0.4522 -0.1513
  384MOL0     C51733  10.640   6.402   7.943 -0.7825  0.5680 -1.0494
  384MOL0     C51734  10.491   6.403   7.964  0.7694  0.1965  0.1295
  384MOL0     O51735  10.401   6.394   7.868 -0.5712 -0.0739 -0.0953
  384MOL0     C51736  10.265   6.404   7.897  0.1555  0.1002  0.3688
  384MOL0     C51737  10.192   6.518   7.871  0.0301  0.4061 -1.0117
  384MOL0     C51738  10.054   6.535   7.920 -0.6825  0.2366  0.2997
  384MOL0     C51739   9.991   6.427   7.991  0.7171 -0.2237  0.5331
  384MOL0     O51740   9.859   6.452   8.025  0.3287  0.8990 -0.0118
  384MOL0     C51741   9.778   6.335   8.046 -0.4595  0.3921  0.4671
  384MOL0     C51742   9.641   6.383   8.068 -0.4128 -0.1319  0.0635
  384MOL0     C51743   9.625   6.475   8.184  0.3491  0.0938 -0.8113
  384MOL0     C51744   9.491   6.554   8.194  0.3759  0.3003  0.6891
  384MOL0     C51745   9.503   6.635   8.334 -0.3728  0.5671  0.3810
  384MOL0     C51746   9.378   6.715   8.367  0.4664  1.0263  0.7240
  384MOL0     C51747   9.380   6.779   8.508  0.0208  0.3456 -0.3525
  384MOL0     C51748   9.239   6.830   8.542  0.3366  0.6397  0.6818
  384MOL0    Cl51749   9.115   6.697   8.555  0.3490  0.1498 -0.2042
  384MOL0     C51750  10.060   6.307   8.015 -0.2234 -1.2401 -0.7917
  384MOL0     C51751  10.196   6.298   7.975  0.3835  0.5370 -0.1570
  384MOL0     O51752  10.458   6.423   8.082 -0.2226  0.2068 -0.2019
  384MOL0     C51753  10.691   6.428   7.817 -0.2498  0.1487  0.2108
  384MOL0     C51754  10.834   6.446   7.794 -0.8997 -0.5414  0.0232
  384MOL0     N51755  11.126   6.840   7.750 -0.2180 -0.1323 -0.0458
  384MOL0     N51756  11.013   6.871   7.782  0.2131 -0.3324  0.1072
  384MOL0     C51757   9.894   7.036   7.761 -0.0197 -0.8524  0.1967
  384MOL0     C51758   9.853   7.149   7.692  0.5451  0.8492  0.4765
  384MOL0     C51759   9.748   7.572   7.686  0.6046 -0.5048  0.0719
  384MOL0     C51760   9.724   7.685   7.772  1.1530 -0.4717 -0.4975
  384MOL0     C51761   9.659   7.802   7.727  0.4604  0.1326  0.6169
  384MOL0     C51762   9.597   7.802   7.604  0.3603  0.7567 -0.5555
  384MOL0     O51763   9.515   7.907   7.587 -0.1971 -0.7761 -0.2701
  384MOL0     C51764   9.420   7.927   7.481 -1.2053 -0.6767 -0.2523
  384MOL0     C51765   9.307   8.022   7.517 -0.5468 -0.3609 -0.7479
  384MOL0     C51766   9.349   8.163   7.503 -0.3225 -1.1125 -0.2724
  384MOL0     C51767   9.252   8.261   7.575 -0.3992 -0.0239  0.1810
  384MOL0     C51768   9.331   8.385   7.599 -0.1764  0.9166  0.9850
  384MOL0     C51769   9.398   8.478   7.603  0.0091  0.2228 -0.2444
  384MOL0     C51770   9.608   7.695   7.518  0.3224 -0.0328  0.1189
  384MOL0     C51771   9.688   7.584   7.552  0.1646 -0.1380  0.1278
  384MOL0     C51772   9.690   7.472   7.458 -0.3947 -0.3599  0.3618
  384MOL0     H51773  10.121   7.357   7.723  1.8682 -0.5932  0.1738
  384MOL0     H51774  10.211   7.146   7.827  1.5672  0.0738 -2.1879
  384MOL0     H51775  10.149   7.045   8.048  0.6369  0.5565 -0.3354
  384MOL0     H51776  10.008   6.939   8.078  1.4721 -3.7285  1.3662
  384MOL0     H51777  10.153   6.745   8.046  0.9482  0.4494 -0.4271
  384MOL0     H51778  10.194   6.845   8.187  0.3185  0.0453  0.3103
  384MOL0     H51779  10.370   6.960   7.993  0.8066 -0.0016  0.1351
  384MOL0     H51780  10.336   6.813   7.907 -1.2726  1.0660 -0.8921
  384MOL0     H51781  10.452   6.875   8.175  1.8961 -0.1466  0.2407
  384MOL0     H51782  10.441   6.701   8.133 -2.7141 -0.9110 -2.3478
  384MOL0     H51783  10.592   6.726   7.962 -0.4358 -0.5899  0.8874
  384MOL0     H51784  10.605   6.905   7.972  2.3631 -0.9855 -1.7045
  384MOL0     H51785  10.727   6.887   8.189  1.1359  2.3777 -2.1117
  384MOL0     H51786  10.696   6.704   8.183 -0.9285  1.3442  0.2219
  384MOL0     H51787  10.808   6.714   7.955  0.7802 -0.3727  0.4075
  384MOL0     H51788  10.915   6.715   8.082 -0.9818 -1.6649 -0.6580
  384MOL0     H51789  10.820   6.988   7.943 -1.1866 -0.5893 -0.6106
  384MOL0     H51790  10.918   6.973   8.082  4.0139 -1.1870 -0.6255
  384MOL0     H51791  11.167   6.830   8.076 -0.8048 -3.2615 -1.0862
  384MOL0     H51792  11.363   6.739   7.749  0.4092  1.3655  0.0520
  384MOL0     H51793  11.389   6.774   7.925 -0.6297 -0.2289  0.6958
  384MOL0     H51794  11.428   6.548   7.906  0.8532 -0.3045 -4.2736
  384MOL0     H51795  11.266   6.548   7.981  1.8800 -0.2508  1.2470
  384MOL0     H51796  11.318   6.378   7.763  0.5005  0.6171 -0.3610
  384MOL0     H51797  11.286   6.520   7.674 -2.8800  1.8227 -0.0878
  384MOL0     H51798  11.086   6.389   7.696 -0.0680 -0.0833  0.4648
  384MOL0     H51799  11.087   6.559   7.732  0.7547 -0.7003 -1.0591
  384MOL0     H51800  10.949   6.401   8.109  2.8172 -3.0299 -3.1325
  384MOL0     H51801  10.708   6.372   8.151  1.2978 -2.3208 -0.4379
  384MOL0     H51802  10.245   6.598   7.820  1.6744 -0.2633 -0.4325
  384MOL0     H51803  10.010   6.630   7.892  2.5081  1.1898 -2.1184
  384MOL0     H51804   9.786   6.271   7.957  0.1178  1.3984 -0.2210
  384MOL0     H51805   9.825   6.277   8.126  2.0042  2.5109  0.6673
  384MOL0     H51806   9.602   6.430   7.977  0.3772 -0.9692 -0.7264
  384MOL0     H51807   9.588   6.289   8.083  2.2924 -1.6521  0.7352
  384MOL0     H51808   9.638   6.413   8.274 -0.1193  2.3453  0.9080
  384MOL0     H51809   9.707   6.546   8.197  0.5566  0.3516 -3.1485
  384MOL0     H51810   9.404   6.490   8.181  0.8221 -0.3835  1.0221
  384MOL0     H51811   9.496   6.634   8.120  0.1007  0.5593  0.9470
  384MOL0     H51812   9.576   6.713   8.312 -0.4661  0.2300 -1.2781
  384MOL0     H51813   9.523   6.575   8.424 -0.8272  0.2014  0.2434
  384MOL0     H51814   9.363   6.792   8.291 -1.1994 -2.5364 -2.8781
  384MOL0     H51815   9.306   6.633   8.361  1.5134  0.1370 -0.0521
  384MOL0     H51816   9.462   6.850   8.518  1.5172 -1.0490 -2.0793
  384MOL0     H51817   9.396   6.693   8.574 -0.5104  1.6579  1.5805
  384MOL0     H51818   9.239   6.892   8.632  0.6102  0.7094  0.6344
  384MOL0     H51819   9.213   6.894   8.456 -0.5711 -1.0541 -0.3589
  384MOL0     H51820  10.021   6.226   8.078  1.6814 -1.9165 -0.4034
  384MOL0     H51821  10.247   6.212   8.017 -0.9151 -0.5622 -0.7626
  384MOL0     H51822  10.625   6.421   7.731  0.0804 -2.7747  0.1068
  384MOL0     H51823  10.875   6.463   7.695  0.7699 -2.2517  0.3428
  384MOL0     H51824   9.828   6.951   7.774 -1.2175  0.2740  1.9632
  384MOL0     H51825   9.751   7.147   7.656 -0.0817 -1.9270  2.0820
  384MOL0     H51826   9.766   7.694   7.871 -0.1092  0.5289 -0.0269
  384MOL0     H51827   9.644   7.882   7.799 -0.7300 -0.3161  0.9025
  384MOL0     H51828   9.374   7.832   7.454 -0.5576 -1.3826  1.0348
  384MOL0     H51829   9.473   7.950   7.388 -1.2131 -0.4612 -0.2054
  384MOL0     H51830   9.275   8.000   7.619 -0.1171  1.7546 -0.1036
  384MOL0     H51831   9.213   7.999   7.466 -0.3381 -2.6267 -0.1894
  384MOL0     H51832   9.355   8.181   7.396 -1.7662  2.6931  0.1104
  384MOL0     H51833   9.447   8.180   7.549 -1.6458  0.9216  2.0187
  384MOL0     H51834   9.162   8.274   7.514  0.5308  3.6457 -0.6263
  384MOL0     H51835   9.228   8.215   7.671 -2.2242 -1.7606 -1.0215
  384MOL0     H51836   9.459   8.566   7.605 -2.8672  2.3255  1.2884
  384MOL0     H51837   9.547   7.696   7.428  0.7351 -0.5914 -0.1689
  384MOL0     H51838   9.669   7.378   7.509 -1.0506  0.2580  1.2810
  384MOL0     H51839   9.625   7.490   7.372  2.3474  3.5801 -1.2200
  384MOL0     H51840   9.792   7.470   7.418 -0.7665  0.0925 -0.6590
  385MOL0     O51841   7.344   0.740   8.311 -0.4555  0.0329  0.0353
  385MOL0     C51842   7.379   0.827   8.388 -0.1162 -0.7209  0.5428
  385MOL0     O51843   7.509   0.850   8.427 -0.9575  0.0824 -0.2182
  385MOL0     C51844   7.621   0.784   8.383 -0.3473 -0.2468  0.0668
  385MOL0     C51845   7.742   0.829   8.444  0.2660  0.1385  0.2561
  385MOL0     C51846   7.871   0.774   8.412 -0.5612 -0.2558 -0.5711
  385MOL0     C51847   7.893   0.673   8.319 -0.0676 -0.1268  0.6953
  385MOL0     O51848   8.012   0.627   8.275 -0.1687 -0.1586 -0.0781
  385MOL0     C51849   8.119   0.716   8.244  0.1669 -0.1080  0.6718
  385MOL0     C51850   8.251   0.644   8.204 -0.1623 -0.2122  0.8251
  385MOL0     C51851   8.372   0.727   8.206  0.2063 -0.7205  0.5169
  385MOL0     C51852   8.483   0.675   8.114 -0.4495  0.3196  0.8870
  385MOL0     C51853   8.620   0.747   8.120 -0.0299 -0.7700 -0.5515
  385MOL0     C51854   8.680   0.745   8.265 -0.3054 -0.0727  0.1343
  385MOL0     C51855   8.830   0.794   8.275  0.8447  0.3549  0.0150
  385MOL0     C51856   8.888   0.749   8.411 -0.0657  0.1674  0.7996
  385MOL0     N51857   9.019   0.803   8.454  0.4580  1.1358 -0.2132
  385MOL0     C51858   9.040   0.883   8.565 -0.3754  0.1850  0.9389
  385MOL0     C51859   9.170   0.921   8.540  1.0251 -1.0986  0.1733
  385MOL0     C51860   9.252   1.015   8.623 -0.3958 -0.9459  1.3288
  385MOL0     C51861   9.393   1.060   8.570 -0.1334  0.3365 -0.4053
  385MOL0     C51862   9.506   0.957   8.574 -0.3982  0.3532 -0.0398
  385MOL0     C51863   9.639   1.015   8.521 -0.1196 -0.4217 -0.2848
  385MOL0     O51864   9.733   0.905   8.511  0.2323 -0.5493  0.1075
  385MOL0     C51865   9.862   0.937   8.505 -0.4724 -1.0185 -0.1768
  385MOL0     C51866   9.912   1.064   8.480 -0.6469 -0.7089  0.5539
  385MOL0     C51867  10.050   1.081   8.468 -0.2501  0.0051  0.1703
  385MOL0     C51868  10.138   0.974   8.499 -0.1181 -0.4278 -0.1503
  385MOL0     C51869  10.290   0.991   8.497 -0.5688  0.5509  0.4013
  385MOL0     O51870  10.338   1.111   8.446 -0.0245  0.3175 -0.3148
  385MOL0     C51871  10.474   1.139   8.439 -0.3520 -0.4267  0.3720
  385MOL0     C51872  10.529   1.223   8.530  0.3673 -0.2325  0.0259
  385MOL0     C51873  10.668   1.224   8.533 -0.2484  0.2287  0.5853
  385MOL0     C51874  10.746   1.138   8.455  0.7758 -0.8153 -0.5825
  385MOL0     O51875  10.878   1.151   8.471 -0.2607 -0.1920  0.3942
  385MOL0     C51876  10.964   1.105   8.371 -0.0763 -0.5912 -1.0780
  385MOL0     C51877  11.110   1.119   8.421  0.2667  0.3148  0.0454
  385MOL0     C51878  11.160   1.260   8.465  0.6022  0.7252  0.2978
  385MOL0     C51879  11.308   1.247   8.475 -1.2118 -0.0688 -0.2657
  385MOL0     C51880  11.371   1.383   8.514 -0.5169 -0.8013  0.2085
  385MOL0     C51881  11.519   1.378   8.549  0.0492 -0.7497 -0.0470
  385MOL0     C51882  11.564   1.522   8.575  0.5774  0.0880 -0.0804
  385MOL0     C51883  11.707   1.521   8.616  0.1944  0.5245  0.2285
  385MOL0    Cl51884  11.823   1.454   8.497 -0.0345  0.6400  0.1725
  385MOL0     C51885  10.684   1.054   8.365 -0.2627 -0.5983  0.1116
  385MOL0     C51886  10.549   1.066   8.356 -0.5722  0.2222  0.4111
  385MOL0     O51887  10.360   0.886   8.529  0.5146  0.4583 -0.2970
  385MOL0     C51888  10.087   0.849   8.523 -0.7078 -0.2431  0.1749
  385MOL0     C51889   9.952   0.833   8.523  0.1244 -0.7767 -0.9322
  385MOL0     N51890   9.221   0.869   8.422 -0.2972  0.5476  0.0284
  385MOL0     N51891   9.125   0.788   8.371 -0.1624  0.2518 -0.3384
  385MOL0     C51892   7.780   0.632   8.253 -0.2487  0.6698 -0.2204
  385MOL0     C51893   7.651   0.681   8.285  0.6203 -0.2733 -0.0719
  385MOL0     C51894   7.276   0.919   8.434  0.4665  0.3493  0.6720
  385MOL0     C51895   7.324   1.048   8.474 -0.0514 -1.2322 -0.7473
  385MOL0     C51896   7.236   1.139   8.535  0.9003 -0.2461  0.5236
  385MOL0     C51897   7.096   1.108   8.540 -0.6319 -0.3800  1.1508
  385MOL0     O51898   7.020   1.215   8.579  0.1406  0.9840 -0.2779
  385MOL0     C51899   6.880   1.192   8.596 -0.9881  1.0154  0.2335
  385MOL0     C51900   6.803   1.313   8.645 -0.1533  0.8309 -0.4371
  385MOL0     C51901   6.766   1.404   8.526  0.7599 -0.0585  0.9448
  385MOL0     C51902   6.629   1.366   8.467  0.0568 -0.4823 -0.4822
  385MOL0     C51903   6.612   1.453   8.349  0.2735  0.0268  0.4796
  385MOL0     C51904   6.586   1.503   8.241  0.2655 -0.2127  0.3356
  385MOL0     C51905   7.051   0.989   8.495  0.0706 -0.7882 -0.3534
  385MOL0     C51906   7.143   0.887   8.450 -0.3879 -0.2847 -0.9283
  385MOL0     C51907   7.068   0.764   8.411 -0.8175 -0.3102  0.2387
  385MOL0     H51908   7.734   0.901   8.525 -1.7193 -1.3488  1.4698
  385MOL0     H51909   7.958   0.818   8.460 -0.1768  0.8490 -2.2099
  385MOL0     H51910   8.097   0.789   8.166  0.4069  0.5697  1.2283
  385MOL0     H51911   8.139   0.775   8.334 -2.6518 -0.9041  1.9281
  385MOL0     H51912   8.235   0.626   8.097  2.8295  5.5398 -1.0357
  385MOL0     H51913   8.268   0.556   8.267 -1.3701  0.5763  2.3391
  385MOL0     H51914   8.402   0.741   8.310  0.5569  0.1703  0.3063
  385MOL0     H51915   8.348   0.826   8.165  1.8217 -0.0154  1.1686
  385MOL0     H51916   8.491   0.568   8.134 -3.7520 -1.0412 -3.5420
  385MOL0     H51917   8.448   0.675   8.011  1.1233  0.5440  0.3293
  385MOL0     H51918   8.698   0.703   8.057  1.5367  0.3103  0.5550
  385MOL0     H51919   8.611   0.848   8.080 -1.0829  0.0049  1.4766
  385MOL0     H51920   8.620   0.806   8.333  1.1430  2.7318 -0.9555
  385MOL0     H51921   8.666   0.644   8.305  2.1352 -0.7563 -0.5860
  385MOL0     H51922   8.829   0.902   8.254  0.9268  0.1193 -1.2802
  385MOL0     H51923   8.884   0.748   8.192 -2.4761  0.9267 -2.6647
  385MOL0     H51924   8.816   0.776   8.489  0.3747  0.1881  1.2036
  385MOL0     H51925   8.899   0.640   8.404 -2.7135 -0.3061  2.3618
  385MOL0     H51926   8.969   0.921   8.638 -0.1401 -0.4699  1.5200
  385MOL0     H51927   9.181   1.096   8.640  1.2016  1.0483 -0.7965
  385MOL0     H51928   9.270   0.959   8.715 -3.3342 -1.9816  1.3997
  385MOL0     H51929   9.379   1.112   8.475 -0.9295  0.5827 -0.1676
  385MOL0     H51930   9.433   1.147   8.624 -0.1090 -1.4018  2.6297
  385MOL0     H51931   9.475   0.872   8.512  0.4833 -1.8595  2.3318
  385MOL0     H51932   9.516   0.914   8.675  1.1848  3.9339  1.5251
  385MOL0     H51933   9.673   1.097   8.585 -3.3094  1.8449 -1.2669
  385MOL0     H51934   9.625   1.071   8.428 -0.8596  0.6513  0.4550
  385MOL0     H51935   9.843   1.142   8.447 -0.9681  0.4761  3.5956
  385MOL0     H51936  10.083   1.179   8.435  0.7235 -0.2689  0.3197
  385MOL0     H51937  10.482   1.281   8.609  1.8834  1.4834 -0.2932
  385MOL0     H51938  10.714   1.284   8.611 -0.1765 -0.1052  0.8016
  385MOL0     H51939  10.946   0.998   8.356 -1.2295 -0.3521 -1.5176
  385MOL0     H51940  10.946   1.151   8.273  0.3382  0.5105 -0.6426
  385MOL0     H51941  11.122   1.039   8.494  1.5875 -2.1521 -2.6511
  385MOL0     H51942  11.161   1.069   8.339 -1.8605 -2.7687  0.4423
  385MOL0     H51943  11.123   1.326   8.386  1.3560  1.5646  0.6272
  385MOL0     H51944  11.109   1.300   8.554 -1.4288  1.8941 -1.2987
  385MOL0     H51945  11.352   1.211   8.382  2.0623  2.3936  0.1634
  385MOL0     H51946  11.336   1.173   8.550 -1.8380  0.7575  0.8232
  385MOL0     H51947  11.309   1.429   8.591 -1.6256 -0.3005 -0.9345
  385MOL0     H51948  11.364   1.452   8.430  2.9906 -0.8139 -0.2233
  385MOL0     H51949  11.533   1.318   8.639 -1.8728  1.0664  1.5971
  385MOL0     H51950  11.564   1.344   8.455  0.1862 -1.0677  0.1352
  385MOL0     H51951  11.506   1.565   8.656  0.6503  0.7927 -0.3949
  385MOL0     H51952  11.559   1.584   8.485 -0.2825  1.2632  0.7462
  385MOL0     H51953  11.743   1.622   8.637 -1.0761  0.8847  0.7243
  385MOL0     H51954  11.716   1.467   8.711 -0.8337 -0.5880 -0.2761
  385MOL0     H51955  10.736   0.989   8.295  0.7570  0.4143 -0.1056
  385MOL0     H51956  10.501   0.999   8.285  0.7149 -0.4441  0.1445
  385MOL0     H51957  10.152   0.764   8.542  0.5998  0.9013  1.0206
  385MOL0     H51958   9.915   0.733   8.543 -1.7506 -0.1151 -0.8529
  385MOL0     H51959   7.792   0.558   8.175 -0.3084  1.3309 -0.8701
  385MOL0     H51960   7.565   0.634   8.238  0.6349  2.6755 -3.5208
  385MOL0     H51961   7.429   1.077   8.471  0.4217 -2.8759 -1.1296
  385MOL0     H51962   7.277   1.231   8.577 -0.4269  1.2448 -1.2863
  385MOL0     H51963   6.860   1.106   8.661 -1.0583 -0.5345 -1.7209
  385MOL0     H51964   6.836   1.166   8.499  0.7292 -0.5921 -0.1786
  385MOL0     H51965   6.864   1.371   8.715 -0.9032 -0.9225  1.7888
  385MOL0     H51966   6.709   1.284   8.692  0.2384  1.3637  0.7102
  385MOL0     H51967   6.842   1.403   8.448 -3.0562  2.2570 -3.2886
  385MOL0     H51968   6.753   1.503   8.571  1.8003  0.3124  0.4574
  385MOL0     H51969   6.628   1.257   8.456 -2.5172 -0.7144  1.1723
  385MOL0     H51970   6.552   1.391   8.541  1.3699  0.7618  0.5308
  385MOL0     H51971   6.552   1.529   8.143 -0.4220  0.7068  0.8091
  385MOL0     H51972   6.946   0.961   8.489  0.7361 -3.7457  0.4129
  385MOL0     H51973   7.118   0.685   8.467  2.3354  2.3952  1.6195
  385MOL0     H51974   6.961   0.764   8.433 -0.9416  0.1876 -0.3399
  385MOL0     H51975   7.072   0.755   8.303 -3.7955  1.5373 -0.1510
  386MOL0     O51976  11.221   0.720   7.214 -0.8601  0.7429 -0.0297
  386MOL0     C51977  11.173   0.608   7.199  0.0093  0.0979 -0.1488
  386MOL0     O51978  11.244   0.490   7.200  0.4575 -0.1281 -0.1197
  386MOL0     C51979  11.381   0.506   7.228  0.0101  0.0228  0.1269
  386MOL0     C51980  11.489   0.468   7.144 -0.1829 -0.6333  0.5673
  386MOL0     C51981  11.626   0.491   7.180 -0.1058 -0.2059 -0.3535
  386MOL0     C51982  11.659   0.534   7.307 -0.1798 -0.2885 -0.5907
  386MOL0     O51983  11.788   0.559   7.360  0.0133  0.1882  0.3039
  386MOL0     C51984  11.905   0.532   7.296  0.6514 -0.3492  0.2559
  386MOL0     C51985  11.940   0.667   7.231 -0.3187 -0.9846 -0.0691
  386MOL0     C51986  12.071   0.648   7.141 -0.0143  0.2213 -0.3883
  386MOL0     C51987  12.202   0.636   7.224 -0.8494 -0.4574  0.3966
  386MOL0     C51988  12.315   0.611   7.125 -0.0630  0.0293  0.2660
  386MOL0     C51989  12.453   0.611   7.193 -0.3396 -0.8949 -0.8709
  386MOL0     C51990  12.546   0.611   7.077 -0.0477 -0.3122 -0.5930
  386MOL0     C51991  12.683   0.668   7.109 -0.3480 -0.1359  0.6236
  386MOL0     N51992  12.744   0.598   7.223 -0.2632  0.3537  0.2797
  386MOL0     C51993  12.821   0.487   7.215 -0.7587  0.4435 -0.5605
  386MOL0     C51994  12.883   0.475   7.331 -1.0762 -0.4921  0.7871
  386MOL0     C51995  12.981   0.360   7.363 -0.7492 -0.4980 -0.6048
  386MOL0     C51996  12.914   0.221   7.341  0.2381 -0.3163 -0.7639
  386MOL0     C51997  12.996   0.121   7.427  1.1306  0.6261  0.7316
  386MOL0     C51998  12.979  -0.017   7.358  0.5490 -0.5869 -0.7009
  386MOL0     O51999  13.038  -0.117   7.444 -0.0294 -0.8625  0.1111
  386MOL0     C52000  13.178  -0.133   7.445  0.2218 -1.0617 -0.7994
  386MOL0     C52001  13.269  -0.076   7.352 -0.0742 -0.1204 -0.1619
  386MOL0     C52002  13.411  -0.076   7.369 -0.1750 -0.8726 -0.6008
  386MOL0     C52003  13.462  -0.171   7.464  0.8560 -0.1330  0.1080
  386MOL0     C52004  13.600  -0.202   7.465 -0.3763  0.4251  0.8340
  386MOL0     O52005  13.674  -0.139   7.373  0.8106  0.0995 -0.1168
  386MOL0     C52006  13.816  -0.153   7.377 -0.1543 -0.5597 -0.1305
  386MOL0     C52007  13.892  -0.043   7.414  0.0336 -0.0139  0.2651
  386MOL0     C52008  14.034  -0.039   7.417 -0.4293  1.0250  0.3508
  386MOL0     C52009  14.096  -0.154   7.392 -0.1166  0.0239 -0.9079
  386MOL0     O52010  14.233  -0.167   7.414  0.2014  0.0061 -0.6772
  386MOL0     C52011  14.306  -0.208   7.294  0.1212 -0.1967 -0.5693
  386MOL0     C52012  14.439  -0.270   7.311 -0.2937  0.4449 -0.0978
  386MOL0     C52013  14.453  -0.409   7.387 -0.1378  0.3363  0.2349
  386MOL0     C52014  14.600  -0.445   7.399  0.6971 -0.6370  0.0026
  386MOL0     C52015  14.614  -0.578   7.471  0.2446 -0.5549  0.4167
  386MOL0     C52016  14.763  -0.606   7.492 -0.1586 -0.9282  0.1610
  386MOL0     C52017  14.800  -0.529   7.616 -0.3782 -0.3663 -0.3552
  386MOL0     C52018  14.949  -0.492   7.634 -0.2656 -0.2653  0.5475
  386MOL0    Cl52019  15.051  -0.640   7.644 -0.2871  0.1442  0.1948
  386MOL0     C52020  14.023  -0.264   7.357  0.1729  0.6569  0.6254
  386MOL0     C52021  13.883  -0.264   7.332  0.0964  0.0143 -0.2151
  386MOL0     O52022  13.643  -0.280   7.556 -0.2921  0.0837  0.7262
  386MOL0     C52023  13.367  -0.233   7.551 -1.2597 -0.8322  0.3974
  386MOL0     C52024  13.231  -0.211   7.551  0.9099 -0.3435  0.1982
  386MOL0     N52025  12.843   0.584   7.408 -0.1115 -0.2070  0.6210
  386MOL0     N52026  12.762   0.657   7.341  0.8687 -0.3961  0.6802
  386MOL0     C52027  11.553   0.569   7.390  0.2675  0.6654 -0.2718
  386MOL0     C52028  11.418   0.544   7.351 -0.7286  0.0114 -0.1981
  386MOL0     C52029  11.031   0.586   7.180 -0.4354  0.0349 -0.5582
  386MOL0     C52030  10.995   0.492   7.082  0.2671 -0.6494 -0.0287
  386MOL0     C52031  10.860   0.480   7.044  0.1201 -0.2315 -1.5778
  386MOL0     C52032  10.765   0.563   7.101  0.3698  0.4641 -0.5153
  386MOL0     O52033  10.637   0.546   7.051 -0.3366  0.3180 -0.3315
  386MOL0     C52034  10.532   0.633   7.094  0.1379  0.1355  0.3692
  386MOL0     C52035  10.395   0.571   7.047  0.1746 -0.3753 -0.7522
  386MOL0     C52036  10.287   0.679   7.040 -0.1069  0.5072  0.2634
  386MOL0     C52037  10.142   0.622   7.031  0.1544 -0.1387  0.3316
  386MOL0     C52038  10.095   0.591   7.165 -0.5095  0.2089  0.1435
  386MOL0     C52039  10.038   0.553   7.262  0.2088 -1.1836 -0.1330
  386MOL0     C52040  10.790   0.646   7.205  0.0432  0.0960 -0.2494
  386MOL0     C52041  10.923   0.663   7.243 -0.9719 -0.5560 -0.1719
  386MOL0     C52042  10.946   0.757   7.363  0.6452  0.1880  0.2383
  386MOL0     H52043  11.472   0.424   7.046  2.4692 -0.4708 -0.0526
  386MOL0     H52044  11.705   0.483   7.107 -0.2949  0.5481 -0.6486
  386MOL0     H52045  11.989   0.508   7.362  1.2861  1.4554  0.1614
  386MOL0     H52046  11.890   0.465   7.212 -0.2122 -1.2905  1.1287
  386MOL0     H52047  11.954   0.752   7.299  1.5897  1.1110 -2.8747
  386MOL0     H52048  11.860   0.701   7.165 -1.5448 -2.9494  0.3367
  386MOL0     H52049  12.075   0.737   7.078 -1.5281  1.4115  1.1246
  386MOL0     H52050  12.059   0.556   7.081 -0.0505 -0.5069  0.7116
  386MOL0     H52051  12.219   0.722   7.289  2.1460  0.3184 -1.2208
  386MOL0     H52052  12.200   0.553   7.296  2.1008  0.8272  2.1594
  386MOL0     H52053  12.305   0.518   7.069 -4.3177  0.1794  0.4185
  386MOL0     H52054  12.311   0.699   7.060 -3.1855  3.9200  5.0045
  386MOL0     H52055  12.470   0.703   7.249 -0.4390 -0.3633 -1.6834
  386MOL0     H52056  12.472   0.527   7.260  0.9678 -0.3529 -0.5444
  386MOL0     H52057  12.507   0.670   6.993  0.6919  2.2737  0.7739
  386MOL0     H52058  12.552   0.503   7.060  3.0879 -0.8230  2.6296
  386MOL0     H52059  12.742   0.655   7.018 -2.4648 -1.8569 -0.6061
  386MOL0     H52060  12.677   0.776   7.127  0.5410  0.3384 -1.6137
  386MOL0     H52061  12.854   0.425   7.132  3.0878  2.0769 -0.4860
  386MOL0     H52062  13.071   0.375   7.304 -1.9180 -1.7383 -2.8317
  386MOL0     H52063  13.000   0.372   7.470 -0.0141  1.5861 -0.9292
  386MOL0     H52064  12.814   0.230   7.385  0.9913 -0.5943  1.0684
  386MOL0     H52065  12.917   0.201   7.233  0.0161  0.9922 -1.0302
  386MOL0     H52066  12.959   0.116   7.529  0.5695 -1.5690  0.4666
  386MOL0     H52067  13.100   0.154   7.430  0.3551  3.2315  1.0307
  386MOL0     H52068  13.031  -0.012   7.261  0.1270  3.0959 -0.8689
  386MOL0     H52069  12.872  -0.038   7.360  0.8193 -1.9962  0.6562
  386MOL0     H52070  13.238  -0.013   7.269  2.1438  3.2339  1.3095
  386MOL0     H52071  13.473  -0.006   7.315  1.0878 -1.9776 -0.6431
  386MOL0     H52072  13.844   0.050   7.444  2.2056  0.3435  3.0493
  386MOL0     H52073  14.084   0.052   7.451  1.5144 -0.1910  0.8831
  386MOL0     H52074  14.253  -0.288   7.242 -0.6374  0.9800 -1.6829
  386MOL0     H52075  14.311  -0.123   7.225 -0.4557  0.9938  0.8018
  386MOL0     H52076  14.493  -0.291   7.218  3.1617 -0.8543  2.0023
  386MOL0     H52077  14.488  -0.197   7.376  0.4044 -0.4940  0.4579
  386MOL0     H52078  14.404  -0.403   7.484  1.4375 -0.5289  1.1214
  386MOL0     H52079  14.400  -0.482   7.324 -1.5543  3.2792 -2.3041
  386MOL0     H52080  14.659  -0.367   7.448  2.3481 -0.8590 -1.5367
  386MOL0     H52081  14.639  -0.464   7.299  1.8941 -0.2435  0.3829
  386MOL0     H52082  14.588  -0.662   7.406  1.7227 -2.1880  1.8334
  386MOL0     H52083  14.556  -0.578   7.563  0.9818  1.6308  0.9427
  386MOL0     H52084  14.772  -0.715   7.498 -4.1029 -1.8861 -4.8623
  386MOL0     H52085  14.822  -0.570   7.407  1.1279 -1.7880  0.6622
  386MOL0     H52086  14.775  -0.587   7.705  0.4347 -1.1104 -0.6025
  386MOL0     H52087  14.747  -0.433   7.621 -1.7408 -1.1535  1.6804
  386MOL0     H52088  14.986  -0.431   7.551 -1.0616  1.6887  1.5550
  386MOL0     H52089  14.972  -0.431   7.722 -2.8554  0.8163  0.5921
  386MOL0     H52090  14.072  -0.357   7.331 -0.0877  1.4081 -3.0831
  386MOL0     H52091  13.808  -0.340   7.313  0.1013 -0.4178  1.3402
  386MOL0     H52092  13.400  -0.310   7.620 -3.0987 -1.0274  1.1269
  386MOL0     H52093  13.160  -0.262   7.616 -1.3433  0.3566 -1.5595
  386MOL0     H52094  11.568   0.620   7.485 -1.5590  1.1889 -0.2380
  386MOL0     H52095  11.333   0.563   7.417 -0.3115 -2.4890  1.1777
  386MOL0     H52096  11.083   0.459   7.027  0.3075 -0.7151  0.0758
  386MOL0     H52097  10.834   0.426   6.954  2.1274 -2.9267 -0.6685
  386MOL0     H52098  10.548   0.732   7.051  1.6395 -0.4137 -0.3925
  386MOL0     H52099  10.527   0.635   7.203 -0.1951 -0.9459  0.3851
  386MOL0     H52100  10.365   0.485   7.106  1.1655  0.3626  0.8946
  386MOL0     H52101  10.426   0.542   6.946 -0.3943 -1.7722 -0.5446
  386MOL0     H52102  10.309   0.738   6.951  2.2489  0.9750  1.0850
  386MOL0     H52103  10.293   0.747   7.126 -2.1458 -1.4034  2.0502
  386MOL0     H52104  10.074   0.692   6.982 -1.1966 -3.3523 -2.8336
  386MOL0     H52105  10.130   0.527   6.977 -1.4646  0.1749  0.1021
  386MOL0     H52106   9.985   0.491   7.332 -0.7536 -1.0657 -0.7216
  386MOL0     H52107  10.714   0.692   7.267 -0.4195  0.2657 -0.9314
  386MOL0     H52108  10.963   0.861   7.335 -0.6709  0.4706  0.4251
  386MOL0     H52109  10.865   0.748   7.435  2.4367  1.0709  2.4692
  386MOL0     H52110  11.038   0.735   7.418  0.9739 -0.3537 -0.5166
  387MOL0     O52111   0.922  10.649   1.510 -0.1996 -0.5140  0.5573
  387MOL0     C52112   0.823  10.627   1.434  0.0181 -0.2065 -0.0966
  387MOL0     O52113   0.828  10.643   1.309  0.1466  0.2326  0.4308
  387MOL0     C52114   0.923  10.735   1.256 -0.1020 -0.0130 -0.2937
  387MOL0     C52115   0.933  10.861   1.307  0.3557 -0.3055  0.1191
  387MOL0     C52116   1.041  10.939   1.273 -0.1437 -0.1468 -0.0664
  387MOL0     C52117   1.134  10.889   1.176  0.6884  0.6237  0.2256
  387MOL0     O52118   1.234  10.964   1.119  0.4414 -0.1582  0.0378
  387MOL0     C52119   1.261  11.092   1.176  0.9532  0.4250 -0.2078
  387MOL0     C52120   1.403  11.145   1.132  0.1569 -0.9826  0.4947
  387MOL0     C52121   1.510  11.080   1.219 -0.8887 -0.0923 -0.8836
  387MOL0     C52122   1.655  11.116   1.173  0.4593  0.2531  0.5993
  387MOL0     C52123   1.742  10.990   1.208 -0.0341  0.1258  0.2007
  387MOL0     C52124   1.882  11.025   1.170 -0.2420 -0.3455  0.5878
  387MOL0     C52125   1.979  10.912   1.187 -0.6016  0.0059 -0.7967
  387MOL0     C52126   2.116  10.976   1.157  0.5337 -0.3120  0.2218
  387MOL0     N52127   2.232  10.882   1.161 -0.5754 -0.6378  0.5967
  387MOL0     C52128   2.355  10.891   1.230  0.1265  0.2099 -0.1555
  387MOL0     C52129   2.431  10.778   1.209 -0.8178  0.2998  0.4919
  387MOL0     C52130   2.564  10.742   1.263  0.5325  0.4956 -0.5409
  387MOL0     C52131   2.668  10.743   1.154  0.4857  1.1496 -0.0245
  387MOL0     C52132   2.795  10.686   1.229 -0.2338 -0.5820 -0.5900
  387MOL0     C52133   2.907  10.709   1.133 -0.4443  0.6910  0.4586
  387MOL0     O52134   3.025  10.686   1.215  0.5882  0.3388 -0.1437
  387MOL0     C52135   3.139  10.666   1.154  0.7050  0.3723 -0.9114
  387MOL0     C52136   3.176  10.679   1.020  0.9475 -0.7207 -1.1197
  387MOL0     C52137   3.301  10.650   0.975 -0.1588  0.1000 -0.8002
  387MOL0     C52138   3.405  10.613   1.060  0.3344 -0.2948 -0.1917
  387MOL0     C52139   3.535  10.579   1.008  0.5790 -0.5126 -0.5397
  387MOL0     O52140   3.633  10.549   1.091 -0.5624  0.5886 -0.3350
  387MOL0     C52141   3.754  10.500   1.054 -0.2575  0.6616 -0.7893
  387MOL0     C52142   3.806  10.390   1.123 -0.3878 -0.4623  0.5578
  387MOL0     C52143   3.926  10.331   1.089  0.2138 -0.0388 -0.7241
  387MOL0     C52144   4.002  10.368   0.981 -0.2967 -0.2688 -0.5237
  387MOL0     O52145   4.098  10.286   0.925 -0.3769  0.0971  0.0048
  387MOL0     C52146   4.079  10.142   0.932 -0.5571  0.7342  0.1186
  387MOL0     C52147   4.180  10.077   0.844  0.5647 -0.2880 -0.4809
  387MOL0     C52148   4.312  10.098   0.910  0.2604  0.1673 -0.0815
  387MOL0     C52149   4.435  10.069   0.816 -0.3513  0.5052 -0.2214
  387MOL0     C52150   4.468   9.922   0.779 -0.1527 -0.4529  0.8276
  387MOL0     C52151   4.505   9.830   0.898  0.2454  0.4791 -0.3433
  387MOL0     C52152   4.638   9.860   0.959 -0.8147 -0.2142  0.7122
  387MOL0     C52153   4.645   9.812   1.103 -0.6124  0.1167 -0.1631
  387MOL0    Cl52154   4.545   9.909   1.204 -0.3545  0.5353 -0.0477
  387MOL0     C52155   3.960  10.490   0.916 -0.5764 -1.2023 -0.5839
  387MOL0     C52156   3.829  10.556   0.943 -0.0465 -0.1849 -0.4128
  387MOL0     O52157   3.550  10.601   0.890 -0.1263  0.1651 -0.0773
  387MOL0     C52158   3.378  10.602   1.194  0.3621  0.2916 -0.1374
  387MOL0     C52159   3.248  10.636   1.241 -0.2328 -0.0314  0.0096
  387MOL0     N52160   2.351  10.704   1.119 -0.4342  0.1728  0.0122
  387MOL0     N52161   2.229  10.761   1.105 -0.1887 -0.2155  0.4098
  387MOL0     C52162   1.131  10.757   1.136 -0.2674  0.3959  0.2552
  387MOL0     C52163   1.024  10.675   1.175  0.1917 -0.1490 -0.0356
  387MOL0     C52164   0.688  10.583   1.483  0.0242 -0.9641 -0.2232
  387MOL0     C52165   0.658  10.580   1.619 -0.0827 -0.7852 -0.4741
  387MOL0     C52166   0.531  10.553   1.668  0.2182  0.9393  0.5037
  387MOL0     C52167   0.424  10.528   1.579  0.6135 -0.3148 -0.9397
  387MOL0     O52168   0.298  10.495   1.625 -0.1190  0.4888 -0.0004
  387MOL0     C52169   0.282  10.471   1.770 -0.6033 -0.0521 -0.1206
  387MOL0     C52170   0.142  10.439   1.816 -0.0115  0.3769  0.7545
  387MOL0     C52171   0.095  10.294   1.762 -0.5647 -0.6272  1.3454
  387MOL0     C52172  -0.062  10.291   1.751 -0.5555  0.1297 -0.0885
  387MOL0     C52173  -0.118  10.381   1.656 -0.1924 -0.4984  0.1141
  387MOL0     C52174  -0.145  10.477   1.583  0.6067  0.6121 -0.2725
  387MOL0     C52175   0.456  10.529   1.450  0.0297 -0.6331  0.2837
  387MOL0     C52176   0.583  10.552   1.399  0.3449  0.7936  0.4283
  387MOL0     C52177   0.592  10.527   1.254 -0.6470 -0.7077  0.3878
  387MOL0     H52178   0.861  10.896   1.380  1.7231  2.3278  0.3399
  387MOL0     H52179   1.052  11.036   1.319  1.0972 -0.5023  0.4345
  387MOL0     H52180   1.173  11.154   1.152 -0.4368 -1.4492 -0.1815
  387MOL0     H52181   1.264  11.086   1.285  0.9326  2.3343 -0.0588
  387MOL0     H52182   1.398  11.255   1.133 -1.5758 -0.9886  3.3137
  387MOL0     H52183   1.413  11.115   1.028  0.2006  1.9045 -0.4247
  387MOL0     H52184   1.505  10.971   1.221  3.4806 -0.4609  1.2928
  387MOL0     H52185   1.492  11.114   1.322 -3.2231  3.8133 -2.3691
  387MOL0     H52186   1.656  11.138   1.066 -1.6431 -2.2770 -0.0202
  387MOL0     H52187   1.690  11.203   1.230 -0.5887  1.2126 -0.1727
  387MOL0     H52188   1.729  10.965   1.314  0.0595 -1.2395 -0.0850
  387MOL0     H52189   1.703  10.906   1.149 -3.0156  1.7241 -0.2681
  387MOL0     H52190   1.880  11.054   1.065  1.4396  0.4956  0.7538
  387MOL0     H52191   1.910  11.107   1.237  0.2371  0.4033 -0.4984
  387MOL0     H52192   1.950  10.837   1.112  3.7069 -2.1415 -0.5686
  387MOL0     H52193   1.986  10.867   1.286 -1.2059 -1.4841 -1.3976
  387MOL0     H52194   2.113  11.029   1.062  1.8275 -1.4401 -0.4901
  387MOL0     H52195   2.136  11.050   1.234 -1.8414  0.7676 -0.0999
  387MOL0     H52196   2.382  10.977   1.291  2.4173 -0.6785  0.1678
  387MOL0     H52197   2.592  10.820   1.335 -0.9594 -1.3184  2.1821
  387MOL0     H52198   2.564  10.651   1.323 -1.5405  2.7532  3.2724
  387MOL0     H52199   2.634  10.665   1.085 -1.9449  2.0948  0.0202
  387MOL0     H52200   2.680  10.842   1.109  2.3665  1.0857  0.2650
  387MOL0     H52201   2.783  10.583   1.265 -1.0220 -0.7380 -1.2681
  387MOL0     H52202   2.806  10.740   1.323 -1.4908 -1.2892 -0.0101
  387MOL0     H52203   2.904  10.812   1.096 -0.5370  0.3236 -0.5849
  387MOL0     H52204   2.905  10.642   1.046 -1.9308  1.9939 -0.5808
  387MOL0     H52205   3.101  10.705   0.946 -0.9688  2.6259  1.6605
  387MOL0     H52206   3.330  10.657   0.870  1.9910 -0.5665 -0.2926
  387MOL0     H52207   3.750  10.340   1.201 -0.6463 -0.6998  0.2246
  387MOL0     H52208   3.954  10.248   1.154 -0.4160  1.4123  1.5102
  387MOL0     H52209   4.112  10.105   1.030  0.3804  1.0071 -0.0852
  387MOL0     H52210   3.974  10.116   0.915 -1.3038  1.9101  2.4436
  387MOL0     H52211   4.154   9.973   0.823 -1.6884  0.5098 -2.0321
  387MOL0     H52212   4.182  10.117   0.742 -1.2038 -3.1611 -1.7827
  387MOL0     H52213   4.323  10.198   0.951  3.5971  1.1431 -2.9073
  387MOL0     H52214   4.331  10.016   0.980  1.9625  0.5243 -0.0888
  387MOL0     H52215   4.523  10.099   0.874 -0.5200 -1.9559  1.5077
  387MOL0     H52216   4.443  10.129   0.726  3.7460 -1.1147 -1.1775
  387MOL0     H52217   4.554   9.932   0.713 -0.8082  0.8687  0.1310
  387MOL0     H52218   4.381   9.893   0.720  0.9214  2.1235 -2.3205
  387MOL0     H52219   4.435   9.824   0.982  2.0748 -2.9540  1.1556
  387MOL0     H52220   4.504   9.734   0.845  0.9268  1.0670 -1.4754
  387MOL0     H52221   4.643   9.969   0.959 -1.6449 -0.1410 -1.3135
  387MOL0     H52222   4.721   9.810   0.908 -0.4293  0.2086  0.9123
  387MOL0     H52223   4.613   9.708   1.099 -2.9474  0.7854 -0.6943
  387MOL0     H52224   4.750   9.821   1.133 -0.5145 -2.6788  0.5748
  387MOL0     H52225   4.018  10.533   0.834  0.3971 -1.5434 -0.0890
  387MOL0     H52226   3.775  10.624   0.878  1.3442  0.4097 -0.9939
  387MOL0     H52227   3.444  10.573   1.274 -0.4217  1.3027  0.9106
  387MOL0     H52228   3.219  10.642   1.345 -0.9892  1.8909 -0.2846
  387MOL0     H52229   1.203  10.713   1.068  0.6911  0.7509  1.0154
  387MOL0     H52230   1.020  10.568   1.153  1.7570 -0.0149 -1.1771
  387MOL0     H52231   0.745  10.600   1.681  0.1091  0.6112 -1.1593
  387MOL0     H52232   0.525  10.546   1.776  1.1490 -1.4048  0.4574
  387MOL0     H52233   0.313  10.558   1.829  2.2085 -0.4333 -0.8801
  387MOL0     H52234   0.340  10.384   1.801 -3.9898 -2.8132 -0.9409
  387MOL0     H52235   0.074  10.517   1.781 -1.2130 -0.6792  0.6897
  387MOL0     H52236   0.137  10.437   1.925 -1.5936 -0.6476  0.6946
  387MOL0     H52237   0.136  10.213   1.821  1.6075  0.1758  1.0261
  387MOL0     H52238   0.145  10.283   1.665  1.5404  0.8346  2.1880
  387MOL0     H52239  -0.098  10.194   1.715 -1.1949  0.3586 -0.0695
  387MOL0     H52240  -0.098  10.319   1.851  1.6996 -0.8885  1.1142
  387MOL0     H52241  -0.167  10.575   1.545 -2.4841  1.5474  3.2960
  387MOL0     H52242   0.379  10.495   1.381 -0.4359  0.5584  0.1765
  387MOL0     H52243   0.619  10.614   1.193  0.3231 -0.8767  0.5534
  387MOL0     H52244   0.677  10.459   1.242  1.3100  1.0551  2.9465
  387MOL0     H52245   0.506  10.477   1.210 -0.8231 -0.4932  0.4862
  388MOL0     O52246   1.178   1.431  10.633  0.4445  0.4248 -0.0110
  388MOL0     C52247   1.140   1.551  10.638  0.6648 -0.3439  0.1895
  388MOL0     O52248   1.201   1.658  10.582 -0.1958  0.4972  0.1464
  388MOL0     C52249   1.319   1.639  10.516  0.3142 -0.0641  0.2216
  388MOL0     C52250   1.423   1.729  10.533 -0.3270 -0.1857 -0.6446
  388MOL0     C52251   1.561   1.704  10.498  0.5784  0.2664 -0.1141
  388MOL0     C52252   1.590   1.592  10.422 -0.1098  0.8389 -0.5403
  388MOL0     O52253   1.723   1.579  10.394 -0.1880  0.4562 -0.4862
  388MOL0     C52254   1.762   1.450  10.345  0.2188 -0.0557 -0.3310
  388MOL0     C52255   1.911   1.423  10.347 -0.3948 -0.7225  0.8596
  388MOL0     C52256   1.979   1.503  10.238  0.4808  0.3822  0.6902
  388MOL0     C52257   2.129   1.478  10.243  0.1258  0.1662  1.1023
  388MOL0     C52258   2.197   1.590  10.157 -0.5144 -0.2887  0.4346
  388MOL0     C52259   2.345   1.578  10.170 -0.3631 -0.1010  0.6555
  388MOL0     C52260   2.431   1.704  10.151  0.7552  0.2005  0.0819
  388MOL0     C52261   2.577   1.683  10.198 -0.0641  0.3432 -0.3728
  388MOL0     N52262   2.640   1.578  10.119 -1.1560  0.4751 -1.4152
  388MOL0     C52263   2.678   1.576   9.990  0.0686  0.0818 -0.0634
  388MOL0     C52264   2.744   1.454   9.980  0.1687 -0.8009  0.5827
  388MOL0     C52265   2.829   1.417   9.862 -0.3585 -0.1326  0.3543
  388MOL0     C52266   2.754   1.328   9.763 -0.4496  0.6471 -0.6851
  388MOL0     C52267   2.668   1.205   9.809 -0.2882 -0.3117  0.3060
  388MOL0     C52268   2.534   1.229   9.866 -0.5088  0.2851 -0.8475
  388MOL0     O52269   2.466   1.108   9.892 -0.2364  0.8381 -0.1236
  388MOL0     C52270   2.335   1.093   9.925  0.0065 -0.4239 -0.3423
  388MOL0     C52271   2.281   0.972   9.953 -0.2590 -0.2335 -0.1794
  388MOL0     C52272   2.150   0.955  10.007 -0.1729  0.1695  0.3868
  388MOL0     C52273   2.071   1.069  10.023  0.0477 -0.7469  0.2360
  388MOL0     C52274   1.940   1.057  10.095  0.7512 -1.1943 -0.2221
  388MOL0     O52275   1.879   1.173  10.111  0.2812  0.1961  0.0509
  388MOL0     C52276   1.754   1.165  10.151  1.3478  0.7075 -0.8737
  388MOL0     C52277   1.717   1.122  10.276  0.3815  1.0596 -0.2389
  388MOL0     C52278   1.584   1.106  10.313 -1.6694  0.6009  0.5812
  388MOL0     C52279   1.481   1.142  10.225  0.0907 -0.1377  0.6005
  388MOL0     O52280   1.348   1.137  10.257  1.3434  0.3437  0.5739
  388MOL0     C52281   1.310   1.129  10.397  0.1299 -0.3044  0.9990
  388MOL0     C52282   1.166   1.134  10.422  1.3522  0.3278 -0.4594
  388MOL0     C52283   1.092   1.007  10.378  0.1712 -0.6043  0.5054
  388MOL0     C52284   0.943   1.027  10.414 -0.0054  0.6404 -0.3564
  388MOL0     C52285   0.868   0.891  10.399 -0.9942  0.7167  0.3262
  388MOL0     C52286   0.720   0.922  10.443 -1.1561 -0.4808 -0.9229
  388MOL0     C52287   0.634   0.803  10.425  0.0377  0.6292 -0.1200
  388MOL0     C52288   0.492   0.798  10.487 -0.5941 -0.5962  0.8408
  388MOL0    Cl52289   0.400   0.646  10.448 -0.2404  0.1116 -0.2314
  388MOL0     C52290   1.519   1.184  10.096 -0.3564 -1.0783  0.6875
  388MOL0     C52291   1.658   1.193  10.065 -0.2630 -1.0292 -0.2440
  388MOL0     O52292   1.899   0.946  10.119 -0.3190 -0.6660 -1.1417
  388MOL0     C52293   2.122   1.191   9.986 -1.2240  0.2190 -0.4870
  388MOL0     C52294   2.252   1.209   9.936  0.5904 -0.5430 -0.0704
  388MOL0     N52295   2.736   1.383  10.097 -0.2487  0.2059  0.8442
  388MOL0     N52296   2.675   1.461  10.184 -0.2341 -0.1929  0.3889
  388MOL0     C52297   1.483   1.516  10.374  0.6645  0.5418  0.6755
  388MOL0     C52298   1.352   1.533  10.428  0.4632  0.6889  0.3064
  388MOL0     C52299   1.039   1.589  10.738 -0.3689  0.6666  0.0252
  388MOL0     C52300   1.082   1.676  10.838  0.2353  0.3127  0.1998
  388MOL0     C52301   0.990   1.728  10.924  0.5737  0.4123 -0.0154
  388MOL0     C52302   0.848   1.699  10.918 -0.7070 -0.5419 -0.2669
  388MOL0     O52303   0.749   1.756  10.995  0.5913 -0.7692 -0.0587
  388MOL0     C52304   0.761   1.894  11.025  0.0049 -0.4389  0.5193
  388MOL0     C52305   0.625   1.947  11.070 -0.5350  0.2134 -0.0807
  388MOL0     C52306   0.523   1.928  10.956  1.0533 -0.3820  0.0183
  388MOL0     C52307   0.377   1.972  10.998  0.6290  0.4626  0.0135
  388MOL0     C52308   0.287   1.860  11.006  0.5364 -0.1093  0.0596
  388MOL0     C52309   0.207   1.776  10.983 -1.2769 -0.5803  0.6069
  388MOL0     C52310   0.809   1.605  10.818 -0.0567  0.0890 -0.6014
  388MOL0     C52311   0.905   1.542  10.729  0.4987  0.2518 -1.0269
  388MOL0     C52312   0.856   1.439  10.637 -0.4931  0.0746 -1.0188
  388MOL0     H52313   1.399   1.814  10.597  1.6358  1.3375 -1.8267
  388MOL0     H52314   1.640   1.777  10.515 -0.8881  2.2909 -1.5203
  388MOL0     H52315   1.709   1.364  10.387 -1.8827  1.7705  0.9792
  388MOL0     H52316   1.735   1.445  10.239 -1.3947 -3.0829  0.1188
  388MOL0     H52317   1.928   1.316  10.333 -2.8250 -1.1548  0.6219
  388MOL0     H52318   1.952   1.451  10.444  0.0929  0.0512  0.4405
  388MOL0     H52319   1.939   1.603  10.255 -3.7429 -0.9196 -0.3042
  388MOL0     H52320   1.947   1.477  10.136  0.2691 -0.6800  1.0123
  388MOL0     H52321   2.172   1.462  10.342  0.5796  1.3949  1.1180
  388MOL0     H52322   2.153   1.379  10.203 -1.2872 -0.4369  1.6834
  388MOL0     H52323   2.166   1.576  10.053  3.4975  2.2081 -1.3262
  388MOL0     H52324   2.167   1.690  10.188  2.2784  1.4196 -1.8430
  388MOL0     H52325   2.360   1.547  10.274  0.5841  0.9663  0.8625
  388MOL0     H52326   2.382   1.498  10.105  0.5931  0.1043  0.9363
  388MOL0     H52327   2.396   1.779  10.222  4.9363  0.8620  1.7302
  388MOL0     H52328   2.425   1.743  10.050 -3.7316 -0.9697 -0.2972
  388MOL0     H52329   2.631   1.777  10.190 -0.9729  0.8981 -0.1403
  388MOL0     H52330   2.565   1.657  10.303 -3.2802 -0.8260 -0.8975
  388MOL0     H52331   2.672   1.660   9.921 -0.5613 -1.0676 -1.4832
  388MOL0     H52332   2.848   1.503   9.797  0.3931  0.6608  1.6058
  388MOL0     H52333   2.927   1.376   9.889 -0.8154 -1.1833  0.4635
  388MOL0     H52334   2.688   1.389   9.701  0.6536  1.1635 -1.3789
  388MOL0     H52335   2.840   1.286   9.711  0.2537  0.7542  0.3597
  388MOL0     H52336   2.729   1.147   9.880  0.7581  2.4339  1.8141
  388MOL0     H52337   2.665   1.143   9.719 -1.0262  1.1889 -0.7356
  388MOL0     H52338   2.484   1.294   9.794 -3.7670  2.0391  2.6565
  388MOL0     H52339   2.529   1.284   9.960 -1.5098 -1.3192  0.0800
  388MOL0     H52340   2.346   0.886   9.941  2.5986  1.6790  0.7882
  388MOL0     H52341   2.116   0.858  10.043 -0.4346  0.2017  0.2240
  388MOL0     H52342   1.800   1.097  10.341  2.3487  0.8943 -2.6529
  388MOL0     H52343   1.573   1.062  10.411 -0.2937  1.6041  1.2196
  388MOL0     H52344   1.346   1.032  10.431 -0.7123 -1.8474 -2.1315
  388MOL0     H52345   1.366   1.205  10.452  0.0335  0.6158 -0.1378
  388MOL0     H52346   1.143   1.158  10.526 -2.0595 -2.0033 -0.5133
  388MOL0     H52347   1.126   1.211  10.356  0.0191  0.0741  0.0317
  388MOL0     H52348   1.102   1.007  10.269 -1.7453  0.3400  0.2865
  388MOL0     H52349   1.141   0.917  10.416 -0.7425 -0.5517  1.8782
  388MOL0     H52350   0.905   1.107  10.351 -1.8120  0.6397  0.6395
  388MOL0     H52351   0.933   1.059  10.519 -0.6675  0.0117 -0.2178
  388MOL0     H52352   0.909   0.819  10.470 -2.7502  0.0143  0.6670
  388MOL0     H52353   0.886   0.846  10.302  3.6553  0.2990  1.1596
  388MOL0     H52354   0.704   0.943  10.549  0.4207 -3.4028  0.0009
  388MOL0     H52355   0.681   1.014  10.397 -4.8448 -1.4163  0.0560
  388MOL0     H52356   0.685   0.719  10.473 -3.5375 -3.9370 -3.4569
  388MOL0     H52357   0.630   0.779  10.319 -0.2285  4.0027 -0.9956
  388MOL0     H52358   0.493   0.819  10.594  2.8655  4.0096  0.2149
  388MOL0     H52359   0.436   0.881  10.443 -0.7021 -0.3993  1.3545
  388MOL0     H52360   1.440   1.203  10.025 -2.1762  0.6525  2.9853
  388MOL0     H52361   1.679   1.225   9.963 -2.5703  2.3432  0.1896
  388MOL0     H52362   2.059   1.277  10.005  1.2693  2.4594 -1.5633
  388MOL0     H52363   2.279   1.310   9.906 -0.4878  0.1266  1.1178
  388MOL0     H52364   1.488   1.434  10.302 -2.7475 -2.6172  3.6121
  388MOL0     H52365   1.269   1.466  10.408  0.8323 -0.1054  1.3088
  388MOL0     H52366   1.185   1.702  10.859  0.8717 -0.4456 -1.7630
  388MOL0     H52367   1.032   1.778  11.011 -2.6983 -0.5968  2.3588
  388MOL0     H52368   0.789   1.955  10.938 -1.2636  0.4264  0.6888
  388MOL0     H52369   0.835   1.922  11.101  1.0238  1.1503 -0.9743
  388MOL0     H52370   0.644   2.050  11.101  1.2962  0.1823 -0.9731
  388MOL0     H52371   0.590   1.893  11.158 -1.0458  0.3409 -0.1999
  388MOL0     H52372   0.520   1.821  10.934 -1.3894 -0.4268  0.3637
  388MOL0     H52373   0.544   1.994  10.871 -0.2931  2.7792  1.9612
  388MOL0     H52374   0.372   2.035  11.087  2.5269  1.3859 -0.4731
  388MOL0     H52375   0.332   2.022  10.911 -0.6113 -1.3105 -0.4295
  388MOL0     H52376   0.124   1.709  10.982 -1.8656 -0.0591  3.7541
  388MOL0     H52377   0.704   1.586  10.796  0.4345  0.1083 -3.2852
  388MOL0     H52378   0.843   1.347  10.696  0.5189  0.3364 -0.3510
  388MOL0     H52379   0.762   1.481  10.602 -1.5235 -0.8385  0.5309
  388MOL0     H52380   0.930   1.422  10.559 -3.3744 -2.2448 -3.4944
  389MOL0     O52381   6.515   0.055  10.732  0.0503 -0.3307  0.5727
  389MOL0     C52382   6.416   0.057  10.654 -0.5843  0.0363  0.2315
  389MOL0     O52383   6.394   0.160  10.575 -0.0213 -0.2810  1.5341
  389MOL0     C52384   6.491   0.258  10.570  0.9996 -0.0357  0.6045
  389MOL0     C52385   6.513   0.354  10.672  0.9006 -0.3394 -0.1342
  389MOL0     C52386   6.615   0.446  10.667  0.1033  0.5013 -0.0026
  389MOL0     C52387   6.713   0.438  10.567  0.7286  0.5641  0.3443
  389MOL0     O52388   6.828   0.507  10.581  0.0664  0.3971 -0.2923
  389MOL0     C52389   6.807   0.648  10.597  0.4958 -0.4274 -0.2218
  389MOL0     C52390   6.839   0.737  10.481  0.9383 -0.3670  0.6541
  389MOL0     C52391   6.987   0.745  10.449  0.1953 -0.0456 -0.4227
  389MOL0     C52392   7.042   0.864  10.374  0.3083  0.6836  0.4999
  389MOL0     C52393   7.197   0.861  10.381  0.1236  0.1537  0.1940
  389MOL0     C52394   7.244   0.979  10.300 -0.2487  0.2777  0.5863
  389MOL0     C52395   7.390   0.984  10.281 -0.7329 -0.1454  0.3287
  389MOL0     C52396   7.425   1.055  10.155  0.6836  0.8233 -0.1801
  389MOL0     N52397   7.568   1.092  10.152 -0.7431 -0.6563 -0.5788
  389MOL0     C52398   7.624   1.212  10.216  0.1575  0.3410  0.0082
  389MOL0     C52399   7.755   1.208  10.185 -0.0120  0.1772 -0.1220
  389MOL0     C52400   7.860   1.310  10.236  0.1510  0.5452  0.4415
  389MOL0     C52401   8.015   1.286  10.190  0.6278  0.7117  0.0397
  389MOL0     C52402   8.100   1.381  10.264 -0.6172  0.6513 -0.4143
  389MOL0     C52403   8.240   1.377  10.211  0.9126 -0.8226 -0.4435
  389MOL0     O52404   8.304   1.258  10.260  0.4241 -0.0328 -0.0120
  389MOL0     C52405   8.434   1.239  10.226  0.4928 -0.4510  0.5916
  389MOL0     C52406   8.503   1.321  10.135 -0.0063  0.3312  0.5657
  389MOL0     C52407   8.629   1.277  10.091  0.3563  0.6763  0.0626
  389MOL0     C52408   8.699   1.171  10.154  0.3720 -0.3414  0.2469
  389MOL0     C52409   8.836   1.143  10.132  0.6541  0.0194  0.6003
  389MOL0     O52410   8.896   1.216  10.041 -0.1201 -0.0351  0.0269
  389MOL0     C52411   9.032   1.187  10.026 -0.3675 -0.4233 -0.9350
  389MOL0     C52412   9.123   1.271  10.078 -0.3511  0.1810 -0.0153
  389MOL0     C52413   9.261   1.261  10.047 -0.9866 -0.5814 -0.7835
  389MOL0     C52414   9.306   1.168   9.955  0.8698  0.5567  0.4254
  389MOL0     O52415   9.435   1.165   9.903 -0.5921  0.6628 -0.3064
  389MOL0     C52416   9.542   1.211   9.995 -0.5837  0.3988 -0.3179
  389MOL0     C52417   9.679   1.162   9.941 -0.4700  0.2098 -0.9255
  389MOL0     C52418   9.794   1.205  10.029 -0.2429 -0.3970 -0.7185
  389MOL0     C52419   9.930   1.174   9.970 -0.7266 -1.0798 -0.2259
  389MOL0     C52420  10.053   1.240  10.052 -0.1383  1.0632  0.2934
  389MOL0     C52421  10.176   1.265   9.961 -0.2053 -0.2942 -0.5055
  389MOL0     C52422  10.223   1.146   9.870 -0.4415  1.0163 -1.2775
  389MOL0     C52423  10.353   1.193   9.797 -0.6544  0.5515 -0.1209
  389MOL0    Cl52424  10.324   1.328   9.680 -0.0551 -0.3281  0.3412
  389MOL0     C52425   9.208   1.097   9.889  0.1917  0.6501 -0.4216
  389MOL0     C52426   9.074   1.098   9.923 -0.5764  0.1177  0.3739
  389MOL0     O52427   8.885   1.052  10.193 -0.3614 -0.8284 -0.2537
  389MOL0     C52428   8.627   1.104  10.254 -0.1890  0.5174  0.1160
  389MOL0     C52429   8.498   1.134  10.287 -0.8870  1.7252 -0.2246
  389MOL0     N52430   7.775   1.103  10.099 -0.1225 -0.3161  0.4230
  389MOL0     N52431   7.668   1.032  10.083  0.0652  0.0569 -0.0302
  389MOL0     C52432   6.685   0.356  10.457 -0.2133 -0.4443 -0.2559
  389MOL0     C52433   6.578   0.263  10.458 -0.0394  0.2294 -0.2101
  389MOL0     C52434   6.334  -0.063  10.650  0.1495 -0.7295  0.0369
  389MOL0     C52435   6.272  -0.082  10.528  0.5643 -0.5381 -0.7003
  389MOL0     C52436   6.206  -0.201  10.504 -0.4071  1.2814 -0.4210
  389MOL0     C52437   6.204  -0.307  10.599 -0.4007 -0.5159 -0.0035
  389MOL0     O52438   6.161  -0.430  10.556 -0.5913 -0.3203  0.5962
  389MOL0     C52439   6.090  -0.504  10.654  0.4251 -0.1476  0.0403
  389MOL0     C52440   5.946  -0.462  10.645 -0.0908  0.3711 -0.7552
  389MOL0     C52441   5.878  -0.502  10.513 -0.3105 -0.2922 -0.8314
  389MOL0     C52442   5.756  -0.420  10.478  0.0888  0.4661  0.2995
  389MOL0     C52443   5.779  -0.277  10.431 -0.2918  0.5899 -0.4278
  389MOL0     C52444   5.806  -0.164  10.406 -0.5854 -1.0136 -0.4810
  389MOL0     C52445   6.259  -0.276  10.729 -0.3161 -0.5143  0.8906
  389MOL0     C52446   6.324  -0.160  10.751 -0.2716 -0.6058  0.5134
  389MOL0     C52447   6.387  -0.150  10.890 -0.7185  0.3134 -0.5262
  389MOL0     H52448   6.452   0.346  10.762 -0.7995 -1.9895 -1.3458
  389MOL0     H52449   6.614   0.517  10.750 -2.0786 -0.1911  0.6352
  389MOL0     H52450   6.700   0.669  10.609  0.2740 -1.9146  0.7036
  389MOL0     H52451   6.859   0.675  10.689 -0.0083  3.1222 -0.8357
  389MOL0     H52452   6.802   0.838  10.501  1.6470 -0.4219  2.4310
  389MOL0     H52453   6.783   0.701  10.394  0.7360 -3.9456  2.0897
  389MOL0     H52454   7.020   0.657  10.393  1.5923  2.2574 -3.5470
  389MOL0     H52455   7.034   0.740  10.548 -1.4769 -1.1483  0.3565
  389MOL0     H52456   6.996   0.856  10.276 -2.4991  1.6998  1.6206
  389MOL0     H52457   7.011   0.964  10.407  4.6679  2.8910 -1.3334
  389MOL0     H52458   7.241   0.860  10.481  2.4216  0.5115 -0.7510
  389MOL0     H52459   7.223   0.771  10.324  0.5567  0.9865 -0.9584
  389MOL0     H52460   7.198   0.972  10.201 -0.3844  0.1883  0.6566
  389MOL0     H52461   7.228   1.074  10.352 -1.4150  0.2749  0.2532
  389MOL0     H52462   7.425   0.881  10.274  1.5475  0.6699 -2.8974
  389MOL0     H52463   7.442   1.029  10.366  1.9737 -0.8629 -0.8231
  389MOL0     H52464   7.404   0.987  10.072 -2.1039  0.1049  1.0019
  389MOL0     H52465   7.356   1.137  10.135 -1.0315 -0.1751  1.3518
  389MOL0     H52466   7.572   1.284  10.278 -0.7418  0.5121 -0.9138
  389MOL0     H52467   7.831   1.408  10.197  3.1315  0.4436 -2.4049
  389MOL0     H52468   7.852   1.304  10.345  2.4351 -0.1058  0.6203
  389MOL0     H52469   8.033   1.181  10.214 -0.6407  0.6498  0.8143
  389MOL0     H52470   8.024   1.304  10.082  1.1733  1.3252  0.1787
  389MOL0     H52471   8.102   1.367  10.372  0.2029 -0.6728 -0.5835
  389MOL0     H52472   8.064   1.478  10.228 -0.6740  0.3068 -1.3107
  389MOL0     H52473   8.286   1.468  10.251 -1.5778 -0.0547  0.8953
  389MOL0     H52474   8.242   1.387  10.102 -0.0403  0.1752 -0.3955
  389MOL0     H52475   8.463   1.409  10.087 -0.1936 -0.9770 -1.8034
  389MOL0     H52476   8.682   1.339  10.019  1.4598  2.3504  2.2162
  389MOL0     H52477   9.086   1.362  10.125  0.6806  0.5539  0.1110
  389MOL0     H52478   9.336   1.329  10.086 -2.9205  0.4621  1.3407
  389MOL0     H52479   9.535   1.319  10.006  3.4395  0.7395  0.3608
  389MOL0     H52480   9.542   1.167  10.095 -0.7676  1.5142  0.1895
  389MOL0     H52481   9.689   1.054   9.926 -1.4887  0.2481 -1.9685
  389MOL0     H52482   9.688   1.203   9.840  0.5276  0.2396 -0.8356
  389MOL0     H52483   9.783   1.313  10.045  0.2272 -0.1605 -1.8663
  389MOL0     H52484   9.779   1.158  10.126 -0.0331  0.1452 -0.4177
  389MOL0     H52485   9.933   1.207   9.865  0.4355  2.3553  0.7446
  389MOL0     H52486   9.946   1.066   9.977  1.6075 -0.6590  3.8741
  389MOL0     H52487  10.076   1.178  10.139 -1.2819  0.2941  0.0779
  389MOL0     H52488  10.010   1.334  10.089 -2.1964  0.5311 -0.6093
  389MOL0     H52489  10.149   1.343   9.890 -3.4895 -0.5234  0.3291
  389MOL0     H52490  10.252   1.280  10.039 -2.3801 -0.4514  1.7764
  389MOL0     H52491  10.149   1.122   9.794  1.7094 -2.6128 -2.4926
  389MOL0     H52492  10.240   1.056   9.928 -0.1663  1.4869 -0.6134
  389MOL0     H52493  10.434   1.229   9.862  0.4263  0.0774 -1.1799
  389MOL0     H52494  10.402   1.113   9.742  2.0720 -0.8875  3.9322
  389MOL0     H52495   9.244   1.032   9.810  1.1755  1.8447 -0.9934
  389MOL0     H52496   9.000   1.039   9.871 -2.2135  1.9394  0.5286
  389MOL0     H52497   8.666   1.011  10.296 -2.7794  0.5476  2.9792
  389MOL0     H52498   8.445   1.062  10.349  0.8076  1.0545  0.5235
  389MOL0     H52499   6.750   0.370  10.371  0.4610  2.4096  0.6137
  389MOL0     H52500   6.565   0.197  10.373  2.8598  0.7661 -1.1915
  389MOL0     H52501   6.263  -0.007  10.451  0.1184  1.6320  1.3595
  389MOL0     H52502   6.153  -0.232  10.415 -0.8451  0.2901  0.1633
  389MOL0     H52503   6.128  -0.504  10.757 -1.2465 -4.2196  0.8449
  389MOL0     H52504   6.091  -0.608  10.619 -1.7351  1.0502 -4.2044
  389MOL0     H52505   5.940  -0.354  10.660  0.8179  0.2030  1.1101
  389MOL0     H52506   5.890  -0.497  10.732 -0.2387  1.7948 -0.2490
  389MOL0     H52507   5.849  -0.607  10.527 -0.8503 -0.2297 -1.4495
  389MOL0     H52508   5.952  -0.477  10.437 -0.9127  0.9344 -1.0434
  389MOL0     H52509   5.698  -0.482  10.409  2.0130  1.1862 -2.1143
  389MOL0     H52510   5.680  -0.415  10.556  0.4257  0.9449  0.5993
  389MOL0     H52511   5.831  -0.067  10.369  2.0364 -1.2399  0.5244
  389MOL0     H52512   6.234  -0.340  10.813 -2.6938  0.7734  1.2292
  389MOL0     H52513   6.492  -0.131  10.870 -0.4793 -0.8078 -0.4183
  389MOL0     H52514   6.340  -0.058  10.927 -0.5049 -0.0058  0.5819
  389MOL0     H52515   6.375  -0.244  10.946  0.5026  0.1033 -0.5918
  390MOL0     O52516   7.312   4.572   5.720 -0.1222  0.1699 -0.0180
  390MOL0     C52517   7.266   4.586   5.602 -0.1174 -0.4828 -0.2245
  390MOL0     O52518   7.340   4.579   5.487  0.1623 -0.5316 -0.2267
  390MOL0     C52519   7.474   4.601   5.464 -0.0838  0.2082  0.4079
  390MOL0     C52520   7.567   4.632   5.567  0.5295 -0.5372  0.2182
  390MOL0     C52521   7.704   4.642   5.543 -0.3575  0.8147  0.7482
  390MOL0     C52522   7.754   4.619   5.417 -0.1732  0.7111 -0.1784
  390MOL0     O52523   7.887   4.626   5.406 -0.1348  0.7610  0.3517
  390MOL0     C52524   7.965   4.507   5.380  0.8831  0.6578 -0.7385
  390MOL0     C52525   8.033   4.536   5.250  0.6841  0.1737 -0.0697
  390MOL0     C52526   8.142   4.436   5.227 -0.6776 -0.3378  0.0236
  390MOL0     C52527   8.234   4.482   5.116  0.0480  0.3848 -0.0418
  390MOL0     C52528   8.353   4.394   5.106 -0.6577 -0.1507 -0.5686
  390MOL0     C52529   8.453   4.445   4.996 -0.4460  0.8300  0.5383
  390MOL0     C52530   8.582   4.363   5.011 -0.5714  0.5112 -0.3818
  390MOL0     C52531   8.699   4.394   4.914  0.4167 -1.1139  0.0757
  390MOL0     N52532   8.711   4.285   4.819 -0.8202 -0.0653 -1.0605
  390MOL0     C52533   8.620   4.269   4.708  0.4596 -0.6740 -0.3150
  390MOL0     C52534   8.685   4.174   4.634  0.0915 -0.2448  0.1226
  390MOL0     C52535   8.654   4.139   4.491 -0.1624  0.0017 -0.2562
  390MOL0     C52536   8.635   3.984   4.474  0.5956 -0.4069  0.0261
  390MOL0     C52537   8.526   3.920   4.559  0.7079 -0.0420 -0.1617
  390MOL0     C52538   8.380   3.970   4.526 -0.3842 -0.0076 -0.0062
  390MOL0     O52539   8.363   4.096   4.590  0.2703  0.2115 -0.0007
  390MOL0     C52540   8.267   4.099   4.689  0.2447  0.6168 -0.6122
  390MOL0     C52541   8.136   4.113   4.650  0.5121  0.1108  1.4054
  390MOL0     C52542   8.030   4.100   4.740 -0.4064 -0.2624 -0.4415
  390MOL0     C52543   8.054   4.093   4.879 -0.6059 -0.0031 -0.9249
  390MOL0     C52544   7.951   4.091   4.983 -0.7334  0.5334  0.0205
  390MOL0     O52545   7.990   4.082   5.109 -0.3615 -0.1038 -0.0752
  390MOL0     C52546   7.898   4.085   5.212 -0.3479  0.1331  0.6667
  390MOL0     C52547   7.869   3.973   5.289 -0.1127  0.9278  0.1234
  390MOL0     C52548   7.773   3.977   5.397  0.0029 -0.6882  0.9469
  390MOL0     C52549   7.718   4.106   5.433 -0.6700 -0.5405  0.7264
  390MOL0     O52550   7.627   4.115   5.530 -0.1171 -0.0491  0.6707
  390MOL0     C52551   7.584   4.242   5.583  0.0872  0.4699  0.7692
  390MOL0     C52552   7.469   4.210   5.688 -0.2112  0.8724  0.3011
  390MOL0     C52553   7.516   4.165   5.826 -0.2612 -0.0263  0.2275
  390MOL0     C52554   7.402   4.098   5.905 -0.1682 -0.8664 -0.3224
  390MOL0     C52555   7.388   3.948   5.867 -0.9875  0.2867  0.6732
  390MOL0     C52556   7.254   3.901   5.918  0.1348  0.2755 -0.0609
  390MOL0     C52557   7.228   3.756   5.926 -0.9963  0.1456  0.7276
  390MOL0     C52558   7.307   3.681   6.034  0.2112  0.0625  0.2903
  390MOL0    Cl52559   7.203   3.571   6.121 -0.1610  0.1301  0.1607
  390MOL0     C52560   7.761   4.218   5.354 -0.2722 -0.3153 -0.5951
  390MOL0     C52561   7.838   4.203   5.244  0.1682 -0.6836  0.7178
  390MOL0     O52562   7.829   4.085   4.948 -0.2920  0.3400 -0.4234
  390MOL0     C52563   8.189   4.096   4.925  0.9016  0.7331  0.1485
  390MOL0     C52564   8.293   4.089   4.830  1.0808 -0.0394 -0.7509
  390MOL0     N52565   8.810   4.153   4.689  0.8870 -0.0974  0.4676
  390MOL0     N52566   8.822   4.211   4.799 -0.8819 -0.1291  0.0178
  390MOL0     C52567   7.666   4.595   5.311 -0.4387  0.8959 -0.0721
  390MOL0     C52568   7.526   4.583   5.335 -0.7976 -0.4838  0.3494
  390MOL0     C52569   7.121   4.624   5.594  0.6712  0.0133  0.2261
  390MOL0     C52570   7.049   4.576   5.702  0.6399  0.3075  0.0904
  390MOL0     C52571   6.912   4.616   5.707 -0.8159 -0.1947  0.5150
  390MOL0     C52572   6.854   4.682   5.601 -0.4926  0.1683 -0.3072
  390MOL0     O52573   6.717   4.701   5.587  0.2009 -0.4379 -0.5111
  390MOL0     C52574   6.630   4.620   5.661  0.8475 -0.3416  0.4672
  390MOL0     C52575   6.494   4.615   5.602  0.8655  0.3625  0.2807
  390MOL0     C52576   6.427   4.751   5.582  0.2767 -0.1502 -0.4218
  390MOL0     C52577   6.295   4.723   5.520  0.4259  0.9432 -1.1510
  390MOL0     C52578   6.201   4.661   5.616 -0.1266 -0.7866  0.6616
  390MOL0     C52579   6.112   4.611   5.683 -0.3365  0.0792 -1.0112
  390MOL0     C52580   6.935   4.731   5.495 -0.8092  0.2292 -0.6549
  390MOL0     C52581   7.076   4.710   5.495  0.6729 -0.5030  0.0286
  390MOL0     C52582   7.159   4.766   5.376 -0.5320 -0.2320  0.4071
  390MOL0     H52583   7.531   4.638   5.669  2.3865 -2.1968  1.0360
  390MOL0     H52584   7.769   4.655   5.629  0.1666  0.2906  0.4392
  390MOL0     H52585   8.044   4.499   5.455 -0.2219  1.3508  0.5637
  390MOL0     H52586   7.898   4.422   5.370 -0.6489  1.9060 -1.7069
  390MOL0     H52587   8.081   4.634   5.256 -2.2521  1.7863 -0.9922
  390MOL0     H52588   7.959   4.536   5.170 -1.8542 -0.1990  2.1355
  390MOL0     H52589   8.096   4.345   5.188 -0.5763  0.2877 -1.6432
  390MOL0     H52590   8.199   4.417   5.318  2.4892  1.0513 -1.4948
  390MOL0     H52591   8.176   4.482   5.023 -0.1660  1.0736  0.0813
  390MOL0     H52592   8.262   4.587   5.128 -0.1742  0.9545 -3.4792
  390MOL0     H52593   8.392   4.378   5.207 -2.1083 -1.9593 -0.2487
  390MOL0     H52594   8.311   4.294   5.089  0.0347 -0.9572  1.9586
  390MOL0     H52595   8.406   4.428   4.899 -1.3279  0.7141  0.9799
  390MOL0     H52596   8.472   4.553   5.001 -0.7671  1.0236 -1.6502
  390MOL0     H52597   8.554   4.261   4.981 -1.5578  1.1427 -1.7557
  390MOL0     H52598   8.622   4.364   5.112  0.5332  2.1434 -0.7944
  390MOL0     H52599   8.693   4.489   4.860 -3.3919 -1.3545 -0.1998
  390MOL0     H52600   8.795   4.393   4.967 -1.2393 -0.7550  3.3916
  390MOL0     H52601   8.530   4.327   4.690  0.4407 -0.5046  0.3117
  390MOL0     H52602   8.560   4.188   4.464  0.0080  0.3454 -0.2197
  390MOL0     H52603   8.736   4.170   4.425 -0.3229 -2.1778 -1.5947
  390MOL0     H52604   8.596   3.982   4.372 -2.0201  2.4153  0.8201
  390MOL0     H52605   8.733   3.938   4.491  1.3871  1.0041 -0.4976
  390MOL0     H52606   8.546   3.934   4.666 -0.4951 -1.9572  0.3643
  390MOL0     H52607   8.526   3.813   4.537 -2.3372 -0.4265  1.1151
  390MOL0     H52608   8.311   3.893   4.562  0.1937 -1.9305 -2.7413
  390MOL0     H52609   8.370   3.976   4.417 -1.6631  0.2365  0.1075
  390MOL0     H52610   8.128   4.117   4.541  1.8387  4.6674  1.2592
  390MOL0     H52611   7.930   4.099   4.698 -0.3020  1.7022 -0.8637
  390MOL0     H52612   7.920   3.878   5.271 -1.7910 -0.3446  1.6734
  390MOL0     H52613   7.744   3.881   5.437  1.3986 -2.2210 -1.4408
  390MOL0     H52614   7.659   4.307   5.629 -0.2953  0.9025  0.7887
  390MOL0     H52615   7.544   4.303   5.501  1.0948 -2.4804 -2.1140
  390MOL0     H52616   7.405   4.298   5.698 -1.5968 -0.1829  1.1379
  390MOL0     H52617   7.396   4.135   5.657 -0.9040  0.5171  2.5904
  390MOL0     H52618   7.599   4.095   5.815  1.4201  1.8236  0.5962
  390MOL0     H52619   7.561   4.248   5.882  0.7708  1.3921 -2.5422
  390MOL0     H52620   7.315   4.149   5.861  0.0940 -1.7316 -1.9156
  390MOL0     H52621   7.411   4.124   6.011  0.1950  2.9834 -1.1293
  390MOL0     H52622   7.465   3.885   5.913 -0.0489  1.3656  0.6089
  390MOL0     H52623   7.389   3.929   5.759  0.0272 -0.8047  0.8593
  390MOL0     H52624   7.234   3.938   6.019 -1.3772 -2.8554  0.9224
  390MOL0     H52625   7.187   3.952   5.848  2.2276  0.2365 -2.2305
  390MOL0     H52626   7.255   3.718   5.827 -2.7232  1.0780 -0.1435
  390MOL0     H52627   7.121   3.733   5.924 -0.6708 -1.5017  0.4686
  390MOL0     H52628   7.397   3.639   5.988  0.0970 -1.0612  1.0388
  390MOL0     H52629   7.329   3.760   6.106  1.6569  0.9387 -1.0546
  390MOL0     H52630   7.726   4.317   5.381  2.2701  0.5684 -0.3228
  390MOL0     H52631   7.861   4.288   5.180  0.1321 -0.6572  0.7389
  390MOL0     H52632   8.212   4.084   5.031 -0.9690 -1.5807  0.3827
  390MOL0     H52633   8.395   4.073   4.864  1.6129  1.9723 -1.2812
  390MOL0     H52634   7.705   4.592   5.210 -1.1266  1.5605 -0.3673
  390MOL0     H52635   7.454   4.564   5.256 -1.1996  1.3391  0.2301
  390MOL0     H52636   7.080   4.508   5.781  2.2007  0.2577 -0.5331
  390MOL0     H52637   6.857   4.574   5.790  0.8606  1.6767  2.7014
  390MOL0     H52638   6.614   4.659   5.762 -4.1554 -0.5442  0.0015
  390MOL0     H52639   6.656   4.514   5.663 -3.1356 -1.5623 -1.8304
  390MOL0     H52640   6.424   4.549   5.655 -0.7354 -0.0701 -2.2188
  390MOL0     H52641   6.506   4.568   5.504  3.4613 -0.4280  0.8923
  390MOL0     H52642   6.487   4.823   5.525 -0.9950  2.1207  0.9447
  390MOL0     H52643   6.408   4.805   5.675  1.9165  1.1622 -0.7984
  390MOL0     H52644   6.246   4.816   5.487  0.9504  0.9663 -1.8930
  390MOL0     H52645   6.289   4.657   5.433 -0.6753 -1.5206  0.6681
  390MOL0     H52646   6.045   4.565   5.753  3.2540 -1.7907  1.4851
  390MOL0     H52647   6.885   4.781   5.412 -0.6086 -1.4606 -1.8528
  390MOL0     H52648   7.098   4.836   5.317  1.9451 -0.1478 -2.2953
  390MOL0     H52649   7.247   4.821   5.408  0.6924 -1.1905 -1.1180
  390MOL0     H52650   7.182   4.684   5.306 -0.0899 -0.4682  0.8231
  391MOL0     O52651   8.391   7.507   2.915 -0.0056 -0.2700 -0.0973
  391MOL0     C52652   8.340   7.583   3.005 -1.1662 -0.5293  0.0436
  391MOL0     O52653   8.410   7.673   3.080  0.1177 -0.4824 -0.2742
  391MOL0     C52654   8.540   7.695   3.045 -0.4769 -0.9179  0.5001
  391MOL0     C52655   8.566   7.814   2.979 -0.3055 -0.5549  0.5061
  391MOL0     C52656   8.693   7.859   2.947 -1.0246  0.8459  0.3842
  391MOL0     C52657   8.807   7.791   2.995  0.2743  0.0821 -0.9233
  391MOL0     O52658   8.927   7.851   2.979 -1.2455  0.4965 -0.2695
  391MOL0     C52659   9.016   7.841   3.091 -0.8332 -0.4820 -0.4201
  391MOL0     C52660   9.101   7.968   3.099 -0.0679 -1.1294  0.4250
  391MOL0     C52661   9.009   8.085   3.128  0.2804 -0.1666 -0.0856
  391MOL0     C52662   9.070   8.227   3.135 -1.0722 -0.8464 -0.4204
  391MOL0     C52663   8.961   8.326   3.177  0.3186  0.0293  0.1423
  391MOL0     C52664   9.027   8.461   3.199  0.3072 -0.2421  0.4998
  391MOL0     C52665   8.920   8.566   3.224  0.1068  0.2573 -0.6961
  391MOL0     C52666   8.784   8.531   3.298 -0.4173  0.0511 -0.3800
  391MOL0     N52667   8.707   8.653   3.288 -0.2299  0.3232 -0.4277
  391MOL0     C52668   8.739   8.771   3.359 -0.1588  0.8943 -0.4343
  391MOL0     C52669   8.642   8.854   3.315  0.6278 -0.6960  0.8420
  391MOL0     C52670   8.602   8.992   3.349 -0.0963  0.5090 -0.3293
  391MOL0     C52671   8.490   9.000   3.452 -0.1097 -0.4528 -0.7266
  391MOL0     C52672   8.492   8.901   3.568 -0.4134 -0.0696 -0.9061
  391MOL0     C52673   8.603   8.904   3.676  0.6217 -0.1587  0.8792
  391MOL0     O52674   8.732   8.942   3.634  0.2656  0.1978 -0.3320
  391MOL0     C52675   8.823   8.970   3.733  0.0641  0.0182 -0.5467
  391MOL0     C52676   8.959   8.993   3.691  0.2600 -0.3055  0.6082
  391MOL0     C52677   9.064   9.025   3.776  0.5451 -0.0847  0.7639
  391MOL0     C52678   9.036   9.039   3.916  0.5757  0.2353 -0.0519
  391MOL0     C52679   9.146   9.070   4.008 -1.0573  0.0461 -0.7444
  391MOL0     O52680   9.261   9.108   3.939 -0.9219 -0.2787 -0.5815
  391MOL0     C52681   9.371   9.134   4.022  0.4162 -0.2851 -0.6889
  391MOL0     C52682   9.377   9.250   4.086  0.8099 -0.3733  0.3956
  391MOL0     C52683   9.477   9.280   4.172 -0.3561 -1.8287  0.5112
  391MOL0     C52684   9.579   9.191   4.202  0.2040 -0.3858 -1.0082
  391MOL0     O52685   9.680   9.215   4.293 -0.4463  0.2685  0.0186
  391MOL0     C52686   9.713   9.349   4.324 -0.4405 -0.5369 -0.1327
  391MOL0     C52687   9.854   9.357   4.399 -0.1343  0.3936  0.1767
  391MOL0     C52688   9.878   9.495   4.442 -0.1288 -0.8547  0.6899
  391MOL0     C52689  10.025   9.514   4.487 -0.4676 -0.1311  0.3606
  391MOL0     C52690  10.067   9.661   4.506  0.2702  0.2923  0.2195
  391MOL0     C52691  10.199   9.682   4.573  0.1038 -0.2039  0.5425
  391MOL0     C52692  10.318   9.634   4.498 -0.4054 -0.0472 -0.5281
  391MOL0     C52693  10.378   9.500   4.547  0.3104  0.0062 -0.3543
  391MOL0    Cl52694  10.476   9.516   4.697  0.0549  0.2210 -0.3622
  391MOL0     C52695   9.573   9.067   4.142  0.4106  0.8423 -0.4502
  391MOL0     C52696   9.470   9.043   4.051 -1.2542  0.1633 -0.0222
  391MOL0     O52697   9.127   9.063   4.131 -0.7466  0.3565 -0.6799
  391MOL0     C52698   8.898   9.019   3.961 -0.3604  0.4826  1.1107
  391MOL0     C52699   8.794   8.984   3.868  0.4282 -0.1749 -0.3881
  391MOL0     N52700   8.577   8.789   3.206  0.5593  0.3531 -0.5056
  391MOL0     N52701   8.602   8.665   3.199 -0.2621  0.8924 -0.5513
  391MOL0     C52702   8.779   7.670   3.071 -0.2830  0.7651 -0.3833
  391MOL0     C52703   8.651   7.620   3.099  0.2210  0.8613  0.1418
  391MOL0     C52704   8.200   7.585   3.042  0.9063  0.1833 -0.1381
  391MOL0     C52705   8.137   7.710   3.080  0.4281  0.4725  0.1976
  391MOL0     C52706   7.995   7.708   3.103  0.8985  0.0391 -0.3007
  391MOL0     C52707   7.917   7.596   3.098 -0.3528 -0.5841  0.4937
  391MOL0     O52708   7.779   7.621   3.111  0.4410  0.0441 -0.5719
  391MOL0     C52709   7.695   7.505   3.116 -0.6933 -0.1573  0.5744
  391MOL0     C52710   7.558   7.544   3.131 -0.5867 -0.1900 -0.2894
  391MOL0     C52711   7.468   7.417   3.141 -0.2372  0.1797 -0.2760
  391MOL0     C52712   7.342   7.450   3.228  0.0126  0.4458  0.2472
  391MOL0     C52713   7.267   7.326   3.247  0.9479  0.2710  0.2064
  391MOL0     C52714   7.222   7.219   3.284  0.5461 -0.4100 -0.2233
  391MOL0     C52715   7.982   7.477   3.068 -0.0632  0.1711 -0.1342
  391MOL0     C52716   8.119   7.465   3.035 -0.1932  0.1214 -0.1764
  391MOL0     C52717   8.171   7.327   3.001 -0.0693 -1.1037  0.1314
  391MOL0     H52718   8.474   7.866   2.953  0.2730  0.1237 -0.2690
  391MOL0     H52719   8.692   7.950   2.887 -0.5207 -0.6017 -1.9477
  391MOL0     H52720   8.956   7.836   3.182 -1.4020  1.4668 -0.6454
  391MOL0     H52721   9.083   7.757   3.067  0.7083  1.2367 -2.5690
  391MOL0     H52722   9.167   7.983   3.013  0.8691 -1.2626  1.1040
  391MOL0     H52723   9.155   7.942   3.191  1.2503 -0.6765 -0.1990
  391MOL0     H52724   8.969   8.055   3.226  2.1927  0.5816  0.9700
  391MOL0     H52725   8.926   8.087   3.057  0.7900  0.5064 -0.6621
  391MOL0     H52726   9.145   8.232   3.215  0.9666 -0.0755 -2.2762
  391MOL0     H52727   9.119   8.255   3.041 -0.3807  2.4943  0.7856
  391MOL0     H52728   8.886   8.338   3.099 -0.6041  0.2401  1.0387
  391MOL0     H52729   8.911   8.293   3.269  3.5624 -3.6700  0.8948
  391MOL0     H52730   9.079   8.447   3.294 -0.9822 -0.0388  1.2521
  391MOL0     H52731   9.103   8.494   3.128  0.4840  0.1621  0.8740
  391MOL0     H52732   8.895   8.607   3.126 -1.1589  5.2172  1.3879
  391MOL0     H52733   8.964   8.646   3.286 -1.5331  0.7695 -0.1515
  391MOL0     H52734   8.729   8.453   3.245  2.0048 -0.6738 -2.0151
  391MOL0     H52735   8.791   8.515   3.406  0.3940  2.2633 -0.0515
  391MOL0     H52736   8.817   8.781   3.434  2.4775  0.4738 -2.9319
  391MOL0     H52737   8.681   9.045   3.402  0.2903 -1.9298  1.7362
  391MOL0     H52738   8.575   9.040   3.254 -1.1311  1.2028  0.2890
  391MOL0     H52739   8.484   9.101   3.494  2.4450 -0.0467 -1.1881
  391MOL0     H52740   8.399   8.974   3.397  0.1496  2.3063 -2.6277
  391MOL0     H52741   8.497   8.801   3.524  1.5154  1.1430 -3.7933
  391MOL0     H52742   8.400   8.912   3.626 -0.4959  1.8088 -1.3226
  391MOL0     H52743   8.594   8.807   3.725  0.2088 -1.3232 -1.4071
  391MOL0     H52744   8.573   8.982   3.747 -0.5424  1.1445 -0.9522
  391MOL0     H52745   8.987   8.969   3.589 -1.7469  0.1124 -0.0821
  391MOL0     H52746   9.164   9.048   3.740  0.5201 -1.0307  0.0388
  391MOL0     H52747   9.294   9.316   4.064 -0.7107 -1.9708  1.0371
  391MOL0     H52748   9.461   9.380   4.212 -0.7608 -0.6877 -2.2503
  391MOL0     H52749   9.715   9.404   4.230  1.0437 -0.1410  0.1099
  391MOL0     H52750   9.641   9.393   4.393  1.8190  3.0221  0.1791
  391MOL0     H52751   9.855   9.287   4.483  1.4612  0.8961  0.6171
  391MOL0     H52752   9.931   9.325   4.328  1.9130  2.7493  1.1756
  391MOL0     H52753   9.864   9.562   4.356 -0.4456 -2.3585 -0.4776
  391MOL0     H52754   9.816   9.529   4.525  1.5815  0.3063  1.5616
  391MOL0     H52755  10.086   9.473   4.407 -1.2587 -2.4478  0.8603
  391MOL0     H52756  10.045   9.445   4.570 -0.8009  0.9016  1.3288
  391MOL0     H52757   9.992   9.723   4.557  0.9262  0.1717  1.3418
  391MOL0     H52758  10.060   9.706   4.406  0.1436 -0.1508  0.0263
  391MOL0     H52759  10.215   9.790   4.579 -0.1138  0.1032 -2.5101
  391MOL0     H52760  10.196   9.638   4.673  1.1454  2.3970  1.8089
  391MOL0     H52761  10.398   9.708   4.501 -0.3443 -0.1197 -0.3630
  391MOL0     H52762  10.280   9.595   4.403 -0.0811 -2.5583  0.2997
  391MOL0     H52763  10.290   9.439   4.569 -0.1867  0.7602 -0.1908
  391MOL0     H52764  10.438   9.455   4.467 -1.3350  2.1691 -2.9826
  391MOL0     H52765   9.654   8.996   4.158  0.2641  0.7921  0.0844
  391MOL0     H52766   9.473   8.938   4.024  0.6222 -0.3445  1.8851
  391MOL0     H52767   8.870   9.045   4.063 -3.7789 -1.0403  0.6969
  391MOL0     H52768   8.692   8.980   3.905 -0.2646 -0.8932 -2.2648
  391MOL0     H52769   8.863   7.610   3.106 -1.3157 -0.3467  0.2706
  391MOL0     H52770   8.634   7.538   3.167  2.2036  0.7412  0.5321
  391MOL0     H52771   8.190   7.804   3.093 -0.3087  1.0745 -1.0073
  391MOL0     H52772   7.935   7.794   3.130 -4.0813 -2.0569 -3.3015
  391MOL0     H52773   7.727   7.430   3.188  1.8275 -0.6615 -0.9478
  391MOL0     H52774   7.693   7.455   3.018 -2.5068 -4.0775  2.3940
  391MOL0     H52775   7.519   7.601   3.047  0.6919  0.4720 -0.4580
  391MOL0     H52776   7.543   7.609   3.218 -0.2726  2.4045 -2.0753
  391MOL0     H52777   7.521   7.334   3.190  0.0027  0.0640 -0.7222
  391MOL0     H52778   7.445   7.369   3.046 -1.2368 -1.2614  0.6448
  391MOL0     H52779   7.359   7.485   3.330 -0.8427 -0.4022  0.7079
  391MOL0     H52780   7.275   7.516   3.173  2.0778 -0.3403 -3.5267
  391MOL0     H52781   7.157   7.140   3.317 -0.2718 -0.2072 -1.2719
  391MOL0     H52782   7.926   7.384   3.063  0.9502 -0.4851  0.3034
  391MOL0     H52783   8.104   7.242   3.016 -1.2570  0.2491  3.3316
  391MOL0     H52784   8.192   7.339   2.894 -5.0291 -0.9549 -1.0551
  391MOL0     H52785   8.254   7.291   3.063 -0.7162 -1.3980  0.8408
  392MOL0     O52786  10.129  10.010  11.203  0.0831 -0.6454  0.3596
  392MOL0     C52787  10.141   9.967  11.088  0.7451 -0.3440  0.3727
  392MOL0     O52788  10.256   9.956  11.023 -0.5848  0.3163 -0.0532
  392MOL0     C52789  10.380   9.938  11.082  0.0724 -0.0994 -0.0112
  392MOL0     C52790  10.495   9.960  10.996  0.1228  0.0762  0.4274
  392MOL0     C52791  10.621   9.947  11.047 -0.0004 -0.1966 -0.1860
  392MOL0     C52792  10.643   9.922  11.176 -0.3024  1.0929  0.3704
  392MOL0     O52793  10.776   9.917  11.214 -0.3141  0.3359 -0.9746
  392MOL0     C52794  10.809   9.913  11.356 -0.0609 -0.4698 -0.5408
  392MOL0     C52795  10.939   9.995  11.390  0.1042 -0.2475  1.6728
  392MOL0     C52796  11.061   9.958  11.304 -0.2354  0.0129  0.3371
  392MOL0     C52797  11.179  10.043  11.342 -1.0006  0.2857  0.1044
  392MOL0     C52798  11.309   9.991  11.294 -0.2029  0.3862 -0.7415
  392MOL0     C52799  11.421  10.083  11.329  0.5629  0.6328 -0.4349
  392MOL0     C52800  11.557  10.034  11.261  0.0413 -0.9088  0.1054
  392MOL0     C52801  11.659  10.152  11.260 -0.1581  0.8226  0.1234
  392MOL0     N52802  11.730  10.164  11.380 -0.0381 -0.5026 -0.2692
  392MOL0     C52803  11.842  10.093  11.414 -0.0605 -0.9568 -0.0477
  392MOL0     C52804  11.871  10.111  11.546 -0.5241 -0.0406  0.3452
  392MOL0     C52805  11.981  10.051  11.628  0.4941  0.3133  0.4344
  392MOL0     C52806  12.112   9.999  11.550 -0.5246 -0.0609 -0.1635
  392MOL0     C52807  12.216  10.105  11.521  0.2273 -0.9015 -0.3749
  392MOL0     C52808  12.313  10.053  11.413  0.8645 -1.1309  0.1093
  392MOL0     O52809  12.342   9.915  11.410  0.3847  0.4177 -0.3930
  392MOL0     C52810  12.421   9.850  11.505  0.7523 -1.3490 -0.4105
  392MOL0     C52811  12.473   9.909  11.615 -0.4947 -0.1714 -1.4539
  392MOL0     C52812  12.562   9.836  11.701 -0.3084 -0.2561 -0.4185
  392MOL0     C52813  12.583   9.698  11.682 -0.8585 -0.4398 -0.4995
  392MOL0     C52814  12.694   9.630  11.760  0.1213 -0.4948  0.1966
  392MOL0     O52815  12.753   9.522  11.699  0.5138  0.1792 -0.3100
  392MOL0     C52816  12.821   9.431  11.773  0.0768 -0.0299  0.2068
  392MOL0     C52817  12.959   9.414  11.749  0.7395  0.1619 -0.3482
  392MOL0     C52818  13.030   9.314  11.820 -0.1524  0.9378 -0.1826
  392MOL0     C52819  12.970   9.244  11.919 -0.1858 -0.0766 -0.2106
  392MOL0     O52820  13.033   9.153  11.999  0.4927  0.2041 -0.1655
  392MOL0     C52821  13.173   9.154  12.024 -0.8790  0.7669 -0.1287
  392MOL0     C52822  13.262   9.068  11.922 -0.0036 -0.0976  0.2962
  392MOL0     C52823  13.216   8.920  11.922  0.2290 -0.0700 -0.6951
  392MOL0     C52824  13.287   8.848  11.803 -0.5373  0.9763  0.0875
  392MOL0     C52825  13.263   8.704  11.828  0.8610 -0.0984 -0.3155
  392MOL0     C52826  13.117   8.671  11.800 -0.3245  0.4107 -0.1597
  392MOL0     C52827  13.100   8.519  11.802  0.4837 -0.3342  0.2715
  392MOL0     C52828  12.955   8.481  11.761  0.3771  0.1347 -0.3931
  392MOL0    Cl52829  12.824   8.577  11.861 -0.1604 -0.1425 -0.6708
  392MOL0     C52830  12.834   9.274  11.955  0.1410  0.4269 -0.0686
  392MOL0     C52831  12.762   9.370  11.886  0.8766  0.1711  0.4022
  392MOL0     O52832  12.724   9.671  11.871  0.1832 -1.0827 -0.6407
  392MOL0     C52833  12.513   9.641  11.582  0.1227  0.7411 -0.3518
  392MOL0     C52834  12.437   9.711  11.494  0.0485  0.6682  0.0220
  392MOL0     N52835  11.773  10.198  11.588 -0.7707  0.6933  0.3188
  392MOL0     N52836  11.695  10.234  11.491  0.0383 -0.6141 -0.3697
  392MOL0     C52837  10.523   9.892  11.258 -0.5354  0.0790 -0.5550
  392MOL0     C52838  10.395   9.894  11.213 -0.6559  1.1755  0.2075
  392MOL0     C52839  10.013   9.951  11.010  0.9637  0.7994 -0.3897
  392MOL0     C52840   9.978   9.825  10.957 -0.3813 -0.4462  0.2300
  392MOL0     C52841   9.862   9.813  10.882  0.0691  0.8041 -0.7803
  392MOL0     C52842   9.779   9.923  10.865  0.4116 -0.3121  0.1477
  392MOL0     O52843   9.667   9.897  10.796  0.4563 -0.7882 -0.8110
  392MOL0     C52844   9.563   9.993  10.821 -0.3990 -0.1940  0.3677
  392MOL0     C52845   9.435   9.957  10.740 -0.1359 -0.6417 -0.7151
  392MOL0     C52846   9.361   9.848  10.817  0.3822 -0.5475  0.0673
  392MOL0     C52847   9.287   9.889  10.945 -0.8694  0.1747 -1.0263
  392MOL0     C52848   9.167   9.959  10.910 -0.8706  0.2355  0.2278
  392MOL0     C52849   9.065  10.022  10.901 -0.1628  0.1686 -0.1066
  392MOL0     C52850   9.814  10.044  10.925  0.0865 -0.1624 -0.2584
  392MOL0     C52851   9.933  10.066  10.993  0.3196 -0.2959  0.2465
  392MOL0     C52852   9.954  10.211  11.044  0.3773  0.0694 -0.3431
  392MOL0     H52853  10.487   9.986  10.891 -2.2752  1.9045  0.9513
  392MOL0     H52854  10.699   9.961  10.973 -1.0522 -0.6348 -1.4039
  392MOL0     H52855  10.736   9.956  11.426 -0.8212 -2.3865 -0.0918
  392MOL0     H52856  10.826   9.814  11.400 -0.2360 -0.2202  0.1001
  392MOL0     H52857  10.959   9.974  11.496 -0.6162  0.3808  1.9422
  392MOL0     H52858  10.927  10.104  11.381  1.4034  0.0739  3.1587
  392MOL0     H52859  11.033   9.960  11.198  0.1831 -2.0771  0.1256
  392MOL0     H52860  11.086   9.852  11.318 -4.6622 -1.6777 -2.1515
  392MOL0     H52861  11.158  10.138  11.292 -0.3262  0.5148  0.2493
  392MOL0     H52862  11.183  10.052  11.451  2.5272 -0.8983  0.2008
  392MOL0     H52863  11.333   9.889  11.327 -2.7055  0.7683  2.8737
  392MOL0     H52864  11.292   9.991  11.186  0.5290  0.2221 -0.8623
  392MOL0     H52865  11.386  10.183  11.302  0.5403  0.6420 -0.3712
  392MOL0     H52866  11.431  10.070  11.437  0.3798 -1.4613 -0.6348
  392MOL0     H52867  11.547   9.998  11.158  2.3665 -0.5981 -0.2807
  392MOL0     H52868  11.590   9.946  11.317 -0.4075 -0.0413  1.7841
  392MOL0     H52869  11.732  10.128  11.182  0.2958  0.4456  0.6553
  392MOL0     H52870  11.606  10.243  11.232  1.8466  1.7007 -1.0687
  392MOL0     H52871  11.892  10.028  11.343 -1.7521 -1.5441 -0.7395
  392MOL0     H52872  11.993  10.116  11.715 -1.9694 -0.0912  1.1550
  392MOL0     H52873  11.942   9.961  11.676  1.1075 -3.3763 -5.0915
  392MOL0     H52874  12.154   9.924  11.618  1.2986 -2.2310 -3.4757
  392MOL0     H52875  12.083   9.948  11.458  0.6931  0.6008 -0.9341
  392MOL0     H52876  12.276  10.120  11.611  0.7189 -2.5477 -0.3829
  392MOL0     H52877  12.168  10.199  11.493  1.3438 -0.9572 -2.7204
  392MOL0     H52878  12.404  10.112  11.404 -1.6035  3.0767  0.2302
  392MOL0     H52879  12.254  10.055  11.321 -0.5142  1.3777  0.9689
  392MOL0     H52880  12.465  10.015  11.636  0.8544 -0.2613 -0.3709
  392MOL0     H52881  12.626   9.889  11.770  0.4161 -0.2910 -1.0539
  392MOL0     H52882  13.006   9.470  11.669  0.6467 -3.2247 -2.9770
  392MOL0     H52883  13.134   9.302  11.790  0.3294  0.0106  1.7208
  392MOL0     H52884  13.203   9.259  12.031 -0.7182  0.8077 -1.2175
  392MOL0     H52885  13.189   9.101  12.118 -2.6745  1.4240  0.5949
  392MOL0     H52886  13.257   9.112  11.822 -0.0089 -0.8388 -0.0352
  392MOL0     H52887  13.365   9.065  11.956  0.9147  1.5474 -2.0511
  392MOL0     H52888  13.234   8.880  12.022 -2.5135  5.3859  2.4317
  392MOL0     H52889  13.107   8.916  11.908  0.0497  1.0890  0.2505
  392MOL0     H52890  13.394   8.872  11.807 -0.5010  0.7764  3.8524
  392MOL0     H52891  13.249   8.871  11.703  2.1692  0.0473 -1.2611
  392MOL0     H52892  13.286   8.671  11.930  0.9850 -3.9553 -1.4135
  392MOL0     H52893  13.332   8.646  11.766  0.3149  1.7202 -2.7406
  392MOL0     H52894  13.047   8.725  11.863 -0.6981  1.0855 -1.1164
  392MOL0     H52895  13.109   8.702  11.695  1.6749 -2.0304 -1.1468
  392MOL0     H52896  13.124   8.484  11.903 -1.3038  0.8945  1.1794
  392MOL0     H52897  13.174   8.478  11.732  0.4819  1.2605 -0.7156
  392MOL0     H52898  12.929   8.499  11.657 -1.3949 -2.1359 -0.4171
  392MOL0     H52899  12.939   8.375  11.784  1.7212  0.1123  0.5629
  392MOL0     H52900  12.785   9.215  12.032  2.5755 -2.1161 -0.2941
  392MOL0     H52901  12.661   9.397  11.918  0.1443 -1.8729 -0.0099
  392MOL0     H52902  12.531   9.536  11.561  1.9713  1.0261 -0.3860
  392MOL0     H52903  12.398   9.653  11.410  2.2627 -1.1366  0.1508
  392MOL0     H52904  10.530   9.868  11.364 -0.2204  2.3476 -0.0042
  392MOL0     H52905  10.317   9.868  11.284 -1.3556  2.9991  0.1658
  392MOL0     H52906  10.048   9.742  10.968 -1.3471 -1.8890 -3.2569
  392MOL0     H52907   9.827   9.717  10.845 -0.4612  0.4005  0.6651
  392MOL0     H52908   9.589  10.092  10.781 -1.5247 -0.0564 -0.0568
  392MOL0     H52909   9.542   9.995  10.928 -1.4566 -1.7269  0.2262
  392MOL0     H52910   9.457   9.903  10.647 -0.3530 -2.5398  0.2746
  392MOL0     H52911   9.360  10.036  10.733 -0.5545 -1.0322 -0.6961
  392MOL0     H52912   9.436   9.773  10.842  0.6094 -1.1567 -2.2192
  392MOL0     H52913   9.295   9.793  10.750  0.7654 -0.5740 -0.2927
  392MOL0     H52914   9.245   9.803  10.997 -0.8204 -0.0694 -1.3812
  392MOL0     H52915   9.343   9.936  11.026 -0.0835  1.1367 -2.0890
  392MOL0     H52916   8.969  10.056  10.868  0.6127  1.3902 -1.2308
  392MOL0     H52917   9.748  10.130  10.910 -0.0287 -0.3611 -0.8950
  392MOL0     H52918   9.862  10.256  11.081  1.0814  2.7724 -1.6120
  392MOL0     H52919  10.033  10.237  11.115  0.3809  1.3030 -0.7759
  392MOL0     H52920   9.978  10.280  10.963  2.2813 -0.0777  0.0446
  393MOL0     O52921   7.134   8.834   2.559  0.4741  0.3555 -0.4875
  393MOL0     C52922   7.195   8.833   2.666  0.7033 -0.3116 -0.2074
  393MOL0     O52923   7.225   8.938   2.747  0.8359 -1.2053  0.0813
  393MOL0     C52924   7.179   9.066   2.704 -0.2792  0.3722 -0.2400
  393MOL0     C52925   7.248   9.132   2.593  0.4871  0.1342 -0.4654
  393MOL0     C52926   7.197   9.256   2.544 -0.2145 -0.7629 -0.8507
  393MOL0     C52927   7.076   9.316   2.600  0.1557 -0.0398 -0.1156
  393MOL0     O52928   7.000   9.411   2.535 -0.1883 -0.2299  0.1240
  393MOL0     C52929   7.051   9.475   2.418 -0.4604  0.3282 -0.0851
  393MOL0     C52930   7.144   9.588   2.455  0.2208 -1.1867  0.2617
  393MOL0     C52931   7.214   9.632   2.340 -0.3054  0.0856  0.9216
  393MOL0     C52932   7.296   9.748   2.365  0.1068  0.4515  0.2561
  393MOL0     C52933   7.406   9.766   2.252 -0.1861 -0.0991  0.0806
  393MOL0     C52934   7.523   9.845   2.301 -0.6739 -0.2212 -0.6946
  393MOL0     C52935   7.489   9.968   2.388 -0.2946  0.0901 -0.4857
  393MOL0     C52936   7.611  10.065   2.396  0.3328 -0.2742  0.2667
  393MOL0     N52937   7.723  10.001   2.467 -0.0476 -0.3075  0.0406
  393MOL0     C52938   7.835   9.955   2.403 -0.1993  0.4075 -0.1314
  393MOL0     C52939   7.904   9.895   2.503 -0.7924  0.4433  0.4830
  393MOL0     C52940   8.030   9.813   2.480  1.0413 -0.4346 -0.2031
  393MOL0     C52941   8.148   9.869   2.559 -0.3639  0.2064 -0.1346
  393MOL0     C52942   8.144  10.018   2.610  0.2413 -0.1066 -0.1899
  393MOL0     C52943   8.260  10.076   2.686  0.1043 -0.1124  0.0088
  393MOL0     O52944   8.379  10.019   2.631 -0.5522  0.1237 -0.5469
  393MOL0     C52945   8.497  10.073   2.678 -1.4556  0.5724 -0.1904
  393MOL0     C52946   8.523  10.126   2.806 -0.3246 -0.1129 -0.1257
  393MOL0     C52947   8.642  10.197   2.833 -0.2070  0.0483  0.5012
  393MOL0     C52948   8.747  10.197   2.749  0.1038 -0.1545  0.7936
  393MOL0     C52949   8.879  10.266   2.781  0.2996 -0.2498 -0.2967
  393MOL0     O52950   8.872  10.364   2.881 -0.3107  0.3679  0.1209
  393MOL0     C52951   8.979  10.445   2.920 -0.5821  0.4705  0.8790
  393MOL0     C52952   8.948  10.577   2.946 -0.8496  0.2434 -0.2689
  393MOL0     C52953   9.044  10.662   2.996 -0.4045 -0.0382 -0.2549
  393MOL0     C52954   9.175  10.613   3.019 -0.7603  0.4000  1.1760
  393MOL0     O52955   9.282  10.682   3.068 -0.0341 -0.5590  0.0458
  393MOL0     C52956   9.266  10.824   3.082 -0.2332 -0.5644 -0.3119
  393MOL0     C52957   9.395  10.886   3.139  0.1370 -0.8165 -0.2658
  393MOL0     C52958   9.518  10.856   3.048 -0.4475 -0.7040  0.7021
  393MOL0     C52959   9.599  10.975   2.994  0.4653  0.5987  0.3780
  393MOL0     C52960   9.742  10.942   2.946 -0.0487 -0.3281  0.2940
  393MOL0     C52961   9.799  11.071   2.885 -0.4382 -0.1047 -0.1878
  393MOL0     C52962   9.945  11.070   2.856 -0.0070  0.2814 -0.4696
  393MOL0     C52963  10.031  11.037   2.984  0.4672 -0.2294  0.0018
  393MOL0    Cl52964   9.993  11.163   3.117 -0.1637 -0.3207  0.0796
  393MOL0     C52965   9.201  10.481   2.997  0.3574  0.7931  0.4243
  393MOL0     C52966   9.099  10.398   2.949  0.3033  0.4017  0.2999
  393MOL0     O52967   8.978  10.230   2.720 -0.6496  0.1023 -0.0180
  393MOL0     C52968   8.735  10.127   2.621  0.9985 -0.5892  0.0974
  393MOL0     C52969   8.606  10.076   2.585  0.9147 -0.4796 -0.6377
  393MOL0     N52970   7.836   9.901   2.623  0.6622  0.5385  0.0857
  393MOL0     N52971   7.724   9.965   2.597 -0.0088  1.0858  0.1169
  393MOL0     C52972   7.012   9.244   2.709 -0.3924 -0.3839 -0.1279
  393MOL0     C52973   7.060   9.124   2.754 -0.6680 -0.6999  0.2845
  393MOL0     C52974   7.227   8.693   2.721 -0.6386 -0.5177 -0.6462
  393MOL0     C52975   7.282   8.687   2.851 -0.0744  0.7164  0.4744
  393MOL0     C52976   7.295   8.572   2.925  0.5393  0.2663  0.2526
  393MOL0     C52977   7.245   8.455   2.877 -0.8689  0.0305 -0.0981
  393MOL0     O52978   7.260   8.352   2.959 -0.2992 -0.5466  0.8725
  393MOL0     C52979   7.182   8.235   2.935 -0.2367 -0.1252 -0.0321
  393MOL0     C52980   7.214   8.123   3.039 -0.3339  1.1135  0.6632
  393MOL0     C52981   7.367   8.096   3.074 -0.0609 -0.5768 -0.2773
  393MOL0     C52982   7.392   7.969   3.161  0.3691  0.3016  0.5006
  393MOL0     C52983   7.532   7.934   3.193 -0.2084  0.2736  1.2567
  393MOL0     C52984   7.645   7.931   3.236  0.6969  0.9724 -1.0075
  393MOL0     C52985   7.204   8.448   2.738  0.4117  0.1782 -0.7974
  393MOL0     C52986   7.190   8.565   2.667  0.2130 -0.5462  0.6964
  393MOL0     C52987   7.138   8.551   2.529  0.8812 -0.1322 -0.5593
  393MOL0     H52988   7.335   9.097   2.538 -0.8575  0.1483 -2.7283
  393MOL0     H52989   7.253   9.292   2.458  0.2257  2.2778  0.5563
  393MOL0     H52990   7.100   9.408   2.347  2.2766  0.6616  1.3482
  393MOL0     H52991   6.960   9.515   2.372 -0.2268  0.4627 -0.4255
  393MOL0     H52992   7.208   9.550   2.536  0.3665  1.1249  1.3210
  393MOL0     H52993   7.091   9.674   2.497  3.0336 -0.0323  1.7511
  393MOL0     H52994   7.136   9.655   2.267 -1.2817 -1.5272  1.4138
  393MOL0     H52995   7.273   9.553   2.295  0.4919  1.9851 -1.5877
  393MOL0     H52996   7.228   9.834   2.364 -2.7635 -1.6510 -0.9574
  393MOL0     H52997   7.347   9.752   2.461  1.5252  0.2607 -0.4656
  393MOL0     H52998   7.448   9.669   2.221 -1.9196 -0.9790  0.3445
  393MOL0     H52999   7.373   9.802   2.155 -0.0926 -1.4012 -0.4622
  393MOL0     H53000   7.590   9.785   2.362  0.3314  1.5541  0.0093
  393MOL0     H53001   7.579   9.874   2.211 -1.9634 -1.5486 -1.9878
  393MOL0     H53002   7.441   9.950   2.485 -0.7378 -1.1518 -0.9286
  393MOL0     H53003   7.414  10.021   2.329  0.1620  2.1680  0.6971
  393MOL0     H53004   7.641  10.103   2.298 -0.9076 -0.1862 -0.1012
  393MOL0     H53005   7.580  10.146   2.463  4.2255  0.7380  1.0757
  393MOL0     H53006   7.854   9.956   2.296 -0.2622  2.1666 -0.1480
  393MOL0     H53007   8.011   9.712   2.517  0.6348  0.1365  1.2417
  393MOL0     H53008   8.041   9.813   2.371 -0.4289 -4.9597 -0.5628
  393MOL0     H53009   8.163   9.815   2.653 -0.2741  1.8429  0.8313
  393MOL0     H53010   8.230   9.860   2.488 -1.9949  0.5025 -2.1371
  393MOL0     H53011   8.060  10.025   2.679 -0.2734 -1.1762 -0.6827
  393MOL0     H53012   8.132  10.082   2.522 -2.2106 -0.2276 -0.0125
  393MOL0     H53013   8.267  10.047   2.791  2.6813  0.2948  0.0275
  393MOL0     H53014   8.254  10.185   2.670 -0.0173 -0.1094  0.0739
  393MOL0     H53015   8.455  10.126   2.890  0.4638  1.9046  0.5771
  393MOL0     H53016   8.647  10.249   2.928  3.1240 -0.6082  0.7805
  393MOL0     H53017   8.844  10.604   2.933 -1.1720  0.6541  2.4338
  393MOL0     H53018   9.021  10.767   3.009  0.2595  0.3397 -1.9495
  393MOL0     H53019   9.238  10.878   2.991 -0.6791  3.3596  1.9583
  393MOL0     H53020   9.189  10.848   3.156 -0.7598  0.8559 -1.2787
  393MOL0     H53021   9.372  10.993   3.150 -0.2659 -1.0348  1.2053
  393MOL0     H53022   9.421  10.843   3.236  0.8615 -0.7960 -0.4462
  393MOL0     H53023   9.592  10.813   3.117 -0.4489 -0.5593  0.7938
  393MOL0     H53024   9.489  10.795   2.962 -0.2636 -2.6061  1.9382
  393MOL0     H53025   9.602  11.052   3.072 -0.7033  0.9146  0.1375
  393MOL0     H53026   9.539  11.022   2.915 -0.9591  0.1144  1.1319
  393MOL0     H53027   9.746  10.862   2.871 -0.6047 -0.9388  0.9086
  393MOL0     H53028   9.795  10.909   3.036 -0.4212  1.0556  1.0499
  393MOL0     H53029   9.750  11.089   2.789 -3.6502  2.0798  1.6750
  393MOL0     H53030   9.785  11.157   2.951 -0.6053 -0.3370  0.0803
  393MOL0     H53031   9.964  11.164   2.803 -2.9457  1.8627  1.0317
  393MOL0     H53032   9.965  10.987   2.789  0.5012  0.3366 -0.3874
  393MOL0     H53033  10.002  10.935   3.012 -1.2951 -0.3167 -1.9155
  393MOL0     H53034  10.138  11.032   2.961  0.0356  0.4177 -2.4669
  393MOL0     H53035   9.292  10.424   3.015 -1.3913 -3.5198 -2.6021
  393MOL0     H53036   9.122  10.297   2.916 -0.7241 -0.3517  1.7903
  393MOL0     H53037   8.815  10.127   2.547 -1.2246  0.3361 -2.4977
  393MOL0     H53038   8.584  10.040   2.485  0.6149  2.1318 -1.5979
  393MOL0     H53039   6.924   9.289   2.753  0.8015 -0.2270  2.2310
  393MOL0     H53040   7.011   9.081   2.841 -1.5746  0.5298  0.4120
  393MOL0     H53041   7.307   8.783   2.895 -0.1798  0.5501  0.9071
  393MOL0     H53042   7.330   8.567   3.028  2.6626 -0.6836 -0.4474
  393MOL0     H53043   7.217   8.204   2.836 -1.3688  2.7948 -1.4475
  393MOL0     H53044   7.077   8.266   2.932  0.1595  1.6348  1.7322
  393MOL0     H53045   7.178   8.035   2.984  2.1330  1.3245 -1.4365
  393MOL0     H53046   7.154   8.123   3.131  1.3602  0.7036  1.8308
  393MOL0     H53047   7.401   8.183   3.131  0.8018 -1.4080  0.4980
  393MOL0     H53048   7.437   8.094   2.990 -0.1964  3.3345 -0.6698
  393MOL0     H53049   7.328   7.967   3.250  1.9005 -1.0286  1.6307
  393MOL0     H53050   7.375   7.877   3.103  0.4221 -0.3139  1.4362
  393MOL0     H53051   7.746   7.927   3.271  0.4558  2.1628 -0.1357
  393MOL0     H53052   7.169   8.360   2.686  3.2255 -0.8515 -1.1330
  393MOL0     H53053   7.030   8.569   2.523  0.0180 -3.7049  1.2251
  393MOL0     H53054   7.198   8.611   2.460  1.3122 -0.2134 -0.2566
  393MOL0     H53055   7.138   8.448   2.493 -0.1913 -1.1797  2.2100
  394MOL0     O53056   2.884   1.711   5.143 -0.1581 -0.0929  0.4053
  394MOL0     C53057   2.904   1.600   5.098  0.4862 -0.4792  0.3634
  394MOL0     O53058   2.997   1.573   5.006 -0.3636 -0.3224 -0.3952
  394MOL0     C53059   3.121   1.620   5.017 -0.3866 -0.3511  0.0754
  394MOL0     C53060   3.179   1.672   5.140 -0.0889 -0.5798 -0.4216
  394MOL0     C53061   3.316   1.728   5.136 -0.0223 -0.6455 -0.9868
  394MOL0     C53062   3.393   1.721   5.021 -0.3675 -0.5511 -0.6895
  394MOL0     O53063   3.527   1.763   5.017 -0.2393 -0.2455  0.0336
  394MOL0     C53064   3.570   1.855   5.122 -0.4903 -0.8272  0.5207
  394MOL0     C53065   3.696   1.932   5.076  0.1754  0.2683 -0.0255
  394MOL0     C53066   3.674   2.021   4.951 -0.9315 -1.4608 -0.4300
  394MOL0     C53067   3.815   2.064   4.895 -0.3109 -0.6979 -0.3067
  394MOL0     C53068   3.812   2.197   4.822  0.9577  0.0316  0.1422
  394MOL0     C53069   3.943   2.252   4.762  0.3883  0.5136 -0.0350
  394MOL0     C53070   4.057   2.291   4.852  0.7039 -0.6088 -0.2751
  394MOL0     C53071   4.004   2.369   4.984 -0.4794 -0.6732 -0.3363
  394MOL0     N53072   3.943   2.497   4.945 -0.0447  0.2527 -0.0640
  394MOL0     C53073   4.005   2.627   4.947  0.1348 -0.0466  0.3165
  394MOL0     C53074   3.906   2.717   4.944  0.3150 -0.7065  0.1133
  394MOL0     C53075   3.921   2.867   4.924 -0.0276  0.9946  0.3058
  394MOL0     C53076   3.864   2.954   5.031  0.2291  0.3530 -0.3326
  394MOL0     C53077   3.948   2.966   5.164 -0.0232  0.7556  0.3266
  394MOL0     C53078   4.099   2.984   5.154  0.2310 -0.3507  0.4608
  394MOL0     O53079   4.166   2.861   5.113 -1.1891 -0.1756  0.7663
  394MOL0     C53080   4.303   2.845   5.145 -0.1341  0.3526  1.0181
  394MOL0     C53081   4.347   2.712   5.130  0.6637  0.1962 -0.0351
  394MOL0     C53082   4.479   2.682   5.143 -0.0161 -0.1176  0.1725
  394MOL0     C53083   4.576   2.788   5.182  0.7105 -0.2976  0.5158
  394MOL0     C53084   4.726   2.758   5.190  0.2955 -0.4647 -0.1705
  394MOL0     O53085   4.807   2.852   5.244  0.4419 -0.1022 -0.0937
  394MOL0     C53086   4.936   2.818   5.269 -0.1073 -0.2964 -0.0377
  394MOL0     C53087   4.982   2.726   5.368 -0.1772  0.4412 -1.3646
  394MOL0     C53088   5.118   2.706   5.386 -0.5648 -0.1070  0.0796
  394MOL0     C53089   5.215   2.771   5.303  0.2505 -0.0670 -0.4569
  394MOL0     O53090   5.348   2.739   5.311  0.3734  0.0053 -0.4116
  394MOL0     C53091   5.405   2.617   5.358  0.3086  0.4045  0.7734
  394MOL0     C53092   5.380   2.503   5.253  0.8294 -0.9036 -1.2620
  394MOL0     C53093   5.480   2.510   5.139  0.4974 -0.1597 -0.6124
  394MOL0     C53094   5.438   2.488   4.998 -0.1643  0.4075  0.1317
  394MOL0     C53095   5.388   2.341   4.995 -0.5578 -1.2022 -0.2681
  394MOL0     C53096   5.488   2.232   5.029  0.0330 -0.0293 -0.3724
  394MOL0     C53097   5.625   2.246   4.966 -0.4116  0.3343 -0.9200
  394MOL0     C53098   5.679   2.096   4.955 -0.0303  0.1390  0.0673
  394MOL0    Cl53099   5.852   2.097   4.913 -0.1355  0.1542  0.1766
  394MOL0     C53100   5.173   2.872   5.210  0.0756 -0.2705 -0.1112
  394MOL0     C53101   5.032   2.901   5.203 -0.1065  0.7863 -0.3281
  394MOL0     O53102   4.766   2.649   5.156 -0.2434 -0.2035  0.3462
  394MOL0     C53103   4.525   2.920   5.199 -0.7883 -0.4474 -0.0371
  394MOL0     C53104   4.388   2.949   5.192  0.8682 -0.6436  0.2524
  394MOL0     N53105   3.787   2.640   4.930  0.1881 -0.1323  0.1158
  394MOL0     N53106   3.812   2.516   4.944  0.3714 -0.1968  0.3007
  394MOL0     C53107   3.330   1.671   4.906  0.1921  0.6147  0.1437
  394MOL0     C53108   3.199   1.631   4.896  0.0358 -0.2554 -0.7500
  394MOL0     C53109   2.804   1.494   5.132  0.3484  0.0889  0.5973
  394MOL0     C53110   2.818   1.362   5.073  0.7953  0.2826  0.4608
  394MOL0     C53111   2.737   1.255   5.102  0.5761 -0.0649  0.4145
  394MOL0     C53112   2.630   1.280   5.192  0.7119  1.0848  0.2412
  394MOL0     O53113   2.544   1.173   5.226  0.1682  0.3609  0.1714
  394MOL0     C53114   2.511   1.086   5.115 -0.4296 -0.8256 -0.0103
  394MOL0     C53115   2.390   0.994   5.156  0.4513  0.0843  0.0674
  394MOL0     C53116   2.249   1.063   5.155  0.6095 -0.4862 -0.2563
  394MOL0     C53117   2.130   0.978   5.147  0.2792 -0.3486  0.2639
  394MOL0     C53118   2.010   1.052   5.184 -0.0840  0.3363 -0.0952
  394MOL0     C53119   1.912   1.102   5.227  0.2001 -0.6189  0.1943
  394MOL0     C53120   2.602   1.411   5.241 -0.5571  0.3201  0.3241
  394MOL0     C53121   2.697   1.510   5.216  0.0092 -0.3864 -0.4768
  394MOL0     C53122   2.658   1.650   5.280  0.2615  0.3135  0.9691
  394MOL0     H53123   3.120   1.693   5.229  0.2902  3.2935 -0.8874
  394MOL0     H53124   3.366   1.763   5.225  0.9027  3.2878 -2.8494
  394MOL0     H53125   3.494   1.934   5.130  1.9677  1.9771 -1.6628
  394MOL0     H53126   3.593   1.803   5.215 -2.0135 -0.9193  0.8826
  394MOL0     H53127   3.772   1.858   5.050 -1.4120 -0.6280 -2.5165
  394MOL0     H53128   3.731   1.985   5.165  2.3533 -0.9987 -0.0645
  394MOL0     H53129   3.622   2.115   4.974  0.9181 -0.8015  1.4458
  394MOL0     H53130   3.613   1.964   4.881 -0.1285 -0.9087 -1.6120
  394MOL0     H53131   3.881   2.078   4.981  2.5006 -0.3841 -2.3830
  394MOL0     H53132   3.843   1.980   4.831 -2.3900 -2.5046  1.0230
  394MOL0     H53133   3.756   2.182   4.729  2.6492  1.1757 -1.1375
  394MOL0     H53134   3.764   2.268   4.890  2.5301 -1.9561  3.5444
  394MOL0     H53135   3.983   2.190   4.681  2.3239 -0.5348  1.6285
  394MOL0     H53136   3.925   2.346   4.709 -0.9076  0.3776  0.1246
  394MOL0     H53137   4.127   2.356   4.799 -2.2025  0.9126 -2.5689
  394MOL0     H53138   4.118   2.203   4.870 -0.4360 -1.1034  1.3559
  394MOL0     H53139   3.931   2.309   5.040  1.8548 -2.8880  0.5228
  394MOL0     H53140   4.083   2.399   5.053  0.6790 -2.6647 -0.7199
  394MOL0     H53141   4.110   2.652   4.954  0.3599  0.3406 -2.9591
  394MOL0     H53142   4.030   2.876   4.922 -0.1684  2.8652 -0.6427
  394MOL0     H53143   3.869   2.887   4.830 -0.3701  2.3518  0.7618
  394MOL0     H53144   3.853   3.050   4.979 -0.7418 -0.8818 -2.5793
  394MOL0     H53145   3.762   2.921   5.052  0.2680  0.5415  0.1625
  394MOL0     H53146   3.932   2.865   5.201 -1.2731  0.0247 -1.9553
  394MOL0     H53147   3.904   3.042   5.229  1.7514  2.2315 -0.1214
  394MOL0     H53148   4.132   3.023   5.251 -1.5528  3.5471 -0.3116
  394MOL0     H53149   4.117   3.066   5.083 -0.5808 -2.0240 -1.7748
  394MOL0     H53150   4.272   2.634   5.121  2.3328 -1.4743 -0.2575
  394MOL0     H53151   4.513   2.580   5.126 -0.0609 -0.0399 -0.3953
  394MOL0     H53152   4.910   2.669   5.426 -1.5136  0.5580 -2.8274
  394MOL0     H53153   5.157   2.634   5.458  1.9033  0.8687 -0.1879
  394MOL0     H53154   5.512   2.631   5.376  0.2021  2.8352 -0.1394
  394MOL0     H53155   5.371   2.580   5.455 -0.9664 -3.2193 -0.8705
  394MOL0     H53156   5.388   2.414   5.315 -1.4887 -1.1212 -1.1933
  394MOL0     H53157   5.279   2.512   5.211  0.3073  1.2170  0.2617
  394MOL0     H53158   5.531   2.606   5.153 -2.6069  1.3417  1.4665
  394MOL0     H53159   5.567   2.445   5.155  2.7539  3.1734  2.4873
  394MOL0     H53160   5.527   2.495   4.934 -0.0895  0.2594  0.2190
  394MOL0     H53161   5.356   2.556   4.972 -2.7325 -1.4122  2.8080
  394MOL0     H53162   5.355   2.321   4.892  1.1103 -1.3835 -0.8076
  394MOL0     H53163   5.299   2.335   5.058 -1.1513  1.0143 -0.7900
  394MOL0     H53164   5.495   2.213   5.136 -1.5929 -0.3288 -0.3024
  394MOL0     H53165   5.439   2.142   4.989 -0.9509  0.2494  0.1810
  394MOL0     H53166   5.697   2.297   5.031  1.1415 -0.0071 -2.2963
  394MOL0     H53167   5.619   2.295   4.868 -0.4439  1.7105 -0.2435
  394MOL0     H53168   5.659   2.051   5.052  0.0334 -1.5504 -0.6745
  394MOL0     H53169   5.632   2.046   4.870  0.4008  1.0879 -0.7609
  394MOL0     H53170   5.247   2.923   5.150 -0.1345  0.1679  0.0023
  394MOL0     H53171   4.999   2.989   5.148 -1.9425 -0.6661 -1.7184
  394MOL0     H53172   4.599   2.996   5.223 -0.2043 -0.8848 -0.4148
  394MOL0     H53173   4.362   3.053   5.208  3.0562 -0.1780  1.1142
  394MOL0     H53174   3.383   1.656   4.812 -1.5068  4.2343 -1.5788
  394MOL0     H53175   3.145   1.607   4.805 -1.1975  1.5009 -0.5471
  394MOL0     H53176   2.896   1.345   4.999  0.9324  0.0444  0.6579
  394MOL0     H53177   2.767   1.166   5.048 -0.0629 -0.7754  1.2022
  394MOL0     H53178   2.596   1.023   5.086 -0.2865 -1.2685  1.3046
  394MOL0     H53179   2.479   1.156   5.037  3.3251  3.6736  1.9834
  394MOL0     H53180   2.395   0.937   5.249 -0.6686 -1.9929 -1.0603
  394MOL0     H53181   2.377   0.919   5.077 -1.6042 -1.2641  1.5917
  394MOL0     H53182   2.260   1.120   5.062  1.1165 -0.3193 -0.0995
  394MOL0     H53183   2.240   1.131   5.240 -2.4272 -0.5595 -0.4346
  394MOL0     H53184   2.126   0.930   5.049  1.2390 -3.4458  1.5972
  394MOL0     H53185   2.150   0.895   5.217 -1.9390  0.0647  1.4612
  394MOL0     H53186   1.813   1.113   5.269 -0.2892 -2.3099 -0.4392
  394MOL0     H53187   2.507   1.411   5.294  0.1908  1.2714  1.7201
  394MOL0     H53188   2.654   1.718   5.195  3.7968 -1.0362 -0.4645
  394MOL0     H53189   2.566   1.646   5.340 -1.0628  2.1654 -0.7908
  394MOL0     H53190   2.727   1.678   5.360  0.9554 -1.0349  0.8747
  395MOL0     O53191   3.280  11.133   2.230  1.0790  0.4600 -0.2723
  395MOL0     C53192   3.250  11.033   2.299  0.2424  0.7483 -0.5420
  395MOL0     O53193   3.124  11.006   2.351  0.2421  0.0125  0.1220
  395MOL0     C53194   3.017  11.068   2.291  0.7500  0.7662  0.2231
  395MOL0     C53195   2.950  11.173   2.355  0.6161 -0.6546 -0.6335
  395MOL0     C53196   2.854  11.254   2.299  0.3015  0.3782  0.6217
  395MOL0     C53197   2.813  11.224   2.170  0.2526  0.4772 -0.3453
  395MOL0     O53198   2.725  11.302   2.104 -0.0994 -0.2327  0.6608
  395MOL0     C53199   2.648  11.246   1.992  0.1720 -0.9356 -0.3751
  395MOL0     C53200   2.507  11.306   1.984 -0.9606  0.2456  0.9839
  395MOL0     C53201   2.423  11.223   1.890 -0.0348 -0.9905 -0.2090
  395MOL0     C53202   2.276  11.252   1.915  0.1564  0.6212  0.4641
  395MOL0     C53203   2.189  11.171   1.810 -0.9250 -0.6680 -1.1067
  395MOL0     C53204   2.046  11.233   1.803  1.0704  1.3746 -0.1978
  395MOL0     C53205   1.932  11.136   1.747 -0.1095  0.2623 -0.6864
  395MOL0     C53206   1.942  11.110   1.600 -0.3325 -0.0121 -0.3557
  395MOL0     N53207   2.038  11.002   1.564 -0.6613  0.0813 -0.1496
  395MOL0     C53208   2.005  10.874   1.605 -0.9382  0.4509  0.2128
  395MOL0     C53209   2.112  10.807   1.556 -0.8409  0.1724 -0.2745
  395MOL0     C53210   2.138  10.661   1.561 -0.4663  0.2687 -0.2659
  395MOL0     C53211   2.209  10.613   1.433  0.1393 -0.4671  0.2212
  395MOL0     C53212   2.230  10.463   1.435 -0.9960 -0.1993  0.0712
  395MOL0     C53213   2.317  10.412   1.317 -0.3986 -0.0745  0.2781
  395MOL0     O53214   2.448  10.388   1.362  0.0768 -0.2842 -0.4304
  395MOL0     C53215   2.546  10.332   1.288  0.0919 -0.3843  0.2030
  395MOL0     C53216   2.677  10.345   1.329  0.8728  0.6479 -0.9804
  395MOL0     C53217   2.775  10.285   1.253  0.0393  0.7139 -0.4658
  395MOL0     C53218   2.742  10.212   1.133  0.2784 -0.5056 -0.7546
  395MOL0     C53219   2.857  10.168   1.061  0.8552 -0.5855  0.4974
  395MOL0     O53220   2.981  10.203   1.108  0.0491 -0.2530 -0.1915
  395MOL0     C53221   3.089  10.205   1.022  0.1341 -0.1723 -0.3987
  395MOL0     C53222   3.121  10.320   0.943  0.5373 -0.1438  0.3636
  395MOL0     C53223   3.228  10.312   0.841  0.0819 -0.4485  0.1464
  395MOL0     C53224   3.308  10.197   0.835  0.3150  0.1861 -0.7117
  395MOL0     O53225   3.418  10.182   0.758  0.1571  0.6721 -0.5559
  395MOL0     C53226   3.515  10.289   0.766  0.7591 -0.3790  0.9449
  395MOL0     C53227   3.658  10.232   0.763 -0.1192 -0.4912 -0.2285
  395MOL0     C53228   3.693  10.203   0.615 -0.0502  0.0769  1.6694
  395MOL0     C53229   3.834  10.141   0.607  0.3927  0.0111  1.1242
  395MOL0     C53230   3.839  10.096   0.462 -0.1089  1.1565  0.1143
  395MOL0     C53231   3.963  10.001   0.446  0.8915  0.0765  0.1905
  395MOL0     C53232   4.091  10.072   0.413  0.6106 -0.2110  0.3394
  395MOL0     C53233   4.201   9.980   0.375  0.3164 -0.7963  0.2022
  395MOL0    Cl53234   4.250   9.879   0.500 -0.1761 -0.1395  0.1968
  395MOL0     C53235   3.267  10.085   0.905  1.0894  0.3296 -0.7388
  395MOL0     C53236   3.165  10.092   0.999 -0.1160  0.2267 -0.1076
  395MOL0     O53237   2.831  10.095   0.962  0.2660  0.0543 -1.1303
  395MOL0     C53238   2.612  10.205   1.098  0.7748  0.1198  0.4168
  395MOL0     C53239   2.508  10.258   1.175  0.2750 -0.2155 -0.1652
  395MOL0     N53240   2.194  10.895   1.491 -0.3959 -0.0949  0.0241
  395MOL0     N53241   2.155  11.018   1.496  0.0670  0.1138 -0.3675
  395MOL0     C53242   2.877  11.123   2.101 -0.1969  0.5217  0.7276
  395MOL0     C53243   2.985  11.044   2.157 -0.0591  0.2025  0.3866
  395MOL0     C53244   3.365  10.955   2.348 -0.8211 -0.2573  0.5841
  395MOL0     C53245   3.491  11.016   2.346 -0.0122 -0.0945 -0.3763
  395MOL0     C53246   3.601  10.950   2.394 -0.5709 -0.1843  0.9767
  395MOL0     C53247   3.600  10.819   2.447  0.1606 -0.4592 -1.0727
  395MOL0     O53248   3.701  10.755   2.512 -0.4085 -0.5044  0.7762
  395MOL0     C53249   3.830  10.748   2.456  0.5749 -0.5850 -0.3486
  395MOL0     C53250   3.845  10.618   2.381  1.2397  0.4492  0.2751
  395MOL0     C53251   3.975  10.604   2.308 -0.2661 -0.2040  1.5189
  395MOL0     C53252   4.111  10.668   2.370  0.1118  0.5674  1.2532
  395MOL0     C53253   4.128  10.592   2.484 -0.7858  0.5953 -0.9245
  395MOL0     C53254   4.150  10.520   2.577 -0.0383  0.2438 -0.0598
  395MOL0     C53255   3.480  10.759   2.445  0.4403  0.5051  0.7244
  395MOL0     C53256   3.366  10.824   2.392  0.0840  0.1394 -0.3486
  395MOL0     C53257   3.243  10.749   2.412  0.5259  0.1073 -0.2697
  395MOL0     H53258   2.981  11.201   2.455 -2.2153  1.6944 -0.2930
  395MOL0     H53259   2.809  11.337   2.352  0.3876  0.4857  0.5289
  395MOL0     H53260   2.708  11.253   1.901  0.2284  1.9643 -0.1881
  395MOL0     H53261   2.631  11.138   2.003 -3.1367 -0.8199 -2.8122
  395MOL0     H53262   2.501  11.409   1.947 -0.6575  0.7106  2.1959
  395MOL0     H53263   2.473  11.311   2.088  2.5511 -1.6694  2.3783
  395MOL0     H53264   2.416  11.119   1.924 -2.2281 -1.3578 -1.5419
  395MOL0     H53265   2.453  11.246   1.787 -2.5584  1.6044 -0.4896
  395MOL0     H53266   2.255  11.239   2.021  2.2199 -0.4333  0.7968
  395MOL0     H53267   2.245  11.355   1.899 -2.4834 -0.3294 -1.2867
  395MOL0     H53268   2.238  11.178   1.712 -1.1204  1.2419 -1.1177
  395MOL0     H53269   2.183  11.066   1.840  0.7727 -0.4552  0.1492
  395MOL0     H53270   2.012  11.248   1.906  0.1758 -1.5161  0.0173
  395MOL0     H53271   2.055  11.332   1.758  4.9842  0.2099 -2.4530
  395MOL0     H53272   1.839  11.191   1.764  0.7635  0.9973  2.3546
  395MOL0     H53273   1.949  11.041   1.800  3.0994  1.2079  0.2251
  395MOL0     H53274   1.843  11.092   1.558 -1.1696 -1.8228  2.1684
  395MOL0     H53275   1.974  11.208   1.563 -1.4965  0.9059  0.9232
  395MOL0     H53276   1.933  10.833   1.675 -1.9961  2.7326  0.5347
  395MOL0     H53277   2.199  10.627   1.645 -0.8278 -4.2085 -1.5454
  395MOL0     H53278   2.046  10.602   1.568  0.2763 -0.9521 -0.3539
  395MOL0     H53279   2.153  10.647   1.345 -1.3110 -1.0363  0.9000
  395MOL0     H53280   2.307  10.662   1.438  1.3609 -2.5808 -1.3592
  395MOL0     H53281   2.136  10.409   1.421 -1.3825  0.1666  1.1018
  395MOL0     H53282   2.278  10.430   1.528 -0.4262 -0.4321 -0.3043
  395MOL0     H53283   2.307  10.487   1.238 -1.6531 -0.5985 -0.0858
  395MOL0     H53284   2.270  10.317   1.288 -0.5601 -0.0769  0.5465
  395MOL0     H53285   2.686  10.406   1.418 -1.8939 -2.7873  1.9854
  395MOL0     H53286   2.879  10.296   1.283  0.0942 -0.1354 -0.3128
  395MOL0     H53287   3.051  10.403   0.947 -1.2156 -1.5554  0.2003
  395MOL0     H53288   3.267  10.399   0.789  1.4685 -1.3518 -0.3887
  395MOL0     H53289   3.507  10.354   0.678 -0.4484 -2.2863 -0.4347
  395MOL0     H53290   3.492  10.346   0.857 -2.9615 -0.5964  0.3131
  395MOL0     H53291   3.740  10.294   0.802 -0.2196 -0.4432 -0.0938
  395MOL0     H53292   3.652  10.139   0.821 -0.6358  1.1441  2.4922
  395MOL0     H53293   3.620  10.128   0.581  1.7637 -1.2753  0.5499
  395MOL0     H53294   3.699  10.292   0.552 -1.1684 -1.6976 -1.1630
  395MOL0     H53295   3.854  10.057   0.674  1.2156 -0.2196  0.6034
  395MOL0     H53296   3.919  10.205   0.630  2.1922 -1.1235 -1.7649
  395MOL0     H53297   3.838  10.178   0.389 -0.6863  0.4410 -0.6912
  395MOL0     H53298   3.750  10.042   0.430  0.0959  1.2120 -0.5542
  395MOL0     H53299   3.966   9.941   0.537  1.0325 -0.0959  0.0727
  395MOL0     H53300   3.938   9.930   0.366  1.3466 -0.4118  0.4796
  395MOL0     H53301   4.113  10.119   0.509  2.1352  0.1366 -0.1535
  395MOL0     H53302   4.071  10.142   0.332  2.0104  0.3734  0.4747
  395MOL0     H53303   4.184   9.930   0.279  0.2627  1.2898 -0.9393
  395MOL0     H53304   4.290  10.040   0.356  0.1928 -0.8286 -0.4936
  395MOL0     H53305   3.322   9.992   0.892 -0.0887 -0.1766 -2.4619
  395MOL0     H53306   3.159   9.997   1.051  0.6974  1.0596  1.5790
  395MOL0     H53307   2.584  10.157   1.005  2.6239 -0.0510 -0.0831
  395MOL0     H53308   2.406  10.243   1.141  0.5720 -0.1680 -1.0986
  395MOL0     H53309   2.853  11.098   1.998  3.2758  0.8039 -0.2686
  395MOL0     H53310   3.028  10.967   2.094 -2.1304 -1.2890  0.6922
  395MOL0     H53311   3.499  11.119   2.313  2.4403 -0.3977 -0.8802
  395MOL0     H53312   3.691  11.007   2.374  0.0125 -1.4379 -0.1390
  395MOL0     H53313   3.905  10.758   2.535 -0.9560 -0.0751  1.1042
  395MOL0     H53314   3.850  10.828   2.385 -1.7618 -1.2696 -1.8972
  395MOL0     H53315   3.759  10.611   2.314  0.6468 -1.6330  1.1827
  395MOL0     H53316   3.832  10.541   2.457 -3.0210  0.1537 -0.5280
  395MOL0     H53317   3.957  10.658   2.215 -0.2327 -0.8651  1.1199
  395MOL0     H53318   3.991  10.500   2.277  0.0657  0.6759 -1.5729
  395MOL0     H53319   4.184  10.635   2.295 -1.4425 -1.5669  0.5808
  395MOL0     H53320   4.097  10.776   2.379  1.4691  0.9625 -0.7339
  395MOL0     H53321   4.184  10.440   2.640 -0.1020  0.8031  0.6893
  395MOL0     H53322   3.472  10.663   2.494  4.6087 -0.2670  0.2081
  395MOL0     H53323   3.189  10.795   2.496  1.0553 -0.8614  0.6296
  395MOL0     H53324   3.185  10.763   2.321 -1.4315 -1.3168  0.6954
  395MOL0     H53325   3.260  10.643   2.433 -2.5634 -0.1421  1.6745
  396MOL0     O53326   6.972   5.518   6.085 -0.5113  0.3653 -0.5105
  396MOL0     C53327   6.931   5.534   6.204 -0.7194  0.3012  0.7540
  396MOL0     O53328   6.802   5.562   6.233  0.8249  0.0938  0.4708
  396MOL0     C53329   6.717   5.578   6.129  0.3672 -0.3166  0.1453
  396MOL0     C53330   6.699   5.711   6.086  0.2449 -0.4795  0.5659
  396MOL0     C53331   6.635   5.740   5.967  0.0625 -0.7077  0.2822
  396MOL0     C53332   6.581   5.632   5.894 -0.0715  0.6829  0.5717
  396MOL0     O53333   6.513   5.653   5.770 -0.2096 -0.0052  0.7017
  396MOL0     C53334   6.502   5.789   5.716 -0.3270  0.1731  0.1106
  396MOL0     C53335   6.627   5.853   5.645  0.4075  0.0705  0.0195
  396MOL0     C53336   6.734   5.753   5.605  0.3689 -0.3264  0.4524
  396MOL0     C53337   6.813   5.805   5.486 -0.2500  0.7060  0.8091
  396MOL0     C53338   6.956   5.850   5.531  0.0304 -0.0407  0.0032
  396MOL0     C53339   7.020   5.918   5.411 -0.4849 -0.0027  0.5931
  396MOL0     C53340   7.160   5.965   5.435  0.1014 -0.2495  0.6386
  396MOL0     C53341   7.171   6.076   5.538  0.1732 -0.5790  0.2502
  396MOL0     N53342   7.298   6.144   5.507  0.1943 -0.4838 -0.9568
  396MOL0     C53343   7.322   6.270   5.557 -0.2389  0.1901 -0.3131
  396MOL0     C53344   7.452   6.297   5.527 -0.4157 -0.1383 -0.2319
  396MOL0     C53345   7.504   6.425   5.576 -0.0743 -0.0250 -0.3509
  396MOL0     C53346   7.627   6.472   5.498 -0.1820 -0.5164  0.1262
  396MOL0     C53347   7.658   6.621   5.524  0.2180  1.0808 -0.3112
  396MOL0     C53348   7.808   6.651   5.496  1.4045 -0.0892  0.1111
  396MOL0     O53349   7.843   6.766   5.574  0.3343  0.7147  0.1088
  396MOL0     C53350   7.965   6.822   5.528  0.1191 -0.0194 -0.1078
  396MOL0     C53351   8.004   6.941   5.599  0.6143  0.0274 -0.1506
  396MOL0     C53352   8.131   6.984   5.591 -0.3325  0.2990 -0.0327
  396MOL0     C53353   8.227   6.938   5.495  0.0121  0.0435 -0.3098
  396MOL0     C53354   8.360   6.990   5.479 -0.1259 -0.2392  0.4944
  396MOL0     O53355   8.416   6.971   5.352 -0.5686  0.3155  0.2471
  396MOL0     C53356   8.541   7.014   5.339  0.1650  0.0877  0.8542
  396MOL0     C53357   8.555   7.149   5.308 -0.5274 -0.0563  0.5484
  396MOL0     C53358   8.682   7.197   5.271 -0.0380 -0.0428 -0.7114
  396MOL0     C53359   8.792   7.113   5.290  0.7662 -0.0807 -0.0335
  396MOL0     O53360   8.914   7.155   5.247  0.4882 -0.0027 -0.3396
  396MOL0     C53361   8.942   7.290   5.201 -0.4001  0.4679 -0.0768
  396MOL0     C53362   9.093   7.297   5.178  0.3855 -0.1270 -0.6902
  396MOL0     C53363   9.133   7.287   5.027 -0.0219  0.0750  0.0495
  396MOL0     C53364   9.277   7.308   5.008  0.8392 -0.7752 -0.2293
  396MOL0     C53365   9.376   7.218   5.085  0.3148  1.5061 -0.2269
  396MOL0     C53366   9.347   7.062   5.063 -0.2437 -0.7122 -0.4079
  396MOL0     C53367   9.350   7.004   4.918  0.4312 -0.9353 -0.0920
  396MOL0     C53368   9.501   6.982   4.875 -0.6688  0.2242 -0.9143
  396MOL0    Cl53369   9.592   6.863   4.971 -0.2181  0.1707 -0.8525
  396MOL0     C53370   8.781   6.979   5.345  0.2732  0.1934 -0.1075
  396MOL0     C53371   8.649   6.933   5.373 -1.4708 -0.2565 -0.8913
  396MOL0     O53372   8.415   7.036   5.581  0.3146 -0.2252  0.5488
  396MOL0     C53373   8.176   6.834   5.413 -0.8473  0.0119 -0.1020
  396MOL0     C53374   8.051   6.770   5.425 -0.2080  0.4362  0.3463
  396MOL0     N53375   7.509   6.187   5.475 -0.5845 -0.3706  0.6538
  396MOL0     N53376   7.420   6.092   5.468 -0.0291 -0.1019 -0.3913
  396MOL0     C53377   6.592   5.505   5.935  0.7059  0.2070 -0.9538
  396MOL0     C53378   6.654   5.475   6.052 -0.6045  0.3120 -0.1926
  396MOL0     C53379   7.035   5.551   6.312 -0.0200 -0.0379 -0.0685
  396MOL0     C53380   7.174   5.574   6.270 -0.5859  0.3137 -0.6205
  396MOL0     C53381   7.281   5.572   6.369 -0.3413 -0.0190  0.5573
  396MOL0     C53382   7.241   5.579   6.504 -1.2364 -0.1697  0.1872
  396MOL0     O53383   7.326   5.578   6.615  0.5580  0.4809  0.4437
  396MOL0     C53384   7.463   5.538   6.599  0.3055  0.2684 -0.2945
  396MOL0     C53385   7.500   5.390   6.603 -0.6502  0.7648  0.3534
  396MOL0     C53386   7.643   5.371   6.563 -0.4091  0.6546  0.1624
  396MOL0     C53387   7.642   5.240   6.474 -0.4076 -0.1768 -0.1209
  396MOL0     C53388   7.566   5.251   6.344 -0.3137  1.2018 -0.5761
  396MOL0     C53389   7.498   5.267   6.253 -0.3504 -0.2086 -0.7944
  396MOL0     C53390   7.111   5.574   6.543  0.3851  0.0886  0.1473
  396MOL0     C53391   7.007   5.561   6.456 -0.2749 -0.5646 -0.3535
  396MOL0     C53392   6.871   5.548   6.515  0.0551 -0.6258  0.3765
  396MOL0     H53393   6.743   5.785   6.152  0.2576  1.2387 -1.2667
  396MOL0     H53394   6.638   5.842   5.933 -0.0174 -1.8987 -3.7640
  396MOL0     H53395   6.429   5.777   5.635  1.5966  0.8632 -1.8338
  396MOL0     H53396   6.471   5.858   5.795 -0.4436 -0.9580  1.0711
  396MOL0     H53397   6.675   5.924   5.712  1.8378  1.1626 -2.0690
  396MOL0     H53398   6.587   5.914   5.563  0.0836  2.0684  1.5688
  396MOL0     H53399   6.679   5.661   5.582  1.0736 -0.6592  0.0820
  396MOL0     H53400   6.805   5.747   5.688 -0.9493 -0.7162  1.5935
  396MOL0     H53401   6.821   5.715   5.424  0.6671  2.3481 -1.5814
  396MOL0     H53402   6.763   5.883   5.428 -1.5372 -1.1876 -0.7691
  396MOL0     H53403   6.956   5.918   5.616 -0.6391 -0.3280  0.2404
  396MOL0     H53404   7.011   5.764   5.570  0.5093 -1.2235 -3.0486
  396MOL0     H53405   7.020   5.847   5.328  0.2014 -0.7971  1.2555
  396MOL0     H53406   6.955   6.000   5.379 -1.4968  0.4634  3.5291
  396MOL0     H53407   7.190   6.008   5.339  1.1328 -2.0891  0.0895
  396MOL0     H53408   7.234   5.889   5.462  0.9502  0.6637  0.9304
  396MOL0     H53409   7.094   6.149   5.510  1.5133  0.6968 -0.2344
  396MOL0     H53410   7.155   6.047   5.642  1.0530  1.5138  1.0124
  396MOL0     H53411   7.254   6.334   5.611 -0.9728 -0.9928  0.2154
  396MOL0     H53412   7.424   6.500   5.579  0.4996  0.5794 -0.0687
  396MOL0     H53413   7.532   6.410   5.680  0.0174  0.2118 -0.3410
  396MOL0     H53414   7.712   6.408   5.525  1.6949  1.1658 -1.4762
  396MOL0     H53415   7.602   6.461   5.393 -3.6873  0.9399  0.6590
  396MOL0     H53416   7.634   6.647   5.628  0.2980 -0.0163 -0.0092
  396MOL0     H53417   7.589   6.681   5.465 -0.7697 -1.6775 -2.1058
  396MOL0     H53418   7.812   6.671   5.388  1.4530  0.5268  0.2274
  396MOL0     H53419   7.857   6.556   5.521 -1.0789 -2.2302 -2.3369
  396MOL0     H53420   7.931   6.966   5.676  2.1697 -2.5565  2.3749
  396MOL0     H53421   8.150   7.065   5.661 -1.7290 -1.6026  2.7048
  396MOL0     H53422   8.469   7.211   5.285 -0.0753  0.6687  0.7927
  396MOL0     H53423   8.692   7.302   5.244  0.3852  0.1845  0.2881
  396MOL0     H53424   8.888   7.314   5.109  2.1744 -0.9997 -2.1071
  396MOL0     H53425   8.920   7.355   5.286  0.0252 -0.9675  1.1578
  396MOL0     H53426   9.141   7.382   5.226  0.5771 -0.7727  0.2976
  396MOL0     H53427   9.140   7.211   5.226  0.3437 -0.3205 -0.9902
  396MOL0     H53428   9.117   7.192   4.976  2.7067 -0.0837 -0.6537
  396MOL0     H53429   9.078   7.357   4.963 -0.1888 -1.3267 -1.3963
  396MOL0     H53430   9.298   7.414   5.024  0.1185 -0.5666 -0.6727
  396MOL0     H53431   9.289   7.298   4.900 -2.8597 -2.1979 -0.6517
  396MOL0     H53432   9.370   7.229   5.194  0.1959 -3.0050  0.4070
  396MOL0     H53433   9.472   7.234   5.035 -0.3678  0.9905 -1.7721
  396MOL0     H53434   9.407   6.999   5.130 -1.1048  0.3938  1.4893
  396MOL0     H53435   9.245   7.054   5.100  0.2758  0.0885  1.3162
  396MOL0     H53436   9.291   7.066   4.850 -2.3506 -1.4672  1.6698
  396MOL0     H53437   9.308   6.903   4.921  1.4254 -1.3344  1.9040
  396MOL0     H53438   9.510   6.953   4.770  1.8600 -1.0890 -0.4096
  396MOL0     H53439   9.554   7.078   4.869  0.8859 -0.6662 -1.9514
  396MOL0     H53440   8.873   6.924   5.354  0.6136  0.3417 -2.1871
  396MOL0     H53441   8.641   6.830   5.407 -1.1475 -0.7302 -2.1851
  396MOL0     H53442   8.240   6.783   5.342 -1.0009 -0.7224  0.2734
  396MOL0     H53443   8.018   6.683   5.368 -2.3850  1.9995 -0.9214
  396MOL0     H53444   6.542   5.424   5.883  1.1516 -0.9157  0.3004
  396MOL0     H53445   6.679   5.372   6.078  4.1000  0.8418 -1.6751
  396MOL0     H53446   7.191   5.584   6.163  2.1615  1.1385 -0.1845
  396MOL0     H53447   7.383   5.560   6.334  0.2443  0.3303  2.0703
  396MOL0     H53448   7.521   5.580   6.681 -1.7700  0.4884  1.1363
  396MOL0     H53449   7.505   5.579   6.506 -1.1660  2.9236  0.0965
  396MOL0     H53450   7.431   5.340   6.535  3.9323  0.5327 -4.8007
  396MOL0     H53451   7.494   5.351   6.705 -0.2806  3.5424  1.5485
  396MOL0     H53452   7.704   5.361   6.653  0.5347 -0.0549 -0.5379
  396MOL0     H53453   7.695   5.451   6.509 -0.0217  0.4496  0.2286
  396MOL0     H53454   7.750   5.232   6.460 -0.1908  2.6227 -0.7057
  396MOL0     H53455   7.599   5.159   6.535  0.2113  0.7130  1.5669
  396MOL0     H53456   7.427   5.284   6.174 -1.3799  1.1792  0.3674
  396MOL0     H53457   7.081   5.594   6.646 -0.0894  1.4653 -0.2305
  396MOL0     H53458   6.798   5.621   6.479 -1.9961 -0.2606  4.5980
  396MOL0     H53459   6.843   5.445   6.492  2.4254 -1.6820  1.8630
  396MOL0     H53460   6.873   5.563   6.624  1.1975  1.6609  0.1037
  397MOL0     O53461   6.214  10.406   2.518  0.3594 -0.2733 -0.4113
  397MOL0     C53462   6.228  10.506   2.601  0.8405  0.6196 -0.6422
  397MOL0     O53463   6.347  10.577   2.625  0.9864  0.0820  0.0104
  397MOL0     C53464   6.460  10.557   2.552 -0.1332  0.3487 -0.3287
  397MOL0     C53465   6.568  10.541   2.637  0.0318 -0.3004  0.6230
  397MOL0     C53466   6.694  10.513   2.575  0.3350 -0.4403  0.0639
  397MOL0     C53467   6.702  10.496   2.435 -0.1414 -1.1984 -1.3405
  397MOL0     O53468   6.815  10.466   2.370  0.2532 -0.0138  0.3127
  397MOL0     C53469   6.937  10.433   2.431 -0.3334 -0.1390  0.1650
  397MOL0     C53470   7.056  10.413   2.331  0.8402  0.2830 -0.5199
  397MOL0     C53471   7.189  10.361   2.388 -0.3925  0.9869  0.5664
  397MOL0     C53472   7.172  10.341   2.544 -0.9835 -1.1383  0.3511
  397MOL0     C53473   7.305  10.285   2.616  0.3211 -0.3397 -0.4872
  397MOL0     C53474   7.267  10.162   2.712 -0.6938  0.4373  0.2635
  397MOL0     C53475   7.387  10.129   2.805  0.4784  0.3014 -0.1359
  397MOL0     C53476   7.363  10.043   2.930  0.7269  0.1948 -0.3936
  397MOL0     N53477   7.489  10.002   2.993  0.5090 -0.1169  0.0044
  397MOL0     C53478   7.610   9.984   2.940 -0.1733 -0.1409 -0.0402
  397MOL0     C53479   7.694   9.975   3.048  0.1916 -0.5500 -0.2454
  397MOL0     C53480   7.840   9.964   3.031 -0.8578  0.1850 -0.2729
  397MOL0     C53481   7.914  10.087   3.055 -0.3812  0.3162  0.1945
  397MOL0     C53482   7.906  10.191   2.945 -0.1412  0.8955 -0.3659
  397MOL0     C53483   7.976  10.312   2.990  0.0648  0.1602 -0.6431
  397MOL0     O53484   8.115  10.278   3.015 -0.6709  0.2774  0.2331
  397MOL0     C53485   8.198  10.382   3.057  0.7737  0.2461  0.8028
  397MOL0     C53486   8.200  10.416   3.197 -0.1416 -0.5754  0.9599
  397MOL0     C53487   8.294  10.502   3.258  0.6686  0.8821  0.3583
  397MOL0     C53488   8.391  10.561   3.171 -0.6154  0.1693 -0.7080
  397MOL0     C53489   8.493  10.644   3.239 -0.1737 -0.5604  0.3408
  397MOL0     O53490   8.577  10.715   3.160 -0.2091  0.9840  0.3194
  397MOL0     C53491   8.667  10.801   3.225 -0.1542 -1.3535  0.3372
  397MOL0     C53492   8.646  10.938   3.217 -0.1680  0.4987  0.0083
  397MOL0     C53493   8.742  11.025   3.264  0.7208  0.2086  0.0819
  397MOL0     C53494   8.865  10.989   3.306 -0.8422 -0.4209  0.5992
  397MOL0     O53495   8.958  11.077   3.355 -0.3134 -0.1747 -0.7306
  397MOL0     C53496   8.938  11.219   3.347  0.8881  0.2896 -0.4096
  397MOL0     C53497   9.068  11.291   3.387  0.3596  0.2979 -0.4824
  397MOL0     C53498   9.197  11.259   3.315 -0.0489 -0.1290  0.8806
  397MOL0     C53499   9.307  11.359   3.342 -0.7679  0.8129 -0.0692
  397MOL0     C53500   9.430  11.314   3.258 -0.1690 -0.3295 -0.0620
  397MOL0     C53501   9.545  11.407   3.294 -0.6025  0.1873 -0.4417
  397MOL0     C53502   9.660  11.382   3.186 -0.2826 -0.0766  0.4455
  397MOL0     C53503   9.782  11.462   3.219 -0.1302  0.0004  0.1113
  397MOL0    Cl53504   9.855  11.384   3.371 -0.4495  0.0664  0.0244
  397MOL0     C53505   8.897  10.857   3.309 -0.3408 -0.4411  1.0822
  397MOL0     C53506   8.797  10.766   3.263 -0.2164 -0.2985 -0.6783
  397MOL0     O53507   8.500  10.641   3.363 -1.3687  0.4210  0.7228
  397MOL0     C53508   8.395  10.531   3.035  0.5368  0.2916  0.6619
  397MOL0     C53509   8.304  10.434   2.981 -0.0469  0.0374  0.5820
  397MOL0     N53510   7.615   9.981   3.163  0.4807 -0.2230 -0.0607
  397MOL0     N53511   7.493   9.998   3.123  0.0354 -0.1111 -0.2462
  397MOL0     C53512   6.587  10.525   2.355 -0.0758 -0.2483 -0.4385
  397MOL0     C53513   6.460  10.548   2.414  0.3961 -1.0490 -0.5121
  397MOL0     C53514   6.111  10.555   2.679 -0.0179 -0.1208  0.4116
  397MOL0     C53515   6.106  10.687   2.715 -0.1701  0.4185 -0.3748
  397MOL0     C53516   6.005  10.737   2.795 -0.2166  0.5336  0.6184
  397MOL0     C53517   5.893  10.659   2.829 -1.0936 -0.6165  0.5624
  397MOL0     O53518   5.799  10.719   2.912  0.0664  0.2371 -0.1766
  397MOL0     C53519   5.675  10.640   2.944 -0.1182 -0.1729 -0.0086
  397MOL0     C53520   5.559  10.700   3.024  0.2334  0.7922 -0.5612
  397MOL0     C53521   5.598  10.724   3.172  0.1009 -0.5676 -0.2462
  397MOL0     C53522   5.514  10.834   3.244  0.4927 -0.4368 -0.1946
  397MOL0     C53523   5.383  10.782   3.282 -0.1093  0.5213 -0.9139
  397MOL0     C53524   5.280  10.728   3.312  0.4945 -0.9282  0.9130
  397MOL0     C53525   5.892  10.531   2.778 -0.8664 -0.1454 -0.9088
  397MOL0     C53526   5.997  10.479   2.703  0.1148 -0.4565 -0.1407
  397MOL0     C53527   5.977  10.338   2.651 -0.0068  0.3545  0.6616
  397MOL0     H53528   6.557  10.536   2.745 -2.8276 -0.8576  0.4048
  397MOL0     H53529   6.780  10.483   2.634 -0.0608 -2.6746 -0.4040
  397MOL0     H53530   6.958  10.521   2.492 -1.8985 -0.1543  0.7714
  397MOL0     H53531   6.920  10.350   2.500  2.0948 -0.5369  0.3712
  397MOL0     H53532   7.076  10.512   2.289 -0.4698  0.6813 -0.2451
  397MOL0     H53533   7.033  10.344   2.249 -0.7719  0.5681 -0.3298
  397MOL0     H53534   7.261  10.440   2.369 -1.9112  2.2423 -0.1914
  397MOL0     H53535   7.220  10.266   2.343 -3.3569  0.3972 -0.4685
  397MOL0     H53536   7.134  10.433   2.588  1.7981  0.3879 -0.1720
  397MOL0     H53537   7.100  10.261   2.563  1.0476 -2.7278  1.8141
  397MOL0     H53538   7.377  10.268   2.536  1.2065  2.6406 -0.4713
  397MOL0     H53539   7.344  10.364   2.681 -1.1396 -2.2768  3.0468
  397MOL0     H53540   7.183  10.197   2.772  0.7584  0.3978  2.4301
  397MOL0     H53541   7.234  10.076   2.653 -0.8688  0.5008  0.2684
  397MOL0     H53542   7.456  10.211   2.827 -0.3234  0.7371  0.8130
  397MOL0     H53543   7.445  10.060   2.743  0.1829  0.8910 -1.0868
  397MOL0     H53544   7.313  10.114   2.997  1.3383 -0.0104  0.2857
  397MOL0     H53545   7.307   9.950   2.914  0.3194 -0.3170  3.1088
  397MOL0     H53546   7.640   9.987   2.836 -0.1106  0.4941 -0.0072
  397MOL0     H53547   7.880   9.891   3.101  0.4244  2.0805  1.0668
  397MOL0     H53548   7.860   9.935   2.927 -0.1087  0.5953 -0.2457
  397MOL0     H53549   7.878  10.131   3.150 -1.1318  1.0144 -0.3918
  397MOL0     H53550   8.018  10.066   3.082 -0.4149  0.2287  0.2560
  397MOL0     H53551   7.801  10.216   2.927 -0.1843  1.2152  0.3143
  397MOL0     H53552   7.943  10.150   2.850  1.3844  0.2522  0.4720
  397MOL0     H53553   7.938  10.350   3.085  0.9474  2.6732 -1.2321
  397MOL0     H53554   7.976  10.386   2.909 -0.8382  0.8271 -0.0385
  397MOL0     H53555   8.122  10.377   3.262 -1.0686  0.5599  0.5665
  397MOL0     H53556   8.275  10.523   3.363 -1.4167 -0.7556  0.3568
  397MOL0     H53557   8.555  10.980   3.174 -2.1061 -3.3917 -0.1371
  397MOL0     H53558   8.707  11.127   3.266 -0.0416 -0.0443  2.5657
  397MOL0     H53559   8.902  11.243   3.247 -6.0747 -0.0940  1.4853
  397MOL0     H53560   8.861  11.247   3.420 -0.7882 -1.2689 -1.5087
  397MOL0     H53561   9.055  11.399   3.375  0.3895  0.5485  1.4218
  397MOL0     H53562   9.093  11.282   3.493  0.9404  0.9638 -0.5525
  397MOL0     H53563   9.232  11.157   3.335  0.1723 -0.3103 -0.3592
  397MOL0     H53564   9.171  11.254   3.209  1.9593 -0.7561  0.3757
  397MOL0     H53565   9.333  11.356   3.448  0.2324 -1.1999 -0.3155
  397MOL0     H53566   9.267  11.459   3.324 -2.9873 -0.2161 -1.3274
  397MOL0     H53567   9.409  11.318   3.151 -3.9077  1.2213  0.5706
  397MOL0     H53568   9.451  11.210   3.286 -0.1360 -0.6113 -1.0821
  397MOL0     H53569   9.518  11.513   3.306  0.2922  0.2735  1.0287
  397MOL0     H53570   9.575  11.360   3.388 -2.2841  1.1012  0.6133
  397MOL0     H53571   9.625  11.423   3.091  1.2747 -3.3737 -1.7678
  397MOL0     H53572   9.684  11.279   3.158 -2.1610 -0.4671  0.1600
  397MOL0     H53573   9.863  11.459   3.145  2.1919  1.4747  2.3999
  397MOL0     H53574   9.759  11.568   3.228 -1.1310 -0.2851  1.2347
  397MOL0     H53575   8.988  10.827   3.359 -1.2090 -3.7283  0.8723
  397MOL0     H53576   8.824  10.662   3.281  2.2441  0.4559  0.4473
  397MOL0     H53577   8.474  10.567   2.969  0.8664  0.1208  0.9623
  397MOL0     H53578   8.316  10.399   2.879  4.3789 -1.4686  1.3556
  397MOL0     H53579   6.588  10.508   2.248  0.6490  0.1548 -0.4992
  397MOL0     H53580   6.377  10.559   2.344  0.6662 -1.8368 -0.9758
  397MOL0     H53581   6.193  10.750   2.699  0.3455 -0.6201 -1.8757
  397MOL0     H53582   6.023  10.835   2.838  0.6601 -0.5436  2.9115
  397MOL0     H53583   5.703  10.549   2.999 -3.7231 -2.3703 -1.4164
  397MOL0     H53584   5.633  10.612   2.847 -1.6779 -1.2829  0.9432
  397MOL0     H53585   5.474  10.631   3.015 -1.0089  2.3919 -1.6474
  397MOL0     H53586   5.528  10.783   2.960 -0.9678 -0.4530 -1.6648
  397MOL0     H53587   5.698  10.769   3.174 -0.8583  1.8476  3.1224
  397MOL0     H53588   5.588  10.626   3.220 -1.6205 -0.7998 -0.9857
  397MOL0     H53589   5.575  10.868   3.328  2.0723  1.6636 -2.0755
  397MOL0     H53590   5.506  10.909   3.165  1.8810 -3.2670 -3.3213
  397MOL0     H53591   5.198  10.666   3.341  0.4124 -0.9202  0.6989
  397MOL0     H53592   5.805  10.467   2.786 -0.5537 -0.3909  0.8534
  397MOL0     H53593   6.055  10.267   2.680 -1.4804 -0.8403  1.8778
  397MOL0     H53594   5.881  10.290   2.675  0.4421 -1.5788 -1.1389
  397MOL0     H53595   5.983  10.331   2.542 -1.3305 -1.1661  0.6426
  398MOL0     O53596   0.605   6.671   6.962  0.5716 -0.0337 -0.1159
  398MOL0     C53597   0.616   6.711   7.077  0.4054 -0.2650 -0.0267
  398MOL0     O53598   0.531   6.690   7.177  0.0846  0.4157  0.0327
  398MOL0     C53599   0.426   6.618   7.137  0.9700  0.8202  0.6651
  398MOL0     C53600   0.305   6.680   7.093 -1.3563  1.0553  0.4896
  398MOL0     C53601   0.199   6.604   7.057  0.4459 -0.3737  0.6131
  398MOL0     C53602   0.199   6.464   7.065  0.0345 -0.7356 -1.1039
  398MOL0     O53603   0.083   6.391   7.056  0.6574 -0.1627  0.9125
  398MOL0     C53604   0.034   6.411   6.922 -0.2460  0.3301  0.4380
  398MOL0     C53605  -0.108   6.468   6.933  0.5155  0.6525  0.1727
  398MOL0     C53606  -0.209   6.392   7.014 -0.5740  0.6415  0.0573
  398MOL0     C53607  -0.339   6.472   7.015 -0.5804  0.0359 -0.0890
  398MOL0     C53608  -0.436   6.411   7.116  0.0844 -0.0370 -0.2912
  398MOL0     C53609  -0.573   6.475   7.093 -0.4055  0.3329 -0.6297
  398MOL0     C53610  -0.689   6.393   7.165  0.2931  0.0804  0.3957
  398MOL0     C53611  -0.669   6.393   7.319  0.4132  0.7504 -1.0331
  398MOL0     N53612  -0.762   6.305   7.394 -0.0893  0.0377  0.5589
  398MOL0     C53613  -0.893   6.337   7.413  0.2240  0.4745  0.2054
  398MOL0     C53614  -0.936   6.242   7.493  0.3613  0.0966 -1.1123
  398MOL0     C53615  -1.082   6.217   7.533  0.2877  0.6944  0.2619
  398MOL0     C53616  -1.185   6.314   7.474 -0.4852 -0.9547 -0.0284
  398MOL0     C53617  -1.327   6.276   7.515 -0.1776 -0.9700  0.5223
  398MOL0     C53618  -1.416   6.401   7.484  0.1348  0.5054  0.6779
  398MOL0     O53619  -1.550   6.383   7.538  0.1947 -0.0614 -0.6049
  398MOL0     C53620  -1.621   6.497   7.557 -0.4226 -0.3003  0.6285
  398MOL0     C53621  -1.634   6.551   7.682 -0.5320 -0.7641 -0.8605
  398MOL0     C53622  -1.705   6.678   7.707 -0.5358  0.2831  0.0545
  398MOL0     C53623  -1.767   6.739   7.599 -0.0603 -1.1269  0.0959
  398MOL0     C53624  -1.836   6.872   7.603  0.5582 -0.3438  0.2343
  398MOL0     O53625  -1.922   6.898   7.511  0.6325 -0.0323 -0.0703
  398MOL0     C53626  -1.997   7.006   7.505 -0.0043  0.0321 -0.3949
  398MOL0     C53627  -2.133   6.992   7.545 -0.7568 -0.4446  0.1691
  398MOL0     C53628  -2.211   7.108   7.568  0.0183 -0.0631  0.6732
  398MOL0     C53629  -2.168   7.234   7.541 -0.4911  0.0278 -0.2475
  398MOL0     O53630  -2.260   7.335   7.558 -0.1312  0.3791  0.1785
  398MOL0     C53631  -2.362   7.347   7.456  0.0499  0.3486 -0.2882
  398MOL0     C53632  -2.499   7.309   7.501 -0.2033  0.0482 -0.0882
  398MOL0     C53633  -2.548   7.373   7.634  0.0317 -0.0501  0.4324
  398MOL0     C53634  -2.545   7.521   7.624  0.0766  0.8254  0.2342
  398MOL0     C53635  -2.620   7.583   7.736  0.6316  0.3105 -0.3335
  398MOL0     C53636  -2.568   7.553   7.874  0.0337 -0.2406 -0.3102
  398MOL0     C53637  -2.637   7.649   7.961 -0.1479 -0.1219  0.0428
  398MOL0     C53638  -2.625   7.633   8.115 -0.2309 -0.4547 -0.5588
  398MOL0    Cl53639  -2.461   7.612   8.175  0.0003  0.4043 -0.3477
  398MOL0     C53640  -2.034   7.249   7.503 -0.3258  0.2291 -0.2681
  398MOL0     C53641  -1.955   7.128   7.487 -0.4694 -0.3033 -0.0976
  398MOL0     O53642  -1.814   6.947   7.702 -0.3011  0.2011  0.4450
  398MOL0     C53643  -1.758   6.678   7.476  0.0538  0.4955 -0.3840
  398MOL0     C53644  -1.683   6.562   7.452  0.3564  0.4678 -0.4141
  398MOL0     N53645  -0.836   6.153   7.523 -0.3186  0.5922  0.0040
  398MOL0     N53646  -0.733   6.192   7.460 -0.1524  0.1703  0.4097
  398MOL0     C53647   0.313   6.404   7.120 -0.1431 -0.9146  0.0159
  398MOL0     C53648   0.423   6.477   7.150  1.3899 -0.0012 -0.8463
  398MOL0     C53649   0.734   6.798   7.101 -0.7875 -0.1786 -0.4274
  398MOL0     C53650   0.817   6.753   7.205  0.7025 -0.2654 -0.5925
  398MOL0     C53651   0.934   6.812   7.243  0.0710 -0.4278 -0.8176
  398MOL0     C53652   0.968   6.933   7.187 -0.3619  0.4237 -0.6960
  398MOL0     O53653   1.079   6.991   7.236  0.1533 -0.8514  0.3312
  398MOL0     C53654   1.157   7.086   7.158  0.2728 -1.0270  0.4463
  398MOL0     C53655   1.232   7.197   7.233 -0.0418 -0.8036  0.6169
  398MOL0     C53656   1.360   7.150   7.313 -0.9805  0.4427 -0.5570
  398MOL0     C53657   1.479   7.167   7.227 -0.0628  0.1358 -0.1431
  398MOL0     C53658   1.598   7.114   7.298 -0.5642 -0.6112  0.2740
  398MOL0     C53659   1.693   7.070   7.353  0.3231  0.3573 -0.3516
  398MOL0     C53660   0.871   6.994   7.092  0.7089  0.1744 -0.0763
  398MOL0     C53661   0.755   6.927   7.046  0.2756  0.5080 -1.4465
  398MOL0     C53662   0.655   6.996   6.949 -0.0001 -0.3840  0.5950
  398MOL0     H53663   0.311   6.789   7.085 -0.6772  1.0378  0.7120
  398MOL0     H53664   0.114   6.659   7.019  0.8311  0.4282  0.8806
  398MOL0     H53665   0.090   6.477   6.855  0.4481  0.6022  1.2609
  398MOL0     H53666   0.032   6.310   6.880 -0.7846  0.1781  0.8231
  398MOL0     H53667  -0.147   6.472   6.831  4.0802 -2.4627 -1.5862
  398MOL0     H53668  -0.100   6.570   6.972  0.7303  1.6368 -2.2604
  398MOL0     H53669  -0.176   6.380   7.118  0.9655 -2.2341 -0.6502
  398MOL0     H53670  -0.208   6.290   6.975  2.5547  0.9706 -1.0112
  398MOL0     H53671  -0.321   6.575   7.048 -0.6317 -0.8247  2.9423
  398MOL0     H53672  -0.378   6.468   6.913  0.9451 -0.7310 -0.6820
  398MOL0     H53673  -0.436   6.303   7.099 -2.5853  0.2567 -3.1009
  398MOL0     H53674  -0.412   6.435   7.220  2.1843  0.3778 -0.8287
  398MOL0     H53675  -0.563   6.578   7.130  0.8898  0.4187 -1.1727
  398MOL0     H53676  -0.599   6.476   6.987 -2.9470  0.2929 -0.0782
  398MOL0     H53677  -0.686   6.296   7.116 -1.5679  0.4819 -0.6004
  398MOL0     H53678  -0.785   6.441   7.142 -1.0299 -1.8161  1.6145
  398MOL0     H53679  -0.573   6.352   7.351 -1.2058 -3.0968 -0.5205
  398MOL0     H53680  -0.673   6.491   7.367 -3.2020  0.8186 -1.1927
  398MOL0     H53681  -0.947   6.421   7.370 -0.6256  0.8416  1.9278
  398MOL0     H53682  -1.098   6.115   7.496  2.6482  0.5567 -0.5237
  398MOL0     H53683  -1.098   6.217   7.641  0.4042  1.3247  0.2852
  398MOL0     H53684  -1.161   6.415   7.510  0.1748 -0.8018 -0.8778
  398MOL0     H53685  -1.182   6.319   7.365 -1.4354  0.7527 -0.0209
  398MOL0     H53686  -1.321   6.236   7.617  0.7818  2.9169  2.1510
  398MOL0     H53687  -1.347   6.188   7.453  3.2622 -0.3590 -1.7524
  398MOL0     H53688  -1.426   6.402   7.375  0.6008 -2.5247  0.5163
  398MOL0     H53689  -1.378   6.497   7.519 -0.6360  0.9465  0.3100
  398MOL0     H53690  -1.585   6.492   7.759 -0.6512 -1.6782 -1.4794
  398MOL0     H53691  -1.689   6.714   7.809  0.5469 -0.1032  0.0380
  398MOL0     H53692  -2.174   6.895   7.572  0.7540 -2.0418 -2.7389
  398MOL0     H53693  -2.311   7.105   7.608  0.0643  3.2429  1.3582
  398MOL0     H53694  -2.347   7.450   7.421  0.5341 -0.6564 -3.2726
  398MOL0     H53695  -2.333   7.285   7.371  1.5550  1.1781 -0.4252
  398MOL0     H53696  -2.565   7.321   7.415  0.2489  0.0276 -0.4383
  398MOL0     H53697  -2.507   7.201   7.515 -0.7524  0.3456  2.5495
  398MOL0     H53698  -2.647   7.326   7.640 -1.3921  2.0013 -3.2483
  398MOL0     H53699  -2.483   7.336   7.713 -1.9973 -1.8328  1.3695
  398MOL0     H53700  -2.589   7.554   7.530 -0.4737 -1.3228 -0.3158
  398MOL0     H53701  -2.440   7.546   7.646  0.7303 -2.4115  1.4387
  398MOL0     H53702  -2.724   7.551   7.726 -0.1493  2.4297  0.3423
  398MOL0     H53703  -2.628   7.690   7.714 -0.2325  0.2192 -0.4673
  398MOL0     H53704  -2.586   7.450   7.907  0.9897  0.8467  4.4396
  398MOL0     H53705  -2.459   7.562   7.877  0.0265 -0.1520 -0.3041
  398MOL0     H53706  -2.742   7.634   7.935 -0.0799  0.6511 -0.7089
  398MOL0     H53707  -2.600   7.749   7.938  1.6381 -1.2623 -2.4366
  398MOL0     H53708  -2.674   7.714   8.170  0.9032  1.1752 -1.8692
  398MOL0     H53709  -2.691   7.554   8.153  1.9172 -1.7038  0.8259
  398MOL0     H53710  -1.997   7.351   7.495 -3.1514  1.3782  0.0824
  398MOL0     H53711  -1.854   7.136   7.447 -1.4678 -0.3491 -2.8910
  398MOL0     H53712  -1.815   6.716   7.392 -1.7500 -1.0271  0.0631
  398MOL0     H53713  -1.691   6.525   7.350 -0.6551 -0.6799  0.0619
  398MOL0     H53714   0.312   6.299   7.146 -3.4720 -1.1979 -0.7866
  398MOL0     H53715   0.520   6.431   7.169  3.2082  3.5737 -0.6507
  398MOL0     H53716   0.795   6.662   7.260 -1.1021  0.4423 -0.0785
  398MOL0     H53717   0.991   6.764   7.322 -0.4781  1.2817  0.6976
  398MOL0     H53718   1.084   7.129   7.090  0.9745  1.1814  1.0044
  398MOL0     H53719   1.221   7.027   7.092 -1.9695 -1.1307 -1.7750
  398MOL0     H53720   1.162   7.242   7.304 -2.7173 -0.4512 -2.0392
  398MOL0     H53721   1.254   7.277   7.161 -2.3202 -0.6736  0.0046
  398MOL0     H53722   1.356   7.045   7.343  1.7857  0.4391  0.0926
  398MOL0     H53723   1.349   7.206   7.406 -3.3627 -1.3446  0.3356
  398MOL0     H53724   1.454   7.111   7.137 -2.1844 -2.7686  2.0843
  398MOL0     H53725   1.485   7.273   7.200  1.5056  0.1544  0.2078
  398MOL0     H53726   1.783   7.036   7.402 -0.9574 -3.0696 -0.0638
  398MOL0     H53727   0.898   7.094   7.060  0.5232  0.4450  0.6012
  398MOL0     H53728   0.565   7.010   7.009 -0.9749  2.3879 -1.2872
  398MOL0     H53729   0.702   7.091   6.919 -3.7609  1.7697  0.9464
  398MOL0     H53730   0.637   6.939   6.857 -0.4878  0.6329  0.0403
  399MOL0     O53731   4.080   8.815   6.974 -0.2179 -0.0687  0.9449
  399MOL0     C53732   3.976   8.880   6.942  0.0463 -0.0533  0.0626
  399MOL0     O53733   3.970   8.961   6.832  0.1266 -0.0071 -0.0852
  399MOL0     C53734   4.082   8.985   6.743  0.4739 -0.5148 -0.1503
  399MOL0     C53735   4.218   8.971   6.778  0.4186  0.0800  0.0900
  399MOL0     C53736   4.309   9.010   6.680  0.2196  0.2158 -0.2624
  399MOL0     C53737   4.273   9.077   6.559  0.0809  0.3126 -1.7257
  399MOL0     O53738   4.377   9.123   6.486 -0.2554 -0.4559  0.1118
  399MOL0     C53739   4.350   9.210   6.383 -0.0852 -0.2941  0.0432
  399MOL0     C53740   4.471   9.279   6.318 -0.6244  0.0183  0.4438
  399MOL0     C53741   4.444   9.375   6.204  0.1310 -0.0379 -0.4695
  399MOL0     C53742   4.385   9.297   6.077  0.4216 -0.6092 -0.1392
  399MOL0     C53743   4.355   9.398   5.967 -0.4161 -0.3151  0.2860
  399MOL0     C53744   4.485   9.447   5.906 -0.1894 -0.3585  0.3165
  399MOL0     C53745   4.443   9.520   5.775  0.5991  0.3399  0.8356
  399MOL0     C53746   4.574   9.580   5.707 -0.3882 -0.2333 -0.7804
  399MOL0     N53747   4.535   9.636   5.579  0.3269 -0.2138 -0.5244
  399MOL0     C53748   4.466   9.754   5.565  0.3418  0.1841 -0.3510
  399MOL0     C53749   4.490   9.800   5.443 -0.5051  0.5889 -0.5971
  399MOL0     C53750   4.456   9.940   5.388 -0.1513  0.2920  0.5634
  399MOL0     C53751   4.572  10.025   5.323  0.4161  0.2519 -0.5761
  399MOL0     C53752   4.658  10.088   5.440 -1.2362 -0.3943  0.6974
  399MOL0     C53753   4.765  10.178   5.373  0.0988  0.3486  0.5681
  399MOL0     O53754   4.852  10.231   5.471  0.1931  0.1340 -0.0895
  399MOL0     C53755   4.954  10.318   5.428  0.1641  0.2067 -0.3919
  399MOL0     C53756   4.943  10.417   5.331  0.1939 -0.0188  0.7465
  399MOL0     C53757   5.061  10.479   5.299 -0.3699  0.8315  0.5208
  399MOL0     C53758   5.183  10.456   5.359 -0.1598 -0.2751  0.9788
  399MOL0     C53759   5.307  10.522   5.306  0.4725 -0.5418  0.3263
  399MOL0     O53760   5.431  10.474   5.344  0.4139 -0.4624  0.9063
  399MOL0     C53761   5.531  10.563   5.335 -0.1569 -0.3886 -0.8615
  399MOL0     C53762   5.598  10.595   5.213 -0.2239  0.1862  0.6259
  399MOL0     C53763   5.706  10.688   5.211 -0.0833  0.4644 -0.3860
  399MOL0     C53764   5.755  10.744   5.325  0.2708 -0.3257  0.0013
  399MOL0     O53765   5.870  10.828   5.321  0.2194  0.3232 -0.7487
  399MOL0     C53766   5.997  10.759   5.333  0.2080  0.4754 -0.9202
  399MOL0     C53767   6.108  10.863   5.331  0.0843 -0.2979 -0.2506
  399MOL0     C53768   6.249  10.818   5.317 -0.3363  0.2236  0.3691
  399MOL0     C53769   6.338  10.941   5.351 -0.3673  0.0300 -0.7663
  399MOL0     C53770   6.490  10.920   5.345 -0.4119  0.2004 -0.3229
  399MOL0     C53771   6.561  11.052   5.390 -0.5576 -0.4503  0.1414
  399MOL0     C53772   6.713  11.039   5.380 -0.4454 -0.0843  0.4339
  399MOL0     C53773   6.767  11.008   5.233  0.4147 -0.6227  1.0031
  399MOL0    Cl53774   6.713  11.132   5.114 -0.2663  0.0610  0.2773
  399MOL0     C53775   5.696  10.709   5.445 -0.1533  0.0779 -0.2362
  399MOL0     C53776   5.582  10.620   5.453  0.3286 -0.1614  0.8236
  399MOL0     O53777   5.284  10.633   5.253 -0.1576  0.1749  0.0665
  399MOL0     C53778   5.192  10.365   5.466  0.3862 -0.2292 -0.0223
  399MOL0     C53779   5.078  10.293   5.499  0.1450 -0.2867 -0.0431
  399MOL0     N53780   4.576   9.712   5.378  0.4607  0.4494  0.1580
  399MOL0     N53781   4.591   9.607   5.463 -0.5197  0.0577  0.4487
  399MOL0     C53782   4.133   9.092   6.532  0.6126  0.2951  0.3623
  399MOL0     C53783   4.047   9.044   6.625  0.2664  0.4879 -0.1463
  399MOL0     C53784   3.861   8.868   7.034  0.6860  0.7802  0.4155
  399MOL0     C53785   3.741   8.899   6.984  1.2498 -0.2044 -0.1564
  399MOL0     C53786   3.631   8.903   7.065 -0.8296 -0.4118 -0.6012
  399MOL0     C53787   3.632   8.873   7.203  0.4835 -0.4762 -0.4337
  399MOL0     O53788   3.517   8.882   7.290  0.2811 -0.6232 -0.4080
  399MOL0     C53789   3.406   8.956   7.241 -0.5065  0.8164 -0.1299
  399MOL0     C53790   3.325   8.987   7.365 -0.1488 -0.3818 -0.7043
  399MOL0     C53791   3.237   8.859   7.410 -0.3873 -0.3507  0.1577
  399MOL0     C53792   3.148   8.911   7.519 -0.1207  0.3695 -0.3085
  399MOL0     C53793   3.090   8.791   7.576  0.5694  0.6739 -0.4277
  399MOL0     C53794   3.047   8.680   7.606 -0.0834  0.7097 -0.8438
  399MOL0     C53795   3.751   8.836   7.250 -0.4609 -0.4171  0.1603
  399MOL0     C53796   3.866   8.835   7.173 -0.0142  0.3614 -0.7118
  399MOL0     C53797   3.997   8.812   7.248 -0.3934  0.2174  0.1222
  399MOL0     H53798   4.247   8.934   6.876 -1.2108 -3.9112 -0.7520
  399MOL0     H53799   4.414   9.005   6.708  0.5096  0.1742 -1.3003
  399MOL0     H53800   4.308   9.146   6.304 -3.5516  3.9188 -1.9335
  399MOL0     H53801   4.284   9.291   6.415  1.0241  0.3372  0.8088
  399MOL0     H53802   4.528   9.194   6.280 -1.7803 -1.0206  0.9472
  399MOL0     H53803   4.516   9.345   6.393  0.3978  0.7824 -0.8214
  399MOL0     H53804   4.538   9.427   6.186  0.6753  0.0363  2.2399
  399MOL0     H53805   4.363   9.446   6.226 -0.7971 -1.0218 -0.5916
  399MOL0     H53806   4.451   9.213   6.050  1.9450 -0.1910  1.9975
  399MOL0     H53807   4.294   9.244   6.105  1.2048 -2.6560 -1.1808
  399MOL0     H53808   4.297   9.357   5.884  1.3133 -3.5028  0.5081
  399MOL0     H53809   4.292   9.478   6.008 -2.2538 -2.2440  1.4111
  399MOL0     H53810   4.535   9.516   5.975 -4.1038  1.6689  1.4385
  399MOL0     H53811   4.548   9.359   5.891 -1.3547 -1.1971  0.1700
  399MOL0     H53812   4.365   9.592   5.800  0.8898  0.1280  2.4628
  399MOL0     H53813   4.415   9.448   5.698  1.3927  1.9090 -1.0101
  399MOL0     H53814   4.606   9.660   5.774  0.6653 -2.4413  1.5590
  399MOL0     H53815   4.658   9.510   5.699  0.7352  1.1328 -1.1762
  399MOL0     H53816   4.419   9.812   5.644 -2.2592 -0.8571 -1.0222
  399MOL0     H53817   4.382   9.913   5.313  1.2452 -4.9628  0.6954
  399MOL0     H53818   4.400   9.991   5.467 -1.2717 -3.5947  2.5490
  399MOL0     H53819   4.626   9.961   5.252 -1.0569 -1.3472 -0.3373
  399MOL0     H53820   4.541  10.115   5.270 -0.0515  0.6001  0.2606
  399MOL0     H53821   4.708  10.007   5.494 -0.7529 -2.1991 -2.2633
  399MOL0     H53822   4.606  10.151   5.514 -2.0136  0.2631 -0.3867
  399MOL0     H53823   4.724  10.258   5.312  1.8396 -0.0865 -1.3007
  399MOL0     H53824   4.815  10.114   5.299 -1.9274 -0.5397 -0.1050
  399MOL0     H53825   4.855  10.440   5.273  1.0230 -0.0362 -0.5467
  399MOL0     H53826   5.043  10.553   5.222 -2.0665 -0.9507 -0.8746
  399MOL0     H53827   5.558  10.559   5.119 -0.7087 -2.7939  1.8703
  399MOL0     H53828   5.758  10.708   5.118  0.4376 -1.4847 -0.5553
  399MOL0     H53829   5.999  10.700   5.425  1.4533 -2.0163 -2.4458
  399MOL0     H53830   6.010  10.683   5.255 -0.5573 -2.5064  1.6529
  399MOL0     H53831   6.094  10.927   5.244 -2.0451 -2.2597 -1.4654
  399MOL0     H53832   6.104  10.919   5.425  1.8659 -0.6447  0.0608
  399MOL0     H53833   6.277  10.741   5.389 -0.3006 -1.3093 -1.2127
  399MOL0     H53834   6.268  10.785   5.214 -0.9754  1.0337 -0.0202
  399MOL0     H53835   6.322  10.957   5.458 -0.3248  2.2749 -1.0364
  399MOL0     H53836   6.308  11.030   5.293 -1.4662 -0.8949 -1.6715
  399MOL0     H53837   6.523  10.895   5.244  2.7599  1.0790  0.3882
  399MOL0     H53838   6.531  10.831   5.395  0.4360 -0.5967 -2.3297
  399MOL0     H53839   6.530  11.141   5.335  0.1515 -0.1542  0.2083
  399MOL0     H53840   6.548  11.073   5.497  0.3113 -1.7291  0.5221
  399MOL0     H53841   6.738  10.958   5.449 -2.0983  1.4154  2.9993
  399MOL0     H53842   6.756  11.131   5.421 -1.1871 -0.4095  2.0592
  399MOL0     H53843   6.876  11.005   5.241  0.7840  2.5605 -1.1504
  399MOL0     H53844   6.727  10.911   5.202 -1.1141  0.5502 -0.8932
  399MOL0     H53845   5.729  10.735   5.545 -0.6187 -0.4201  0.0595
  399MOL0     H53846   5.522  10.604   5.542 -1.3748  3.1060  0.4250
  399MOL0     H53847   5.288  10.341   5.510  0.7826  1.0313 -0.1775
  399MOL0     H53848   5.087  10.213   5.572  2.0221  0.1690  0.2844
  399MOL0     H53849   4.093   9.141   6.444  1.5940  0.2170 -0.1484
  399MOL0     H53850   3.942   9.035   6.598 -0.4699  0.7552  2.3801
  399MOL0     H53851   3.728   8.920   6.879  0.1721  1.4224  0.2675
  399MOL0     H53852   3.534   8.932   7.024 -1.9784 -2.3694  0.5834
  399MOL0     H53853   3.336   8.897   7.182 -1.9741  1.4603  0.8943
  399MOL0     H53854   3.437   9.044   7.184  3.4527 -2.0262 -2.9051
  399MOL0     H53855   3.262   9.070   7.332  1.6650  1.4694  0.3282
  399MOL0     H53856   3.396   9.021   7.440 -1.5580 -2.3659  1.6821
  399MOL0     H53857   3.304   8.781   7.447 -2.8793 -3.4517 -1.4034
  399MOL0     H53858   3.171   8.825   7.330 -1.2757 -4.1662  2.3018
  399MOL0     H53859   3.212   8.966   7.588 -1.1138  2.5190 -0.9992
  399MOL0     H53860   3.079   8.989   7.486 -0.1054  1.0554  1.1837
  399MOL0     H53861   3.011   8.579   7.610  2.2499 -0.1844 -1.0577
  399MOL0     H53862   3.759   8.816   7.356 -1.0666  1.1294  0.5233
  399MOL0     H53863   4.037   8.711   7.238  1.6947  0.9631  0.5499
  399MOL0     H53864   4.072   8.879   7.203 -1.8872  1.2436 -0.9608
  399MOL0     H53865   4.008   8.842   7.352  1.3629  0.5663 -0.1353
  400MOL0     O53866   6.389   3.810   6.942  0.3207 -1.0945 -0.0066
  400MOL0     C53867   6.295   3.841   7.023 -0.1645 -0.3161 -0.3807
  400MOL0     O53868   6.301   3.795   7.158  0.2310  0.4863 -0.1244
  400MOL0     C53869   6.387   3.696   7.187  0.0682  0.3757 -0.3204
  400MOL0     C53870   6.483   3.706   7.289  0.6958 -1.3085  0.7940
  400MOL0     C53871   6.576   3.613   7.317 -0.0935  0.1377  0.1317
  400MOL0     C53872   6.591   3.506   7.226 -0.4032 -0.5690 -0.4583
  400MOL0     O53873   6.697   3.417   7.229 -0.4894  0.4343 -0.3416
  400MOL0     C53874   6.795   3.430   7.331 -0.8267 -0.2962 -0.5515
  400MOL0     C53875   6.905   3.322   7.302  0.3727  0.6609  0.3270
  400MOL0     C53876   6.996   3.306   7.426  0.0634  0.6740 -0.3013
  400MOL0     C53877   7.121   3.228   7.391  0.2474  0.7312  0.0946
  400MOL0     C53878   7.186   3.183   7.514  0.0832 -0.3760  0.2009
  400MOL0     C53879   7.239   3.296   7.619 -0.1510 -0.6326  0.2642
  400MOL0     C53880   7.332   3.209   7.727  0.3423 -0.4865  0.4547
  400MOL0     C53881   7.339   3.289   7.858  0.3233 -0.4184 -0.4606
  400MOL0     N53882   7.400   3.203   7.956 -0.4164  0.4818  0.5635
  400MOL0     C53883   7.533   3.180   7.975  0.0970 -0.1977 -0.7950
  400MOL0     C53884   7.549   3.068   8.045 -0.1027  0.5329 -0.1578
  400MOL0     C53885   7.672   2.995   8.100  0.1615 -0.0844 -0.4627
  400MOL0     C53886   7.656   2.919   8.226  0.1239  0.1037 -0.0763
  400MOL0     C53887   7.798   2.888   8.286  0.9283 -0.5787  0.2460
  400MOL0     C53888   7.849   2.759   8.224 -0.3460  0.5863 -0.3387
  400MOL0     O53889   7.929   2.786   8.107 -0.2946  0.2134  0.0181
  400MOL0     C53890   8.063   2.814   8.132  0.0856  0.3539 -0.3973
  400MOL0     C53891   8.120   2.816   8.261  0.8785  0.8079  0.5185
  400MOL0     C53892   8.252   2.866   8.295  0.7114 -0.4345 -0.6786
  400MOL0     C53893   8.323   2.927   8.194 -0.3291  0.3433  0.5437
  400MOL0     C53894   8.459   2.968   8.219 -0.1933 -0.6640  0.5900
  400MOL0     O53895   8.489   3.000   8.349 -0.1028  0.2736 -0.0724
  400MOL0     C53896   8.616   3.055   8.373  0.5131  0.5667  0.5140
  400MOL0     C53897   8.728   2.972   8.391  0.5928  0.4100  1.0846
  400MOL0     C53898   8.857   3.019   8.414 -0.8802  0.7922  0.2286
  400MOL0     C53899   8.885   3.154   8.431 -0.6551 -0.3684  0.3358
  400MOL0     O53900   9.003   3.205   8.442 -0.6710 -0.1774 -0.0493
  400MOL0     C53901   9.110   3.117   8.483 -0.2443 -0.5933  0.2250
  400MOL0     C53902   9.230   3.206   8.531  0.1987  0.6493  0.0033
  400MOL0     C53903   9.349   3.116   8.557 -0.4524  0.0069 -1.0491
  400MOL0     C53904   9.482   3.195   8.564  0.2942  0.2395 -0.1880
  400MOL0     C53905   9.605   3.115   8.588 -0.0590  1.1514 -0.0660
  400MOL0     C53906   9.734   3.189   8.578 -0.1254 -0.1245 -0.4188
  400MOL0     C53907   9.857   3.099   8.632 -0.2894  0.5767 -0.2413
  400MOL0     C53908   9.996   3.156   8.585 -0.5668  0.6922  0.2301
  400MOL0    Cl53909  10.056   3.312   8.658  0.1201  0.1607 -0.2337
  400MOL0     C53910   8.771   3.243   8.411  0.1949  0.4743 -0.1954
  400MOL0     C53911   8.636   3.190   8.390 -0.9728 -0.2056  0.2135
  400MOL0     O53912   8.527   2.995   8.124 -0.0184  0.3881  0.6851
  400MOL0     C53913   8.282   2.902   8.056 -0.2614  0.5393 -0.1124
  400MOL0     C53914   8.156   2.845   8.028  0.2371  0.3885  0.5567
  400MOL0     N53915   7.423   3.029   8.082 -0.0148  0.5949  0.1298
  400MOL0     N53916   7.336   3.106   8.032 -0.6248 -0.4769 -0.0430
  400MOL0     C53917   6.500   3.488   7.122  0.9576 -0.4130  0.0294
  400MOL0     C53918   6.390   3.571   7.109  0.0577  0.1862 -0.5687
  400MOL0     C53919   6.184   3.938   6.997  0.8095  0.7662  0.2692
  400MOL0     C53920   6.078   3.941   7.094 -0.4724 -0.3420  0.1954
  400MOL0     C53921   5.972   4.024   7.083  0.2275  0.5947 -0.0894
  400MOL0     C53922   5.963   4.106   6.964  0.0517  0.0931  0.3378
  400MOL0     O53923   5.847   4.183   6.943 -0.4423 -0.0899  0.6874
  400MOL0     C53924   5.718   4.143   6.986  0.3905  0.2148 -0.4284
  400MOL0     C53925   5.620   4.238   6.915  0.1786 -0.0732 -0.7756
  400MOL0     C53926   5.481   4.182   6.953  0.2163  0.1730 -0.6331
  400MOL0     C53927   5.367   4.251   6.879 -0.4955  0.1940  0.0512
  400MOL0     C53928   5.254   4.154   6.855  0.2121 -0.2188 -0.7441
  400MOL0     C53929   5.170   4.067   6.832  0.4920 -0.6347  0.3343
  400MOL0     C53930   6.072   4.113   6.871  0.6419 -0.5800  0.3507
  400MOL0     C53931   6.184   4.030   6.891 -0.3385 -0.0899  0.0707
  400MOL0     C53932   6.295   4.042   6.788  0.3294 -0.6996 -0.4328
  400MOL0     H53933   6.485   3.796   7.350 -2.4784 -0.8485  0.3974
  400MOL0     H53934   6.638   3.625   7.405 -2.6296  4.0614  1.6673
  400MOL0     H53935   6.846   3.526   7.335 -0.8958 -0.2687 -0.3287
  400MOL0     H53936   6.747   3.405   7.426  1.8797 -0.1591  0.9279
  400MOL0     H53937   6.967   3.363   7.222  0.2206 -1.5889 -1.0193
  400MOL0     H53938   6.862   3.228   7.266  0.8981  1.2363 -1.9497
  400MOL0     H53939   6.930   3.262   7.500 -2.2288  1.4293 -1.7941
  400MOL0     H53940   7.022   3.404   7.467 -0.7153 -0.0462  2.0518
  400MOL0     H53941   7.090   3.140   7.335  1.0692 -0.1431  0.9753
  400MOL0     H53942   7.189   3.292   7.334 -0.6946  1.6570 -0.0135
  400MOL0     H53943   7.105   3.129   7.564  1.3322 -1.4311  1.1585
  400MOL0     H53944   7.267   3.113   7.492 -2.3547 -3.7988  1.2075
  400MOL0     H53945   7.287   3.384   7.574  0.5621 -0.5858  1.0729
  400MOL0     H53946   7.154   3.350   7.662 -1.3937 -1.7944 -0.6521
  400MOL0     H53947   7.427   3.191   7.676  1.8660  0.1936  2.8876
  400MOL0     H53948   7.285   3.113   7.745 -1.1521  0.3554  1.2478
  400MOL0     H53949   7.395   3.381   7.841 -0.9278  0.4609  0.0125
  400MOL0     H53950   7.238   3.317   7.889  0.8421 -0.0325  0.9504
  400MOL0     H53951   7.611   3.239   7.928  1.3553  0.5428  2.0213
  400MOL0     H53952   7.717   2.937   8.018  0.6925  1.2848 -1.1696
  400MOL0     H53953   7.752   3.067   8.120  1.3335 -1.4131 -0.1689
  400MOL0     H53954   7.591   2.978   8.291  0.4952  0.2057  0.2047
  400MOL0     H53955   7.607   2.822   8.212 -1.3427  0.7908  0.1036
  400MOL0     H53956   7.772   2.867   8.390 -0.5644 -1.9525 -0.3480
  400MOL0     H53957   7.864   2.975   8.287 -1.1127  1.0804  2.1383
  400MOL0     H53958   7.767   2.691   8.198 -1.1360  1.4144 -0.0474
  400MOL0     H53959   7.909   2.700   8.294  0.9281  2.7212  0.4494
  400MOL0     H53960   8.076   2.781   8.354  0.0510 -0.3157 -0.2702
  400MOL0     H53961   8.286   2.844   8.396 -0.0553 -4.8358 -1.1761
  400MOL0     H53962   8.726   2.864   8.382  1.4780  0.4931 -0.4316
  400MOL0     H53963   8.926   2.940   8.440 -1.1883  0.8624  1.3438
  400MOL0     H53964   9.088   3.039   8.557 -0.5500 -0.2286  0.5262
  400MOL0     H53965   9.130   3.066   8.389  1.5275  0.7823 -0.2030
  400MOL0     H53966   9.256   3.267   8.444  2.3716 -0.3659 -0.1404
  400MOL0     H53967   9.188   3.266   8.613 -4.4033  0.1834 -1.7516
  400MOL0     H53968   9.331   3.072   8.656 -0.4314  1.9834 -0.1139
  400MOL0     H53969   9.355   3.043   8.477  2.0447 -1.1482  0.0871
  400MOL0     H53970   9.475   3.263   8.649  3.1265 -0.6669  0.8809
  400MOL0     H53971   9.503   3.255   8.475  1.7690 -0.1332 -0.1252
  400MOL0     H53972   9.613   3.037   8.511 -1.0114 -1.8947  2.6606
  400MOL0     H53973   9.609   3.050   8.676  1.5118  0.5924 -0.5127
  400MOL0     H53974   9.749   3.222   8.475 -0.6224  0.7783 -0.2102
  400MOL0     H53975   9.729   3.279   8.640  2.4686  0.8314 -1.4427
  400MOL0     H53976   9.846   2.998   8.591 -3.1504  1.4217 -1.8639
  400MOL0     H53977   9.862   3.101   8.741  2.3565 -3.3001 -0.0849
  400MOL0     H53978  10.072   3.082   8.614 -0.3856  0.3253 -1.0977
  400MOL0     H53979   9.996   3.151   8.475  2.7348  0.7096  0.1312
  400MOL0     H53980   8.794   3.349   8.417 -1.3579  0.7365  2.0253
  400MOL0     H53981   8.554   3.259   8.376  0.3111  0.9294 -2.3516
  400MOL0     H53982   8.344   2.915   7.969  0.1723  0.9283  0.2508
  400MOL0     H53983   8.126   2.830   7.925  1.7354 -1.3040  0.3312
  400MOL0     H53984   6.528   3.402   7.062 -1.7674 -1.0266 -0.4809
  400MOL0     H53985   6.315   3.559   7.032 -3.4787  0.7283  2.4783
  400MOL0     H53986   6.097   3.893   7.189  2.2819  1.4162  0.6051
  400MOL0     H53987   5.890   4.015   7.153 -0.1165  0.5158 -0.4956
  400MOL0     H53988   5.696   4.144   7.093  1.6547  2.1100 -0.1282
  400MOL0     H53989   5.707   4.042   6.947  0.1977 -0.5870  1.5657
  400MOL0     H53990   5.642   4.235   6.808  1.9039  1.3284 -0.5171
  400MOL0     H53991   5.629   4.343   6.947 -0.8474  0.2426 -1.4807
  400MOL0     H53992   5.457   4.209   7.057  6.0186  1.1471  0.8049
  400MOL0     H53993   5.483   4.074   6.936  2.1412  0.0385  0.1728
  400MOL0     H53994   5.344   4.342   6.934  2.8417  0.6898  0.8088
  400MOL0     H53995   5.404   4.288   6.783 -0.5572 -1.2645 -0.5600
  400MOL0     H53996   5.106   3.983   6.813  1.0025 -0.8029 -0.7063
  400MOL0     H53997   6.065   4.181   6.786  3.7181  0.1134  0.5367
  400MOL0     H53998   6.267   4.117   6.714 -0.2061 -1.8903 -1.4701
  400MOL0     H53999   6.380   4.089   6.838 -1.6935  2.4805  0.3636
  400MOL0     H54000   6.317   3.945   6.744 -2.8864 -1.3191 -0.9534
  401MOL0     O54001   0.337  10.462   5.754  0.1505 -0.9202  1.1557
  401MOL0     C54002   0.308  10.354   5.805 -0.0498  0.3463  0.3591
  401MOL0     O54003   0.353  10.303   5.928  0.4730 -0.1742  0.6542
  401MOL0     C54004   0.422  10.379   6.018 -0.2463  0.0959 -0.4883
  401MOL0     C54005   0.370  10.392   6.156  0.1029  0.0586  0.0141
  401MOL0     C54006   0.435  10.473   6.247  0.1662  0.2482 -0.0430
  401MOL0     C54007   0.547  10.543   6.217 -1.1155 -0.9635  0.7017
  401MOL0     O54008   0.605  10.630   6.311 -0.3264 -0.1416 -0.4273
  401MOL0     C54009   0.536  10.647   6.439  0.6108 -0.4218 -0.4993
  401MOL0     C54010   0.593  10.777   6.495  0.0104  0.9552  0.8737
  401MOL0     C54011   0.528  10.837   6.610  0.5742 -0.8766 -0.1188
  401MOL0     C54012   0.555  10.996   6.606  0.2449  0.6032  0.1261
  401MOL0     C54013   0.698  11.032   6.622  0.3122 -0.8101  0.0301
  401MOL0     C54014   0.715  11.181   6.607 -0.6763  1.1009  0.0658
  401MOL0     C54015   0.854  11.225   6.652 -0.6771 -0.1351 -0.3296
  401MOL0     C54016   0.870  11.285   6.793 -0.8037 -0.3481  0.0879
  401MOL0     N54017   0.870  11.432   6.797 -0.1312 -0.0672 -0.2641
  401MOL0     C54018   0.793  11.513   6.715 -1.2451 -0.2561  0.1236
  401MOL0     C54019   0.845  11.638   6.730 -0.0360 -0.1161 -0.0924
  401MOL0     C54020   0.790  11.761   6.679 -0.7724  0.5176  0.9742
  401MOL0     C54021   0.668  11.818   6.748  0.2129  0.5330  0.4881
  401MOL0     C54022   0.543  11.731   6.738  0.7835  0.3229 -0.5120
  401MOL0     C54023   0.410  11.801   6.745  0.0712 -0.2532 -0.8256
  401MOL0     O54024   0.307  11.698   6.740  0.1302 -0.3441  0.3899
  401MOL0     C54025   0.174  11.739   6.731  0.0226  0.3289 -0.1160
  401MOL0     C54026   0.079  11.641   6.775 -0.1806 -0.0147  0.1797
  401MOL0     C54027  -0.057  11.660   6.752 -0.5181 -0.2153 -1.3032
  401MOL0     C54028  -0.107  11.786   6.711 -0.0682 -0.0811  0.8397
  401MOL0     C54029  -0.257  11.800   6.693 -0.2320 -0.3686 -1.1040
  401MOL0     O54030  -0.313  11.913   6.637  0.5631  0.6071  0.0296
  401MOL0     C54031  -0.450  11.915   6.612 -0.9004 -0.5598  0.0577
  401MOL0     C54032  -0.498  11.869   6.490 -0.2679  0.2200  0.1820
  401MOL0     C54033  -0.635  11.884   6.472  0.6226 -0.0753 -0.1220
  401MOL0     C54034  -0.725  11.944   6.566  0.2171  0.0787 -0.3789
  401MOL0     O54035  -0.858  11.950   6.531 -0.0242  0.6557  0.3791
  401MOL0     C54036  -0.943  12.049   6.595  0.8286 -0.1218  0.0100
  401MOL0     C54037  -1.085  12.060   6.536  0.7048  0.2333  0.2881
  401MOL0     C54038  -1.187  11.950   6.594 -0.2041  0.3630 -0.2238
  401MOL0     C54039  -1.281  11.906   6.482  0.7747  0.2549 -0.5478
  401MOL0     C54040  -1.424  11.859   6.534 -0.8058  0.2259 -0.1092
  401MOL0     C54041  -1.526  11.960   6.603 -0.2453  0.1583 -0.4218
  401MOL0     C54042  -1.667  11.898   6.612  0.0659  0.7209 -0.5245
  401MOL0     C54043  -1.678  11.761   6.691  0.2337 -0.4441  0.4857
  401MOL0    Cl54044  -1.862  11.707   6.719  0.7314 -0.1563  0.2233
  401MOL0     C54045  -0.668  11.979   6.696  0.3005 -0.6118  0.1561
  401MOL0     C54046  -0.530  11.966   6.712 -0.0166 -0.4892 -0.2574
  401MOL0     O54047  -0.326  11.704   6.738  0.2293 -0.8560 -0.8139
  401MOL0     C54048  -0.013  11.887   6.685  0.1109 -0.6512 -0.4475
  401MOL0     C54049   0.123  11.865   6.696 -0.5783 -0.0056 -0.0783
  401MOL0     N54050   0.945  11.626   6.823  0.0765  1.0954 -0.0902
  401MOL0     N54051   0.960  11.502   6.864  0.1688 -0.4898 -0.4435
  401MOL0     C54052   0.606  10.525   6.087  0.5122  0.1429  0.2049
  401MOL0     C54053   0.543  10.443   5.987 -0.3678 -0.8837 -0.2453
  401MOL0     C54054   0.207  10.271   5.721  0.6854 -0.1598 -0.2383
  401MOL0     C54055   0.215  10.272   5.585  0.2269  0.2323  0.6480
  401MOL0     C54056   0.127  10.193   5.508  0.5465  0.4025 -0.0847
  401MOL0     C54057   0.032  10.114   5.562  0.0911  0.7400  0.0938
  401MOL0     O54058  -0.052  10.051   5.468  0.3368 -0.0618  0.1208
  401MOL0     C54059  -0.170   9.998   5.519  0.3992  0.4653 -0.2763
  401MOL0     C54060  -0.270   9.957   5.412 -0.4458  1.4974 -0.0106
  401MOL0     C54061  -0.206   9.875   5.296  0.1898  0.2676 -0.2618
  401MOL0     C54062  -0.312   9.809   5.208 -0.8000 -1.3890 -0.5152
  401MOL0     C54063  -0.376   9.904   5.114  0.0464  0.3213 -0.0771
  401MOL0     C54064  -0.417   9.995   5.046  0.4708 -0.3708 -0.1523
  401MOL0     C54065   0.013  10.114   5.701  0.0467 -0.5689  0.3689
  401MOL0     C54066   0.092  10.199   5.773 -0.5037 -0.2417 -0.9536
  401MOL0     C54067   0.056  10.217   5.922  0.3971  0.3932  0.8874
  401MOL0     H54068   0.282  10.330   6.173 -0.5733  0.6307 -1.2454
  401MOL0     H54069   0.394  10.482   6.347  0.9934 -0.1075  0.3387
  401MOL0     H54070   0.427  10.648   6.428  0.2492 -1.6805  2.1249
  401MOL0     H54071   0.561  10.566   6.508  1.1198  0.3767  0.2778
  401MOL0     H54072   0.605  10.838   6.406  1.2348 -0.0168  0.3361
  401MOL0     H54073   0.695  10.746   6.519  0.8484  2.6264 -0.4180
  401MOL0     H54074   0.563  10.793   6.704  0.6345  3.2036  1.9968
  401MOL0     H54075   0.423  10.809   6.604  0.2083 -0.0371  1.8038
  401MOL0     H54076   0.517  11.022   6.507 -3.8545 -0.9076  1.0916
  401MOL0     H54077   0.485  11.054   6.667  2.4629  1.3248  2.1401
  401MOL0     H54078   0.728  11.003   6.723  0.6346  0.8152  0.4324
  401MOL0     H54079   0.765  10.980   6.553  1.0414 -1.9714  1.5582
  401MOL0     H54080   0.707  11.198   6.499 -1.9128  0.3941  0.0206
  401MOL0     H54081   0.632  11.236   6.653  1.2537  0.9563  4.1532
  401MOL0     H54082   0.893  11.295   6.578 -2.6711  4.8723  2.8649
  401MOL0     H54083   0.918  11.136   6.650 -0.0894  0.0359  3.5957
  401MOL0     H54084   0.789  11.243   6.854 -2.2823  2.8016  0.5016
  401MOL0     H54085   0.962  11.249   6.839  0.8147  2.4146 -0.7365
  401MOL0     H54086   0.712  11.474   6.654  0.4432 -0.4776 -2.0990
  401MOL0     H54087   0.868  11.838   6.674 -0.7435  0.4556 -3.1156
  401MOL0     H54088   0.770  11.739   6.574  0.5608 -0.6457  0.9452
  401MOL0     H54089   0.684  11.830   6.856  0.7940 -2.1155  0.7610
  401MOL0     H54090   0.648  11.919   6.711  0.6744  0.1164 -0.9247
  401MOL0     H54091   0.560  11.654   6.814 -1.9180  1.1561  1.0754
  401MOL0     H54092   0.546  11.680   6.642 -0.3052 -0.6818 -0.0399
  401MOL0     H54093   0.400  11.877   6.667 -2.2389 -0.2129 -0.5425
  401MOL0     H54094   0.402  11.844   6.845 -2.4627  0.9922 -1.4889
  401MOL0     H54095   0.118  11.549   6.817  0.4579 -0.8542 -2.1137
  401MOL0     H54096  -0.111  11.571   6.784  0.5166  0.2083  2.0390
  401MOL0     H54097  -0.436  11.810   6.423 -2.1467  0.0294 -1.4908
  401MOL0     H54098  -0.676  11.831   6.387  0.6977 -0.2963 -0.0198
  401MOL0     H54099  -0.946  12.020   6.700 -1.7905 -2.7582 -0.6854
  401MOL0     H54100  -0.889  12.142   6.576  1.5743 -0.5574 -0.0352
  401MOL0     H54101  -1.129  12.158   6.559  1.1266  0.6811 -0.7433
  401MOL0     H54102  -1.067  12.042   6.430 -1.0058 -2.4108  0.3659
  401MOL0     H54103  -1.119  11.868   6.618 -0.9230  0.2323  1.4938
  401MOL0     H54104  -1.237  11.984   6.685  1.4867 -0.1238  0.9399
  401MOL0     H54105  -1.227  11.820   6.441  1.9163 -0.5191  2.3257
  401MOL0     H54106  -1.291  11.978   6.401 -0.8747 -2.1068 -2.5746
  401MOL0     H54107  -1.399  11.775   6.600  0.4351  2.2742  2.1485
  401MOL0     H54108  -1.481  11.822   6.448  2.1006 -1.2972 -1.5649
  401MOL0     H54109  -1.490  11.990   6.701 -0.4128  1.4497 -0.7396
  401MOL0     H54110  -1.537  12.055   6.550  1.7356  1.4889  1.4340
  401MOL0     H54111  -1.724  11.878   6.521  1.3683 -0.8908 -1.0525
  401MOL0     H54112  -1.727  11.958   6.680 -0.7048 -0.7556  0.1274
  401MOL0     H54113  -1.630  11.682   6.632 -2.1488 -0.4512 -1.6570
  401MOL0     H54114  -1.620  11.773   6.783  0.9533  1.8956 -0.2090
  401MOL0     H54115  -0.721  12.021   6.781  3.1347  0.0863  1.7071
  401MOL0     H54116  -0.479  11.982   6.806  0.0382 -1.3115 -0.1330
  401MOL0     H54117  -0.051  11.989   6.676 -0.3065 -0.5077  2.0798
  401MOL0     H54118   0.192  11.949   6.684  0.9065 -1.4999 -3.0901
  401MOL0     H54119   0.696  10.581   6.069 -0.0648  1.6769  1.8072
  401MOL0     H54120   0.587  10.434   5.888 -0.1039  2.3295 -0.5040
  401MOL0     H54121   0.287  10.332   5.530 -2.9173  4.3275  0.4889
  401MOL0     H54122   0.147  10.189   5.401  0.1286  0.0636 -0.1547
  401MOL0     H54123  -0.222  10.071   5.583 -2.3404  0.1911 -2.0445
  401MOL0     H54124  -0.132   9.914   5.579  2.6879  0.2777 -1.8852
  401MOL0     H54125  -0.316  10.047   5.370 -1.1801 -0.0452 -2.7281
  401MOL0     H54126  -0.333   9.897   5.478  0.2434  0.4556 -0.2929
  401MOL0     H54127  -0.150   9.793   5.342 -3.1091 -0.8047  2.2114
  401MOL0     H54128  -0.134   9.935   5.240  0.7173 -1.7232 -1.8250
  401MOL0     H54129  -0.257   9.725   5.163  1.2917  0.0591 -0.8066
  401MOL0     H54130  -0.390   9.768   5.273 -0.8781  0.0031  0.3173
  401MOL0     H54131  -0.439  10.086   4.993 -2.9415 -0.7417  0.3566
  401MOL0     H54132  -0.065  10.050   5.742 -2.0366 -1.2802 -4.1321
  401MOL0     H54133  -0.003  10.308   5.935 -0.9639  0.1946 -2.9595
  401MOL0     H54134  -0.001  10.131   5.958 -0.4796  1.6135  2.5277
  401MOL0     H54135   0.135  10.220   5.998 -0.0722 -1.3259  1.4932
  402MOL0     O54136   8.443   9.010  10.541 -0.6037  0.3192 -0.4652
  402MOL0     C54137   8.435   8.887  10.545  0.2690  0.7116  0.3393
  402MOL0     O54138   8.538   8.807  10.557  0.0667  0.3938 -0.0702
  402MOL0     C54139   8.665   8.853  10.590 -0.2652 -0.3689  1.1462
  402MOL0     C54140   8.699   8.948  10.691 -0.2763 -0.3522 -1.2257
  402MOL0     C54141   8.822   9.010  10.707 -0.1643  0.1557 -0.7715
  402MOL0     C54142   8.926   8.956  10.631 -0.4328 -0.0419 -0.2619
  402MOL0     O54143   9.057   9.003  10.639 -0.2301 -0.3485  0.1742
  402MOL0     C54144   9.126   9.000  10.768 -1.1803 -1.2475 -0.4445
  402MOL0     C54145   9.276   8.966  10.755 -0.0373  0.5294 -0.4685
  402MOL0     C54146   9.357   9.063  10.680  0.2251 -1.1447 -0.0965
  402MOL0     C54147   9.509   9.010  10.672  0.1196  0.0946 -0.2250
  402MOL0     C54148   9.594   9.118  10.621 -0.2994  0.4805  0.4893
  402MOL0     C54149   9.735   9.069  10.613 -1.1360 -0.6785  0.5336
  402MOL0     C54150   9.830   9.141  10.519 -0.3287 -0.2237 -0.3735
  402MOL0     C54151   9.971   9.087  10.517 -0.9101  0.3559 -0.8399
  402MOL0     N54152  10.055   9.154  10.417  0.0538 -0.0092  0.1416
  402MOL0     C54153  10.168   9.231  10.439  0.2437 -0.1277 -0.0478
  402MOL0     C54154  10.209   9.275  10.317  0.4037  0.3082 -0.7325
  402MOL0     C54155  10.318   9.369  10.293  0.1494 -0.5209  0.1526
  402MOL0     C54156  10.277   9.509  10.322 -0.5068 -0.9399  0.4623
  402MOL0     C54157  10.404   9.593  10.312  0.2825  0.4131 -0.0377
  402MOL0     C54158  10.437   9.639  10.166  0.5432  0.0766 -0.7910
  402MOL0     O54159  10.570   9.691  10.144  0.2907  0.1507  0.3847
  402MOL0     C54160  10.666   9.590  10.126  1.2050  0.7163 -0.1343
  402MOL0     C54161  10.637   9.451  10.141 -0.2394 -0.3298  0.5232
  402MOL0     C54162  10.747   9.363  10.145  0.0238  0.7040 -0.2425
  402MOL0     C54163  10.879   9.407  10.123  0.2720 -0.0558  0.1828
  402MOL0     C54164  10.993   9.325  10.135  0.3435  0.0099  0.4992
  402MOL0     O54165  11.118   9.376  10.114 -0.1315 -0.1413 -0.9797
  402MOL0     C54166  11.236   9.300  10.115 -0.8366 -0.0633  0.5999
  402MOL0     C54167  11.313   9.297  10.228  0.4442  0.0006 -0.0511
  402MOL0     C54168  11.437   9.238  10.229 -0.8183  0.1563  0.9609
  402MOL0     C54169  11.500   9.191  10.112  0.1907 -0.3291  0.3236
  402MOL0     O54170  11.613   9.117  10.108 -0.1928  0.1593 -0.4975
  402MOL0     C54171  11.697   9.114  10.224 -1.1665  0.5571 -0.2860
  402MOL0     C54172  11.836   9.081  10.168  0.4794 -0.8915 -0.0940
  402MOL0     C54173  11.934   9.038  10.278 -0.1143 -0.4227  0.8588
  402MOL0     C54174  11.949   8.893  10.326  0.1953  0.2842 -0.1134
  402MOL0     C54175  12.069   8.871  10.429 -0.2585 -0.6546  0.4411
  402MOL0     C54176  12.082   8.729  10.480 -0.3078 -0.1954  0.5577
  402MOL0     C54177  12.192   8.705  10.590  0.6825 -0.7950 -0.0305
  402MOL0     C54178  12.170   8.567  10.656 -0.6145  0.6473  0.3383
  402MOL0    Cl54179  12.198   8.446  10.533 -0.3190 -0.0859 -0.4405
  402MOL0     C54180  11.424   9.204   9.989  0.4240 -0.1365 -0.7476
  402MOL0     C54181  11.296   9.266   9.994 -0.2146 -0.2251  0.7286
  402MOL0     O54182  10.970   9.202  10.160  0.2026 -0.5618 -0.5605
  402MOL0     C54183  10.904   9.550  10.097 -0.4990 -0.3500 -0.8334
  402MOL0     C54184  10.791   9.634  10.106 -0.4012 -0.1583  0.2659
  402MOL0     N54185  10.118   9.229  10.230  0.8558  0.2987  0.2480
  402MOL0     N54186  10.031   9.150  10.288  0.1679 -0.6205  0.0951
  402MOL0     C54187   8.899   8.855  10.535 -0.2225 -0.5202 -0.1750
  402MOL0     C54188   8.771   8.809  10.508 -0.1286 -0.5372  0.6924
  402MOL0     C54189   8.306   8.840  10.499  0.6296 -0.6433 -1.0285
  402MOL0     C54190   8.260   8.878  10.376  0.0680 -0.4873 -0.0273
  402MOL0     C54191   8.144   8.835  10.327  0.8386  0.0372 -0.1982
  402MOL0     C54192   8.062   8.742  10.390 -0.3653  0.0187 -0.2474
  402MOL0     O54193   7.948   8.708  10.324  0.4886 -0.0061 -0.1660
  402MOL0     C54194   7.859   8.611  10.380 -0.6899 -0.1453 -0.4026
  402MOL0     C54195   7.762   8.550  10.277  0.6718 -0.3196 -0.7458
  402MOL0     C54196   7.652   8.655  10.229  0.2071 -0.3219 -0.0059
  402MOL0     C54197   7.567   8.624  10.104  0.2912  0.1098  0.2801
  402MOL0     C54198   7.509   8.490  10.119  0.7017 -0.6600  0.7445
  402MOL0     C54199   7.455   8.380  10.120 -0.5427 -0.2473  0.0295
  402MOL0     C54200   8.112   8.690  10.504 -0.1664 -0.1790 -0.5519
  402MOL0     C54201   8.232   8.740  10.569 -0.5655  0.5615  1.0477
  402MOL0     C54202   8.282   8.673  10.698  0.0701  0.2576  0.2330
  402MOL0     H54203   8.618   8.992  10.750 -0.1525  0.5431 -1.7066
  402MOL0     H54204   8.829   9.090  10.780  3.0049  0.2688 -1.0863
  402MOL0     H54205   9.116   9.105  10.797 -2.1373 -0.3222 -3.6522
  402MOL0     H54206   9.083   8.933  10.844 -1.8160  0.6049  0.8982
  402MOL0     H54207   9.280   8.869  10.704 -1.2623  1.5892 -2.6741
  402MOL0     H54208   9.321   8.951  10.854  0.9459 -0.3749 -1.0269
  402MOL0     H54209   9.369   9.161  10.726  0.9681 -1.5294  0.5390
  402MOL0     H54210   9.312   9.082  10.582  0.0793 -0.6782  0.0572
  402MOL0     H54211   9.547   8.983  10.771  1.8901  0.7327 -0.7032
  402MOL0     H54212   9.514   8.930  10.598  2.4703 -1.0785  1.0928
  402MOL0     H54213   9.563   9.148  10.520  0.1389 -1.9329 -0.4245
  402MOL0     H54214   9.584   9.210  10.679  0.2941  1.2213 -0.5441
  402MOL0     H54215   9.779   9.071  10.713  2.6926 -0.4753 -0.9624
  402MOL0     H54216   9.727   8.966  10.576 -1.6497 -0.5488  0.2708
  402MOL0     H54217   9.831   9.247  10.547  0.0660 -0.5282  0.8473
  402MOL0     H54218   9.786   9.121  10.421  2.0649  0.5618 -1.6869
  402MOL0     H54219  10.013   9.114  10.615  1.5656 -1.4854 -1.2842
  402MOL0     H54220   9.980   8.978  10.509  0.1752  0.0519  2.6190
  402MOL0     H54221  10.212   9.264  10.533  1.7910 -2.6086  0.2025
  402MOL0     H54222  10.404   9.354  10.359  2.6982  3.3217 -1.9140
  402MOL0     H54223  10.347   9.367  10.187  0.4506  0.3539  0.2112
  402MOL0     H54224  10.194   9.548  10.262  1.3608  2.5888 -0.1199
  402MOL0     H54225  10.242   9.524  10.424 -2.7875  1.7425 -0.5834
  402MOL0     H54226  10.494   9.552  10.359  1.0125 -1.1056 -2.5863
  402MOL0     H54227  10.372   9.679  10.373  1.3952  0.3901  0.5913
  402MOL0     H54228  10.381   9.732  10.150 -0.8471 -0.6068 -0.0875
  402MOL0     H54229  10.389   9.570  10.095 -1.0942 -1.0821  1.3190
  402MOL0     H54230  10.535   9.415  10.147 -0.6824  1.0037  1.6463
  402MOL0     H54231  10.726   9.259  10.168 -0.6159  1.4952  3.1793
  402MOL0     H54232  11.262   9.328  10.318 -1.2100 -4.0300  0.5981
  402MOL0     H54233  11.485   9.223  10.325 -0.1567 -0.2810  0.5698
  402MOL0     H54234  11.706   9.209  10.277  1.3346  0.1971  0.0847
  402MOL0     H54235  11.655   9.040  10.292 -2.8247  1.3704 -0.3795
  402MOL0     H54236  11.819   9.000  10.097 -2.4186  1.5623 -2.4584
  402MOL0     H54237  11.869   9.168  10.110 -2.1306 -0.7551 -1.5164
  402MOL0     H54238  12.034   9.082  10.271 -0.7194  1.9495  4.2461
  402MOL0     H54239  11.907   9.099  10.365 -0.4911  1.6549 -0.6442
  402MOL0     H54240  11.957   8.828  10.238  1.6117  1.1778 -0.6747
  402MOL0     H54241  11.851   8.870  10.369 -0.7788  2.1412 -1.2122
  402MOL0     H54242  12.056   8.944  10.509  0.0673  1.3346 -1.2590
  402MOL0     H54243  12.158   8.895  10.370  0.3710  1.3000  2.0790
  402MOL0     H54244  11.981   8.707  10.514 -2.0306  1.5327 -2.9028
  402MOL0     H54245  12.096   8.655  10.400  0.0841 -1.2442  1.5594
  402MOL0     H54246  12.176   8.779  10.669  4.0386 -0.1037  0.1745
  402MOL0     H54247  12.294   8.714  10.551  2.1649 -1.4914  3.3660
  402MOL0     H54248  12.234   8.558  10.744  0.7515  0.9933 -0.5807
  402MOL0     H54249  12.065   8.560  10.685 -0.7908  0.1415 -0.3987
  402MOL0     H54250  11.468   9.165   9.898  2.1269  0.1057 -0.0835
  402MOL0     H54251  11.234   9.290   9.908 -1.5441  2.2892  2.2835
  402MOL0     H54252  11.007   9.584  10.093 -0.0838 -1.4511 -0.0257
  402MOL0     H54253  10.807   9.741  10.103 -0.4365 -0.1684 -2.7109
  402MOL0     H54254   8.982   8.820  10.474  0.4220  0.6072  0.0222
  402MOL0     H54255   8.749   8.750  10.419 -1.4618  1.8586 -0.6662
  402MOL0     H54256   8.308   8.955  10.317 -2.7158  0.4995 -1.1743
  402MOL0     H54257   8.116   8.863  10.226  1.6641  1.0535 -0.1588
  402MOL0     H54258   7.803   8.657  10.462 -0.5144 -1.5292  0.5418
  402MOL0     H54259   7.908   8.519  10.414  0.0016 -0.5707 -2.3935
  402MOL0     H54260   7.714   8.459  10.314  1.3359 -1.0246 -1.5781
  402MOL0     H54261   7.823   8.530  10.188  1.4723 -0.6235 -0.1317
  402MOL0     H54262   7.699   8.747  10.196 -3.4067  1.7118 -0.0502
  402MOL0     H54263   7.589   8.678  10.316  0.2378  3.7989 -0.9104
  402MOL0     H54264   7.486   8.698  10.113  1.5326  2.0966 -2.8908
  402MOL0     H54265   7.618   8.632  10.007 -0.8159 -2.5985 -0.6142
  402MOL0     H54266   7.391   8.294  10.125 -0.8346 -0.1217 -1.1870
  402MOL0     H54267   8.064   8.602  10.546  1.1347 -0.7941 -0.3150
  402MOL0     H54268   8.194   8.660  10.761 -0.2419  2.0660  0.2115
  402MOL0     H54269   8.314   8.570  10.679 -2.2377 -0.4869  0.1602
  402MOL0     H54270   8.356   8.736  10.749  0.1613  2.0748 -1.9956
  403MOL0     O54271  11.160   1.956   7.088  0.2110 -0.7445  0.0578
  403MOL0     C54272  11.108   2.059   7.039  0.2373  0.5736 -0.0259
  403MOL0     O54273  11.147   2.193   7.062 -0.1235  0.6795 -0.6977
  403MOL0     C54274  11.252   2.208   7.145  0.9103  0.2920  0.4452
  403MOL0     C54275  11.384   2.189   7.111  0.6589 -0.2969  0.2150
  403MOL0     C54276  11.486   2.218   7.196 -0.2622  0.7221 -0.6041
  403MOL0     C54277  11.459   2.270   7.328 -0.3906 -0.2667  0.9299
  403MOL0     O54278  11.567   2.298   7.410  0.2475  0.0449  0.4485
  403MOL0     C54279  11.538   2.359   7.542  0.1914  0.8906  0.2176
  403MOL0     C54280  11.658   2.426   7.600  0.4137  0.0522  0.0632
  403MOL0     C54281  11.697   2.554   7.520 -0.5726  0.0872 -1.1736
  403MOL0     C54282  11.815   2.619   7.582  0.1286  0.2270  0.7665
  403MOL0     C54283  11.870   2.735   7.496 -0.3960 -0.8554 -0.7753
  403MOL0     C54284  11.993   2.802   7.558 -0.4785 -0.4090 -0.6234
  403MOL0     C54285  11.948   2.885   7.683  1.1114 -0.2679  0.0106
  403MOL0     C54286  12.033   3.011   7.702  0.0662 -0.4358  0.1362
  403MOL0     N54287  12.177   3.000   7.744  0.2127  0.2535  0.3602
  403MOL0     C54288  12.283   2.957   7.670 -0.3682 -0.1659  0.3576
  403MOL0     C54289  12.387   2.969   7.751 -0.4892  0.4635 -0.7861
  403MOL0     C54290  12.526   2.916   7.745  0.1398 -0.1207 -0.5060
  403MOL0     C54291  12.574   2.855   7.618  0.3889  0.1019 -0.7666
  403MOL0     C54292  12.548   2.703   7.631 -0.3623 -0.0496 -0.0547
  403MOL0     C54293  12.582   2.630   7.497 -0.8493  0.0228  0.5234
  403MOL0     O54294  12.727   2.646   7.475 -0.0804 -0.3898 -0.6547
  403MOL0     C54295  12.762   2.598   7.355 -0.3238  0.3300  0.3889
  403MOL0     C54296  12.687   2.579   7.238 -0.3152  0.2282  0.0849
  403MOL0     C54297  12.746   2.533   7.118 -0.4662  0.6484 -0.4332
  403MOL0     C54298  12.879   2.487   7.112  0.0757  0.1084  0.3720
  403MOL0     C54299  12.953   2.446   6.988  0.0263  0.5062 -0.0583
  403MOL0     O54300  13.095   2.443   6.997  0.5499  0.1396 -0.7652
  403MOL0     C54301  13.174   2.393   6.897 -0.2602 -0.1230 -0.5157
  403MOL0     C54302  13.152   2.407   6.761  0.2792  0.2885  0.4870
  403MOL0     C54303  13.243   2.349   6.670 -0.3238 -0.1306  0.1372
  403MOL0     C54304  13.361   2.285   6.721 -0.5415 -0.5194  0.3488
  403MOL0     O54305  13.449   2.237   6.626  0.6310  0.2247 -0.2852
  403MOL0     C54306  13.561   2.173   6.681  0.3884 -0.0952  0.4722
  403MOL0     C54307  13.645   2.136   6.556 -0.8510  0.2020  0.3924
  403MOL0     C54308  13.750   2.037   6.596  0.1669  0.3634  0.0688
  403MOL0     C54309  13.874   2.108   6.653 -0.4115  0.0754  0.2112
  403MOL0     C54310  13.993   2.019   6.697 -0.3129 -0.2612  0.5466
  403MOL0     C54311  14.116   2.107   6.713 -0.2094 -0.3413 -0.0873
  403MOL0     C54312  14.237   2.035   6.775 -0.6607 -0.0162  0.1710
  403MOL0     C54313  14.206   1.980   6.911 -0.4046  0.1707  0.5438
  403MOL0    Cl54314  14.347   1.988   7.020  0.0751 -0.3346 -0.0910
  403MOL0     C54315  13.381   2.278   6.859 -0.6552 -0.4332  0.2463
  403MOL0     C54316  13.287   2.330   6.942  0.0374 -0.8008  0.2436
  403MOL0     O54317  12.889   2.396   6.899 -0.5943  0.4089  0.6203
  403MOL0     C54318  12.953   2.505   7.227  0.1125  0.9440 -0.7428
  403MOL0     C54319  12.892   2.559   7.341  0.6589 -0.0800 -0.8346
  403MOL0     N54320  12.349   3.039   7.867 -0.6825  0.8565 -0.1877
  403MOL0     N54321  12.222   3.060   7.861 -0.2933  0.0856 -0.2449
  403MOL0     C54322  11.322   2.280   7.366 -0.4863  0.4319 -0.5641
  403MOL0     C54323  11.221   2.254   7.275 -0.8437  0.5395  0.5491
  403MOL0     C54324  10.995   2.034   6.951 -0.1544  0.2457  0.0260
  403MOL0     C54325  10.982   2.110   6.828 -0.5834  0.6085  0.2240
  403MOL0     C54326  10.879   2.081   6.735 -0.3518  0.1378 -0.1504
  403MOL0     C54327  10.783   1.981   6.758 -0.4311  0.6343  0.2565
  403MOL0     O54328  10.705   1.953   6.654  0.0652  0.1662 -0.5423
  403MOL0     C54329  10.634   1.824   6.656  0.4723  0.1135  0.7416
  403MOL0     C54330  10.542   1.829   6.526  0.4746 -0.4874 -0.0793
  403MOL0     C54331  10.623   1.833   6.399 -0.1057  0.2923 -0.7354
  403MOL0     C54332  10.554   1.836   6.266 -0.5489  0.0595  0.8798
  403MOL0     C54333  10.486   1.966   6.244 -0.4100  0.4754 -0.0408
  403MOL0     C54334  10.436   2.073   6.232  0.0815  0.4453 -0.1897
  403MOL0     C54335  10.788   1.920   6.881 -0.3664  0.3677  0.0811
  403MOL0     C54336  10.890   1.943   6.978  0.1353 -0.0685 -0.1116
  403MOL0     C54337  10.875   1.883   7.116 -0.5010 -0.6319  0.1028
  403MOL0     H54338  11.401   2.169   7.005  0.1495  0.1549  0.0418
  403MOL0     H54339  11.590   2.210   7.167 -0.2752 -1.4601 -0.1824
  403MOL0     H54340  11.462   2.436   7.528 -2.0117 -1.3775 -1.0822
  403MOL0     H54341  11.499   2.284   7.611  1.1861 -1.2475 -1.4019
  403MOL0     H54342  11.739   2.356   7.581  2.6284  2.6474 -0.7542
  403MOL0     H54343  11.642   2.441   7.707  1.3310  1.7472 -0.0076
  403MOL0     H54344  11.611   2.621   7.519  0.0590  1.1841  2.3529
  403MOL0     H54345  11.732   2.522   7.422  1.4400  1.1147 -0.8458
  403MOL0     H54346  11.789   2.661   7.679 -0.6125  0.3024  0.5395
  403MOL0     H54347  11.892   2.542   7.598  1.0902  1.5204  2.7667
  403MOL0     H54348  11.881   2.703   7.392 -3.0337 -0.5062 -1.2374
  403MOL0     H54349  11.793   2.814   7.490 -1.2878 -1.6931 -0.6121
  403MOL0     H54350  12.085   2.748   7.582  0.4651  0.9046 -1.1380
  403MOL0     H54351  12.010   2.872   7.476 -0.0746  1.6512  1.1497
  403MOL0     H54352  11.951   2.830   7.777 -0.4229 -2.2643 -1.0259
  403MOL0     H54353  11.844   2.913   7.669  1.3680  0.2265 -0.9997
  403MOL0     H54354  12.026   3.063   7.606 -1.1388  0.0304  0.4563
  403MOL0     H54355  11.978   3.068   7.778  0.2357 -2.0195  1.4909
  403MOL0     H54356  12.286   2.902   7.576 -3.2815 -1.3873  0.8742
  403MOL0     H54357  12.589   3.000   7.773  0.6392 -0.5042 -0.4618
  403MOL0     H54358  12.539   2.839   7.822 -1.0863  1.8387  1.7910
  403MOL0     H54359  12.518   2.899   7.535 -0.7550  2.4282  1.1165
  403MOL0     H54360  12.679   2.883   7.607  0.1173  1.5872  0.1626
  403MOL0     H54361  12.442   2.691   7.655 -0.8599  0.6683 -1.7776
  403MOL0     H54362  12.608   2.647   7.704 -0.1056 -5.0293 -3.5686
  403MOL0     H54363  12.529   2.682   7.417 -0.9084 -0.2407  0.3909
  403MOL0     H54364  12.557   2.523   7.500  0.4707 -0.3715 -1.0274
  403MOL0     H54365  12.583   2.606   7.224 -0.1405  0.8889  0.0339
  403MOL0     H54366  12.706   2.539   7.017  2.8009 -0.1801 -1.9034
  403MOL0     H54367  13.067   2.465   6.725  0.2981  0.2193  0.3285
  403MOL0     H54368  13.225   2.360   6.563 -2.0619 -2.6842  0.0951
  403MOL0     H54369  13.621   2.239   6.743 -1.2754 -0.3780  2.4898
  403MOL0     H54370  13.540   2.096   6.756  1.5842  2.6515  3.8579
  403MOL0     H54371  13.582   2.086   6.482  0.2099 -0.0925 -0.3340
  403MOL0     H54372  13.692   2.224   6.513  1.0887 -0.2226  1.5359
  403MOL0     H54373  13.719   1.954   6.660 -2.0622 -0.6780 -2.1761
  403MOL0     H54374  13.783   1.978   6.510 -2.1927 -1.8053  0.5429
  403MOL0     H54375  13.839   2.161   6.741 -0.7741 -2.0576  1.4102
  403MOL0     H54376  13.916   2.170   6.573  0.1729 -0.3094  0.2111
  403MOL0     H54377  14.024   1.955   6.615  0.4224 -0.4454  0.9562
  403MOL0     H54378  13.956   1.965   6.785 -2.3820  1.8626  1.0966
  403MOL0     H54379  14.135   2.146   6.612 -1.7066  3.7666  0.9986
  403MOL0     H54380  14.104   2.200   6.770  1.4467  1.5181 -2.5522
  403MOL0     H54381  14.318   2.109   6.778  0.0469 -0.7499 -0.3504
  403MOL0     H54382  14.276   1.957   6.709 -1.9450  1.1439 -2.1220
  403MOL0     H54383  14.121   2.033   6.954 -1.4596 -0.3459 -0.8452
  403MOL0     H54384  14.181   1.876   6.890 -0.5836  0.1241  0.9763
  403MOL0     H54385  13.464   2.225   6.904 -1.9913 -1.1389  2.0406
  403MOL0     H54386  13.298   2.311   7.049  3.0899 -0.1336  0.1608
  403MOL0     H54387  13.060   2.493   7.222 -0.1710 -2.8536 -1.0972
  403MOL0     H54388  12.961   2.575   7.423 -0.0648 -0.9422 -0.0264
  403MOL0     H54389  11.289   2.319   7.462 -0.0831 -1.9981  0.6420
  403MOL0     H54390  11.117   2.277   7.296 -1.9351 -3.0418 -0.1876
  403MOL0     H54391  11.041   2.196   6.797 -1.1890  1.4774  1.4045
  403MOL0     H54392  10.862   2.135   6.642 -0.2200 -0.8261 -0.7523
  403MOL0     H54393  10.578   1.804   6.748  0.7056  0.0761  0.8747
  403MOL0     H54394  10.711   1.748   6.643 -0.8015 -1.0942 -0.1402
  403MOL0     H54395  10.470   1.912   6.528 -0.0821 -0.9375 -0.7846
  403MOL0     H54396  10.473   1.744   6.522 -0.3225  0.1185  0.4671
  403MOL0     H54397  10.683   1.742   6.400  1.4301  1.2426 -1.7666
  403MOL0     H54398  10.690   1.919   6.394  1.2564 -0.5413  1.5748
  403MOL0     H54399  10.624   1.808   6.186  0.9338 -0.9260  2.4449
  403MOL0     H54400  10.482   1.754   6.275 -1.4521  0.8874  1.3253
  403MOL0     H54401  10.386   2.167   6.218 -4.4779 -1.7779 -0.9263
  403MOL0     H54402  10.703   1.856   6.901 -0.9946  0.5565 -1.8459
  403MOL0     H54403  10.783   1.826   7.135  0.9488 -3.9309 -1.7922
  403MOL0     H54404  10.949   1.802   7.125 -1.0590 -1.2296 -0.5637
  403MOL0     H54405  10.897   1.959   7.192 -1.1425  1.5710 -1.8207
  404MOL0     O54406   3.379   6.776   0.405 -0.5062  0.6045 -0.2264
  404MOL0     C54407   3.366   6.683   0.324  0.5033 -1.0468 -0.8746
  404MOL0     O54408   3.439   6.673   0.205 -0.0264 -0.6709  0.5196
  404MOL0     C54409   3.541   6.759   0.177 -0.5757  0.5223 -0.5627
  404MOL0     C54410   3.587   6.750   0.038 -0.4557  0.0530 -1.0442
  404MOL0     C54411   3.695   6.823  -0.010  0.8317 -0.4281 -0.1022
  404MOL0     C54412   3.763   6.912   0.077  0.3315  0.0679 -0.6013
  404MOL0     O54413   3.854   6.999   0.029  0.1209  0.4255  0.5682
  404MOL0     C54414   3.806   7.089  -0.073 -0.6379  1.5095  0.8825
  404MOL0     C54415   3.872   7.082  -0.214  0.1222  0.0316 -0.9755
  404MOL0     C54416   4.013   7.099  -0.226 -0.2451  0.0623  0.5898
  404MOL0     C54417   4.095   6.992  -0.154  0.9306 -0.0298  0.1186
  404MOL0     C54418   4.239   7.020  -0.174 -0.0858 -0.2479  0.7037
  404MOL0     C54419   4.318   6.892  -0.133  0.5535  0.1249  0.0060
  404MOL0     C54420   4.466   6.899  -0.098  0.5998 -0.3089  0.6429
  404MOL0     C54421   4.560   6.957  -0.192  0.6837 -0.0361 -0.7011
  404MOL0     N54422   4.690   6.980  -0.118 -0.2744  0.1395  0.7082
  404MOL0     C54423   4.759   7.094  -0.078  0.6288  0.9440 -0.2226
  404MOL0     C54424   4.881   7.050  -0.021 -0.5932 -0.0877 -0.0815
  404MOL0     C54425   4.984   7.137   0.054 -0.2023  0.1398 -0.3511
  404MOL0     C54426   5.069   7.209  -0.048  0.2821  0.0563  1.2730
  404MOL0     C54427   5.217   7.203  -0.013  0.8412 -0.0369  0.3420
  404MOL0     C54428   5.316   7.236  -0.131  0.6801  0.3310 -0.2589
  404MOL0     O54429   5.399   7.347  -0.107  0.2039  0.0798  0.1401
  404MOL0     C54430   5.500   7.365  -0.195 -0.1075  0.3191  0.7946
  404MOL0     C54431   5.607   7.453  -0.177 -0.2638 -0.1419  0.9618
  404MOL0     C54432   5.714   7.465  -0.262 -1.2973  0.6751  0.2007
  404MOL0     C54433   5.721   7.390  -0.383  0.2912  1.1405  0.4513
  404MOL0     C54434   5.835   7.399  -0.476 -0.6145 -0.8905 -0.0405
  404MOL0     O54435   5.825   7.326  -0.595 -1.4538  0.3631  0.4160
  404MOL0     C54436   5.906   7.361  -0.700 -0.7444  0.7489 -0.2476
  404MOL0     C54437   5.843   7.387  -0.821 -0.2040 -0.1547  0.0032
  404MOL0     C54438   5.914   7.408  -0.942 -0.6543 -0.3986 -0.6872
  404MOL0     C54439   6.054   7.411  -0.940 -0.2428  0.5108 -0.1154
  404MOL0     O54440   6.129   7.419  -1.061  0.2931 -0.1592 -0.4512
  404MOL0     C54441   6.259   7.470  -1.066 -0.1237 -0.3397  0.6668
  404MOL0     C54442   6.363   7.355  -1.059  0.4690  0.3327  0.0228
  404MOL0     C54443   6.504   7.402  -1.091 -0.4182 -0.4555  0.3637
  404MOL0     C54444   6.596   7.411  -0.967  0.1967  0.7206 -0.7911
  404MOL0     C54445   6.719   7.482  -1.009 -0.1051  0.3689  0.5354
  404MOL0     C54446   6.834   7.467  -0.913 -0.4297  0.4340 -0.2806
  404MOL0     C54447   6.831   7.580  -0.816  0.1715 -0.0237 -0.0043
  404MOL0     C54448   6.968   7.584  -0.733 -0.3548 -1.3408 -0.2400
  404MOL0    Cl54449   6.967   7.727  -0.613 -0.2152 -0.2052 -0.1749
  404MOL0     C54450   6.112   7.392  -0.811  0.1198  1.1409  0.2280
  404MOL0     C54451   6.042   7.360  -0.700  0.2784 -0.8881  0.2501
  404MOL0     O54452   5.920   7.474  -0.436  0.1769  0.5369  0.1785
  404MOL0     C54453   5.610   7.314  -0.414 -0.4337 -0.5028  0.0288
  404MOL0     C54454   5.510   7.299  -0.325  0.0561 -0.2807 -0.2073
  404MOL0     N54455   4.883   6.910  -0.043 -0.0250 -0.6513  0.1488
  404MOL0     N54456   4.771   6.876  -0.100  0.6533  0.2461 -0.6312
  404MOL0     C54457   3.728   6.919   0.216 -0.4735 -0.3639 -0.2773
  404MOL0     C54458   3.621   6.844   0.264  0.3511  0.2637  0.2716
  404MOL0     C54459   3.248   6.598   0.333 -0.5183  0.4000  0.4783
  404MOL0     C54460   3.185   6.549   0.220  0.1284  0.1740  0.1010
  404MOL0     C54461   3.069   6.482   0.226  0.3419  0.0099  0.1985
  404MOL0     C54462   2.997   6.455   0.347  0.1689  0.7507 -0.0415
  404MOL0     O54463   2.884   6.383   0.336 -0.1784 -0.2618 -0.4923
  404MOL0     C54464   2.826   6.324   0.453 -0.3700 -0.4604 -1.0913
  404MOL0     C54465   2.699   6.241   0.423 -0.9754 -0.1313  0.6017
  404MOL0     C54466   2.738   6.137   0.323 -1.2928  0.3606 -0.1367
  404MOL0     C54467   2.641   6.026   0.315 -1.0084 -0.4645  0.2206
  404MOL0     C54468   2.694   5.902   0.254 -0.4318  0.0428  0.7728
  404MOL0     C54469   2.736   5.805   0.187  0.1930  0.1875 -0.0949
  404MOL0     C54470   3.059   6.498   0.464  0.1851 -0.5744 -0.5522
  404MOL0     C54471   3.181   6.572   0.459 -0.1030  0.3893  0.0051
  404MOL0     C54472   3.231   6.624   0.588 -0.6451  0.8206  0.1598
  404MOL0     H54473   3.544   6.679  -0.032  0.2750  0.2007 -1.6574
  404MOL0     H54474   3.724   6.809  -0.114  0.5525  0.0442 -0.2488
  404MOL0     H54475   3.701   7.066  -0.093  0.4019 -1.4761 -1.8599
  404MOL0     H54476   3.812   7.194  -0.041  0.7290  1.3710  1.1243
  404MOL0     H54477   3.825   7.156  -0.279 -0.1152  2.0391  1.3489
  404MOL0     H54478   3.863   6.988  -0.269  1.9651  0.1466 -1.5346
  404MOL0     H54479   4.044   7.194  -0.180 -0.1557 -0.2001  1.0765
  404MOL0     H54480   4.033   7.097  -0.333 -2.4173 -1.7847  0.1698
  404MOL0     H54481   4.076   6.989  -0.046 -0.1546  0.5255 -0.0434
  404MOL0     H54482   4.066   6.894  -0.193  2.2547 -0.7444  0.8690
  404MOL0     H54483   4.249   7.049  -0.279 -1.9429 -0.5813  0.3991
  404MOL0     H54484   4.283   7.107  -0.123  1.7962 -0.6031 -0.2267
  404MOL0     H54485   4.266   6.859  -0.043  0.5371  0.5023  0.1334
  404MOL0     H54486   4.308   6.810  -0.205  1.0304 -3.1028  3.2975
  404MOL0     H54487   4.502   6.797  -0.084 -1.2094 -0.8798  1.3048
  404MOL0     H54488   4.467   6.961  -0.007 -0.4464  1.7466 -0.6499
  404MOL0     H54489   4.576   6.896  -0.281  3.4437  0.8902 -0.9594
  404MOL0     H54490   4.523   7.056  -0.220  0.5352  0.0534 -0.1888
  404MOL0     H54491   4.729   7.198  -0.065  1.8038  1.4464 -1.3703
  404MOL0     H54492   4.928   7.204   0.120  1.9989 -0.7862  2.6867
  404MOL0     H54493   5.041   7.083   0.131 -0.7272  0.9919  0.6714
  404MOL0     H54494   5.057   7.156  -0.142 -1.3704 -2.0151  2.5721
  404MOL0     H54495   5.027   7.308  -0.069 -2.9477 -1.3231  0.6380
  404MOL0     H54496   5.243   7.103   0.023  0.2305  0.3780  2.0256
  404MOL0     H54497   5.224   7.280   0.064 -0.8295  0.6990 -0.2115
  404MOL0     H54498   5.253   7.248  -0.219 -3.8357 -2.2840  2.2666
  404MOL0     H54499   5.381   7.148  -0.139 -0.7365 -0.9729  1.6330
  404MOL0     H54500   5.614   7.517  -0.090 -1.4477  0.7819  0.3912
  404MOL0     H54501   5.795   7.534  -0.240  2.0898 -2.7898 -0.3192
  404MOL0     H54502   5.734   7.393  -0.824 -0.1401  1.1470 -1.7806
  404MOL0     H54503   5.852   7.431  -1.028 -2.0355  2.6824  0.9638
  404MOL0     H54504   6.262   7.522  -1.162  0.4423  0.2631  1.0077
  404MOL0     H54505   6.285   7.546  -0.992  1.2245  1.1654 -1.2581
  404MOL0     H54506   6.359   7.309  -0.960 -1.6370  1.8550  0.7126
  404MOL0     H54507   6.341   7.274  -1.130  0.5350  2.0481 -2.0730
  404MOL0     H54508   6.557   7.346  -1.169  1.9794 -0.6495  2.0080
  404MOL0     H54509   6.495   7.500  -1.139  2.4068 -0.3742 -0.1771
  404MOL0     H54510   6.618   7.311  -0.928  2.0860  1.5303  0.3464
  404MOL0     H54511   6.548   7.463  -0.883 -1.8092  1.0292 -2.0474
  404MOL0     H54512   6.699   7.585  -1.040 -1.1890  0.3556  1.1373
  404MOL0     H54513   6.755   7.426  -1.096 -2.8557 -1.0059  0.1592
  404MOL0     H54514   6.817   7.370  -0.865  2.8897 -0.5936 -0.9076
  404MOL0     H54515   6.933   7.477  -0.958 -0.1079 -1.2107 -0.0062
  404MOL0     H54516   6.748   7.553  -0.750 -1.6603  0.0599 -2.1656
  404MOL0     H54517   6.813   7.673  -0.870 -1.5715 -0.8069 -0.8567
  404MOL0     H54518   6.981   7.486  -0.687 -0.6718 -2.1748 -1.8372
  404MOL0     H54519   7.055   7.608  -0.795 -0.2860  1.9835  0.9280
  404MOL0     H54520   6.220   7.391  -0.807  0.3460  0.8319 -3.2537
  404MOL0     H54521   6.084   7.357  -0.600 -0.9199  1.2234  0.8842
  404MOL0     H54522   5.610   7.265  -0.511 -2.6252  1.3541 -1.0183
  404MOL0     H54523   5.425   7.240  -0.360 -0.4818  1.2407 -1.6249
  404MOL0     H54524   3.793   6.969   0.287 -1.4710  0.4553  0.0764
  404MOL0     H54525   3.605   6.851   0.371  2.3067  4.9410  0.4819
  404MOL0     H54526   3.225   6.579   0.124  1.3452 -0.5270  0.3583
  404MOL0     H54527   3.031   6.444   0.131  3.6392 -1.5782 -0.6162
  404MOL0     H54528   2.797   6.404   0.521 -0.9480 -0.1896 -1.6439
  404MOL0     H54529   2.909   6.271   0.500  0.2767  1.9015  0.5718
  404MOL0     H54530   2.617   6.303   0.385 -1.0202  0.9066  2.3001
  404MOL0     H54531   2.678   6.187   0.515  3.0168 -1.2250  1.0461
  404MOL0     H54532   2.836   6.096   0.351 -0.2950  2.8651  0.2796
  404MOL0     H54533   2.756   6.187   0.227  0.5370 -0.5556 -0.3225
  404MOL0     H54534   2.615   5.996   0.417 -2.5139  1.5765  0.4971
  404MOL0     H54535   2.559   6.067   0.255 -0.5134  0.7605  0.3402
  404MOL0     H54536   2.770   5.715   0.140 -2.7740 -0.6629 -0.8033
  404MOL0     H54537   3.001   6.488   0.555  1.5222 -1.8937  0.1908
  404MOL0     H54538   3.210   6.731   0.598  0.4818  1.0447  0.2435
  404MOL0     H54539   3.184   6.578   0.675  2.3394  0.0108  1.4927
  404MOL0     H54540   3.337   6.608   0.612 -0.3090  0.1105 -1.6628
  405MOL0     O54541   1.652   7.238   4.667 -0.4305 -0.2868 -0.4927
  405MOL0     C54542   1.582   7.299   4.587  0.6114  0.6211 -0.2034
  405MOL0     O54543   1.575   7.275   4.446  0.0801  0.5932  0.1598
  405MOL0     C54544   1.630   7.166   4.389 -1.3556  0.6572  0.6579
  405MOL0     C54545   1.635   7.044   4.449 -0.1506 -0.4709 -0.1008
  405MOL0     C54546   1.720   6.949   4.389 -0.4873  1.0765 -0.5007
  405MOL0     C54547   1.786   6.963   4.262  1.2236  0.0324 -0.7810
  405MOL0     O54548   1.873   6.868   4.209  0.3970 -0.1401  0.2896
  405MOL0     C54549   2.000   6.863   4.282  0.1635  0.0627  0.0830
  405MOL0     C54550   2.112   6.834   4.186 -0.0466  0.1495  0.3749
  405MOL0     C54551   2.226   6.741   4.240 -0.2887 -0.5950  0.2025
  405MOL0     C54552   2.334   6.702   4.132 -0.1105  0.0138  0.4449
  405MOL0     C54553   2.452   6.621   4.198 -0.5421 -0.3603  0.0051
  405MOL0     C54554   2.568   6.591   4.102 -0.3455  0.0262  0.1519
  405MOL0     C54555   2.659   6.721   4.088  0.1663 -0.1720 -0.2439
  405MOL0     C54556   2.744   6.719   3.960  0.3454  0.0189  0.6558
  405MOL0     N54557   2.833   6.608   3.960 -0.2194  0.4227 -0.0745
  405MOL0     C54558   2.921   6.570   4.061 -0.0435 -0.3414 -0.1697
  405MOL0     C54559   3.011   6.481   4.013  0.8595  0.4560 -0.6201
  405MOL0     C54560   3.129   6.407   4.074  0.1229  0.9356 -0.3256
  405MOL0     C54561   3.224   6.500   4.155  0.1328 -0.1635  1.0691
  405MOL0     C54562   3.287   6.605   4.071 -0.3075  0.3136  0.0277
  405MOL0     C54563   3.387   6.690   4.144  0.1682  0.2012 -0.4370
  405MOL0     O54564   3.497   6.608   4.183 -0.7004  0.1913  0.8050
  405MOL0     C54565   3.620   6.675   4.214  1.0023  0.1244  0.5890
  405MOL0     C54566   3.637   6.812   4.192  0.1301  0.0320  0.4355
  405MOL0     C54567   3.764   6.864   4.223 -0.3398 -0.8775 -0.3337
  405MOL0     C54568   3.872   6.786   4.270  0.6739 -0.1834 -0.1652
  405MOL0     C54569   4.008   6.835   4.302  0.2999  0.2808 -0.1999
  405MOL0     O54570   4.115   6.749   4.296 -0.2103  0.0640 -0.4824
  405MOL0     C54571   4.249   6.787   4.325  0.0481 -0.1904 -0.5750
  405MOL0     C54572   4.316   6.901   4.277  1.0710  0.7270  0.1649
  405MOL0     C54573   4.453   6.907   4.305 -1.0783 -0.4097 -0.0056
  405MOL0     C54574   4.522   6.818   4.388 -0.1314 -0.7924 -0.2491
  405MOL0     O54575   4.654   6.837   4.396  0.6406 -0.1364 -0.3305
  405MOL0     C54576   4.735   6.735   4.454 -0.3466 -0.5455 -0.0953
  405MOL0     C54577   4.879   6.777   4.413  0.8919  0.2242  0.5600
  405MOL0     C54578   4.968   6.665   4.466  0.6173 -0.5442 -0.2195
  405MOL0     C54579   5.106   6.707   4.449 -1.3440  0.1918 -0.3520
  405MOL0     C54580   5.212   6.606   4.504  0.5086  0.4221  0.3949
  405MOL0     C54581   5.353   6.642   4.455 -0.5755 -0.2965  0.1676
  405MOL0     C54582   5.463   6.585   4.549  0.2349 -0.8993  0.5378
  405MOL0     C54583   5.589   6.643   4.509 -0.2433  0.0817 -0.5630
  405MOL0    Cl54584   5.621   6.814   4.544  0.3183  0.4175 -0.2446
  405MOL0     C54585   4.454   6.708   4.433 -0.0660  0.5515 -1.4403
  405MOL0     C54586   4.315   6.693   4.399 -1.0758  0.5175 -0.2217
  405MOL0     O54587   4.014   6.956   4.338  0.2156  0.3094  0.3703
  405MOL0     C54588   3.840   6.648   4.280 -0.6282 -0.1006 -0.4806
  405MOL0     C54589   3.719   6.595   4.252  0.6812 -0.5245  0.1675
  405MOL0     N54590   2.967   6.456   3.880 -0.0143  0.0684 -0.0096
  405MOL0     N54591   2.864   6.529   3.856 -0.3252  0.3362  0.1195
  405MOL0     C54592   1.765   7.090   4.201 -0.6417 -0.0540 -1.0546
  405MOL0     C54593   1.687   7.186   4.263 -0.2781 -0.5182  0.1419
  405MOL0     C54594   1.502   7.408   4.646  0.7332 -0.1269 -1.0033
  405MOL0     C54595   1.482   7.413   4.784 -0.7635  0.1219 -0.0076
  405MOL0     C54596   1.416   7.517   4.843 -0.0068  0.6711  0.1379
  405MOL0     C54597   1.343   7.608   4.777 -0.5881 -1.0079  0.5690
  405MOL0     O54598   1.247   7.687   4.846 -0.3819 -0.3485 -0.0609
  405MOL0     C54599   1.117   7.724   4.788 -0.2068 -0.3784  0.1541
  405MOL0     C54600   1.019   7.615   4.806  0.5034 -0.0388  0.2785
  405MOL0     C54601   0.882   7.639   4.726 -1.0025 -1.4028 -0.2885
  405MOL0     C54602   0.765   7.686   4.802  0.1692 -0.6780  0.1686
  405MOL0     C54603   0.634   7.659   4.742 -0.3166  0.4549 -1.2626
  405MOL0     C54604   0.516   7.659   4.698  0.9144  0.5749  0.0788
  405MOL0     C54605   1.359   7.610   4.641  0.2102 -0.3113 -0.4706
  405MOL0     C54606   1.430   7.512   4.569 -1.2163  0.1842 -0.1061
  405MOL0     C54607   1.445   7.531   4.421  0.6994  1.2090 -0.2392
  405MOL0     H54608   1.588   7.023   4.545  0.9441 -1.6252  0.2225
  405MOL0     H54609   1.723   6.851   4.436 -0.5558  0.7819 -1.0980
  405MOL0     H54610   2.032   6.957   4.327  3.3297 -0.5750 -0.5351
  405MOL0     H54611   1.997   6.788   4.361  0.0928 -1.1029 -0.9909
  405MOL0     H54612   2.135   6.931   4.142 -0.2691 -0.1428 -0.4111
  405MOL0     H54613   2.071   6.775   4.103 -3.9829 -0.6435  2.6476
  405MOL0     H54614   2.193   6.654   4.298  1.2952 -0.3321  1.5912
  405MOL0     H54615   2.259   6.806   4.321 -1.0094 -3.4440  3.0229
  405MOL0     H54616   2.292   6.632   4.059 -0.9351 -2.0927  2.8287
  405MOL0     H54617   2.375   6.785   4.073 -3.5163  0.5041 -1.5520
  405MOL0     H54618   2.493   6.662   4.291 -0.7705 -0.9915  0.3906
  405MOL0     H54619   2.403   6.526   4.222 -2.5423  0.4898 -0.5266
  405MOL0     H54620   2.632   6.505   4.127  0.7218  0.0912 -2.1376
  405MOL0     H54621   2.524   6.558   4.007 -0.4857  1.8706 -0.4539
  405MOL0     H54622   2.721   6.730   4.177  0.6873 -1.9003 -0.3956
  405MOL0     H54623   2.599   6.812   4.087  2.2158  1.3262  2.1639
  405MOL0     H54624   2.680   6.719   3.870  2.8247 -1.1869 -1.2340
  405MOL0     H54625   2.797   6.814   3.954 -0.9198  0.7275  0.1433
  405MOL0     H54626   2.918   6.603   4.164  0.6692 -3.5247  0.9984
  405MOL0     H54627   3.086   6.324   4.132 -2.3842  0.6418 -2.4306
  405MOL0     H54628   3.189   6.369   3.990  1.8498  0.4521  1.0608
  405MOL0     H54629   3.178   6.547   4.242  3.6152  0.3560  2.7889
  405MOL0     H54630   3.300   6.433   4.195 -1.4632  0.1095  5.0470
  405MOL0     H54631   3.202   6.663   4.031  0.0246 -0.3665 -1.7601
  405MOL0     H54632   3.333   6.553   3.986 -0.7169 -3.4028  1.8788
  405MOL0     H54633   3.340   6.724   4.237 -2.1273 -3.4430 -0.0504
  405MOL0     H54634   3.414   6.770   4.075  1.2434  0.8823  0.7368
  405MOL0     H54635   3.557   6.874   4.153  0.4915  0.1859 -0.0639
  405MOL0     H54636   3.763   6.971   4.202 -1.7765 -0.3758  1.8519
  405MOL0     H54637   4.275   6.977   4.213  0.4926  0.1567 -0.1601
  405MOL0     H54638   4.515   6.984   4.258 -0.6251 -2.5295 -3.1878
  405MOL0     H54639   4.733   6.735   4.564  2.9463 -2.1683  0.1096
  405MOL0     H54640   4.707   6.634   4.420 -2.2309  0.3874 -1.4888
  405MOL0     H54641   4.883   6.800   4.306 -2.1310  0.1974  0.3380
  405MOL0     H54642   4.898   6.876   4.456 -1.1650  0.4218  1.1475
  405MOL0     H54643   4.941   6.666   4.572 -3.6774  4.6039 -0.9218
  405MOL0     H54644   4.951   6.577   4.404  2.2087  0.8652 -2.8096
  405MOL0     H54645   5.115   6.805   4.495 -1.0802 -0.4529  1.0265
  405MOL0     H54646   5.121   6.717   4.341 -0.2173 -1.5834 -0.4083
  405MOL0     H54647   5.191   6.505   4.467  2.7974 -1.1251  2.9170
  405MOL0     H54648   5.205   6.615   4.613 -2.9967  0.9534  0.2204
  405MOL0     H54649   5.365   6.603   4.353 -1.9808 -3.5194  1.1208
  405MOL0     H54650   5.368   6.751   4.452  1.7743 -0.5971 -1.2360
  405MOL0     H54651   5.464   6.476   4.547 -2.1103 -1.0629  2.6197
  405MOL0     H54652   5.444   6.624   4.649  0.0519 -1.2171  0.6301
  405MOL0     H54653   5.668   6.581   4.551 -2.2897 -3.0500 -0.9717
  405MOL0     H54654   5.588   6.637   4.400  0.9705  0.8328 -0.6264
  405MOL0     H54655   4.502   6.620   4.474 -0.3234 -0.9578 -4.0814
  405MOL0     H54656   4.267   6.598   4.422  1.4312 -0.5081  1.1555
  405MOL0     H54657   3.922   6.585   4.311  0.5259  1.2947 -0.5571
  405MOL0     H54658   3.700   6.489   4.257  0.3237 -0.6147 -2.1561
  405MOL0     H54659   1.807   7.106   4.102  2.6855  1.2056  0.4021
  405MOL0     H54660   1.676   7.281   4.212  1.3741  0.0877  0.8397
  405MOL0     H54661   1.543   7.350   4.847  0.6725  1.7456  0.2897
  405MOL0     H54662   1.399   7.501   4.949  2.9939 -1.9182  0.3409
  405MOL0     H54663   1.123   7.745   4.681  2.9120  0.1278  0.3524
  405MOL0     H54664   1.080   7.820   4.828  0.0969 -0.2544  0.1383
  405MOL0     H54665   1.005   7.606   4.914  0.1090 -2.5213  0.0898
  405MOL0     H54666   1.065   7.525   4.765  1.3075  1.4716 -2.3297
  405MOL0     H54667   0.856   7.541   4.684  0.4679 -1.6740 -0.6164
  405MOL0     H54668   0.895   7.715   4.649 -2.1535 -0.2789  0.5952
  405MOL0     H54669   0.759   7.644   4.903  0.7879 -1.3431 -0.0604
  405MOL0     H54670   0.781   7.794   4.803 -1.2918 -0.3897  3.1043
  405MOL0     H54671   0.417   7.659   4.658  0.8610  2.1896  0.1575
  405MOL0     H54672   1.306   7.690   4.589 -0.9384  0.4089  1.6983
  405MOL0     H54673   1.396   7.626   4.397 -0.9039  0.5832  0.3605
  405MOL0     H54674   1.553   7.529   4.411  0.8795 -1.3157  1.4195
  405MOL0     H54675   1.398   7.444   4.372  1.7266 -0.3933  1.4998
  406MOL0     O54676   9.360   3.381   9.899  0.0576 -0.1491 -0.0886
  406MOL0     C54677   9.367   3.463   9.808 -0.2213  0.0973 -0.5617
  406MOL0     O54678   9.461   3.473   9.720 -0.5325  0.6932 -0.1762
  406MOL0     C54679   9.573   3.391   9.701  0.1286 -0.3638  0.7595
  406MOL0     C54680   9.608   3.349   9.569  0.7429 -1.2450 -0.0825
  406MOL0     C54681   9.709   3.259   9.542 -0.3184 -0.0019  0.0405
  406MOL0     C54682   9.795   3.210   9.640  0.6162 -0.1597 -0.8101
  406MOL0     O54683   9.903   3.126   9.612  0.5241 -0.0045 -0.0616
  406MOL0     C54684  10.025   3.138   9.689 -0.4141 -0.0703  0.5523
  406MOL0     C54685  10.125   3.039   9.621 -0.1896  0.0744  1.2713
  406MOL0     C54686  10.274   3.044   9.669 -0.0415 -0.5234  0.5051
  406MOL0     C54687  10.328   3.183   9.639 -0.5695 -0.1224 -0.2279
  406MOL0     C54688  10.475   3.181   9.669 -0.2569 -0.4098 -0.3661
  406MOL0     C54689  10.533   3.318   9.686  0.9129  0.4622  0.2268
  406MOL0     C54690  10.676   3.302   9.730  1.2192  0.0151 -0.0885
  406MOL0     C54691  10.739   3.436   9.750 -0.1505  0.3460  0.7511
  406MOL0     N54692  10.684   3.499   9.875 -0.0441  0.8007  0.1191
  406MOL0     C54693  10.606   3.611   9.887  0.8300 -0.4245 -0.4221
  406MOL0     C54694  10.577   3.633  10.015  0.4641  0.4931 -0.0770
  406MOL0     C54695  10.477   3.735  10.065 -0.0416  0.9400 -0.3883
  406MOL0     C54696  10.548   3.863  10.118  0.7118 -0.0693 -0.2876
  406MOL0     C54697  10.635   3.851  10.241 -0.6333  0.4701 -0.9120
  406MOL0     C54698  10.626   3.970  10.335 -0.4847 -0.1328 -0.4480
  406MOL0     O54699  10.698   4.091  10.286  0.1631  0.0581 -0.3678
  406MOL0     C54700  10.815   4.137  10.344  0.3084  0.4580 -0.0589
  406MOL0     C54701  10.882   4.254  10.311  0.7120  0.2335 -0.4786
  406MOL0     C54702  11.008   4.295  10.364 -0.1286  0.5882  0.8744
  406MOL0     C54703  11.076   4.213  10.454 -0.1549 -0.7539  0.1286
  406MOL0     C54704  11.209   4.257  10.490 -0.4331  0.5567  0.5242
  406MOL0     O54705  11.262   4.190  10.598 -0.2765 -0.1603  0.5547
  406MOL0     C54706  11.400   4.197  10.634  0.4950 -0.1314 -0.5811
  406MOL0     C54707  11.482   4.303  10.619  0.1683 -0.0337  0.3742
  406MOL0     C54708  11.610   4.310  10.664 -0.1660 -1.0499  0.0644
  406MOL0     C54709  11.668   4.204  10.729 -0.9842  0.4519  0.0424
  406MOL0     O54710  11.807   4.193  10.765  0.3858  0.1067 -0.2814
  406MOL0     C54711  11.899   4.293  10.710 -0.5500 -0.5718 -0.2094
  406MOL0     C54712  12.014   4.315  10.802 -0.3550  0.7165  0.3489
  406MOL0     C54713  12.147   4.338  10.728 -0.0815  0.3664 -0.2408
  406MOL0     C54714  12.255   4.348  10.828  0.0957  0.6039 -0.6498
  406MOL0     C54715  12.357   4.460  10.795 -0.6847  0.5551 -0.1150
  406MOL0     C54716  12.445   4.426  10.674  0.2559 -0.7263 -0.2676
  406MOL0     C54717  12.563   4.525  10.643 -0.2062 -0.1736 -1.0166
  406MOL0     C54718  12.670   4.461  10.546 -0.1205  0.0790 -0.1844
  406MOL0    Cl54719  12.749   4.586  10.461 -0.0988 -0.2344  0.5467
  406MOL0     C54720  11.584   4.091  10.754 -0.1438 -0.3712 -0.2139
  406MOL0     C54721  11.456   4.087  10.705 -0.1942  0.3348  0.0820
  406MOL0     O54722  11.270   4.332  10.418 -0.2329  0.1106 -0.1084
  406MOL0     C54723  11.006   4.102  10.502 -0.4684  0.4189  0.9566
  406MOL0     C54724  10.877   4.069  10.450  0.8246  0.3037  1.0113
  406MOL0     N54725  10.638   3.531  10.086 -0.2133 -0.4253  0.7596
  406MOL0     N54726  10.701   3.452  10.005 -0.1922 -0.3932 -0.2207
  406MOL0     C54727   9.769   3.259   9.775  0.1492  0.8378 -0.7468
  406MOL0     C54728   9.657   3.343   9.802  0.0166 -1.1383  0.4119
  406MOL0     C54729   9.277   3.582   9.797  0.0543 -0.0298  0.1617
  406MOL0     C54730   9.315   3.703   9.729  1.2225 -0.7788 -0.1226
  406MOL0     C54731   9.243   3.825   9.737  0.1735  0.4356  1.4224
  406MOL0     C54732   9.120   3.819   9.798 -0.5648  0.9193  0.6303
  406MOL0     O54733   9.062   3.945   9.826  0.4268 -0.1498 -0.6285
  406MOL0     C54734   9.000   3.969   9.956 -0.4857 -0.0865  0.7333
  406MOL0     C54735   9.014   4.109  10.006  0.2398 -0.6304 -0.6872
  406MOL0     C54736   9.153   4.177  10.000 -0.0155  0.1600  0.0689
  406MOL0     C54737   9.177   4.288  10.101 -1.4002 -0.1602 -0.0790
  406MOL0     C54738   9.088   4.394  10.066  0.2391  0.2050 -0.2897
  406MOL0     C54739   9.007   4.471  10.047  0.5031  0.5072 -0.4773
  406MOL0     C54740   9.073   3.697   9.852 -0.2186 -0.5970  0.7036
  406MOL0     C54741   9.149   3.579   9.851 -0.1165 -0.4451  0.6896
  406MOL0     C54742   9.085   3.467   9.932 -0.5044 -0.9551 -0.5942
  406MOL0     H54743   9.550   3.391   9.487  0.0946 -1.4557  0.2567
  406MOL0     H54744   9.729   3.209   9.447 -1.6152  0.6300 -0.5809
  406MOL0     H54745  10.062   3.240   9.678  2.8164 -1.1166  0.7060
  406MOL0     H54746  10.012   3.107   9.793  0.9747 -5.8404 -0.6259
  406MOL0     H54747  10.124   3.071   9.516 -3.3555  4.0615  2.3059
  406MOL0     H54748  10.082   2.939   9.633 -2.0881  0.6775 -0.0751
  406MOL0     H54749  10.333   2.968   9.617 -0.0009 -0.6294  0.7026
  406MOL0     H54750  10.281   3.018   9.775 -0.7511 -2.6390  0.0750
  406MOL0     H54751  10.303   3.218   9.538  2.1627  3.3316  0.0779
  406MOL0     H54752  10.287   3.253   9.712 -0.2642  0.4891 -0.6356
  406MOL0     H54753  10.485   3.126   9.763 -3.6674 -0.2141  0.2338
  406MOL0     H54754  10.531   3.137   9.585 -0.9879  1.4424 -1.9054
  406MOL0     H54755  10.517   3.377   9.595 -2.3586 -1.0362 -0.3285
  406MOL0     H54756  10.477   3.368   9.765  0.8055 -0.2338  0.5994
  406MOL0     H54757  10.730   3.238   9.659  1.1254  2.0112 -2.1015
  406MOL0     H54758  10.672   3.252   9.827  1.4050  1.9740  0.9790
  406MOL0     H54759  10.846   3.411   9.753  0.0010  1.1028  2.9140
  406MOL0     H54760  10.730   3.506   9.666 -0.0041 -3.2594 -2.6090
  406MOL0     H54761  10.573   3.675   9.805  0.2077  0.0628  0.1950
  406MOL0     H54762  10.404   3.742   9.984 -0.1966 -3.7051 -0.9524
  406MOL0     H54763  10.411   3.717  10.150  1.7206 -1.2248  0.6362
  406MOL0     H54764  10.614   3.905  10.042  1.8484 -1.9521 -0.3970
  406MOL0     H54765  10.468   3.931  10.151  0.7668 -1.0883  2.1901
  406MOL0     H54766  10.739   3.831  10.216 -0.1663  0.0286  1.1766
  406MOL0     H54767  10.595   3.765  10.294  1.3670  1.1320  1.9060
  406MOL0     H54768  10.650   3.936  10.436  0.9157 -2.1870 -1.4028
  406MOL0     H54769  10.519   3.993  10.339 -0.2635  2.2918 -3.8059
  406MOL0     H54770  10.841   4.322  10.236 -0.9515 -0.3839 -0.1648
  406MOL0     H54771  11.048   4.390  10.331  0.6288  0.0131  0.1017
  406MOL0     H54772  11.451   4.400  10.580  1.4649  1.7671  3.4670
  406MOL0     H54773  11.677   4.392  10.643  0.8061 -1.3477  1.7853
  406MOL0     H54774  11.935   4.274  10.608  0.5111 -1.7221  0.3516
  406MOL0     H54775  11.849   4.388  10.728 -2.4859 -1.2789 -1.5092
  406MOL0     H54776  12.001   4.412  10.851  2.2879  2.4325 -2.0278
  406MOL0     H54777  12.034   4.230  10.868  3.4538  1.7866  0.8440
  406MOL0     H54778  12.168   4.258  10.657  0.5767  0.4610 -0.1574
  406MOL0     H54779  12.158   4.434  10.676  1.1154  0.3356 -0.0775
  406MOL0     H54780  12.304   4.252  10.844 -0.6423  0.2672 -0.3743
  406MOL0     H54781  12.216   4.369  10.928 -0.9805 -0.1620 -0.8976
  406MOL0     H54782  12.421   4.477  10.882  2.0610  1.5033 -2.1533
  406MOL0     H54783  12.307   4.553  10.767 -0.5840  0.2083 -1.5556
  406MOL0     H54784  12.482   4.325  10.698 -3.8687 -2.0367  1.3294
  406MOL0     H54785  12.373   4.418  10.592  1.3161  1.1783 -1.4516
  406MOL0     H54786  12.615   4.561  10.732  3.3449 -1.8204 -2.2428
  406MOL0     H54787  12.507   4.604  10.592  0.2750 -0.6552 -2.3417
  406MOL0     H54788  12.744   4.412  10.610 -1.3671 -0.1714  1.1398
  406MOL0     H54789  12.627   4.392  10.473  0.6830 -0.8890  0.2316
  406MOL0     H54790  11.620   4.005  10.809  0.3317 -2.1718 -3.1089
  406MOL0     H54791  11.401   3.994  10.713  1.3787 -0.6845 -0.4251
  406MOL0     H54792  11.051   4.026  10.566  1.8211  1.5377  0.7746
  406MOL0     H54793  10.846   3.974  10.491 -0.2497 -0.4036 -1.2675
  406MOL0     H54794   9.828   3.228   9.861 -2.1420 -1.9764 -0.0040
  406MOL0     H54795   9.630   3.392   9.895 -0.5696 -1.2351  0.2920
  406MOL0     H54796   9.398   3.692   9.661  1.2481  0.5717 -0.3191
  406MOL0     H54797   9.272   3.918   9.691  2.7165 -0.6273  0.7280
  406MOL0     H54798   9.055   3.903  10.023  1.1700 -0.9903 -1.3856
  406MOL0     H54799   8.893   3.947   9.958 -0.5153 -0.4245 -1.6818
  406MOL0     H54800   9.002   4.105  10.115  1.2001 -1.5639 -0.5977
  406MOL0     H54801   8.939   4.174   9.960  0.6651  0.7009  0.4023
  406MOL0     H54802   9.166   4.216   9.899  2.2288  0.3909  0.3926
  406MOL0     H54803   9.236   4.107  10.012  0.1013 -0.0220 -1.6246
  406MOL0     H54804   9.169   4.254  10.204  2.8505  1.5401  0.9923
  406MOL0     H54805   9.283   4.316  10.103 -1.2533 -0.7338  0.5345
  406MOL0     H54806   8.929   4.542  10.032 -0.2194 -0.3610 -0.9651
  406MOL0     H54807   8.981   3.694   9.909 -1.9376 -0.0624 -1.8640
  406MOL0     H54808   8.977   3.475   9.949 -0.1359  2.5183  1.0020
  406MOL0     H54809   9.106   3.369   9.889 -0.4157 -1.8652  1.4062
  406MOL0     H54810   9.127   3.470  10.033 -2.5903  1.0531  0.3020
  407MOL0     O54811   3.751   0.650   8.170 -0.5985  0.6661 -0.6050
  407MOL0     C54812   3.699   0.653   8.063 -0.1120 -0.0262 -0.6929
  407MOL0     O54813   3.752   0.611   7.951  0.3703 -0.1675  0.4481
  407MOL0     C54814   3.865   0.539   7.957 -0.9458 -0.7127 -0.4943
  407MOL0     C54815   3.862   0.401   7.946  0.8081  0.7737  0.5712
  407MOL0     C54816   3.975   0.318   7.940 -0.2698  0.4102 -0.3232
  407MOL0     C54817   4.101   0.376   7.940 -0.0461  0.4685 -0.8257
  407MOL0     O54818   4.210   0.295   7.920  0.2740  0.0226 -0.4698
  407MOL0     C54819   4.340   0.346   7.922  0.3127 -0.4574 -0.2168
  407MOL0     C54820   4.453   0.233   7.917 -0.2752  0.2175 -0.0503
  407MOL0     C54821   4.589   0.295   7.923 -1.0690  0.6740 -0.3092
  407MOL0     C54822   4.694   0.183   7.894  0.2294  0.3513 -0.2015
  407MOL0     C54823   4.837   0.240   7.918  0.7335  0.0860  0.4671
  407MOL0     C54824   4.872   0.342   7.804  0.8639 -0.2371  0.1161
  407MOL0     C54825   5.024   0.383   7.803  1.5751  0.1245  0.1193
  407MOL0     C54826   5.064   0.513   7.721  0.1981  0.7824 -0.2282
  407MOL0     N54827   5.205   0.539   7.713 -1.0384  0.0184  0.3483
  407MOL0     C54828   5.294   0.451   7.662 -0.1023 -0.3378 -0.5448
  407MOL0     C54829   5.413   0.514   7.665 -0.1952  0.1927 -0.2839
  407MOL0     C54830   5.532   0.470   7.585  0.1119 -0.3092 -0.0352
  407MOL0     C54831   5.591   0.340   7.624 -1.2488  0.1765 -0.3345
  407MOL0     C54832   5.742   0.334   7.579 -0.1844  0.5917 -0.3279
  407MOL0     C54833   5.795   0.194   7.578  0.3592  0.1876 -0.0227
  407MOL0     O54834   5.929   0.197   7.543  0.0795 -0.0302  0.0618
  407MOL0     C54835   6.004   0.091   7.512  1.0061 -0.2041 -0.2279
  407MOL0     C54836   6.115   0.116   7.440  0.1827 -0.0303  0.0745
  407MOL0     C54837   6.197   0.008   7.408 -1.2295 -0.0996 -0.5922
  407MOL0     C54838   6.158  -0.127   7.425  0.2356 -0.2833 -0.4272
  407MOL0     C54839   6.234  -0.228   7.357  0.2667 -0.7394  0.1501
  407MOL0     O54840   6.370  -0.205   7.341  0.3644  0.5546  0.3011
  407MOL0     C54841   6.462  -0.293   7.281  0.0966  0.4462  0.5497
  407MOL0     C54842   6.592  -0.242   7.274  0.4690 -0.3597  1.2427
  407MOL0     C54843   6.689  -0.308   7.201  0.1316  1.1223 -0.0627
  407MOL0     C54844   6.656  -0.438   7.147  0.5948 -0.0446 -0.6952
  407MOL0     O54845   6.749  -0.502   7.081  0.3523  0.1128  0.1100
  407MOL0     C54846   6.749  -0.466   6.944 -0.3270  0.0120  0.1368
  407MOL0     C54847   6.872  -0.531   6.867 -0.8367 -0.0609 -0.2312
  407MOL0     C54848   6.998  -0.445   6.862  0.5768  0.5863  0.1965
  407MOL0     C54849   7.060  -0.440   7.005  0.3422  0.6881  0.2296
  407MOL0     C54850   7.200  -0.383   6.995 -0.5150 -0.3076  0.2215
  407MOL0     C54851   7.252  -0.339   7.131  0.2706 -0.3262 -0.2234
  407MOL0     C54852   7.364  -0.239   7.145  0.3526 -0.2099 -0.0788
  407MOL0     C54853   7.481  -0.301   7.073  0.7995  0.7270 -0.3749
  407MOL0    Cl54854   7.629  -0.213   7.081 -0.0479 -0.0988 -0.0140
  407MOL0     C54855   6.534  -0.496   7.166  0.4722  0.1207 -0.0341
  407MOL0     C54856   6.430  -0.420   7.242 -0.6160  0.3544 -0.6052
  407MOL0     O54857   6.171  -0.326   7.322 -0.2144 -0.0810  0.1658
  407MOL0     C54858   6.038  -0.159   7.504  0.2068  0.1689  0.1500
  407MOL0     C54859   5.964  -0.042   7.542 -0.1717  0.3727 -0.2925
  407MOL0     N54860   5.390   0.643   7.718 -0.2190 -0.3919  0.8346
  407MOL0     N54861   5.268   0.652   7.743  0.9411 -0.5925  0.2891
  407MOL0     C54862   4.110   0.518   7.964  0.3423  0.7973  0.4194
  407MOL0     C54863   3.992   0.594   7.969 -0.4450 -0.4142 -0.6221
  407MOL0     C54864   3.560   0.718   8.065  0.4174  0.6335  0.3956
  407MOL0     C54865   3.482   0.709   8.180 -0.4959 -0.1381 -0.5020
  407MOL0     C54866   3.366   0.791   8.194  0.1204  0.1125 -0.0801
  407MOL0     C54867   3.316   0.877   8.096 -1.4217 -0.5694 -0.4229
  407MOL0     O54868   3.205   0.950   8.076  0.2286  0.0648  0.0479
  407MOL0     C54869   3.105   0.929   8.177 -0.8413 -0.7163 -1.5789
  407MOL0     C54870   2.982   1.020   8.149 -0.3977  0.0329 -0.4216
  407MOL0     C54871   2.935   1.016   8.000 -0.4444  0.3227 -0.3057
  407MOL0     C54872   2.810   1.086   7.963  0.1230  0.6051  0.4400
  407MOL0     C54873   2.701   1.048   8.050  0.0212  0.4478 -0.4037
  407MOL0     C54874   2.610   1.027   8.132 -0.0842  1.5684  0.8043
  407MOL0     C54875   3.401   0.882   7.983  0.0328 -0.7725 -0.3932
  407MOL0     C54876   3.522   0.817   7.971  0.2810  0.3391 -0.0742
  407MOL0     C54877   3.603   0.831   7.844  0.0162 -0.5827  0.2700
  407MOL0     H54878   3.758   0.368   7.947  0.7867  0.8451  0.6955
  407MOL0     H54879   3.983   0.212   7.920  1.5146  0.4142  0.1772
  407MOL0     H54880   4.348   0.404   7.829  1.6958 -1.9072 -1.0606
  407MOL0     H54881   4.357   0.408   8.010 -0.6197  0.4762 -0.6757
  407MOL0     H54882   4.438   0.165   7.833 -0.2913  0.2236 -0.0526
  407MOL0     H54883   4.443   0.177   8.011  4.2608 -1.0936 -0.1380
  407MOL0     H54884   4.611   0.326   8.025  0.1499 -2.8603  0.6490
  407MOL0     H54885   4.592   0.376   7.850  2.0499  2.1331  1.2748
  407MOL0     H54886   4.674   0.101   7.963 -0.7525  0.8929  0.1797
  407MOL0     H54887   4.670   0.148   7.793 -1.5487  0.9853 -0.0374
  407MOL0     H54888   4.846   0.273   8.022 -0.9687  0.1298  0.6368
  407MOL0     H54889   4.906   0.156   7.903  2.0394  1.2687 -0.4398
  407MOL0     H54890   4.825   0.300   7.714 -1.1775  0.7253  0.6935
  407MOL0     H54891   4.812   0.431   7.821 -0.9087 -1.2886 -0.4265
  407MOL0     H54892   5.078   0.292   7.774 -1.9764 -1.3406 -2.6348
  407MOL0     H54893   5.060   0.395   7.906  1.5549 -0.1874  0.1664
  407MOL0     H54894   5.024   0.501   7.620 -1.9148  1.4806  0.4754
  407MOL0     H54895   5.010   0.600   7.759 -2.2505 -1.0675  0.8425
  407MOL0     H54896   5.266   0.355   7.619 -1.7844  0.1503 -0.6428
  407MOL0     H54897   5.512   0.459   7.478 -0.1220 -2.2441  0.1803
  407MOL0     H54898   5.604   0.551   7.596  2.3378 -1.4342 -4.2809
  407MOL0     H54899   5.586   0.329   7.732  2.4567 -1.9436 -0.2115
  407MOL0     H54900   5.525   0.266   7.578 -0.4611 -0.7628  0.0302
  407MOL0     H54901   5.802   0.396   7.645  1.1235 -2.3379  1.4266
  407MOL0     H54902   5.742   0.374   7.477 -0.2101  0.5914 -0.3279
  407MOL0     H54903   5.735   0.137   7.506  0.3906  1.1397 -0.8115
  407MOL0     H54904   5.783   0.153   7.679 -1.8458  0.0997 -0.2689
  407MOL0     H54905   6.139   0.219   7.416 -0.0685 -0.0955 -0.4847
  407MOL0     H54906   6.289   0.029   7.354  0.1498 -2.2240  0.7637
  407MOL0     H54907   6.609  -0.144   7.318 -0.3774  0.6888 -0.6415
  407MOL0     H54908   6.791  -0.271   7.194  0.4423  0.5264  1.0155
  407MOL0     H54909   6.657  -0.482   6.887 -1.3235  2.0602  1.0693
  407MOL0     H54910   6.757  -0.356   6.944  1.1894 -0.0464 -1.3628
  407MOL0     H54911   6.897  -0.621   6.923 -0.6691  1.5326  2.4141
  407MOL0     H54912   6.837  -0.541   6.764 -1.9087 -2.1551  0.2928
  407MOL0     H54913   7.063  -0.500   6.794 -3.0808 -2.7403 -1.0441
  407MOL0     H54914   6.986  -0.345   6.821 -0.8534 -1.1571 -4.2195
  407MOL0     H54915   7.078  -0.540   7.045 -0.0439  1.0767  1.4122
  407MOL0     H54916   6.999  -0.381   7.073  0.7405  1.5446 -0.1240
  407MOL0     H54917   7.192  -0.295   6.930 -0.1344 -0.9401 -0.7097
  407MOL0     H54918   7.272  -0.447   6.943 -2.1827  0.3125 -3.1740
  407MOL0     H54919   7.164  -0.298   7.181 -0.9713 -1.1431 -1.6503
  407MOL0     H54920   7.276  -0.425   7.195  1.4210  0.3744  0.3055
  407MOL0     H54921   7.387  -0.217   7.250 -0.9966  1.1452 -0.0268
  407MOL0     H54922   7.338  -0.145   7.096  2.8837  0.0272 -1.1170
  407MOL0     H54923   7.489  -0.399   7.121  0.8217  1.8117  2.0014
  407MOL0     H54924   7.455  -0.315   6.968  3.1885  1.6437 -1.1516
  407MOL0     H54925   6.527  -0.591   7.114  0.7464  0.8577 -1.4681
  407MOL0     H54926   6.337  -0.470   7.266 -0.4193 -0.6375 -1.7906
  407MOL0     H54927   5.997  -0.259   7.515  0.0570  0.1375 -0.6039
  407MOL0     H54928   5.865  -0.064   7.580  0.9100 -4.5520  0.4249
  407MOL0     H54929   4.207   0.565   7.968 -0.6483  3.2640 -1.5386
  407MOL0     H54930   3.998   0.696   8.006 -0.2709 -0.5938 -0.1497
  407MOL0     H54931   3.515   0.647   8.262 -0.6709 -0.1874 -0.4695
  407MOL0     H54932   3.305   0.775   8.282  0.9127  1.5230  0.7638
  407MOL0     H54933   3.135   0.943   8.282 -4.6125  1.1316 -0.5565
  407MOL0     H54934   3.075   0.824   8.181  0.7601 -1.2696  3.6803
  407MOL0     H54935   3.005   1.123   8.180 -1.7237 -0.6447  3.4104
  407MOL0     H54936   2.899   0.999   8.218 -1.3105  1.6409 -0.9698
  407MOL0     H54937   2.916   0.910   7.980 -1.4514 -0.0519  2.3309
  407MOL0     H54938   3.018   1.054   7.940 -0.8752 -0.5650 -1.5291
  407MOL0     H54939   2.822   1.195   7.968 -0.4706  0.6762  0.3784
  407MOL0     H54940   2.789   1.056   7.860 -0.8813 -0.6009  0.9674
  407MOL0     H54941   2.524   1.019   8.195  1.8107  1.7701  3.6377
  407MOL0     H54942   3.358   0.951   7.910  0.7989  1.6393  1.3180
  407MOL0     H54943   3.598   0.748   7.772  0.5715 -0.7205  0.3876
  407MOL0     H54944   3.569   0.922   7.794  2.7822  1.1696  1.3794
  407MOL0     H54945   3.711   0.846   7.852  0.2023 -1.5655 -0.2033
  408MOL0     O54946   5.209   0.736   8.391 -0.5019  0.6361 -0.5995
  408MOL0     C54947   5.314   0.793   8.395 -0.7835 -0.1051 -0.0814
  408MOL0     O54948   5.410   0.767   8.487 -0.6411  0.0896  0.3035
  408MOL0     C54949   5.378   0.690   8.592 -0.6744  0.0507 -0.0731
  408MOL0     C54950   5.361   0.753   8.710  0.8782 -1.3137 -0.0825
  408MOL0     C54951   5.315   0.683   8.822 -0.1210  1.1529  0.6092
  408MOL0     C54952   5.316   0.541   8.822  0.6267 -0.3843 -0.5719
  408MOL0     O54953   5.287   0.487   8.943  0.0137  0.2244 -0.4241
  408MOL0     C54954   5.317   0.345   8.981  0.1562 -0.1739  0.2658
  408MOL0     C54955   5.210   0.305   9.086 -0.4218 -0.4446 -0.3881
  408MOL0     C54956   5.236   0.167   9.150 -0.2016  0.4157 -0.8219
  408MOL0     C54957   5.101   0.139   9.226 -0.4522 -0.5817 -0.3104
  408MOL0     C54958   5.053   0.250   9.311  0.2244  0.2241  0.8490
  408MOL0     C54959   4.945   0.194   9.402  0.0002  0.5533  0.4630
  408MOL0     C54960   4.883   0.300   9.493 -0.6422 -0.6059 -0.6174
  408MOL0     C54961   4.809   0.415   9.422  0.4836 -0.0373  0.9277
  408MOL0     N54962   4.674   0.379   9.389 -0.3577 -0.1736 -0.0892
  408MOL0     C54963   4.583   0.315   9.477  0.4658  1.2282  0.1171
  408MOL0     C54964   4.468   0.309   9.407 -1.1826 -0.3141  0.6000
  408MOL0     C54965   4.336   0.245   9.447 -0.2297 -0.5755  1.3078
  408MOL0     C54966   4.269   0.327   9.563  0.9993  0.0791  0.3444
  408MOL0     C54967   4.236   0.479   9.535  0.2355  0.4676  0.4170
  408MOL0     C54968   4.345   0.583   9.543  0.2613 -0.5935  0.5106
  408MOL0     O54969   4.436   0.554   9.648 -0.0140 -0.3918  0.2680
  408MOL0     C54970   4.544   0.628   9.667  0.1667 -0.2978  0.2256
  408MOL0     C54971   4.621   0.599   9.788  0.6253  0.0175  0.4426
  408MOL0     C54972   4.750   0.654   9.801  0.0514 -0.3783 -0.0452
  408MOL0     C54973   4.803   0.744   9.697  0.1560 -0.8187  1.1469
  408MOL0     C54974   4.937   0.802   9.715  0.4337  0.1057 -1.1305
  408MOL0     O54975   4.995   0.891   9.623  0.4840 -0.1210  1.2795
  408MOL0     C54976   5.101   0.980   9.659 -0.1972  1.1355 -0.2599
  408MOL0     C54977   5.233   0.938   9.671 -0.6220 -0.6401 -0.2807
  408MOL0     C54978   5.328   1.033   9.709 -0.3548  0.4495  0.0816
  408MOL0     C54979   5.298   1.165   9.724  1.3024 -0.2653  0.5147
  408MOL0     O54980   5.400   1.250   9.755  0.5594  0.6813  0.4272
  408MOL0     C54981   5.372   1.391   9.759 -0.1243  0.4389 -0.7568
  408MOL0     C54982   5.503   1.468   9.786  0.9413 -0.4316  0.4572
  408MOL0     C54983   5.561   1.488   9.924 -0.4457  0.4211 -1.2790
  408MOL0     C54984   5.718   1.525   9.929  0.1528  0.2074  0.9042
  408MOL0     C54985   5.768   1.578  10.063 -0.0004  1.1739 -0.5950
  408MOL0     C54986   5.921   1.582  10.064 -0.2121  0.4123 -0.7565
  408MOL0     C54987   5.981   1.660   9.953  0.3046 -0.2014 -0.1813
  408MOL0     C54988   6.131   1.688  10.000 -0.8938 -0.2199  0.0842
  408MOL0    Cl54989   6.150   1.782  10.146  0.2080  0.0574  0.2869
  408MOL0     C54990   5.170   1.207   9.693  0.2814 -0.3239  0.2678
  408MOL0     C54991   5.074   1.113   9.666  0.0531 -0.5990  0.5935
  408MOL0     O54992   4.995   0.775   9.821 -0.8781 -0.0239  0.0897
  408MOL0     C54993   4.723   0.780   9.591  0.5944  0.1014 -0.0261
  408MOL0     C54994   4.599   0.717   9.573 -0.3327 -0.1080  0.6780
  408MOL0     N54995   4.488   0.374   9.283  0.5500  0.3150 -0.2854
  408MOL0     N54996   4.599   0.437   9.284  0.0004 -0.0571 -0.0970
  408MOL0     C54997   5.337   0.473   8.698 -0.1964 -0.7482 -0.7175
  408MOL0     C54998   5.368   0.549   8.583  0.9666 -0.0532 -0.5123
  408MOL0     C54999   5.342   0.875   8.276 -1.5988 -0.3211  0.6567
  408MOL0     C55000   5.447   0.976   8.288  0.2464  0.4637 -0.2802
  408MOL0     C55001   5.505   1.046   8.179  0.3912 -0.0417  0.1291
  408MOL0     C55002   5.457   1.015   8.053  0.5348 -0.3267 -0.5573
  408MOL0     O55003   5.515   1.094   7.962 -0.2241  0.0769  0.7537
  408MOL0     C55004   5.549   1.051   7.830 -0.9049 -0.9526  0.9840
  408MOL0     C55005   5.699   1.028   7.798 -0.3816  0.1455  0.0520
  408MOL0     C55006   5.719   0.965   7.658 -0.0403  0.5089 -0.2843
  408MOL0     C55007   5.758   1.058   7.550  0.3355  0.4942 -0.5651
  408MOL0     C55008   5.647   1.118   7.474  0.0315  0.3690  0.3919
  408MOL0     C55009   5.552   1.154   7.408 -0.9385  0.5446  0.2087
  408MOL0     C55010   5.358   0.917   8.037 -0.4662 -0.3563  0.1152
  408MOL0     C55011   5.297   0.850   8.141 -0.0044 -0.5961  0.1382
  408MOL0     C55012   5.184   0.762   8.101  0.6040  0.2535 -0.3509
  408MOL0     H55013   5.376   0.861   8.719  2.2645 -1.4608 -0.3933
  408MOL0     H55014   5.298   0.734   8.916 -0.5431 -1.0956  1.8406
  408MOL0     H55015   5.307   0.276   8.897 -1.7363  0.3552  0.0076
  408MOL0     H55016   5.421   0.335   9.013 -0.0281 -4.0651  0.1354
  408MOL0     H55017   5.111   0.302   9.040 -1.1055 -2.6201  1.0734
  408MOL0     H55018   5.207   0.384   9.161 -2.0397  0.9615 -1.8533
  408MOL0     H55019   5.329   0.173   9.208 -0.8145  0.7340  0.1618
  408MOL0     H55020   5.260   0.088   9.078  0.6632 -1.0823  1.0257
  408MOL0     H55021   5.029   0.118   9.146 -0.5512 -0.2523 -0.3075
  408MOL0     H55022   5.106   0.042   9.276  4.3660 -0.7636 -0.7140
  408MOL0     H55023   5.127   0.273   9.388  1.9674 -0.6373 -0.5265
  408MOL0     H55024   5.022   0.335   9.249  2.4206  2.3328  2.4811
  408MOL0     H55025   4.867   0.161   9.332  1.0747  1.4837 -1.2338
  408MOL0     H55026   4.983   0.119   9.472 -0.1313  2.0655  2.2345
  408MOL0     H55027   4.966   0.345   9.549 -0.2141 -0.1405 -1.6071
  408MOL0     H55028   4.819   0.252   9.568 -2.0407  1.0275 -0.6959
  408MOL0     H55029   4.796   0.503   9.486  0.6283 -0.7169  1.9104
  408MOL0     H55030   4.848   0.450   9.326 -0.1307  1.0104  1.0427
  408MOL0     H55031   4.588   0.262   9.572 -2.3907  0.4698 -0.0547
  408MOL0     H55032   4.272   0.250   9.358  2.5889  0.4717 -0.8173
  408MOL0     H55033   4.356   0.140   9.473  3.4442 -0.2115  0.5902
  408MOL0     H55034   4.168   0.289   9.581  0.7715  0.2085 -0.6333
  408MOL0     H55035   4.331   0.307   9.651  1.8200 -1.2506 -0.5006
  408MOL0     H55036   4.151   0.500   9.600 -3.3326 -5.7760 -1.4294
  408MOL0     H55037   4.201   0.463   9.433  2.0389 -0.0087 -0.1660
  408MOL0     H55038   4.298   0.681   9.552 -0.3894 -0.7179 -1.2322
  408MOL0     H55039   4.403   0.594   9.450  1.1035  1.1398  1.1918
  408MOL0     H55040   4.581   0.537   9.868 -0.7899  1.5034  0.9691
  408MOL0     H55041   4.805   0.631   9.891 -0.1726  0.7015  0.3870
  408MOL0     H55042   5.268   0.838   9.649 -0.6269 -0.6635 -0.1852
  408MOL0     H55043   5.429   0.999   9.727 -0.7108 -1.5490 -1.4053
  408MOL0     H55044   5.316   1.429   9.673 -3.3051 -0.8527  0.5755
  408MOL0     H55045   5.301   1.406   9.841 -0.3668 -1.2839 -0.6237
  408MOL0     H55046   5.584   1.428   9.723  0.3211  0.5657 -1.0175
  408MOL0     H55047   5.470   1.563   9.745 -3.3323 -1.6797  0.5984
  408MOL0     H55048   5.504   1.570   9.969  0.6876  1.6983 -2.0868
  408MOL0     H55049   5.545   1.392   9.974  0.6950  0.7073 -0.2995
  408MOL0     H55050   5.739   1.609   9.862  0.1959 -0.5150 -0.0043
  408MOL0     H55051   5.782   1.438   9.909 -1.0782 -0.4415 -0.3764
  408MOL0     H55052   5.716   1.520  10.140  0.6568  0.9748 -0.2950
  408MOL0     H55053   5.732   1.681  10.073  1.9912  1.9879 -1.2725
  408MOL0     H55054   5.938   1.637  10.157  1.3262  2.1253 -1.9986
  408MOL0     H55055   5.978   1.490  10.079  1.0170  1.0803 -1.2163
  408MOL0     H55056   5.930   1.756   9.942  1.0367  0.1532 -0.5480
  408MOL0     H55057   5.983   1.594   9.865  1.0090 -5.0814  3.1320
  408MOL0     H55058   6.191   1.597  10.011  0.5337  0.8003  0.9500
  408MOL0     H55059   6.171   1.758   9.926  0.0632 -1.4699 -0.6464
  408MOL0     H55060   5.131   1.307   9.699 -1.4691 -0.8936 -0.9517
  408MOL0     H55061   4.972   1.146   9.645  0.9642  1.2417 -1.2991
  408MOL0     H55062   4.769   0.838   9.512 -0.1319  0.2232 -0.3755
  408MOL0     H55063   4.548   0.737   9.480  1.1501  0.1357 -0.1222
  408MOL0     H55064   5.321   0.367   8.687  0.5461 -0.9644  0.1092
  408MOL0     H55065   5.379   0.502   8.486 -0.1144  0.4929 -0.9201
  408MOL0     H55066   5.495   1.000   8.382 -0.2728 -0.2497  0.1835
  408MOL0     H55067   5.588   1.114   8.196 -1.4455  1.8361  2.1051
  408MOL0     H55068   5.515   1.130   7.762  0.4358  0.1653  1.5548
  408MOL0     H55069   5.496   0.960   7.803  0.0853 -0.8183 -1.7039
  408MOL0     H55070   5.741   0.956   7.868 -1.8732 -1.7927 -0.9343
  408MOL0     H55071   5.761   1.116   7.817  1.2509 -1.0414  0.4719
  408MOL0     H55072   5.626   0.912   7.635  0.6421 -0.2505 -1.4006
  408MOL0     H55073   5.806   0.901   7.673  0.9430  1.5446 -1.4213
  408MOL0     H55074   5.817   1.138   7.594 -1.4325  0.4208  2.2017
  408MOL0     H55075   5.825   1.014   7.476 -0.3236  0.4510 -1.1459
  408MOL0     H55076   5.465   1.183   7.352 -3.9265 -4.0984  1.9118
  408MOL0     H55077   5.320   0.908   7.935 -0.5611  0.5139  0.0681
  408MOL0     H55078   5.199   0.661   8.140 -1.7036  0.5945  1.6938
  408MOL0     H55079   5.096   0.807   8.147  0.7467  2.7947 -2.2991
  408MOL0     H55080   5.160   0.760   7.994  2.2774 -1.1739 -0.7594
  409MOL0     O55081   1.092   2.215   2.026  0.4582 -0.2537  0.0774
  409MOL0     C55082   1.063   2.119   1.959 -0.7014 -0.7678 -0.7978
  409MOL0     O55083   1.149   2.073   1.862  0.4130  0.0770 -0.2592
  409MOL0     C55084   1.241   2.154   1.823  0.2671  0.4365  0.9990
  409MOL0     C55085   1.372   2.120   1.828 -0.3517  0.1898 -0.4708
  409MOL0     C55086   1.478   2.207   1.782  0.5855 -0.2073 -0.0619
  409MOL0     C55087   1.450   2.324   1.706 -0.0426 -0.7848  0.1536
  409MOL0     O55088   1.547   2.390   1.631 -0.1786  0.0960 -0.5684
  409MOL0     C55089   1.504   2.459   1.509 -0.8688 -0.4851 -0.2408
  409MOL0     C55090   1.614   2.535   1.447 -0.2730  0.1682 -0.4197
  409MOL0     C55091   1.705   2.448   1.360 -0.3634  0.0173  0.2099
  409MOL0     C55092   1.799   2.538   1.283 -0.7866 -0.3557  0.3928
  409MOL0     C55093   1.878   2.455   1.170 -0.3599  0.6081 -0.0785
  409MOL0     C55094   1.995   2.362   1.216 -0.3983 -0.4392  0.3167
  409MOL0     C55095   2.117   2.432   1.282 -0.8655  0.6212 -0.1172
  409MOL0     C55096   2.248   2.352   1.277  0.9685 -0.2367  0.6119
  409MOL0     N55097   2.293   2.319   1.141 -0.2160  0.0196  0.6735
  409MOL0     C55098   2.315   2.191   1.099  0.0881 -0.8746  0.5832
  409MOL0     C55099   2.340   2.207   0.967 -0.4339  0.6430  0.1228
  409MOL0     C55100   2.389   2.102   0.875  1.1464 -0.9708  0.0198
  409MOL0     C55101   2.527   2.129   0.816 -0.7800 -0.9856  0.8685
  409MOL0     C55102   2.576   2.030   0.714 -0.4037  0.2987 -0.0964
  409MOL0     C55103   2.716   2.061   0.671 -0.3950  0.2911  0.5712
  409MOL0     O55104   2.725   2.194   0.612 -0.1438  0.1115  0.0862
  409MOL0     C55105   2.834   2.222   0.533  0.3123  0.3290  0.5703
  409MOL0     C55106   2.958   2.169   0.559  0.1721  0.1599  0.4567
  409MOL0     C55107   3.072   2.225   0.510 -0.2395 -0.3357  0.4104
  409MOL0     C55108   3.061   2.323   0.408 -0.2441 -0.4565 -0.1530
  409MOL0     C55109   3.173   2.379   0.343 -0.1807  0.2276 -0.5539
  409MOL0     O55110   3.296   2.371   0.397  0.3547  0.5301 -0.0449
  409MOL0     C55111   3.410   2.391   0.323 -0.2642  0.0097  0.9951
  409MOL0     C55112   3.426   2.436   0.192 -0.1820  0.2632 -0.2416
  409MOL0     C55113   3.549   2.468   0.135 -0.4642  0.6908  0.1894
  409MOL0     C55114   3.662   2.450   0.215 -0.2204 -0.6631  0.9765
  409MOL0     O55115   3.794   2.492   0.190  0.5068 -0.3642 -0.1794
  409MOL0     C55116   3.830   2.533   0.052  0.3213 -0.6277 -0.0093
  409MOL0     C55117   3.977   2.533   0.032  0.0251 -0.2586  0.3549
  409MOL0     C55118   4.027   2.388   0.018 -0.1467 -0.3217 -0.2157
  409MOL0     C55119   4.177   2.380  -0.001 -0.0306 -0.0298 -0.3641
  409MOL0     C55120   4.228   2.243  -0.037 -0.3141 -0.2901  0.3503
  409MOL0     C55121   4.374   2.228  -0.032 -0.1114  0.3816 -0.6718
  409MOL0     C55122   4.430   2.087  -0.050 -0.4429 -0.0454 -0.3809
  409MOL0     C55123   4.516   2.086  -0.165 -0.1382 -0.6423  0.2059
  409MOL0    Cl55124   4.549   1.931  -0.226  0.3295  0.3058  0.0595
  409MOL0     C55125   3.660   2.412   0.343  0.9752  0.8442  0.6656
  409MOL0     C55126   3.533   2.380   0.395 -0.0692 -0.0999  0.2448
  409MOL0     O55127   3.145   2.435   0.235  0.0475 -1.2051  0.0914
  409MOL0     C55128   2.935   2.373   0.381  0.7250  0.5145 -0.3527
  409MOL0     C55129   2.824   2.326   0.452 -0.2031 -0.3575  1.1792
  409MOL0     N55130   2.317   2.333   0.923 -0.1878 -0.1188  0.4762
  409MOL0     N55131   2.286   2.402   1.032 -0.3933  0.1263 -0.2237
  409MOL0     C55132   1.313   2.359   1.708  0.0188  0.7939  0.4253
  409MOL0     C55133   1.207   2.270   1.748  0.2258 -0.1835  0.1189
  409MOL0     C55134   0.940   2.043   1.986  0.7255  0.3096 -0.5989
  409MOL0     C55135   0.952   1.906   1.979  0.4994 -0.1694  0.3903
  409MOL0     C55136   0.833   1.833   1.997  0.1043  0.1809  1.4923
  409MOL0     C55137   0.704   1.888   2.027  0.2127  0.4303  1.5006
  409MOL0     O55138   0.590   1.817   2.046 -0.1482  0.2681  0.3551
  409MOL0     C55139   0.599   1.672   2.039  0.2446  0.0302  0.1021
  409MOL0     C55140   0.478   1.615   2.096  0.6499 -0.0146 -0.0444
  409MOL0     C55141   0.358   1.631   2.006 -0.5605  0.4587  0.4026
  409MOL0     C55142   0.221   1.577   2.061 -0.6726  0.2311 -0.2171
  409MOL0     C55143   0.120   1.539   1.962 -1.1372  1.0592 -0.3235
  409MOL0     C55144   0.045   1.509   1.872 -0.0289  0.3622 -0.5984
  409MOL0     C55145   0.707   2.027   2.029 -0.1342 -0.9009 -0.3561
  409MOL0     C55146   0.821   2.108   2.002  0.1757 -0.4266 -1.0422
  409MOL0     C55147   0.792   2.253   2.002  0.2914  0.3253 -0.5874
  409MOL0     H55148   1.402   2.022   1.862  0.6196  0.2779 -1.0450
  409MOL0     H55149   1.581   2.174   1.776  2.2539  4.5590 -1.5891
  409MOL0     H55150   1.461   2.382   1.445 -0.7784  0.3915 -1.3914
  409MOL0     H55151   1.424   2.531   1.527 -0.1152 -0.1043  1.8675
  409MOL0     H55152   1.660   2.587   1.531 -0.1244  0.5325 -0.7281
  409MOL0     H55153   1.566   2.613   1.387 -1.0418  1.4857  1.8015
  409MOL0     H55154   1.643   2.381   1.300 -2.3263  1.0014  1.0539
  409MOL0     H55155   1.761   2.383   1.428 -0.4951 -3.0602 -2.3499
  409MOL0     H55156   1.732   2.610   1.235  0.4934  0.7612  0.2139
  409MOL0     H55157   1.864   2.592   1.353  1.3631 -1.4991 -0.6105
  409MOL0     H55158   1.801   2.395   1.120 -2.5082  3.6306 -0.6259
  409MOL0     H55159   1.925   2.525   1.101  0.3227 -0.4711 -0.7524
  409MOL0     H55160   1.952   2.295   1.291 -1.8743  0.0968 -0.0210
  409MOL0     H55161   2.032   2.300   1.134 -1.2984 -1.0984  0.3966
  409MOL0     H55162   2.086   2.445   1.386 -2.6834 -1.9885 -0.2186
  409MOL0     H55163   2.127   2.525   1.226 -0.8112 -0.3682 -1.8292
  409MOL0     H55164   2.339   2.394   1.321  2.3765  0.1927 -2.4371
  409MOL0     H55165   2.230   2.260   1.333  1.4070 -1.6120 -1.3910
  409MOL0     H55166   2.332   2.101   1.158  3.1210 -2.1943 -1.9647
  409MOL0     H55167   2.395   2.015   0.940  0.6970  0.7455  2.4883
  409MOL0     H55168   2.311   2.096   0.798 -1.3648 -1.2965  2.4535
  409MOL0     H55169   2.525   2.227   0.766  1.8209 -1.7872 -1.0260
  409MOL0     H55170   2.603   2.127   0.895  0.1872 -2.1619 -0.0428
  409MOL0     H55171   2.512   2.031   0.626  2.8503  2.0548 -2.6738
  409MOL0     H55172   2.578   1.930   0.759  0.0761  0.4446  0.2170
  409MOL0     H55173   2.744   1.989   0.594  0.2940 -1.2820  2.2321
  409MOL0     H55174   2.788   2.051   0.753 -0.0888  1.1980  0.4228
  409MOL0     H55175   2.972   2.101   0.643  0.9458 -3.0270 -2.0843
  409MOL0     H55176   3.166   2.190   0.552 -1.0175 -1.9170  0.9151
  409MOL0     H55177   3.347   2.443   0.118 -1.2535 -3.9588  0.2335
  409MOL0     H55178   3.552   2.509   0.035 -1.7382 -1.7326 -0.9249
  409MOL0     H55179   3.769   2.492  -0.029  3.0497 -0.4030 -2.3233
  409MOL0     H55180   3.779   2.630   0.055  3.2438  0.9612  1.4295
  409MOL0     H55181   4.001   2.585  -0.061  0.7464  1.3791  1.4169
  409MOL0     H55182   4.023   2.585   0.116 -0.3822 -1.0246  1.0689
  409MOL0     H55183   3.996   2.328   0.104  1.5899 -0.4072  0.3919
  409MOL0     H55184   3.976   2.345  -0.068  0.6511 -1.7563  0.0004
  409MOL0     H55185   4.225   2.404   0.094 -0.4341  3.4151 -0.8985
  409MOL0     H55186   4.205   2.453  -0.078 -1.5120  0.6065 -0.3360
  409MOL0     H55187   4.198   2.226  -0.140 -0.2422  1.9504 -0.0958
  409MOL0     H55188   4.183   2.169   0.030 -2.4089  0.5497 -0.0462
  409MOL0     H55189   4.430   2.302  -0.091  1.0448 -2.2171 -3.0473
  409MOL0     H55190   4.396   2.248   0.073  1.2700 -1.3099 -0.5907
  409MOL0     H55191   4.344   2.021  -0.067  1.1454 -2.2902 -0.0831
  409MOL0     H55192   4.480   2.049   0.040 -3.8733 -1.0394  1.2624
  409MOL0     H55193   4.462   2.146  -0.239 -1.3682 -1.5521  0.3130
  409MOL0     H55194   4.611   2.135  -0.146 -1.1142  1.6849 -0.6161
  409MOL0     H55195   3.748   2.398   0.405  0.7311 -1.8618  0.5140
  409MOL0     H55196   3.526   2.351   0.500 -0.2080  2.7261  1.1065
  409MOL0     H55197   2.918   2.440   0.297 -0.1511 -1.1672 -1.5702
  409MOL0     H55198   2.724   2.368   0.445  0.5271  1.5698  1.5065
  409MOL0     H55199   1.273   2.448   1.660  1.5033  0.8337 -0.7881
  409MOL0     H55200   1.107   2.311   1.749  0.1489 -0.0710  3.7593
  409MOL0     H55201   1.044   1.854   1.954  0.3130  0.4547 -1.8428
  409MOL0     H55202   0.834   1.725   1.993 -1.0601  0.0989  2.7931
  409MOL0     H55203   0.680   1.627   2.097  1.1563  2.1143  0.5368
  409MOL0     H55204   0.595   1.646   1.933 -2.1902 -0.6623  0.3038
  409MOL0     H55205   0.457   1.660   2.194 -0.4345 -1.4247  0.4121
  409MOL0     H55206   0.494   1.509   2.119 -2.5986 -0.6195 -0.1106
  409MOL0     H55207   0.385   1.580   1.913 -1.8735  0.5963 -0.0843
  409MOL0     H55208   0.347   1.737   1.982  1.7678  0.1450 -2.8018
  409MOL0     H55209   0.242   1.502   2.138 -3.5560  1.4358  1.9478
  409MOL0     H55210   0.167   1.655   2.115 -0.9104  0.6128 -0.9889
  409MOL0     H55211  -0.031   1.493   1.798  0.1137  2.9245 -1.4269
  409MOL0     H55212   0.617   2.081   2.056  0.8278 -0.5166  2.4080
  409MOL0     H55213   0.769   2.287   2.104  0.7733  1.5320 -0.8655
  409MOL0     H55214   0.876   2.310   1.962 -0.9166  2.7144  0.0538
  409MOL0     H55215   0.706   2.262   1.935 -0.5860  0.3510  0.5046
  410MOL0     O55216  11.072   3.673   6.612  0.6856  0.3352 -0.0089
  410MOL0     C55217  10.990   3.626   6.701 -0.1643 -0.2479  0.1501
  410MOL0     O55218  11.009   3.520   6.781 -0.3085  0.2167  0.7864
  410MOL0     C55219  11.116   3.433   6.760  0.0867  0.3475 -0.5147
  410MOL0     C55220  11.246   3.481   6.766  0.1210  0.0700 -0.2536
  410MOL0     C55221  11.361   3.398   6.766  0.3749  0.1383 -0.7181
  410MOL0     C55222  11.338   3.264   6.760 -0.5050  0.0028  0.8843
  410MOL0     O55223  11.442   3.170   6.780 -0.0638 -0.2500 -0.1167
  410MOL0     C55224  11.581   3.193   6.741  0.2453  0.2992 -1.0122
  410MOL0     C55225  11.648   3.061   6.767 -0.4979 -0.2817  0.3505
  410MOL0     C55226  11.802   3.076   6.747  0.1988 -0.2096 -0.0741
  410MOL0     C55227  11.885   2.951   6.783 -0.1297  1.0792 -0.2169
  410MOL0     C55228  12.033   2.968   6.785 -0.0612  0.9020 -0.0535
  410MOL0     C55229  12.097   3.007   6.654  0.4643 -0.1864 -0.4033
  410MOL0     C55230  12.249   3.010   6.661 -0.1503  1.4935  0.3357
  410MOL0     C55231  12.317   3.029   6.527  0.4240 -0.1691  0.5602
  410MOL0     N55232  12.289   3.157   6.457 -0.6724  0.1824 -0.2380
  410MOL0     C55233  12.184   3.194   6.377 -0.3961  0.1524 -0.1812
  410MOL0     C55234  12.199   3.328   6.363 -0.3131 -0.4700  0.4363
  410MOL0     C55235  12.112   3.425   6.281 -0.5599  0.0426  0.1909
  410MOL0     C55236  11.963   3.386   6.281 -0.1293 -0.0375 -0.2054
  410MOL0     C55237  11.914   3.434   6.426  0.4920  0.0636  0.8299
  410MOL0     C55238  11.761   3.454   6.427 -0.1693  0.2409  0.1188
  410MOL0     O55239  11.682   3.339   6.392  0.1164  1.0521 -0.6631
  410MOL0     C55240  11.546   3.350   6.364 -0.9986 -0.3403 -0.5134
  410MOL0     C55241  11.475   3.254   6.290 -0.6232 -1.0963 -0.0923
  410MOL0     C55242  11.335   3.252   6.264 -0.8468 -1.0783  0.3054
  410MOL0     C55243  11.268   3.367   6.320 -0.3595 -0.3164 -0.2319
  410MOL0     C55244  11.118   3.382   6.298 -0.8243 -0.4226  0.4291
  410MOL0     O55245  11.044   3.438   6.402  0.2653 -0.0436  0.4657
  410MOL0     C55246  10.914   3.409   6.415  0.1380 -0.4549 -0.1364
  410MOL0     C55247  10.816   3.475   6.334 -0.1535 -0.5242 -0.1850
  410MOL0     C55248  10.677   3.449   6.349 -0.2935 -0.7354 -0.5515
  410MOL0     C55249  10.633   3.357   6.445  0.4153 -0.0212  0.4944
  410MOL0     O55250  10.499   3.320   6.436 -0.0812  0.7705 -0.5534
  410MOL0     C55251  10.468   3.182   6.392  0.6384 -1.1232 -0.1995
  410MOL0     C55252  10.323   3.153   6.370 -0.7277 -0.2236 -0.9408
  410MOL0     C55253  10.302   3.013   6.310  1.1910 -0.4670  0.5294
  410MOL0     C55254  10.148   2.985   6.265 -1.0154 -1.0240 -0.4002
  410MOL0     C55255  10.146   2.875   6.165 -0.0239  0.5130  0.3879
  410MOL0     C55256  10.011   2.831   6.154  0.4803 -0.7407 -0.2266
  410MOL0     C55257  10.001   2.729   6.040  0.3017 -0.0346 -0.3927
  410MOL0     C55258   9.866   2.663   6.034  0.3802  0.1256 -0.5133
  410MOL0    Cl55259   9.865   2.513   5.928 -0.5078 -0.5064 -0.0662
  410MOL0     C55260  10.730   3.290   6.515 -0.6743  0.5135 -0.1810
  410MOL0     C55261  10.868   3.306   6.493  0.1751  0.3493 -0.7331
  410MOL0     O55262  11.074   3.345   6.189 -0.6255 -0.3360 -0.1673
  410MOL0     C55263  11.339   3.463   6.398  0.2669  0.8624 -0.1087
  410MOL0     C55264  11.473   3.449   6.416  0.8563  0.2508  0.6988
  410MOL0     N55265  12.310   3.367   6.443 -0.8173 -0.6324  0.1670
  410MOL0     N55266  12.367   3.262   6.489 -0.0773  0.0777 -0.4848
  410MOL0     C55267  11.216   3.211   6.765 -0.1630  0.0986 -0.4072
  410MOL0     C55268  11.101   3.295   6.763 -0.2721 -0.0800 -0.1235
  410MOL0     C55269  10.854   3.691   6.719 -0.5268  0.7134 -0.0963
  410MOL0     C55270  10.776   3.667   6.836 -0.4655 -0.5910 -1.4774
  410MOL0     C55271  10.657   3.739   6.865 -0.3566  0.4589 -0.4688
  410MOL0     C55272  10.615   3.822   6.780 -0.8886 -0.3670  0.4008
  410MOL0     O55273  10.498   3.887   6.809 -0.0272  0.5542  0.0960
  410MOL0     C55274  10.443   3.982   6.723 -0.1500 -0.1400  0.5393
  410MOL0     C55275  10.321   4.045   6.787  0.3623 -0.1756 -0.5004
  410MOL0     C55276  10.209   3.946   6.830 -0.3787  0.3442 -0.0778
  410MOL0     C55277  10.155   3.874   6.710  0.2644 -0.1126  0.8333
  410MOL0     C55278  10.070   3.769   6.759  0.6631 -0.2827 -0.6187
  410MOL0     C55279  10.001   3.676   6.800 -0.1522  0.4494  0.5479
  410MOL0     C55280  10.682   3.846   6.656 -0.6332  0.5674 -0.0630
  410MOL0     C55281  10.804   3.777   6.622  0.2264  0.2692 -0.5640
  410MOL0     C55282  10.863   3.818   6.493 -0.1772 -0.0494 -0.1560
  410MOL0     H55283  11.258   3.588   6.778 -4.3565  0.6511  0.6206
  410MOL0     H55284  11.462   3.438   6.775 -0.7600  3.2909 -0.9281
  410MOL0     H55285  11.582   3.217   6.634 -2.9019  0.3269 -1.1214
  410MOL0     H55286  11.629   3.271   6.801 -3.8024  2.7028 -0.5410
  410MOL0     H55287  11.615   2.974   6.708  2.5937 -1.1172 -0.3075
  410MOL0     H55288  11.633   3.044   6.874  2.9202 -1.2423  0.7868
  410MOL0     H55289  11.821   3.159   6.816 -1.5206  0.9300 -0.9065
  410MOL0     H55290  11.810   3.111   6.643 -0.5736  0.3101  0.0334
  410MOL0     H55291  11.838   2.917   6.876  2.5892 -0.5539  0.6691
  410MOL0     H55292  11.869   2.867   6.715  0.5322  0.2709  0.6119
  410MOL0     H55293  12.050   3.052   6.854 -0.0750 -0.0752  1.1881
  410MOL0     H55294  12.089   2.884   6.829  0.4266  1.4714  0.4362
  410MOL0     H55295  12.054   2.940   6.578 -0.4619 -1.4895  1.1986
  410MOL0     H55296  12.072   3.112   6.632 -0.2932 -0.3479 -0.3477
  410MOL0     H55297  12.276   2.907   6.687 -0.2402  1.2601 -0.4617
  410MOL0     H55298  12.291   3.082   6.732  0.4850  0.1051  1.4044
  410MOL0     H55299  12.425   3.032   6.546  0.4378  0.4113  0.4149
  410MOL0     H55300  12.295   2.948   6.458 -2.3346 -1.7836  3.1158
  410MOL0     H55301  12.108   3.125   6.341 -0.1147 -1.1119  1.5331
  410MOL0     H55302  12.131   3.529   6.311  0.7311  0.9220 -3.1165
  410MOL0     H55303  12.143   3.423   6.176 -0.0457  1.0313  0.3032
  410MOL0     H55304  11.921   3.450   6.203  1.1446  2.6758  1.1634
  410MOL0     H55305  11.953   3.278   6.276  2.2080 -0.5598  2.9910
  410MOL0     H55306  11.960   3.529   6.454  2.5754 -0.0269 -1.8324
  410MOL0     H55307  11.939   3.361   6.503 -0.8439 -3.5004 -1.8439
  410MOL0     H55308  11.737   3.533   6.356 -2.7388 -1.6166 -1.2502
  410MOL0     H55309  11.743   3.496   6.527  1.7525  1.3544  0.0346
  410MOL0     H55310  11.521   3.171   6.237  1.4834  0.0343 -0.1210
  410MOL0     H55311  11.270   3.187   6.207 -2.1653  0.1871  0.3019
  410MOL0     H55312  10.858   3.553   6.272 -2.0820  1.6585  1.0690
  410MOL0     H55313  10.598   3.502   6.297 -1.2142 -1.1852  0.3640
  410MOL0     H55314  10.518   3.166   6.296  1.6432 -2.0695  0.4516
  410MOL0     H55315  10.506   3.110   6.465 -0.1518 -0.9260  0.4106
  410MOL0     H55316  10.270   3.171   6.463  0.2959  1.6135 -0.6724
  410MOL0     H55317  10.289   3.224   6.294  0.2676 -2.1165 -3.3103
  410MOL0     H55318  10.365   2.989   6.223 -2.4614 -1.8182 -1.9649
  410MOL0     H55319  10.328   2.945   6.391  1.2152 -3.6846 -1.9881
  410MOL0     H55320  10.098   3.073   6.224 -3.6246 -3.8495 -3.8428
  410MOL0     H55321  10.090   2.955   6.353 -1.0718 -0.4579 -0.2390
  410MOL0     H55322  10.220   2.800   6.194  3.3951  3.1624 -0.7613
  410MOL0     H55323  10.175   2.914   6.067 -4.2937  0.7930 -0.9462
  410MOL0     H55324   9.993   2.773   6.245 -0.9618  0.1873  0.1109
  410MOL0     H55325   9.934   2.908   6.147  0.9614  0.2262  3.2396
  410MOL0     H55326  10.081   2.659   6.063  0.8239  0.9124  0.7531
  410MOL0     H55327  10.033   2.781   5.949  1.1963  0.6882  0.3145
  410MOL0     H55328   9.814   2.626   6.123 -1.8956 -1.3559 -2.3138
  410MOL0     H55329   9.792   2.730   5.989 -2.5254 -1.4927  1.5202
  410MOL0     H55330  10.704   3.202   6.573 -0.0536 -0.8048 -1.8297
  410MOL0     H55331  10.943   3.250   6.548  1.6793  0.2651 -2.7588
  410MOL0     H55332  11.286   3.542   6.451 -1.2904  1.2669 -2.1367
  410MOL0     H55333  11.524   3.514   6.488  0.9111 -1.6906  2.5158
  410MOL0     H55334  11.206   3.103   6.761 -4.1961  0.3728 -1.8496
  410MOL0     H55335  11.004   3.246   6.763  1.1469 -3.2320 -2.0037
  410MOL0     H55336  10.803   3.590   6.907 -0.5694  0.5322 -0.1873
  410MOL0     H55337  10.598   3.718   6.954  0.7781  1.2282  0.5091
  410MOL0     H55338  10.426   3.947   6.621  2.3466 -0.1068  0.0421
  410MOL0     H55339  10.519   4.057   6.698 -2.3791  1.9793 -0.2470
  410MOL0     H55340  10.280   4.116   6.716 -0.0077  0.4610  0.3316
  410MOL0     H55341  10.343   4.114   6.869 -1.1664  0.5439 -0.6615
  410MOL0     H55342  10.133   4.007   6.880 -0.3516  3.0503 -3.0210
  410MOL0     H55343  10.244   3.870   6.901 -1.2173  0.3628  0.3663
  410MOL0     H55344  10.100   3.934   6.637 -1.3449 -1.2910  1.0331
  410MOL0     H55345  10.234   3.831   6.646  0.5115 -0.0762  1.1101
  410MOL0     H55346   9.944   3.595   6.839  0.5326 -0.3526 -0.0824
  410MOL0     H55347  10.652   3.918   6.582  0.9679  0.8850 -0.4505
  410MOL0     H55348  10.953   3.874   6.520 -1.2472  1.3896  0.5774
  410MOL0     H55349  10.901   3.728   6.444  2.4034 -0.2921  2.0158
  410MOL0     H55350  10.800   3.881   6.429 -2.1816  0.0189  1.7693
  411MOL0     O55351   6.939   5.093   5.006 -1.0747  0.3958 -0.7163
  411MOL0     C55352   7.022   5.190   4.986  0.0442  0.3669 -0.1881
  411MOL0     O55353   7.038   5.261   4.876  0.1237  0.3579  0.0549
  411MOL0     C55354   6.960   5.235   4.771 -0.2141  0.6852  0.1633
  411MOL0     C55355   6.825   5.212   4.767 -0.1312 -0.0119 -0.1344
  411MOL0     C55356   6.753   5.181   4.650  0.1654  0.3330  0.1350
  411MOL0     C55357   6.831   5.149   4.541  0.6252  0.3066  0.0597
  411MOL0     O55358   6.755   5.100   4.440 -0.4896 -0.5766  0.4089
  411MOL0     C55359   6.803   4.994   4.360 -0.6880  0.6397 -0.3216
  411MOL0     C55360   6.687   4.938   4.275  0.7680 -0.5613  0.3082
  411MOL0     C55361   6.567   4.875   4.341  0.1160 -0.2969 -0.1458
  411MOL0     C55362   6.472   4.818   4.237  0.3126  0.0334 -0.4392
  411MOL0     C55363   6.345   4.759   4.305  0.3532 -0.8736 -0.0135
  411MOL0     C55364   6.252   4.721   4.184 -0.1905  0.0236 -0.6899
  411MOL0     C55365   6.127   4.651   4.223  0.6840 -0.3033  0.5175
  411MOL0     C55366   6.026   4.757   4.281  0.3812 -0.4099  0.4499
  411MOL0     N55367   5.889   4.708   4.266 -0.5331  0.6991  0.2945
  411MOL0     C55368   5.841   4.591   4.319 -0.1782 -1.0781  0.7668
  411MOL0     C55369   5.718   4.577   4.267  0.1604 -0.4798 -1.0636
  411MOL0     C55370   5.639   4.455   4.295 -0.0311  0.0085  0.2334
  411MOL0     C55371   5.488   4.486   4.253 -0.2510 -0.0613  0.1355
  411MOL0     C55372   5.390   4.377   4.293 -0.6209 -0.3616 -0.0067
  411MOL0     C55373   5.251   4.410   4.251 -0.7841 -0.1569  1.3260
  411MOL0     O55374   5.162   4.311   4.309  0.0125 -0.0489  1.0390
  411MOL0     C55375   5.025   4.324   4.297  0.0221  0.5062  0.7963
  411MOL0     C55376   4.961   4.264   4.186 -0.5228  0.8083 -0.3484
  411MOL0     C55377   4.826   4.243   4.187  0.1323  0.5943 -0.5428
  411MOL0     C55378   4.753   4.292   4.300  0.3948 -0.9643 -0.1209
  411MOL0     C55379   4.608   4.272   4.309 -0.3049  0.1839  0.8794
  411MOL0     O55380   4.551   4.167   4.239 -0.5415 -0.7061 -0.4875
  411MOL0     C55381   4.413   4.142   4.240 -0.0867  0.9067 -0.4398
  411MOL0     C55382   4.372   4.008   4.202 -0.2782 -0.0212 -0.0359
  411MOL0     C55383   4.237   3.967   4.209 -0.5122 -0.5903  0.0491
  411MOL0     C55384   4.137   4.059   4.247 -0.0105 -0.9498 -0.0182
  411MOL0     O55385   4.011   4.010   4.248  0.1294 -0.0078  0.1195
  411MOL0     C55386   3.900   4.098   4.242  0.2193 -0.6713  0.4495
  411MOL0     C55387   3.759   4.028   4.227  0.2199  0.1438 -0.4896
  411MOL0     C55388   3.642   4.123   4.246  0.4546  0.5039 -0.0750
  411MOL0     C55389   3.501   4.055   4.218  0.6031  0.0569 -1.0408
  411MOL0     C55390   3.385   4.138   4.274  0.9444  0.1318 -0.3953
  411MOL0     C55391   3.390   4.167   4.419 -0.0301  0.2782 -0.0780
  411MOL0     C55392   3.250   4.211   4.477  0.0997  0.3862 -0.0179
  411MOL0     C55393   3.269   4.228   4.625 -0.0823 -0.4028  0.8902
  411MOL0    Cl55394   3.149   4.346   4.697  0.2449 -0.3238  0.4899
  411MOL0     C55395   4.176   4.191   4.280  0.0723 -0.2983 -0.5862
  411MOL0     C55396   4.309   4.225   4.281  0.1754  0.7034  0.0519
  411MOL0     O55397   4.548   4.353   4.384 -0.8952  0.7979  0.5411
  411MOL0     C55398   4.821   4.358   4.406  0.3068 -0.9797 -0.1640
  411MOL0     C55399   4.952   4.387   4.400 -0.0365  0.1556 -0.4363
  411MOL0     N55400   5.692   4.680   4.171  0.3824  0.5707 -0.3399
  411MOL0     N55401   5.802   4.753   4.170  0.2742 -0.4579 -0.6850
  411MOL0     C55402   6.965   5.164   4.540 -0.1206  0.1953  1.0390
  411MOL0     C55403   7.033   5.202   4.654  0.5506 -0.9952 -0.2383
  411MOL0     C55404   7.116   5.218   5.094 -0.0806 -0.0391  0.2341
  411MOL0     C55405   7.234   5.272   5.057  0.6839 -0.3899 -0.1358
  411MOL0     C55406   7.344   5.295   5.143 -0.0103 -0.0711  0.0591
  411MOL0     C55407   7.332   5.260   5.279  0.3188 -0.0669  0.3041
  411MOL0     O55408   7.433   5.264   5.370  0.2806  0.1325 -0.9103
  411MOL0     C55409   7.565   5.305   5.312 -0.0770  0.2837 -0.0756
  411MOL0     C55410   7.675   5.305   5.426  0.1429 -0.7561  0.1269
  411MOL0     C55411   7.823   5.322   5.376 -0.4727  0.8277 -0.6564
  411MOL0     C55412   7.855   5.444   5.293 -0.2262 -0.1804  0.1182
  411MOL0     C55413   7.848   5.568   5.377  1.0114  1.0355  0.4597
  411MOL0     C55414   7.815   5.670   5.429  0.1459 -0.2661 -0.6498
  411MOL0     C55415   7.208   5.211   5.326 -0.1228  0.9184 -0.4124
  411MOL0     C55416   7.103   5.184   5.229  0.3096 -0.0490  0.5180
  411MOL0     C55417   6.978   5.126   5.279  0.2861  0.6332  0.5510
  411MOL0     H55418   6.762   5.219   4.855 -2.1574  1.1460 -1.5686
  411MOL0     H55419   6.644   5.183   4.650  0.1018 -0.7055  1.7803
  411MOL0     H55420   6.888   5.018   4.296 -0.1905 -1.2407 -0.4282
  411MOL0     H55421   6.844   4.915   4.424  1.5492  2.1998  0.2929
  411MOL0     H55422   6.745   4.868   4.213 -1.0909 -0.8828 -1.1535
  411MOL0     H55423   6.654   5.010   4.200  2.1432  0.8930  1.0452
  411MOL0     H55424   6.508   4.951   4.394 -0.2822  0.2107 -1.2883
  411MOL0     H55425   6.602   4.797   4.409 -1.8283 -1.6982 -0.6502
  411MOL0     H55426   6.464   4.893   4.158  3.6957 -1.5114 -2.5126
  411MOL0     H55427   6.534   4.736   4.199  0.9258  1.0690 -1.7353
  411MOL0     H55428   6.370   4.666   4.358 -0.0421 -0.7887  0.3336
  411MOL0     H55429   6.300   4.835   4.370 -2.1161 -0.8828 -1.5597
  411MOL0     H55430   6.227   4.806   4.120  0.4027  2.3356  1.9852
  411MOL0     H55431   6.314   4.656   4.121  1.2998 -0.8698  1.5750
  411MOL0     H55432   6.157   4.576   4.296  0.2210 -0.0295  0.9926
  411MOL0     H55433   6.083   4.600   4.136  0.6613  1.2483 -0.4226
  411MOL0     H55434   6.040   4.778   4.387 -0.5088 -0.3591  0.5674
  411MOL0     H55435   6.041   4.847   4.220  0.4569  0.7921  2.1717
  411MOL0     H55436   5.895   4.521   4.382  1.8943 -0.3586 -0.1424
  411MOL0     H55437   5.679   4.376   4.231 -2.7713 -0.9194 -0.4680
  411MOL0     H55438   5.647   4.431   4.402 -2.2860 -1.9990  0.0432
  411MOL0     H55439   5.456   4.572   4.313  0.6217  0.1247  0.3562
  411MOL0     H55440   5.486   4.504   4.145 -3.0855  0.3063  0.1724
  411MOL0     H55441   5.397   4.367   4.401  0.6508  0.8000  0.0559
  411MOL0     H55442   5.414   4.287   4.236 -0.9244  2.5623 -5.5125
  411MOL0     H55443   5.239   4.410   4.142 -0.4465  0.8391  1.2776
  411MOL0     H55444   5.227   4.506   4.298  0.1521  0.8305 -0.1526
  411MOL0     H55445   5.023   4.229   4.103 -0.3098 -0.1516  0.1929
  411MOL0     H55446   4.771   4.191   4.109 -0.1036  0.0510 -0.0196
  411MOL0     H55447   4.450   3.945   4.160 -0.3024  2.0883 -3.7325
  411MOL0     H55448   4.220   3.865   4.177 -0.1261 -1.6803  2.9615
  411MOL0     H55449   3.893   4.161   4.331 -1.2490 -1.8792  1.2337
  411MOL0     H55450   3.914   4.169   4.160 -2.2907  0.1000  0.6307
  411MOL0     H55451   3.753   3.982   4.128  1.5369  0.1565 -0.5924
  411MOL0     H55452   3.751   3.949   4.303  0.7665  2.6957  2.4115
  411MOL0     H55453   3.647   4.153   4.351  1.7524 -4.1133  1.4502
  411MOL0     H55454   3.647   4.211   4.182  1.6925  1.4026  1.2188
  411MOL0     H55455   3.494   3.952   4.254 -0.3027 -1.2667 -4.5892
  411MOL0     H55456   3.497   4.059   4.109  1.0858  2.3505 -1.0343
  411MOL0     H55457   3.292   4.084   4.253  1.3068  0.1451 -2.2054
  411MOL0     H55458   3.380   4.235   4.224  1.9078  1.2770  1.6239
  411MOL0     H55459   3.430   4.080   4.472  1.3725  0.0327 -1.4556
  411MOL0     H55460   3.474   4.235   4.439 -1.3907  1.7032  0.9566
  411MOL0     H55461   3.172   4.137   4.456  0.0833  0.6308 -0.8595
  411MOL0     H55462   3.219   4.311   4.443 -1.9805 -0.0857  0.3276
  411MOL0     H55463   3.244   4.133   4.673 -1.0447  0.0290  1.2861
  411MOL0     H55464   3.372   4.254   4.649 -0.8262  1.6395  2.2070
  411MOL0     H55465   4.111   4.275   4.305  1.9596  1.9873 -2.8483
  411MOL0     H55466   4.321   4.325   4.321  4.1237  0.5212 -0.3271
  411MOL0     H55467   4.765   4.383   4.495  3.9195 -0.9693  2.3495
  411MOL0     H55468   5.001   4.431   4.487 -2.4669 -1.6435  2.0461
  411MOL0     H55469   7.027   5.150   4.452 -1.3976  1.0089 -0.0330
  411MOL0     H55470   7.142   5.208   4.650  0.5575 -0.1190  0.6728
  411MOL0     H55471   7.242   5.316   4.959  0.9760  0.3444  0.2149
  411MOL0     H55472   7.427   5.348   5.097 -1.1322  2.0816  0.4085
  411MOL0     H55473   7.551   5.409   5.280  3.4243 -0.1617 -3.9529
  411MOL0     H55474   7.594   5.242   5.227  0.7367 -2.0532  1.8536
  411MOL0     H55475   7.668   5.206   5.474  0.5826 -1.5113 -1.3050
  411MOL0     H55476   7.651   5.385   5.496  2.3250  0.0065  0.0863
  411MOL0     H55477   7.842   5.233   5.314 -1.7235  1.3160 -1.7967
  411MOL0     H55478   7.888   5.318   5.464 -1.4368  2.8592  0.1937
  411MOL0     H55479   7.953   5.425   5.248  0.3795 -0.4101  1.4613
  411MOL0     H55480   7.790   5.466   5.208  1.0523 -0.8527 -1.0810
  411MOL0     H55481   7.791   5.758   5.486 -2.5129 -0.9981 -0.4874
  411MOL0     H55482   7.181   5.185   5.428 -0.9799  1.4803 -0.4835
  411MOL0     H55483   6.961   5.132   5.387  1.3424 -3.5073  1.1423
  411MOL0     H55484   6.892   5.162   5.223 -0.1300 -2.0136 -0.6861
  411MOL0     H55485   6.974   5.017   5.264  0.8058  0.5729  0.8182
  412MOL0     O55486   3.452   5.871   5.278 -0.1679  0.2221 -0.3523
  412MOL0     C55487   3.396   5.797   5.367 -0.4224  0.5461  1.0216
  412MOL0     O55488   3.447   5.760   5.484 -0.1800  0.2772  0.6637
  412MOL0     C55489   3.574   5.774   5.517 -0.5192 -0.6219 -1.2323
  412MOL0     C55490   3.609   5.827   5.649  0.1526  0.4612  0.4808
  412MOL0     C55491   3.740   5.853   5.692  0.7885  0.2443 -0.5845
  412MOL0     C55492   3.844   5.815   5.612 -0.7963  1.2940  0.5171
  412MOL0     O55493   3.961   5.863   5.659 -0.7685  0.1201 -0.3882
  412MOL0     C55494   4.085   5.811   5.605 -0.4206 -0.3904  0.9420
  412MOL0     C55495   4.204   5.899   5.643  0.1879  0.8697  0.0658
  412MOL0     C55496   4.341   5.833   5.606 -0.0885  0.2881  0.2058
  412MOL0     C55497   4.469   5.902   5.662 -0.3704  0.6584 -0.2032
  412MOL0     C55498   4.602   5.817   5.656  0.4257  0.1087 -0.0621
  412MOL0     C55499   4.718   5.894   5.735  0.6953  0.0015  0.1934
  412MOL0     C55500   4.837   5.799   5.757  0.5978 -0.8570  0.1154
  412MOL0     C55501   4.910   5.828   5.886  0.2149 -0.4499 -0.0261
  412MOL0     N55502   5.031   5.754   5.905 -1.1001 -0.2743  0.2604
  412MOL0     C55503   5.138   5.752   5.807 -0.9256  0.6648 -0.0110
  412MOL0     C55504   5.234   5.660   5.860 -0.3296  0.1945 -0.2927
  412MOL0     C55505   5.369   5.619   5.804 -0.0643 -0.4807 -0.1607
  412MOL0     C55506   5.408   5.474   5.842  0.0549 -0.0623  0.2229
  412MOL0     C55507   5.530   5.423   5.764  0.4302  0.0887  0.0347
  412MOL0     C55508   5.607   5.296   5.819  0.6696 -0.6830  0.8242
  412MOL0     O55509   5.625   5.306   5.960 -0.3208 -0.0276 -0.1503
  412MOL0     C55510   5.740   5.279   6.020  0.4259  0.3117 -0.2266
  412MOL0     C55511   5.844   5.189   5.974  0.8009 -0.2644  1.1135
  412MOL0     C55512   5.959   5.169   6.049 -0.0318  0.9625  1.2605
  412MOL0     C55513   5.983   5.238   6.168  0.1326 -0.8107 -0.4140
  412MOL0     C55514   6.109   5.195   6.249  0.8623  0.1054  0.6833
  412MOL0     O55515   6.200   5.126   6.180  0.1905  0.1213 -0.3609
  412MOL0     C55516   6.317   5.104   6.249  0.6495 -0.4717 -0.0212
  412MOL0     C55517   6.320   5.009   6.354  0.4273 -0.6059  0.2538
  412MOL0     C55518   6.435   4.972   6.423  0.6155 -0.4340 -0.0105
  412MOL0     C55519   6.554   5.044   6.397 -0.4789 -0.2418 -0.1029
  412MOL0     O55520   6.658   5.004   6.481  0.5410 -0.5626 -0.1323
  412MOL0     C55521   6.796   5.010   6.427 -0.2416 -0.2863  0.0261
  412MOL0     C55522   6.876   5.016   6.552 -0.8843 -0.3937  0.3584
  412MOL0     C55523   6.854   5.145   6.627 -0.1393 -0.9868 -0.2576
  412MOL0     C55524   6.867   5.118   6.776  0.0377 -0.0876  0.4088
  412MOL0     C55525   6.832   5.225   6.883 -0.2508 -0.5910 -0.7056
  412MOL0     C55526   6.935   5.339   6.889 -0.9344 -0.7133 -0.4722
  412MOL0     C55527   6.903   5.426   7.009  1.2581 -0.0167  0.0671
  412MOL0     C55528   7.023   5.505   7.056 -0.2192 -1.0295 -0.3280
  412MOL0    Cl55529   7.071   5.645   6.955  0.2333 -0.0679  0.3381
  412MOL0     C55530   6.551   5.143   6.298  0.3770  0.0665 -0.4365
  412MOL0     C55531   6.435   5.171   6.219 -0.5771 -0.0654 -0.4199
  412MOL0     O55532   6.118   5.238   6.363  0.1159 -0.4424  0.3241
  412MOL0     C55533   5.892   5.336   6.207 -0.7537 -0.8142 -0.1372
  412MOL0     C55534   5.775   5.355   6.134 -0.2829 -0.1252 -0.1368
  412MOL0     N55535   5.185   5.617   5.979 -0.2222 -0.0142  0.0147
  412MOL0     N55536   5.077   5.674   6.004 -0.4199  0.2108 -0.4933
  412MOL0     C55537   3.814   5.748   5.480  0.2837  0.3604  0.4672
  412MOL0     C55538   3.677   5.724   5.437  0.1029 -0.7614 -0.0895
  412MOL0     C55539   3.262   5.746   5.345 -0.4444  0.7415 -0.4448
  412MOL0     C55540   3.211   5.763   5.209  0.3515  0.6588 -0.7063
  412MOL0     C55541   3.085   5.714   5.163 -0.6514  0.0520 -0.0773
  412MOL0     C55542   3.007   5.649   5.254  0.9013 -0.1528  0.5623
  412MOL0     O55543   2.895   5.590   5.196 -0.3647 -0.4817 -0.6497
  412MOL0     C55544   2.800   5.514   5.276  0.6443  0.1922 -0.1071
  412MOL0     C55545   2.727   5.608   5.379 -0.8241  1.1735 -0.2729
  412MOL0     C55546   2.614   5.688   5.323 -0.1433  0.4630  0.4772
  412MOL0     C55547   2.662   5.799   5.220 -1.0751  0.4760 -0.2376
  412MOL0     C55548   2.556   5.906   5.220 -0.1762 -0.1739  1.0439
  412MOL0     C55549   2.461   5.981   5.209  0.2413  0.8553  0.3902
  412MOL0     C55550   3.047   5.641   5.390 -0.2135 -0.2228 -0.4061
  412MOL0     C55551   3.178   5.680   5.437  0.6671  0.5206 -0.3690
  412MOL0     C55552   3.217   5.656   5.586  0.7143 -0.3496 -0.2162
  412MOL0     H55553   3.534   5.858   5.721 -0.2179 -1.5495  1.0411
  412MOL0     H55554   3.762   5.915   5.778  0.0611  1.5058 -1.2698
  412MOL0     H55555   4.097   5.704   5.623 -0.3201 -0.7829 -1.2645
  412MOL0     H55556   4.082   5.814   5.496 -1.9525 -0.8752  0.9524
  412MOL0     H55557   4.206   5.921   5.750  2.3016 -1.7414  0.6729
  412MOL0     H55558   4.194   5.993   5.589  0.5846  0.4108 -0.8363
  412MOL0     H55559   4.350   5.823   5.498  0.7401 -2.4329  0.4585
  412MOL0     H55560   4.346   5.730   5.643  1.7427  0.2869  0.0467
  412MOL0     H55561   4.479   6.002   5.619 -1.2457  0.3567 -1.1527
  412MOL0     H55562   4.462   5.919   5.770  2.0822  1.3152 -0.1003
  412MOL0     H55563   4.581   5.716   5.694  0.3101 -0.2148 -0.9458
  412MOL0     H55564   4.622   5.788   5.552  0.3373 -0.4427  0.0701
  412MOL0     H55565   4.737   5.981   5.672  0.2735 -1.6174 -2.3075
  412MOL0     H55566   4.702   5.921   5.840  1.3160  1.2068 -0.0031
  412MOL0     H55567   4.895   5.829   5.669 -0.9475  1.1348 -0.3098
  412MOL0     H55568   4.799   5.697   5.752 -2.5173  0.2623 -3.2158
  412MOL0     H55569   4.926   5.934   5.909  0.4206 -0.4825 -0.0166
  412MOL0     H55570   4.843   5.794   5.966  0.8132 -0.6074  0.4119
  412MOL0     H55571   5.154   5.804   5.713 -0.9737  0.7430  0.0242
  412MOL0     H55572   5.373   5.626   5.695  1.8245 -1.3420 -0.1893
  412MOL0     H55573   5.441   5.688   5.848 -0.3980  1.7161 -2.7729
  412MOL0     H55574   5.422   5.477   5.951 -1.3448 -1.6908  0.4991
  412MOL0     H55575   5.330   5.398   5.828 -1.7447  1.8309 -0.4899
  412MOL0     H55576   5.605   5.503   5.766  0.3295  0.5938 -4.9645
  412MOL0     H55577   5.505   5.416   5.658 -0.2510  2.0423  0.0204
  412MOL0     H55578   5.696   5.281   5.757  1.3380  1.7738  1.0722
  412MOL0     H55579   5.559   5.199   5.806 -0.0698 -0.2047 -0.2622
  412MOL0     H55580   5.838   5.146   5.875  1.7187  1.3129  0.3274
  412MOL0     H55581   6.019   5.094   5.998 -0.5789  0.1549  1.7762
  412MOL0     H55582   6.226   4.959   6.376  1.3031 -1.8918  1.2327
  412MOL0     H55583   6.432   4.902   6.506 -0.7810 -1.2892 -0.7369
  412MOL0     H55584   6.814   4.910   6.385 -1.5194 -0.6653  0.3398
  412MOL0     H55585   6.812   5.093   6.358 -2.4654 -2.0636 -2.9202
  412MOL0     H55586   6.848   4.932   6.617  2.7117 -0.4602  2.0598
  412MOL0     H55587   6.981   4.993   6.530 -0.9982 -0.6252  0.0539
  412MOL0     H55588   6.923   5.228   6.608 -1.2928  0.2580  0.8193
  412MOL0     H55589   6.752   5.184   6.620  0.7248  1.3335 -1.2081
  412MOL0     H55590   6.968   5.077   6.786 -0.8836 -2.7394 -0.3451
  412MOL0     H55591   6.794   5.039   6.796 -2.6196  2.3860  1.1620
  412MOL0     H55592   6.824   5.179   6.982  2.8383  1.3560  0.6068
  412MOL0     H55593   6.742   5.283   6.857  0.5142  3.3099  3.7516
  412MOL0     H55594   7.038   5.302   6.900 -0.1858  1.2109 -0.6653
  412MOL0     H55595   6.928   5.404   6.802 -2.1065 -0.1334  0.0442
  412MOL0     H55596   6.869   5.369   7.096 -2.0185 -0.6036 -1.4590
  412MOL0     H55597   6.823   5.495   6.979  0.1095 -1.2609  0.1563
  412MOL0     H55598   6.999   5.543   7.156  0.2238 -1.5779 -0.0076
  412MOL0     H55599   7.106   5.434   7.062 -1.1422 -2.0213  2.0467
  412MOL0     H55600   6.647   5.183   6.270  1.5101 -0.4529  2.3520
  412MOL0     H55601   6.441   5.241   6.137 -0.6547 -0.2815 -0.6105
  412MOL0     H55602   5.919   5.392   6.296 -0.2833 -0.7856 -0.2965
  412MOL0     H55603   5.709   5.436   6.163 -0.9268  0.1966 -2.3667
  412MOL0     H55604   3.894   5.706   5.421 -0.5069 -3.4474  1.8073
  412MOL0     H55605   3.652   5.669   5.347  1.0675 -2.0630  0.3997
  412MOL0     H55606   3.267   5.808   5.127  1.7684 -0.9432 -0.6532
  412MOL0     H55607   3.046   5.733   5.064  0.7212 -0.1701 -0.6828
  412MOL0     H55608   2.857   5.441   5.334  2.3521  0.2146 -1.6668
  412MOL0     H55609   2.725   5.465   5.212 -0.8545  1.1260  0.8616
  412MOL0     H55610   2.804   5.673   5.421  0.5413  0.4928 -1.6522
  412MOL0     H55611   2.697   5.537   5.456  0.3697  0.3380 -0.5481
  412MOL0     H55612   2.577   5.734   5.415  2.2770  1.8432  0.8476
  412MOL0     H55613   2.548   5.618   5.270  3.4520 -2.2299 -0.8883
  412MOL0     H55614   2.750   5.848   5.262 -0.7422 -0.2328 -0.0936
  412MOL0     H55615   2.681   5.754   5.123  2.5562  0.0806  0.5253
  412MOL0     H55616   2.386   6.055   5.190 -1.9349 -1.8180 -2.3081
  412MOL0     H55617   2.979   5.592   5.459 -0.3513  1.9122  1.0638
  412MOL0     H55618   3.141   5.599   5.640  1.5353  0.4420  1.8813
  412MOL0     H55619   3.312   5.602   5.593  1.8054  1.5676  0.2199
  412MOL0     H55620   3.230   5.749   5.641  3.1421 -0.0394 -1.1724
  413MOL0     O55621   8.520  11.055   8.697  0.3118 -0.4735  0.3638
  413MOL0     C55622   8.432  11.129   8.643  0.3486 -0.2870  0.3678
  413MOL0     O55623   8.447  11.189   8.518  0.4168 -0.2194 -0.8201
  413MOL0     C55624   8.567  11.196   8.453 -0.2847  0.2587  0.2994
  413MOL0     C55625   8.630  11.079   8.405 -0.0129 -0.4871 -0.6080
  413MOL0     C55626   8.756  11.095   8.339  0.2741 -0.1372  0.4316
  413MOL0     C55627   8.803  11.218   8.305 -1.3958 -0.4139  0.7363
  413MOL0     O55628   8.924  11.211   8.229  0.1262 -0.0746 -0.2922
  413MOL0     C55629   8.976  11.338   8.186  0.2251 -0.5039  0.0575
  413MOL0     C55630   9.099  11.346   8.098 -0.3968  0.5488 -0.1162
  413MOL0     C55631   9.067  11.269   7.966  0.4000  0.0091  0.5000
  413MOL0     C55632   9.197  11.196   7.934  0.2650  0.3699  0.2318
  413MOL0     C55633   9.207  11.180   7.783  0.0034 -0.1999 -0.4414
  413MOL0     C55634   9.337  11.105   7.727  0.6211 -0.3177 -0.2737
  413MOL0     C55635   9.470  11.174   7.770  0.1083  0.0526  1.2507
  413MOL0     C55636   9.574  11.165   7.667 -0.2351  0.2512  0.1544
  413MOL0     N55637   9.709  11.201   7.714  0.0260 -0.7316 -0.2830
  413MOL0     C55638   9.820  11.122   7.700 -0.8065  0.3166  0.0259
  413MOL0     C55639   9.909  11.189   7.770 -0.4599  0.1904 -0.0435
  413MOL0     C55640  10.060  11.161   7.766 -0.3327  0.1130  0.2476
  413MOL0     C55641  10.093  11.026   7.830  0.3177 -0.1275 -0.4395
  413MOL0     C55642  10.238  10.983   7.788  0.5255 -0.1118 -0.5858
  413MOL0     C55643  10.272  10.875   7.889 -0.0233 -0.0105  0.0567
  413MOL0     O55644  10.404  10.819   7.850 -0.9849 -0.1937 -0.4261
  413MOL0     C55645  10.459  10.712   7.914 -0.2802 -0.6255 -0.3565
  413MOL0     C55646  10.507  10.602   7.844  0.3942 -0.0159  0.5414
  413MOL0     C55647  10.551  10.484   7.907  0.6063 -0.3823 -0.7436
  413MOL0     C55648  10.557  10.484   8.048  0.4914  0.0862  0.3518
  413MOL0     C55649  10.597  10.367   8.113  0.2620  0.1259 -0.0035
  413MOL0     O55650  10.648  10.267   8.032 -0.1092  0.1968 -0.3278
  413MOL0     C55651  10.753  10.179   8.056  0.6543 -0.3503  0.4513
  413MOL0     C55652  10.794  10.094   7.957 -1.2079  1.1195 -0.6573
  413MOL0     C55653  10.911  10.018   7.964  0.0958  0.5366  0.0591
  413MOL0     C55654  10.981  10.000   8.076 -0.6754 -0.0986 -0.6684
  413MOL0     O55655  11.097   9.929   8.073  0.0457 -0.4314  0.0297
  413MOL0     C55656  11.194   9.937   8.174  0.4182  0.5345 -0.2559
  413MOL0     C55657  11.265  10.066   8.184 -0.2705  0.5900  0.3431
  413MOL0     C55658  11.329  10.111   8.058 -0.8080  0.2391 -0.0359
  413MOL0     C55659  11.421  10.229   8.087 -1.0397  0.4497  0.7391
  413MOL0     C55660  11.479  10.296   7.960 -0.5059 -0.1949 -0.0862
  413MOL0     C55661  11.560  10.422   7.995 -0.1877  0.1356 -0.4290
  413MOL0     C55662  11.476  10.553   7.964 -0.4833  0.1642 -0.1444
  413MOL0     C55663  11.479  10.595   7.822  0.1232 -0.1368  0.5019
  413MOL0    Cl55664  11.650  10.650   7.771  0.4199 -0.2485 -0.3978
  413MOL0     C55665  10.928  10.074   8.188 -0.3137 -0.1510 -0.0641
  413MOL0     C55666  10.817  10.166   8.176 -0.9905  0.7993  0.7447
  413MOL0     O55667  10.607  10.369   8.236 -0.1088 -0.3778 -0.1275
  413MOL0     C55668  10.508  10.593   8.126 -0.5806 -0.1076 -0.0115
  413MOL0     C55669  10.468  10.703   8.053  0.1570  0.5205 -0.4372
  413MOL0     N55670   9.858  11.295   7.844  0.1880  0.0073  0.2720
  413MOL0     N55671   9.730  11.298   7.805  0.1951  0.3743  0.0758
  413MOL0     C55672   8.727  11.326   8.338  0.5504 -0.9736  0.3916
  413MOL0     C55673   8.613  11.324   8.418  0.4833  0.4496  0.5012
  413MOL0     C55674   8.305  11.147   8.711  0.0684  0.0915  0.9148
  413MOL0     C55675   8.266  11.055   8.807 -0.9569 -0.2497 -0.7115
  413MOL0     C55676   8.147  11.056   8.882  0.8571 -0.7463  0.4089
  413MOL0     C55677   8.063  11.163   8.872 -0.5506  0.0391  0.0818
  413MOL0     O55678   7.950  11.160   8.944  0.2321  0.6365 -0.4633
  413MOL0     C55679   7.857  11.269   8.937 -0.1867 -0.5890  1.0707
  413MOL0     C55680   7.716  11.251   8.993 -0.1497  0.3369  0.2738
  413MOL0     C55681   7.718  11.230   9.148  0.2695  0.6168 -0.1769
  413MOL0     C55682   7.712  11.082   9.181 -0.4965 -0.2286 -0.1868
  413MOL0     C55683   7.722  11.059   9.333 -0.4486 -0.2666  0.1173
  413MOL0     C55684   7.722  11.051   9.452 -1.1483 -0.0525 -0.3975
  413MOL0     C55685   8.098  11.271   8.786  0.3123 -0.3753 -0.4959
  413MOL0     C55686   8.222  11.260   8.705  0.3426 -0.4322  0.8047
  413MOL0     C55687   8.254  11.386   8.622 -0.5042 -0.8019  0.0681
  413MOL0     H55688   8.609  10.978   8.440 -3.4312  1.0335  2.4303
  413MOL0     H55689   8.807  11.002   8.317 -1.1472 -1.0586  0.8679
  413MOL0     H55690   8.903  11.392   8.124  1.2665  1.2844  0.3146
  413MOL0     H55691   8.992  11.393   8.279  0.0843 -3.6214  2.0498
  413MOL0     H55692   9.178  11.301   8.158 -2.0090  1.1479  2.6489
  413MOL0     H55693   9.133  11.445   8.065  1.2636 -0.7001 -2.4204
  413MOL0     H55694   9.033  11.338   7.888 -1.9832 -0.7334  0.8135
  413MOL0     H55695   8.990  11.194   7.986  1.1107 -0.6295  0.8715
  413MOL0     H55696   9.279  11.260   7.969 -0.0732  0.1027  1.5771
  413MOL0     H55697   9.193  11.103   7.991 -0.7521  1.4869  2.0929
  413MOL0     H55698   9.123  11.128   7.736 -0.5534  0.4766 -0.2092
  413MOL0     H55699   9.207  11.280   7.740 -0.7581 -0.3857 -0.8882
  413MOL0     H55700   9.329  11.007   7.773  0.5665  0.7672  2.1992
  413MOL0     H55701   9.333  11.104   7.618 -0.4139  2.1240 -0.3133
  413MOL0     H55702   9.504  11.130   7.864  1.3787  0.7161  1.1153
  413MOL0     H55703   9.455  11.281   7.789 -2.0462 -0.3275  2.0071
  413MOL0     H55704   9.584  11.062   7.632  1.0781  0.5260 -0.3439
  413MOL0     H55705   9.554  11.227   7.579  2.6109 -1.2929 -1.7600
  413MOL0     H55706   9.830  11.037   7.633 -1.5494  1.4495 -1.6027
  413MOL0     H55707  10.097  11.164   7.664 -0.7569  1.5290  0.1121
  413MOL0     H55708  10.111  11.235   7.829 -0.9420  1.0242 -0.3006
  413MOL0     H55709  10.087  11.032   7.940  2.8211  0.7796 -0.3071
  413MOL0     H55710  10.014  10.962   7.788  0.9035 -0.0292 -1.7083
  413MOL0     H55711  10.310  11.065   7.800 -0.0144  0.5656 -1.7648
  413MOL0     H55712  10.231  10.947   7.685  0.6924 -0.1896 -0.5693
  413MOL0     H55713  10.190  10.803   7.882  0.1053 -0.3537  1.7572
  413MOL0     H55714  10.276  10.920   7.989  0.4488  0.9908 -0.3927
  413MOL0     H55715  10.521  10.606   7.736 -0.0620  1.5145  0.5243
  413MOL0     H55716  10.587  10.400   7.849  1.4828 -0.9174  0.5149
  413MOL0     H55717  10.743  10.112   7.863 -2.1668  0.8394 -0.2066
  413MOL0     H55718  10.947   9.962   7.879 -3.7585 -1.3148 -0.5500
  413MOL0     H55719  11.152   9.917   8.273 -1.6836 -1.5434 -1.4581
  413MOL0     H55720  11.270   9.863   8.148  0.9254  0.0924  2.2476
  413MOL0     H55721  11.196  10.143   8.218  0.4652  0.7247  1.6179
  413MOL0     H55722  11.337  10.060   8.266  1.9438  2.1527 -1.3685
  413MOL0     H55723  11.398  10.036   8.017 -1.7607 -0.5104 -0.3069
  413MOL0     H55724  11.259  10.127   7.975  0.8158  0.7055 -1.3778
  413MOL0     H55725  11.505  10.189   8.144  0.9941  0.9312 -1.7379
  413MOL0     H55726  11.366  10.305   8.144 -2.0013 -0.6749  1.3643
  413MOL0     H55727  11.392  10.315   7.897 -0.9961 -1.6620  0.0940
  413MOL0     H55728  11.532  10.217   7.905 -1.1787 -0.9395  0.3182
  413MOL0     H55729  11.583  10.409   8.101  1.6107 -3.5373 -1.1157
  413MOL0     H55730  11.656  10.417   7.943 -0.3656  1.3529 -0.9395
  413MOL0     H55731  11.524  10.632   8.024  1.1213 -0.9675  0.1261
  413MOL0     H55732  11.377  10.543   8.009  0.2581  2.2082  2.1680
  413MOL0     H55733  11.446  10.523   7.747 -0.8166 -0.8243  1.5424
  413MOL0     H55734  11.417  10.683   7.803  1.0199  0.1590 -1.2165
  413MOL0     H55735  10.970  10.051   8.285 -2.4562  0.1632  1.0159
  413MOL0     H55736  10.805  10.238   8.257  0.6855  1.6493  0.2866
  413MOL0     H55737  10.511  10.593   8.234  2.5637 -1.4212  0.0088
  413MOL0     H55738  10.429  10.785   8.113 -3.0567 -1.7498  0.9063
  413MOL0     H55739   8.761  11.424   8.306 -1.4219 -1.2184 -2.9677
  413MOL0     H55740   8.568  11.411   8.465  1.3017  0.2886  1.6295
  413MOL0     H55741   8.332  10.969   8.808 -1.0555 -0.3580 -1.8306
  413MOL0     H55742   8.120  10.974   8.948  2.5916 -2.3955 -0.8070
  413MOL0     H55743   7.852  11.301   8.833  1.3115 -1.2703  0.7533
  413MOL0     H55744   7.896  11.351   8.999  0.4801 -0.4875  0.5372
  413MOL0     H55745   7.659  11.166   8.954  0.9521 -0.4860  0.4070
  413MOL0     H55746   7.659  11.340   8.965 -2.4858 -0.8481  0.9569
  413MOL0     H55747   7.630  11.274   9.194  0.1999 -1.5276  1.9177
  413MOL0     H55748   7.799  11.294   9.185 -0.2415  1.8644 -1.1220
  413MOL0     H55749   7.614  11.044   9.152 -0.1856 -1.6512  0.5618
  413MOL0     H55750   7.797  11.036   9.129 -1.1759  0.0099 -1.5487
  413MOL0     H55751   7.737  11.048   9.558  2.1143 -0.1945 -0.7554
  413MOL0     H55752   8.047  11.366   8.779 -0.2205 -0.7667 -3.0496
  413MOL0     H55753   8.182  11.462   8.651  1.1916 -0.0716  2.7034
  413MOL0     H55754   8.355  11.426   8.630 -0.4179 -1.2428  1.3973
  413MOL0     H55755   8.237  11.362   8.516  3.1104 -0.3952 -0.7247
  414MOL0     O55756   1.997   1.759   4.361  0.9247  0.9261  0.4941
  414MOL0     C55757   2.004   1.762   4.242  0.5991 -0.2577 -0.1218
  414MOL0     O55758   2.114   1.815   4.173 -0.1971  0.6052  0.7197
  414MOL0     C55759   2.228   1.880   4.237  1.3124 -0.9485 -0.0009
  414MOL0     C55760   2.344   1.878   4.169  0.5688  0.1494 -0.6119
  414MOL0     C55761   2.470   1.934   4.216  0.5432  0.3857  0.1264
  414MOL0     C55762   2.464   1.993   4.344  0.7720 -0.4688 -0.5667
  414MOL0     O55763   2.564   2.065   4.405  0.0699  0.0138  0.0834
  414MOL0     C55764   2.681   2.100   4.323  0.6616  0.7591  0.1064
  414MOL0     C55765   2.768   2.193   4.412  0.8638 -0.8683  0.1338
  414MOL0     C55766   2.888   2.233   4.331 -0.0340  0.4054  0.1470
  414MOL0     C55767   2.941   2.362   4.388 -0.0943 -0.6342  0.5256
  414MOL0     C55768   3.061   2.417   4.310 -0.1660 -0.0757  0.1119
  414MOL0     C55769   3.137   2.521   4.390  0.4613  0.0601  0.1595
  414MOL0     C55770   3.267   2.558   4.322  0.1811  0.3918 -0.2288
  414MOL0     C55771   3.242   2.669   4.215  0.1779  0.0664  0.8330
  414MOL0     N55772   3.202   2.804   4.271 -0.4552  0.0366 -0.8180
  414MOL0     C55773   3.292   2.900   4.318 -0.2777  0.3422 -0.8344
  414MOL0     C55774   3.210   3.015   4.344 -0.0674 -0.1925  0.8680
  414MOL0     C55775   3.250   3.149   4.401 -0.1021 -0.6822  0.0390
  414MOL0     C55776   3.205   3.271   4.308 -0.2261 -1.0629 -0.1000
  414MOL0     C55777   3.289   3.291   4.189 -0.8118 -0.1942  0.5086
  414MOL0     C55778   3.448   3.286   4.210  0.0827  0.0244 -0.3482
  414MOL0     O55779   3.492   3.150   4.199  0.2897 -1.0305 -0.1063
  414MOL0     C55780   3.630   3.142   4.196  0.0783  0.0321  1.1655
  414MOL0     C55781   3.679   3.014   4.169 -0.1176 -0.2049  0.1007
  414MOL0     C55782   3.817   2.983   4.167 -0.6563 -0.7162 -0.3007
  414MOL0     C55783   3.912   3.090   4.191 -0.0566 -0.2812  0.1680
  414MOL0     C55784   4.063   3.064   4.202  0.6832  0.6113 -0.0582
  414MOL0     O55785   4.151   3.166   4.191  0.2799  0.6990  0.0490
  414MOL0     C55786   4.285   3.140   4.170 -0.8042 -0.3588  0.5495
  414MOL0     C55787   4.329   3.060   4.056 -0.6089 -0.1053 -0.5088
  414MOL0     C55788   4.467   3.031   4.047 -0.6357  0.2646 -0.0866
  414MOL0     C55789   4.560   3.101   4.134  0.0725 -0.9041  0.3029
  414MOL0     O55790   4.700   3.082   4.137  0.8558  0.1181 -0.4751
  414MOL0     C55791   4.750   2.990   4.041 -0.1110 -0.9514  0.0192
  414MOL0     C55792   4.899   2.967   4.079  0.0252  0.4179 -0.2755
  414MOL0     C55793   4.964   2.831   4.025  1.3591 -0.4190 -0.4730
  414MOL0     C55794   5.090   2.782   4.083 -0.8130 -0.0695 -0.3611
  414MOL0     C55795   5.210   2.810   3.989  0.3396  0.3472  0.3641
  414MOL0     C55796   5.348   2.797   4.045  0.5540  0.3744 -0.0023
  414MOL0     C55797   5.450   2.842   3.936 -0.8836 -0.9573  0.5961
  414MOL0     C55798   5.586   2.839   3.998  0.4718 -0.4281  0.5668
  414MOL0    Cl55799   5.717   2.896   3.882  0.3387 -0.4773 -0.3785
  414MOL0     C55800   4.510   3.191   4.228  0.3441  0.0794  0.4311
  414MOL0     C55801   4.375   3.203   4.250 -0.1419  0.3757  0.0094
  414MOL0     O55802   4.098   2.948   4.220 -0.1230  0.0351 -0.1831
  414MOL0     C55803   3.866   3.222   4.222  0.1182  0.9459 -0.8686
  414MOL0     C55804   3.725   3.240   4.231  0.6442 -0.0491 -0.5575
  414MOL0     N55805   3.082   2.977   4.352 -0.1041  0.2483  0.0982
  414MOL0     N55806   3.078   2.857   4.298 -0.0313 -0.3514  1.0688
  414MOL0     C55807   2.351   1.978   4.415  0.1628  0.4998 -0.4471
  414MOL0     C55808   2.233   1.925   4.364 -0.6797 -0.2282  0.4378
  414MOL0     C55809   1.893   1.693   4.161 -0.8142  0.2095 -0.4609
  414MOL0     C55810   1.923   1.670   4.022 -0.2167  0.0643  0.2720
  414MOL0     C55811   1.834   1.604   3.941 -0.3250 -0.1050 -0.6680
  414MOL0     C55812   1.706   1.568   3.988  0.6611 -0.4795 -0.8856
  414MOL0     O55813   1.626   1.494   3.904 -0.4903 -0.3337 -0.1041
  414MOL0     C55814   1.484   1.523   3.903  0.1080 -0.4880 -0.0024
  414MOL0     C55815   1.407   1.440   3.799 -0.1938  0.0620 -0.7244
  414MOL0     C55816   1.434   1.287   3.817 -0.6185  0.3040  0.7576
  414MOL0     C55817   1.368   1.202   3.706 -0.0209  0.0079 -0.3276
  414MOL0     C55818   1.239   1.253   3.663 -0.2237  0.9174  0.3284
  414MOL0     C55819   1.136   1.297   3.646  0.5128 -0.2402 -0.1033
  414MOL0     C55820   1.680   1.600   4.114  0.2048 -0.4446 -1.1865
  414MOL0     C55821   1.769   1.659   4.205  0.0864  0.3907  0.7415
  414MOL0     C55822   1.713   1.684   4.353  0.6812  0.3614 -0.2815
  414MOL0     H55823   2.346   1.830   4.071  1.8284 -0.8581 -0.1166
  414MOL0     H55824   2.563   1.931   4.160 -0.2676  0.8681 -1.2836
  414MOL0     H55825   2.733   2.012   4.283 -1.6953 -0.1460 -1.1380
  414MOL0     H55826   2.642   2.151   4.234  1.9932 -0.1492 -1.0392
  414MOL0     H55827   2.805   2.154   4.507  2.5724  0.3061 -0.0032
  414MOL0     H55828   2.712   2.280   4.447  0.3730  0.0478 -2.6614
  414MOL0     H55829   2.874   2.245   4.223 -0.8586 -2.0361 -0.0608
  414MOL0     H55830   2.964   2.155   4.337 -0.8192 -0.3299  0.6225
  414MOL0     H55831   2.865   2.440   4.380 -0.9842 -1.6556 -1.9454
  414MOL0     H55832   2.968   2.346   4.493  1.4884 -0.1253  0.2323
  414MOL0     H55833   3.130   2.334   4.291  1.4431  1.2514 -0.0764
  414MOL0     H55834   3.039   2.462   4.213  5.2368  1.4577 -0.7537
  414MOL0     H55835   3.078   2.610   4.413  1.6425 -0.0214  4.0267
  414MOL0     H55836   3.168   2.464   4.477 -0.3431 -0.2968  0.2233
  414MOL0     H55837   3.307   2.464   4.283 -0.8479  0.0774 -0.5443
  414MOL0     H55838   3.332   2.597   4.401  1.2383 -4.8909  1.9606
  414MOL0     H55839   3.338   2.676   4.162  0.2051 -5.4561 -0.4471
  414MOL0     H55840   3.164   2.629   4.150  2.2058 -1.0462 -1.0403
  414MOL0     H55841   3.400   2.892   4.319 -0.3121 -0.1237 -0.5485
  414MOL0     H55842   3.184   3.164   4.486 -3.3780  0.1039 -2.4442
  414MOL0     H55843   3.355   3.170   4.426 -0.8218  1.0794  1.8178
  414MOL0     H55844   3.101   3.268   4.274  0.5026 -1.3155 -2.4773
  414MOL0     H55845   3.215   3.359   4.372 -0.0089 -0.9749 -0.2545
  414MOL0     H55846   3.274   3.393   4.154  0.0949 -0.7963 -1.8052
  414MOL0     H55847   3.264   3.224   4.106 -0.0186 -0.6151  0.5968
  414MOL0     H55848   3.478   3.347   4.295 -2.8892  1.5222 -0.2392
  414MOL0     H55849   3.491   3.334   4.121  2.6663  0.0168  0.8235
  414MOL0     H55850   3.602   2.943   4.141 -1.8170  1.0920  1.2128
  414MOL0     H55851   3.850   2.881   4.150  0.8926 -0.5186  1.2689
  414MOL0     H55852   4.259   3.019   3.984  0.4357 -1.9253 -0.5530
  414MOL0     H55853   4.491   2.965   3.964 -2.6426 -0.4491 -0.1633
  414MOL0     H55854   4.702   2.893   4.054 -0.7497 -0.4575  1.5798
  414MOL0     H55855   4.750   3.018   3.935 -1.7893  1.5253  0.5860
  414MOL0     H55856   4.960   3.049   4.039  1.3093 -0.5477 -0.3625
  414MOL0     H55857   4.909   2.977   4.188  0.8975  1.8151 -0.4572
  414MOL0     H55858   4.893   2.760   4.070  0.9894  0.1234 -0.1844
  414MOL0     H55859   4.959   2.823   3.916  0.6564 -1.6361 -0.3750
  414MOL0     H55860   5.088   2.674   4.096  0.6653  0.0765  1.6659
  414MOL0     H55861   5.100   2.829   4.182 -0.6912 -0.7299 -0.0577
  414MOL0     H55862   5.195   2.908   3.943  1.3205 -0.0811 -0.9468
  414MOL0     H55863   5.208   2.741   3.904  1.2206  0.1995  0.4576
  414MOL0     H55864   5.360   2.883   4.112  1.4107  0.2895 -0.0421
  414MOL0     H55865   5.364   2.704   4.100 -1.3348  0.3727  0.6176
  414MOL0     H55866   5.437   2.946   3.902  0.0436 -1.6693 -2.1646
  414MOL0     H55867   5.456   2.779   3.847  0.0143  2.2801 -1.8473
  414MOL0     H55868   5.579   2.904   4.085 -0.2326  0.9292 -0.4576
  414MOL0     H55869   5.601   2.738   4.035  1.5067 -0.1320  1.0017
  414MOL0     H55870   4.583   3.238   4.293 -0.9150  1.9111  0.5954
  414MOL0     H55871   4.332   3.265   4.328 -0.8214  2.5263 -1.9371
  414MOL0     H55872   3.932   3.307   4.233  0.9913  0.4133 -1.8074
  414MOL0     H55873   3.688   3.337   4.262 -2.1069 -1.0393 -0.4958
  414MOL0     H55874   2.360   2.021   4.514  2.8555 -1.5542  0.3123
  414MOL0     H55875   2.147   1.929   4.430 -1.7756 -2.0646 -0.7971
  414MOL0     H55876   2.017   1.700   3.977  1.1043 -0.1423  2.7143
  414MOL0     H55877   1.856   1.589   3.835 -1.5156 -3.0971 -0.6091
  414MOL0     H55878   1.466   1.630   3.891  1.3835  0.0597  2.3981
  414MOL0     H55879   1.441   1.514   4.003 -0.3963  3.3752  0.2605
  414MOL0     H55880   1.452   1.468   3.703  3.0053  2.5171  1.2787
  414MOL0     H55881   1.305   1.476   3.812  0.3353  1.1310  0.6621
  414MOL0     H55882   1.390   1.255   3.913 -2.0391 -1.3847 -0.3776
  414MOL0     H55883   1.537   1.250   3.819 -0.8207 -0.2455  2.3880
  414MOL0     H55884   1.433   1.194   3.619 -2.6343 -0.8611 -2.3200
  414MOL0     H55885   1.351   1.099   3.739  2.0152  0.2484  1.7377
  414MOL0     H55886   1.046   1.349   3.618 -2.3738 -4.2610  0.8075
  414MOL0     H55887   1.584   1.578   4.159  0.3547 -1.0487 -1.1461
  414MOL0     H55888   1.746   1.779   4.396 -0.6543  1.3767 -1.3927
  414MOL0     H55889   1.604   1.696   4.346  0.5718 -1.1493 -2.0491
  414MOL0     H55890   1.738   1.603   4.422 -1.2751  0.7132  0.9268
  415MOL0     O55891   3.794   7.606   0.221 -0.3122 -0.5214 -0.8765
  415MOL0     C55892   3.750   7.506   0.160  0.3088 -0.0981  0.4194
  415MOL0     O55893   3.812   7.429   0.071  0.0373  0.2079  0.4087
  415MOL0     C55894   3.943   7.462   0.028  0.2950  0.0963  0.1755
  415MOL0     C55895   4.056   7.370   0.059  0.0145 -0.6958 -0.2235
  415MOL0     C55896   4.181   7.395   0.009 -0.7032 -0.1720  1.1606
  415MOL0     C55897   4.215   7.519  -0.056 -0.1347  0.7581  0.2698
  415MOL0     O55898   4.349   7.535  -0.106  0.6085  0.4041 -0.2981
  415MOL0     C55899   4.444   7.563  -0.007 -0.8886  0.1820 -0.3498
  415MOL0     C55900   4.548   7.443   0.001 -0.2736  0.3212  0.1652
  415MOL0     C55901   4.685   7.487   0.061 -0.4152  0.5435  0.3992
  415MOL0     C55902   4.767   7.565  -0.038 -0.2381  0.3113  0.6865
  415MOL0     C55903   4.880   7.639   0.034  0.6537  0.1493  0.1922
  415MOL0     C55904   4.996   7.645  -0.061 -0.4345 -0.1070  0.2493
  415MOL0     C55905   5.128   7.707  -0.009  0.4805 -0.2948 -0.2386
  415MOL0     C55906   5.226   7.706  -0.118 -0.9955 -0.1001  0.8409
  415MOL0     N55907   5.348   7.777  -0.075 -0.0496 -0.2696  0.2298
  415MOL0     C55908   5.459   7.725  -0.008  0.4732 -0.5269  0.3890
  415MOL0     C55909   5.552   7.815  -0.031 -0.6957  0.3164 -0.3809
  415MOL0     C55910   5.694   7.802   0.017  0.2280  0.0304 -0.7536
  415MOL0     C55911   5.711   7.849   0.165  0.4668 -0.3615  0.8719
  415MOL0     C55912   5.852   7.875   0.203  0.6001 -0.5837  0.5536
  415MOL0     C55913   5.929   7.745   0.222 -0.0255  0.0716 -0.1182
  415MOL0     O55914   6.053   7.795   0.277  0.8318 -0.4528  0.1584
  415MOL0     C55915   6.160   7.831   0.205  0.2033 -0.7806  0.1787
  415MOL0     C55916   6.170   7.835   0.064 -0.8279  1.0670  0.2265
  415MOL0     C55917   6.294   7.849  -0.007 -0.3908 -0.5153  0.2423
  415MOL0     C55918   6.412   7.876   0.070 -0.1773 -0.8103 -0.3963
  415MOL0     C55919   6.528   7.930   0.003 -0.3076  0.4554  0.3441
  415MOL0     O55920   6.627   7.940   0.086  0.4801 -0.3291  0.5512
  415MOL0     C55921   6.730   8.012   0.035 -0.3024 -0.3316  0.2937
  415MOL0     C55922   6.745   8.143   0.057  0.6210  0.6867 -0.1534
  415MOL0     C55923   6.847   8.212  -0.004 -0.2254  0.9592  0.0542
  415MOL0     C55924   6.948   8.152  -0.090  0.0770 -0.6998  0.5075
  415MOL0     O55925   7.052   8.205  -0.163 -0.1660 -0.2928 -0.7207
  415MOL0     C55926   7.074   8.348  -0.148 -0.6691  0.4767  0.4076
  415MOL0     C55927   7.188   8.401  -0.236 -0.8342  0.3542 -0.5042
  415MOL0     C55928   7.173   8.352  -0.380 -0.5115 -0.3352  0.6740
  415MOL0     C55929   7.280   8.422  -0.466 -0.2290  0.0282  0.1048
  415MOL0     C55930   7.266   8.372  -0.617  0.0917 -0.2821 -0.7815
  415MOL0     C55931   7.370   8.426  -0.707 -0.1350 -0.1113  0.4804
  415MOL0     C55932   7.512   8.382  -0.670 -0.8030 -0.1407  0.3591
  415MOL0     C55933   7.610   8.436  -0.773  0.0171 -0.7333 -0.2849
  415MOL0    Cl55934   7.780   8.405  -0.716 -0.5182 -0.1813 -0.1367
  415MOL0     C55935   6.937   8.017  -0.106  0.7592  0.0943  0.8136
  415MOL0     C55936   6.826   7.948  -0.051 -0.3627  0.3679 -0.7214
  415MOL0     O55937   6.527   7.941  -0.123  0.3678  0.2196  0.3101
  415MOL0     C55938   6.404   7.874   0.213 -0.9931 -0.8340  0.6597
  415MOL0     C55939   6.277   7.859   0.274  0.4519 -0.3614 -0.0005
  415MOL0     N55940   5.505   7.918  -0.098 -0.3972 -0.0905 -0.1393
  415MOL0     N55941   5.386   7.886  -0.143  0.5754 -0.0979 -0.7225
  415MOL0     C55942   4.110   7.610  -0.079  0.0483  0.3887 -0.6870
  415MOL0     C55943   3.975   7.578  -0.035 -0.7736 -0.2345 -0.4884
  415MOL0     C55944   3.619   7.441   0.211  0.0838 -0.7458  0.9404
  415MOL0     C55945   3.613   7.300   0.217  0.1049 -0.0523  0.2055
  415MOL0     C55946   3.515   7.229   0.291  0.3913  0.3549 -0.2408
  415MOL0     C55947   3.430   7.302   0.365  0.5408 -0.2461 -0.4699
  415MOL0     O55948   3.348   7.247   0.458 -0.6260 -0.2404  0.1310
  415MOL0     C55949   3.269   7.145   0.388  0.5818  0.2751  0.0325
  415MOL0     C55950   3.140   7.113   0.461  0.3536  0.1679  0.4266
  415MOL0     C55951   3.092   6.981   0.400 -1.2116 -0.5338 -0.2543
  415MOL0     C55952   2.948   6.952   0.441 -0.0173  0.3221  0.3202
  415MOL0     C55953   2.926   6.926   0.584  0.0444  0.9776 -0.5583
  415MOL0     C55954   2.912   6.903   0.700  0.1087  0.5163  1.0801
  415MOL0     C55955   3.426   7.443   0.355  0.1083  0.2156  0.2475
  415MOL0     C55956   3.520   7.514   0.276 -0.1615 -0.4412 -0.5227
  415MOL0     C55957   3.498   7.659   0.262 -0.0128  0.0245  0.0924
  415MOL0     H55958   4.034   7.277   0.111  0.5169 -1.7933 -1.8994
  415MOL0     H55959   4.259   7.321   0.023  0.9589  1.0164 -1.2130
  415MOL0     H55960   4.506   7.652  -0.023 -0.1819  0.2017  1.9986
  415MOL0     H55961   4.395   7.580   0.089 -1.7142 -0.7397 -0.5900
  415MOL0     H55962   4.561   7.405  -0.100 -0.8309 -0.2800  0.3077
  415MOL0     H55963   4.505   7.366   0.066 -1.7262  2.2769  1.6578
  415MOL0     H55964   4.744   7.400   0.090 -1.6841 -0.8051 -0.8586
  415MOL0     H55965   4.669   7.563   0.138  0.3157 -0.0001  1.1044
  415MOL0     H55966   4.815   7.498  -0.110  0.2493 -2.2380  3.1883
  415MOL0     H55967   4.711   7.630  -0.106 -1.1673 -0.6152  0.5305
  415MOL0     H55968   4.848   7.741   0.058 -1.3894  0.1721 -2.3285
  415MOL0     H55969   4.907   7.588   0.127 -0.1994 -0.0045  0.3618
  415MOL0     H55970   5.023   7.543  -0.092 -1.7431 -0.2043 -0.6372
  415MOL0     H55971   4.973   7.702  -0.152 -0.3012  1.0048  0.8949
  415MOL0     H55972   5.162   7.659   0.083 -0.8295 -0.1604  0.3437
  415MOL0     H55973   5.106   7.812   0.013  2.7209 -0.3167  2.5772
  415MOL0     H55974   5.255   7.605  -0.147 -0.3633  0.2476  0.2094
  415MOL0     H55975   5.183   7.748  -0.210 -0.3937 -2.3430 -0.5557
  415MOL0     H55976   5.465   7.642   0.062 -0.7885 -3.2639 -2.4842
  415MOL0     H55977   5.721   7.696   0.013  0.4141  0.0428 -0.0364
  415MOL0     H55978   5.765   7.864  -0.040 -1.0670  0.0734 -2.3878
  415MOL0     H55979   5.642   7.933   0.182 -0.5428 -0.6028 -1.5773
  415MOL0     H55980   5.670   7.770   0.228 -0.3114  1.0086  2.1493
  415MOL0     H55981   5.865   7.932   0.295  1.8202  1.3111 -0.7235
  415MOL0     H55982   5.897   7.931   0.120 -0.4423 -0.4201  0.0827
  415MOL0     H55983   5.947   7.705   0.122  1.6617 -0.7494  0.4688
  415MOL0     H55984   5.881   7.680   0.295 -1.4074  1.3446  0.1493
  415MOL0     H55985   6.096   7.822  -0.015  0.9543  4.9402 -2.3719
  415MOL0     H55986   6.287   7.878  -0.111 -1.2782 -0.2981  0.3575
  415MOL0     H55987   6.667   8.202   0.104 -0.2054  1.1143 -1.9743
  415MOL0     H55988   6.843   8.319   0.012 -3.4457  0.7821  1.0232
  415MOL0     H55989   6.988   8.405  -0.184  0.1018  1.3644 -0.0914
  415MOL0     H55990   7.085   8.377  -0.043  1.2435  0.6110  0.2083
  415MOL0     H55991   7.185   8.510  -0.236  1.7426  0.5249  1.6978
  415MOL0     H55992   7.281   8.373  -0.186 -0.0955 -0.7005 -2.3736
  415MOL0     H55993   7.193   8.245  -0.392  0.4339 -0.1279  0.2666
  415MOL0     H55994   7.075   8.381  -0.419 -0.2776  2.0343  1.6474
  415MOL0     H55995   7.374   8.400  -0.416 -0.9995  0.0361  1.6049
  415MOL0     H55996   7.272   8.530  -0.450 -0.7206  0.0461 -0.2097
  415MOL0     H55997   7.169   8.403  -0.658 -0.1675 -1.5304 -1.1321
  415MOL0     H55998   7.273   8.263  -0.615  1.5380 -0.1975 -0.0315
  415MOL0     H55999   7.345   8.404  -0.811  1.9765  1.2512 -0.3983
  415MOL0     H56000   7.368   8.536  -0.708  0.1520 -0.1118 -0.2091
  415MOL0     H56001   7.529   8.275  -0.656 -2.2463 -0.5979 -0.9758
  415MOL0     H56002   7.543   8.431  -0.578 -3.5086  2.5890 -0.0206
  415MOL0     H56003   7.597   8.401  -0.875 -0.2641  3.7020 -2.0246
  415MOL0     H56004   7.586   8.543  -0.778 -2.5335 -1.3252 -4.1718
  415MOL0     H56005   7.005   7.961  -0.169 -1.0367  1.2146 -2.3420
  415MOL0     H56006   6.820   7.842  -0.071  2.0446 -0.2877  1.5587
  415MOL0     H56007   6.481   7.898   0.286 -1.0832 -1.2112  0.8812
  415MOL0     H56008   6.270   7.859   0.382 -0.4598 -1.5588 -0.0329
  415MOL0     H56009   4.142   7.696  -0.136 -2.2251  0.3165 -2.2362
  415MOL0     H56010   3.899   7.651  -0.060 -0.3721 -0.0362 -1.1340
  415MOL0     H56011   3.686   7.231   0.176  0.5232  0.3391  0.2919
  415MOL0     H56012   3.509   7.121   0.300 -3.1379  0.2351 -2.1382
  415MOL0     H56013   3.320   7.049   0.378 -1.3420 -0.7128 -0.8768
  415MOL0     H56014   3.240   7.183   0.289  0.8144  0.5051  0.0487
  415MOL0     H56015   3.068   7.193   0.440  3.1224  3.0536  1.2975
  415MOL0     H56016   3.163   7.117   0.568 -0.9244 -0.6504  0.7560
  415MOL0     H56017   3.161   6.906   0.441 -0.4987 -0.3313 -1.0572
  415MOL0     H56018   3.112   6.994   0.293  2.4382  0.6865  0.4202
  415MOL0     H56019   2.892   7.041   0.410  1.6051  0.7346 -1.6296
  415MOL0     H56020   2.925   6.861   0.385 -0.2503  1.4324 -1.4568
  415MOL0     H56021   2.899   6.892   0.806  0.5998 -1.9302  0.9351
  415MOL0     H56022   3.341   7.491   0.401  1.9243  3.0774  0.8942
  415MOL0     H56023   3.531   7.697   0.165 -3.0884  1.4254 -0.5330
  415MOL0     H56024   3.389   7.671   0.264  0.2363  3.5964 -1.2093
  415MOL0     H56025   3.545   7.713   0.344  0.3831 -0.8680  0.4605
  416MOL0     O56026   2.740   8.464   8.351  0.1588  0.2488  0.1324
  416MOL0     C56027   2.723   8.379   8.442 -0.1157  0.0998 -0.9061
  416MOL0     O56028   2.611   8.311   8.478  0.0001  0.1107 -0.4464
  416MOL0     C56029   2.488   8.371   8.464  1.0730  0.4727 -0.3291
  416MOL0     C56030   2.463   8.501   8.499 -0.4041 -0.7251  0.2097
  416MOL0     C56031   2.333   8.563   8.492 -0.1274  0.2722 -0.0425
  416MOL0     C56032   2.226   8.487   8.436 -0.5423  0.5380 -0.1178
  416MOL0     O56033   2.098   8.520   8.422  0.0620 -0.5701 -0.5252
  416MOL0     C56034   2.052   8.653   8.463 -0.1866 -0.0817  0.6941
  416MOL0     C56035   1.903   8.647   8.505  0.5014  0.3140 -0.7544
  416MOL0     C56036   1.846   8.785   8.545  0.4140  0.9152 -0.9694
  416MOL0     C56037   1.693   8.787   8.510 -0.8839 -0.2722  0.7206
  416MOL0     C56038   1.634   8.923   8.524 -0.4216  0.4055 -0.2435
  416MOL0     C56039   1.472   8.913   8.503 -0.1750  0.5633  0.4798
  416MOL0     C56040   1.410   9.056   8.492  0.3198  0.2015 -0.3842
  416MOL0     C56041   1.417   9.136   8.615  0.1128  0.2708  0.2351
  416MOL0     N56042   1.345   9.267   8.594 -0.1559  0.0578  0.1425
  416MOL0     C56043   1.407   9.393   8.590  0.2905 -0.3757  0.0259
  416MOL0     C56044   1.299   9.481   8.577 -1.2410  0.2990  0.2738
  416MOL0     C56045   1.326   9.629   8.565  0.1886  0.4772 -0.9295
  416MOL0     C56046   1.468   9.658   8.532 -0.9493 -0.2325 -0.2077
  416MOL0     C56047   1.551   9.678   8.663 -0.7178  0.4193  0.7857
  416MOL0     C56048   1.692   9.723   8.615 -0.5674 -0.3738  0.1971
  416MOL0     O56049   1.789   9.728   8.725 -0.4674 -0.0220  0.2929
  416MOL0     C56050   1.896   9.641   8.728  0.0111 -0.8847  0.0670
  416MOL0     C56051   1.928   9.529   8.644  0.2766  0.3405 -0.1315
  416MOL0     C56052   2.051   9.462   8.662  0.3829  0.5755 -0.1239
  416MOL0     C56053   2.140   9.503   8.764 -0.7284 -0.1205  0.1851
  416MOL0     C56054   2.268   9.431   8.785 -0.2155  0.1746  0.0413
  416MOL0     O56055   2.330   9.460   8.902  0.0108 -0.6206  0.3119
  416MOL0     C56056   2.463   9.425   8.922 -0.6514 -1.0758  0.2023
  416MOL0     C56057   2.564   9.494   8.857 -0.5181 -0.1763  0.1739
  416MOL0     C56058   2.703   9.461   8.873 -0.1984 -0.3863  0.4154
  416MOL0     C56059   2.739   9.361   8.963 -0.2365  0.3572  0.5842
  416MOL0     O56060   2.868   9.326   8.995 -0.0125 -0.0962 -0.4435
  416MOL0     C56061   2.982   9.343   8.911 -0.0011 -0.6852 -0.2566
  416MOL0     C56062   3.101   9.237   8.929  0.5802  0.2473  0.0804
  416MOL0     C56063   3.211   9.240   8.823 -0.3429 -0.2824  0.7605
  416MOL0     C56064   3.163   9.180   8.692 -0.3161  0.1510  0.7685
  416MOL0     C56065   3.291   9.174   8.605 -0.7151 -0.2167  0.1256
  416MOL0     C56066   3.263   9.126   8.461  0.6818  0.3254  0.8856
  416MOL0     C56067   3.371   9.172   8.370 -0.2727  0.1048  0.9979
  416MOL0     C56068   3.416   9.071   8.265 -0.5066 -0.2216  0.7947
  416MOL0    Cl56069   3.533   9.148   8.155 -0.2184 -0.3472  0.0890
  416MOL0     C56070   2.633   9.298   9.028 -0.7222  0.0712  0.8824
  416MOL0     C56071   2.495   9.333   9.011 -1.0143  0.2487 -0.0398
  416MOL0     O56072   2.305   9.357   8.693  0.0364 -1.0689 -0.5561
  416MOL0     C56073   2.101   9.606   8.852 -0.8852 -0.2843  0.4574
  416MOL0     C56074   1.981   9.668   8.831  0.7483  0.3096  0.5486
  416MOL0     N56075   1.180   9.409   8.598 -0.0381  0.7091 -0.5964
  416MOL0     N56076   1.204   9.279   8.601  0.1392 -0.6531  0.0460
  416MOL0     C56077   2.249   8.352   8.405 -0.1347 -0.8967 -0.2022
  416MOL0     C56078   2.376   8.294   8.412 -1.2979  0.6667  0.1500
  416MOL0     C56079   2.855   8.316   8.490  0.6416 -0.7071  0.5092
  416MOL0     C56080   2.859   8.263   8.620  0.0902  0.9921  0.2933
  416MOL0     C56081   2.974   8.199   8.673 -0.7989  0.0860 -0.9152
  416MOL0     C56082   3.095   8.205   8.600  0.3774 -0.8658  0.8050
  416MOL0     O56083   3.203   8.144   8.649 -0.8071 -0.4567  0.0480
  416MOL0     C56084   3.337   8.190   8.608  0.4059 -0.1144 -0.3674
  416MOL0     C56085   3.348   8.334   8.657  0.4475 -0.3775 -0.7343
  416MOL0     C56086   3.498   8.368   8.684 -0.5085 -0.5865  0.7763
  416MOL0     C56087   3.522   8.517   8.735  0.0902  0.6966 -0.6276
  416MOL0     C56088   3.647   8.512   8.814  0.1635 -0.0836  0.3422
  416MOL0     C56089   3.757   8.505   8.866  0.8462  0.7719  0.4417
  416MOL0     C56090   3.091   8.269   8.477 -0.1133 -0.3504  0.1284
  416MOL0     C56091   2.975   8.320   8.417  0.0420  0.0417  1.1820
  416MOL0     C56092   2.990   8.371   8.273 -0.7153 -1.0056 -0.1075
  416MOL0     H56093   2.543   8.561   8.542 -2.4862  1.2159  1.6497
  416MOL0     H56094   2.329   8.665   8.529  1.9254  1.7427 -3.4064
  416MOL0     H56095   2.112   8.705   8.539  1.0622  4.0535 -2.7191
  416MOL0     H56096   2.050   8.724   8.379  0.8868 -1.4937 -0.5992
  416MOL0     H56097   1.901   8.583   8.594 -0.1559  2.5609  0.9388
  416MOL0     H56098   1.836   8.598   8.434 -1.3092  0.0385  1.0474
  416MOL0     H56099   1.889   8.867   8.486  2.5582 -0.9421 -2.1507
  416MOL0     H56100   1.867   8.812   8.649  1.7892 -2.7905 -0.1195
  416MOL0     H56101   1.667   8.750   8.410  1.1962  2.2454 -0.9169
  416MOL0     H56102   1.648   8.720   8.583  0.6848 -1.3741  0.7286
  416MOL0     H56103   1.665   8.961   8.622 -1.4560 -0.7567  0.5691
  416MOL0     H56104   1.687   8.992   8.458  1.7367 -1.3326 -0.4346
  416MOL0     H56105   1.448   8.841   8.424  3.1029 -2.0586  1.6476
  416MOL0     H56106   1.439   8.859   8.592  2.5454 -1.2184  0.5382
  416MOL0     H56107   1.303   9.042   8.473  0.7729  0.1618 -3.2361
  416MOL0     H56108   1.449   9.107   8.404 -0.6968  0.9678 -0.4212
  416MOL0     H56109   1.385   9.083   8.705  3.4713 -1.3879  0.5957
  416MOL0     H56110   1.524   9.157   8.617  0.3550 -0.9134  0.9091
  416MOL0     H56111   1.511   9.420   8.574  0.8163 -1.1611  1.8897
  416MOL0     H56112   1.263   9.671   8.487 -3.3316 -2.2468  0.1778
  416MOL0     H56113   1.281   9.666   8.658  0.2233 -0.6499 -0.4391
  416MOL0     H56114   1.504   9.581   8.464 -0.8682 -0.8389  0.5130
  416MOL0     H56115   1.479   9.758   8.489 -0.2521  0.2620  1.0621
  416MOL0     H56116   1.560   9.580   8.711  2.0316 -0.1467 -0.6872
  416MOL0     H56117   1.502   9.747   8.732  0.9429  0.3711  2.0775
  416MOL0     H56118   1.687   9.830   8.593  0.1264 -0.3481  0.1591
  416MOL0     H56119   1.729   9.670   8.526  2.2055  1.7629 -0.0486
  416MOL0     H56120   1.850   9.510   8.571  1.6827  1.7991 -2.1348
  416MOL0     H56121   2.077   9.381   8.595 -0.5670 -1.0240  1.3699
  416MOL0     H56122   2.536   9.573   8.788 -2.9048  0.4248  1.7405
  416MOL0     H56123   2.772   9.509   8.804 -0.5205 -0.5065  0.0090
  416MOL0     H56124   2.962   9.323   8.806 -1.6081 -1.2375  0.1238
  416MOL0     H56125   3.026   9.443   8.924  0.0721 -0.2377 -3.2972
  416MOL0     H56126   3.143   9.250   9.029 -0.0960 -1.0219  0.5487
  416MOL0     H56127   3.053   9.139   8.928  0.3735  0.3215 -2.2588
  416MOL0     H56128   3.251   9.341   8.814  0.2577 -0.4906  1.0202
  416MOL0     H56129   3.296   9.177   8.852 -1.0041 -0.9959  1.1931
  416MOL0     H56130   3.097   9.248   8.638  2.6651  3.2546  0.6408
  416MOL0     H56131   3.117   9.083   8.713  0.2836 -0.2768  0.1649
  416MOL0     H56132   3.369   9.108   8.644  1.9376  1.8918 -1.2040
  416MOL0     H56133   3.337   9.274   8.606 -2.8349  0.8113  0.8108
  416MOL0     H56134   3.262   9.017   8.456 -1.5555  0.3705 -2.1092
  416MOL0     H56135   3.167   9.163   8.426  0.6412  1.2169  1.8871
  416MOL0     H56136   3.457   9.190   8.435 -0.7467  5.2532  0.5903
  416MOL0     H56137   3.347   9.261   8.311  1.4109  0.4657  0.8014
  416MOL0     H56138   3.475   8.992   8.312  0.4251  0.4297  0.7472
  416MOL0     H56139   3.326   9.039   8.211 -0.2932 -1.0445  0.9170
  416MOL0     H56140   2.669   9.233   9.106  0.6392 -1.0906 -0.6498
  416MOL0     H56141   2.417   9.276   9.060 -1.7035  0.1912 -1.1700
  416MOL0     H56142   2.156   9.640   8.939 -0.8818  1.0858 -0.0525
  416MOL0     H56143   1.937   9.743   8.896  1.2014  0.7725  0.3253
  416MOL0     H56144   2.175   8.286   8.362 -0.6273  0.3012 -1.2554
  416MOL0     H56145   2.377   8.190   8.382 -2.6493  0.8605 -0.6659
  416MOL0     H56146   2.766   8.278   8.675 -0.7738  1.0455 -1.1244
  416MOL0     H56147   2.983   8.161   8.774 -1.8856  2.7005  0.2685
  416MOL0     H56148   3.354   8.186   8.500  0.9706 -1.6975 -0.2398
  416MOL0     H56149   3.412   8.125   8.653  0.7721  1.4278  1.4060
  416MOL0     H56150   3.298   8.351   8.753  1.4087 -0.1794 -0.2558
  416MOL0     H56151   3.297   8.403   8.589 -1.0135  0.3573  1.0264
  416MOL0     H56152   3.558   8.351   8.594  2.1925 -1.9934  2.7023
  416MOL0     H56153   3.527   8.283   8.746 -1.2942 -2.3052 -1.0919
  416MOL0     H56154   3.536   8.590   8.655 -1.1079  1.9073  0.2380
  416MOL0     H56155   3.437   8.543   8.799 -0.7634 -4.3440  0.7228
  416MOL0     H56156   3.845   8.474   8.919 -1.3323  0.3058  4.1544
  416MOL0     H56157   3.175   8.261   8.408 -0.4254 -1.3876 -0.1463
  416MOL0     H56158   2.977   8.479   8.282  0.9793 -0.9058  1.7037
  416MOL0     H56159   3.089   8.342   8.237  0.9385  0.1755  3.0678
  416MOL0     H56160   2.904   8.337   8.214 -0.9530 -2.2435  0.9191
  417MOL0     O56161   4.504   1.363   2.538 -0.3490 -0.6170  0.2596
  417MOL0     C56162   4.532   1.313   2.646  0.2395 -1.2357  0.0039
  417MOL0     O56163   4.648   1.326   2.721  0.1555  0.4817 -0.6290
  417MOL0     C56164   4.772   1.343   2.656 -0.0385  0.4896 -0.8518
  417MOL0     C56165   4.810   1.254   2.545  0.6164 -1.0016  0.2038
  417MOL0     C56166   4.935   1.264   2.481 -0.2037  0.7494 -0.1585
  417MOL0     C56167   5.031   1.350   2.528  0.3211 -0.4779 -0.1248
  417MOL0     O56168   5.147   1.347   2.458  0.1871 -0.1035 -0.3881
  417MOL0     C56169   5.247   1.439   2.518 -0.6147  0.2730 -0.8035
  417MOL0     C56170   5.382   1.382   2.464  0.6248  0.9751  0.8663
  417MOL0     C56171   5.425   1.420   2.321  0.0379  0.0022  0.2350
  417MOL0     C56172   5.513   1.538   2.306 -0.1364  0.1557 -0.0310
  417MOL0     C56173   5.561   1.549   2.157 -1.0131  0.9677 -0.6710
  417MOL0     C56174   5.669   1.655   2.137 -0.6089 -0.1212 -0.9659
  417MOL0     C56175   5.709   1.676   1.987  0.9116 -0.1698  0.3136
  417MOL0     C56176   5.822   1.773   1.969  0.1291  0.5793 -0.4608
  417MOL0     N56177   5.952   1.721   2.014 -0.4246 -0.1564  0.6876
  417MOL0     C56178   6.019   1.609   1.962 -0.2260  0.3984 -0.3475
  417MOL0     C56179   6.132   1.605   2.026  0.1182  0.5722  0.1679
  417MOL0     C56180   6.231   1.494   1.987 -0.7251  0.8071  0.0920
  417MOL0     C56181   6.376   1.521   2.046 -0.3195  0.0848 -1.3854
  417MOL0     C56182   6.449   1.638   1.991  0.2242 -0.5859  1.1778
  417MOL0     C56183   6.603   1.631   1.989  0.4618 -0.1443 -0.0904
  417MOL0     O56184   6.642   1.516   1.921 -0.4906 -0.3100  0.1077
  417MOL0     C56185   6.774   1.474   1.933  0.5826 -1.0439 -0.4910
  417MOL0     C56186   6.815   1.380   1.839 -1.1994 -0.1544 -1.3642
  417MOL0     C56187   6.953   1.347   1.834  0.7429 -0.0289 -0.0433
  417MOL0     C56188   7.047   1.403   1.920 -0.0345  0.3371  0.5285
  417MOL0     C56189   7.186   1.360   1.929  0.1012 -0.9168  0.6468
  417MOL0     O56190   7.221   1.248   1.861  0.0409 -0.4183 -0.1577
  417MOL0     C56191   7.349   1.206   1.863 -0.1250  0.6092 -0.4809
  417MOL0     C56192   7.444   1.273   1.783  0.1952  0.2658  0.2424
  417MOL0     C56193   7.571   1.245   1.785 -0.6797  0.0043 -0.3963
  417MOL0     C56194   7.624   1.131   1.859  0.2727 -0.1800 -0.6362
  417MOL0     O56195   7.757   1.104   1.846  0.2614  0.3488  0.4488
  417MOL0     C56196   7.777   0.966   1.806 -0.1103 -0.1716  0.6890
  417MOL0     C56197   7.902   0.959   1.709 -0.3792 -0.6497 -0.5309
  417MOL0     C56198   7.871   0.989   1.567  0.5895 -0.0448  0.7908
  417MOL0     C56199   7.849   1.140   1.535 -0.5348  0.4132  0.1709
  417MOL0     C56200   7.813   1.171   1.389 -0.6450  0.5745 -0.4680
  417MOL0     C56201   7.657   1.156   1.354 -0.6959  0.3485 -0.7267
  417MOL0     C56202   7.619   1.199   1.213 -0.0896  0.1467 -0.0784
  417MOL0     C56203   7.469   1.189   1.192  0.1905  0.0931  0.4058
  417MOL0    Cl56204   7.423   1.017   1.200 -0.4500  0.1340  0.0423
  417MOL0     C56205   7.531   1.055   1.936 -0.5428 -0.5639  0.3887
  417MOL0     C56206   7.397   1.102   1.939  0.0445  1.0027 -1.5400
  417MOL0     O56207   7.259   1.430   2.000  0.0100 -0.3798  0.6945
  417MOL0     C56208   7.001   1.497   2.009  0.0984 -0.0999  0.0957
  417MOL0     C56209   6.866   1.542   2.012 -0.3547  0.5404 -0.2599
  417MOL0     N56210   6.136   1.707   2.132 -0.5004  0.0888  0.6675
  417MOL0     N56211   6.023   1.774   2.120  0.6197  0.1197  1.0631
  417MOL0     C56212   4.998   1.433   2.641 -0.3415 -0.2648  0.3389
  417MOL0     C56213   4.870   1.431   2.695  0.6197 -0.1780  0.4665
  417MOL0     C56214   4.423   1.246   2.707 -0.4598  0.1165 -0.7754
  417MOL0     C56215   4.402   1.279   2.841 -0.0074 -0.4309  0.6324
  417MOL0     C56216   4.292   1.220   2.918 -0.1562  0.1198 -0.0905
  417MOL0     C56217   4.215   1.121   2.858 -0.5288 -0.3973  0.6153
  417MOL0     O56218   4.110   1.057   2.924  0.4160 -0.6547  0.0825
  417MOL0     C56219   3.987   1.068   2.864  0.0755  1.0122  0.2396
  417MOL0     C56220   3.889   0.993   2.961 -0.0613 -0.8869  0.3146
  417MOL0     C56221   3.756   0.998   2.898  0.1465 -0.0637 -0.2187
  417MOL0     C56222   3.653   0.933   3.000 -0.1826 -0.5045  0.7764
  417MOL0     C56223   3.629   1.025   3.111 -0.4908  0.4593  0.0103
  417MOL0     C56224   3.615   1.084   3.214  0.4256  0.1599 -0.6518
  417MOL0     C56225   4.245   1.079   2.729 -0.6727  0.5810 -0.1853
  417MOL0     C56226   4.356   1.135   2.660 -0.1862 -0.1202 -0.5169
  417MOL0     C56227   4.374   1.073   2.532  0.4882  0.1193  0.5700
  417MOL0     H56228   4.732   1.188   2.508  1.1078 -2.0957  1.0446
  417MOL0     H56229   4.948   1.200   2.394  0.4447  2.7510 -1.6114
  417MOL0     H56230   5.230   1.547   2.508  0.9404  0.9592  2.5495
  417MOL0     H56231   5.248   1.423   2.627  1.3929 -0.4684 -0.8901
  417MOL0     H56232   5.372   1.273   2.464  2.1297  0.8072 -0.3875
  417MOL0     H56233   5.465   1.407   2.531  2.0736  0.2710 -0.5971
  417MOL0     H56234   5.336   1.433   2.259 -0.8905  2.3055  1.8924
  417MOL0     H56235   5.476   1.335   2.274  0.5261 -0.0394  0.8163
  417MOL0     H56236   5.464   1.633   2.328  1.6874  1.8673 -2.8098
  417MOL0     H56237   5.604   1.518   2.363  0.8291 -3.8819 -2.5219
  417MOL0     H56238   5.606   1.452   2.136 -1.1446  0.1431  2.3734
  417MOL0     H56239   5.486   1.561   2.078 -1.0032 -1.2679 -1.0661
  417MOL0     H56240   5.627   1.749   2.171 -1.0667 -0.4002 -0.7501
  417MOL0     H56241   5.759   1.619   2.188 -1.4081 -0.6780  0.0936
  417MOL0     H56242   5.622   1.717   1.935 -0.0647 -1.6892  0.7164
  417MOL0     H56243   5.736   1.582   1.939 -0.1477 -1.5389  2.2719
  417MOL0     H56244   5.838   1.791   1.863  3.1681 -0.8230 -0.3255
  417MOL0     H56245   5.808   1.865   2.027 -0.5183 -0.2714  0.8037
  417MOL0     H56246   5.998   1.550   1.873  0.8397 -3.9583  2.0110
  417MOL0     H56247   6.199   1.394   2.017  1.6918 -0.0079  0.1836
  417MOL0     H56248   6.236   1.480   1.879 -0.9379 -4.9484  0.5452
  417MOL0     H56249   6.373   1.519   2.155  1.7887 -2.0686 -1.2886
  417MOL0     H56250   6.433   1.429   2.029  2.0890  1.4942 -1.5122
  417MOL0     H56251   6.420   1.733   2.038 -0.9563  0.5821 -1.6542
  417MOL0     H56252   6.408   1.653   1.890 -2.5646  3.2613  2.6410
  417MOL0     H56253   6.633   1.640   2.094 -0.0856  1.5612 -0.0420
  417MOL0     H56254   6.647   1.715   1.935  0.8869  0.5570  1.3048
  417MOL0     H56255   6.744   1.329   1.774 -2.0187 -2.3548  1.1202
  417MOL0     H56256   6.982   1.276   1.757 -1.4985 -0.6439 -0.3749
  417MOL0     H56257   7.414   1.362   1.729 -0.1419  0.7752  1.2629
  417MOL0     H56258   7.638   1.306   1.726 -1.5829 -0.7896 -2.3237
  417MOL0     H56259   7.790   0.901   1.893  2.7351 -0.2783  0.3066
  417MOL0     H56260   7.693   0.923   1.750  1.4686  0.4475 -2.4241
  417MOL0     H56261   7.984   1.024   1.741 -0.9373 -1.0738  1.9705
  417MOL0     H56262   7.936   0.856   1.722  3.8700  0.7647  0.9154
  417MOL0     H56263   7.952   0.954   1.501  0.6498  1.2417  0.1424
  417MOL0     H56264   7.782   0.934   1.535  2.3837 -3.4458  1.2186
  417MOL0     H56265   7.944   1.184   1.567 -0.0395  0.3543 -1.1789
  417MOL0     H56266   7.766   1.171   1.600 -0.1448 -0.1072  0.9469
  417MOL0     H56267   7.867   1.098   1.329 -0.9441  1.0206 -1.2942
  417MOL0     H56268   7.848   1.274   1.379 -2.6491  1.5331  1.4130
  417MOL0     H56269   7.623   1.053   1.364  1.6367 -0.7663 -3.0976
  417MOL0     H56270   7.607   1.217   1.430  1.5475  0.2705  0.9023
  417MOL0     H56271   7.668   1.150   1.129 -0.3620  1.8990 -1.3098
  417MOL0     H56272   7.651   1.301   1.190  1.2746  0.2199  1.9150
  417MOL0     H56273   7.416   1.241   1.273  0.6836 -0.2024  0.9216
  417MOL0     H56274   7.448   1.233   1.093  1.8810 -1.3757 -0.6664
  417MOL0     H56275   7.562   0.977   2.004  2.7687  2.0391  2.1557
  417MOL0     H56276   7.323   1.056   2.003  0.3538  4.0926  1.2576
  417MOL0     H56277   7.060   1.528   2.094 -4.0076 -0.6516  3.4624
  417MOL0     H56278   6.844   1.618   2.087 -2.0151  0.7029 -0.8872
  417MOL0     H56279   5.066   1.501   2.691 -1.5413  0.2436  1.3309
  417MOL0     H56280   4.855   1.490   2.785  1.5354  0.2585  0.3490
  417MOL0     H56281   4.462   1.361   2.880 -0.2643  0.7004 -1.2180
  417MOL0     H56282   4.270   1.246   3.021  1.6491 -2.7610  1.1706
  417MOL0     H56283   3.975   1.020   2.767  1.1901 -3.2405  1.9411
  417MOL0     H56284   3.945   1.167   2.845  2.4621  1.6196 -2.8069
  417MOL0     H56285   3.886   1.046   3.057 -3.7116  1.0894 -0.6994
  417MOL0     H56286   3.913   0.890   2.988  2.5267  0.0942  2.1815
  417MOL0     H56287   3.759   0.940   2.805  2.0615 -2.5957  1.2741
  417MOL0     H56288   3.717   1.096   2.871 -0.3542 -0.6529 -1.7215
  417MOL0     H56289   3.558   0.905   2.954 -1.1458  0.9575  1.7870
  417MOL0     H56290   3.697   0.838   3.033 -0.6989 -0.9963  0.0629
  417MOL0     H56291   3.599   1.142   3.303  2.1460 -0.9164  0.4275
  417MOL0     H56292   4.174   1.006   2.691 -0.4671  0.8125 -1.0499
  417MOL0     H56293   4.472   1.093   2.487  0.0599 -1.8267 -1.4281
  417MOL0     H56294   4.364   0.965   2.545  0.0375 -0.1933 -1.7935
  417MOL0     H56295   4.294   1.108   2.465 -1.5023 -0.9398  2.2809
  418MOL0     O56296   0.571   4.540   8.492 -0.6278 -0.0866 -0.2149
  418MOL0     C56297   0.590   4.452   8.583 -0.0682 -0.1549  0.7178
  418MOL0     O56298   0.717   4.427   8.634 -0.6977  0.0690  0.1804
  418MOL0     C56299   0.826   4.477   8.560  0.4636  0.2656 -0.1190
  418MOL0     C56300   0.912   4.565   8.618 -0.4782  0.3563  0.1583
  418MOL0     C56301   1.025   4.612   8.552  0.5248  0.5088 -0.1457
  418MOL0     C56302   1.050   4.572   8.419  1.1411  0.0691 -0.6986
  418MOL0     O56303   1.156   4.630   8.341 -0.8878  0.4874  0.3720
  418MOL0     C56304   1.286   4.661   8.401 -0.4732 -0.1666  0.5011
  418MOL0     C56305   1.396   4.621   8.288  0.1577 -0.0161 -0.0839
  418MOL0     C56306   1.533   4.636   8.342 -1.1303 -0.2995 -0.1337
  418MOL0     C56307   1.580   4.779   8.362 -0.8814 -0.0240 -0.6990
  418MOL0     C56308   1.688   4.798   8.468  0.2039  0.9897  0.0779
  418MOL0     C56309   1.799   4.694   8.442  0.4063 -0.5438 -0.2220
  418MOL0     C56310   1.919   4.724   8.539 -0.6893  0.5933  0.4328
  418MOL0     C56311   2.031   4.625   8.535 -0.9060 -0.1702  0.3327
  418MOL0     N56312   2.062   4.563   8.662  0.7910 -0.2532 -0.6966
  418MOL0     C56313   2.160   4.599   8.757  0.0442  1.5137 -1.1681
  418MOL0     C56314   2.172   4.493   8.850  0.1686 -1.1565 -1.2450
  418MOL0     C56315   2.268   4.485   8.969  0.0948 -0.2141  0.2766
  418MOL0     C56316   2.412   4.517   8.924  0.2186 -0.4739  0.1040
  418MOL0     C56317   2.452   4.667   8.932 -0.2767  0.6602 -0.2623
  418MOL0     C56318   2.610   4.664   8.918  0.1592  0.2207 -0.2489
  418MOL0     O56319   2.661   4.791   8.891 -0.3936 -1.3201 -0.6856
  418MOL0     C56320   2.794   4.795   8.855 -0.1942  0.5989 -0.9910
  418MOL0     C56321   2.838   4.930   8.813 -0.7218 -0.0449  0.1013
  418MOL0     C56322   2.971   4.952   8.789  0.1108  0.2716  0.4525
  418MOL0     C56323   3.061   4.844   8.795 -0.0311  0.0847  0.6115
  418MOL0     C56324   3.195   4.872   8.745  0.1236  0.4378  0.3590
  418MOL0     O56325   3.271   4.763   8.705  0.0741 -0.7617  0.1920
  418MOL0     C56326   3.404   4.793   8.683  0.0938  0.3427 -0.5299
  418MOL0     C56327   3.487   4.839   8.783  0.1951 -0.4592  0.0207
  418MOL0     C56328   3.620   4.856   8.766 -0.0840 -0.2415  0.3894
  418MOL0     C56329   3.683   4.819   8.649 -0.7505 -0.1634 -0.6468
  418MOL0     O56330   3.818   4.826   8.634  0.9191 -0.7859  0.1499
  418MOL0     C56331   3.907   4.831   8.745  0.7603  0.1121 -0.2940
  418MOL0     C56332   4.054   4.849   8.695  0.3603  0.0022  0.1794
  418MOL0     C56333   4.154   4.821   8.812  0.8648 -0.0234 -0.1382
  418MOL0     C56334   4.290   4.881   8.765  0.5583 -0.3300  0.0912
  418MOL0     C56335   4.410   4.842   8.855  0.3916 -0.6193  0.4808
  418MOL0     C56336   4.537   4.874   8.782 -0.4742 -0.7112 -0.4714
  418MOL0     C56337   4.662   4.852   8.874 -0.2753  0.4436 -0.3220
  418MOL0     C56338   4.696   4.716   8.926 -0.8031  0.0815 -0.3694
  418MOL0    Cl56339   4.747   4.629   8.785 -0.3507  0.0503 -0.3105
  418MOL0     C56340   3.603   4.776   8.547  0.2730  0.8555 -0.1391
  418MOL0     C56341   3.467   4.754   8.562  0.5291  0.4265 -0.2724
  418MOL0     O56342   3.233   4.987   8.740  0.1803 -0.5329  0.0090
  418MOL0     C56343   3.021   4.717   8.835 -0.0665 -0.3000  0.3638
  418MOL0     C56344   2.889   4.687   8.873 -0.7617  0.8000 -0.2813
  418MOL0     N56345   2.079   4.403   8.817  0.0773  0.9391 -0.8887
  418MOL0     N56346   2.016   4.443   8.704 -0.3014  0.2612  0.0911
  418MOL0     C56347   0.955   4.489   8.359  0.1464 -0.2821 -0.1610
  418MOL0     C56348   0.844   4.444   8.424 -0.2650  0.5051 -0.3269
  418MOL0     C56349   0.479   4.370   8.640  0.5814 -1.1866 -0.6370
  418MOL0     C56350   0.515   4.252   8.703  0.3976 -0.4518 -0.9709
  418MOL0     C56351   0.423   4.169   8.769  0.0462 -0.1481  0.0741
  418MOL0     C56352   0.289   4.197   8.743  0.2932 -0.2322  0.4243
  418MOL0     O56353   0.189   4.121   8.788  0.1410  0.6217 -0.4533
  418MOL0     C56354   0.185   3.988   8.738 -0.2140  0.1199 -0.0357
  418MOL0     C56355   0.044   3.940   8.760  0.1907  0.0762  0.5149
  418MOL0     C56356  -0.060   4.031   8.685  0.0610  0.4234 -0.2733
  418MOL0     C56357  -0.198   3.981   8.693  0.4220  0.4975  0.2912
  418MOL0     C56358  -0.217   3.862   8.617 -1.3814 -0.0657 -0.0640
  418MOL0     C56359  -0.245   3.761   8.556  0.3780  0.7588 -0.0468
  418MOL0     C56360   0.247   4.318   8.676  0.2682  1.0574 -0.2523
  418MOL0     C56361   0.338   4.412   8.637 -0.6901 -0.3058  0.7491
  418MOL0     C56362   0.288   4.545   8.574  0.4845  0.3232  0.4837
  418MOL0     H56363   0.882   4.588   8.720  0.7471 -1.2191  0.9152
  418MOL0     H56364   1.089   4.680   8.608  4.0250 -1.8700 -0.8680
  418MOL0     H56365   1.289   4.766   8.430  2.3225 -0.3317  1.1056
  418MOL0     H56366   1.308   4.600   8.489 -2.8661  0.8497  1.8953
  418MOL0     H56367   1.380   4.689   8.204  0.2010  1.0099  0.7160
  418MOL0     H56368   1.382   4.521   8.246 -1.5258  1.5654 -3.7013
  418MOL0     H56369   1.611   4.598   8.275 -0.6129  2.2272 -1.0608
  418MOL0     H56370   1.532   4.581   8.436 -0.6562  0.6168  0.4102
  418MOL0     H56371   1.615   4.820   8.266  1.0457 -0.4429 -0.2075
  418MOL0     H56372   1.492   4.841   8.382 -1.2173  0.1414 -2.4484
  418MOL0     H56373   1.727   4.900   8.473  1.8732  0.4946 -1.6285
  418MOL0     H56374   1.645   4.772   8.565 -0.6285 -1.3209 -0.8382
  418MOL0     H56375   1.761   4.592   8.456 -2.0762  0.2778 -0.5494
  418MOL0     H56376   1.837   4.692   8.339 -0.5872  1.1774 -0.6594
  418MOL0     H56377   1.894   4.738   8.645 -0.1702 -1.7379  0.9002
  418MOL0     H56378   1.964   4.820   8.510 -1.1551 -0.3513 -4.2027
  418MOL0     H56379   2.003   4.542   8.470  2.2465 -1.9247  1.0461
  418MOL0     H56380   2.119   4.666   8.486  0.9138 -2.0069  1.8993
  418MOL0     H56381   2.224   4.685   8.767  2.1226  0.2061 -2.5271
  418MOL0     H56382   2.238   4.548   9.054 -1.0775 -1.9492  1.2150
  418MOL0     H56383   2.275   4.380   8.998  3.1670 -0.9290 -2.4428
  418MOL0     H56384   2.487   4.469   8.988  0.2025  1.7757  1.9531
  418MOL0     H56385   2.426   4.483   8.821 -2.1162 -0.9243 -0.1192
  418MOL0     H56386   2.428   4.712   9.028 -0.2453  1.9484 -0.8434
  418MOL0     H56387   2.402   4.722   8.851 -1.5439 -0.0631 -0.0049
  418MOL0     H56388   2.647   4.592   8.845  0.6757 -0.5668  0.7515
  418MOL0     H56389   2.651   4.630   9.014  0.9125 -1.3367 -1.0996
  418MOL0     H56390   2.769   5.013   8.824 -1.0688 -0.4844  1.4636
  418MOL0     H56391   3.008   5.053   8.774  2.6472 -0.6428  0.2087
  418MOL0     H56392   3.450   4.868   8.881 -0.7549 -1.2704 -0.0750
  418MOL0     H56393   3.665   4.892   8.858 -1.3912  0.4947  0.7727
  418MOL0     H56394   3.869   4.914   8.804 -1.5481 -1.1638  0.1296
  418MOL0     H56395   3.899   4.735   8.797  2.2283 -0.6785 -1.4500
  418MOL0     H56396   4.065   4.780   8.611  0.7057 -0.6646  0.7534
  418MOL0     H56397   4.063   4.951   8.660 -0.6673 -0.4305 -1.4392
  418MOL0     H56398   4.120   4.863   8.906  3.9181  0.0822  1.0422
  418MOL0     H56399   4.162   4.712   8.816 -2.6647 -0.3514  1.5250
  418MOL0     H56400   4.290   4.990   8.775  2.5217 -0.1051 -1.5577
  418MOL0     H56401   4.311   4.846   8.664  0.0776  0.8239 -0.4171
  418MOL0     H56402   4.397   4.734   8.873 -1.5768 -0.5972 -0.5376
  418MOL0     H56403   4.411   4.895   8.951  0.3672  2.2351 -1.0005
  418MOL0     H56404   4.540   4.797   8.704  0.5916 -0.6442 -0.5043
  418MOL0     H56405   4.531   4.975   8.743 -1.5460 -0.6793 -0.2504
  418MOL0     H56406   4.656   4.918   8.961  0.4629 -0.7533  0.6745
  418MOL0     H56407   4.742   4.896   8.814  0.0060  2.1638  1.2382
  418MOL0     H56408   4.776   4.706   9.001 -0.7338 -2.5235 -0.6946
  418MOL0     H56409   4.607   4.678   8.978  1.2302 -1.0981  2.5465
  418MOL0     H56410   3.645   4.762   8.448  0.2680 -0.4405  0.0252
  418MOL0     H56411   3.408   4.710   8.482 -0.3990 -1.8742  1.5444
  418MOL0     H56412   3.079   4.626   8.817  0.3191  0.1729 -0.9304
  418MOL0     H56413   2.864   4.588   8.909  0.2190  0.8223  0.4982
  418MOL0     H56414   0.966   4.468   8.254 -0.2195 -0.6232 -0.1345
  418MOL0     H56415   0.769   4.378   8.382 -0.2409  0.0297  0.3582
  418MOL0     H56416   0.622   4.231   8.703  0.1513 -1.9042  0.0257
  418MOL0     H56417   0.458   4.083   8.825 -2.6569 -2.4258 -1.4749
  418MOL0     H56418   0.257   3.923   8.790  0.9035  1.4260  0.0886
  418MOL0     H56419   0.225   3.990   8.636 -0.4228  2.9261 -0.1267
  418MOL0     H56420   0.016   3.935   8.866 -0.4952 -1.3090  0.2968
  418MOL0     H56421   0.030   3.838   8.723  3.8702 -0.1388 -0.6393
  418MOL0     H56422  -0.033   4.067   8.585 -0.5559 -0.7430 -0.8763
  418MOL0     H56423  -0.076   4.125   8.739  0.7703  1.1268 -1.2630
  418MOL0     H56424  -0.243   3.960   8.790 -0.2682 -0.1839 -0.1589
  418MOL0     H56425  -0.266   4.060   8.658 -1.7710 -0.6849  1.6522
  418MOL0     H56426  -0.274   3.667   8.513  1.5981  0.3076  0.0774
  418MOL0     H56427   0.139   4.328   8.672  0.4475  5.8265  0.1322
  418MOL0     H56428   0.181   4.552   8.595  0.5293 -1.0157  1.3239
  418MOL0     H56429   0.335   4.629   8.626 -0.9096  1.1524  0.4319
  418MOL0     H56430   0.303   4.543   8.466 -0.8761  1.1136  0.2609
  419MOL0     O56431   9.221   3.370   0.693  0.3598  0.4898 -0.2032
  419MOL0     C56432   9.167   3.289   0.622 -0.4914  0.2065  0.8929
  419MOL0     O56433   9.228   3.235   0.516 -0.4808 -0.4328 -0.1989
  419MOL0     C56434   9.353   3.278   0.467  0.1302 -0.6655 -0.4998
  419MOL0     C56435   9.438   3.178   0.407 -0.0187 -0.2548 -0.2313
  419MOL0     C56436   9.560   3.206   0.343  0.5097  0.2921 -0.2060
  419MOL0     C56437   9.600   3.334   0.337 -0.5349 -0.1352 -1.3225
  419MOL0     O56438   9.717   3.349   0.268 -0.2773 -0.1341  0.2673
  419MOL0     C56439   9.780   3.483   0.257  0.5875  0.0753  0.7124
  419MOL0     C56440   9.898   3.456   0.173  0.6578  0.1260 -0.2423
  419MOL0     C56441  10.000   3.370   0.255  0.5910 -0.7893 -0.4129
  419MOL0     C56442  10.137   3.335   0.176  0.0669  0.6474  0.5644
  419MOL0     C56443  10.243   3.290   0.274  0.1451 -0.5639 -0.0598
  419MOL0     C56444  10.363   3.233   0.217 -0.6047  0.5124 -0.9893
  419MOL0     C56445  10.477   3.220   0.320 -0.5206 -0.3714 -0.4966
  419MOL0     C56446  10.601   3.182   0.249  0.4706 -0.1783 -0.7804
  419MOL0     N56447  10.687   3.125   0.355 -0.6928 -0.2599  0.0600
  419MOL0     C56448  10.808   3.177   0.387 -0.3462 -0.7437  0.1762
  419MOL0     C56449  10.862   3.088   0.465  0.0298 -0.5250  0.3925
  419MOL0     C56450  10.981   3.108   0.547 -0.0783  1.5914  0.0385
  419MOL0     C56451  11.114   3.127   0.461  0.4124  0.8818 -0.8971
  419MOL0     C56452  11.154   2.999   0.391  0.1100 -0.1211  0.3910
  419MOL0     C56453  11.295   2.993   0.373 -1.0490  0.3861  0.7472
  419MOL0     O56454  11.325   3.098   0.287  0.6123 -0.8278 -0.2589
  419MOL0     C56455  11.448   3.126   0.242 -0.5616  0.8310  0.2070
  419MOL0     C56456  11.469   3.236   0.164 -0.4622 -0.5121  0.2035
  419MOL0     C56457  11.589   3.274   0.116  0.3383 -0.5138  0.6541
  419MOL0     C56458  11.707   3.190   0.144 -0.3623  0.3027  0.0168
  419MOL0     C56459  11.837   3.232   0.101 -0.7471 -0.3054 -0.7145
  419MOL0     O56460  11.945   3.148   0.142 -0.0328 -0.2028 -0.7685
  419MOL0     C56461  12.065   3.148   0.074  0.3940  0.7277  0.3080
  419MOL0     C56462  12.189   3.173   0.134  0.5727 -0.0318 -0.2601
  419MOL0     C56463  12.310   3.163   0.066  1.1085 -0.1406  0.3777
  419MOL0     C56464  12.304   3.122  -0.066  0.1390  1.5584  0.9498
  419MOL0     O56465  12.421   3.096  -0.133 -0.1642  0.0090  0.0958
  419MOL0     C56466  12.422   3.065  -0.279 -0.1446 -0.5278 -0.0440
  419MOL0     C56467  12.559   3.024  -0.335 -0.2265 -0.1971  0.0468
  419MOL0     C56468  12.674   3.104  -0.278  0.1501  0.6434  0.0335
  419MOL0     C56469  12.802   3.078  -0.363  0.6607 -0.4584 -0.0344
  419MOL0     C56470  12.872   3.203  -0.419  1.0793 -0.3770 -0.1932
  419MOL0     C56471  12.983   3.246  -0.335 -0.0817  0.3876 -1.2605
  419MOL0     C56472  13.058   3.370  -0.383  0.0035  0.6165 -0.3940
  419MOL0     C56473  13.115   3.444  -0.264 -1.0408 -0.2594  0.7850
  419MOL0    Cl56474  13.234   3.338  -0.174 -0.2929  0.1282 -0.3130
  419MOL0     C56475  12.183   3.106  -0.133 -0.4221  0.4711  0.6312
  419MOL0     C56476  12.071   3.115  -0.063  0.0528  0.0930 -0.5020
  419MOL0     O56477  11.846   3.334   0.031 -0.2787  0.0319  0.1244
  419MOL0     C56478  11.684   3.083   0.225 -0.3487  0.4082  0.1114
  419MOL0     C56479  11.558   3.054   0.277  0.2220 -0.0427  0.5494
  419MOL0     N56480  10.783   2.973   0.466  0.0890 -0.7117  0.2618
  419MOL0     N56481  10.683   2.997   0.402  0.0096 -1.1984 -0.7169
  419MOL0     C56482   9.515   3.444   0.375 -0.3026  0.4490  0.0946
  419MOL0     C56483   9.391   3.414   0.444  0.2421 -0.2809 -0.0534
  419MOL0     C56484   9.037   3.246   0.657  0.2569  0.4711  0.6958
  419MOL0     C56485   8.940   3.352   0.689  0.5546  0.2277 -0.3416
  419MOL0     C56486   8.803   3.327   0.716 -0.5260  0.1209 -0.9498
  419MOL0     C56487   8.761   3.193   0.721 -0.8779 -0.1695  0.6423
  419MOL0     O56488   8.633   3.187   0.778 -0.1562  0.1485  0.4675
  419MOL0     C56489   8.561   3.061   0.768 -0.2870 -0.6313  0.6153
  419MOL0     C56490   8.562   2.980   0.892 -0.0824 -0.4565 -0.3236
  419MOL0     C56491   8.513   3.052   1.023 -0.2751  0.6083  0.1375
  419MOL0     C56492   8.362   3.069   1.019 -0.6307  0.1848  0.1290
  419MOL0     C56493   8.323   3.127   1.141 -0.2131 -0.8167  0.1572
  419MOL0     C56494   8.296   3.194   1.242 -0.1380  0.5997  0.2064
  419MOL0     C56495   8.856   3.085   0.700  0.2201 -0.8089 -0.8407
  419MOL0     C56496   8.992   3.109   0.665 -0.7569  0.3083  0.5440
  419MOL0     C56497   9.091   3.004   0.639  0.1647  0.4493  0.0861
  419MOL0     H56498   9.400   3.076   0.400 -2.1464  0.0656  3.6346
  419MOL0     H56499   9.614   3.123   0.298  0.4823  0.3226 -0.2951
  419MOL0     H56500   9.712   3.550   0.204  2.8768  0.0204 -2.5289
  419MOL0     H56501   9.815   3.529   0.350  0.1267 -2.6971  2.4020
  419MOL0     H56502   9.965   3.539   0.150  1.8501 -1.0012 -0.9840
  419MOL0     H56503   9.874   3.404   0.080 -0.8364 -0.0165  0.2057
  419MOL0     H56504   9.963   3.273   0.290  0.3585 -0.1539  1.2225
  419MOL0     H56505  10.011   3.423   0.350 -2.4184  1.1579 -1.0021
  419MOL0     H56506  10.103   3.250   0.116 -3.5216  2.7146 -0.6502
  419MOL0     H56507  10.165   3.414   0.106 -0.9072 -1.2185 -2.0849
  419MOL0     H56508  10.270   3.383   0.324  1.4837  0.5144 -2.5697
  419MOL0     H56509  10.215   3.220   0.352  0.0309 -1.9557 -1.3041
  419MOL0     H56510  10.341   3.132   0.181 -0.1242  0.1710 -0.3252
  419MOL0     H56511  10.399   3.300   0.138  1.1970  0.0383 -0.6173
  419MOL0     H56512  10.459   3.144   0.396  1.4256  2.0846  2.6767
  419MOL0     H56513  10.504   3.316   0.366  4.9202 -0.5577 -2.5521
  419MOL0     H56514  10.576   3.112   0.169 -2.2282 -2.5770  1.9623
  419MOL0     H56515  10.647   3.274   0.212 -0.3675 -0.4093 -2.4877
  419MOL0     H56516  10.843   3.276   0.360  2.7238 -1.6180  0.4595
  419MOL0     H56517  10.973   3.190   0.619  2.0733 -0.9776  3.5351
  419MOL0     H56518  10.994   3.019   0.609 -1.7222  1.5215  0.3026
  419MOL0     H56519  11.100   3.200   0.380 -0.4695  1.9825  0.2008
  419MOL0     H56520  11.198   3.155   0.526  1.3324 -2.7655 -0.3033
  419MOL0     H56521  11.103   2.987   0.295 -1.1816 -0.7431  1.1306
  419MOL0     H56522  11.123   2.913   0.450  0.5148 -1.4188 -1.2354
  419MOL0     H56523  11.332   2.897   0.337  2.3996  2.1706 -0.9757
  419MOL0     H56524  11.355   3.011   0.463  1.5439  0.4184 -0.8821
  419MOL0     H56525  11.379   3.292   0.141 -1.5137 -3.0517 -2.3558
  419MOL0     H56526  11.595   3.357   0.046 -1.5487  0.6803  1.8333
  419MOL0     H56527  12.179   3.208   0.237 -3.5808  0.1196 -0.5581
  419MOL0     H56528  12.406   3.179   0.113  1.7275 -0.7368 -0.6368
  419MOL0     H56529  12.346   2.992  -0.308  0.0207  0.1962 -2.5622
  419MOL0     H56530  12.384   3.158  -0.323  0.8312  0.6003  1.3963
  419MOL0     H56531  12.575   2.918  -0.312  1.1723  0.2615  1.4462
  419MOL0     H56532  12.562   3.044  -0.442 -3.1900 -0.9734 -0.2519
  419MOL0     H56533  12.635   3.206  -0.281  2.1880  1.4477 -1.2969
  419MOL0     H56534  12.687   3.060  -0.178  1.2674 -4.4936 -2.0655
  419MOL0     H56535  12.773   3.015  -0.448  0.3740 -0.1879 -0.1408
  419MOL0     H56536  12.879   3.026  -0.306  0.8896  0.0605  0.1347
  419MOL0     H56537  12.796   3.277  -0.444 -1.3137 -2.3030  1.0228
  419MOL0     H56538  12.928   3.177  -0.510  1.8801  2.5188 -0.6237
  419MOL0     H56539  12.941   3.276  -0.239  1.8879  1.9220 -0.8124
  419MOL0     H56540  13.055   3.165  -0.323  0.2143  0.7066 -0.8684
  419MOL0     H56541  12.995   3.448  -0.426 -0.9651 -0.6814 -1.3930
  419MOL0     H56542  13.144   3.341  -0.445 -0.5859  2.0914 -1.9910
  419MOL0     H56543  13.182   3.527  -0.291 -0.2691  0.1604  3.6508
  419MOL0     H56544  13.032   3.491  -0.210  0.2438  3.3219 -0.0082
  419MOL0     H56545  12.169   3.092  -0.240  0.1033 -0.7761  0.7043
  419MOL0     H56546  11.977   3.102  -0.115  0.9421  2.1401 -2.8372
  419MOL0     H56547  11.769   3.020   0.248  1.3093  2.4568 -0.1107
  419MOL0     H56548  11.552   2.965   0.338 -1.9338 -1.5694 -1.7177
  419MOL0     H56549   9.544   3.546   0.351 -0.6813  0.4449 -0.4053
  419MOL0     H56550   9.329   3.500   0.467  1.9304  1.1966 -0.8130
  419MOL0     H56551   8.975   3.455   0.689 -0.3038  0.5494  1.0676
  419MOL0     H56552   8.737   3.407   0.746  1.1128  2.0200 -2.1485
  419MOL0     H56553   8.593   3.003   0.680 -0.7363 -0.1038  0.0965
  419MOL0     H56554   8.456   3.087   0.752 -0.4613  0.3420  3.0727
  419MOL0     H56555   8.667   2.954   0.911  0.2879  1.0893 -0.1074
  419MOL0     H56556   8.501   2.891   0.875 -2.2108  1.3570 -2.8431
  419MOL0     H56557   8.564   3.147   1.042  0.5598  0.3172 -0.6011
  419MOL0     H56558   8.535   2.980   1.103 -0.0932 -1.2843 -1.5398
  419MOL0     H56559   8.332   3.128   0.932 -0.8905 -1.0353 -0.6349
  419MOL0     H56560   8.317   2.970   1.010 -0.1279 -0.2577  2.0364
  419MOL0     H56561   8.281   3.246   1.334  0.7776  0.2383  0.5755
  419MOL0     H56562   8.833   2.980   0.716 -0.1697 -0.5994  0.0435
  419MOL0     H56563   9.176   3.004   0.708 -1.1890 -1.2521  1.8775
  419MOL0     H56564   9.051   2.910   0.678  0.2435  1.2352  2.2228
  419MOL0     H56565   9.134   2.999   0.538 -0.6173  0.2040 -0.2414
  420MOL0     O56566   9.717   7.324   6.072  0.2992  1.0158  0.1753
  420MOL0     C56567   9.766   7.380   6.170  0.4652 -0.1054 -0.1203
  420MOL0     O56568   9.899   7.407   6.187  0.1825 -0.6800  0.2022
  420MOL0     C56569   9.989   7.365   6.090 -0.0565 -1.1078 -0.7420
  420MOL0     C56570  10.044   7.451   5.993  0.2559 -0.7251  0.0705
  420MOL0     C56571  10.134   7.410   5.896 -0.0134 -0.2731  0.5976
  420MOL0     C56572  10.171   7.271   5.886 -0.5353 -0.7595 -0.2939
  420MOL0     O56573  10.239   7.218   5.778  0.0607  0.2278 -0.5615
  420MOL0     C56574  10.328   7.309   5.702  0.6041 -0.3131 -0.8937
  420MOL0     C56575  10.430   7.215   5.632 -1.6677  0.9967  0.4583
  420MOL0     C56576  10.481   7.112   5.736 -0.4084 -0.1750  0.1174
  420MOL0     C56577  10.610   7.044   5.676  0.6880  0.9171 -0.3420
  420MOL0     C56578  10.718   7.154   5.674  0.0058  0.0320 -0.2844
  420MOL0     C56579  10.860   7.085   5.651 -0.3639  0.5208  0.9436
  420MOL0     C56580  10.963   7.201   5.661  1.1062 -0.0286  0.4172
  420MOL0     C56581  11.101   7.140   5.670 -0.5962 -0.1400 -0.4450
  420MOL0     N56582  11.215   7.237   5.659 -0.3926 -0.5111 -0.0441
  420MOL0     C56583  11.355   7.220   5.671 -0.8232 -0.3213 -0.0777
  420MOL0     C56584  11.406   7.345   5.688 -0.2997  1.1328 -0.0280
  420MOL0     C56585  11.553   7.366   5.713 -0.0480 -0.4458 -0.2591
  420MOL0     C56586  11.648   7.368   5.590  0.5227  1.0652  0.3695
  420MOL0     C56587  11.656   7.244   5.509  1.0587 -0.7448  0.1603
  420MOL0     C56588  11.781   7.245   5.411  0.8712 -0.0931 -0.0666
  420MOL0     O56589  11.909   7.222   5.490 -0.2947 -0.0567  0.0252
  420MOL0     C56590  12.025   7.195   5.429 -0.3835 -0.8380 -0.7686
  420MOL0     C56591  12.137   7.234   5.500  0.1796  0.3853 -0.4362
  420MOL0     C56592  12.271   7.222   5.455  0.1832 -0.8459  0.0645
  420MOL0     C56593  12.289   7.173   5.332  0.0174  1.2553  0.0101
  420MOL0     C56594  12.429   7.149   5.279  0.2848  0.3111 -0.1932
  420MOL0     O56595  12.432   7.076   5.160 -0.3894  0.1056  0.6631
  420MOL0     C56596  12.558   7.033   5.120 -0.5304 -0.3661  0.7554
  420MOL0     C56597  12.597   7.074   4.994 -0.2238  0.5488  0.2788
  420MOL0     C56598  12.731   7.046   4.951 -0.4196  0.3105 -0.8143
  420MOL0     C56599  12.821   6.976   5.036  0.2228 -0.3124  0.1511
  420MOL0     O56600  12.948   6.939   4.994  0.2958 -0.4982 -0.0310
  420MOL0     C56601  13.050   6.896   5.093  0.0017 -0.3625 -0.7979
  420MOL0     C56602  13.185   6.850   5.029  0.2591 -0.0201 -0.1194
  420MOL0     C56603  13.161   6.722   4.948 -0.6240  0.5099  0.3805
  420MOL0     C56604  13.302   6.675   4.900 -0.0030  0.3455  0.7871
  420MOL0     C56605  13.340   6.538   4.965 -0.1355 -0.1422  0.3070
  420MOL0     C56606  13.347   6.557   5.116 -0.9615 -0.1409  0.6235
  420MOL0     C56607  13.445   6.444   5.170 -0.7043 -0.4596  0.1804
  420MOL0     C56608  13.506   6.475   5.309  0.0304  0.0224 -0.3383
  420MOL0    Cl56609  13.621   6.343   5.356 -0.1623  0.3148 -0.2040
  420MOL0     C56610  12.771   6.927   5.154 -0.4787 -0.3347 -0.5011
  420MOL0     C56611  12.640   6.952   5.196  0.3117 -0.5856  0.3986
  420MOL0     O56612  12.523   7.183   5.351  0.0721  0.2442 -0.3445
  420MOL0     C56613  12.177   7.128   5.256  0.2368  0.2460  0.0928
  420MOL0     C56614  12.046   7.143   5.306  0.4497 -0.3262  0.0003
  420MOL0     N56615  11.303   7.440   5.678  0.1158 -0.1086 -0.2894
  420MOL0     N56616  11.196   7.368   5.667  0.7280 -1.0456  0.6030
  420MOL0     C56617  10.127   7.188   5.984 -0.7887 -0.3207 -0.0919
  420MOL0     C56618  10.047   7.235   6.093 -0.8764 -0.2638  0.0282
  420MOL0     C56619   9.684   7.425   6.283  0.3811 -0.2636  0.3638
  420MOL0     C56620   9.676   7.563   6.298  0.0902  0.1647  0.1316
  420MOL0     C56621   9.609   7.614   6.406  0.3031 -0.7195 -0.3195
  420MOL0     C56622   9.544   7.530   6.501 -1.1054  0.1506  0.2331
  420MOL0     O56623   9.474   7.600   6.596  0.3506  0.6245 -0.0051
  420MOL0     C56624   9.422   7.530   6.710  0.0784  0.1483 -0.0450
  420MOL0     C56625   9.276   7.505   6.670  0.1180 -0.2229  0.7379
  420MOL0     C56626   9.182   7.626   6.687 -0.2623 -0.2271 -0.2168
  420MOL0     C56627   9.035   7.582   6.694  0.5460 -0.1729  0.0195
  420MOL0     C56628   8.996   7.468   6.778  0.5302 -0.7908  0.1116
  420MOL0     C56629   8.971   7.376   6.855 -0.1587 -0.4329  0.1618
  420MOL0     C56630   9.560   7.395   6.493 -0.4273  0.6640  0.1303
  420MOL0     C56631   9.625   7.345   6.380 -0.0544 -0.0609 -0.6297
  420MOL0     C56632   9.622   7.199   6.353  0.0747  0.7522 -0.1209
  420MOL0     H56633   9.994   7.546   5.979  3.2929  0.7675 -1.4140
  420MOL0     H56634  10.175   7.489   5.832  1.5749 -0.5988  1.1585
  420MOL0     H56635  10.274   7.372   5.630 -1.1927 -1.4129 -0.5797
  420MOL0     H56636  10.379   7.382   5.766 -0.0239 -1.3435  0.8687
  420MOL0     H56637  10.505   7.284   5.591 -0.5052 -0.9679 -0.8432
  420MOL0     H56638  10.373   7.158   5.558  1.3965  0.7741 -1.9264
  420MOL0     H56639  10.406   7.035   5.755 -0.3431 -1.2236 -3.1325
  420MOL0     H56640  10.508   7.164   5.828  0.5534 -0.1612 -0.1570
  420MOL0     H56641  10.644   6.963   5.741 -2.1150  1.0003  1.4496
  420MOL0     H56642  10.587   6.997   5.580  0.9662 -1.7873  0.8196
  420MOL0     H56643  10.691   7.218   5.590 -2.5127 -2.3283 -1.4304
  420MOL0     H56644  10.719   7.197   5.775  0.1047  1.3752 -0.8356
  420MOL0     H56645  10.887   7.018   5.733  0.9974 -0.4306 -0.2288
  420MOL0     H56646  10.866   7.034   5.554 -0.9807  1.5889  0.3110
  420MOL0     H56647  10.939   7.277   5.737 -0.2520 -0.7234  0.7189
  420MOL0     H56648  10.968   7.259   5.568 -0.8474  1.8446  1.3868
  420MOL0     H56649  11.115   7.095   5.769  2.2403 -0.4936 -0.9178
  420MOL0     H56650  11.129   7.065   5.596  1.9270  1.1809 -0.9523
  420MOL0     H56651  11.412   7.128   5.680  0.2470  0.4862  2.0301
  420MOL0     H56652  11.551   7.470   5.747 -1.2004 -0.3484 -0.5822
  420MOL0     H56653  11.579   7.294   5.791  2.0416  2.2417  1.7233
  420MOL0     H56654  11.611   7.446   5.523 -1.9297  1.2612  1.8197
  420MOL0     H56655  11.748   7.389   5.629 -0.0965  3.0914  0.9907
  420MOL0     H56656  11.566   7.233   5.449  0.1546 -0.5476  1.4338
  420MOL0     H56657  11.667   7.159   5.577 -0.1064 -1.9339 -1.1045
  420MOL0     H56658  11.783   7.339   5.354  0.0044 -0.0329 -0.0082
  420MOL0     H56659  11.765   7.163   5.340  3.1704  1.6926 -2.9066
  420MOL0     H56660  12.130   7.273   5.601 -0.0288 -1.4251  0.2804
  420MOL0     H56661  12.348   7.263   5.520 -0.4424 -1.2510  1.0696
  420MOL0     H56662  12.533   7.129   4.926 -1.7421  3.0155  3.4319
  420MOL0     H56663  12.770   7.070   4.853  2.4989 -0.7170 -0.0214
  420MOL0     H56664  13.067   6.984   5.156 -1.3784 -0.8078  0.2419
  420MOL0     H56665  13.021   6.807   5.150  1.8502 -0.6040 -0.1629
  420MOL0     H56666  13.215   6.932   4.962 -0.1468  1.4848  1.4476
  420MOL0     H56667  13.260   6.834   5.107  0.0531  0.4315  0.1727
  420MOL0     H56668  13.115   6.641   5.006 -0.9271  2.9228  3.8240
  420MOL0     H56669  13.107   6.752   4.858  2.3008  1.1467 -1.2812
  420MOL0     H56670  13.380   6.748   4.926  2.4399 -0.2020 -3.9217
  420MOL0     H56671  13.303   6.664   4.791 -0.1324 -0.7786  0.8939
  420MOL0     H56672  13.442   6.518   4.930  0.6247 -0.0744  2.3491
  420MOL0     H56673  13.276   6.452   4.945  0.6827 -0.4415 -1.1297
  420MOL0     H56674  13.395   6.651   5.144  2.3615 -1.7068  0.7469
  420MOL0     H56675  13.252   6.555   5.170 -0.2954 -1.7139  1.8288
  420MOL0     H56676  13.529   6.438   5.100  0.3885  4.9558  0.5803
  420MOL0     H56677  13.396   6.346   5.177 -1.0737 -0.1721  2.4104
  420MOL0     H56678  13.549   6.576   5.312 -1.9372  0.9004  2.0827
  420MOL0     H56679  13.423   6.481   5.379 -0.2005 -0.6475 -0.5498
  420MOL0     H56680  12.839   6.872   5.218  1.9795 -0.4650 -3.0499
  420MOL0     H56681  12.600   6.926   5.294  0.6585  1.4284  1.1287
  420MOL0     H56682  12.188   7.061   5.171 -4.1832 -0.3041 -0.2399
  420MOL0     H56683  11.967   7.128   5.233  1.1445  0.8895 -1.0475
  420MOL0     H56684  10.165   7.088   5.965 -1.6726 -1.0446  1.6854
  420MOL0     H56685  10.026   7.181   6.184 -3.5583  2.0369  0.9520
  420MOL0     H56686   9.736   7.615   6.223 -0.4199  0.5259 -0.0254
  420MOL0     H56687   9.622   7.717   6.436  0.2272 -0.8260  0.0839
  420MOL0     H56688   9.424   7.593   6.800 -1.7403  1.0466 -0.5962
  420MOL0     H56689   9.481   7.442   6.738 -0.3090  0.2941  1.3468
  420MOL0     H56690   9.243   7.429   6.742 -2.0475 -0.9159 -0.8686
  420MOL0     H56691   9.273   7.467   6.568  1.8156 -0.0010  0.5814
  420MOL0     H56692   9.199   7.701   6.609  1.4485 -2.0703 -1.7264
  420MOL0     H56693   9.212   7.666   6.784  0.1640 -0.0750 -0.4115
  420MOL0     H56694   8.979   7.667   6.735  0.9662  0.2474 -0.2510
  420MOL0     H56695   8.990   7.568   6.595  2.3762 -2.3501 -0.5948
  420MOL0     H56696   8.942   7.305   6.929  0.5500  0.8646  1.7333
  420MOL0     H56697   9.518   7.327   6.567 -0.3417  1.6751  1.1314
  420MOL0     H56698   9.606   7.138   6.443  1.2439 -1.4649 -1.3357
  420MOL0     H56699   9.539   7.171   6.288  0.7423 -0.8275 -0.3425
  420MOL0     H56700   9.714   7.165   6.305 -1.2032 -0.9260 -1.5021
  421MOL0     O56701   2.807   1.308   4.144 -0.2033  0.5133  0.2403
  421MOL0     C56702   2.787   1.381   4.246 -0.3071  0.5301 -1.0933
  421MOL0     O56703   2.881   1.462   4.305 -0.2389 -0.6384 -0.7833
  421MOL0     C56704   3.009   1.456   4.257  0.0672 -0.7370 -0.3732
  421MOL0     C56705   3.097   1.378   4.330 -0.7812 -0.0225  0.6359
  421MOL0     C56706   3.229   1.374   4.282 -0.0699  0.1844  0.0742
  421MOL0     C56707   3.281   1.449   4.180  0.2094 -0.2340  0.3152
  421MOL0     O56708   3.404   1.422   4.118  0.6936  0.1393 -0.1002
  421MOL0     C56709   3.512   1.410   4.215  0.2494 -0.3974  0.4422
  421MOL0     C56710   3.636   1.495   4.154 -0.0566  0.4407 -0.0418
  421MOL0     C56711   3.750   1.506   4.266  0.0807  0.4802  0.1588
  421MOL0     C56712   3.839   1.378   4.249  0.2350  0.4363  0.1364
  421MOL0     C56713   3.975   1.393   4.312 -0.4224 -0.0269 -0.3706
  421MOL0     C56714   4.066   1.492   4.240 -0.0555 -0.1256  0.7550
  421MOL0     C56715   4.199   1.469   4.299  0.4563 -0.1291  0.3157
  421MOL0     C56716   4.297   1.548   4.219 -0.1885 -0.0189 -0.2642
  421MOL0     N56717   4.431   1.565   4.279 -0.1322  0.1606 -0.3456
  421MOL0     C56718   4.514   1.465   4.305 -0.6807  0.6907  0.0616
  421MOL0     C56719   4.626   1.517   4.364  0.7976  0.2327 -0.4684
  421MOL0     C56720   4.749   1.452   4.404  0.3868  0.3780 -0.7046
  421MOL0     C56721   4.861   1.505   4.317 -0.4588  0.3465 -0.1258
  421MOL0     C56722   4.907   1.655   4.359 -0.2442  0.0979 -0.3533
  421MOL0     C56723   5.050   1.674   4.310  0.5672 -0.3427 -0.0200
  421MOL0     O56724   5.142   1.641   4.415 -0.2165  0.2792  0.1715
  421MOL0     C56725   5.276   1.628   4.380  0.2469  0.0803  0.1595
  421MOL0     C56726   5.329   1.696   4.272 -0.3637  0.3432 -0.1367
  421MOL0     C56727   5.467   1.684   4.249  0.3767  0.2776  0.9035
  421MOL0     C56728   5.548   1.607   4.327  0.1442  0.0371 -0.1493
  421MOL0     C56729   5.689   1.604   4.303 -0.1220  0.8073  0.8514
  421MOL0     O56730   5.753   1.705   4.235 -0.4882  0.2212  0.0909
  421MOL0     C56731   5.893   1.721   4.201  0.6921 -0.4463  0.1390
  421MOL0     C56732   5.967   1.610   4.164 -0.6708  0.0633  0.4733
  421MOL0     C56733   6.103   1.623   4.131  0.4047 -0.6977  0.5370
  421MOL0     C56734   6.163   1.749   4.158 -0.3994  0.8239 -0.4044
  421MOL0     O56735   6.299   1.741   4.150  0.2885  0.0748  0.0973
  421MOL0     C56736   6.374   1.861   4.130  0.1486  0.7198  0.5111
  421MOL0     C56737   6.421   1.913   4.262 -0.2391 -0.2394 -0.2650
  421MOL0     C56738   6.447   2.064   4.268  0.4401  0.7084  0.2075
  421MOL0     C56739   6.579   2.076   4.334  0.5942 -0.3350  0.0718
  421MOL0     C56740   6.621   2.223   4.336  0.3095  0.3489 -0.0224
  421MOL0     C56741   6.747   2.228   4.424  0.1739  0.7646 -0.5595
  421MOL0     C56742   6.811   2.365   4.448 -0.0955  0.2999  0.2107
  421MOL0     C56743   6.720   2.466   4.502 -0.0212 -0.3089 -0.2084
  421MOL0    Cl56744   6.665   2.411   4.668  0.3167 -0.0479 -0.2292
  421MOL0     C56745   6.090   1.859   4.200  0.1945  0.0372  0.5257
  421MOL0     C56746   5.953   1.848   4.200 -0.0051 -0.1250 -1.2072
  421MOL0     O56747   5.744   1.506   4.344 -0.0896 -0.3633  0.2276
  421MOL0     C56748   5.496   1.538   4.436  0.8378 -0.6390  0.0693
  421MOL0     C56749   5.364   1.556   4.464  1.0049  0.0298 -0.5484
  421MOL0     N56750   4.597   1.652   4.394  0.4782  1.0172 -0.5443
  421MOL0     N56751   4.482   1.674   4.337  0.8365 -0.1502  0.5388
  421MOL0     C56752   3.191   1.524   4.108 -1.0867  0.1064  0.5135
  421MOL0     C56753   3.054   1.527   4.140  0.5248  0.1055  0.4796
  421MOL0     C56754   2.646   1.377   4.293 -0.0152  1.1566  0.0692
  421MOL0     C56755   2.567   1.260   4.295 -0.9754 -0.4055 -0.4905
  421MOL0     C56756   2.434   1.257   4.330  0.1844 -0.3761 -0.0853
  421MOL0     C56757   2.373   1.375   4.364 -0.7280 -0.8075 -0.3795
  421MOL0     O56758   2.236   1.360   4.387 -0.4473 -0.5221 -0.0907
  421MOL0     C56759   2.147   1.469   4.397 -0.8570 -1.3786  0.1644
  421MOL0     C56760   2.006   1.424   4.430 -0.1645 -0.0871 -0.0190
  421MOL0     C56761   1.965   1.336   4.312 -0.4468  0.3563  0.6296
  421MOL0     C56762   1.826   1.288   4.338  0.8368  0.4860  0.0640
  421MOL0     C56763   1.777   1.233   4.213  0.1142 -0.2112  0.6738
  421MOL0     C56764   1.719   1.202   4.115 -0.3741  0.6983  0.3738
  421MOL0     C56765   2.442   1.497   4.362 -0.1625  0.2657  0.6749
  421MOL0     C56766   2.578   1.499   4.331  0.2279 -0.0024  0.2005
  421MOL0     C56767   2.638   1.640   4.318  0.4412  0.1708  0.4366
  421MOL0     H56768   3.056   1.321   4.414 -1.2697 -3.4467 -1.7057
  421MOL0     H56769   3.293   1.304   4.336  2.1737  3.0580  1.3879
  421MOL0     H56770   3.483   1.449   4.313 -5.5068 -0.1743 -1.0155
  421MOL0     H56771   3.540   1.305   4.226  1.3988 -0.1385  0.1394
  421MOL0     H56772   3.603   1.595   4.126 -2.7614 -0.4174 -0.1571
  421MOL0     H56773   3.668   1.447   4.061  0.3224  0.2930  0.1624
  421MOL0     H56774   3.703   1.520   4.364 -1.0605 -2.0098  0.0296
  421MOL0     H56775   3.810   1.597   4.255  1.5546 -0.4055  0.5418
  421MOL0     H56776   3.778   1.300   4.296 -2.3850  1.9671 -0.5233
  421MOL0     H56777   3.851   1.336   4.149 -3.1451 -0.4395 -0.0370
  421MOL0     H56778   3.970   1.417   4.419 -0.2091  0.1611 -0.4019
  421MOL0     H56779   4.011   1.290   4.312 -2.2784 -0.7327 -1.3701
  421MOL0     H56780   4.054   1.462   4.135 -2.7821 -0.4093  1.0737
  421MOL0     H56781   4.029   1.593   4.258 -2.1786 -0.9255  1.3004
  421MOL0     H56782   4.224   1.363   4.304  2.0796  0.2760  2.2759
  421MOL0     H56783   4.195   1.511   4.400 -1.2436 -2.0028  1.0861
  421MOL0     H56784   4.307   1.516   4.115 -1.1557  0.8677 -0.6423
  421MOL0     H56785   4.252   1.647   4.215 -0.0076  0.1753  1.5461
  421MOL0     H56786   4.499   1.359   4.287 -0.6959  0.5540  0.8600
  421MOL0     H56787   4.778   1.473   4.507  2.6791 -0.5806 -1.1037
  421MOL0     H56788   4.744   1.344   4.386  2.1313 -0.2492  2.0043
  421MOL0     H56789   4.943   1.434   4.326  0.6444  1.5311 -0.4850
  421MOL0     H56790   4.829   1.502   4.213  0.5331 -2.2620 -0.4083
  421MOL0     H56791   4.908   1.680   4.465 -1.0610 -0.1298 -0.2832
  421MOL0     H56792   4.840   1.718   4.299 -0.6234 -0.7013 -0.7909
  421MOL0     H56793   5.065   1.778   4.279 -0.3629 -0.3965 -0.7179
  421MOL0     H56794   5.072   1.605   4.228  0.2719  0.3573 -0.6975
  421MOL0     H56795   5.271   1.745   4.194  1.0935 -0.1242 -1.5634
  421MOL0     H56796   5.504   1.719   4.154 -2.0812 -0.9493 -0.6112
  421MOL0     H56797   5.928   1.509   4.166  1.0915 -0.6659  0.5183
  421MOL0     H56798   6.170   1.547   4.093  3.2674  1.8592  0.0771
  421MOL0     H56799   6.463   1.841   4.070  0.1514 -3.1064  1.4996
  421MOL0     H56800   6.304   1.926   4.078 -1.5198 -1.3746  0.0240
  421MOL0     H56801   6.341   1.901   4.337 -0.8309  0.8024 -0.7040
  421MOL0     H56802   6.506   1.853   4.294  2.0809  3.1716  0.5186
  421MOL0     H56803   6.448   2.109   4.168 -0.2696  0.1931 -0.0405
  421MOL0     H56804   6.372   2.125   4.321 -3.5106  0.2385 -4.2191
  421MOL0     H56805   6.647   2.005   4.286 -0.2344 -1.9771  1.2309
  421MOL0     H56806   6.572   2.045   4.438  1.9505  1.8064  0.8937
  421MOL0     H56807   6.543   2.277   4.390  0.1080 -2.8540  3.2850
  421MOL0     H56808   6.642   2.264   4.237  1.2904  2.4298  0.9921
  421MOL0     H56809   6.721   2.190   4.524  2.0211  1.5823  0.2659
  421MOL0     H56810   6.822   2.158   4.387 -2.4326 -2.6009 -0.0246
  421MOL0     H56811   6.858   2.391   4.352 -1.3718 -1.2122 -0.8910
  421MOL0     H56812   6.894   2.338   4.513  2.4230 -0.8345 -3.1478
  421MOL0     H56813   6.764   2.566   4.511 -1.1065  0.5190 -3.0698
  421MOL0     H56814   6.628   2.477   4.443  0.8145 -0.1993 -1.5391
  421MOL0     H56815   6.140   1.946   4.241 -1.9644  2.0425 -0.8456
  421MOL0     H56816   5.892   1.933   4.230  0.0323 -1.1422  2.0885
  421MOL0     H56817   5.566   1.496   4.508  0.5359  0.0441  0.7663
  421MOL0     H56818   5.329   1.506   4.554  3.1498 -2.8280 -1.1601
  421MOL0     H56819   3.222   1.575   4.017  2.1029 -4.5702 -1.4434
  421MOL0     H56820   2.988   1.591   4.083 -0.0312 -0.2598  0.7049
  421MOL0     H56821   2.597   1.167   4.250 -0.6341  1.1662 -3.8130
  421MOL0     H56822   2.370   1.169   4.325 -1.3221  0.6184  0.8422
  421MOL0     H56823   2.157   1.534   4.310 -0.1965 -1.2422  0.3327
  421MOL0     H56824   2.182   1.539   4.474  0.4719 -1.9100  0.0711
  421MOL0     H56825   1.946   1.515   4.436  1.7525  1.1395  1.7565
  421MOL0     H56826   1.996   1.373   4.526  0.7914  1.3070  0.8696
  421MOL0     H56827   2.025   1.247   4.292  0.8518  1.2128  0.6446
  421MOL0     H56828   1.971   1.399   4.222  0.8974 -2.4782 -1.4031
  421MOL0     H56829   1.819   1.209   4.414  1.3696 -1.2552 -1.6251
  421MOL0     H56830   1.764   1.374   4.365  1.2009 -0.0345  2.8280
  421MOL0     H56831   1.671   1.170   4.025  4.1441 -0.2076 -1.9952
  421MOL0     H56832   2.396   1.594   4.372  0.4607  0.4748  1.7464
  421MOL0     H56833   2.579   1.715   4.371 -0.3688 -0.2340  0.1189
  421MOL0     H56834   2.741   1.638   4.354  2.0082  0.7093 -3.5052
  421MOL0     H56835   2.638   1.656   4.210  0.9954 -2.9575 -0.1273
  422MOL0     O56836  10.048   9.717   8.760  0.4827 -0.1978 -0.6458
  422MOL0     C56837  10.045   9.698   8.879 -0.1580 -0.4037  0.6929
  422MOL0     O56838  10.151   9.661   8.954  0.1267  0.2775  0.5546
  422MOL0     C56839  10.282   9.643   8.911 -0.5054 -0.0969  0.0616
  422MOL0     C56840  10.385   9.637   9.007  0.2507  0.4903 -0.0032
  422MOL0     C56841  10.513   9.594   8.976  0.0410  0.0232  0.1077
  422MOL0     C56842  10.557   9.573   8.850  0.2458 -0.3454  0.5759
  422MOL0     O56843  10.689   9.560   8.808 -0.1051  0.7864 -0.2490
  422MOL0     C56844  10.792   9.624   8.881  0.3299 -0.5814  0.1066
  422MOL0     C56845  10.925   9.652   8.823  0.0911  0.0815 -0.6225
  422MOL0     C56846  11.030   9.543   8.875  0.6971  0.7034 -0.8516
  422MOL0     C56847  11.165   9.572   8.807 -0.1971 -0.5017  0.5577
  422MOL0     C56848  11.275   9.478   8.859 -0.1265  0.4930  0.4481
  422MOL0     C56849  11.279   9.346   8.783 -0.3001  0.1468  0.2599
  422MOL0     C56850  11.399   9.258   8.820 -0.4736 -0.9746 -0.0443
  422MOL0     C56851  11.416   9.138   8.733 -0.7740 -0.2173 -0.3425
  422MOL0     N56852  11.555   9.084   8.750  0.1471  0.2225  0.5585
  422MOL0     C56853  11.615   9.079   8.871  0.2481 -0.5222 -0.0160
  422MOL0     C56854  11.738   9.029   8.840 -0.1816 -0.3880  0.5420
  422MOL0     C56855  11.844   8.986   8.936  0.0084  0.0861 -0.1927
  422MOL0     C56856  11.987   9.035   8.904  0.1206 -0.2441  0.5669
  422MOL0     C56857  12.001   9.186   8.919 -0.3175 -0.0253  0.8190
  422MOL0     C56858  12.124   9.235   8.838 -0.4301 -0.8877 -0.0033
  422MOL0     O56859  12.140   9.372   8.840  0.3986 -0.3063 -0.8876
  422MOL0     C56860  12.184   9.424   8.964  0.2852 -0.3112 -0.0645
  422MOL0     C56861  12.103   9.485   9.058  0.3313 -0.1471 -0.7769
  422MOL0     C56862  12.151   9.536   9.180 -0.2130 -0.3093 -0.4982
  422MOL0     C56863  12.294   9.535   9.204 -0.6176 -0.0135  0.1691
  422MOL0     C56864  12.363   9.577   9.324  0.5606 -0.4455 -0.4932
  422MOL0     O56865  12.493   9.608   9.326  0.1006  0.0082  0.2041
  422MOL0     C56866  12.557   9.631   9.441  0.4111  0.3403 -0.2498
  422MOL0     C56867  12.676   9.702   9.424 -0.3257 -0.3001  0.0452
  422MOL0     C56868  12.767   9.727   9.526  0.8179  0.5340 -0.0562
  422MOL0     C56869  12.732   9.673   9.656  0.2038  0.4747  0.5258
  422MOL0     O56870  12.825   9.694   9.755  0.7741  0.0932  0.3267
  422MOL0     C56871  12.795   9.679   9.897  0.1751 -0.4585  0.4178
  422MOL0     C56872  12.889   9.769   9.979  0.2975 -1.0693  0.0341
  422MOL0     C56873  13.038   9.747   9.961  0.1195  0.3731 -0.4141
  422MOL0     C56874  13.106   9.714  10.095 -0.5491 -0.0088  0.7249
  422MOL0     C56875  13.109   9.821  10.213 -0.2260 -0.6151 -0.0494
  422MOL0     C56876  13.243   9.893  10.233 -0.6175 -0.1099 -0.1009
  422MOL0     C56877  13.353   9.794  10.273 -0.6267 -0.1468 -0.4097
  422MOL0     C56878  13.484   9.875  10.262  0.2053 -0.2310  1.0414
  422MOL0    Cl56879  13.633   9.808  10.197 -0.3230 -0.1228  0.1545
  422MOL0     C56880  12.608   9.619   9.682  0.8306  0.3325  0.3476
  422MOL0     C56881  12.519   9.593   9.575 -0.3596 -0.2459  1.0191
  422MOL0     O56882  12.282   9.590   9.422  0.4040 -0.2400  0.3496
  422MOL0     C56883  12.370   9.483   9.096 -0.4834 -0.0192 -0.1810
  422MOL0     C56884  12.325   9.423   8.980  0.4401 -0.6123 -0.7484
  422MOL0     N56885  11.747   9.018   8.706 -0.0602 -0.0157  0.1558
  422MOL0     N56886  11.640   9.058   8.653 -0.7138 -0.2677 -0.0768
  422MOL0     C56887  10.456   9.584   8.751 -0.0588  0.3202  0.0091
  422MOL0     C56888  10.317   9.619   8.779 -0.4469 -0.1404  0.7703
  422MOL0     C56889   9.917   9.728   8.951  0.1354 -0.5801 -0.3502
  422MOL0     C56890   9.911   9.683   9.089  0.3116 -0.4722 -0.2130
  422MOL0     C56891   9.795   9.707   9.166 -0.0399 -0.2479 -0.2066
  422MOL0     C56892   9.675   9.765   9.111  0.4367  0.2006  0.1922
  422MOL0     O56893   9.553   9.788   9.171  0.1762 -0.4783 -0.7468
  422MOL0     C56894   9.547   9.783   9.317 -0.0177  0.2880  0.5591
  422MOL0     C56895   9.416   9.833   9.382 -0.5761 -0.8752 -0.4659
  422MOL0     C56896   9.297   9.759   9.316 -0.5438  0.0341  0.2247
  422MOL0     C56897   9.153   9.800   9.349 -1.0724  0.9343  0.5533
  422MOL0     C56898   9.110   9.760   9.492  0.0131 -0.3470  0.2951
  422MOL0     C56899   9.064   9.723   9.597 -0.6555 -0.2072 -1.4121
  422MOL0     C56900   9.687   9.808   8.977  0.0799  0.1736  0.1264
  422MOL0     C56901   9.804   9.793   8.896 -0.7514 -0.0576 -0.1577
  422MOL0     C56902   9.800   9.859   8.759 -1.1142  0.0932  0.1532
  422MOL0     H56903  10.361   9.663   9.110 -1.0457 -0.3293 -0.0674
  422MOL0     H56904  10.586   9.582   9.056  0.9676 -0.8900 -0.8500
  422MOL0     H56905  10.750   9.720   8.915 -0.3144 -0.6183 -0.5690
  422MOL0     H56906  10.810   9.574   8.977  0.9375  2.0979  1.4910
  422MOL0     H56907  10.960   9.751   8.853 -0.0754 -0.3795  1.2292
  422MOL0     H56908  10.917   9.641   8.715  0.1822  0.6826 -0.6919
  422MOL0     H56909  10.990   9.443   8.852  1.4745  0.3039 -0.5082
  422MOL0     H56910  11.047   9.548   8.983  0.0937  0.9409 -0.7690
  422MOL0     H56911  11.151   9.558   8.700 -0.4952 -0.9600  0.6549
  422MOL0     H56912  11.198   9.675   8.827 -1.0027  0.2439 -1.6943
  422MOL0     H56913  11.369   9.532   8.843 -1.0226  1.5475 -1.6768
  422MOL0     H56914  11.264   9.466   8.968  0.3667  0.5548  0.5081
  422MOL0     H56915  11.189   9.290   8.810  1.5960 -2.6480  1.2448
  422MOL0     H56916  11.294   9.370   8.677  1.9097  0.6132  0.6320
  422MOL0     H56917  11.390   9.215   8.920  1.4716 -0.1353  0.5372
  422MOL0     H56918  11.490   9.318   8.818 -2.2168  2.0648  2.9159
  422MOL0     H56919  11.343   9.062   8.762  0.2423 -1.1245 -0.1016
  422MOL0     H56920  11.406   9.174   8.630  3.9592  2.4231 -0.1541
  422MOL0     H56921  11.563   9.100   8.964 -1.7932 -3.1550 -0.4385
  422MOL0     H56922  11.826   8.995   9.044 -0.1822 -1.8630 -0.0308
  422MOL0     H56923  11.841   8.877   8.932 -0.3749  0.1108 -0.6660
  422MOL0     H56924  12.065   8.984   8.960  0.7737  2.0048  1.8354
  422MOL0     H56925  12.014   9.006   8.802 -3.6313  0.8153 -0.8964
  422MOL0     H56926  12.026   9.206   9.024  1.7793  2.5021 -0.0667
  422MOL0     H56927  11.907   9.236   8.894  0.1698  2.5058  3.4940
  422MOL0     H56928  12.102   9.219   8.732 -1.1887  1.2077 -0.2107
  422MOL0     H56929  12.222   9.194   8.866  0.5965 -0.3148 -2.4473
  422MOL0     H56930  11.997   9.479   9.034  0.2148 -0.1498 -0.2731
  422MOL0     H56931  12.080   9.585   9.245 -0.4122  3.4378 -3.2202
  422MOL0     H56932  12.688   9.746   9.326 -2.5158  0.5675  0.1145
  422MOL0     H56933  12.863   9.774   9.510  0.8321  1.0506  1.4053
  422MOL0     H56934  12.700   9.730   9.910  0.6952  1.0509 -1.2689
  422MOL0     H56935  12.793   9.575   9.933 -3.2868 -1.5772 -2.3388
  422MOL0     H56936  12.866   9.873   9.954  0.3798 -1.0308  0.1165
  422MOL0     H56937  12.866   9.746  10.083 -1.9225 -5.4022 -1.1426
  422MOL0     H56938  13.048   9.661   9.893 -0.7112  0.2972 -0.4501
  422MOL0     H56939  13.087   9.834   9.916  0.1227 -0.3049 -1.7966
  422MOL0     H56940  13.209   9.697  10.060 -2.0250 -0.6891 -3.9707
  422MOL0     H56941  13.070   9.615  10.124  0.2064 -0.2828  0.7565
  422MOL0     H56942  13.092   9.764  10.304  0.4195  1.0707  1.1730
  422MOL0     H56943  13.028   9.895  10.212  0.4880  0.7217  5.8006
  422MOL0     H56944  13.269   9.926  10.132 -0.6964  0.0790 -0.0602
  422MOL0     H56945  13.231   9.974  10.305  0.0629 -1.1578  1.2332
  422MOL0     H56946  13.363   9.707  10.207 -0.4382 -1.0965  0.8381
  422MOL0     H56947  13.337   9.763  10.376  0.2392  2.8942  0.7502
  422MOL0     H56948  13.470   9.954  10.187  0.6067  0.0043  1.2091
  422MOL0     H56949  13.513   9.923  10.355 -0.5450  1.6361  0.3711
  422MOL0     H56950  12.576   9.591   9.782 -0.7045  0.0411 -0.1865
  422MOL0     H56951  12.424   9.543   9.595  0.1490 -2.6965 -1.8754
  422MOL0     H56952  12.478   9.487   9.108 -0.2781 -4.4532  1.5170
  422MOL0     H56953  12.396   9.397   8.903  3.9887  3.7389  0.6280
  422MOL0     H56954  10.487   9.558   8.651 -0.9395 -1.3398  0.1378
  422MOL0     H56955  10.245   9.623   8.699 -2.1487 -0.7433  2.1967
  422MOL0     H56956   9.988   9.630   9.144 -1.3194 -1.3859  1.2943
  422MOL0     H56957   9.790   9.669   9.268 -3.2350 -0.0359 -0.1629
  422MOL0     H56958   9.639   9.828   9.354 -0.1332 -0.5984  1.9787
  422MOL0     H56959   9.557   9.674   9.327  3.4629  0.6317  2.2784
  422MOL0     H56960   9.395   9.939   9.366 -0.5661 -0.6682  0.7797
  422MOL0     H56961   9.423   9.816   9.490  1.4993 -0.5575 -0.5118
  422MOL0     H56962   9.307   9.653   9.342  2.6490  0.7389  2.4836
  422MOL0     H56963   9.321   9.789   9.213 -0.4815  3.4508  1.1074
  422MOL0     H56964   9.154   9.909   9.341 -0.5397  1.1400  2.8509
  422MOL0     H56965   9.083   9.751   9.281  0.4004 -0.6050  0.0729
  422MOL0     H56966   9.018   9.666   9.676 -1.4341 -0.1454 -1.8209
  422MOL0     H56967   9.595   9.853   8.940  1.3859  1.8831 -1.1688
  422MOL0     H56968   9.833   9.801   8.673 -1.2435  1.3844 -0.8041
  422MOL0     H56969   9.697   9.888   8.737 -0.6526  0.5554 -1.5497
  422MOL0     H56970   9.866   9.946   8.766 -0.7075 -0.2089  0.1527
  423MOL0     O56971   7.876   6.613   2.230  0.1604 -0.6406  0.5523
  423MOL0     C56972   7.856   6.734   2.199 -0.6868 -0.0062  0.7279
  423MOL0     O56973   7.961   6.828   2.161 -0.2801  0.3565 -0.3373
  423MOL0     C56974   8.100   6.783   2.164 -0.5882 -0.3446  1.3052
  423MOL0     C56975   8.140   6.655   2.123 -0.2199  0.5304  0.3635
  423MOL0     C56976   8.275   6.615   2.122  0.2068  0.5859 -1.5425
  423MOL0     C56977   8.370   6.708   2.173  0.6361 -0.4398  0.6720
  423MOL0     O56978   8.508   6.686   2.159  0.1275 -0.2734 -0.2586
  423MOL0     C56979   8.565   6.582   2.078  0.3896  0.1169 -0.3335
  423MOL0     C56980   8.601   6.471   2.178 -1.3378  0.3040 -0.0432
  423MOL0     C56981   8.706   6.525   2.278  0.3257  0.1062 -0.2704
  423MOL0     C56982   8.751   6.437   2.396  0.3527 -0.2101 -0.1446
  423MOL0     C56983   8.895   6.425   2.429 -0.3278 -1.0212 -0.4769
  423MOL0     C56984   8.927   6.334   2.552 -0.7097 -0.7447  0.1782
  423MOL0     C56985   9.072   6.308   2.584  0.7754  0.2225  0.8789
  423MOL0     C56986   9.092   6.208   2.698  0.0127  0.3702 -0.0984
  423MOL0     N56987   9.232   6.174   2.719 -1.0398  0.6876  0.0639
  423MOL0     C56988   9.319   6.212   2.826  0.0777 -0.4503 -0.0601
  423MOL0     C56989   9.434   6.157   2.785 -0.0661  0.3292 -1.5250
  423MOL0     C56990   9.566   6.158   2.859  0.7966  0.2467 -0.1094
  423MOL0     C56991   9.699   6.129   2.782 -0.6991  0.1269  0.0053
  423MOL0     C56992   9.779   6.256   2.744  0.7598 -0.6634  0.6297
  423MOL0     C56993   9.902   6.228   2.673 -0.0123 -0.3143  0.6312
  423MOL0     O56994  10.008   6.167   2.755  0.2070 -0.3851  0.4768
  423MOL0     C56995  10.135   6.157   2.701  0.2957 -0.2336  0.2573
  423MOL0     C56996  10.204   6.051   2.750  0.1433 -0.3749  0.0702
  423MOL0     C56997  10.332   6.019   2.693  0.1764 -0.0121 -1.0506
  423MOL0     C56998  10.394   6.109   2.598  0.5943 -0.4243 -0.5900
  423MOL0     C56999  10.534   6.087   2.556 -0.3342  0.1994 -0.2585
  423MOL0     O57000  10.564   6.165   2.450  0.3642  0.1011 -0.3130
  423MOL0     C57001  10.700   6.155   2.410  0.8242 -0.0295 -0.4048
  423MOL0     C57002  10.729   6.076   2.296  0.0783 -0.4064 -0.1175
  423MOL0     C57003  10.857   6.076   2.254 -0.4495  0.6648 -0.0800
  423MOL0     C57004  10.956   6.154   2.304 -0.3913 -0.2041 -0.0863
  423MOL0     O57005  11.075   6.144   2.240 -0.5978 -0.5995 -0.1378
  423MOL0     C57006  11.160   6.255   2.208  0.5209  0.3452 -0.2373
  423MOL0     C57007  11.272   6.198   2.124 -0.2667 -0.0918  0.2970
  423MOL0     C57008  11.381   6.104   2.185  1.1028  0.1305 -0.1618
  423MOL0     C57009  11.506   6.107   2.100  0.7167 -0.1687  1.0394
  423MOL0     C57010  11.613   6.031   2.169 -0.3567  0.1889 -0.1203
  423MOL0     C57011  11.740   6.038   2.095 -0.6676  0.1407 -0.0307
  423MOL0     C57012  11.832   5.946   2.173  0.5457  0.0159 -0.1433
  423MOL0     C57013  11.977   5.953   2.111  0.4001  0.2144 -0.2233
  423MOL0    Cl57014  12.080   5.829   2.188  0.1536  0.0570  0.0379
  423MOL0     C57015  10.924   6.230   2.418  0.1308 -0.2386 -1.7794
  423MOL0     C57016  10.794   6.229   2.477 -0.3751  0.4304  0.3969
  423MOL0     O57017  10.604   6.004   2.609 -0.1070 -0.3710  0.5471
  423MOL0     C57018  10.313   6.221   2.550 -0.0254 -0.0098 -0.5642
  423MOL0     C57019  10.180   6.240   2.596 -0.2073  0.2263  0.3133
  423MOL0     N57020   9.417   6.095   2.664  0.2275 -0.0220  0.6104
  423MOL0     N57021   9.297   6.098   2.626 -1.1222 -0.6785  0.4966
  423MOL0     C57022   8.335   6.834   2.219  0.7005 -0.0509  0.2768
  423MOL0     C57023   8.206   6.872   2.211 -0.2035  1.0023 -0.6895
  423MOL0     C57024   7.714   6.783   2.179  0.6776 -0.3460  0.2425
  423MOL0     C57025   7.691   6.892   2.094 -0.3921  0.3649  0.2095
  423MOL0     C57026   7.567   6.942   2.065 -1.3881 -0.7913 -0.4139
  423MOL0     C57027   7.450   6.876   2.117 -1.2366  0.1839 -0.1827
  423MOL0     O57028   7.329   6.928   2.088  0.4523 -0.2325  0.3317
  423MOL0     C57029   7.300   7.039   2.002  0.7935 -1.2627  0.3959
  423MOL0     C57030   7.139   7.041   1.983 -0.0897  0.1122  0.7965
  423MOL0     C57031   7.097   6.907   1.930  0.7307  0.3400 -0.1400
  423MOL0     C57032   6.980   6.909   1.837 -0.2526 -0.3423  0.3955
  423MOL0     C57033   6.867   6.989   1.894  0.6400  0.6171 -0.0431
  423MOL0     C57034   6.763   7.048   1.939  0.1664  0.5471  0.0119
  423MOL0     C57035   7.474   6.771   2.205  0.3076 -0.7303 -0.9439
  423MOL0     C57036   7.597   6.720   2.238 -0.2276 -1.0012 -0.2406
  423MOL0     C57037   7.610   6.611   2.337 -0.3877  0.2062 -0.1901
  423MOL0     H57038   8.070   6.580   2.087  2.4784 -2.4498  0.8440
  423MOL0     H57039   8.311   6.518   2.090 -1.6494  0.0240 -2.0510
  423MOL0     H57040   8.495   6.542   2.005 -0.0244  1.7213 -0.8536
  423MOL0     H57041   8.650   6.630   2.027  2.0515 -0.9247  1.3029
  423MOL0     H57042   8.632   6.383   2.122  0.1594  1.6826 -1.4696
  423MOL0     H57043   8.505   6.436   2.218 -0.1034 -0.5092  2.4151
  423MOL0     H57044   8.666   6.621   2.313 -2.2321 -0.1032 -2.3618
  423MOL0     H57045   8.794   6.553   2.220  0.3931 -0.4225 -0.4287
  423MOL0     H57046   8.697   6.462   2.488 -0.8247 -0.3623 -0.7876
  423MOL0     H57047   8.709   6.337   2.382  0.5192 -0.8497  3.1552
  423MOL0     H57048   8.956   6.378   2.351  0.1832  1.1563 -1.4914
  423MOL0     H57049   8.934   6.527   2.438 -1.8069 -0.1659 -2.8391
  423MOL0     H57050   8.882   6.390   2.635 -1.1236 -2.0459  0.8500
  423MOL0     H57051   8.879   6.236   2.546  0.7872 -1.4480 -1.0929
  423MOL0     H57052   9.126   6.403   2.596  0.3635  1.3002 -3.8712
  423MOL0     H57053   9.119   6.268   2.494  0.5821  1.9547 -0.0429
  423MOL0     H57054   9.051   6.269   2.779 -1.7351 -1.0704  0.1800
  423MOL0     H57055   9.024   6.122   2.692 -0.9074  0.9323  1.6146
  423MOL0     H57056   9.300   6.277   2.911  0.1257 -3.0976  2.1234
  423MOL0     H57057   9.571   6.252   2.916 -2.8073 -1.3573  3.3328
  423MOL0     H57058   9.565   6.077   2.933 -0.7345 -0.3642 -0.7698
  423MOL0     H57059   9.755   6.064   2.849 -1.7216  0.3875  1.1600
  423MOL0     H57060   9.682   6.063   2.697  2.2901 -1.8080  0.7691
  423MOL0     H57061   9.797   6.311   2.837 -0.7184 -1.3331  1.3579
  423MOL0     H57062   9.713   6.321   2.685  2.3826 -0.0312 -0.5468
  423MOL0     H57063   9.934   6.323   2.631 -0.2715  0.1623  1.4754
  423MOL0     H57064   9.885   6.156   2.593  1.9305 -1.0590  0.8302
  423MOL0     H57065  10.154   6.007   2.836 -1.7763  0.4386 -0.5813
  423MOL0     H57066  10.384   5.928   2.724 -1.6690 -1.3898 -1.8046
  423MOL0     H57067  10.644   6.023   2.253  0.8561 -2.2300  0.5204
  423MOL0     H57068  10.874   6.012   2.167 -0.6108  1.3661 -0.6320
  423MOL0     H57069  11.092   6.323   2.155  0.7232 -0.9401 -2.2847
  423MOL0     H57070  11.203   6.296   2.300 -0.9668  1.6087 -0.0776
  423MOL0     H57071  11.229   6.146   2.038 -1.7545  0.0023  0.9649
  423MOL0     H57072  11.331   6.275   2.074  0.5396 -0.5151  0.5727
  423MOL0     H57073  11.408   6.135   2.286  0.4791  2.8871 -0.7571
  423MOL0     H57074  11.344   6.002   2.198 -0.2523  0.2784 -2.3432
  423MOL0     H57075  11.543   6.209   2.083  1.5354 -0.8252 -1.7218
  423MOL0     H57076  11.490   6.063   2.001 -0.0163  0.3350  0.9232
  423MOL0     H57077  11.579   5.928   2.178 -1.2276  0.5478  0.8294
  423MOL0     H57078  11.623   6.075   2.268 -1.5104  0.5309 -0.1450
  423MOL0     H57079  11.726   5.996   1.995 -0.3634 -1.9090  0.7524
  423MOL0     H57080  11.780   6.139   2.084 -1.3880  0.4264 -0.0819
  423MOL0     H57081  11.794   5.844   2.160  3.6380 -1.3446  0.5792
  423MOL0     H57082  11.844   5.969   2.279  0.3964  2.0327 -0.5281
  423MOL0     H57083  11.971   5.926   2.005 -2.3976  1.0186 -0.3614
  423MOL0     H57084  12.024   6.052   2.122  1.0255  0.1579 -1.9442
  423MOL0     H57085  10.994   6.296   2.469 -1.2128 -0.0644 -0.0647
  423MOL0     H57086  10.757   6.285   2.562  1.0906 -1.1608  2.1702
  423MOL0     H57087  10.348   6.287   2.472 -2.9411  0.6876 -1.3799
  423MOL0     H57088  10.117   6.307   2.538 -3.6489 -2.1302  1.0640
  423MOL0     H57089   8.420   6.885   2.262  0.1781  1.9706 -0.9672
  423MOL0     H57090   8.178   6.975   2.229  1.2620  2.1442 -4.2677
  423MOL0     H57091   7.763   6.946   2.032 -3.5024  1.6352 -2.6070
  423MOL0     H57092   7.565   7.030   2.000 -0.5249  0.3178  0.9995
  423MOL0     H57093   7.353   7.038   1.907  0.1811  0.0860  0.0234
  423MOL0     H57094   7.332   7.127   2.058  2.8266 -1.5759 -0.1669
  423MOL0     H57095   7.109   7.116   1.909  0.4327 -0.0706  0.3934
  423MOL0     H57096   7.087   7.065   2.076 -4.0811 -3.0107 -0.2873
  423MOL0     H57097   7.089   6.836   2.012  1.3119 -0.0452 -0.4044
  423MOL0     H57098   7.177   6.865   1.868  0.8310  1.9207 -1.1457
  423MOL0     H57099   7.006   6.957   1.742 -2.0587  1.4732  0.7617
  423MOL0     H57100   6.953   6.806   1.810 -2.2454  0.2634 -0.0885
  423MOL0     H57101   6.687   7.099   1.993  0.9612  1.6691  0.1125
  423MOL0     H57102   7.385   6.733   2.254  0.8376 -0.4060  0.3306
  423MOL0     H57103   7.662   6.534   2.279 -2.0661  1.8248 -4.2072
  423MOL0     H57104   7.680   6.636   2.417 -2.7005 -1.2343  2.4708
  423MOL0     H57105   7.512   6.585   2.379 -1.5612  1.6405 -1.8824
  424MOL0     O57106   2.290  10.813   6.072 -0.1442 -0.1441  0.0569
  424MOL0     C57107   2.298  10.908   5.986  0.9175 -0.0239 -0.7024
  424MOL0     O57108   2.410  10.957   5.931 -0.1062  0.5016 -0.0084
  424MOL0     C57109   2.518  10.881   5.956  0.1657  0.1543 -1.0888
  424MOL0     C57110   2.592  10.833   5.848 -0.1431 -0.0002 -0.0940
  424MOL0     C57111   2.717  10.772   5.874  0.0495  0.8101 -0.0506
  424MOL0     C57112   2.761  10.756   6.007  0.3379  0.8848  0.2949
  424MOL0     O57113   2.875  10.676   6.023 -0.9914  0.7905 -0.5643
  424MOL0     C57114   2.945  10.687   6.148 -0.4985 -0.3397  0.4525
  424MOL0     C57115   3.065  10.598   6.145  0.2537  0.7770 -0.1239
  424MOL0     C57116   3.124  10.575   6.280 -0.5408  0.3374  0.2624
  424MOL0     C57117   3.221  10.457   6.281  0.0682 -0.4314  0.0171
  424MOL0     C57118   3.288  10.453   6.420 -1.2978  1.1100 -0.9787
  424MOL0     C57119   3.367  10.320   6.436 -0.6009 -0.0102 -0.3450
  424MOL0     C57120   3.444  10.311   6.570 -0.0727  0.5289 -0.2212
  424MOL0     C57121   3.551  10.200   6.547  0.7516  0.2289 -0.0199
  424MOL0     N57122   3.652  10.205   6.653 -0.6281 -1.3029 -0.2735
  424MOL0     C57123   3.747  10.108   6.673 -0.5102  1.5313  0.7082
  424MOL0     C57124   3.810  10.138   6.785 -0.3808 -0.3699 -0.5821
  424MOL0     C57125   3.916  10.061   6.860 -0.1180 -0.5279 -0.3755
  424MOL0     C57126   4.050  10.102   6.816 -0.2847  0.3306 -0.0504
  424MOL0     C57127   4.153  10.003   6.881  0.2876  0.0732 -0.2671
  424MOL0     C57128   4.182   9.875   6.801 -0.3732 -0.1551 -0.7289
  424MOL0     O57129   4.265   9.789   6.876 -0.1933 -0.5413 -0.6023
  424MOL0     C57130   4.400   9.813   6.881 -0.3300 -0.8692  0.4738
  424MOL0     C57131   4.481   9.893   6.787 -0.2820  0.3958  0.0286
  424MOL0     C57132   4.618   9.898   6.804  0.4260 -0.5816  0.5935
  424MOL0     C57133   4.683   9.836   6.907  0.4624  0.4112 -0.2923
  424MOL0     C57134   4.833   9.844   6.917 -0.7890  0.0617 -0.3997
  424MOL0     O57135   4.880   9.823   7.040 -0.1931 -0.0597 -0.1706
  424MOL0     C57136   5.022   9.826   7.059 -0.3245  0.1032  0.3474
  424MOL0     C57137   5.096   9.720   7.017 -0.1771  0.8164  0.7267
  424MOL0     C57138   5.238   9.706   7.028 -0.3910  0.3124  0.4815
  424MOL0     C57139   5.310   9.810   7.096  1.0303  0.6478 -0.2440
  424MOL0     O57140   5.448   9.807   7.113 -0.3382 -0.2751 -0.1890
  424MOL0     C57141   5.518   9.682   7.111  0.0525  1.5446  0.7992
  424MOL0     C57142   5.662   9.711   7.151 -0.0282  0.1982 -0.0610
  424MOL0     C57143   5.727   9.825   7.065  0.6556 -0.4142 -0.5495
  424MOL0     C57144   5.885   9.823   7.060 -0.0409  0.2809  0.1950
  424MOL0     C57145   5.931   9.950   6.984  0.1599  0.2818  0.4676
  424MOL0     C57146   6.077   9.978   6.998 -0.2891 -0.2429  0.5792
  424MOL0     C57147   6.157   9.890   6.897 -0.2800  0.3081  0.0327
  424MOL0     C57148   6.307   9.893   6.938 -0.3633  1.3839  0.8794
  424MOL0    Cl57149   6.400  10.048   6.902 -0.0345  0.2004  0.4991
  424MOL0     C57150   5.235   9.917   7.145  0.0201 -0.2597 -0.9163
  424MOL0     C57151   5.094   9.923   7.129 -0.7908 -0.3378  0.0300
  424MOL0     O57152   4.901   9.885   6.822 -0.2968 -0.4490 -1.1028
  424MOL0     C57153   4.604   9.757   6.993 -0.7007 -0.7245 -0.1193
  424MOL0     C57154   4.470   9.754   6.986 -0.3904  0.4635  0.4522
  424MOL0     N57155   3.765  10.265   6.823  0.0291 -0.0443  0.8179
  424MOL0     N57156   3.667  10.306   6.748 -0.1870 -0.4662 -0.4976
  424MOL0     C57157   2.688  10.820   6.103 -0.3618 -0.3909  0.8128
  424MOL0     C57158   2.565  10.878   6.080 -0.5490  0.1111 -0.0332
  424MOL0     C57159   2.168  10.966   5.942  0.6168 -0.5408  0.3912
  424MOL0     C57160   2.062  10.937   6.032  0.3607  0.8006 -0.0932
  424MOL0     C57161   1.924  10.944   5.984 -0.0524 -0.0770 -0.0665
  424MOL0     C57162   1.900  10.996   5.855  0.3504  0.2790 -0.4030
  424MOL0     O57163   1.773  11.020   5.816  0.2523 -0.6723 -0.3499
  424MOL0     C57164   1.659  10.983   5.904 -0.5011  0.0538  0.0540
  424MOL0     C57165   1.530  11.001   5.821  0.1945 -0.1763 -0.5322
  424MOL0     C57166   1.402  10.937   5.891  0.3193 -0.2567  1.3944
  424MOL0     C57167   1.376  10.999   6.029 -0.9304  0.6244 -1.0786
  424MOL0     C57168   1.422  11.144   6.031  0.0041 -0.1675  0.0166
  424MOL0     C57169   1.449  11.264   6.045  0.0974  0.3038  0.1449
  424MOL0     C57170   2.008  11.046   5.782  0.5949 -0.3585  0.0865
  424MOL0     C57171   2.144  11.035   5.824  0.6553 -0.6779  0.4629
  424MOL0     C57172   2.252  11.089   5.726  0.5806 -0.1209  0.5334
  424MOL0     H57173   2.556  10.844   5.746 -0.4709  1.4902  0.1634
  424MOL0     H57174   2.774  10.734   5.790  2.0417 -0.4320  1.7551
  424MOL0     H57175   2.982  10.790   6.141  0.7367 -0.8348 -0.7884
  424MOL0     H57176   2.868  10.682   6.226 -1.9506  4.6264 -0.3397
  424MOL0     H57177   3.141  10.642   6.080 -1.4338  0.8707 -2.1325
  424MOL0     H57178   3.041  10.506   6.092 -2.1720  0.2376  1.6964
  424MOL0     H57179   3.040  10.552   6.346  0.0306 -0.2852  0.7765
  424MOL0     H57180   3.179  10.664   6.312 -0.1246  0.7174 -1.3719
  424MOL0     H57181   3.151  10.373   6.274 -0.9392  0.4778 -1.1597
  424MOL0     H57182   3.298  10.463   6.203  1.1198 -0.6580  0.9974
  424MOL0     H57183   3.342  10.548   6.425 -1.6503  1.2689 -0.0007
  424MOL0     H57184   3.222  10.457   6.507 -2.0250  1.9035 -1.5497
  424MOL0     H57185   3.295  10.239   6.428 -2.9208  2.0557 -2.0757
  424MOL0     H57186   3.433  10.308   6.350 -1.9035  3.4567 -2.0537
  424MOL0     H57187   3.383  10.280   6.655  1.1780 -1.7035 -0.0688
  424MOL0     H57188   3.490  10.407   6.597 -2.4547  1.8810 -0.6920
  424MOL0     H57189   3.491  10.109   6.546 -0.7885  1.1822  0.8769
  424MOL0     H57190   3.601  10.205   6.450  1.3446  0.8749  0.3042
  424MOL0     H57191   3.749  10.012   6.621 -0.9038  2.3184 -0.8219
  424MOL0     H57192   3.895  10.079   6.966 -0.6688 -2.1598 -0.1718
  424MOL0     H57193   3.901   9.953   6.852  1.4206 -0.7531 -0.6478
  424MOL0     H57194   4.057  10.114   6.707 -1.8926  3.8129  0.1232
  424MOL0     H57195   4.085  10.197   6.857 -0.8549  0.5039  0.0394
  424MOL0     H57196   4.105   9.990   6.978 -0.0571  0.7755 -0.3356
  424MOL0     H57197   4.250  10.049   6.899  0.3176 -0.5613  1.3276
  424MOL0     H57198   4.234   9.901   6.708  2.4226  0.1492  0.7885
  424MOL0     H57199   4.088   9.823   6.780 -1.0416  0.9400 -0.4820
  424MOL0     H57200   4.442   9.943   6.699  2.1169  0.5021 -1.0302
  424MOL0     H57201   4.668   9.965   6.734  2.3793 -1.0358  1.4827
  424MOL0     H57202   5.058   9.626   6.979  4.3680 -0.4860 -1.2721
  424MOL0     H57203   5.296   9.618   7.002 -1.9436 -0.8660  0.8710
  424MOL0     H57204   5.476   9.619   7.190  1.9343  0.9104  1.3351
  424MOL0     H57205   5.511   9.639   7.011 -1.0970  1.3460  0.9478
  424MOL0     H57206   5.654   9.751   7.252 -2.4375  0.2942 -0.2311
  424MOL0     H57207   5.721   9.618   7.149 -0.1677 -0.0620  2.9503
  424MOL0     H57208   5.680   9.811   6.967 -0.9399 -3.1349  0.4858
  424MOL0     H57209   5.707   9.926   7.102  2.2808  0.0083 -0.7242
  424MOL0     H57210   5.925   9.738   7.004 -0.4142 -0.5068  1.1054
  424MOL0     H57211   5.916   9.815   7.165 -0.6675  1.3776  0.4793
  424MOL0     H57212   5.874  10.033   7.028  1.9889  2.4892 -1.0563
  424MOL0     H57213   5.893   9.946   6.881  1.8184  2.9231 -0.3377
  424MOL0     H57214   6.093  10.085   6.984  0.1393 -0.3476  0.2644
  424MOL0     H57215   6.100   9.947   7.101  0.3331  0.3806  0.6427
  424MOL0     H57216   6.141   9.924   6.794  0.0876  2.1547  0.5436
  424MOL0     H57217   6.124   9.786   6.907  1.4696 -0.0432  3.7000
  424MOL0     H57218   6.328   9.866   7.041  0.7082 -0.4126  0.2319
  424MOL0     H57219   6.345   9.807   6.882 -2.4029  0.8075  0.3085
  424MOL0     H57220   5.291   9.990   7.203 -1.5427 -2.5526  3.9842
  424MOL0     H57221   5.042  10.008   7.173  0.4510  0.3320  0.2272
  424MOL0     H57222   4.658   9.700   7.068 -0.0859 -1.8657 -1.3815
  424MOL0     H57223   4.412   9.685   7.046  2.2704 -0.9639  1.5443
  424MOL0     H57224   2.720  10.812   6.206 -2.3538 -0.8270  1.4515
  424MOL0     H57225   2.516  10.930   6.162 -0.3726  1.7875 -0.9364
  424MOL0     H57226   2.097  10.912   6.131 -0.3933  2.8414  0.7397
  424MOL0     H57227   1.844  10.926   6.056  1.6654 -1.1557  1.6735
  424MOL0     H57228   1.662  11.042   5.996  0.5248  3.7697 -2.1115
  424MOL0     H57229   1.666  10.877   5.929 -0.1151 -0.4901 -2.1541
  424MOL0     H57230   1.537  10.954   5.722  0.0232 -0.1241 -0.5709
  424MOL0     H57231   1.514  11.108   5.802  1.8409  0.7615  2.6652
  424MOL0     H57232   1.410  10.828   5.890  0.9994 -0.2082  1.4144
  424MOL0     H57233   1.316  10.951   5.824  0.6630 -0.1694  0.9665
  424MOL0     H57234   1.273  10.983   6.060 -1.1902  0.1509 -2.1476
  424MOL0     H57235   1.441  10.945   6.099 -1.0247 -0.1608 -1.5793
  424MOL0     H57236   1.470  11.369   6.051 -1.6362  0.6339  1.1101
  424MOL0     H57237   1.995  11.109   5.694 -0.0621 -0.4103  0.1354
  424MOL0     H57238   2.311  11.169   5.771  1.3188  0.2028 -0.9649
  424MOL0     H57239   2.311  11.002   5.698  1.0091 -0.0350  1.1511
  424MOL0     H57240   2.197  11.128   5.640 -3.0875 -0.2239  2.6356
  425MOL0     O57241  10.111  10.003  10.482  0.3591  0.0828  0.2536
  425MOL0     C57242  10.105  10.103  10.556  0.1373 -0.5441  0.1880
  425MOL0     O57243  10.209  10.150  10.625 -0.0233 -0.6573  0.5392
  425MOL0     C57244  10.335  10.083  10.617  0.1436 -0.7827 -0.0712
  425MOL0     C57245  10.334   9.943  10.641  0.4475 -0.1886 -0.3147
  425MOL0     C57246  10.458   9.880  10.630  0.0285 -0.5923 -0.7094
  425MOL0     C57247  10.574   9.953  10.592 -0.2513  0.4405  0.6099
  425MOL0     O57248  10.684   9.885  10.617 -1.0335 -1.4413 -0.3271
  425MOL0     C57249  10.813   9.944  10.654  0.1092 -0.1234 -0.1768
  425MOL0     C57250  10.889   9.989  10.530 -0.2631  0.4726  0.3005
  425MOL0     C57251  11.031  10.020  10.566  0.3455 -0.5023 -1.3917
  425MOL0     C57252  11.121   9.905  10.634  0.3047  0.3086 -0.5119
  425MOL0     C57253  11.277   9.940  10.641 -0.0407  0.2676  0.1402
  425MOL0     C57254  11.339   9.932  10.501  0.2945 -0.0429  0.2279
  425MOL0     C57255  11.500   9.937  10.504  0.4784 -0.1448  0.0240
  425MOL0     C57256  11.568   9.886  10.375 -1.2466  0.5623  0.9884
  425MOL0     N57257  11.717   9.907  10.389  0.4486 -0.0988  0.2027
  425MOL0     C57258  11.778  10.027  10.381  0.0418  0.5513 -0.2736
  425MOL0     C57259  11.908   9.993  10.375  0.5688 -0.9759  0.9851
  425MOL0     C57260  12.009  10.108  10.364 -0.6829  0.3106 -0.7050
  425MOL0     C57261  12.052  10.177  10.495 -0.8231 -0.3111 -0.5073
  425MOL0     C57262  12.118  10.102  10.609  0.2395  0.4533 -0.4082
  425MOL0     C57263  12.267  10.084  10.576 -0.2930  0.0659  0.2595
  425MOL0     O57264  12.342  10.075  10.701 -0.0363  0.1176  0.3272
  425MOL0     C57265  12.478  10.049  10.700 -0.0431  0.5210 -0.8998
  425MOL0     C57266  12.539  10.020  10.824 -0.0153 -0.6032  0.1197
  425MOL0     C57267  12.669   9.973  10.831  0.4097  0.5271 -0.1446
  425MOL0     C57268  12.754   9.976  10.709 -0.1359  1.5821 -0.0951
  425MOL0     C57269  12.887   9.921  10.713 -0.3294 -0.4203  0.8232
  425MOL0     O57270  12.958   9.911  10.602  0.0443 -0.5568 -0.3288
  425MOL0     C57271  13.096   9.906  10.619 -0.1830 -0.0151  0.1625
  425MOL0     C57272  13.180  10.013  10.588 -1.0864  0.3561 -0.4597
  425MOL0     C57273  13.322   9.991  10.599  0.5601  0.0067  0.5732
  425MOL0     C57274  13.373   9.869  10.638 -1.0851  0.0574  0.1638
  425MOL0     O57275  13.502   9.827  10.621 -0.1412 -0.1003  0.4693
  425MOL0     C57276  13.604   9.918  10.653 -0.5271  0.8223 -0.4119
  425MOL0     C57277  13.729   9.847  10.708 -0.6215 -0.2038  0.6667
  425MOL0     C57278  13.818   9.773  10.608 -0.3488 -0.4101  0.0659
  425MOL0     C57279  13.894   9.867  10.511 -0.1855 -0.1461 -0.0665
  425MOL0     C57280  13.989   9.786  10.435  1.0786 -0.2798  0.8509
  425MOL0     C57281  14.070   9.870  10.337  0.2332  0.1851  0.6048
  425MOL0     C57282  14.160   9.791  10.248 -0.0244 -0.1218  0.8533
  425MOL0     C57283  14.239   9.852  10.140  0.8286  1.0820 -0.5457
  425MOL0    Cl57284  14.321  10.005  10.182 -0.0422  0.3292 -0.0434
  425MOL0     C57285  13.290   9.760  10.662 -0.9931  0.3171 -0.4016
  425MOL0     C57286  13.153   9.777  10.648 -0.1041  0.2435  0.3648
  425MOL0     O57287  12.927   9.904  10.826 -0.3466  0.0238  0.0621
  425MOL0     C57288  12.694  10.020  10.599 -0.0781 -0.1065  0.2080
  425MOL0     C57289  12.558  10.065  10.592  0.4860 -0.6571  0.1666
  425MOL0     N57290  11.929   9.859  10.385  0.4758  0.2724  0.0062
  425MOL0     N57291  11.813   9.806  10.383  0.9796 -0.7650 -0.5240
  425MOL0     C57292  10.577  10.093  10.584  0.0597 -0.0467  0.0820
  425MOL0     C57293  10.455  10.161  10.597  0.4211  0.3495  0.2798
  425MOL0     C57294   9.979  10.181  10.586 -0.6092  1.2416 -0.0041
  425MOL0     C57295   9.994  10.322  10.617  0.2883  0.0523  0.2260
  425MOL0     C57296   9.880  10.403  10.628 -0.1771  0.2399 -0.4378
  425MOL0     C57297   9.755  10.341  10.621 -0.1432 -0.9388 -0.3063
  425MOL0     O57298   9.625  10.390  10.648 -0.3067  0.8164  0.4939
  425MOL0     C57299   9.594  10.528  10.632  0.2986  0.3942 -0.5753
  425MOL0     C57300   9.617  10.575  10.494  0.9718  0.0904 -0.0255
  425MOL0     C57301   9.488  10.554  10.415 -0.1124  1.0012 -0.3447
  425MOL0     C57302   9.479  10.626  10.286 -1.0298  1.1036 -0.2111
  425MOL0     C57303   9.583  10.570  10.201 -0.4515 -0.9046 -0.1261
  425MOL0     C57304   9.653  10.527  10.116 -0.5814 -1.0646 -0.3674
  425MOL0     C57305   9.741  10.210  10.592 -1.2665  0.1809 -0.5146
  425MOL0     C57306   9.846  10.124  10.579 -0.2371  0.3686  0.2568
  425MOL0     C57307   9.824   9.982  10.539  0.4663 -0.7625 -0.1060
  425MOL0     H57308  10.242   9.892  10.668  1.5958 -2.3672 -0.3731
  425MOL0     H57309  10.454   9.772  10.627 -1.6261 -0.5572 -0.7128
  425MOL0     H57310  10.813  10.024  10.729  2.0914  0.3112 -0.5701
  425MOL0     H57311  10.865   9.855  10.691  2.2505  0.5753 -1.3084
  425MOL0     H57312  10.846  10.077  10.480 -1.5986  0.4376  1.3429
  425MOL0     H57313  10.886   9.902  10.464  0.7464  1.1666 -0.6934
  425MOL0     H57314  11.022  10.104  10.635  1.0335 -0.7848 -0.9421
  425MOL0     H57315  11.066  10.051  10.466 -0.4091  1.8612 -0.9938
  425MOL0     H57316  11.090   9.887  10.738 -2.9528  1.1029 -1.2122
  425MOL0     H57317  11.111   9.815  10.572 -0.0752  0.4692 -0.6858
  425MOL0     H57318  11.289  10.041  10.682 -2.4639 -0.8050  3.9785
  425MOL0     H57319  11.328   9.868  10.705  1.6893  2.0133  0.8402
  425MOL0     H57320  11.319   9.836  10.453  2.8278 -0.0010 -1.0888
  425MOL0     H57321  11.299  10.016  10.443 -1.3520 -1.7960 -1.3154
  425MOL0     H57322  11.543   9.878  10.585  0.5379  1.2166  1.0008
  425MOL0     H57323  11.519  10.043  10.519 -0.9515  0.2331 -0.6062
  425MOL0     H57324  11.555   9.778  10.366 -0.4170  0.5253  0.0840
  425MOL0     H57325  11.533   9.940  10.286  5.1660 -0.5536 -2.7970
  425MOL0     H57326  11.728  10.123  10.368 -0.3161  0.4554  0.3665
  425MOL0     H57327  12.103  10.064  10.328  0.0972  2.4331 -1.4680
  425MOL0     H57328  11.967  10.179  10.292 -1.3095 -0.6393 -1.3034
  425MOL0     H57329  12.118  10.254  10.454 -2.2378  1.1681 -0.1296
  425MOL0     H57330  11.960  10.216  10.540 -2.6882 -4.5181 -0.1455
  425MOL0     H57331  12.066  10.013  10.644 -2.2290  2.2858  0.9439
  425MOL0     H57332  12.112  10.174  10.691 -3.0351 -2.8961  2.6157
  425MOL0     H57333  12.302  10.174  10.523 -0.1139  0.5346  1.1507
  425MOL0     H57334  12.275  10.010  10.495 -2.5124  1.3160 -1.2355
  425MOL0     H57335  12.485  10.021  10.918  0.7930 -1.2318  0.6081
  425MOL0     H57336  12.713   9.946  10.926  0.9448  2.4474  0.2002
  425MOL0     H57337  13.135  10.106  10.555 -2.7218 -0.9829 -2.3361
  425MOL0     H57338  13.391  10.066  10.559 -0.0944  0.4179  0.1912
  425MOL0     H57339  13.640   9.979  10.569 -3.5591  1.4665 -1.3837
  425MOL0     H57340  13.585   9.980  10.741  0.7577  2.1046 -0.9857
  425MOL0     H57341  13.787   9.925  10.757 -2.4446  0.0704  2.5426
  425MOL0     H57342  13.696   9.774  10.782 -0.9981 -2.5651 -1.6693
  425MOL0     H57343  13.895   9.713  10.658  1.6735  0.3977 -1.9115
  425MOL0     H57344  13.762   9.693  10.559  1.7260 -1.1228 -1.3316
  425MOL0     H57345  13.958   9.936  10.567  1.0704 -1.4125  0.1241
  425MOL0     H57346  13.839   9.939  10.449 -1.6026 -1.6914 -0.6886
  425MOL0     H57347  13.943   9.699  10.389 -0.9726  1.3694 -0.3557
  425MOL0     H57348  14.062   9.747  10.507  0.9500 -0.0689  1.0966
  425MOL0     H57349  14.000   9.923  10.271  1.1491  0.0543 -0.5065
  425MOL0     H57350  14.136   9.939  10.389  0.7750 -0.3604  0.6458
  425MOL0     H57351  14.087   9.725  10.200  0.5899 -0.1186 -0.1099
  425MOL0     H57352  14.227   9.730  10.310  1.4684 -0.0528 -0.6330
  425MOL0     H57353  14.321   9.788  10.106  0.0671 -0.4552  0.4152
  425MOL0     H57354  14.177   9.871  10.052  2.2642 -0.0133 -1.8556
  425MOL0     H57355  13.335   9.662  10.664  0.0372  0.6390 -3.0839
  425MOL0     H57356  13.096   9.686  10.662  3.5167 -2.2062  0.4641
  425MOL0     H57357  12.754  10.019  10.508 -2.3550  1.2651 -1.3993
  425MOL0     H57358  12.510  10.101  10.502  0.4526  1.1728  0.8869
  425MOL0     H57359  10.667  10.142  10.548  0.3734 -0.2564  0.5747
  425MOL0     H57360  10.448  10.269  10.587  0.5536  0.4826  1.4820
  425MOL0     H57361  10.091  10.369  10.606 -0.4999  2.4441  2.5725
  425MOL0     H57362   9.885  10.511  10.629  0.7418  0.2111  0.4477
  425MOL0     H57363   9.636  10.594  10.708 -0.9519  1.3164 -0.6579
  425MOL0     H57364   9.489  10.527  10.664  0.1427 -0.9359 -1.0280
  425MOL0     H57365   9.707  10.529  10.451  0.0586 -0.7473 -1.0810
  425MOL0     H57366   9.649  10.680  10.497  0.6781  0.1581  0.8685
  425MOL0     H57367   9.402  10.584  10.476 -1.2350 -0.8548 -0.9420
  425MOL0     H57368   9.462  10.449  10.402 -3.2380  1.7584 -0.8246
  425MOL0     H57369   9.386  10.597  10.235  0.2855 -0.8493 -1.6788
  425MOL0     H57370   9.483  10.735  10.292  0.5388  1.1307 -1.2139
  425MOL0     H57371   9.729  10.487  10.051  1.0020  0.5700  0.3957
  425MOL0     H57372   9.642  10.168  10.578 -0.9942 -1.1524  1.2365
  425MOL0     H57373   9.835   9.975  10.431  1.0023  0.7102 -0.1678
  425MOL0     H57374   9.882   9.902  10.586 -2.1488 -2.4605  0.4283
  425MOL0     H57375   9.718   9.958  10.547 -0.1108 -0.3631 -4.4679
  426MOL0     O57376   4.475  10.135   8.101  0.2046  0.8699 -0.8243
  426MOL0     C57377   4.441  10.156   8.218  0.4947 -0.5547 -0.3970
  426MOL0     O57378   4.520  10.202   8.326  0.2190 -1.4685  0.6575
  426MOL0     C57379   4.626  10.275   8.289 -0.6997  0.5236  0.5483
  426MOL0     C57380   4.754  10.214   8.279  0.4342  0.0863 -0.1598
  426MOL0     C57381   4.870  10.291   8.249 -0.0578  0.0733 -0.7586
  426MOL0     C57382   4.850  10.431   8.240 -0.7379 -0.1732  0.5327
  426MOL0     O57383   4.971  10.493   8.220 -1.1927 -0.1000  0.9940
  426MOL0     C57384   4.973  10.632   8.174  0.6643  0.4958 -0.1956
  426MOL0     C57385   5.056  10.702   8.276  1.0097 -0.1175  0.3477
  426MOL0     C57386   5.092  10.856   8.240 -0.0601  0.6337  0.4369
  426MOL0     C57387   5.193  10.914   8.341  0.0406 -0.8333  0.4257
  426MOL0     C57388   5.217  11.069   8.317  0.2835  0.1752  0.6149
  426MOL0     C57389   5.336  11.105   8.402 -0.4228 -0.6654  0.6430
  426MOL0     C57390   5.436  11.198   8.327 -0.4221 -0.2260  0.5528
  426MOL0     C57391   5.553  11.230   8.415  0.3056  0.3397 -1.3656
  426MOL0     N57392   5.650  11.315   8.344  0.7639  0.5024  0.5650
  426MOL0     C57393   5.768  11.270   8.301 -0.7588  0.2094  0.6520
  426MOL0     C57394   5.823  11.370   8.219 -0.2899  1.0612 -0.7689
  426MOL0     C57395   5.950  11.371   8.136 -0.4791 -0.0934 -0.4668
  426MOL0     C57396   5.924  11.347   7.986  0.5401  0.1833 -1.1493
  426MOL0     C57397   6.046  11.354   7.896 -0.1120 -0.5202 -0.1382
  426MOL0     C57398   6.118  11.214   7.884  0.0306 -0.4968  0.9973
  426MOL0     O57399   6.210  11.214   7.768  0.5586  0.1747  0.7363
  426MOL0     C57400   6.334  11.150   7.768 -0.1320  0.4561  0.5876
  426MOL0     C57401   6.369  11.060   7.867 -0.4935 -0.1456  0.2811
  426MOL0     C57402   6.500  11.016   7.867 -0.2465 -0.4599 -0.5058
  426MOL0     C57403   6.588  11.053   7.768  0.2496  0.6880  0.3288
  426MOL0     C57404   6.723  10.998   7.764 -1.3928  0.2807 -0.0806
  426MOL0     O57405   6.741  10.891   7.842 -0.3144  0.2124 -0.1455
  426MOL0     C57406   6.865  10.826   7.853 -0.0210  0.4374  0.3847
  426MOL0     C57407   6.983  10.896   7.869  0.1416  0.6805 -0.8305
  426MOL0     C57408   7.098  10.833   7.887 -0.3573  0.6838  0.5187
  426MOL0     C57409   7.097  10.687   7.898 -0.5163 -0.1595  0.0314
  426MOL0     O57410   7.215  10.625   7.916 -0.4051 -0.0849  0.0954
  426MOL0     C57411   7.230  10.501   7.849 -0.8132  0.2755  0.1481
  426MOL0     C57412   7.387  10.467   7.855  0.8217  0.1136 -0.2388
  426MOL0     C57413   7.461  10.578   7.772  0.2852  0.6160 -0.8610
  426MOL0     C57414   7.619  10.563   7.802  0.5053 -0.0971  0.3040
  426MOL0     C57415   7.697  10.678   7.737 -0.1586  0.6340  0.6231
  426MOL0     C57416   7.828  10.649   7.677 -0.3962  0.5015  0.3368
  426MOL0     C57417   7.894  10.770   7.621 -0.9871 -0.4087 -0.6272
  426MOL0     C57418   7.814  10.833   7.506  0.4685 -0.2555 -0.3655
  426MOL0    Cl57419   7.749  10.730   7.377 -0.2719  0.5436  0.5200
  426MOL0     C57420   6.975  10.621   7.877 -0.4091  0.1565 -0.1330
  426MOL0     C57421   6.859  10.690   7.856 -0.2810 -0.5105 -0.0785
  426MOL0     O57422   6.809  11.038   7.681  0.6356  0.0070  0.3098
  426MOL0     C57423   6.542  11.134   7.665  0.0554  0.2556 -0.9349
  426MOL0     C57424   6.419  11.191   7.666  0.1129  0.4601 -0.4643
  426MOL0     N57425   5.724  11.472   8.220  0.2978 -0.3421 -0.4232
  426MOL0     N57426   5.628  11.439   8.303 -0.6086 -0.3095 -0.4472
  426MOL0     C57427   4.718  10.486   8.232  0.4290  0.3699 -0.0983
  426MOL0     C57428   4.608  10.406   8.257 -0.1141  0.7545 -0.4670
  426MOL0     C57429   4.293  10.133   8.252  0.4558 -0.0930 -1.5510
  426MOL0     C57430   4.250  10.134   8.383  0.5241  0.1825 -0.4783
  426MOL0     C57431   4.118  10.102   8.431  0.5094  0.1177 -0.1854
  426MOL0     C57432   4.020  10.070   8.343  0.8061  0.7650 -0.2237
  426MOL0     O57433   3.896  10.011   8.364  0.1191  0.0406 -0.5266
  426MOL0     C57434   3.860   9.956   8.493  0.9603  0.4763 -0.5680
  426MOL0     C57435   3.751   9.851   8.486 -0.1331 -0.0599 -0.6528
  426MOL0     C57436   3.611   9.915   8.480  0.0218 -0.2172  1.2717
  426MOL0     C57437   3.530   9.893   8.605  0.3573  0.1848 -0.9884
  426MOL0     C57438   3.393   9.940   8.575 -0.5444  0.0908 -0.3398
  426MOL0     C57439   3.281   9.976   8.556 -0.7385  0.4714  0.6000
  426MOL0     C57440   4.057  10.076   8.207 -0.1420  0.3164  0.3779
  426MOL0     C57441   4.191  10.108   8.165 -0.4344 -0.4309  0.6292
  426MOL0     C57442   4.199  10.101   8.016  0.1514  0.4734  0.0456
  426MOL0     H57443   4.758  10.107   8.300 -0.3008 -0.0087 -0.4662
  426MOL0     H57444   4.971  10.252   8.251  0.0958  0.3565  2.4522
  426MOL0     H57445   5.030  10.636   8.081  3.3462 -1.7788  1.2104
  426MOL0     H57446   4.873  10.677   8.181  0.3163 -0.2343 -0.4122
  426MOL0     H57447   5.148  10.647   8.299  1.4437  1.1904  1.9941
  426MOL0     H57448   5.006  10.705   8.373  2.4266 -1.9851  1.2069
  426MOL0     H57449   4.998  10.911   8.249 -1.0062 -0.8808  0.1496
  426MOL0     H57450   5.135  10.865   8.140  1.3122 -0.0077  0.9518
  426MOL0     H57451   5.142  10.904   8.438 -0.7225  0.4346  0.1808
  426MOL0     H57452   5.288  10.866   8.317  1.0357  1.5203 -0.6589
  426MOL0     H57453   5.232  11.091   8.211 -3.0174  0.6391  0.1108
  426MOL0     H57454   5.126  11.123   8.347  0.6055  1.2903 -0.3435
  426MOL0     H57455   5.301  11.158   8.491  1.5571 -0.2502  1.2276
  426MOL0     H57456   5.389  11.016   8.439  1.4375  1.2606  3.0585
  426MOL0     H57457   5.382  11.291   8.306  2.3864  1.3828  0.0033
  426MOL0     H57458   5.474  11.159   8.232 -0.0563  1.4556 -0.0189
  426MOL0     H57459   5.524  11.287   8.504  2.8240  1.2755 -1.0490
  426MOL0     H57460   5.596  11.137   8.451  1.6610  1.0454 -1.0731
  426MOL0     H57461   5.808  11.170   8.310 -1.2091 -0.1664 -1.0313
  426MOL0     H57462   6.002  11.467   8.146  0.1545 -0.6161  1.6661
  426MOL0     H57463   6.010  11.286   8.172 -0.5089 -0.2996 -0.8966
  426MOL0     H57464   5.870  11.253   7.974 -3.7519  2.3212 -0.4006
  426MOL0     H57465   5.853  11.422   7.950  0.1005  0.7788  0.8343
  426MOL0     H57466   6.119  11.429   7.926  0.1942 -1.0001  0.3470
  426MOL0     H57467   6.002  11.381   7.800 -0.4028  2.3407  0.7032
  426MOL0     H57468   6.050  11.130   7.865  1.2220 -1.2669 -0.1169
  426MOL0     H57469   6.184  11.195   7.969  0.1687 -2.1793  0.5655
  426MOL0     H57470   6.311  11.037   7.956 -0.7669 -1.5261 -0.2291
  426MOL0     H57471   6.539  10.954   7.947  2.1163 -1.4001 -2.2469
  426MOL0     H57472   6.986  11.003   7.850 -1.2660  0.3173 -3.6584
  426MOL0     H57473   7.185  10.898   7.897  0.6849 -0.7232  0.8393
  426MOL0     H57474   7.185  10.417   7.903 -2.7140  1.6095  0.7583
  426MOL0     H57475   7.186  10.506   7.749 -3.2081 -0.6360  1.0892
  426MOL0     H57476   7.416  10.491   7.957  0.3019  0.4744 -0.1713
  426MOL0     H57477   7.411  10.362   7.834 -0.0414  0.2312 -2.0383
  426MOL0     H57478   7.448  10.560   7.664  1.7762  0.9911 -1.1155
  426MOL0     H57479   7.414  10.674   7.793 -0.4275  0.5952 -2.1990
  426MOL0     H57480   7.661  10.468   7.769 -0.4992 -0.6407  0.5529
  426MOL0     H57481   7.637  10.577   7.909 -0.0818  1.4949  0.2210
  426MOL0     H57482   7.707  10.765   7.802  0.6920  0.8163  0.2681
  426MOL0     H57483   7.632  10.709   7.655  0.9091  0.0105 -0.4860
  426MOL0     H57484   7.893  10.608   7.755 -1.0980 -2.3221 -0.4469
  426MOL0     H57485   7.821  10.580   7.593  0.5933  1.7762 -0.8558
  426MOL0     H57486   7.995  10.752   7.583  0.1469  0.6649  1.7365
  426MOL0     H57487   7.899  10.853   7.692  3.2643 -1.7464  0.8872
  426MOL0     H57488   7.727  10.878   7.554 -0.3062 -2.2077  0.1322
  426MOL0     H57489   7.880  10.913   7.471  2.2521 -1.9361 -1.0053
  426MOL0     H57490   6.967  10.515   7.852 -0.4893  0.9031 -3.7180
  426MOL0     H57491   6.767  10.641   7.827  0.5635 -1.2911 -1.5518
  426MOL0     H57492   6.595  11.159   7.574  0.2039 -3.6647 -2.1324
  426MOL0     H57493   6.377  11.262   7.595 -0.2893  1.0108  0.2973
  426MOL0     H57494   4.700  10.592   8.217  0.2738  0.2438 -0.8530
  426MOL0     H57495   4.507  10.447   8.267  0.4251  2.4559 -1.5249
  426MOL0     H57496   4.320  10.163   8.461  0.1834  4.2224 -1.4424
  426MOL0     H57497   4.114  10.100   8.540  0.9450 -1.4254 -0.1777
  426MOL0     H57498   3.815  10.036   8.552  4.1231  1.3606  0.8888
  426MOL0     H57499   3.943   9.912   8.549 -0.2093 -1.5420 -0.3499
  426MOL0     H57500   3.745   9.788   8.575 -2.0556 -1.1721 -1.5156
  426MOL0     H57501   3.779   9.784   8.405  4.4195  0.4248  0.2300
  426MOL0     H57502   3.553   9.868   8.400 -2.7484  4.2511  0.2636
  426MOL0     H57503   3.631  10.021   8.463 -0.4020 -0.4465 -1.0466
  426MOL0     H57504   3.529   9.785   8.623 -1.1840  0.2952 -0.2733
  426MOL0     H57505   3.567   9.958   8.684 -0.4136  0.3859 -0.7796
  426MOL0     H57506   3.182  10.007   8.530 -1.6569 -1.9292  0.9454
  426MOL0     H57507   3.985  10.062   8.127  1.1270  1.0696 -0.9435
  426MOL0     H57508   4.108  10.050   7.982 -0.3497 -0.2749  2.3277
  426MOL0     H57509   4.221  10.199   7.974 -0.9480 -0.3523 -2.6955
  426MOL0     H57510   4.283  10.035   7.992 -0.7096  0.1150 -2.1900
  427MOL0     O57511   0.432  10.538   2.285  0.1166 -0.6097  0.6347
  427MOL0     C57512   0.367  10.569   2.186  0.0484  0.4876 -0.0138
  427MOL0     O57513   0.410  10.571   2.060 -0.3329  0.3626 -0.6998
  427MOL0     C57514   0.548  10.571   2.035 -0.2073  0.1003  0.3369
  427MOL0     C57515   0.614  10.447   2.025 -0.1281 -0.7972  0.1681
  427MOL0     C57516   0.752  10.446   1.989 -0.8039 -0.3836 -0.8686
  427MOL0     C57517   0.822  10.563   1.987  0.0441  0.4754  0.6457
  427MOL0     O57518   0.960  10.554   1.947 -0.1822  0.4622 -0.9030
  427MOL0     C57519   1.017  10.641   1.844  1.0263  0.5702 -0.5982
  427MOL0     C57520   1.130  10.561   1.772 -0.4754 -0.5859 -0.2650
  427MOL0     C57521   1.231  10.504   1.881 -0.1078 -0.1714  0.4092
  427MOL0     C57522   1.368  10.455   1.827 -0.0232 -0.8771  0.2084
  427MOL0     C57523   1.456  10.380   1.931 -0.2868 -0.0879 -0.5737
  427MOL0     C57524   1.599  10.379   1.879  0.4395 -0.1641  0.0662
  427MOL0     C57525   1.687  10.476   1.952 -0.6581 -0.1792  1.5973
  427MOL0     C57526   1.818  10.495   1.878  0.5034  0.3626 -0.4775
  427MOL0     N57527   1.895  10.617   1.921  0.1468  0.6509 -0.2608
  427MOL0     C57528   2.034  10.619   1.913  0.1330 -0.8778 -0.1565
  427MOL0     C57529   2.060  10.744   1.971 -0.4213  0.2746  0.2769
  427MOL0     C57530   2.191  10.814   1.974 -0.6793 -0.1878  0.3680
  427MOL0     C57531   2.296  10.735   2.054  0.2168  1.1202  0.3203
  427MOL0     C57532   2.427  10.799   2.049 -0.8233  0.2153  0.0777
  427MOL0     C57533   2.522  10.788   2.164 -0.1970 -0.5551  0.4696
  427MOL0     O57534   2.559  10.652   2.172  0.6080  0.1292  0.1493
  427MOL0     C57535   2.656  10.601   2.260  0.0607 -0.5577  1.0477
  427MOL0     C57536   2.755  10.677   2.320 -0.1628 -0.5138  0.7684
  427MOL0     C57537   2.855  10.631   2.396 -0.4892  0.1138  0.0338
  427MOL0     C57538   2.859  10.493   2.427 -0.3081  1.2952 -0.5169
  427MOL0     C57539   2.975  10.449   2.506  0.2103  0.1088  0.2967
  427MOL0     O57540   3.043  10.543   2.589 -0.5505  0.1361  0.0445
  427MOL0     C57541   3.162  10.512   2.645  0.3885  0.0006 -0.3634
  427MOL0     C57542   3.255  10.415   2.589  0.1777  0.2408 -0.4426
  427MOL0     C57543   3.384  10.405   2.642  0.4208  0.5438 -1.1488
  427MOL0     C57544   3.419  10.480   2.757  0.7709  0.0909  0.1937
  427MOL0     O57545   3.539  10.459   2.822  0.7735 -0.5319  0.6351
  427MOL0     C57546   3.646  10.548   2.786  0.6237 -0.5169 -0.1005
  427MOL0     C57547   3.690  10.611   2.914 -0.1769 -0.5455  0.1335
  427MOL0     C57548   3.791  10.720   2.892  0.1065  0.3672 -1.0934
  427MOL0     C57549   3.918  10.673   2.846 -0.1276 -0.6583  0.1776
  427MOL0     C57550   4.004  10.789   2.788  0.6450  0.3090 -0.1153
  427MOL0     C57551   4.061  10.899   2.883  0.3167 -0.5258 -0.1031
  427MOL0     C57552   4.165  10.991   2.812  0.0167  0.3976 -0.0351
  427MOL0     C57553   4.101  11.072   2.695  0.7183  0.2840  0.1968
  427MOL0    Cl57554   4.097  10.967   2.551  0.1575  0.2233  0.1405
  427MOL0     C57555   3.323  10.567   2.815 -0.4917 -0.1600 -0.4814
  427MOL0     C57556   3.199  10.584   2.752  0.6851 -0.5730 -1.2832
  427MOL0     O57557   2.989  10.326   2.505 -0.4423  0.0382 -0.4210
  427MOL0     C57558   2.766  10.405   2.358  0.6562 -0.1050  0.3789
  427MOL0     C57559   2.669  10.457   2.274 -0.0049 -0.8527  1.2159
  427MOL0     N57560   1.938  10.815   1.994  0.0695 -0.8011  0.2086
  427MOL0     N57561   1.838  10.739   1.951 -0.1067  0.7761 -0.0447
  427MOL0     C57562   0.758  10.688   2.004  0.4088  0.3158  0.4748
  427MOL0     C57563   0.620  10.690   2.020  0.1264 -0.5543  0.3837
  427MOL0     C57564   0.226  10.585   2.197  0.3396 -0.2751  0.2020
  427MOL0     C57565   0.149  10.501   2.283 -0.1234 -0.5044  0.1425
  427MOL0     C57566   0.014  10.524   2.313  0.0008  0.4456 -0.6203
  427MOL0     C57567  -0.055  10.620   2.247 -0.9625 -0.0547 -0.1770
  427MOL0     O57568  -0.183  10.653   2.273 -0.3733  0.5111  0.6263
  427MOL0     C57569  -0.261  10.584   2.374  0.1300  0.6863 -0.0910
  427MOL0     C57570  -0.407  10.607   2.358  1.3864 -0.5814  1.0571
  427MOL0     C57571  -0.453  10.752   2.398 -0.0015 -0.2162 -0.6727
  427MOL0     C57572  -0.606  10.761   2.402 -0.5095 -1.0247  1.0971
  427MOL0     C57573  -0.670  10.711   2.281  0.0961  0.8321  1.1043
  427MOL0     C57574  -0.734  10.668   2.182  0.7658 -0.8579 -0.4183
  427MOL0     C57575   0.017  10.707   2.162  0.9573  0.1734 -0.6088
  427MOL0     C57576   0.151  10.688   2.140  1.4492  0.5719 -0.0619
  427MOL0     C57577   0.222  10.807   2.085  0.0358 -0.9184  0.3578
  427MOL0     H57578   0.552  10.358   2.033 -1.3070 -0.2233 -1.8379
  427MOL0     H57579   0.804  10.352   1.969  2.6896  1.5374 -1.5422
  427MOL0     H57580   0.942  10.683   1.777  0.7176  1.1917  0.1224
  427MOL0     H57581   1.061  10.731   1.889 -0.7301  1.0096  0.3316
  427MOL0     H57582   1.187  10.632   1.711  0.4149 -1.8223 -0.9244
  427MOL0     H57583   1.074  10.483   1.718  0.0420  0.5835 -2.6073
  427MOL0     H57584   1.180  10.417   1.924 -0.5745 -1.9849 -3.3415
  427MOL0     H57585   1.248  10.582   1.956 -0.5033  2.7587 -2.3612
  427MOL0     H57586   1.349  10.385   1.745 -1.9308  1.0571 -1.1119
  427MOL0     H57587   1.430  10.539   1.793 -1.6518 -0.4566 -1.9334
  427MOL0     H57588   1.454  10.424   2.031 -1.2957 -2.0423  0.3356
  427MOL0     H57589   1.418  10.277   1.937 -1.8913  0.5722  2.6560
  427MOL0     H57590   1.650  10.285   1.903  1.2507  0.7695  2.1911
  427MOL0     H57591   1.600  10.392   1.770 -2.0343 -0.3862 -0.0312
  427MOL0     H57592   1.705  10.446   2.056  0.2595  0.5564  1.6695
  427MOL0     H57593   1.645  10.576   1.957 -0.6646 -0.1561  1.0864
  427MOL0     H57594   1.868  10.403   1.911 -0.9400 -0.1916  0.2588
  427MOL0     H57595   1.813  10.511   1.770  1.1376  0.6442 -0.4688
  427MOL0     H57596   2.102  10.538   1.891 -1.4607 -2.0637 -0.9260
  427MOL0     H57597   2.224  10.831   1.871 -0.5777  1.8820  0.6936
  427MOL0     H57598   2.185  10.914   2.020 -1.1232  0.9237 -1.9633
  427MOL0     H57599   2.243  10.722   2.150 -3.3974 -0.2004 -1.6436
  427MOL0     H57600   2.296  10.630   2.022 -1.8583  0.8183  1.1197
  427MOL0     H57601   2.402  10.906   2.049  0.7588  0.6744  2.7723
  427MOL0     H57602   2.463  10.778   1.948  2.1215  5.5430 -0.3790
  427MOL0     H57603   2.477  10.819   2.259  3.1938  2.7394  1.2709
  427MOL0     H57604   2.607  10.857   2.159  0.9450 -1.5510  3.6818
  427MOL0     H57605   2.754  10.784   2.305 -1.2896 -0.5165  0.6715
  427MOL0     H57606   2.920  10.707   2.439 -0.3220 -0.0823  0.1238
  427MOL0     H57607   3.232  10.346   2.508  2.5327  1.6130 -2.4407
  427MOL0     H57608   3.458  10.332   2.612  3.2840  3.3818 -1.5725
  427MOL0     H57609   3.727  10.489   2.742  0.8629  1.2475 -2.2261
  427MOL0     H57610   3.612  10.617   2.708  1.1932 -0.3995 -0.2539
  427MOL0     H57611   3.604  10.651   2.969  0.8183 -0.5434  1.7532
  427MOL0     H57612   3.738  10.529   2.967  0.0892 -0.2986  0.2763
  427MOL0     H57613   3.744  10.789   2.821 -0.6227  0.6495 -0.3496
  427MOL0     H57614   3.805  10.759   2.993 -1.3228 -2.4758  0.3006
  427MOL0     H57615   3.899  10.604   2.764  3.1856 -0.0744 -1.2662
  427MOL0     H57616   3.972  10.623   2.927  0.4101  0.2880  0.4292
  427MOL0     H57617   3.936  10.842   2.720 -1.2001 -0.0446  1.3646
  427MOL0     H57618   4.090  10.743   2.738  0.6896 -0.6733  0.8217
  427MOL0     H57619   3.979  10.959   2.924  0.8012  0.3452 -0.3634
  427MOL0     H57620   4.095  10.846   2.972  0.7155 -0.8865 -0.4628
  427MOL0     H57621   4.252  10.940   2.769  0.9647  1.1579  0.9317
  427MOL0     H57622   4.218  11.056   2.882  0.0142  2.4908 -1.8681
  427MOL0     H57623   4.006  11.116   2.724  1.8053  1.2070  2.6369
  427MOL0     H57624   4.163  11.162   2.686  1.3128 -0.0527  0.8434
  427MOL0     H57625   3.358  10.633   2.894 -0.3959 -1.3088  0.4635
  427MOL0     H57626   3.125  10.660   2.776  0.3991 -1.4618  0.8628
  427MOL0     H57627   2.772  10.297   2.360 -1.4621 -0.3133 -1.2426
  427MOL0     H57628   2.593  10.408   2.214  0.7165  0.9441 -1.3074
  427MOL0     H57629   0.815  10.780   2.008  0.2612  0.3935  0.7329
  427MOL0     H57630   0.570  10.784   2.039 -0.3961 -0.9100  0.7958
  427MOL0     H57631   0.202  10.433   2.349  0.3934  0.8276  1.1397
  427MOL0     H57632  -0.027  10.472   2.399 -0.1416  0.8009 -0.4728
  427MOL0     H57633  -0.238  10.604   2.480  2.7586  0.3485 -0.5317
  427MOL0     H57634  -0.245  10.476   2.366 -0.0007  0.7567 -1.4443
  427MOL0     H57635  -0.463  10.530   2.412 -0.6359  0.6545  0.8146
  427MOL0     H57636  -0.431  10.588   2.253  0.8334 -3.3271  1.6058
  427MOL0     H57637  -0.409  10.828   2.332  3.3725  0.9718  2.6030
  427MOL0     H57638  -0.422  10.767   2.502  1.1404 -0.1791 -0.9994
  427MOL0     H57639  -0.649  10.719   2.493 -2.9223  0.6680  0.8425
  427MOL0     H57640  -0.634  10.867   2.406 -0.6509 -0.9995 -0.1385
  427MOL0     H57641  -0.797  10.635   2.102  1.6726 -1.0447 -1.0660
  427MOL0     H57642  -0.036  10.788   2.111 -0.0960 -0.0144  0.1639
  427MOL0     H57643   0.150  10.888   2.067  2.2444  0.6362 -2.1405
  427MOL0     H57644   0.296  10.859   2.146 -0.4340  1.7970 -1.2338
  427MOL0     H57645   0.275  10.789   1.991  1.5490  3.5629  0.1482
  428MOL0     O57646   0.440   1.659   2.577 -0.2204 -0.5068 -0.0186
  428MOL0     C57647   0.438   1.544   2.553 -0.0618  0.5804  0.1783
  428MOL0     O57648   0.536   1.455   2.572  0.1124 -0.5592  0.9229
  428MOL0     C57649   0.663   1.497   2.594  0.0819  0.0137 -0.6184
  428MOL0     C57650   0.750   1.412   2.664 -0.0243 -0.2979 -0.0075
  428MOL0     C57651   0.888   1.453   2.694 -0.0591  0.9381 -0.2882
  428MOL0     C57652   0.939   1.572   2.637 -0.3183 -0.7360  0.0518
  428MOL0     O57653   1.061   1.640   2.655 -0.3920 -0.1172 -0.1378
  428MOL0     C57654   1.164   1.560   2.715  0.5890  0.3950  0.5892
  428MOL0     C57655   1.281   1.639   2.672  0.2325 -0.3960  0.3804
  428MOL0     C57656   1.291   1.790   2.710  0.3695  0.3338  0.3728
  428MOL0     C57657   1.438   1.827   2.708  0.6318 -0.1616  0.5033
  428MOL0     C57658   1.459   1.977   2.700 -0.3337 -0.3797 -0.1311
  428MOL0     C57659   1.469   2.041   2.832 -0.2308 -0.7729  0.1404
  428MOL0     C57660   1.512   2.190   2.816 -0.1978  0.7812 -0.2999
  428MOL0     C57661   1.535   2.265   2.945 -0.2996 -0.7537  0.4278
  428MOL0     N57662   1.579   2.408   2.930  0.2561 -0.7177  0.0388
  428MOL0     C57663   1.703   2.456   2.958 -0.3664 -1.0914 -0.4899
  428MOL0     C57664   1.710   2.577   2.904  0.2373  0.0539  0.2014
  428MOL0     C57665   1.812   2.689   2.901 -0.3463 -0.6322 -0.8380
  428MOL0     C57666   1.887   2.689   2.767 -0.3858 -0.5195  0.0612
  428MOL0     C57667   1.984   2.806   2.761 -0.1783  0.6346  0.0214
  428MOL0     C57668   2.052   2.815   2.621 -0.3683 -0.2489 -0.3707
  428MOL0     O57669   2.119   2.940   2.605  0.1643  0.2624 -0.0907
  428MOL0     C57670   2.237   2.947   2.670  0.0708 -0.5364  0.2594
  428MOL0     C57671   2.358   2.896   2.613  0.2897  1.3910 -0.3254
  428MOL0     C57672   2.479   2.905   2.683  0.1212  0.2586  0.9780
  428MOL0     C57673   2.493   2.978   2.809 -0.0143  0.4199  0.4673
  428MOL0     C57674   2.622   3.004   2.872  0.7304  0.0922  0.4743
  428MOL0     O57675   2.719   2.994   2.787 -0.2341  0.0241 -0.5259
  428MOL0     C57676   2.850   2.963   2.837  0.7916 -0.1718 -0.4311
  428MOL0     C57677   2.960   2.994   2.752 -0.7338 -0.0858  0.1602
  428MOL0     C57678   3.093   2.971   2.781  0.1548  0.6171  0.3101
  428MOL0     C57679   3.121   2.887   2.889 -0.4330 -0.6878  0.5986
  428MOL0     O57680   3.247   2.839   2.921  0.3461 -0.0586 -0.4165
  428MOL0     C57681   3.357   2.880   2.838 -1.0958  0.5313  0.1946
  428MOL0     C57682   3.487   2.835   2.899  0.3885  0.6630 -0.1570
  428MOL0     C57683   3.590   2.872   2.798 -0.6606  0.4122 -0.0208
  428MOL0     C57684   3.637   2.746   2.719  0.2315  0.0455  0.3487
  428MOL0     C57685   3.748   2.783   2.613 -0.8535  0.0903  0.0962
  428MOL0     C57686   3.843   2.658   2.582 -0.9482  0.3019 -0.1495
  428MOL0     C57687   3.957   2.712   2.492  0.3714 -0.2117  0.2532
  428MOL0     C57688   4.059   2.597   2.490  0.3524  0.1883 -0.3578
  428MOL0    Cl57689   4.193   2.635   2.392  0.2582 -0.3219 -0.0829
  428MOL0     C57690   3.017   2.861   2.984 -0.8366 -0.3151  0.7389
  428MOL0     C57691   2.889   2.908   2.959  0.3953  0.8966  0.9716
  428MOL0     O57692   2.628   3.039   2.992  0.0279  0.0328  0.1081
  428MOL0     C57693   2.370   3.018   2.865  0.9306 -0.2272  0.8816
  428MOL0     C57694   2.249   3.005   2.793 -1.0120  0.2737 -0.2134
  428MOL0     N57695   1.583   2.602   2.851  0.2606 -0.3032  0.1379
  428MOL0     N57696   1.510   2.502   2.869 -0.1620  0.1228 -0.2869
  428MOL0     C57697   0.854   1.655   2.567  0.3267 -0.1116  0.0822
  428MOL0     C57698   0.720   1.620   2.539 -0.3707  0.1165  0.8439
  428MOL0     C57699   0.300   1.495   2.525 -0.5007  0.3672 -0.4187
  428MOL0     C57700   0.293   1.390   2.437 -0.0098  0.1701  0.8585
  428MOL0     C57701   0.170   1.327   2.410 -0.5911 -0.1844 -0.0313
  428MOL0     C57702   0.051   1.370   2.458  0.0769 -0.2169  0.4998
  428MOL0     O57703  -0.061   1.302   2.407  0.0396 -0.0974 -0.0910
  428MOL0     C57704  -0.186   1.331   2.470  1.1928 -0.3647 -0.4031
  428MOL0     C57705  -0.277   1.208   2.454 -0.3349 -0.0578  0.7897
  428MOL0     C57706  -0.291   1.153   2.312 -0.3279 -0.1353 -0.1982
  428MOL0     C57707  -0.427   1.103   2.283 -0.0873 -0.2115  0.0459
  428MOL0     C57708  -0.481   1.004   2.369 -0.3805  1.2138 -1.2302
  428MOL0     C57709  -0.532   0.911   2.432 -0.5125 -0.6764 -0.5140
  428MOL0     C57710   0.054   1.479   2.548  0.4183  0.7761 -0.7065
  428MOL0     C57711   0.184   1.533   2.585 -0.4881  0.2003  1.0305
  428MOL0     C57712   0.178   1.638   2.678  0.4179  0.2837  0.1604
  428MOL0     H57713   0.697   1.326   2.705 -2.5837  0.5365 -1.2913
  428MOL0     H57714   0.953   1.393   2.757 -0.3571  1.9769  1.0619
  428MOL0     H57715   1.151   1.559   2.823 -2.1103 -0.9600  0.3417
  428MOL0     H57716   1.174   1.454   2.690  1.2460  0.5868 -0.0075
  428MOL0     H57717   1.307   1.636   2.566 -0.4668 -1.3082  0.2223
  428MOL0     H57718   1.365   1.587   2.718  2.4045  1.0390 -1.7487
  428MOL0     H57719   1.238   1.810   2.803 -1.2188 -0.3750 -0.3318
  428MOL0     H57720   1.240   1.846   2.631 -2.2780 -3.6459 -1.0536
  428MOL0     H57721   1.505   1.774   2.776 -0.7940 -3.3940 -0.3916
  428MOL0     H57722   1.475   1.785   2.614  0.7919 -0.3265  0.6389
  428MOL0     H57723   1.553   1.997   2.648  1.9545 -1.4804  3.1885
  428MOL0     H57724   1.375   2.027   2.650  0.1723 -1.4839 -2.1734
  428MOL0     H57725   1.377   2.035   2.891  0.1728  0.5267  0.9528
  428MOL0     H57726   1.542   1.985   2.892 -0.7408  0.8162  2.3939
  428MOL0     H57727   1.440   2.250   2.760 -0.9312  0.4254  0.2391
  428MOL0     H57728   1.596   2.190   2.747  0.0428 -1.2208 -0.0836
  428MOL0     H57729   1.436   2.263   2.992 -0.9358 -0.2601 -0.8400
  428MOL0     H57730   1.602   2.203   3.005 -1.4880 -2.5456 -0.0069
  428MOL0     H57731   1.781   2.421   3.025  1.6142  0.6335 -1.7600
  428MOL0     H57732   1.758   2.784   2.890  1.7634  0.6633 -0.5363
  428MOL0     H57733   1.879   2.678   2.987 -2.2953 -0.2651  0.8103
  428MOL0     H57734   1.957   2.605   2.763 -0.4182 -0.6038  0.9284
  428MOL0     H57735   1.826   2.695   2.677  1.4428  2.4454 -1.1199
  428MOL0     H57736   2.061   2.814   2.839 -0.5248  1.2401  0.3129
  428MOL0     H57737   1.928   2.900   2.757  0.4677  0.9779 -1.3904
  428MOL0     H57738   1.983   2.816   2.536  0.6005 -2.9323 -1.3059
  428MOL0     H57739   2.119   2.733   2.594  4.8883  2.7905  1.9052
  428MOL0     H57740   2.353   2.858   2.511 -4.1007 -0.6051  0.4040
  428MOL0     H57741   2.575   2.876   2.643  0.2375 -0.0653  1.4800
  428MOL0     H57742   2.944   3.041   2.655 -1.1349  0.5260  0.5116
  428MOL0     H57743   3.165   3.006   2.707  0.5822 -2.5983 -0.9646
  428MOL0     H57744   3.344   2.822   2.746  0.9036  1.0343 -0.4524
  428MOL0     H57745   3.346   2.988   2.825  1.7998  1.2159  2.3384
  428MOL0     H57746   3.494   2.895   2.990 -2.8172 -0.6391  1.0830
  428MOL0     H57747   3.480   2.727   2.915 -0.5067  0.4364 -1.7829
  428MOL0     H57748   3.556   2.956   2.737  2.2650  3.1566  1.8174
  428MOL0     H57749   3.678   2.918   2.843 -1.1258  0.5868  0.7270
  428MOL0     H57750   3.551   2.706   2.665  2.3491 -1.3499 -2.2416
  428MOL0     H57751   3.681   2.681   2.795  2.6307  2.5514  1.2913
  428MOL0     H57752   3.801   2.867   2.657 -0.8010  0.0062  0.1931
  428MOL0     H57753   3.701   2.817   2.520  1.1119 -2.3995 -1.9785
  428MOL0     H57754   3.894   2.622   2.672 -0.0705 -0.4866 -0.9448
  428MOL0     H57755   3.800   2.576   2.523 -2.2984  0.4926  0.5384
  428MOL0     H57756   4.004   2.803   2.532  0.3081 -1.0558  2.3832
  428MOL0     H57757   3.915   2.740   2.395  0.7590 -0.8119 -0.0940
  428MOL0     H57758   4.085   2.561   2.589  0.3523  3.0929  0.7938
  428MOL0     H57759   4.017   2.507   2.445  1.8206 -1.7235  1.8960
  428MOL0     H57760   3.026   2.787   3.062 -1.7149 -1.3828 -0.1316
  428MOL0     H57761   2.819   2.885   3.039  0.8870  1.9320  1.7187
  428MOL0     H57762   2.369   3.064   2.963  0.5868  2.6680 -0.3775
  428MOL0     H57763   2.154   3.023   2.842 -2.0259 -1.0986 -1.5999
  428MOL0     H57764   0.895   1.750   2.535  0.0096 -0.9087 -3.0351
  428MOL0     H57765   0.669   1.695   2.480  0.5082 -0.3702 -0.5994
  428MOL0     H57766   0.380   1.355   2.381  0.6885 -1.3775  2.7927
  428MOL0     H57767   0.169   1.247   2.336  0.1245  0.0693 -0.3319
  428MOL0     H57768  -0.216   1.421   2.416 -1.4530 -0.5949  0.5547
  428MOL0     H57769  -0.181   1.357   2.577 -2.2257  0.9658 -0.4640
  428MOL0     H57770  -0.379   1.225   2.492 -1.2826  1.3499 -2.1334
  428MOL0     H57771  -0.227   1.123   2.503 -1.2784 -1.3080 -0.3217
  428MOL0     H57772  -0.221   1.070   2.299 -0.6528 -0.3505 -0.5871
  428MOL0     H57773  -0.278   1.233   2.239 -2.1578 -1.4521 -2.0859
  428MOL0     H57774  -0.495   1.189   2.287 -2.1827 -1.7884  0.0854
  428MOL0     H57775  -0.450   1.067   2.182 -1.1132 -0.3803  0.3230
  428MOL0     H57776  -0.572   0.838   2.499 -0.3387 -0.3995 -0.1079
  428MOL0     H57777  -0.038   1.512   2.596 -0.4079 -1.9594 -0.2057
  428MOL0     H57778   0.083   1.623   2.731  1.3218 -1.1105  1.4530
  428MOL0     H57779   0.252   1.620   2.756  1.2304 -1.1536 -0.9002
  428MOL0     H57780   0.199   1.737   2.634 -2.6485 -0.0727 -2.5346
  429MOL0     O57781   1.194   7.088   6.515 -0.1026  0.0309 -0.7806
  429MOL0     C57782   1.177   7.006   6.608 -0.7621 -0.6457 -0.1384
  429MOL0     O57783   1.233   7.022   6.739  0.1940  0.1635 -0.1016
  429MOL0     C57784   1.348   7.103   6.760 -0.3629 -0.0153 -0.5990
  429MOL0     C57785   1.469   7.052   6.733  0.3269  0.3442 -0.9826
  429MOL0     C57786   1.585   7.119   6.770  0.1061  0.9998 -0.0827
  429MOL0     C57787   1.583   7.260   6.801  0.2738  0.9041 -0.0634
  429MOL0     O57788   1.697   7.320   6.841  0.0910  0.7375  0.6701
  429MOL0     C57789   1.803   7.296   6.746 -1.4033 -0.3185 -0.3022
  429MOL0     C57790   1.907   7.403   6.762  0.0244 -0.1875 -0.3768
  429MOL0     C57791   2.029   7.356   6.688 -0.1873 -0.2683 -0.0400
  429MOL0     C57792   2.149   7.448   6.709  0.3146 -0.2612  0.2027
  429MOL0     C57793   2.270   7.408   6.610 -0.4017 -0.6228 -0.1765
  429MOL0     C57794   2.246   7.472   6.468  0.4774  0.3473  0.6367
  429MOL0     C57795   2.372   7.475   6.395 -1.3436  0.8539  1.0937
  429MOL0     C57796   2.349   7.549   6.258  0.6108 -0.2502 -0.2110
  429MOL0     N57797   2.464   7.533   6.170  0.2018  0.9965  0.1161
  429MOL0     C57798   2.466   7.477   6.044  0.9745 -0.8964 -0.3449
  429MOL0     C57799   2.589   7.499   5.998 -0.7516 -0.3421 -0.6598
  429MOL0     C57800   2.657   7.435   5.882 -0.4307  0.4073  0.0892
  429MOL0     C57801   2.724   7.299   5.920  0.7169  0.4220  0.1283
  429MOL0     C57802   2.811   7.233   5.810  0.0125  0.9676 -0.5922
  429MOL0     C57803   2.912   7.123   5.869  0.6247 -0.5546  0.4948
  429MOL0     O57804   3.018   7.098   5.770  0.7910  0.5005  0.2861
  429MOL0     C57805   3.147   7.085   5.812  0.5045 -0.1074  0.0310
  429MOL0     C57806   3.190   6.965   5.864  0.0810 -0.1755  0.3778
  429MOL0     C57807   3.318   6.944   5.908  0.1492  0.0012 -0.6177
  429MOL0     C57808   3.407   7.052   5.909 -0.3142 -0.3047 -0.0546
  429MOL0     C57809   3.545   7.023   5.973  0.2529  0.1935  0.2042
  429MOL0     O57810   3.563   6.891   6.007  0.0561  0.3979  0.6824
  429MOL0     C57811   3.687   6.857   6.050  0.7530 -0.0368  0.4179
  429MOL0     C57812   3.787   6.802   5.966 -0.2567 -0.1613  0.5492
  429MOL0     C57813   3.911   6.775   6.017 -0.2936  0.4992  0.3672
  429MOL0     C57814   3.946   6.793   6.150  0.6871 -0.1063 -0.8446
  429MOL0     O57815   4.062   6.734   6.205  0.4044  0.1317  0.3841
  429MOL0     C57816   4.039   6.616   6.291 -0.4036 -0.6662 -0.1377
  429MOL0     C57817   4.173   6.532   6.306 -0.1607  0.3934  0.4820
  429MOL0     C57818   4.159   6.422   6.416 -0.1260 -0.2994 -0.1634
  429MOL0     C57819   4.295   6.362   6.469 -0.0235  0.7687  0.4147
  429MOL0     C57820   4.364   6.298   6.358 -0.0841 -0.0151  0.2412
  429MOL0     C57821   4.486   6.225   6.417 -0.2895 -0.3753  0.1450
  429MOL0     C57822   4.452   6.107   6.520  0.1960  0.3619 -0.1065
  429MOL0     C57823   4.582   6.034   6.554  0.3775 -0.6800  0.0227
  429MOL0    Cl57824   4.529   5.905   6.660  0.6429  0.6321  0.0077
  429MOL0     C57825   3.841   6.849   6.234 -0.4834 -0.7841 -0.0838
  429MOL0     C57826   3.710   6.880   6.185 -0.4961 -0.7455 -0.6963
  429MOL0     O57827   3.629   7.111   5.974 -0.0618 -0.1235  0.6389
  429MOL0     C57828   3.372   7.176   5.861 -0.2582  0.0901  0.2254
  429MOL0     C57829   3.240   7.193   5.816  0.8346 -0.6524  1.1283
  429MOL0     N57830   2.655   7.588   6.083  0.3377  0.3972  0.2237
  429MOL0     N57831   2.580   7.603   6.192  0.6005  0.0868  0.6924
  429MOL0     C57832   1.456   7.312   6.819  0.2946  0.7658 -0.0309
  429MOL0     C57833   1.345   7.233   6.801  0.1412 -0.3613  0.9635
  429MOL0     C57834   1.077   6.898   6.595 -0.8211 -0.4601 -1.5211
  429MOL0     C57835   0.996   6.869   6.711 -0.1915 -0.6733  0.2436
  429MOL0     C57836   0.889   6.777   6.702 -0.3317  0.2644  0.5881
  429MOL0     C57837   0.860   6.720   6.573 -0.3478  0.3743 -0.1573
  429MOL0     O57838   0.775   6.619   6.551 -0.2376  0.5075  0.4842
  429MOL0     C57839   0.683   6.591   6.658 -0.7759  0.6289  0.3675
  429MOL0     C57840   0.578   6.504   6.601 -0.1342 -0.2360 -0.4189
  429MOL0     C57841   0.490   6.452   6.713  0.0972  0.5681 -0.1004
  429MOL0     C57842   0.365   6.372   6.671  0.3895  0.3624  0.3936
  429MOL0     C57843   0.399   6.231   6.645 -0.3217 -0.4829 -0.1208
  429MOL0     C57844   0.437   6.117   6.627  0.5157 -0.7443 -0.6608
  429MOL0     C57845   0.945   6.746   6.468  0.7709  0.1195  0.3722
  429MOL0     C57846   1.046   6.840   6.471 -0.0571  0.5488 -1.3748
  429MOL0     C57847   1.119   6.866   6.344  0.4332  0.0642 -0.1855
  429MOL0     H57848   1.469   6.951   6.695  1.7529 -0.5753  1.2521
  429MOL0     H57849   1.676   7.059   6.768 -1.8638 -2.2172 -0.8095
  429MOL0     H57850   1.855   7.201   6.765  0.4488  0.5412 -0.8156
  429MOL0     H57851   1.769   7.306   6.643  0.2060  2.6355 -0.6638
  429MOL0     H57852   1.929   7.407   6.869 -0.5964 -0.3137 -0.2400
  429MOL0     H57853   1.863   7.496   6.726 -0.5248  0.6676  2.2412
  429MOL0     H57854   1.994   7.338   6.585 -1.0279  0.8123  0.0457
  429MOL0     H57855   2.064   7.261   6.729 -1.3950 -1.4798 -1.6731
  429MOL0     H57856   2.120   7.552   6.695 -0.3752 -0.6156 -1.1938
  429MOL0     H57857   2.186   7.421   6.808  0.8512  0.8412  0.3100
  429MOL0     H57858   2.365   7.450   6.643  1.0108 -2.7694 -1.2918
  429MOL0     H57859   2.283   7.300   6.599  1.4084 -0.3936 -0.5983
  429MOL0     H57860   2.166   7.418   6.417 -1.3539  4.1982 -0.9607
  429MOL0     H57861   2.219   7.578   6.473 -1.4882  0.2225 -3.5818
  429MOL0     H57862   2.404   7.375   6.365  1.5779  2.3252 -1.2551
  429MOL0     H57863   2.451   7.530   6.446  0.4402  0.5260 -1.1332
  429MOL0     H57864   2.259   7.506   6.213  0.0153  2.8028 -2.2414
  429MOL0     H57865   2.348   7.656   6.279 -0.8138 -0.7057  2.3583
  429MOL0     H57866   2.387   7.415   6.003 -1.2832  0.1225  2.1439
  429MOL0     H57867   2.583   7.411   5.805 -0.4917  0.7413  0.0441
  429MOL0     H57868   2.730   7.506   5.842 -0.5423  0.4861  0.0273
  429MOL0     H57869   2.792   7.319   6.003 -0.4061  0.4587  1.0521
  429MOL0     H57870   2.645   7.227   5.942 -0.1732  1.5402  0.7004
  429MOL0     H57871   2.864   7.317   5.764 -0.6067  2.4046  1.1661
  429MOL0     H57872   2.748   7.193   5.730 -0.8576 -2.9008  1.7354
  429MOL0     H57873   2.858   7.031   5.891 -4.7720  1.9229 -0.7135
  429MOL0     H57874   2.949   7.164   5.963 -1.4926  2.0815  0.2926
  429MOL0     H57875   3.123   6.880   5.861  1.3035 -1.1530  0.1183
  429MOL0     H57876   3.346   6.844   5.937 -1.3287  0.3447  2.3485
  429MOL0     H57877   3.763   6.797   5.860 -2.3918 -0.7490  1.0058
  429MOL0     H57878   3.990   6.736   5.954  2.2370  3.5936  1.3640
  429MOL0     H57879   4.034   6.667   6.387 -1.3000  2.0088 -1.5116
  429MOL0     H57880   3.942   6.569   6.272 -4.2035  3.5212  5.5283
  429MOL0     H57881   4.197   6.495   6.206 -3.0259  0.3448 -0.2870
  429MOL0     H57882   4.259   6.590   6.337  0.7891 -1.6166  1.8233
  429MOL0     H57883   4.103   6.460   6.501  2.6732  0.0588  1.6402
  429MOL0     H57884   4.104   6.353   6.351 -1.1935  0.1858  0.2111
  429MOL0     H57885   4.257   6.294   6.546  0.1081  1.3138  0.9723
  429MOL0     H57886   4.359   6.438   6.515  0.5972  1.1776 -1.0438
  429MOL0     H57887   4.392   6.384   6.296 -2.8121  1.3606  0.7454
  429MOL0     H57888   4.309   6.215   6.313  0.1169 -1.2136  2.1186
  429MOL0     H57889   4.528   6.183   6.325 -0.4272  0.0088 -0.0937
  429MOL0     H57890   4.552   6.298   6.463  1.9819 -3.4525  2.1540
  429MOL0     H57891   4.380   6.039   6.474 -0.5108  1.1776 -0.2509
  429MOL0     H57892   4.418   6.143   6.618 -1.6469 -1.4943  0.0126
  429MOL0     H57893   4.633   5.992   6.467 -0.0266  0.5622 -0.8484
  429MOL0     H57894   4.646   6.093   6.621 -0.9695  1.0838 -0.1797
  429MOL0     H57895   3.856   6.874   6.339 -1.6548 -0.3965 -0.0023
  429MOL0     H57896   3.640   6.922   6.256 -2.1823  0.1946 -2.7752
  429MOL0     H57897   3.449   7.252   5.868  1.6734 -1.5177 -1.9547
  429MOL0     H57898   3.216   7.294   5.783  3.0998 -0.0564  1.1403
  429MOL0     H57899   1.444   7.415   6.854 -2.0694  1.0603 -1.5019
  429MOL0     H57900   1.246   7.275   6.819  0.2775  1.4143 -1.8310
  429MOL0     H57901   1.009   6.914   6.809  0.1199  0.2612 -0.2196
  429MOL0     H57902   0.834   6.753   6.793 -0.4214  1.9070  1.0124
  429MOL0     H57903   0.627   6.682   6.681 -0.4632  0.6988  0.8744
  429MOL0     H57904   0.730   6.552   6.749  1.5263 -2.4307 -1.9300
  429MOL0     H57905   0.625   6.419   6.550  2.4051 -0.3815  1.9354
  429MOL0     H57906   0.515   6.561   6.532  0.9241  1.2794 -0.1905
  429MOL0     H57907   0.458   6.533   6.780 -1.3403 -2.1626  2.7736
  429MOL0     H57908   0.543   6.385   6.781 -1.1818  0.5387  0.9215
  429MOL0     H57909   0.280   6.367   6.740 -2.0233  0.1858 -2.3660
  429MOL0     H57910   0.325   6.410   6.576 -1.9798 -1.5715  0.5024
  429MOL0     H57911   0.474   6.019   6.605  0.5439 -1.1924  1.1623
  429MOL0     H57912   0.932   6.686   6.379 -0.6755 -0.4914  0.9570
  429MOL0     H57913   1.222   6.830   6.343 -0.6438 -3.4731  0.2593
  429MOL0     H57914   1.064   6.806   6.270 -0.8275  0.9136  0.0430
  429MOL0     H57915   1.120   6.971   6.314  1.1048  0.2326  0.3984
  430MOL0     O57916   2.040   3.584   5.166  0.2712 -0.9592 -0.0176
  430MOL0     C57917   2.013   3.529   5.061 -0.3480 -0.1325 -0.3984
  430MOL0     O57918   2.095   3.433   5.005 -0.2562 -0.5970 -0.2016
  430MOL0     C57919   2.232   3.435   5.041  0.3566 -0.3229  1.0970
  430MOL0     C57920   2.303   3.548   5.084 -1.6968  1.4562 -0.4384
  430MOL0     C57921   2.449   3.534   5.108  0.3258  0.6139 -0.7426
  430MOL0     C57922   2.523   3.420   5.061 -0.0404 -0.5857 -0.3897
  430MOL0     O57923   2.655   3.409   5.072 -0.3882  0.5802  0.6067
  430MOL0     C57924   2.742   3.515   5.031 -0.1256  0.7547 -0.7667
  430MOL0     C57925   2.728   3.565   4.893  0.2583 -0.3564  0.0497
  430MOL0     C57926   2.760   3.446   4.797  0.1426  0.2940 -0.4659
  430MOL0     C57927   2.779   3.508   4.654  0.4127 -0.0634  0.7481
  430MOL0     C57928   2.795   3.394   4.564  0.5621  0.5878  0.2584
  430MOL0     C57929   2.835   3.443   4.425  1.4070  0.4922  0.3741
  430MOL0     C57930   2.705   3.485   4.347 -0.0234  0.5119  0.0525
  430MOL0     C57931   2.718   3.543   4.197 -0.5387  0.1320  0.2988
  430MOL0     N57932   2.819   3.651   4.180  0.7818  0.2003 -0.6916
  430MOL0     C57933   2.958   3.626   4.178 -0.4743 -0.3556  0.2758
  430MOL0     C57934   3.008   3.755   4.166  0.2964 -0.4150  0.0023
  430MOL0     C57935   3.148   3.808   4.141 -0.3213 -0.2499  0.4420
  430MOL0     C57936   3.223   3.713   4.048  0.2462 -0.4645  0.1194
  430MOL0     C57937   3.348   3.782   4.013  0.3660  0.6772  0.1939
  430MOL0     C57938   3.428   3.709   3.915 -0.8345  0.3400  0.3606
  430MOL0     O57939   3.483   3.591   3.974 -0.7049 -0.4371  0.5035
  430MOL0     C57940   3.620   3.593   3.976 -0.6042 -0.6107  0.5848
  430MOL0     C57941   3.691   3.534   3.875 -0.1026  0.1647 -1.2936
  430MOL0     C57942   3.838   3.542   3.892  0.7882 -0.3878  0.8567
  430MOL0     C57943   3.897   3.584   4.006 -0.1001 -0.4302  0.0809
  430MOL0     C57944   4.046   3.602   4.017  0.0345 -0.1468 -0.1828
  430MOL0     O57945   4.120   3.521   3.933 -0.6267 -0.2133  0.2701
  430MOL0     C57946   4.255   3.524   3.957 -0.6230  0.2460 -0.5222
  430MOL0     C57947   4.339   3.642   3.964  0.0170 -0.1013  0.6534
  430MOL0     C57948   4.481   3.637   3.950  0.6240 -0.6637  0.3624
  430MOL0     C57949   4.545   3.517   3.936 -1.2454 -0.5140 -0.0404
  430MOL0     O57950   4.683   3.522   3.934  0.6066  0.7863 -0.1478
  430MOL0     C57951   4.763   3.412   3.910 -0.2547  0.3740  0.6764
  430MOL0     C57952   4.906   3.459   3.875  0.0224 -0.1567 -0.0737
  430MOL0     C57953   5.022   3.358   3.889  0.3474 -0.3184  0.3325
  430MOL0     C57954   5.159   3.425   3.894 -0.1327  0.0946  0.2238
  430MOL0     C57955   5.267   3.311   3.899 -0.1797  0.4777 -0.5380
  430MOL0     C57956   5.412   3.361   3.881 -0.6926 -0.5439 -1.1787
  430MOL0     C57957   5.517   3.246   3.902  0.0847  0.1637  0.1560
  430MOL0     C57958   5.657   3.289   3.916 -0.2143  0.1480  0.6016
  430MOL0    Cl57959   5.686   3.364   3.766  0.0645 -0.6931 -0.2063
  430MOL0     C57960   4.472   3.401   3.934  0.3308 -0.3616 -0.7638
  430MOL0     C57961   4.328   3.403   3.947 -0.3291  0.7531  1.3448
  430MOL0     O57962   4.088   3.679   4.106  0.3295 -0.0314 -0.0424
  430MOL0     C57963   3.817   3.632   4.109  0.2023 -0.2042  0.9801
  430MOL0     C57964   3.679   3.642   4.090 -0.6490  0.2135  0.1289
  430MOL0     N57965   2.894   3.841   4.168  0.3172  0.4889  0.5961
  430MOL0     N57966   2.780   3.780   4.179 -0.1751 -0.5798 -0.6285
  430MOL0     C57967   2.445   3.314   5.008 -0.0622 -0.2016 -0.3105
  430MOL0     C57968   2.300   3.318   4.999 -0.3738 -0.6856  0.3558
  430MOL0     C57969   1.876   3.543   5.013 -0.3699 -0.2042 -0.9367
  430MOL0     C57970   1.824   3.441   4.945  0.9416  0.5966  0.6733
  430MOL0     C57971   1.695   3.444   4.899  0.3101  0.4404 -0.9838
  430MOL0     C57972   1.621   3.559   4.925 -0.4692  0.1983  0.2068
  430MOL0     O57973   1.493   3.578   4.876 -0.2269  0.2404 -0.3635
  430MOL0     C57974   1.409   3.463   4.888 -0.6446 -0.1622  0.2737
  430MOL0     C57975   1.271   3.503   4.924 -0.4437 -0.9353 -0.1996
  430MOL0     C57976   1.198   3.586   4.816  0.4436  0.1338 -0.4247
  430MOL0     C57977   1.100   3.698   4.867  0.5856  0.0821 -0.3702
  430MOL0     C57978   0.986   3.653   4.936 -0.3274  0.3166  0.6241
  430MOL0     C57979   0.890   3.590   4.985 -0.8798 -0.3524  0.0911
  430MOL0     C57980   1.681   3.670   4.983  0.2359  0.3687 -0.4726
  430MOL0     C57981   1.807   3.661   5.032  1.2064  0.0336  0.0507
  430MOL0     C57982   1.855   3.777   5.115  0.5205  0.3393  0.1055
  430MOL0     H57983   2.259   3.642   5.115 -0.0061  1.0885  3.6631
  430MOL0     H57984   2.491   3.617   5.165 -1.7088 -0.4189  2.5858
  430MOL0     H57985   2.708   3.595   5.097 -2.9046 -1.4008  0.6462
  430MOL0     H57986   2.843   3.480   5.050 -0.1614  1.4657  0.8251
  430MOL0     H57987   2.800   3.643   4.867  2.1710 -2.0288  0.0714
  430MOL0     H57988   2.632   3.614   4.882  0.2395  0.1335  2.0568
  430MOL0     H57989   2.676   3.378   4.807  1.9713 -1.7969  2.4453
  430MOL0     H57990   2.850   3.389   4.822 -0.2589 -0.3443 -0.4749
  430MOL0     H57991   2.686   3.559   4.627  0.8322  1.0999  1.4465
  430MOL0     H57992   2.862   3.579   4.651  0.2964  0.0603 -0.9775
  430MOL0     H57993   2.872   3.325   4.599 -0.4699 -0.0148  1.3790
  430MOL0     H57994   2.703   3.335   4.560  2.4709 -2.6925  1.4687
  430MOL0     H57995   2.897   3.533   4.437 -1.6662  3.1837 -2.1021
  430MOL0     H57996   2.897   3.371   4.371  1.2233 -0.0098  0.8269
  430MOL0     H57997   2.656   3.569   4.397  2.2359  0.5152  2.4482
  430MOL0     H57998   2.635   3.402   4.335  0.9832 -0.2949 -0.3599
  430MOL0     H57999   2.761   3.462   4.137 -0.1828  1.9210 -2.0378
  430MOL0     H58000   2.619   3.561   4.154  1.2623  2.1786 -3.5288
  430MOL0     H58001   3.020   3.537   4.174 -1.9029 -1.4047  0.8022
  430MOL0     H58002   3.136   3.909   4.099  1.0882 -0.3824 -0.3544
  430MOL0     H58003   3.199   3.811   4.237 -0.8427 -2.5150  0.8342
  430MOL0     H58004   3.237   3.622   4.108 -0.1339 -0.5760  0.0464
  430MOL0     H58005   3.159   3.699   3.960 -0.0461  0.0677  0.2445
  430MOL0     H58006   3.399   3.788   4.109  0.8576 -3.9994  0.4576
  430MOL0     H58007   3.328   3.882   3.973 -3.4508  0.9684  2.3912
  430MOL0     H58008   3.504   3.773   3.870 -0.1828 -1.1511 -0.7770
  430MOL0     H58009   3.361   3.673   3.836 -0.0291  0.0898 -0.2299
  430MOL0     H58010   3.642   3.482   3.793  0.3791  0.3614 -1.7155
  430MOL0     H58011   3.906   3.499   3.819  2.0103  0.2686  1.5864
  430MOL0     H58012   4.292   3.739   3.954  0.4393  0.0205 -0.2246
  430MOL0     H58013   4.533   3.730   3.931 -1.6412  0.7666  0.8049
  430MOL0     H58014   4.752   3.335   3.986 -0.4644 -0.4674 -0.1801
  430MOL0     H58015   4.732   3.374   3.812  0.3297 -0.9263  0.9639
  430MOL0     H58016   4.917   3.504   3.776 -1.1687  2.7990  1.0192
  430MOL0     H58017   4.923   3.545   3.941 -0.7740  0.1590 -0.2598
  430MOL0     H58018   5.010   3.304   3.983  1.4761  4.1003  3.3756
  430MOL0     H58019   5.021   3.284   3.809 -2.1644  0.1384 -0.1206
  430MOL0     H58020   5.170   3.495   3.978  1.6743  0.5226 -0.3175
  430MOL0     H58021   5.179   3.485   3.805 -0.4431  2.2503  1.5206
  430MOL0     H58022   5.258   3.236   3.821  2.0971  0.0080 -0.4174
  430MOL0     H58023   5.257   3.263   3.997  0.8390 -1.1976 -1.2134
  430MOL0     H58024   5.431   3.413   3.787  0.8292 -0.1994 -0.7218
  430MOL0     H58025   5.425   3.441   3.955  1.2389  0.4692 -2.5183
  430MOL0     H58026   5.514   3.162   3.832  2.5429 -0.1898  0.3887
  430MOL0     H58027   5.488   3.208   4.000  1.4269  0.7433  0.8019
  430MOL0     H58028   5.678   3.355   4.000  0.2199  0.2908  0.3840
  430MOL0     H58029   5.711   3.194   3.922 -0.5529 -0.1233 -0.3513
  430MOL0     H58030   4.522   3.305   3.927  0.4304 -0.3571 -0.1588
  430MOL0     H58031   4.270   3.311   3.947 -1.4961  1.4530  2.7478
  430MOL0     H58032   3.856   3.680   4.198  0.5542  0.0762  0.6771
  430MOL0     H58033   3.607   3.680   4.162  1.1896  2.7716  0.7516
  430MOL0     H58034   2.495   3.226   4.969  0.1920  0.9347 -2.7307
  430MOL0     H58035   2.237   3.243   4.953  1.2352 -4.1025  3.2842
  430MOL0     H58036   1.883   3.352   4.932 -0.2463  0.1557 -2.5968
  430MOL0     H58037   1.636   3.363   4.859  0.8682 -0.2860 -0.3835
  430MOL0     H58038   1.452   3.402   4.967  3.3682  1.0144 -0.7848
  430MOL0     H58039   1.424   3.422   4.787 -0.1102  2.4244 -0.7671
  430MOL0     H58040   1.277   3.567   5.013 -0.4591 -4.0876  2.2423
  430MOL0     H58041   1.204   3.421   4.951 -1.4957  0.2449  0.9866
  430MOL0     H58042   1.140   3.518   4.753  0.5409 -0.0183 -0.3498
  430MOL0     H58043   1.259   3.634   4.739 -0.9182 -0.0714 -1.6876
  430MOL0     H58044   1.147   3.762   4.942 -0.3552 -0.2442  0.5135
  430MOL0     H58045   1.055   3.758   4.788 -1.9296  1.9632  2.3113
  430MOL0     H58046   0.808   3.535   5.025 -1.4913 -0.7127 -1.5634
  430MOL0     H58047   1.622   3.761   4.988  1.6246  1.3129 -0.6607
  430MOL0     H58048   1.964   3.788   5.106  0.5104  1.8781  1.2940
  430MOL0     H58049   1.802   3.864   5.077  2.3139  0.3871 -2.5589
  430MOL0     H58050   1.841   3.771   5.224 -1.4591  6.6946  0.6005
  431MOL0     O58051   4.233   6.321   9.073 -0.8460 -0.5020 -0.2014
  431MOL0     C58052   4.112   6.324   9.061  0.5213  0.6446  0.3153
  431MOL0     O58053   4.032   6.436   9.084  0.4487  0.7351  0.4314
  431MOL0     C58054   4.083   6.540   9.154 -0.9039 -0.2960 -0.9930
  431MOL0     C58055   3.997   6.659   9.158 -0.5467  0.2421  0.4372
  431MOL0     C58056   4.045   6.777   9.220  0.1327  0.3495 -0.0138
  431MOL0     C58057   4.170   6.781   9.278  0.5971  0.1217 -0.0307
  431MOL0     O58058   4.205   6.893   9.334  0.7883 -0.1584 -0.6886
  431MOL0     C58059   4.331   6.937   9.315  0.0651  0.0233  0.5696
  431MOL0     C58060   4.401   6.980   9.446 -0.5367  0.9942 -0.3637
  431MOL0     C58061   4.548   7.027   9.438  0.7609  0.9962  0.3997
  431MOL0     C58062   4.617   7.014   9.578 -0.2717 -0.7223 -0.0442
  431MOL0     C58063   4.765   7.048   9.559 -0.2037  0.0311  0.3919
  431MOL0     C58064   4.842   6.996   9.683 -0.8369 -1.1749  0.5015
  431MOL0     C58065   4.811   7.086   9.805  0.0158  0.3505  0.8157
  431MOL0     C58066   4.883   7.218   9.814 -0.5728 -0.4706 -0.0938
  431MOL0     N58067   4.842   7.300   9.929 -0.0638  0.0817  1.0211
  431MOL0     C58068   4.720   7.357   9.955  0.2653  0.4585  0.1076
  431MOL0     C58069   4.736   7.426  10.067 -0.3983 -0.4088 -0.2584
  431MOL0     C58070   4.640   7.524  10.133  0.7153  0.0771  0.1175
  431MOL0     C58071   4.597   7.462  10.272 -0.1723  0.0478 -0.9874
  431MOL0     C58072   4.511   7.544  10.367 -0.9797  0.8530 -0.2731
  431MOL0     C58073   4.377   7.487  10.409 -0.3435  0.0433  0.0329
  431MOL0     O58074   4.287   7.472  10.301  0.3026  0.5602 -0.6703
  431MOL0     C58075   4.154   7.482  10.342 -0.2586 -0.6087 -0.7353
  431MOL0     C58076   4.103   7.433  10.466 -0.0222  0.4754  0.0999
  431MOL0     C58077   3.966   7.461  10.503 -0.2342  1.0144 -0.3266
  431MOL0     C58078   3.885   7.534  10.417  0.1007  0.2896  0.9007
  431MOL0     C58079   3.740   7.537  10.448 -0.1258  0.7026  0.4813
  431MOL0     O58080   3.697   7.454  10.545  0.6843 -0.5401  0.0616
  431MOL0     C58081   3.571   7.475  10.592  0.2097  0.2306 -0.0834
  431MOL0     C58082   3.527   7.594  10.657 -0.0690 -0.0839 -0.1943
  431MOL0     C58083   3.395   7.597  10.708 -0.5916 -0.4443  0.8625
  431MOL0     C58084   3.312   7.487  10.707 -0.3987 -0.7739  0.1238
  431MOL0     O58085   3.193   7.486  10.768 -0.6027 -0.5903  0.1113
  431MOL0     C58086   3.157   7.572  10.879 -0.0478 -0.3067  0.3500
  431MOL0     C58087   3.015   7.541  10.947 -0.4304  0.3810 -0.5578
  431MOL0     C58088   2.899   7.551  10.842  0.0388  0.2165 -0.3021
  431MOL0     C58089   2.765   7.560  10.915 -0.3694 -0.5942  0.1240
  431MOL0     C58090   2.649   7.564  10.808  0.3411 -0.2087 -0.4949
  431MOL0     C58091   2.505   7.550  10.858 -0.3485 -0.0589 -0.9676
  431MOL0     C58092   2.481   7.665  10.959  0.0397  0.0942 -0.0152
  431MOL0     C58093   2.336   7.686  10.996  0.1627  0.1625  0.4172
  431MOL0    Cl58094   2.306   7.844  11.090  0.3025 -0.2053  0.4698
  431MOL0     C58095   3.364   7.368  10.656  0.3895  0.2761  0.2292
  431MOL0     C58096   3.490   7.362  10.596 -0.2081 -0.5653 -0.0836
  431MOL0     O58097   3.669   7.606  10.370  0.2127 -0.3325 -0.0662
  431MOL0     C58098   3.942   7.595  10.306 -0.4981  0.1118  0.5051
  431MOL0     C58099   4.074   7.560  10.268 -0.0561  0.1392  0.1525
  431MOL0     N58100   4.870   7.413  10.106 -0.5203 -0.7902  0.2480
  431MOL0     N58101   4.929   7.325  10.026  0.7359 -1.1339 -0.7398
  431MOL0     C58102   4.244   6.667   9.291  0.1064  0.2796  0.0858
  431MOL0     C58103   4.205   6.550   9.234  0.0065 -0.0426 -0.3352
  431MOL0     C58104   4.049   6.213   8.984  0.1849  0.5305  0.1821
  431MOL0     C58105   4.101   6.155   8.869 -0.0181 -0.1052  0.1080
  431MOL0     C58106   4.039   6.052   8.794  0.4485 -0.5296  0.1019
  431MOL0     C58107   3.917   6.012   8.834 -0.1627  0.6347  0.0677
  431MOL0     O58108   3.832   5.923   8.773  0.0246 -0.4546  0.0093
  431MOL0     C58109   3.853   5.890   8.631 -0.1740 -0.4023  0.2079
  431MOL0     C58110   3.741   5.793   8.585 -0.6116 -0.1343 -0.3848
  431MOL0     C58111   3.754   5.752   8.437 -0.3310  0.8823 -0.5775
  431MOL0     C58112   3.787   5.870   8.352  0.0130 -0.3861  0.4495
  431MOL0     C58113   3.735   5.866   8.215  0.6825 -0.3881  0.1400
  431MOL0     C58114   3.702   5.839   8.101  0.1673 -0.2810 -0.3308
  431MOL0     C58115   3.868   6.057   8.952 -0.6786 -0.3106 -0.9497
  431MOL0     C58116   3.924   6.162   9.022 -0.3725  0.1215 -0.1594
  431MOL0     C58117   3.856   6.197   9.153  0.0830 -0.5251  0.8468
  431MOL0     H58118   3.904   6.646   9.104  0.0055  0.1813 -0.5117
  431MOL0     H58119   3.967   6.853   9.222  0.3545  0.6983 -1.9722
  431MOL0     H58120   4.394   6.866   9.261 -1.5253 -1.9896  1.2527
  431MOL0     H58121   4.315   7.023   9.249 -1.9027  0.2455  1.2684
  431MOL0     H58122   4.401   6.895   9.515 -2.3341 -0.6058 -2.1858
  431MOL0     H58123   4.347   7.065   9.487  1.0105  2.2376 -0.8212
  431MOL0     H58124   4.547   7.130   9.403 -0.1817  1.0711  0.6071
  431MOL0     H58125   4.595   6.953   9.372  3.2062  0.8438  2.1704
  431MOL0     H58126   4.564   7.083   9.645 -2.3807 -1.0898 -1.2443
  431MOL0     H58127   4.607   6.911   9.613  1.4813 -1.3659 -1.3144
  431MOL0     H58128   4.809   7.014   9.465  3.7934  2.5347  1.1500
  431MOL0     H58129   4.769   7.158   9.559 -1.9005  0.1239  0.1486
  431MOL0     H58130   4.826   6.890   9.705  1.5320 -1.2467  2.1684
  431MOL0     H58131   4.948   6.982   9.661 -1.2099 -3.4609 -0.1366
  431MOL0     H58132   4.826   7.021   9.891 -0.5462 -1.4824 -0.4257
  431MOL0     H58133   4.704   7.107   9.799 -0.3401 -1.2287  1.2203
  431MOL0     H58134   4.990   7.199   9.831 -0.7286 -0.1142  1.3870
  431MOL0     H58135   4.865   7.270   9.720  2.2449 -2.4660 -1.9121
  431MOL0     H58136   4.633   7.359   9.890  0.3499 -0.9123 -0.0675
  431MOL0     H58137   4.689   7.619  10.154 -0.7609  0.9360 -0.1805
  431MOL0     H58138   4.546   7.537  10.078  0.8469  1.4194  0.1851
  431MOL0     H58139   4.549   7.365  10.253  0.5773 -0.3711 -0.8014
  431MOL0     H58140   4.690   7.431  10.321  1.6827  0.8846 -3.7355
  431MOL0     H58141   4.500   7.651  10.344  1.2056  1.1146 -0.2851
  431MOL0     H58142   4.561   7.545  10.465 -1.0322 -1.6794 -0.1686
  431MOL0     H58143   4.342   7.547  10.494 -1.2312 -0.2571 -0.1153
  431MOL0     H58144   4.394   7.385  10.444 -1.2804 -0.5219 -1.0710
  431MOL0     H58145   4.175   7.381  10.529  0.5164 -0.8223 -1.5155
  431MOL0     H58146   3.936   7.399  10.587  3.1987  1.1052  1.1133
  431MOL0     H58147   3.593   7.660  10.713 -2.7161 -1.2363  4.9328
  431MOL0     H58148   3.364   7.686  10.762 -0.6923  1.0104 -1.4747
  431MOL0     H58149   3.240   7.581  10.949  2.4144 -0.7142 -2.3472
  431MOL0     H58150   3.158   7.671  10.832  0.8434  0.8456  2.6186
  431MOL0     H58151   3.024   7.446  11.002  0.5465  1.1047  0.5797
  431MOL0     H58152   2.995   7.624  11.015 -1.8300 -0.0485 -0.4233
  431MOL0     H58153   2.899   7.636  10.772 -0.6464  1.8076  1.5248
  431MOL0     H58154   2.900   7.461  10.781  0.2938 -1.1026  1.5823
  431MOL0     H58155   2.763   7.648  10.980  0.7314 -1.9108  2.0357
  431MOL0     H58156   2.747   7.464  10.964 -0.0554 -0.5125  0.4013
  431MOL0     H58157   2.665   7.476  10.744  0.8963 -2.6480  2.7026
  431MOL0     H58158   2.661   7.650  10.743  0.6456 -2.4450 -3.6303
  431MOL0     H58159   2.440   7.565  10.771 -1.4742  0.6217 -0.0474
  431MOL0     H58160   2.496   7.455  10.910 -1.4147  0.3699 -0.3282
  431MOL0     H58161   2.507   7.757  10.907  1.1172  0.3694  0.9705
  431MOL0     H58162   2.541   7.645  11.048 -1.5689 -1.7150  0.7393
  431MOL0     H58163   2.287   7.720  10.905  0.2329 -0.4958  0.1277
  431MOL0     H58164   2.280   7.600  11.037 -0.5641  1.1473  1.5761
  431MOL0     H58165   3.293   7.286  10.659 -1.3927  1.7405  4.0103
  431MOL0     H58166   3.520   7.273  10.542 -0.9626 -1.4152  0.8803
  431MOL0     H58167   3.887   7.662  10.242  0.7047  0.1834 -0.4905
  431MOL0     H58168   4.115   7.597  10.175 -0.9897 -2.1425 -1.2401
  431MOL0     H58169   4.339   6.668   9.343  1.0992 -0.7060 -1.6018
  431MOL0     H58170   4.277   6.472   9.256 -0.8865 -0.8689 -0.2928
  431MOL0     H58171   4.191   6.199   8.826  0.4280 -1.2264 -0.1429
  431MOL0     H58172   4.088   6.024   8.701  1.9290 -0.5265  0.8590
  431MOL0     H58173   3.954   5.848   8.618 -0.0514  0.2798 -1.2155
  431MOL0     H58174   3.855   5.982   8.573  0.6882 -0.6680 -0.2055
  431MOL0     H58175   3.644   5.844   8.594 -0.1810  0.4004  2.0813
  431MOL0     H58176   3.753   5.704   8.646 -1.5101  0.7326  1.1361
  431MOL0     H58177   3.667   5.697   8.399  0.2262  0.4022 -1.1826
  431MOL0     H58178   3.841   5.687   8.423 -0.7947 -0.2052  1.2770
  431MOL0     H58179   3.749   5.968   8.385  1.9688  0.6893 -0.3253
  431MOL0     H58180   3.895   5.883   8.342 -0.1982  1.5677  0.3782
  431MOL0     H58181   3.668   5.813   8.003 -2.5603  0.3737  0.3538
  431MOL0     H58182   3.780   6.015   9.000 -0.9365  0.7783 -0.4293
  431MOL0     H58183   3.805   6.111   9.198 -0.5038 -1.9802 -2.3688
  431MOL0     H58184   3.930   6.234   9.225 -1.0205  0.2243  1.6472
  431MOL0     H58185   3.782   6.275   9.133  0.6884  0.4918  2.3732
  432MOL0     O58186   4.898  11.186   4.557  0.2858  0.1997  0.2274
  432MOL0     C58187   4.903  11.062   4.580  0.7900 -0.3214 -0.3010
  432MOL0     O58188   5.014  10.983   4.561  0.2057 -0.0964 -0.0122
  432MOL0     C58189   5.115  11.026   4.472  1.0241 -0.4162 -0.2592
  432MOL0     C58190   5.241  10.996   4.525 -0.4596  0.0256  0.1247
  432MOL0     C58191   5.356  11.021   4.456  0.2934 -0.5410  0.3900
  432MOL0     C58192   5.354  11.086   4.335  0.0754  0.5845  0.3199
  432MOL0     O58193   5.462  11.121   4.258 -0.1337 -0.2701  0.3600
  432MOL0     C58194   5.585  11.141   4.322  0.0377 -0.1174  1.0249
  432MOL0     C58195   5.678  11.222   4.231 -0.1866  0.9166 -0.3826
  432MOL0     C58196   5.822  11.223   4.289  0.8175  0.0844 -0.1920
  432MOL0     C58197   5.907  11.315   4.215  0.5391 -0.3312  0.0692
  432MOL0     C58198   6.046  11.358   4.266  0.2075  0.5513  0.7913
  432MOL0     C58199   6.146  11.243   4.271  0.5783  0.7421 -0.2943
  432MOL0     C58200   6.277  11.294   4.320 -0.3861  0.1093  0.1063
  432MOL0     C58201   6.379  11.176   4.329 -0.0163  0.0014 -0.6026
  432MOL0     N58202   6.506  11.235   4.375  0.6394 -0.2027  0.3822
  432MOL0     C58203   6.542  11.234   4.506 -0.2349 -0.0042  1.0984
  432MOL0     C58204   6.650  11.313   4.517  0.2325 -0.3040 -0.2270
  432MOL0     C58205   6.732  11.340   4.645 -0.0136 -0.2358  0.1114
  432MOL0     C58206   6.887  11.371   4.623 -0.0353  0.4130  0.7434
  432MOL0     C58207   6.969  11.301   4.726 -0.2394  0.8139  0.2261
  432MOL0     C58208   7.121  11.338   4.714  0.0553 -0.5979  1.2868
  432MOL0     O58209   7.189  11.281   4.828 -0.2018  0.1338 -0.6068
  432MOL0     C58210   7.320  11.298   4.851  0.8052 -0.0308 -0.8227
  432MOL0     C58211   7.409  11.332   4.753 -0.1660 -0.9813  0.3191
  432MOL0     C58212   7.537  11.351   4.777 -0.1141 -1.1084 -0.6714
  432MOL0     C58213   7.587  11.364   4.919 -0.2551  0.2706  0.0989
  432MOL0     C58214   7.721  11.417   4.953 -0.7642  0.6010 -0.1642
  432MOL0     O58215   7.802  11.444   4.848  0.6552  0.1270 -0.3597
  432MOL0     C58216   7.905  11.529   4.878  0.3970 -0.2980 -0.1682
  432MOL0     C58217   7.886  11.650   4.941  0.1624 -0.3206  0.6246
  432MOL0     C58218   7.997  11.739   4.961  0.2204  0.2102 -1.1865
  432MOL0     C58219   8.131  11.690   4.927 -0.2117  0.1625  1.1216
  432MOL0     O58220   8.250  11.755   4.954  0.0316 -0.4595 -0.5148
  432MOL0     C58221   8.235  11.899   4.967  0.0560 -0.0391  0.3200
  432MOL0     C58222   8.374  11.967   4.969  0.1342  0.0031 -0.0576
  432MOL0     C58223   8.472  11.930   4.854 -0.0014 -0.1734  1.1311
  432MOL0     C58224   8.592  12.038   4.836  0.2369  0.0825 -0.3088
  432MOL0     C58225   8.687  11.998   4.726 -0.0027 -0.5739  0.2908
  432MOL0     C58226   8.780  11.873   4.752 -0.4805  0.2639 -0.1892
  432MOL0     C58227   8.906  11.873   4.654 -0.2329  0.3898 -0.7155
  432MOL0     C58228   8.864  11.906   4.513  0.2409  0.3872 -0.1535
  432MOL0    Cl58229   9.006  11.868   4.396  0.2688 -0.1084 -0.1314
  432MOL0     C58230   8.147  11.563   4.872 -0.1786 -0.4418  0.5670
  432MOL0     C58231   8.033  11.488   4.847 -0.0784 -0.1933 -0.8315
  432MOL0     O58232   7.750  11.426   5.072 -0.3378  0.4095  0.3496
  432MOL0     C58233   7.492  11.318   5.016 -0.1297 -0.3890 -1.0017
  432MOL0     C58234   7.368  11.280   4.981  0.1061 -0.9982  0.1372
  432MOL0     N58235   6.684  11.360   4.389 -0.5021  0.0642  0.0229
  432MOL0     N58236   6.590  11.320   4.309  0.2287 -0.3671  0.1229
  432MOL0     C58237   5.224  11.129   4.290  0.0458 -0.2240  0.0020
  432MOL0     C58238   5.102  11.101   4.355 -0.0608 -0.5435  0.0406
  432MOL0     C58239   4.785  11.003   4.648  0.7508 -0.4254 -0.0586
  432MOL0     C58240   4.667  11.082   4.670  0.5967  0.8083 -0.1251
  432MOL0     C58241   4.553  11.029   4.730  0.5618  0.5512 -0.1254
  432MOL0     C58242   4.546  10.893   4.782 -0.6345  0.4435  0.0244
  432MOL0     O58243   4.432  10.845   4.840  0.2744 -0.4694 -0.4006
  432MOL0     C58244   4.452  10.763   4.955  0.1271  0.3605  1.7159
  432MOL0     C58245   4.322  10.774   5.030  1.0769 -0.0342  0.1764
  432MOL0     C58246   4.223  10.686   4.957 -0.5228 -0.3649 -0.1753
  432MOL0     C58247   4.075  10.714   4.997 -0.0935  0.1962  0.1334
  432MOL0     C58248   4.025  10.657   5.126  0.3196 -0.8496 -0.1507
  432MOL0     C58249   3.967  10.611   5.216  0.6291 -0.4734 -0.0812
  432MOL0     C58250   4.663  10.815   4.760  0.6275 -1.0756 -1.0163
  432MOL0     C58251   4.773  10.863   4.682 -0.0159 -0.0588 -0.2674
  432MOL0     C58252   4.880  10.760   4.648 -0.3579 -0.1036 -1.1236
  432MOL0     H58253   5.244  10.928   4.610  3.6348  0.3028  0.4080
  432MOL0     H58254   5.443  10.964   4.487  2.5764  1.9813 -0.8937
  432MOL0     H58255   5.584  11.173   4.427 -3.3108 -1.7674  1.6490
  432MOL0     H58256   5.625  11.039   4.330  0.2279 -0.7058 -4.1035
  432MOL0     H58257   5.645  11.325   4.220  1.6634  1.3189 -3.2555
  432MOL0     H58258   5.677  11.183   4.129 -0.5054  0.2826 -0.1460
  432MOL0     H58259   5.852  11.118   4.282  1.1273  0.2769 -2.1250
  432MOL0     H58260   5.822  11.262   4.391  0.0849  0.3009 -0.2708
  432MOL0     H58261   5.917  11.280   4.112  0.2837 -0.4583  0.0892
  432MOL0     H58262   5.847  11.406   4.204  0.1544 -0.6260 -0.3238
  432MOL0     H58263   6.079  11.439   4.200 -0.0298 -0.1526 -0.2241
  432MOL0     H58264   6.033  11.388   4.370 -2.6367 -1.7581  1.2323
  432MOL0     H58265   6.113  11.169   4.344  0.0857  0.6258 -0.6224
  432MOL0     H58266   6.138  11.201   4.170  1.9027  1.9521 -0.9455
  432MOL0     H58267   6.267  11.347   4.415 -2.0073 -1.8205  1.1070
  432MOL0     H58268   6.309  11.369   4.248 -1.0244 -1.9428 -2.4887
  432MOL0     H58269   6.349  11.094   4.395  0.7211  0.1783 -0.0306
  432MOL0     H58270   6.407  11.134   4.232 -0.0920  1.1500 -1.1416
  432MOL0     H58271   6.505  11.174   4.589 -0.2362 -0.1708  0.9770
  432MOL0     H58272   6.685  11.428   4.690 -1.3981 -0.0912 -1.5151
  432MOL0     H58273   6.714  11.256   4.713 -0.9979  1.4911  2.0838
  432MOL0     H58274   6.903  11.338   4.520 -0.4422 -0.7671  1.0447
  432MOL0     H58275   6.904  11.479   4.622 -1.4659  0.6738  1.6672
  432MOL0     H58276   6.967  11.192   4.719  1.1290  0.5155  3.1449
  432MOL0     H58277   6.947  11.326   4.830  1.9571 -1.8285  1.4512
  432MOL0     H58278   7.128  11.447   4.720 -0.6744 -0.4603  0.0177
  432MOL0     H58279   7.160  11.309   4.616  0.1154  2.3016  0.3342
  432MOL0     H58280   7.382  11.345   4.649 -0.5632 -0.6084  0.4662
  432MOL0     H58281   7.602  11.368   4.692  0.9098  0.2260  0.3409
  432MOL0     H58282   7.787  11.688   4.963  0.9147  1.5349  0.9987
  432MOL0     H58283   7.993  11.834   5.014  0.5277  0.0309 -0.8406
  432MOL0     H58284   8.180  11.937   4.881  2.1369  2.4219 -0.0307
  432MOL0     H58285   8.184  11.929   5.060  0.4675  0.0990  0.5044
  432MOL0     H58286   8.355  12.075   4.968  0.7286  0.1350  1.2161
  432MOL0     H58287   8.418  11.941   5.065 -2.6444 -2.4335  0.6602
  432MOL0     H58288   8.526  11.841   4.889  1.7856  0.4883  0.1989
  432MOL0     H58289   8.406  11.914   4.768 -0.7149 -1.0649  1.8289
  432MOL0     H58290   8.645  12.052   4.931  0.2855 -1.1484 -0.1323
  432MOL0     H58291   8.549  12.137   4.816  2.7704  1.4383  0.5304
  432MOL0     H58292   8.747  12.084   4.697 -3.3535  1.5218 -0.9710
  432MOL0     H58293   8.630  11.969   4.637  1.1873  0.0319 -0.6857
  432MOL0     H58294   8.809  11.873   4.858  3.2640  0.6172 -1.0952
  432MOL0     H58295   8.721  11.782   4.735  1.1503 -1.2934  1.8407
  432MOL0     H58296   8.944  11.771   4.662 -0.6590  0.3168  0.7109
  432MOL0     H58297   8.979  11.946   4.690 -0.9215  0.4944  0.5100
  432MOL0     H58298   8.773  11.850   4.490  0.5420  0.1693 -0.8399
  432MOL0     H58299   8.835  12.010   4.497  1.8713  1.0512  0.9911
  432MOL0     H58300   8.251  11.538   4.852 -0.0270  1.2799 -1.0519
  432MOL0     H58301   8.036  11.387   4.807  1.2959 -0.4226 -0.2226
  432MOL0     H58302   7.526  11.318   5.119  0.8604  1.5741 -1.2861
  432MOL0     H58303   7.294  11.255   5.057 -0.6961  2.8766  0.8661
  432MOL0     H58304   5.212  11.198   4.207 -0.1983  0.1092  0.3127
  432MOL0     H58305   5.002  11.129   4.324 -0.4121 -1.9001 -0.0948
  432MOL0     H58306   4.663  11.189   4.651 -1.3198  0.7172 -0.3735
  432MOL0     H58307   4.469  11.096   4.742  0.6083  0.8499 -1.3630
  432MOL0     H58308   4.539  10.791   5.016 -0.4025  3.4529  1.2261
  432MOL0     H58309   4.450  10.658   4.924 -2.1985  0.5384  1.1341
  432MOL0     H58310   4.287  10.877   5.027  1.3367  0.0563  0.2285
  432MOL0     H58311   4.343  10.745   5.133  4.4860 -2.7398 -1.0560
  432MOL0     H58312   4.246  10.582   4.984  1.1955  0.1315  0.3692
  432MOL0     H58313   4.222  10.704   4.849 -0.0524  0.9944  0.0330
  432MOL0     H58314   4.057  10.822   5.001 -2.6189  0.0609 -3.2992
  432MOL0     H58315   4.010  10.695   4.911  2.3269  3.3317 -2.6700
  432MOL0     H58316   3.903  10.573   5.293 -1.0270 -1.2844 -1.8149
  432MOL0     H58317   4.664  10.709   4.780  3.7735 -1.1272 -0.9949
  432MOL0     H58318   4.923  10.768   4.547  0.4340  1.8566 -0.6818
  432MOL0     H58319   4.971  10.776   4.706 -0.4110  0.3461 -1.1600
  432MOL0     H58320   4.847  10.658   4.667 -0.3182  0.2637  1.2224
  433MOL0     O58321   4.415   8.203   8.683  0.4820 -0.5694  0.0509
  433MOL0     C58322   4.369   8.314   8.691  0.0157  0.0759  0.4964
  433MOL0     O58323   4.427   8.412   8.758 -0.3907  0.0180  0.3724
  433MOL0     C58324   4.551   8.400   8.810  0.7608 -0.2802 -0.0604
  433MOL0     C58325   4.558   8.410   8.946 -0.2675 -0.6873  0.4599
  433MOL0     C58326   4.694   8.418   9.001  0.6480  0.0672  0.1634
  433MOL0     C58327   4.813   8.422   8.923  0.8400  0.0806 -0.7360
  433MOL0     O58328   4.933   8.450   8.985 -0.0634 -0.1798  0.1524
  433MOL0     C58329   5.027   8.349   8.955  0.0619 -0.5856  0.0916
  433MOL0     C58330   5.136   8.348   9.062 -0.6132 -0.0763  0.1216
  433MOL0     C58331   5.246   8.244   9.029  0.7152  0.3781  0.4589
  433MOL0     C58332   5.357   8.238   9.133 -0.1614  0.1404  0.7836
  433MOL0     C58333   5.461   8.133   9.097  0.1509 -0.2261 -0.3755
  433MOL0     C58334   5.549   8.161   8.986 -0.2778  0.0991  0.8659
  433MOL0     C58335   5.654   8.047   8.977 -0.9070  0.8320  0.3389
  433MOL0     C58336   5.735   8.028   8.848  0.0987 -0.5495  0.1900
  433MOL0     N58337   5.636   8.021   8.747  0.6397  0.9463  0.1784
  433MOL0     C58338   5.531   7.933   8.718 -0.4690 -0.2405  0.3044
  433MOL0     C58339   5.493   7.965   8.597  1.1193 -0.1583 -0.0830
  433MOL0     C58340   5.376   7.894   8.541  0.8347 -0.4468 -0.1822
  433MOL0     C58341   5.247   7.915   8.628 -0.2545 -0.0273 -0.3317
  433MOL0     C58342   5.183   8.061   8.596 -0.8011 -1.0370 -0.3878
  433MOL0     C58343   5.035   8.066   8.633 -0.8121 -0.3200 -0.1774
  433MOL0     O58344   5.009   8.026   8.766  0.0978  0.3029 -0.4596
  433MOL0     C58345   4.883   8.001   8.823 -0.2625 -0.4280  0.1402
  433MOL0     C58346   4.895   7.927   8.940  0.0285 -0.6976 -0.4808
  433MOL0     C58347   4.782   7.870   8.995  0.2683 -0.1574 -0.6642
  433MOL0     C58348   4.650   7.909   8.940 -0.6849 -0.2912 -0.9331
  433MOL0     C58349   4.525   7.850   8.995  0.2170 -0.6715 -1.1442
  433MOL0     O58350   4.406   7.870   8.931 -0.7222 -0.8600  0.5340
  433MOL0     C58351   4.284   7.815   8.964  0.1927  0.1903 -0.7456
  433MOL0     C58352   4.254   7.750   9.089  0.0124 -0.4025 -0.3640
  433MOL0     C58353   4.125   7.706   9.106 -0.4703 -0.0808  0.7016
  433MOL0     C58354   4.024   7.709   9.011  0.3824 -0.3887 -0.0131
  433MOL0     O58355   3.896   7.651   9.038 -0.5715  0.4515  0.0827
  433MOL0     C58356   3.784   7.729   8.984 -0.6277  0.0939 -0.6396
  433MOL0     C58357   3.661   7.693   9.067  0.2727  0.8039  0.4721
  433MOL0     C58358   3.613   7.547   9.051  0.4026 -1.0056  0.9151
  433MOL0     C58359   3.676   7.439   9.130  0.7251 -0.0833  1.0450
  433MOL0     C58360   3.598   7.304   9.146 -0.3393  0.4366  0.1646
  433MOL0     C58361   3.539   7.257   9.015 -0.2725 -0.7095  0.4499
  433MOL0     C58362   3.452   7.133   9.023 -0.1217  0.2413  0.1247
  433MOL0     C58363   3.501   7.011   8.953  0.9036  0.4787  0.1906
  433MOL0    Cl58364   3.400   6.864   9.000 -0.0024 -0.1853 -0.3473
  433MOL0     C58365   4.054   7.786   8.898 -1.0383 -0.2895  0.4148
  433MOL0     C58366   4.186   7.832   8.871  0.6254 -0.5898  0.2254
  433MOL0     O58367   4.536   7.796   9.101  0.0167  0.2736  0.3877
  433MOL0     C58368   4.640   7.983   8.823 -0.5681 -0.4309  0.2810
  433MOL0     C58369   4.759   8.035   8.768  0.5844  0.0614  0.0948
  433MOL0     N58370   5.564   8.074   8.555  0.4998  0.2385  0.7328
  433MOL0     N58371   5.651   8.101   8.640 -0.6984  0.2196 -0.2576
  433MOL0     C58372   4.794   8.408   8.786 -0.2160  0.3031 -0.1114
  433MOL0     C58373   4.666   8.398   8.731 -0.0573  0.8244  0.7988
  433MOL0     C58374   4.240   8.360   8.633  0.1986  0.4077  0.1845
  433MOL0     C58375   4.195   8.494   8.652  0.1217  0.1245 -0.8390
  433MOL0     C58376   4.064   8.538   8.606 -0.2367  0.1753 -0.0794
  433MOL0     C58377   3.982   8.449   8.528  0.0193 -0.5029  0.0055
  433MOL0     O58378   3.852   8.488   8.482 -0.0315  0.6594  0.3511
  433MOL0     C58379   3.802   8.622   8.508  0.0773  0.6501  0.6036
  433MOL0     C58380   3.854   8.708   8.391  0.1407  0.1258  0.5224
  433MOL0     C58381   3.804   8.850   8.401 -0.0860  0.6708  0.7610
  433MOL0     C58382   3.873   8.940   8.291  0.6738 -0.2282 -0.7285
  433MOL0     C58383   3.966   9.027   8.365  0.2914 -0.5164 -0.2827
  433MOL0     C58384   4.030   9.111   8.432 -1.5522 -0.5678 -0.2883
  433MOL0     C58385   4.028   8.322   8.506  0.0181  0.0299  0.3982
  433MOL0     C58386   4.144   8.273   8.567 -0.1871 -0.2008 -0.4637
  433MOL0     C58387   4.159   8.121   8.573 -0.2300  0.2796  0.6943
  433MOL0     H58388   4.467   8.421   9.004 -0.0645 -0.7574  0.7921
  433MOL0     H58389   4.708   8.444   9.106 -0.2959  1.7042 -0.0848
  433MOL0     H58390   4.978   8.251   8.950  0.4321 -0.8456  1.2070
  433MOL0     H58391   5.077   8.365   8.859  1.1477 -0.7916  0.5979
  433MOL0     H58392   5.079   8.314   9.149 -1.1621 -1.6456 -0.8059
  433MOL0     H58393   5.184   8.444   9.083  2.1993 -0.9740 -1.6772
  433MOL0     H58394   5.296   8.263   8.933  2.0663 -0.0670  1.0408
  433MOL0     H58395   5.216   8.139   9.015  1.7683  0.2163 -0.8453
  433MOL0     H58396   5.416   8.330   9.138  0.4558 -0.3029  2.5853
  433MOL0     H58397   5.319   8.222   9.234  0.2998 -1.6074  0.7049
  433MOL0     H58398   5.526   8.148   9.183 -0.4880  0.3112  0.0300
  433MOL0     H58399   5.419   8.033   9.094  0.6301 -0.7267  3.9032
  433MOL0     H58400   5.491   8.178   8.895 -0.2363 -0.9806  0.6217
  433MOL0     H58401   5.605   8.255   8.989 -0.9633  0.4977  3.5771
  433MOL0     H58402   5.604   7.952   8.999 -0.3968 -0.0881 -2.1627
  433MOL0     H58403   5.722   8.057   9.061  0.3286 -0.2315 -0.4990
  433MOL0     H58404   5.801   8.113   8.829  1.5671 -1.4836  0.9264
  433MOL0     H58405   5.787   7.931   8.849 -2.4843 -2.1019 -1.6677
  433MOL0     H58406   5.493   7.859   8.788  0.5645  0.0907  1.2492
  433MOL0     H58407   5.373   7.942   8.443  2.6112  2.0274  0.8773
  433MOL0     H58408   5.389   7.786   8.528 -0.5993 -0.7831  0.8133
  433MOL0     H58409   5.166   7.845   8.603 -1.9882  0.9056  2.2530
  433MOL0     H58410   5.271   7.907   8.734 -1.2249 -0.0717 -0.1090
  433MOL0     H58411   5.191   8.099   8.493 -3.2905 -0.6081 -0.4778
  433MOL0     H58412   5.231   8.127   8.670  1.8743 -2.0947 -1.0469
  433MOL0     H58413   4.985   8.005   8.558 -3.4800  2.0171 -0.4660
  433MOL0     H58414   4.996   8.164   8.602 -1.1917 -0.1111  0.9366
  433MOL0     H58415   4.993   7.904   8.980 -0.2231 -1.4557 -0.2738
  433MOL0     H58416   4.784   7.794   9.073 -0.3503  0.6878  0.1877
  433MOL0     H58417   4.332   7.730   9.162 -0.4994 -0.8033  0.0810
  433MOL0     H58418   4.101   7.653   9.198  1.4591 -2.7297 -0.2018
  433MOL0     H58419   3.813   7.834   8.992 -1.3650  0.3581 -1.3450
  433MOL0     H58420   3.764   7.712   8.878 -0.9407 -0.1514 -0.5404
  433MOL0     H58421   3.679   7.710   9.174  0.1725  0.3645  0.5567
  433MOL0     H58422   3.578   7.757   9.035  0.1362  0.4628  0.1465
  433MOL0     H58423   3.508   7.543   9.081 -0.4528 -0.2987 -1.7361
  433MOL0     H58424   3.603   7.517   8.946  1.7149  1.7654 -0.0817
  433MOL0     H58425   3.716   7.483   9.222  4.0513  2.0209 -1.1555
  433MOL0     H58426   3.772   7.422   9.080  0.7188  1.5922  0.4128
  433MOL0     H58427   3.517   7.336   9.213  1.4088  2.1996  1.5272
  433MOL0     H58428   3.655   7.225   9.194 -0.3286 -0.9159 -1.9168
  433MOL0     H58429   3.470   7.335   8.981  1.3250  0.9364  0.7960
  433MOL0     H58430   3.611   7.252   8.932 -1.6570 -0.3210 -0.8229
  433MOL0     H58431   3.362   7.169   8.973  0.6824  0.5737 -1.1391
  433MOL0     H58432   3.420   7.118   9.126 -1.2861 -0.0164 -0.2626
  433MOL0     H58433   3.513   7.022   8.845 -0.8128  0.4340 -0.0340
  433MOL0     H58434   3.598   6.996   9.001  0.7426  0.0166  0.3712
  433MOL0     H58435   3.983   7.807   8.819 -0.0179 -0.1375 -0.4821
  433MOL0     H58436   4.209   7.890   8.782 -0.0868 -1.9137 -0.8632
  433MOL0     H58437   4.545   8.007   8.777 -0.1084  2.1949  0.5936
  433MOL0     H58438   4.764   8.097   8.680  5.1371  0.5221  0.4461
  433MOL0     H58439   4.883   8.414   8.725  0.6208  2.5544  1.2147
  433MOL0     H58440   4.667   8.391   8.623 -2.7497  1.1330  0.6853
  433MOL0     H58441   4.247   8.565   8.715 -2.0149 -0.6740  2.0464
  433MOL0     H58442   4.036   8.642   8.615  0.3089  0.2184  1.3953
  433MOL0     H58443   3.827   8.668   8.604  1.6988  2.5120 -0.6287
  433MOL0     H58444   3.693   8.613   8.501 -0.1245  1.0721  2.6380
  433MOL0     H58445   3.808   8.664   8.302  0.5567 -1.3711  1.0166
  433MOL0     H58446   3.963   8.697   8.387  0.2839  1.6506 -0.9786
  433MOL0     H58447   3.817   8.895   8.500 -2.2034  2.3018  0.3694
  433MOL0     H58448   3.696   8.855   8.385 -0.0138  2.8932  0.7261
  433MOL0     H58449   3.927   8.888   8.211  1.2682  0.5288 -0.8347
  433MOL0     H58450   3.798   9.001   8.241  1.1042  0.0523 -1.0383
  433MOL0     H58451   4.084   9.193   8.476  0.0283  1.1098 -4.7832
  433MOL0     H58452   3.962   8.249   8.461 -1.0271 -0.3485  2.4215
  433MOL0     H58453   4.247   8.106   8.509  0.9925  1.3602  2.0356
  433MOL0     H58454   4.193   8.084   8.670 -0.5720  0.7197  0.9865
  433MOL0     H58455   4.066   8.072   8.544 -0.2312  1.7345 -2.0457
  434MOL0     O58456  10.737   1.261   9.980  0.6673 -0.6933 -0.1359
  434MOL0     C58457  10.702   1.358   9.908 -0.0687  0.2599  0.3425
  434MOL0     O58458  10.750   1.376   9.781 -0.5153  0.1340  0.3019
  434MOL0     C58459  10.864   1.299   9.752  0.0247 -0.4294 -0.4784
  434MOL0     C58460  10.868   1.220   9.640  0.1663  0.2250  0.4139
  434MOL0     C58461  10.991   1.159   9.596  0.5020 -0.1411  0.3389
  434MOL0     C58462  11.113   1.178   9.662 -0.4532  0.3433  0.6123
  434MOL0     O58463  11.239   1.135   9.614  0.6042 -0.4783  0.5068
  434MOL0     C58464  11.238   1.029   9.511  0.3241 -0.0888 -0.2443
  434MOL0     C58465  11.375   0.967   9.508  0.5817 -0.1689  0.0260
  434MOL0     C58466  11.470   1.065   9.435  0.4030  0.3224 -0.8951
  434MOL0     C58467  11.595   1.102   9.524 -0.1026  0.6449 -0.3515
  434MOL0     C58468  11.682   1.204   9.448  0.1931  1.2590 -0.1203
  434MOL0     C58469  11.802   1.134   9.384  1.1243  0.5790 -0.2290
  434MOL0     C58470  11.917   1.224   9.347 -0.2376  0.1350  0.3005
  434MOL0     C58471  11.888   1.336   9.251 -0.0555 -0.1932  1.3507
  434MOL0     N58472  11.848   1.291   9.117 -0.4483 -1.0312 -0.4684
  434MOL0     C58473  11.931   1.234   9.026  0.0972 -0.7997  0.5664
  434MOL0     C58474  11.883   1.270   8.905  0.8512  1.1340 -0.1976
  434MOL0     C58475  11.938   1.228   8.776 -0.5734  0.2186  0.2564
  434MOL0     C58476  12.089   1.217   8.794 -0.4255  0.3031  0.6869
  434MOL0     C58477  12.152   1.219   8.652  0.3498  0.1978 -0.1728
  434MOL0     C58478  12.299   1.251   8.652 -0.3507  0.8929  0.0929
  434MOL0     O58479  12.368   1.140   8.723 -0.2015 -0.2563 -0.1238
  434MOL0     C58480  12.506   1.122   8.731  0.2301 -0.8106  1.5511
  434MOL0     C58481  12.603   1.200   8.643 -0.5774 -0.0402 -0.4184
  434MOL0     C58482  12.745   1.173   8.659  1.0531 -0.4663  0.1628
  434MOL0     C58483  12.789   1.060   8.736  0.8045  0.2383 -0.3942
  434MOL0     C58484  12.933   1.011   8.723  0.0542  0.4514  0.7385
  434MOL0     O58485  13.003   1.070   8.622  0.3439 -0.9734 -0.7255
  434MOL0     C58486  13.135   1.056   8.604 -0.1281 -0.1878 -0.8123
  434MOL0     C58487  13.188   1.162   8.533  0.1172 -0.8626 -0.5335
  434MOL0     C58488  13.322   1.179   8.508 -0.7566  0.6082 -0.3240
  434MOL0     C58489  13.407   1.078   8.556 -0.3888  0.4091  1.0731
  434MOL0     O58490  13.541   1.085   8.524 -0.2386 -0.3479 -0.0548
  434MOL0     C58491  13.583   0.980   8.427 -0.2891 -0.0393 -0.7076
  434MOL0     C58492  13.731   1.006   8.406  0.6680 -0.8362 -0.6534
  434MOL0     C58493  13.813   1.020   8.538 -0.1198  0.3921 -0.2475
  434MOL0     C58494  13.962   1.022   8.496 -1.3399  0.5007  0.1023
  434MOL0     C58495  14.067   1.033   8.603  0.3093  0.4129 -0.7913
  434MOL0     C58496  14.210   1.054   8.550  0.1065 -1.1534 -0.3244
  434MOL0     C58497  14.294   1.101   8.675 -0.2125 -0.0485  0.4214
  434MOL0     C58498  14.441   1.113   8.641  0.2948  0.1964 -0.8610
  434MOL0    Cl58499  14.504   0.952   8.592  0.1277 -0.4013 -0.4617
  434MOL0     C58500  13.357   0.971   8.630  0.4137 -0.2484  0.0818
  434MOL0     C58501  13.219   0.954   8.650 -0.2515  0.2751 -0.5350
  434MOL0     O58502  12.973   0.925   8.795 -0.4670 -0.0224  0.2614
  434MOL0     C58503  12.692   0.983   8.802 -0.0367  0.9545  0.3287
  434MOL0     C58504  12.554   1.014   8.796 -0.4247  0.4325 -0.1087
  434MOL0     N58505  11.758   1.312   8.928  1.9589 -0.1038  0.1861
  434MOL0     N58506  11.743   1.331   9.051  0.6815  0.0559 -0.1448
  434MOL0     C58507  11.108   1.245   9.780 -0.0444  0.4999 -0.7469
  434MOL0     C58508  10.988   1.311   9.823  0.9272 -0.5863  0.5087
  434MOL0     C58509  10.632   1.468   9.973 -0.4380 -1.3844 -0.8097
  434MOL0     C58510  10.540   1.431  10.073  0.1521  0.2881 -0.9305
  434MOL0     C58511  10.450   1.523  10.128 -0.5061  0.4289  0.2353
  434MOL0     C58512  10.460   1.655  10.088 -0.1838  0.6417 -0.2915
  434MOL0     O58513  10.375   1.741  10.150 -0.4773  0.1044 -0.5848
  434MOL0     C58514  10.245   1.749  10.084 -0.2530  0.6517  0.1048
  434MOL0     C58515  10.153   1.703  10.193  0.3918  0.0486  0.2560
  434MOL0     C58516  10.001   1.701  10.133 -0.5157  0.4309 -0.4034
  434MOL0     C58517   9.906   1.684  10.250  0.4993 -0.5308  0.3653
  434MOL0     C58518   9.778   1.610  10.222 -0.3342 -0.0593  0.7845
  434MOL0     C58519   9.667   1.568  10.199 -0.0612 -0.1497  0.9061
  434MOL0     C58520  10.542   1.693   9.988 -0.5604 -0.4761  0.6726
  434MOL0     C58521  10.635   1.604   9.930  0.9568  0.6328  0.0226
  434MOL0     C58522  10.730   1.664   9.827 -0.4806  1.0436  0.3608
  434MOL0     H58523  10.771   1.207   9.592  0.1004  2.7107 -0.2626
  434MOL0     H58524  10.982   1.104   9.503 -3.9856 -0.0477  0.5127
  434MOL0     H58525  11.176   0.946   9.546  2.0244 -1.3264 -0.0354
  434MOL0     H58526  11.201   1.065   9.415  2.7657 -0.9538 -1.5841
  434MOL0     H58527  11.369   0.870   9.457  0.4725 -0.7618  1.1258
  434MOL0     H58528  11.409   0.941   9.610 -1.2186 -0.3846  0.6026
  434MOL0     H58529  11.420   1.158   9.407 -0.4282  0.0141 -0.4778
  434MOL0     H58530  11.511   1.017   9.345  2.3752 -1.4021  0.8054
  434MOL0     H58531  11.560   1.139   9.621  0.4787  0.5896 -0.1175
  434MOL0     H58532  11.648   1.009   9.543 -1.6123 -0.8221 -2.7098
  434MOL0     H58533  11.624   1.255   9.371 -0.4294 -0.8516 -1.1298
  434MOL0     H58534  11.727   1.265   9.526  1.7714 -1.3997  1.1962
  434MOL0     H58535  11.836   1.065   9.463  0.2299 -0.5360 -0.7830
  434MOL0     H58536  11.763   1.084   9.295  1.2123 -1.1146  0.6291
  434MOL0     H58537  12.001   1.163   9.311 -0.4997  0.7255 -1.3898
  434MOL0     H58538  11.941   1.268   9.444 -2.1880  2.1256 -0.0463
  434MOL0     H58539  11.802   1.386   9.296 -2.3972 -1.8982 -0.9763
  434MOL0     H58540  11.973   1.404   9.237 -0.5071 -0.0679 -1.2171
  434MOL0     H58541  12.028   1.194   9.054  0.6040 -0.6247 -0.8927
  434MOL0     H58542  11.902   1.131   8.740  0.2345 -0.1564  0.4415
  434MOL0     H58543  11.916   1.299   8.695 -1.4079 -0.3436 -0.0223
  434MOL0     H58544  12.133   1.300   8.851 -0.5843  0.7366  0.1916
  434MOL0     H58545  12.105   1.119   8.838 -2.3822  0.3664  1.6483
  434MOL0     H58546  12.108   1.306   8.602 -1.0543  1.1598  2.5361
  434MOL0     H58547  12.135   1.127   8.594 -2.5656  1.7418 -1.9952
  434MOL0     H58548  12.320   1.336   8.717  1.5437  0.4264  0.1537
  434MOL0     H58549  12.329   1.260   8.548 -1.3345  1.2203 -0.1741
  434MOL0     H58550  12.568   1.270   8.569 -1.8912 -0.5626 -0.3150
  434MOL0     H58551  12.817   1.226   8.598 -0.5073 -1.1217 -2.3872
  434MOL0     H58552  13.125   1.245   8.501  0.2805  0.9046  3.2160
  434MOL0     H58553  13.368   1.263   8.456  0.7702  0.0015 -0.0084
  434MOL0     H58554  13.566   0.881   8.470  0.2285 -0.1921 -0.8608
  434MOL0     H58555  13.535   0.968   8.329 -1.2231 -1.9515 -0.0656
  434MOL0     H58556  13.771   0.926   8.343 -0.2099 -2.4002  0.6873
  434MOL0     H58557  13.740   1.099   8.350 -0.3389 -0.0720  0.4007
  434MOL0     H58558  13.791   1.119   8.581  1.1703  1.4277 -1.8493
  434MOL0     H58559  13.788   0.949   8.618  0.6721  2.9875  2.5207
  434MOL0     H58560  13.975   1.099   8.420 -2.0889 -2.1028 -2.8525
  434MOL0     H58561  13.982   0.927   8.445  1.8510  1.2771 -0.3471
  434MOL0     H58562  14.071   0.938   8.658  1.3210  1.7579  1.6349
  434MOL0     H58563  14.035   1.109   8.675  1.3896  1.1281 -1.0285
  434MOL0     H58564  14.258   0.959   8.524  0.6045 -0.9388 -0.2032
  434MOL0     H58565  14.208   1.120   8.463  0.7009 -0.5392  0.1115
  434MOL0     H58566  14.291   1.030   8.758  1.4719 -0.1915  0.3798
  434MOL0     H58567  14.264   1.200   8.710 -0.2473  0.3622 -0.7207
  434MOL0     H58568  14.469   1.194   8.573 -2.4592  1.7955 -0.2379
  434MOL0     H58569  14.483   1.133   8.740 -3.5002  0.4376  0.8906
  434MOL0     H58570  13.425   0.890   8.653  0.7997 -0.4657 -1.6564
  434MOL0     H58571  13.190   0.875   8.718 -1.1976 -0.5093 -1.8199
  434MOL0     H58572  12.718   0.883   8.836  0.7115  1.0510  0.0702
  434MOL0     H58573  12.482   0.949   8.845 -1.7447  2.6566  1.0721
  434MOL0     H58574  11.198   1.256   9.840 -1.6789 -0.3215  2.0014
  434MOL0     H58575  10.976   1.363   9.917  0.0236  2.8326 -1.3494
  434MOL0     H58576  10.539   1.338  10.129 -4.6654  2.0674  2.6382
  434MOL0     H58577  10.393   1.493  10.216  0.0814  0.2430  0.5533
  434MOL0     H58578  10.228   1.702   9.987  3.2421  1.5361 -1.0888
  434MOL0     H58579  10.216   1.854  10.069 -3.6269 -0.1623  0.2251
  434MOL0     H58580  10.172   1.770  10.277  0.5301 -0.4498  0.6273
  434MOL0     H58581  10.178   1.600  10.220 -2.3292 -1.2055 -1.6355
  434MOL0     H58582   9.987   1.616  10.065 -1.4855 -1.5003  2.0445
  434MOL0     H58583   9.981   1.798  10.087 -0.3920  0.8777  0.4760
  434MOL0     H58584   9.958   1.637  10.334  1.8442  0.7934  0.3153
  434MOL0     H58585   9.886   1.788  10.278  3.8084  0.6804 -1.3331
  434MOL0     H58586   9.569   1.531  10.174 -0.1026  0.8793 -0.5595
  434MOL0     H58587  10.542   1.800   9.967 -3.2025 -0.0713  2.3416
  434MOL0     H58588  10.824   1.608   9.823 -0.9228  0.3903 -1.6866
  434MOL0     H58589  10.680   1.666   9.730  1.2711  2.9112 -0.5916
  434MOL0     H58590  10.773   1.762   9.851 -0.3235  1.2115 -0.5701
  435MOL0     O58591  10.302   7.242   8.332  0.4963  0.1263 -0.4762
  435MOL0     C58592  10.239   7.299   8.243 -0.1835  0.1824 -0.1128
  435MOL0     O58593  10.303   7.373   8.148 -0.1806  0.5250  0.3349
  435MOL0     C58594  10.440   7.344   8.131 -0.0071 -0.6087  0.7151
  435MOL0     C58595  10.481   7.271   8.024  1.0249 -0.1766  0.2910
  435MOL0     C58596  10.615   7.232   8.007 -0.0747  0.1935 -1.0855
  435MOL0     C58597  10.705   7.271   8.111  0.3913  0.7229  0.6712
  435MOL0     O58598  10.828   7.221   8.103 -0.3567  0.2265  0.8578
  435MOL0     C58599  10.933   7.303   8.150 -0.1752 -0.5667 -0.6748
  435MOL0     C58600  11.059   7.240   8.091 -0.1337 -0.3764 -1.0612
  435MOL0     C58601  11.188   7.313   8.116 -0.3080  0.2020 -0.6589
  435MOL0     C58602  11.266   7.306   7.991  0.0048 -0.0419  0.9753
  435MOL0     C58603  11.389   7.393   7.992  0.2135  0.1526  0.4337
  435MOL0     C58604  11.476   7.367   8.118  0.1588 -0.0734 -0.2272
  435MOL0     C58605  11.612   7.430   8.102 -0.7032 -0.0432 -0.4081
  435MOL0     C58606  11.611   7.577   8.110 -0.3619 -0.0892 -0.3517
  435MOL0     N58607  11.716   7.642   8.035 -1.1138 -0.8200 -0.6970
  435MOL0     C58608  11.852   7.638   8.066  0.1669  0.3769 -0.9646
  435MOL0     C58609  11.915   7.698   7.962 -0.1596  0.5666 -0.0884
  435MOL0     C58610  12.059   7.718   7.957 -0.2737 -0.4236 -0.4650
  435MOL0     C58611  12.093   7.839   8.040  0.2942 -0.8329  0.0146
  435MOL0     C58612  12.238   7.839   8.050  0.4760  0.4804 -0.0322
  435MOL0     C58613  12.286   7.928   8.161 -0.2767  0.7994 -0.0954
  435MOL0     O58614  12.432   7.913   8.166  0.0637 -0.2345  0.2081
  435MOL0     C58615  12.511   7.978   8.249 -0.4294 -0.0834 -0.9852
  435MOL0     C58616  12.458   8.072   8.345 -0.2633  0.3603 -0.1119
  435MOL0     C58617  12.540   8.143   8.435  0.1682 -0.5073  0.3131
  435MOL0     C58618  12.680   8.111   8.438 -0.5194  0.0948  0.0279
  435MOL0     C58619  12.768   8.195   8.522 -0.1958 -0.3053  0.2829
  435MOL0     O58620  12.722   8.312   8.562  0.5471 -0.5328 -0.1777
  435MOL0     C58621  12.782   8.408   8.646 -0.2027 -0.7364 -0.0430
  435MOL0     C58622  12.919   8.413   8.679  0.8708  0.1186  1.2824
  435MOL0     C58623  12.972   8.494   8.775 -0.3604  0.1599 -0.6905
  435MOL0     C58624  12.892   8.566   8.862 -0.6563  0.1107  0.0647
  435MOL0     O58625  12.932   8.644   8.963  0.5476  0.8115  0.5525
  435MOL0     C58626  13.009   8.759   8.942  0.9425  0.1611  0.3628
  435MOL0     C58627  12.924   8.885   8.899 -0.1390  0.2142 -1.2069
  435MOL0     C58628  12.817   8.934   8.995  1.1797  0.1452  0.4479
  435MOL0     C58629  12.866   8.961   9.140 -0.3111 -0.0090 -0.5100
  435MOL0     C58630  12.754   9.034   9.216  0.4627  0.3682 -0.2838
  435MOL0     C58631  12.786   9.043   9.367  0.0109  0.4641 -0.3719
  435MOL0     C58632  12.881   9.164   9.396 -0.1859 -0.3943 -0.1362
  435MOL0     C58633  12.810   9.303   9.424 -0.4112  0.4971  1.2580
  435MOL0    Cl58634  12.767   9.371   9.266  0.2110 -0.2739 -0.0487
  435MOL0     C58635  12.748   8.564   8.850 -0.2034  0.0344  1.1204
  435MOL0     C58636  12.694   8.484   8.744 -0.4226 -0.1960 -0.3348
  435MOL0     O58637  12.868   8.144   8.563 -0.0007 -0.1888  0.3764
  435MOL0     C58638  12.729   8.016   8.348 -0.3498  0.0692 -1.1645
  435MOL0     C58639  12.651   7.952   8.260  0.0771 -0.2062  0.3530
  435MOL0     N58640  11.822   7.744   7.871  1.0365  0.7028 -1.1293
  435MOL0     N58641  11.701   7.707   7.914 -0.0105 -0.3961 -0.2698
  435MOL0     C58642  10.666   7.334   8.230  0.7178 -0.1295 -0.1214
  435MOL0     C58643  10.528   7.376   8.241  0.1424  0.1487 -0.1955
  435MOL0     C58644  10.095   7.284   8.230 -0.1729 -0.0254  0.4793
  435MOL0     C58645  10.032   7.314   8.108 -0.0460 -0.3017  0.5496
  435MOL0     C58646   9.901   7.266   8.084 -0.1517  0.5805  0.7540
  435MOL0     C58647   9.812   7.218   8.182 -0.5382 -0.0862  1.1301
  435MOL0     O58648   9.683   7.189   8.159  0.4213  0.1233 -0.1757
  435MOL0     C58649   9.639   7.202   8.022  0.6628 -0.3963 -0.1630
  435MOL0     C58650   9.497   7.142   7.996 -0.4044 -0.5680  0.4979
  435MOL0     C58651   9.488   6.999   8.021 -0.4060  0.1227  0.2823
  435MOL0     C58652   9.343   6.962   7.996  0.0804 -0.1873 -0.6075
  435MOL0     C58653   9.245   7.006   8.099 -0.5535  0.1995 -0.5543
  435MOL0     C58654   9.179   7.067   8.179 -0.3629  0.3628 -0.2088
  435MOL0     C58655   9.879   7.191   8.308 -0.1235 -0.2507  0.1508
  435MOL0     C58656  10.021   7.219   8.331  0.0375 -0.1286  0.3424
  435MOL0     C58657  10.068   7.186   8.465 -0.1846 -0.4050  0.4752
  435MOL0     H58658  10.401   7.247   7.956  0.3950  0.8348  0.6513
  435MOL0     H58659  10.662   7.187   7.919  0.0928 -0.2421 -0.7731
  435MOL0     H58660  10.924   7.399   8.099 -2.3909 -0.4825 -0.2274
  435MOL0     H58661  10.938   7.312   8.259 -2.9609 -0.8640 -0.4579
  435MOL0     H58662  11.031   7.228   7.986 -2.2380 -0.2416 -0.5665
  435MOL0     H58663  11.075   7.135   8.118 -0.2985 -0.2945 -0.6332
  435MOL0     H58664  11.247   7.264   8.194  0.1055 -2.5448 -2.5567
  435MOL0     H58665  11.165   7.416   8.147  0.5000 -0.6633  3.4374
  435MOL0     H58666  11.296   7.201   7.985  0.8932  0.2937 -1.6915
  435MOL0     H58667  11.210   7.336   7.902  1.1040  0.2602  0.3716
  435MOL0     H58668  11.437   7.374   7.895  0.8110 -1.3687  1.0003
  435MOL0     H58669  11.351   7.495   7.993  1.5221  0.7171 -1.4412
  435MOL0     H58670  11.432   7.393   8.214  1.2091 -1.1395  0.5811
  435MOL0     H58671  11.501   7.261   8.132 -2.1242 -0.5008  1.0942
  435MOL0     H58672  11.663   7.396   8.012  1.5735  1.8284  0.0926
  435MOL0     H58673  11.675   7.395   8.184 -0.1834  0.4356 -0.6045
  435MOL0     H58674  11.516   7.606   8.064 -0.3558 -2.1856 -1.8476
  435MOL0     H58675  11.615   7.608   8.215  0.8852  2.2717 -1.0358
  435MOL0     H58676  11.904   7.582   8.143 -2.0091 -0.7595 -0.2039
  435MOL0     H58677  12.111   7.633   8.002 -0.9109 -0.0017  1.1405
  435MOL0     H58678  12.093   7.716   7.853  1.0091 -2.4171 -0.0527
  435MOL0     H58679  12.064   7.937   8.000  0.2629 -0.3172  1.2309
  435MOL0     H58680  12.053   7.836   8.142 -1.4939  0.9061 -0.5643
  435MOL0     H58681  12.264   7.874   7.950 -0.4399  1.3517  0.0174
  435MOL0     H58682  12.278   7.738   8.068  0.2738 -0.0994 -2.4538
  435MOL0     H58683  12.243   7.889   8.254 -0.9860 -1.7503 -1.3871
  435MOL0     H58684  12.253   8.032   8.151  1.3308  1.2310 -1.3475
  435MOL0     H58685  12.352   8.085   8.362 -0.3444  0.5394 -0.7338
  435MOL0     H58686  12.489   8.207   8.506  0.8253  1.1794 -0.7041
  435MOL0     H58687  12.994   8.359   8.622  1.7775  0.2137  2.3427
  435MOL0     H58688  13.079   8.507   8.787 -0.5737  2.9472 -1.0997
  435MOL0     H58689  13.059   8.787   9.035 -0.4995  4.0724  0.1289
  435MOL0     H58690  13.085   8.726   8.870 -0.5459 -3.3690  0.2015
  435MOL0     H58691  12.993   8.969   8.883 -2.0567  2.1697  0.2153
  435MOL0     H58692  12.873   8.862   8.806 -2.1821  2.2048 -0.6680
  435MOL0     H58693  12.780   9.026   8.949 -1.8890 -1.3699 -0.4192
  435MOL0     H58694  12.731   8.866   8.999 -0.4826  2.1906  1.1728
  435MOL0     H58695  12.953   9.025   9.125 -0.4408 -0.2818 -2.9503
  435MOL0     H58696  12.894   8.867   9.188  0.5169  2.1508  3.6380
  435MOL0     H58697  12.659   8.978   9.211  0.0316  0.8724  1.4577
  435MOL0     H58698  12.740   9.133   9.173 -1.7766  0.5218  0.6098
  435MOL0     H58699  12.693   9.061   9.421 -0.9302  1.4106 -2.2210
  435MOL0     H58700  12.835   8.948   9.393  1.0081  0.9782 -0.3401
  435MOL0     H58701  12.960   9.170   9.321  1.1920  5.1784  1.3079
  435MOL0     H58702  12.922   9.131   9.491  0.7080  0.7253 -0.1150
  435MOL0     H58703  12.717   9.294   9.481 -1.0111  1.7794  0.5287
  435MOL0     H58704  12.876   9.365   9.485 -2.4572  0.1651  4.0096
  435MOL0     H58705  12.687   8.626   8.916 -1.7372 -0.7211  0.4702
  435MOL0     H58706  12.588   8.473   8.725 -0.6138  0.7091  0.1638
  435MOL0     H58707  12.836   7.998   8.351 -0.4631 -0.6372  1.5634
  435MOL0     H58708  12.692   7.870   8.203 -1.3154 -1.3217  0.8888
  435MOL0     H58709  10.730   7.351   8.316 -1.1539  1.8991  0.9821
  435MOL0     H58710  10.494   7.428   8.330 -2.2219  0.3074 -1.1328
  435MOL0     H58711  10.095   7.362   8.034  0.8474 -0.9136  0.8995
  435MOL0     H58712   9.878   7.269   7.978 -1.3137  0.1919  0.9871
  435MOL0     H58713   9.707   7.162   7.945  1.4480 -0.7034  0.6728
  435MOL0     H58714   9.630   7.308   7.998  0.0332 -0.8719 -2.2684
  435MOL0     H58715   9.469   7.169   7.894  0.0048  1.8408  0.9586
  435MOL0     H58716   9.429   7.191   8.066 -0.9909 -1.4760  0.5791
  435MOL0     H58717   9.507   6.967   8.124  0.4190  0.5165  0.2513
  435MOL0     H58718   9.566   6.961   7.954  1.1666  2.7235  0.5384
  435MOL0     H58719   9.318   7.002   7.897  3.4350 -0.6704 -1.7865
  435MOL0     H58720   9.338   6.853   7.984 -0.6700 -0.2544  0.2189
  435MOL0     H58721   9.127   7.133   8.246  0.0074 -0.2960  0.7347
  435MOL0     H58722   9.825   7.140   8.388 -2.0388 -1.6841 -1.9094
  435MOL0     H58723  10.109   7.276   8.511 -2.2656 -0.0253  1.7272
  435MOL0     H58724   9.982   7.166   8.529  0.0801  0.8730  1.2608
  435MOL0     H58725  10.135   7.101   8.470 -0.3321 -0.6484 -1.1322
  436MOL0     O58726   1.660  10.777   6.159  0.3970  0.6989 -0.0400
  436MOL0     C58727   1.701  10.665   6.199 -0.2136  0.4054  0.7881
  436MOL0     O58728   1.641  10.549   6.177  0.3617 -0.1478 -0.1563
  436MOL0     C58729   1.514  10.553   6.124  0.5651 -0.6865  0.2972
  436MOL0     C58730   1.482  10.544   5.994 -0.1043 -0.3657 -0.1153
  436MOL0     C58731   1.347  10.569   5.951  0.1575 -0.2921  0.1390
  436MOL0     C58732   1.243  10.588   6.044  0.0438  0.5924  0.5342
  436MOL0     O58733   1.113  10.613   6.012 -0.3033 -0.3749 -0.0775
  436MOL0     C58734   1.076  10.753   6.020  0.5193  0.4084 -0.0794
  436MOL0     C58735   1.020  10.789   5.881 -0.0483 -0.0249 -0.8888
  436MOL0     C58736   0.882  10.739   5.866  1.3258  0.2766 -0.4144
  436MOL0     C58737   0.835  10.765   5.720 -0.6097  0.2995 -0.3389
  436MOL0     C58738   0.702  10.692   5.697 -0.6598  0.2731  1.0054
  436MOL0     C58739   0.639  10.746   5.573  0.2239 -0.3536 -0.6360
  436MOL0     C58740   0.526  10.661   5.534  0.4812  0.0057  0.3425
  436MOL0     C58741   0.448  10.719   5.416 -0.0441 -0.5855  0.0851
  436MOL0     N58742   0.341  10.629   5.382  0.0453 -0.7141  0.3147
  436MOL0     C58743   0.210  10.670   5.382  0.4515 -0.6512  0.1579
  436MOL0     C58744   0.135  10.560   5.349  0.4282 -0.8387  0.4812
  436MOL0     C58745  -0.017  10.558   5.331 -0.4650 -0.6562  0.0801
  436MOL0     C58746  -0.100  10.632   5.429  0.0438  1.2271  0.0990
  436MOL0     C58747  -0.088  10.587   5.578 -0.2953  0.1296 -0.2073
  436MOL0     C58748  -0.130  10.699   5.672  0.5653 -0.2085 -1.0048
  436MOL0     O58749  -0.062  10.829   5.653  0.4278 -0.6483  0.6869
  436MOL0     C58750   0.059  10.846   5.714 -0.8588  0.1323 -0.1715
  436MOL0     C58751   0.089  10.988   5.717  0.4865 -0.2367 -0.5479
  436MOL0     C58752   0.202  11.037   5.776 -0.4514  0.2892 -0.3612
  436MOL0     C58753   0.304  10.955   5.836  0.0821 -0.6806  0.3115
  436MOL0     C58754   0.423  11.015   5.894 -0.9541 -0.0869  0.1089
  436MOL0     O58755   0.531  10.929   5.916  0.1427 -0.1693  0.1815
  436MOL0     C58756   0.630  10.988   5.985 -0.8018  1.0429  0.1248
  436MOL0     C58757   0.641  10.947   6.116 -0.2045 -0.0120 -1.1486
  436MOL0     C58758   0.744  10.985   6.196 -0.4390 -0.6477  0.3774
  436MOL0     C58759   0.841  11.069   6.142  0.5875 -0.6481  0.1118
  436MOL0     O58760   0.937  11.103   6.235 -0.5628  0.0784 -0.5039
  436MOL0     C58761   1.041  11.188   6.204 -0.0643  0.0447  0.0059
  436MOL0     C58762   1.132  11.191   6.330 -0.7819 -0.1488 -0.5709
  436MOL0     C58763   1.194  11.323   6.361 -0.9057  0.3944  0.3600
  436MOL0     C58764   1.283  11.315   6.486  0.6957  0.3621  0.0037
  436MOL0     C58765   1.225  11.259   6.614  0.5965 -0.2601 -0.2012
  436MOL0     C58766   1.330  11.212   6.710  0.0826 -0.6201 -0.2732
  436MOL0     C58767   1.280  11.226   6.861 -0.1772 -0.6874 -0.1453
  436MOL0     C58768   1.372  11.159   6.959  0.6286  0.0179  0.7635
  436MOL0    Cl58769   1.366  10.973   6.952  0.2042  0.0254  0.0652
  436MOL0     C58770   0.830  11.112   6.006 -0.7213  0.0654 -0.7052
  436MOL0     C58771   0.728  11.071   5.935  0.4827 -0.0476  0.6735
  436MOL0     O58772   0.413  11.125   5.945 -0.0321  0.3089  0.3322
  436MOL0     C58773   0.278  10.818   5.823 -0.2744 -0.3876  0.5110
  436MOL0     C58774   0.157  10.763   5.763 -0.2780 -0.8649 -0.1483
  436MOL0     N58775   0.218  10.460   5.320 -0.8919 -1.0279  0.4844
  436MOL0     N58776   0.341  10.497   5.347  0.4947 -0.1478 -0.4767
  436MOL0     C58777   1.280  10.583   6.175  0.2122  0.0495 -0.3122
  436MOL0     C58778   1.408  10.571   6.221  0.4125  0.0331  0.0410
  436MOL0     C58779   1.830  10.677   6.267  1.4556  0.7415  0.8165
  436MOL0     C58780   1.848  10.791   6.344 -1.1274  0.3136 -0.0293
  436MOL0     C58781   1.977  10.812   6.401  0.7747 -0.6688  0.0548
  436MOL0     C58782   2.087  10.728   6.381  0.0208  0.2452  0.3381
  436MOL0     O58783   2.199  10.767   6.447  1.0303 -0.2057 -0.0091
  436MOL0     C58784   2.335  10.720   6.418  0.8532 -0.2831  0.0471
  436MOL0     C58785   2.378  10.611   6.513  0.1906 -0.9799  0.5077
  436MOL0     C58786   2.367  10.658   6.660 -0.4022  0.0304  0.5002
  436MOL0     C58787   2.382  10.537   6.760  0.0204 -0.2163 -0.3535
  436MOL0     C58788   2.517  10.476   6.772 -0.2322  0.6369 -0.0413
  436MOL0     C58789   2.631  10.430   6.791  0.2960 -0.9072 -1.2555
  436MOL0     C58790   2.068  10.609   6.311 -0.4033 -0.4946  0.6562
  436MOL0     C58791   1.945  10.591   6.246  0.0401 -0.4649  0.0396
  436MOL0     C58792   1.943  10.487   6.139  0.5631  0.6380 -0.5557
  436MOL0     H58793   1.558  10.541   5.916  0.8497  0.2434  0.7682
  436MOL0     H58794   1.336  10.571   5.843  1.2091 -4.4209 -0.2055
  436MOL0     H58795   1.006  10.764   6.104 -1.4016 -0.5070 -1.4812
  436MOL0     H58796   1.164  10.814   6.041  0.7253 -0.0566  0.4347
  436MOL0     H58797   1.080  10.741   5.803  1.8511 -1.6870  1.4487
  436MOL0     H58798   1.026  10.898   5.872 -1.8510  0.3169  1.3098
  436MOL0     H58799   0.810  10.788   5.932  0.4166  0.8198 -1.7663
  436MOL0     H58800   0.880  10.632   5.889 -0.8966  0.5401  0.8521
  436MOL0     H58801   0.819  10.871   5.700  0.1828  0.2217 -1.4919
  436MOL0     H58802   0.905  10.724   5.646 -0.6920 -2.2287  0.8666
  436MOL0     H58803   0.722  10.588   5.673 -1.4421  0.7703 -2.3049
  436MOL0     H58804   0.631  10.696   5.781  1.2980 -1.2969  2.8197
  436MOL0     H58805   0.606  10.851   5.579  0.2702 -0.3186 -0.9457
  436MOL0     H58806   0.714  10.750   5.493 -0.6418  0.0369 -1.4570
  436MOL0     H58807   0.457  10.652   5.619 -0.5372  2.7575 -0.1151
  436MOL0     H58808   0.570  10.569   5.495  1.4203  1.0772 -1.1960
  436MOL0     H58809   0.409  10.820   5.432  1.7218  0.1235  0.1863
  436MOL0     H58810   0.515  10.726   5.330  1.3776  2.5376  1.2842
  436MOL0     H58811   0.163  10.764   5.409  0.6117 -0.7943  0.9536
  436MOL0     H58812  -0.034  10.614   5.238  0.1755  2.6172  1.7794
  436MOL0     H58813  -0.044  10.455   5.305 -1.3475 -0.5771  0.6418
  436MOL0     H58814  -0.053  10.730   5.424  0.1970  1.0874 -1.9092
  436MOL0     H58815  -0.204  10.647   5.398  0.3700  0.8006 -1.2515
  436MOL0     H58816   0.016  10.564   5.602 -0.6477 -2.2358 -0.7281
  436MOL0     H58817  -0.147  10.497   5.597 -3.1499  1.5686 -1.6630
  436MOL0     H58818  -0.118  10.668   5.776 -0.4152  3.2700  0.3003
  436MOL0     H58819  -0.235  10.731   5.670  0.7241  0.4206  0.1404
  436MOL0     H58820   0.016  11.061   5.683  1.2331 -0.2115 -2.1742
  436MOL0     H58821   0.225  11.143   5.781 -0.8304  0.3802 -0.5164
  436MOL0     H58822   0.564  10.887   6.163  0.9871 -0.5775  0.1613
  436MOL0     H58823   0.752  10.940   6.295 -1.2086 -0.2732  0.6155
  436MOL0     H58824   1.094  11.165   6.111 -0.3364  2.5652 -0.8245
  436MOL0     H58825   1.005  11.289   6.186 -2.5840 -0.9127 -0.7901
  436MOL0     H58826   1.073  11.163   6.417 -0.3071 -2.7528 -0.9873
  436MOL0     H58827   1.208  11.116   6.304 -1.6146 -0.3283 -2.7008
  436MOL0     H58828   1.268  11.358   6.289 -0.0369 -0.0342  1.0179
  436MOL0     H58829   1.115  11.399   6.371  0.2768  1.9509 -1.3354
  436MOL0     H58830   1.318  11.417   6.502 -1.0223  1.2440 -1.4336
  436MOL0     H58831   1.371  11.254   6.463  2.0638  0.4940  4.1783
  436MOL0     H58832   1.151  11.179   6.610 -0.8360  0.8698  1.6150
  436MOL0     H58833   1.187  11.351   6.660  2.2415  0.1782  0.3686
  436MOL0     H58834   1.349  11.106   6.690 -2.9171 -1.0041 -1.5793
  436MOL0     H58835   1.424  11.259   6.680 -0.2151 -1.3185 -2.4668
  436MOL0     H58836   1.178  11.188   6.862 -1.6552  2.3522 -4.2854
  436MOL0     H58837   1.277  11.335   6.877  1.5098 -0.9318  2.2222
  436MOL0     H58838   1.473  11.180   6.921 -0.4794  0.0850 -2.4527
  436MOL0     H58839   1.366  11.203   7.059  5.1761  2.3541  0.2896
  436MOL0     H58840   0.905  11.183   5.971  1.7107 -1.2275  1.5417
  436MOL0     H58841   0.718  11.111   5.835 -0.1020  1.2085  1.2069
  436MOL0     H58842   0.348  10.746   5.865 -1.1719 -0.1581  2.5183
  436MOL0     H58843   0.153  10.654   5.768  0.9298 -0.8686  2.0765
  436MOL0     H58844   1.216  10.610   6.258  4.1067  1.3655  2.5848
  436MOL0     H58845   1.440  10.566   6.324  2.7555  2.1710 -0.4880
  436MOL0     H58846   1.761  10.854   6.358 -1.3282 -0.0879  0.5693
  436MOL0     H58847   2.004  10.891   6.469  0.8252 -1.7513  1.3326
  436MOL0     H58848   2.396  10.811   6.419 -0.0128  0.3091  0.0554
  436MOL0     H58849   2.335  10.682   6.315  0.2400  1.1722 -0.5160
  436MOL0     H58850   2.485  10.589   6.500  0.3799  0.2972 -0.2952
  436MOL0     H58851   2.329  10.514   6.502  2.7149 -2.2252 -0.5200
  436MOL0     H58852   2.271  10.706   6.681 -0.6386  2.3515 -4.3140
  436MOL0     H58853   2.444  10.729   6.692  1.5851 -2.5163  1.6901
  436MOL0     H58854   2.341  10.560   6.858 -6.0633  1.4343 -2.8216
  436MOL0     H58855   2.316  10.460   6.721 -0.7266 -0.5286  1.4399
  436MOL0     H58856   2.726  10.386   6.812  0.6016 -0.2387 -1.2072
  436MOL0     H58857   2.143  10.533   6.288 -2.4005 -1.9938 -1.2378
  436MOL0     H58858   2.044  10.465   6.106  1.7242 -0.0305  3.0039
  436MOL0     H58859   1.893  10.397   6.175 -1.5616  0.9900 -2.3787
  436MOL0     H58860   1.895  10.537   6.053 -0.3082  0.5677 -0.1241
  437MOL0     O58861  10.999   7.999   7.766  0.2444 -0.1421 -0.2409
  437MOL0     C58862  10.918   7.911   7.741 -0.2176 -0.5214  0.0205
  437MOL0     O58863  10.946   7.782   7.704 -0.5004 -0.1341 -0.5255
  437MOL0     C58864  11.073   7.735   7.676 -0.7201 -0.1230  0.4854
  437MOL0     C58865  11.086   7.626   7.588 -0.1656  0.3165 -0.6248
  437MOL0     C58866  11.208   7.568   7.556  0.3392  0.0804  0.5088
  437MOL0     C58867  11.329   7.610   7.624  0.2321 -0.2336 -0.0625
  437MOL0     O58868  11.445   7.549   7.573 -0.4479  0.6465  0.1764
  437MOL0     C58869  11.565   7.573   7.637 -0.3875  0.3445  0.3289
  437MOL0     C58870  11.681   7.501   7.565 -0.0132  0.3734  0.1160
  437MOL0     C58871  11.717   7.359   7.614 -0.4316  0.3317 -0.8936
  437MOL0     C58872  11.805   7.369   7.743  0.6479  0.1986 -0.0737
  437MOL0     C58873  11.808   7.235   7.815 -0.4304  0.0393 -0.7485
  437MOL0     C58874  11.906   7.232   7.925  0.2060  0.2814  0.1105
  437MOL0     C58875  12.054   7.275   7.907  0.1734  0.0413  0.3811
  437MOL0     C58876  12.117   7.227   7.779  0.1186  0.9259  0.5304
  437MOL0     N58877  12.262   7.209   7.801  0.6447  0.3636  0.0549
  437MOL0     C58878  12.332   7.087   7.799  0.1365  0.4414  0.2162
  437MOL0     C58879  12.457   7.116   7.843 -0.0975  0.0209  0.0008
  437MOL0     C58880  12.590   7.042   7.837  0.7069  0.3264 -1.3253
  437MOL0     C58881  12.635   6.987   7.975 -0.2899  0.1938 -0.6288
  437MOL0     C58882  12.756   6.906   7.959 -0.0466 -0.1642 -0.0712
  437MOL0     C58883  12.823   6.885   8.089 -0.2394 -1.0579  0.3404
  437MOL0     O58884  12.941   6.800   8.063 -0.6521 -0.3407  0.4127
  437MOL0     C58885  13.027   6.760   8.161  0.0348 -0.2898 -0.1882
  437MOL0     C58886  12.999   6.777   8.300 -0.3785 -0.2897 -0.8304
  437MOL0     C58887  13.081   6.717   8.401  0.0117  0.3466  0.1978
  437MOL0     C58888  13.188   6.635   8.357 -0.3032 -0.4861  0.1403
  437MOL0     C58889  13.283   6.571   8.453  0.0205 -0.9735  0.4707
  437MOL0     O58890  13.260   6.597   8.579  0.5793  0.0305 -0.0779
  437MOL0     C58891  13.331   6.506   8.661 -0.5920  0.4556 -0.8304
  437MOL0     C58892  13.473   6.510   8.670  0.0980 -0.0003 -0.0539
  437MOL0     C58893  13.534   6.438   8.768  0.2100  0.2075  0.8333
  437MOL0     C58894  13.461   6.372   8.867 -0.8258  0.0033 -0.2460
  437MOL0     O58895  13.526   6.289   8.950  0.2068 -0.3335 -0.8094
  437MOL0     C58896  13.577   6.169   8.891  0.0014  0.8159 -0.1443
  437MOL0     C58897  13.730   6.179   8.855  0.9000 -0.3290 -0.9234
  437MOL0     C58898  13.799   6.160   8.989  0.4658 -0.9230  0.5380
  437MOL0     C58899  13.849   6.019   9.016 -0.4000 -0.2385  0.5956
  437MOL0     C58900  13.920   6.023   9.155  0.1216  0.3097  0.5535
  437MOL0     C58901  13.928   5.889   9.210  0.0302  0.3301 -1.0285
  437MOL0     C58902  13.965   5.886   9.360  0.0328  0.7903  0.7781
  437MOL0     C58903  13.921   5.752   9.428  0.2592 -1.2439  0.2487
  437MOL0    Cl58904  13.991   5.733   9.592  0.4428  0.2509 -0.4901
  437MOL0     C58905  13.322   6.368   8.867 -0.1912 -0.4516  0.0532
  437MOL0     C58906  13.255   6.441   8.760 -0.2096  0.4055  0.8699
  437MOL0     O58907  13.378   6.510   8.406  0.2919  0.4953 -0.6595
  437MOL0     C58908  13.216   6.618   8.213 -0.4230 -0.5039  0.1563
  437MOL0     C58909  13.136   6.686   8.119 -0.8167 -0.1450 -0.2060
  437MOL0     N58910  12.459   7.245   7.881 -0.1747  0.0157 -0.6202
  437MOL0     N58911  12.348   7.303   7.850 -0.0996 -0.1796  0.3120
  437MOL0     C58912  11.317   7.711   7.717  0.8285  0.1503 -0.6997
  437MOL0     C58913  11.199   7.786   7.738  0.4560  0.1769  0.6267
  437MOL0     C58914  10.776   7.953   7.738  0.2810  0.1128 -0.0832
  437MOL0     C58915  10.732   8.054   7.826  0.2153 -0.2765 -0.0437
  437MOL0     C58916  10.599   8.099   7.829  0.5032 -0.1423  0.5763
  437MOL0     C58917  10.502   8.028   7.752 -0.1470 -0.4398 -0.5081
  437MOL0     O58918  10.368   8.047   7.758  0.3674 -0.4543  0.5170
  437MOL0     C58919  10.334   8.186   7.768  0.5032  0.1742 -0.4002
  437MOL0     C58920  10.190   8.195   7.717 -0.0677  0.1116 -0.0337
  437MOL0     C58921  10.097   8.154   7.827 -0.8275  0.3294 -0.3160
  437MOL0     C58922   9.959   8.150   7.765 -0.8680  0.0203 -0.9247
  437MOL0     C58923   9.849   8.113   7.853  0.4494  0.2421 -1.2984
  437MOL0     C58924   9.746   8.084   7.913 -0.4533 -1.1386  0.4564
  437MOL0     C58925  10.544   7.929   7.666  0.5211  0.0063  0.2398
  437MOL0     C58926  10.678   7.892   7.653  0.0465 -0.4729 -0.0261
  437MOL0     C58927  10.712   7.792   7.538 -0.2044 -0.0735 -0.7590
  437MOL0     H58928  10.995   7.599   7.536  0.1081  0.5265 -1.2221
  437MOL0     H58929  11.209   7.491   7.479  4.3817 -0.9134  1.3491
  437MOL0     H58930  11.582   7.681   7.640  1.6035  0.3476 -3.7663
  437MOL0     H58931  11.554   7.531   7.738  0.7911 -2.1514 -0.5005
  437MOL0     H58932  11.777   7.555   7.566  2.1556 -3.1431  0.3049
  437MOL0     H58933  11.656   7.493   7.459 -0.4252 -0.8295  0.2953
  437MOL0     H58934  11.769   7.311   7.531 -1.5246 -0.3118 -1.2283
  437MOL0     H58935  11.627   7.299   7.630  0.1327 -0.2947  0.0519
  437MOL0     H58936  11.907   7.402   7.723  1.0447 -0.9411 -0.0094
  437MOL0     H58937  11.757   7.444   7.808 -0.6927 -1.6907  1.2226
  437MOL0     H58938  11.707   7.207   7.845 -1.0286  2.3571 -0.4198
  437MOL0     H58939  11.849   7.165   7.742  0.4604 -1.4037  1.0623
  437MOL0     H58940  11.853   7.269   8.013 -0.8345 -2.0530  0.5325
  437MOL0     H58941  11.911   7.125   7.948 -0.3191  0.0613 -0.7444
  437MOL0     H58942  12.111   7.241   7.994 -1.5126 -0.5112  1.3035
  437MOL0     H58943  12.070   7.383   7.913 -1.0805  0.1427  3.6547
  437MOL0     H58944  12.059   7.136   7.759  0.7027  0.0955  2.4623
  437MOL0     H58945  12.105   7.296   7.695 -0.7261  1.2972  0.9437
  437MOL0     H58946  12.289   6.997   7.758 -2.0157  1.1092  0.8937
  437MOL0     H58947  12.577   6.959   7.767  0.1954 -0.5397 -0.2412
  437MOL0     H58948  12.670   7.101   7.791  1.8823 -1.9015 -2.2822
  437MOL0     H58949  12.656   7.061   8.053  1.1824  0.8024 -1.5572
  437MOL0     H58950  12.553   6.929   8.018 -0.7217 -0.5023 -2.3272
  437MOL0     H58951  12.821   6.949   7.882 -0.2868  2.6756  1.2088
  437MOL0     H58952  12.730   6.805   7.925  2.1026 -0.3254 -1.4243
  437MOL0     H58953  12.761   6.824   8.156 -0.1160 -0.9770  0.5285
  437MOL0     H58954  12.850   6.978   8.140  0.3709 -0.4674 -1.0282
  437MOL0     H58955  12.918   6.841   8.333  1.9432  1.2375  2.4003
  437MOL0     H58956  13.069   6.728   8.508  4.1352  2.0368  0.6969
  437MOL0     H58957  13.549   6.554   8.606  0.3206 -1.7197 -1.0353
  437MOL0     H58958  13.642   6.449   8.778  0.7688 -1.0623 -2.5194
  437MOL0     H58959  13.581   6.087   8.963  0.4972 -1.0774 -2.2162
  437MOL0     H58960  13.515   6.143   8.805 -0.8649  2.1755  0.0376
  437MOL0     H58961  13.754   6.100   8.784  0.0173 -1.4162 -0.0451
  437MOL0     H58962  13.756   6.278   8.817 -0.2790  0.8611  1.1843
  437MOL0     H58963  13.882   6.231   8.981 -0.7051  0.3279 -1.2290
  437MOL0     H58964  13.736   6.198   9.070 -2.7610  0.6000 -2.4004
  437MOL0     H58965  13.917   5.982   8.940  0.1606  1.9244 -0.0377
  437MOL0     H58966  13.756   5.961   9.020 -0.1703 -0.8354 -1.6255
  437MOL0     H58967  13.846   6.073   9.217 -0.1471 -0.3135  0.7458
  437MOL0     H58968  14.016   6.075   9.152  1.0531 -1.3570 -1.3246
  437MOL0     H58969  13.830   5.849   9.184  0.6061 -0.1765 -2.4792
  437MOL0     H58970  13.988   5.816   9.156 -0.3710 -0.2316 -0.7312
  437MOL0     H58971  13.924   5.971   9.414 -1.5709  0.5341  0.0044
  437MOL0     H58972  14.072   5.904   9.379 -0.0248  1.7575  0.2336
  437MOL0     H58973  13.812   5.748   9.430  0.1620  0.2558 -0.2584
  437MOL0     H58974  13.942   5.665   9.366 -0.5105 -2.4371  1.6038
  437MOL0     H58975  13.257   6.326   8.944 -0.1383  0.8603  0.8539
  437MOL0     H58976  13.147   6.450   8.753 -0.3544 -1.3893  0.1581
  437MOL0     H58977  13.290   6.557   8.162 -0.4129  0.0012 -0.4513
  437MOL0     H58978  13.155   6.673   8.013 -1.6865 -1.0104 -0.2677
  437MOL0     H58979  11.402   7.741   7.777  1.0924 -2.8340  0.6025
  437MOL0     H58980  11.208   7.869   7.808 -2.0047  0.6603  0.4576
  437MOL0     H58981  10.784   8.129   7.884 -2.6268  1.5952  0.2655
  437MOL0     H58982  10.583   8.186   7.893  0.7615 -0.4181  1.0238
  437MOL0     H58983  10.398   8.249   7.706  1.7152 -0.9432 -0.3139
  437MOL0     H58984  10.340   8.219   7.872 -0.0464 -1.9248  0.3570
  437MOL0     H58985  10.169   8.148   7.621  0.7114 -0.7388  0.1928
  437MOL0     H58986  10.171   8.300   7.695  3.0210  0.6491 -0.5407
  437MOL0     H58987  10.102   8.228   7.907  0.5364 -0.1132  0.0433
  437MOL0     H58988  10.117   8.056   7.871  0.9697  1.5882  1.8881
  437MOL0     H58989   9.936   8.243   7.713 -0.5398 -0.0437 -1.1937
  437MOL0     H58990   9.961   8.072   7.689 -1.7331 -2.2551  1.2540
  437MOL0     H58991   9.669   8.052   7.980  1.9878 -1.3519  3.3934
  437MOL0     H58992  10.469   7.871   7.613  2.0972 -1.4566 -0.5161
  437MOL0     H58993  10.635   7.774   7.462  0.9122  0.0684 -1.9544
  437MOL0     H58994  10.793   7.825   7.472  0.1907  0.6013  0.0444
  437MOL0     H58995  10.732   7.694   7.583 -0.7670 -0.4283 -1.2630
  438MOL0     O58996   1.743   4.888   3.230 -0.2941  0.2136  0.0833
  438MOL0     C58997   1.719   4.893   3.114  0.3725  0.3332  0.7031
  438MOL0     O58998   1.788   4.947   3.011 -0.0654  0.3600 -1.1411
  438MOL0     C58999   1.914   4.991   3.041 -0.4743 -0.4910 -0.4406
  438MOL0     C59000   1.997   4.972   3.165  0.3481 -0.2524  0.0273
  438MOL0     C59001   2.119   5.037   3.171 -0.3506  0.7723 -0.0253
  438MOL0     C59002   2.164   5.112   3.059 -1.1928  0.0791 -0.4333
  438MOL0     O59003   2.280   5.191   3.076 -0.4928  0.2752  0.0579
  438MOL0     C59004   2.386   5.147   3.157 -0.8957 -0.7090 -0.4057
  438MOL0     C59005   2.518   5.219   3.114 -0.1960  0.4304 -0.0431
  438MOL0     C59006   2.569   5.137   3.001  0.2932 -0.9200  0.0088
  438MOL0     C59007   2.676   5.202   2.904  0.5482  0.3213  0.3032
  438MOL0     C59008   2.746   5.088   2.828 -0.6218  0.2302  0.7566
  438MOL0     C59009   2.848   5.002   2.893  0.9019  0.0124  0.5688
  438MOL0     C59010   2.987   5.062   2.923 -0.8208  2.0222  1.4096
  438MOL0     C59011   3.093   5.042   2.809 -0.3815 -0.1447 -1.5727
  438MOL0     N59012   3.226   5.091   2.847 -0.5367 -0.3071  0.0811
  438MOL0     C59013   3.291   5.074   2.966 -0.5493  0.2066 -0.7585
  438MOL0     C59014   3.422   5.119   2.944  0.2337 -0.3603 -0.4665
  438MOL0     C59015   3.538   5.074   3.029  0.1663  0.4665 -0.8188
  438MOL0     C59016   3.654   5.025   2.943 -0.6002  0.5019 -0.0671
  438MOL0     C59017   3.776   5.001   3.032  1.0415 -0.0442 -0.3898
  438MOL0     C59018   3.893   4.946   2.951  0.1017  0.0428 -0.2373
  438MOL0     O59019   4.009   4.944   3.039  0.0389  0.2003  0.0919
  438MOL0     C59020   4.124   4.884   2.991  0.3557 -0.8229 -0.7416
  438MOL0     C59021   4.215   4.854   3.093 -0.3469  0.4359  0.5456
  438MOL0     C59022   4.344   4.810   3.071 -0.5180 -0.3613 -0.0606
  438MOL0     C59023   4.397   4.788   2.946  0.7297  0.0981  1.0325
  438MOL0     C59024   4.535   4.746   2.931 -0.4114  0.1777  0.2231
  438MOL0     O59025   4.601   4.722   3.046  0.2716 -0.5150 -0.3403
  438MOL0     C59026   4.738   4.707   3.048  0.6080  0.4075 -0.0067
  438MOL0     C59027   4.794   4.585   3.097 -0.1354 -0.7106 -0.3687
  438MOL0     C59028   4.926   4.559   3.089  0.3480  1.0457  1.3540
  438MOL0     C59029   5.019   4.651   3.039  0.4527 -0.7557 -0.4732
  438MOL0     O59030   5.152   4.608   3.029 -0.9792 -0.1074  0.7706
  438MOL0     C59031   5.247   4.701   2.992  0.5556 -0.2992 -0.5308
  438MOL0     C59032   5.385   4.633   3.016  0.0993  0.3317  1.8358
  438MOL0     C59033   5.496   4.739   2.973 -0.2468  0.1437 -0.4477
  438MOL0     C59034   5.635   4.683   2.961  0.3169 -1.2198  0.0624
  438MOL0     C59035   5.746   4.794   2.931  0.7138 -0.3320  0.4068
  438MOL0     C59036   5.896   4.749   2.939 -0.0863 -0.1406  0.0022
  438MOL0     C59037   5.990   4.870   2.925  0.4649  0.1038  0.5232
  438MOL0     C59038   6.132   4.855   2.906 -0.1241 -0.2531  0.4749
  438MOL0    Cl59039   6.223   4.799   3.043 -0.3898  0.4481  0.0422
  438MOL0     C59040   4.967   4.770   2.987  1.1425  1.0890 -0.7238
  438MOL0     C59041   4.828   4.798   2.985  0.8908  0.6547 -0.0805
  438MOL0     O59042   4.589   4.724   2.821  0.7411  0.0194 -0.0781
  438MOL0     C59043   4.301   4.810   2.839 -0.6223  0.5427  0.3834
  438MOL0     C59044   4.168   4.854   2.866 -0.3469  0.3510  0.3706
  438MOL0     N59045   3.417   5.182   2.823  0.1326 -0.0907 -0.6664
  438MOL0     N59046   3.297   5.169   2.773  0.2369 -0.2992  0.3011
  438MOL0     C59047   2.090   5.126   2.941  0.0385 -0.3703  0.2643
  438MOL0     C59048   1.967   5.062   2.930 -0.0329 -0.5894 -0.2135
  438MOL0     C59049   1.597   4.809   3.080  0.2044 -0.1283  0.6349
  438MOL0     C59050   1.475   4.870   3.093  0.3946  0.1953  0.2361
  438MOL0     C59051   1.352   4.808   3.064  0.0971  0.4411 -0.4409
  438MOL0     C59052   1.355   4.677   3.017 -0.1120  0.8060 -0.6932
  438MOL0     O59053   1.232   4.621   2.989 -0.0092  0.5124 -0.2808
  438MOL0     C59054   1.210   4.473   2.994  0.1034  0.0534 -1.0614
  438MOL0     C59055   1.232   4.402   2.864  0.0209 -0.2224  0.3578
  438MOL0     C59056   1.199   4.249   2.845  1.0964  0.0314  0.4601
  438MOL0     C59057   1.277   4.159   2.948 -0.1387  0.1645 -0.5411
  438MOL0     C59058   1.421   4.198   2.957 -0.9193 -0.0916  0.5789
  438MOL0     C59059   1.534   4.237   2.966 -0.3256  0.5290  0.4874
  438MOL0     C59060   1.479   4.615   2.989 -0.5685 -0.7443  0.1881
  438MOL0     C59061   1.595   4.682   3.016 -0.7160 -0.1461 -0.5633
  438MOL0     C59062   1.722   4.616   2.967 -0.5284 -0.3727  0.0742
  438MOL0     H59063   1.977   4.913   3.254  0.9303 -2.8403 -1.4597
  438MOL0     H59064   2.170   5.021   3.265  0.3978  3.8324  0.2081
  438MOL0     H59065   2.359   5.182   3.258 -1.8900  1.2795 -1.2913
  438MOL0     H59066   2.394   5.038   3.159 -1.7794 -0.8074  2.3752
  438MOL0     H59067   2.578   5.206   3.205 -1.4894 -2.1850  0.5300
  438MOL0     H59068   2.505   5.322   3.080 -1.4810 -0.0625 -1.1097
  438MOL0     H59069   2.482   5.098   2.947 -1.1465  1.5813  0.3581
  438MOL0     H59070   2.604   5.043   3.044 -0.7882 -2.5396 -2.4059
  438MOL0     H59071   2.626   5.274   2.838  0.3138 -0.6408 -0.6004
  438MOL0     H59072   2.747   5.259   2.965 -0.7304 -1.3443  3.5781
  438MOL0     H59073   2.685   5.013   2.776  0.6041 -0.2318 -0.0742
  438MOL0     H59074   2.793   5.135   2.741 -1.3349 -1.2531 -0.4758
  438MOL0     H59075   2.803   4.976   2.989  1.8594 -1.2747  0.6915
  438MOL0     H59076   2.858   4.905   2.842  1.3081 -0.0445  0.7556
  438MOL0     H59077   3.031   5.014   3.011 -2.3414  0.5366  1.4057
  438MOL0     H59078   2.962   5.166   2.946  0.8345  2.6746  0.4356
  438MOL0     H59079   3.089   4.940   2.770  0.4215 -0.4400 -0.9098
  438MOL0     H59080   3.048   5.107   2.734 -7.9295 -0.0122  2.1743
  438MOL0     H59081   3.249   5.022   3.051  2.1423 -1.0755 -0.0859
  438MOL0     H59082   3.569   5.159   3.090  0.9271  0.2205 -0.8449
  438MOL0     H59083   3.505   4.987   3.086  2.0438 -1.1474 -2.0607
  438MOL0     H59084   3.619   4.938   2.887 -2.1480  0.7777  0.4202
  438MOL0     H59085   3.685   5.097   2.867  1.2094 -1.7504 -1.5694
  438MOL0     H59086   3.760   4.917   3.100  3.2965  0.5507  0.9737
  438MOL0     H59087   3.814   5.092   3.080  0.6252  0.0448 -0.2207
  438MOL0     H59088   3.922   4.999   2.860  1.5659 -1.1430 -0.5030
  438MOL0     H59089   3.880   4.841   2.921 -0.0812  0.5501 -2.0316
  438MOL0     H59090   4.174   4.864   3.194 -0.7293  0.2660  0.4109
  438MOL0     H59091   4.397   4.802   3.165  0.1445  0.5362 -0.3357
  438MOL0     H59092   4.726   4.515   3.145 -2.6881  0.4378 -2.0904
  438MOL0     H59093   4.970   4.467   3.124  1.0531  1.0322  0.4658
  438MOL0     H59094   5.223   4.742   2.893 -1.9830  1.8795  0.8664
  438MOL0     H59095   5.244   4.788   3.059  0.2170 -1.5535  1.1465
  438MOL0     H59096   5.406   4.592   3.114  2.5963 -1.2173  0.7325
  438MOL0     H59097   5.391   4.546   2.950 -0.2715  0.2129  1.9576
  438MOL0     H59098   5.450   4.777   2.881  0.4714  1.0854 -0.4280
  438MOL0     H59099   5.499   4.823   3.043  1.8348  0.2518 -0.6107
  438MOL0     H59100   5.642   4.612   2.878 -0.0008 -1.2291  0.0436
  438MOL0     H59101   5.646   4.640   3.061  2.2236  2.1614  1.4480
  438MOL0     H59102   5.742   4.874   3.005  0.0849  0.0133 -0.0010
  438MOL0     H59103   5.716   4.841   2.837 -0.9862 -1.3417  0.4130
  438MOL0     H59104   5.911   4.704   3.037 -0.3446  0.8832  0.5313
  438MOL0     H59105   5.919   4.673   2.863 -0.6504  0.2579 -0.5883
  438MOL0     H59106   5.968   4.938   3.008 -2.7095 -1.3797  1.0671
  438MOL0     H59107   5.964   4.904   2.825  0.2322 -2.6643 -0.4514
  438MOL0     H59108   6.138   4.786   2.821 -2.3026  0.4265 -0.3076
  438MOL0     H59109   6.169   4.951   2.869 -0.9708 -0.3328 -0.6343
  438MOL0     H59110   5.038   4.845   2.953  3.2978  0.0662  1.2320
  438MOL0     H59111   4.794   4.881   2.924 -1.0815 -1.1429 -1.5840
  438MOL0     H59112   4.349   4.799   2.743 -0.2820  2.1922  0.3281
  438MOL0     H59113   4.101   4.869   2.782 -0.5061 -1.3033  0.1751
  438MOL0     H59114   2.136   5.190   2.866  3.3212 -2.0171  0.6853
  438MOL0     H59115   1.906   5.074   2.841 -0.3150 -1.1079 -0.0960
  438MOL0     H59116   1.482   4.970   3.135  2.7271 -0.9573  2.9620
  438MOL0     H59117   1.260   4.851   3.103  0.9797  2.7615 -0.7526
  438MOL0     H59118   1.111   4.457   3.036  0.1143  1.4111 -0.4727
  438MOL0     H59119   1.285   4.425   3.058  0.7326  1.3614 -0.7936
  438MOL0     H59120   1.331   4.427   2.825 -0.6663  1.5272 -0.4017
  438MOL0     H59121   1.158   4.448   2.797 -0.7856 -1.3660  0.4424
  438MOL0     H59122   1.220   4.213   2.744 -0.1819  3.5052 -1.2070
  438MOL0     H59123   1.092   4.231   2.853  1.3421 -1.6979  0.2121
  438MOL0     H59124   1.231   4.155   3.047 -0.4149  1.4866 -0.6047
  438MOL0     H59125   1.280   4.057   2.906  0.3374  0.7982 -2.1159
  438MOL0     H59126   1.629   4.285   2.958 -0.7015  1.7106  2.4381
  438MOL0     H59127   1.479   4.511   2.956 -0.3219 -0.3367 -1.1666
  438MOL0     H59128   1.726   4.630   2.858  0.9945  0.5054  0.2153
  438MOL0     H59129   1.810   4.663   3.011  1.9324 -3.1286 -1.5859
  438MOL0     H59130   1.728   4.514   3.005  0.5895  0.2136  1.5701
  439MOL0     O59131   1.222   7.945   4.441 -0.1133 -0.2426  0.1789
  439MOL0     C59132   1.174   8.032   4.505  1.3596 -0.2063  0.6431
  439MOL0     O59133   1.220   8.085   4.625 -0.2244 -0.2559 -0.1104
  439MOL0     C59134   1.344   8.040   4.674  0.3451  0.0744 -0.3104
  439MOL0     C59135   1.457   8.015   4.596 -0.0074 -0.5109  0.0375
  439MOL0     C59136   1.579   7.987   4.655 -0.4921  0.9460 -0.3213
  439MOL0     C59137   1.590   7.969   4.789  0.6084 -0.3902 -0.8187
  439MOL0     O59138   1.715   7.938   4.850  0.0572  0.3183  0.1008
  439MOL0     C59139   1.706   7.811   4.921  0.2160 -0.1868  0.8641
  439MOL0     C59140   1.828   7.788   5.010  1.1639  0.3231  0.1222
  439MOL0     C59141   1.959   7.853   4.947 -0.7927  0.0530 -0.6356
  439MOL0     C59142   1.976   8.006   4.965 -0.4221 -0.3976 -0.8928
  439MOL0     C59143   2.106   8.045   4.905 -0.7577  0.0127  0.0640
  439MOL0     C59144   2.227   7.972   4.977  0.2435  0.2279 -0.0063
  439MOL0     C59145   2.353   8.020   4.912 -0.6146  0.4484 -0.2867
  439MOL0     C59146   2.394   7.955   4.781  0.1810 -0.1410 -0.5568
  439MOL0     N59147   2.468   7.828   4.799 -0.0224  0.2835  0.8023
  439MOL0     C59148   2.575   7.797   4.881  0.9142  0.1661 -0.3251
  439MOL0     C59149   2.562   7.669   4.908  0.1624  1.2296 -0.8765
  439MOL0     C59150   2.652   7.571   4.990  0.0453  0.6792  0.0104
  439MOL0     C59151   2.606   7.431   5.000 -0.4022  0.7531 -0.3782
  439MOL0     C59152   2.724   7.342   5.024  0.0211 -0.3718  0.2257
  439MOL0     C59153   2.665   7.198   5.049 -0.3491 -0.2672 -0.7571
  439MOL0     O59154   2.770   7.095   5.031 -0.4201  0.0166  0.4065
  439MOL0     C59155   2.759   6.968   5.079 -0.2159  0.0433 -0.0629
  439MOL0     C59156   2.855   6.873   5.040  0.0314 -0.1313 -0.5248
  439MOL0     C59157   2.866   6.744   5.088 -0.5374 -0.4022 -0.9318
  439MOL0     C59158   2.778   6.700   5.183 -0.6136 -0.3620  0.2949
  439MOL0     C59159   2.802   6.568   5.245  0.4447 -0.1735 -0.6200
  439MOL0     O59160   2.914   6.490   5.210  0.5466 -0.4499  0.0467
  439MOL0     C59161   2.936   6.376   5.292  0.1417 -0.0938 -0.2090
  439MOL0     C59162   2.846   6.272   5.268  0.0194 -0.5453 -0.4305
  439MOL0     C59163   2.860   6.158   5.350 -0.8428  0.3918  0.2874
  439MOL0     C59164   2.960   6.150   5.457 -1.0661 -1.1020 -0.1004
  439MOL0     O59165   2.970   6.034   5.528  0.3118 -0.3028  0.2041
  439MOL0     C59166   2.852   5.967   5.566  1.1318 -0.6131  0.8160
  439MOL0     C59167   2.889   5.875   5.682 -0.1357 -0.2932 -0.3690
  439MOL0     C59168   2.886   5.941   5.832  0.2360 -0.5665  0.6381
  439MOL0     C59169   2.833   5.855   5.950 -0.1343 -0.1060  0.0924
  439MOL0     C59170   2.677   5.842   5.949 -0.9753 -0.4610  1.1812
  439MOL0     C59171   2.608   5.940   6.050 -0.5943  1.5243 -0.3066
  439MOL0     C59172   2.459   5.919   6.058  0.6805 -0.1458 -0.8125
  439MOL0     C59173   2.395   6.016   5.955  0.8611 -0.4195 -1.1439
  439MOL0    Cl59174   2.393   6.168   6.037 -0.2217  0.4464 -0.0513
  439MOL0     C59175   3.056   6.253   5.474 -0.1959 -0.7522  0.8506
  439MOL0     C59176   3.047   6.365   5.387 -0.8208 -0.1584 -0.0791
  439MOL0     O59177   2.731   6.537   5.343 -0.1494 -0.5608  0.2335
  439MOL0     C59178   2.678   6.788   5.228  0.1137 -0.1482  0.2493
  439MOL0     C59179   2.666   6.916   5.171 -1.0659  0.7610 -0.4940
  439MOL0     N59180   2.448   7.622   4.842  0.3120 -0.3064 -0.9782
  439MOL0     N59181   2.395   7.716   4.778  0.3070 -0.5651 -0.4086
  439MOL0     C59182   1.473   7.985   4.868 -0.8953 -1.8150  0.1570
  439MOL0     C59183   1.352   8.020   4.813  0.2251  0.9088 -0.1671
  439MOL0     C59184   1.050   8.110   4.459 -0.7093  1.0642 -0.7517
  439MOL0     C59185   1.031   8.239   4.503 -0.0970  0.5921 -0.4280
  439MOL0     C59186   0.924   8.317   4.457  0.3422  0.5937  0.4617
  439MOL0     C59187   0.820   8.264   4.373 -0.1864  0.3641  0.1564
  439MOL0     O59188   0.705   8.335   4.333 -0.3670  0.0077  0.7999
  439MOL0     C59189   0.732   8.473   4.291 -0.1873  0.4013 -0.8537
  439MOL0     C59190   0.617   8.533   4.214 -0.1313  0.2111  1.0182
  439MOL0     C59191   0.589   8.461   4.087 -0.1641 -0.9154 -0.4015
  439MOL0     C59192   0.484   8.526   3.994  0.2493  0.2421 -0.4581
  439MOL0     C59193   0.351   8.540   4.055 -0.1880 -1.1904  0.1210
  439MOL0     C59194   0.234   8.552   4.090 -0.3618 -0.1365 -0.2416
  439MOL0     C59195   0.838   8.133   4.336 -0.2815 -0.2869 -0.6787
  439MOL0     C59196   0.953   8.059   4.375 -0.8230 -0.7444  0.2168
  439MOL0     C59197   0.960   7.920   4.307  0.0476 -0.0020 -0.2458
  439MOL0     H59198   1.453   8.028   4.488 -0.8142 -2.3218 -0.1905
  439MOL0     H59199   1.664   7.977   4.587  1.0045  1.6150  1.3583
  439MOL0     H59200   1.614   7.808   4.981 -2.0248 -0.1196 -2.2879
  439MOL0     H59201   1.693   7.739   4.839 -2.2850  2.1156 -0.9859
  439MOL0     H59202   1.843   7.680   5.005  3.1545  0.6088 -1.2805
  439MOL0     H59203   1.815   7.815   5.116 -0.5662  0.5136 -0.1127
  439MOL0     H59204   1.980   7.827   4.843  3.0688  2.6338 -0.7192
  439MOL0     H59205   2.039   7.800   5.000 -1.7887 -1.7671 -0.8805
  439MOL0     H59206   1.904   8.065   4.907 -1.4204 -0.7365 -0.0244
  439MOL0     H59207   1.965   8.032   5.071 -2.2918 -0.3840 -1.0493
  439MOL0     H59208   2.099   8.011   4.802 -1.1847 -0.2525  0.1783
  439MOL0     H59209   2.126   8.151   4.923 -1.1851 -0.1048  1.3065
  439MOL0     H59210   2.229   7.992   5.085 -0.3886 -2.2591  0.5301
  439MOL0     H59211   2.227   7.863   4.975 -1.8025  0.1979 -0.2921
  439MOL0     H59212   2.431   8.000   4.986 -3.5346 -2.2354  2.3475
  439MOL0     H59213   2.349   8.129   4.899 -1.0277  0.8766  2.7432
  439MOL0     H59214   2.302   7.933   4.726  0.8352 -1.6746 -1.0865
  439MOL0     H59215   2.459   8.027   4.730 -0.2815  1.4952  1.0223
  439MOL0     H59216   2.653   7.860   4.922  0.6198  0.1805  0.2134
  439MOL0     H59217   2.746   7.564   4.934  0.1317 -0.0699  0.2387
  439MOL0     H59218   2.666   7.600   5.094 -2.7620  1.3981  0.2645
  439MOL0     H59219   2.535   7.438   5.083 -0.1512  2.4382 -0.2729
  439MOL0     H59220   2.554   7.401   4.909  1.2648  3.1857 -2.2719
  439MOL0     H59221   2.787   7.379   5.105  3.4988 -0.5831 -2.1938
  439MOL0     H59222   2.790   7.348   4.937  0.0881 -0.7921  0.2457
  439MOL0     H59223   2.603   7.181   4.960  1.1285 -2.1608 -1.5085
  439MOL0     H59224   2.606   7.188   5.140  1.5156 -3.7560  0.2736
  439MOL0     H59225   2.937   6.905   4.975  3.4594 -2.5768  2.2301
  439MOL0     H59226   2.952   6.685   5.062 -0.3881 -0.4658 -0.3183
  439MOL0     H59227   2.787   6.269   5.177  1.7071  1.5512 -1.6788
  439MOL0     H59228   2.799   6.070   5.329  2.4307 -1.8468 -0.5749
  439MOL0     H59229   2.772   6.035   5.593  0.4291 -1.9693  2.2959
  439MOL0     H59230   2.803   5.908   5.488 -1.0660  1.1247  0.8200
  439MOL0     H59231   2.826   5.786   5.680 -0.1406 -0.3474  1.1266
  439MOL0     H59232   2.989   5.833   5.666 -0.6257 -1.8244  0.4653
  439MOL0     H59233   2.990   5.969   5.845  0.8322 -2.3545  0.0634
  439MOL0     H59234   2.823   6.030   5.832 -0.2332 -0.8818 -0.0848
  439MOL0     H59235   2.862   5.916   6.036 -4.5705  0.9546  1.1050
  439MOL0     H59236   2.877   5.756   5.933 -0.5549 -0.2860  0.0343
  439MOL0     H59237   2.643   5.740   5.967 -2.4928 -0.0124  0.9932
  439MOL0     H59238   2.641   5.863   5.848  0.8587 -0.9083  0.3958
  439MOL0     H59239   2.661   5.925   6.144  3.2941 -0.6774 -2.6151
  439MOL0     H59240   2.640   6.039   6.017  3.0327 -0.0759 -2.0661
  439MOL0     H59241   2.419   5.951   6.155 -2.4472  0.1414 -2.0971
  439MOL0     H59242   2.431   5.815   6.038 -0.3554 -0.2848  1.1060
  439MOL0     H59243   2.442   6.014   5.856 -0.0656 -1.5470 -1.5947
  439MOL0     H59244   2.293   5.985   5.930  0.8217  0.0415 -1.5655
  439MOL0     H59245   3.133   6.239   5.549 -0.8699 -1.7559  1.3667
  439MOL0     H59246   3.125   6.440   5.383 -0.8965 -0.0711  0.1121
  439MOL0     H59247   2.615   6.753   5.310 -0.9961  3.1416  0.9399
  439MOL0     H59248   2.592   6.985   5.212  0.0570  0.6377  1.9673
  439MOL0     H59249   1.485   7.965   4.974  0.3769  0.1807  0.4442
  439MOL0     H59250   1.256   8.032   4.862 -0.8888  0.7823 -2.1927
  439MOL0     H59251   1.092   8.283   4.581 -0.2142  0.4330 -0.2458
  439MOL0     H59252   0.927   8.424   4.478 -0.8011  0.3474  2.0711
  439MOL0     H59253   0.826   8.476   4.236  1.6695 -1.2298  1.9804
  439MOL0     H59254   0.734   8.540   4.377 -1.5691  0.9080 -1.1893
  439MOL0     H59255   0.651   8.636   4.197  2.0615 -0.6088  0.1564
  439MOL0     H59256   0.523   8.541   4.270  0.1690 -0.7552  1.6795
  439MOL0     H59257   0.549   8.362   4.106 -2.7319  0.4313  1.9481
  439MOL0     H59258   0.683   8.440   4.034 -0.1221 -0.6656 -0.4310
  439MOL0     H59259   0.531   8.618   3.958  0.4103 -0.2868 -1.6578
  439MOL0     H59260   0.478   8.462   3.906  2.1972  1.2968 -1.4226
  439MOL0     H59261   0.136   8.555   4.133 -0.2101  0.9864  0.0627
  439MOL0     H59262   0.766   8.094   4.264  0.3303  2.0500 -2.6746
  439MOL0     H59263   0.996   7.851   4.383  3.2426  0.2854 -1.3530
  439MOL0     H59264   0.858   7.883   4.290  0.9517 -3.1196  0.5688
  439MOL0     H59265   1.032   7.904   4.226  2.2573 -1.8157  1.9346
  440MOL0     O59266   7.680   6.924   1.730  0.4971 -0.5199  0.0634
  440MOL0     C59267   7.693   7.006   1.642  1.1549 -0.7242 -0.2864
  440MOL0     O59268   7.800   7.076   1.605  0.0367  0.3178 -0.1788
  440MOL0     C59269   7.927   7.041   1.635 -0.0939  0.6810  0.8321
  440MOL0     C59270   7.970   6.974   1.752  0.1174  0.5793  0.1564
  440MOL0     C59271   8.104   6.946   1.778  0.3895 -0.0015 -0.4399
  440MOL0     C59272   8.193   6.990   1.682  0.0231 -0.3395 -0.0025
  440MOL0     O59273   8.330   6.954   1.702  0.1492 -0.1356  0.4788
  440MOL0     C59274   8.398   6.942   1.834  0.1608  0.2464 -0.4025
  440MOL0     C59275   8.559   6.956   1.813 -0.4340  0.1235 -1.4348
  440MOL0     C59276   8.609   7.099   1.787 -0.5668  0.2566  0.6742
  440MOL0     C59277   8.632   7.131   1.643  0.2127  0.5039 -0.1019
  440MOL0     C59278   8.656   7.280   1.616 -0.7113  0.0121  0.3943
  440MOL0     C59279   8.797   7.318   1.675 -0.6319  0.2590 -0.5256
  440MOL0     C59280   8.822   7.462   1.640 -0.9470 -0.2967  0.2262
  440MOL0     C59281   8.971   7.490   1.652 -0.5547 -0.4002 -0.8969
  440MOL0     N59282   9.009   7.622   1.615  0.0709  0.0876 -0.4387
  440MOL0     C59283   9.102   7.663   1.516  0.3500  0.9140 -0.5682
  440MOL0     C59284   9.089   7.793   1.509  0.1542 -0.6605  0.0563
  440MOL0     C59285   9.145   7.883   1.392  0.3680  0.0278 -0.1652
  440MOL0     C59286   9.141   8.030   1.447  0.2641  0.1559  0.2688
  440MOL0     C59287   9.237   8.050   1.563 -0.1428  0.6606 -0.2857
  440MOL0     C59288   9.245   8.203   1.595 -0.1800 -0.2724 -0.3071
  440MOL0     O59289   9.365   8.202   1.675  0.2909 -0.0839 -0.2096
  440MOL0     C59290   9.394   8.319   1.749 -0.4698 -0.0655 -0.0185
  440MOL0     C59291   9.320   8.437   1.748 -0.1607 -0.1864 -0.7307
  440MOL0     C59292   9.349   8.551   1.827  0.7358  0.9550  0.0478
  440MOL0     C59293   9.463   8.552   1.904 -0.4806  0.1750 -0.1945
  440MOL0     C59294   9.494   8.662   1.999  0.6208 -0.9166 -0.0705
  440MOL0     O59295   9.596   8.656   2.083 -0.3476  0.5639 -0.4807
  440MOL0     C59296   9.662   8.765   2.132  0.1344  0.0106 -0.1240
  440MOL0     C59297   9.791   8.790   2.095 -0.0249 -0.4658  1.4427
  440MOL0     C59298   9.849   8.909   2.128  0.0248 -0.0266  0.1759
  440MOL0     C59299   9.792   8.998   2.221 -0.1953  0.7365 -0.0718
  440MOL0     O59300   9.856   9.110   2.259 -0.0150  0.2118  0.1920
  440MOL0     C59301   9.797   9.205   2.351  0.1305  0.1653  0.2145
  440MOL0     C59302   9.890   9.331   2.368 -0.0590  0.7165 -0.3033
  440MOL0     C59303  10.034   9.300   2.413 -0.1628  0.5935  0.5484
  440MOL0     C59304  10.133   9.270   2.304 -0.2875 -0.0554 -0.5761
  440MOL0     C59305  10.278   9.261   2.349 -0.7233 -0.7592  0.3576
  440MOL0     C59306  10.359   9.185   2.233  0.4308  0.6062  0.0629
  440MOL0     C59307  10.410   9.276   2.112 -0.1146 -0.3296 -0.0051
  440MOL0     C59308  10.507   9.202   2.020 -0.3548 -0.2567 -0.8343
  440MOL0    Cl59309  10.679   9.274   2.042 -0.1807  0.1651 -0.2005
  440MOL0     C59310   9.670   8.955   2.272  0.8794  0.1704 -0.2701
  440MOL0     C59311   9.597   8.842   2.225 -0.2365 -0.3426  0.3494
  440MOL0     O59312   9.425   8.763   1.985  1.2851 -0.6255 -0.2635
  440MOL0     C59313   9.550   8.439   1.891 -0.4846 -0.1440  0.4233
  440MOL0     C59314   9.510   8.324   1.821 -0.1342 -0.3878 -0.2318
  440MOL0     N59315   8.992   7.836   1.606  0.4889 -0.0308  0.0600
  440MOL0     N59316   8.954   7.735   1.671 -0.1503  0.5586 -0.7608
  440MOL0     C59317   8.154   7.052   1.560  0.8215  0.2797  1.0606
  440MOL0     C59318   8.022   7.076   1.536  1.3807  0.1501 -1.3555
  440MOL0     C59319   7.556   7.048   1.581  0.4812 -0.3501 -0.0307
  440MOL0     C59320   7.437   6.999   1.650 -0.0605 -0.8265  0.3694
  440MOL0     C59321   7.311   7.043   1.604 -0.0332 -0.3474 -0.8321
  440MOL0     C59322   7.305   7.125   1.488 -0.5143  0.1370  0.1078
  440MOL0     O59323   7.194   7.162   1.421 -0.1636  0.5174  0.4696
  440MOL0     C59324   7.090   7.064   1.399 -0.0120  0.6958 -0.6393
  440MOL0     C59325   7.125   6.958   1.295  0.5320 -0.1643 -0.5331
  440MOL0     C59326   7.150   7.015   1.161  0.1163  0.4682 -0.7672
  440MOL0     C59327   7.197   6.899   1.066  0.3433  0.9706  0.5075
  440MOL0     C59328   7.215   6.949   0.926  0.2337  0.3439 -0.3752
  440MOL0     C59329   7.238   6.987   0.813  0.1404  0.0467  0.0027
  440MOL0     C59330   7.423   7.168   1.422  0.4100  0.2075  0.6294
  440MOL0     C59331   7.550   7.122   1.461  0.0732 -0.1466  0.2276
  440MOL0     C59332   7.660   7.140   1.357  0.5755 -0.3413 -0.0402
  440MOL0     H59333   7.898   6.949   1.829 -1.9515  3.4633 -0.6693
  440MOL0     H59334   8.133   6.911   1.876 -3.1943  0.0488  0.7950
  440MOL0     H59335   8.363   7.020   1.902  0.1535  0.8664 -1.1032
  440MOL0     H59336   8.366   6.853   1.889 -1.1822 -0.3943 -2.1191
  440MOL0     H59337   8.594   6.893   1.731 -1.7457 -1.2206 -1.0009
  440MOL0     H59338   8.606   6.933   1.909  1.3945  2.0858 -1.7609
  440MOL0     H59339   8.706   7.110   1.837 -1.0464  0.4911  1.5751
  440MOL0     H59340   8.551   7.174   1.841  2.1603  3.1079 -0.0264
  440MOL0     H59341   8.716   7.071   1.607  1.3294  1.5134  0.7641
  440MOL0     H59342   8.545   7.098   1.585  0.0218  2.7996 -1.2336
  440MOL0     H59343   8.648   7.312   1.512 -0.6507 -1.0253  0.0616
  440MOL0     H59344   8.584   7.352   1.657 -0.0746  1.3723 -0.7665
  440MOL0     H59345   8.811   7.289   1.780 -1.1988  1.3572 -0.1305
  440MOL0     H59346   8.868   7.256   1.620 -1.6892  1.2385 -3.1028
  440MOL0     H59347   8.761   7.525   1.706  1.8077  2.6928  0.1435
  440MOL0     H59348   8.783   7.486   1.541 -1.2041 -3.4823 -0.5729
  440MOL0     H59349   8.997   7.481   1.758 -0.4494 -3.4195 -1.0798
  440MOL0     H59350   9.032   7.417   1.597  1.0903  0.6689 -0.5506
  440MOL0     H59351   9.165   7.594   1.461 -3.0484 -2.6365 -0.4280
  440MOL0     H59352   9.240   7.840   1.360 -1.9326 -5.9062 -0.3058
  440MOL0     H59353   9.082   7.873   1.303  2.4100  0.8219 -1.7807
  440MOL0     H59354   9.165   8.095   1.363 -5.3778  0.6312 -1.3763
  440MOL0     H59355   9.045   8.062   1.488  0.0549 -1.6068  1.2879
  440MOL0     H59356   9.332   8.002   1.537 -0.9045 -0.8383 -0.4108
  440MOL0     H59357   9.201   8.001   1.654  2.1193 -0.1109  0.2425
  440MOL0     H59358   9.156   8.238   1.647 -1.2493 -1.3309 -1.3528
  440MOL0     H59359   9.256   8.262   1.504 -1.6043  2.6708  1.2973
  440MOL0     H59360   9.237   8.434   1.678  1.3808 -1.0555 -2.6328
  440MOL0     H59361   9.279   8.633   1.837  1.1275  1.1301  1.6989
  440MOL0     H59362   9.841   8.727   2.022 -0.2967 -3.3604  3.5628
  440MOL0     H59363   9.940   8.942   2.078 -0.6955  1.5256 -0.1539
  440MOL0     H59364   9.694   9.236   2.332 -0.3755 -1.9810 -0.9211
  440MOL0     H59365   9.775   9.157   2.447 -6.0539  2.1577  0.2127
  440MOL0     H59366   9.905   9.390   2.277 -1.4858 -0.0394 -1.0532
  440MOL0     H59367   9.848   9.396   2.444  1.9335  0.9011  0.7066
  440MOL0     H59368  10.077   9.387   2.464  0.7333 -0.8107  2.2963
  440MOL0     H59369  10.026   9.217   2.484  1.1849 -3.1856 -3.3034
  440MOL0     H59370  10.141   9.345   2.225  1.6277  1.8540  1.2857
  440MOL0     H59371  10.098   9.176   2.260 -2.7811  0.0602  0.9447
  440MOL0     H59372  10.290   9.213   2.447  0.3151 -0.5767  0.3266
  440MOL0     H59373  10.322   9.360   2.359  0.3674 -1.1703 -0.2293
  440MOL0     H59374  10.448   9.139   2.277  0.2226  1.6553  1.6645
  440MOL0     H59375  10.299   9.101   2.197  3.2152 -0.3491 -2.7382
  440MOL0     H59376  10.461   9.359   2.164 -0.2399 -1.2431  1.6664
  440MOL0     H59377  10.321   9.309   2.058  1.2091  2.7840 -0.5036
  440MOL0     H59378  10.505   9.093   2.031 -1.9967 -0.7193 -4.3658
  440MOL0     H59379  10.476   9.232   1.919  1.4984 -1.5401 -1.8430
  440MOL0     H59380   9.618   9.017   2.344  0.7144  0.9409 -1.0287
  440MOL0     H59381   9.499   8.807   2.256  0.4367 -4.6346 -1.7034
  440MOL0     H59382   9.641   8.433   1.950  0.9670  1.6937 -1.5050
  440MOL0     H59383   9.573   8.236   1.806  1.7951  1.2543 -2.4513
  440MOL0     H59384   8.226   7.077   1.483 -1.0531  1.6059 -0.3610
  440MOL0     H59385   7.986   7.118   1.443 -0.0302 -1.0405 -1.3913
  440MOL0     H59386   7.437   6.941   1.742 -2.6652 -4.3353 -1.6111
  440MOL0     H59387   7.222   7.004   1.652  0.3691 -0.9545 -0.5658
  440MOL0     H59388   6.999   7.118   1.370 -0.9269 -0.7923 -0.6600
  440MOL0     H59389   7.058   7.030   1.498  1.2829  0.4933 -0.2706
  440MOL0     H59390   7.037   6.894   1.281 -0.0609  0.7872 -1.2507
  440MOL0     H59391   7.210   6.896   1.325 -0.4654 -1.8067 -0.9639
  440MOL0     H59392   7.238   7.076   1.182 -0.1026  0.8141 -0.8399
  440MOL0     H59393   7.062   7.073   1.132 -0.5726  0.2428  0.7524
  440MOL0     H59394   7.290   6.853   1.102  0.6444  0.7840 -0.4652
  440MOL0     H59395   7.120   6.823   1.059  2.3024 -1.0396 -0.4498
  440MOL0     H59396   7.250   7.005   0.709  0.7169  1.6489  0.3163
  440MOL0     H59397   7.410   7.215   1.326  1.1925 -1.0738 -0.1315
  440MOL0     H59398   7.705   7.046   1.324 -1.3954 -0.6798 -2.0044
  440MOL0     H59399   7.623   7.196   1.270 -2.5631 -0.7975  0.8752
  440MOL0     H59400   7.737   7.206   1.397  1.5647 -1.3731 -0.2120
  441MOL0     O59401   9.252   1.574   9.447  0.0258  0.0841  0.2874
  441MOL0     C59402   9.152   1.516   9.395 -0.8137  0.7222 -0.5491
  441MOL0     O59403   9.157   1.394   9.343 -0.2598  0.5744 -0.2525
  441MOL0     C59404   9.270   1.321   9.381  0.3098  0.4595  0.3876
  441MOL0     C59405   9.263   1.271   9.511 -0.0646  1.1251 -0.0345
  441MOL0     C59406   9.372   1.201   9.565 -0.8891 -0.0535 -0.0859
  441MOL0     C59407   9.488   1.192   9.494  0.5883  0.4024  0.0249
  441MOL0     O59408   9.570   1.097   9.547 -0.0065  0.8078  0.6590
  441MOL0     C59409   9.704   1.107   9.509 -0.0659 -0.4022  0.5342
  441MOL0     C59410   9.772   1.009   9.591 -0.6900  0.5500  0.6550
  441MOL0     C59411   9.926   1.016   9.582 -0.5246  0.0289 -1.6366
  441MOL0     C59412   9.986   0.924   9.481 -0.3410  0.4257  0.0433
  441MOL0     C59413  10.137   0.932   9.479  0.9419  0.0320  0.4137
  441MOL0     C59414  10.190   1.071   9.424 -0.1497 -0.1832 -0.6499
  441MOL0     C59415  10.346   1.065   9.420 -0.0408  0.0529 -0.0283
  441MOL0     C59416  10.412   0.927   9.377 -0.4203  0.5642  0.6889
  441MOL0     N59417  10.555   0.946   9.346 -0.5784  0.3622  0.0600
  441MOL0     C59418  10.615   0.934   9.216  0.1253  0.3373  0.3670
  441MOL0     C59419  10.727   1.011   9.222 -0.5739  0.3864 -0.3206
  441MOL0     C59420  10.820   1.031   9.102 -0.6457  0.0296 -0.4037
  441MOL0     C59421  10.949   0.943   9.108 -0.5305 -0.4153 -0.2202
  441MOL0     C59422  11.061   0.985   9.196 -0.1614  0.6481 -0.5693
  441MOL0     C59423  11.185   0.899   9.189  0.5024 -0.3755 -0.2224
  441MOL0     O59424  11.293   0.984   9.161 -0.6773  0.5176  0.9076
  441MOL0     C59425  11.416   0.935   9.104  0.6101 -0.4358 -0.1320
  441MOL0     C59426  11.511   1.027   9.084  0.8599  0.0727 -0.8627
  441MOL0     C59427  11.634   0.987   9.029 -0.2543 -0.5458 -0.0725
  441MOL0     C59428  11.661   0.864   8.990  0.1812  0.2906 -0.3555
  441MOL0     C59429  11.798   0.831   8.940  0.9439 -0.4605 -0.0705
  441MOL0     O59430  11.806   0.746   8.834 -0.1937  0.2260 -1.0568
  441MOL0     C59431  11.913   0.704   8.774  0.4993  0.3622  0.7130
  441MOL0     C59432  12.041   0.766   8.764  0.4705 -0.2034 -0.0346
  441MOL0     C59433  12.143   0.717   8.674  0.3186 -0.0193 -0.3529
  441MOL0     C59434  12.119   0.609   8.590  0.2532  0.3675 -0.0993
  441MOL0     O59435  12.216   0.582   8.501  0.3598  0.3678  0.5074
  441MOL0     C59436  12.193   0.496   8.386  0.0044 -0.4092 -1.0236
  441MOL0     C59437  12.209   0.341   8.399 -0.6119  0.1684 -0.0247
  441MOL0     C59438  12.363   0.304   8.408  0.2499  0.4071 -0.0370
  441MOL0     C59439  12.388   0.151   8.380  0.4239  0.7991 -0.2649
  441MOL0     C59440  12.536   0.136   8.413 -0.1450 -0.5115  0.0443
  441MOL0     C59441  12.571  -0.012   8.393  0.1428  0.1718  1.2386
  441MOL0     C59442  12.718  -0.045   8.441  0.6618 -0.0409 -0.4415
  441MOL0     C59443  12.749  -0.197   8.442  0.9874  0.2363 -0.2474
  441MOL0    Cl59444  12.657  -0.278   8.573 -0.2688 -0.6721 -0.0209
  441MOL0     C59445  11.997   0.551   8.597 -0.0543  0.3114 -0.0571
  441MOL0     C59446  11.898   0.592   8.689  1.3553 -0.2382  0.2645
  441MOL0     O59447  11.896   0.897   8.980 -0.2375  0.0867 -0.3778
  441MOL0     C59448  11.558   0.767   8.996  0.3921 -1.0541 -0.5282
  441MOL0     C59449  11.434   0.805   9.053 -0.4972 -0.0867  0.7286
  441MOL0     N59450  10.748   1.035   9.355 -0.3117 -0.4151 -0.8330
  441MOL0     N59451  10.651   1.002   9.423  0.9100  0.4364 -0.3085
  441MOL0     C59452   9.500   1.247   9.359  0.3175  0.3126 -0.6889
  441MOL0     C59453   9.396   1.311   9.302 -0.4584  0.0139  0.5602
  441MOL0     C59454   9.016   1.568   9.383  0.5296  0.4334 -0.3878
  441MOL0     C59455   8.916   1.473   9.335 -0.0836  0.1028 -0.2160
  441MOL0     C59456   8.783   1.502   9.325  0.2321 -0.2189 -0.4632
  441MOL0     C59457   8.733   1.632   9.362 -0.2943  0.1456 -0.0432
  441MOL0     O59458   8.596   1.665   9.353 -0.6835 -0.2935 -0.2319
  441MOL0     C59459   8.509   1.574   9.292  0.1512 -0.0797 -0.6296
  441MOL0     C59460   8.362   1.620   9.297 -0.8173 -0.6420 -0.5896
  441MOL0     C59461   8.274   1.542   9.208 -0.2780  0.2048  0.5311
  441MOL0     C59462   8.130   1.585   9.204 -0.1024 -0.3340  0.4850
  441MOL0     C59463   8.062   1.584   9.335  0.2886 -0.2143 -0.3548
  441MOL0     C59464   7.994   1.554   9.433 -0.2909  0.5346 -0.5305
  441MOL0     C59465   8.826   1.728   9.405 -0.7343  0.8038  0.3360
  441MOL0     C59466   8.964   1.698   9.410  0.2318 -0.1827 -0.4738
  441MOL0     C59467   9.053   1.818   9.441 -0.4037 -0.3732  0.1308
  441MOL0     H59468   9.167   1.287   9.559 -1.0810  0.1097 -1.6561
  441MOL0     H59469   9.361   1.152   9.661 -1.2875 -0.2151 -0.2115
  441MOL0     H59470   9.735   1.092   9.405  1.2910  1.1031  0.6893
  441MOL0     H59471   9.748   1.205   9.526  2.2101 -1.4539  1.1570
  441MOL0     H59472   9.735   0.907   9.573 -5.0778  1.8696  0.9979
  441MOL0     H59473   9.746   1.043   9.691 -1.6311  6.9705 -1.3369
  441MOL0     H59474   9.960   0.991   9.683 -0.8000 -0.8199 -1.7409
  441MOL0     H59475   9.963   1.117   9.564 -2.6566  1.3076  0.6325
  441MOL0     H59476   9.953   0.820   9.492  0.1111  0.3309  0.5563
  441MOL0     H59477   9.959   0.952   9.379 -1.4271 -1.2929 -0.1861
  441MOL0     H59478  10.173   0.922   9.582  0.0812 -0.0808  0.7096
  441MOL0     H59479  10.168   0.848   9.415 -0.4903 -0.2494  0.0685
  441MOL0     H59480  10.159   1.088   9.321  1.8878  1.2797 -1.0805
  441MOL0     H59481  10.158   1.151   9.491 -1.5007 -2.1926  1.2643
  441MOL0     H59482  10.387   1.096   9.516 -1.1892  3.0999 -0.4111
  441MOL0     H59483  10.376   1.142   9.349 -0.5314  1.2135  0.9933
  441MOL0     H59484  10.414   0.860   9.464  0.5950  0.2971  0.4779
  441MOL0     H59485  10.359   0.880   9.294  0.9051 -1.9199  1.1402
  441MOL0     H59486  10.574   0.879   9.132  2.2682  1.3601 -1.4601
  441MOL0     H59487  10.756   0.995   9.020 -1.4456 -0.8481  0.5783
  441MOL0     H59488  10.851   1.134   9.086  1.5365 -0.6643 -1.0511
  441MOL0     H59489  10.911   0.841   9.125 -2.0387 -0.1025 -1.4839
  441MOL0     H59490  10.980   0.941   9.003  2.2785 -0.5338  0.5155
  441MOL0     H59491  11.026   0.977   9.299  2.1502  2.1368  0.3942
  441MOL0     H59492  11.089   1.089   9.179  0.7015  0.5895  0.4318
  441MOL0     H59493  11.164   0.825   9.111 -0.7437  1.6639 -1.8983
  441MOL0     H59494  11.206   0.856   9.288  0.1995  0.6659  0.3035
  441MOL0     H59495  11.499   1.129   9.117 -2.3566 -0.0264 -1.3600
  441MOL0     H59496  11.704   1.066   9.004  0.7776 -1.7767 -1.2452
  441MOL0     H59497  12.067   0.857   8.817 -1.6594  0.6896 -0.4154
  441MOL0     H59498  12.235   0.774   8.672 -0.2117  0.8511 -0.8374
  441MOL0     H59499  12.089   0.513   8.359 -1.0895 -0.7263  2.4249
  441MOL0     H59500  12.264   0.526   8.308  0.7835 -5.1951 -2.4659
  441MOL0     H59501  12.153   0.307   8.486 -1.9868  1.3755 -0.3929
  441MOL0     H59502  12.171   0.292   8.309 -0.0910  1.2742 -0.8745
  441MOL0     H59503  12.411   0.360   8.328 -1.0234  2.4402  0.5500
  441MOL0     H59504  12.396   0.339   8.506  2.6407  0.6447 -0.8546
  441MOL0     H59505  12.357   0.121   8.280  0.1054 -1.5599  0.4802
  441MOL0     H59506  12.327   0.092   8.449 -0.7884 -2.0706 -3.4671
  441MOL0     H59507  12.557   0.145   8.520  0.1789 -2.5214  0.1827
  441MOL0     H59508  12.602   0.206   8.360 -1.1937  1.0436  0.7377
  441MOL0     H59509  12.495  -0.072   8.444  1.1627  0.6772  3.4588
  441MOL0     H59510  12.568  -0.029   8.285 -1.8798 -0.9715  1.4253
  441MOL0     H59511  12.722  -0.008   8.543 -1.6741 -0.5714 -0.0894
  441MOL0     H59512  12.793   0.001   8.376  0.7167 -1.4942 -1.4418
  441MOL0     H59513  12.719  -0.238   8.345 -0.6175  1.8640 -0.5049
  441MOL0     H59514  12.858  -0.206   8.442  1.2683  2.5338 -1.8390
  441MOL0     H59515  11.980   0.465   8.533  1.1416 -0.1507  0.2253
  441MOL0     H59516  11.800   0.546   8.691  1.4290 -0.3908  1.9672
  441MOL0     H59517  11.591   0.665   8.977 -0.9302 -1.7070  0.4757
  441MOL0     H59518  11.352   0.736   9.041 -1.4144  1.3673 -2.0180
  441MOL0     H59519   9.593   1.248   9.303  1.9779 -3.1482  1.6509
  441MOL0     H59520   9.404   1.363   9.207 -1.1674  2.0905  1.5816
  441MOL0     H59521   8.934   1.372   9.301 -0.2967 -0.4993  1.3533
  441MOL0     H59522   8.718   1.420   9.293 -1.6223  0.5944  1.0237
  441MOL0     H59523   8.509   1.477   9.343 -0.6598  0.2603  0.0560
  441MOL0     H59524   8.542   1.563   9.189 -0.0318  4.4938 -1.4143
  441MOL0     H59525   8.360   1.727   9.273 -0.2361 -0.0712  1.6751
  441MOL0     H59526   8.325   1.612   9.400 -2.6628  1.0116 -1.0631
  441MOL0     H59527   8.286   1.437   9.238  0.0701 -0.4961 -1.8690
  441MOL0     H59528   8.304   1.541   9.103 -0.0403 -5.1751  0.3843
  441MOL0     H59529   8.132   1.684   9.157  2.5120 -1.3784 -1.8574
  441MOL0     H59530   8.074   1.527   9.130 -1.9529  0.0942  1.4726
  441MOL0     H59531   7.933   1.553   9.521 -2.1374  2.2549 -1.7142
  441MOL0     H59532   8.790   1.828   9.424 -2.7428  0.6998 -2.3540
  441MOL0     H59533   9.158   1.791   9.456 -0.2966  0.7718  1.7061
  441MOL0     H59534   9.043   1.895   9.364 -1.7716 -3.0044 -2.5186
  441MOL0     H59535   9.033   1.860   9.540  3.3548 -2.5364  2.0202
  442MOL0     O59536   0.881  11.105   0.282 -0.6497  0.0801 -0.7331
  442MOL0     C59537   0.833  11.180   0.365 -0.1474  0.7684 -0.3272
  442MOL0     O59538   0.910  11.251   0.449  0.0075 -0.4456 -1.1512
  442MOL0     C59539   1.040  11.270   0.396  0.2261 -0.8261 -0.0421
  442MOL0     C59540   1.152  11.202   0.448 -0.5687 -0.6744  0.3380
  442MOL0     C59541   1.283  11.231   0.402  0.6929 -0.1910 -0.7415
  442MOL0     C59542   1.300  11.309   0.293 -0.4870 -0.2005  0.1441
  442MOL0     O59543   1.431  11.344   0.246  0.4358 -0.8427  0.0067
  442MOL0     C59544   1.541  11.252   0.283  0.7056 -0.2120 -0.7228
  442MOL0     C59545   1.660  11.272   0.192 -0.6752 -0.8650  0.4599
  442MOL0     C59546   1.765  11.160   0.216  0.9311 -0.8661  0.2601
  442MOL0     C59547   1.895  11.211   0.287  0.0589 -0.4326 -0.4366
  442MOL0     C59548   2.008  11.118   0.257 -0.4821  0.0401 -0.0642
  442MOL0     C59549   2.110  11.125   0.365  0.3568 -0.0677 -0.6589
  442MOL0     C59550   2.237  11.059   0.330 -0.3886  0.1592  0.2267
  442MOL0     C59551   2.334  11.072   0.447 -0.2788  0.2796 -0.0508
  442MOL0     N59552   2.469  11.027   0.412  0.0791  1.1591 -0.5812
  442MOL0     C59553   2.563  11.085   0.324 -0.7845  0.0155 -0.6135
  442MOL0     C59554   2.660  10.990   0.309  0.3777  0.0588  0.1902
  442MOL0     C59555   2.785  11.000   0.225 -1.4825  0.1759 -0.6989
  442MOL0     C59556   2.904  10.990   0.317  0.8280  0.4223  0.1525
  442MOL0     C59557   3.037  10.974   0.250  0.0887  0.7483 -0.1099
  442MOL0     C59558   3.146  11.035   0.334  0.1528 -0.9144  0.3387
  442MOL0     O59559   3.273  10.990   0.284 -0.6334  0.0775  0.0397
  442MOL0     C59560   3.390  11.029   0.344 -0.2186  0.1164  0.4721
  442MOL0     C59561   3.508  10.978   0.306 -0.0090  0.7938 -0.0403
  442MOL0     C59562   3.631  11.026   0.360 -0.6326 -0.1036  0.5007
  442MOL0     C59563   3.642  11.143   0.441 -0.7822 -0.8587  0.1008
  442MOL0     C59564   3.773  11.196   0.483 -0.4462 -0.1154 -0.4980
  442MOL0     O59565   3.880  11.154   0.414  0.3364 -0.1917  0.2133
  442MOL0     C59566   4.004  11.205   0.453  0.6763 -0.5455  0.4467
  442MOL0     C59567   4.052  11.187   0.582  0.7650  1.6529  0.6141
  442MOL0     C59568   4.190  11.191   0.610  0.1716 -0.5819  1.1158
  442MOL0     C59569   4.284  11.219   0.512  0.9006  0.0251 -1.1412
  442MOL0     O59570   4.416  11.224   0.552  0.1086  0.0847  0.3686
  442MOL0     C59571   4.521  11.243   0.451  0.0278 -0.2464 -1.4038
  442MOL0     C59572   4.527  11.120   0.354  0.5982  0.7840 -0.1213
  442MOL0     C59573   4.629  11.135   0.239 -0.6897  0.5660  0.5005
  442MOL0     C59574   4.670  10.995   0.201  0.3384  0.5337  0.4891
  442MOL0     C59575   4.782  10.987   0.091 -0.8332 -0.0124 -0.6669
  442MOL0     C59576   4.919  11.039   0.146  0.1390  0.8111 -0.0823
  442MOL0     C59577   5.032  10.996   0.042  0.3155 -0.7454  0.3237
  442MOL0     C59578   5.164  11.063   0.046  0.9810  0.2053  0.8057
  442MOL0    Cl59579   5.146  11.204  -0.068  0.3202 -0.2131 -0.2582
  442MOL0     C59580   4.236  11.254   0.387 -0.6493 -0.1168 -0.4202
  442MOL0     C59581   4.100  11.248   0.357 -0.1246 -0.1626 -0.3106
  442MOL0     O59582   3.774  11.273   0.577 -0.1304 -0.2206 -0.5952
  442MOL0     C59583   3.513  11.204   0.477  1.3672  0.1067 -0.1887
  442MOL0     C59584   3.397  11.135   0.436 -0.0983  0.0574  0.3330
  442MOL0     N59585   2.628  10.883   0.397  0.3845  0.0487 -0.0232
  442MOL0     N59586   2.515  10.902   0.453 -0.2885 -0.8029  0.5069
  442MOL0     C59587   1.186  11.374   0.236 -0.3608 -0.3913  0.4076
  442MOL0     C59588   1.062  11.357   0.290 -0.2169 -0.0799 -0.0312
  442MOL0     C59589   0.688  11.160   0.399 -0.4990  0.1499  0.2767
  442MOL0     C59590   0.646  11.216   0.518 -0.5771 -0.3172  0.7257
  442MOL0     C59591   0.520  11.211   0.560 -0.2950 -0.5278 -0.2459
  442MOL0     C59592   0.422  11.138   0.495 -0.0937  0.5808 -0.7200
  442MOL0     O59593   0.294  11.119   0.537  1.1497 -0.3207 -0.9098
  442MOL0     C59594   0.260  11.115   0.680 -0.7750 -0.7935  0.7109
  442MOL0     C59595   0.100  11.110   0.685 -1.4309  0.2418  0.2196
  442MOL0     C59596   0.049  11.095   0.828 -0.4776  0.1671 -0.1062
  442MOL0     C59597  -0.098  11.142   0.831 -0.0505  0.5083 -0.4994
  442MOL0     C59598  -0.146  11.130   0.968  0.4929 -0.6567 -0.1376
  442MOL0     C59599  -0.196  11.129   1.083 -0.5101 -0.4756  0.1472
  442MOL0     C59600   0.458  11.079   0.375  0.3843 -1.0520 -0.2765
  442MOL0     C59601   0.592  11.083   0.326 -0.9351  0.2904 -0.1904
  442MOL0     C59602   0.625  11.001   0.203 -0.4172 -0.3751  1.0922
  442MOL0     H59603   1.127  11.147   0.537 -0.0828 -0.8971  0.3432
  442MOL0     H59604   1.366  11.187   0.456 -1.0800 -1.8592  0.7930
  442MOL0     H59605   1.562  11.257   0.390  0.2928  0.5157 -0.6674
  442MOL0     H59606   1.507  11.149   0.270 -0.2819  0.3770 -3.6950
  442MOL0     H59607   1.692  11.377   0.202  2.1609 -1.4931 -0.8926
  442MOL0     H59608   1.634  11.259   0.087 -0.9174 -2.5242  0.6996
  442MOL0     H59609   1.788  11.125   0.115  2.8720  0.3303  0.2339
  442MOL0     H59610   1.714  11.083   0.274 -1.2801  0.4355  0.1698
  442MOL0     H59611   1.935  11.305   0.248  0.4988 -0.8616 -1.0287
  442MOL0     H59612   1.871  11.225   0.393  1.1119 -0.4340 -0.1861
  442MOL0     H59613   1.978  11.014   0.245 -0.3515  0.0572 -0.5713
  442MOL0     H59614   2.049  11.152   0.162 -2.4676 -2.3283 -1.8966
  442MOL0     H59615   2.130  11.231   0.384 -0.2821 -0.3281  1.7182
  442MOL0     H59616   2.070  11.088   0.460 -1.6215  1.3499 -0.8762
  442MOL0     H59617   2.278  11.099   0.236 -3.4454  3.8404  0.2106
  442MOL0     H59618   2.210  10.954   0.316 -3.2399  0.6517  1.2607
  442MOL0     H59619   2.332  11.179   0.470 -0.4610  0.9364 -2.8171
  442MOL0     H59620   2.298  11.017   0.535  4.0359 -1.9913  0.5807
  442MOL0     H59621   2.548  11.183   0.278  1.3952  1.7737  2.1180
  442MOL0     H59622   2.786  10.924   0.146  0.0730 -2.3362  1.5456
  442MOL0     H59623   2.789  11.104   0.191 -0.2521  1.2502  2.3895
  442MOL0     H59624   2.903  11.082   0.376  0.2048  0.4287  0.1407
  442MOL0     H59625   2.884  10.898   0.374 -0.5106  0.0613 -0.8330
  442MOL0     H59626   3.034  11.018   0.150 -1.4453  2.8372  0.7724
  442MOL0     H59627   3.047  10.867   0.230  2.7785  1.4428 -3.3093
  442MOL0     H59628   3.133  11.001   0.437 -1.3639 -0.4835  0.3119
  442MOL0     H59629   3.133  11.144   0.330  1.1033 -0.8213 -1.4784
  442MOL0     H59630   3.519  10.885   0.250 -0.3361 -0.9503  2.5811
  442MOL0     H59631   3.721  10.972   0.334 -1.7210 -2.0011  0.5523
  442MOL0     H59632   3.987  11.146   0.658 -0.7372  3.3656  0.3408
  442MOL0     H59633   4.232  11.167   0.707  0.7553  0.6762  1.1944
  442MOL0     H59634   4.509  11.337   0.396  0.1093 -0.2147 -1.3669
  442MOL0     H59635   4.621  11.254   0.495  0.1329  0.7599 -1.8648
  442MOL0     H59636   4.529  11.029   0.416 -0.8551  1.3346  0.7834
  442MOL0     H59637   4.434  11.113   0.298  0.2980 -0.7514  0.5223
  442MOL0     H59638   4.586  11.195   0.158 -2.4533  0.6094  1.4162
  442MOL0     H59639   4.718  11.185   0.278 -0.3915  0.7515 -0.3884
  442MOL0     H59640   4.586  10.933   0.167  1.4382 -1.8941  1.9592
  442MOL0     H59641   4.706  10.934   0.284 -1.4532 -1.0740  0.1507
  442MOL0     H59642   4.751  11.043   0.002  0.2291  0.0473 -1.0190
  442MOL0     H59643   4.801  10.886   0.055 -0.2097  0.1710 -0.8620
  442MOL0     H59644   4.922  11.148   0.153  1.4355  0.8479 -0.9319
  442MOL0     H59645   4.927  10.985   0.241 -0.2628 -1.8073 -1.4167
  442MOL0     H59646   4.990  10.991  -0.059  1.2271  0.2627 -0.1182
  442MOL0     H59647   5.058  10.894   0.072 -0.4779 -0.1267  3.5153
  442MOL0     H59648   5.197  11.109   0.139  1.8107  0.0959  0.5666
  442MOL0     H59649   5.236  10.993   0.005 -0.8394 -0.6253 -1.1899
  442MOL0     H59650   4.303  11.283   0.308 -2.0685  2.3859 -0.7988
  442MOL0     H59651   4.070  11.248   0.253 -0.9041  3.1901 -0.2025
  442MOL0     H59652   3.502  11.294   0.536  0.4777 -0.4111  0.4672
  442MOL0     H59653   3.310  11.187   0.475 -0.5961 -0.0287 -0.6322
  442MOL0     H59654   1.208  11.427   0.144 -1.5574 -1.2430 -0.3962
  442MOL0     H59655   0.978  11.401   0.237 -0.1705 -1.4519 -1.3123
  442MOL0     H59656   0.720  11.270   0.576 -1.4341  2.0704 -0.2809
  442MOL0     H59657   0.480  11.268   0.644 -0.0592  1.2280 -1.2777
  442MOL0     H59658   0.291  11.204   0.735  1.2147 -0.2695 -1.1222
  442MOL0     H59659   0.300  11.024   0.726 -1.9260 -1.3257  0.6855
  442MOL0     H59660   0.066  11.034   0.614  2.9395 -0.7309 -1.1473
  442MOL0     H59661   0.065  11.203   0.642 -3.1712 -1.6901 -2.9052
  442MOL0     H59662   0.104  11.155   0.900  1.0645 -2.0301  0.6471
  442MOL0     H59663   0.059  10.993   0.866 -0.6196  0.5686  1.0444
  442MOL0     H59664  -0.097  11.245   0.794  3.2660  0.3514 -1.2301
  442MOL0     H59665  -0.162  11.074   0.776 -0.3498 -1.0544  1.6487
  442MOL0     H59666  -0.221  11.141   1.187  3.4549  1.1952  1.0791
  442MOL0     H59667   0.385  11.025   0.316  1.4883 -0.1325 -2.6064
  442MOL0     H59668   0.663  11.067   0.124  2.6405 -0.7257  2.1458
  442MOL0     H59669   0.701  10.922   0.209 -0.8472 -1.3595 -3.0064
  442MOL0     H59670   0.534  10.946   0.175  1.2870 -1.5548 -2.9254
  443MOL0     O59671   2.032   0.541   6.120  0.1344  0.6489 -0.9371
  443MOL0     C59672   2.009   0.537   5.997 -0.3314  0.1246 -0.2707
  443MOL0     O59673   2.090   0.486   5.899 -0.2881 -0.0424  0.5455
  443MOL0     C59674   2.223   0.464   5.904 -0.4792  0.5869 -0.1277
  443MOL0     C59675   2.305   0.502   6.016  0.4473 -0.9116  0.8319
  443MOL0     C59676   2.448   0.494   6.010 -0.6903  0.3776 -0.4150
  443MOL0     C59677   2.509   0.423   5.904  0.1895  0.0442  0.0833
  443MOL0     O59678   2.645   0.406   5.906  0.3807  0.9598 -0.3654
  443MOL0     C59679   2.698   0.269   5.900  0.4249  0.0621 -0.3904
  443MOL0     C59680   2.847   0.254   5.931  0.6624 -0.2268  0.7987
  443MOL0     C59681   2.929   0.356   5.852  0.2902  0.6962  0.1643
  443MOL0     C59682   3.081   0.316   5.881  0.3142 -0.2995 -0.7914
  443MOL0     C59683   3.157   0.448   5.839  0.3485 -0.2909 -0.3572
  443MOL0     C59684   3.292   0.460   5.915  0.1961 -0.3898  0.3011
  443MOL0     C59685   3.356   0.580   5.850 -0.7881 -0.2259 -0.4671
  443MOL0     C59686   3.479   0.641   5.921  0.5517 -0.2442 -0.3628
  443MOL0     N59687   3.575   0.533   5.948  0.7617  0.3047 -0.2064
  443MOL0     C59688   3.657   0.481   5.857 -1.0182 -0.3423  0.1929
  443MOL0     C59689   3.708   0.368   5.913 -0.0347 -0.1202  0.8484
  443MOL0     C59690   3.804   0.269   5.838  0.5259 -0.1285  0.5583
  443MOL0     C59691   3.938   0.341   5.818 -0.4567 -0.2711  0.1855
  443MOL0     C59692   4.047   0.251   5.756 -0.1813 -0.2125 -0.9137
  443MOL0     C59693   4.183   0.306   5.785 -0.1866  0.1840 -0.3056
  443MOL0     O59694   4.283   0.220   5.729  0.3433 -0.2532 -0.4774
  443MOL0     C59695   4.416   0.251   5.747  0.6886  0.2899 -0.3437
  443MOL0     C59696   4.470   0.354   5.826  0.5394  0.1561 -1.2829
  443MOL0     C59697   4.608   0.348   5.857 -0.5997 -1.1290 -0.0681
  443MOL0     C59698   4.699   0.254   5.799 -0.4917 -0.6788 -0.4349
  443MOL0     C59699   4.852   0.254   5.810 -0.4476 -0.9368 -0.6899
  443MOL0     O59700   4.922   0.151   5.760  0.0280 -0.4403  1.4310
  443MOL0     C59701   5.054   0.147   5.786  0.5804  0.0302 -0.4295
  443MOL0     C59702   5.149   0.158   5.685 -0.5619  0.6940  0.2828
  443MOL0     C59703   5.281   0.157   5.725  0.5252  0.0910  0.8630
  443MOL0     C59704   5.315   0.132   5.859 -0.2156 -0.6018 -0.0549
  443MOL0     O59705   5.442   0.142   5.906 -0.7626 -0.4637  0.4231
  443MOL0     C59706   5.536   0.208   5.817  0.4140 -0.0205  0.4656
  443MOL0     C59707   5.678   0.200   5.871  0.6407  0.2396  0.0166
  443MOL0     C59708   5.714   0.057   5.916 -0.1077 -0.7072  0.6925
  443MOL0     C59709   5.867   0.049   5.935  0.4817 -0.1001  0.3827
  443MOL0     C59710   5.908  -0.107   5.957  1.1808  0.8033  0.4859
  443MOL0     C59711   6.056  -0.125   5.947  0.1494  0.0864  0.3086
  443MOL0     C59712   6.121  -0.062   6.061 -1.2424  0.0984 -0.0122
  443MOL0     C59713   6.269  -0.060   6.044  0.0192 -0.7625  0.9846
  443MOL0    Cl59714   6.344  -0.012   6.203 -0.1144  0.1554 -0.0390
  443MOL0     C59715   5.218   0.104   5.952  0.0599 -0.4778 -0.2198
  443MOL0     C59716   5.088   0.113   5.916  0.7542  0.1895 -0.2679
  443MOL0     O59717   4.903   0.349   5.868 -0.4797 -0.3950 -0.2967
  443MOL0     C59718   4.639   0.160   5.714  0.4738  0.0067 -0.0563
  443MOL0     C59719   4.506   0.155   5.691 -0.8881 -0.0246 -0.2130
  443MOL0     N59720   3.652   0.351   6.033  0.5366  0.4756  0.2271
  443MOL0     N59721   3.569   0.447   6.057  0.3539 -0.4534 -0.0079
  443MOL0     C59722   2.431   0.385   5.795  0.2495 -0.2740 -0.5802
  443MOL0     C59723   2.291   0.411   5.790  0.4110  0.1905  0.4203
  443MOL0     C59724   1.867   0.560   5.959  0.7409  0.4390 -0.8166
  443MOL0     C59725   1.802   0.471   5.879 -0.6626  0.5573 -0.4691
  443MOL0     C59726   1.667   0.484   5.854  0.1773  0.6312  0.3493
  443MOL0     C59727   1.589   0.580   5.916 -0.9633  1.1608  0.1188
  443MOL0     O59728   1.457   0.577   5.883  0.1257  0.1377  0.4296
  443MOL0     C59729   1.380   0.698   5.909  0.0375  1.2377 -0.0536
  443MOL0     C59730   1.424   0.812   5.816  0.1409 -0.4729  0.3703
  443MOL0     C59731   1.341   0.943   5.827 -0.7936  0.4293  0.7489
  443MOL0     C59732   1.327   1.001   5.963 -1.0821 -0.0105 -0.6171
  443MOL0     C59733   1.222   0.944   6.042  0.3459  0.1707 -0.7651
  443MOL0     C59734   1.134   0.887   6.099  0.0769 -0.1789 -0.2705
  443MOL0     C59735   1.653   0.678   5.995  0.1219 -0.1976  0.0545
  443MOL0     C59736   1.793   0.666   6.020 -0.8963 -0.9957 -0.3683
  443MOL0     C59737   1.850   0.777   6.113  0.0543 -0.5229 -0.3516
  443MOL0     H59738   2.266   0.551   6.105  1.9012 -0.0320  1.0136
  443MOL0     H59739   2.503   0.529   6.096  0.6316 -0.6982 -0.7915
  443MOL0     H59740   2.648   0.214   5.980 -0.2297  2.5223  1.0211
  443MOL0     H59741   2.672   0.221   5.806 -0.6266  1.0859 -0.6392
  443MOL0     H59742   2.880   0.152   5.907  0.6216 -0.4421  1.6087
  443MOL0     H59743   2.858   0.280   6.037 -2.4235  0.0272  1.1292
  443MOL0     H59744   2.915   0.461   5.877  2.0992  0.7811  0.9339
  443MOL0     H59745   2.902   0.350   5.746  1.4464  0.0432 -0.1144
  443MOL0     H59746   3.096   0.287   5.985 -1.0851  0.8844 -0.2180
  443MOL0     H59747   3.101   0.225   5.823 -1.4401 -1.0950 -0.2402
  443MOL0     H59748   3.188   0.435   5.735  2.2263 -0.0892  0.1233
  443MOL0     H59749   3.096   0.538   5.851 -0.7220 -0.8962 -1.1015
  443MOL0     H59750   3.270   0.461   6.023  0.3258 -3.2933  0.4554
  443MOL0     H59751   3.354   0.372   5.898  1.3248  0.6612 -1.2205
  443MOL0     H59752   3.284   0.661   5.835 -1.1637  0.2743  3.1934
  443MOL0     H59753   3.394   0.554   5.751  0.7923 -1.3468  0.3914
  443MOL0     H59754   3.526   0.709   5.849 -1.9922  0.5883 -1.3408
  443MOL0     H59755   3.452   0.692   6.014  3.6992  1.0657 -0.0322
  443MOL0     H59756   3.687   0.534   5.767 -0.9117  1.2835  1.1557
  443MOL0     H59757   3.808   0.181   5.903 -2.9612 -0.8359  0.0363
  443MOL0     H59758   3.774   0.246   5.736  1.1375 -0.0237  0.3517
  443MOL0     H59759   3.933   0.430   5.754  1.6812  0.6079  1.1372
  443MOL0     H59760   3.976   0.376   5.914  0.7226  2.7411 -1.2323
  443MOL0     H59761   4.029   0.251   5.648  1.1840  2.0875 -1.2033
  443MOL0     H59762   4.035   0.147   5.788 -1.9653  0.4394  0.7375
  443MOL0     H59763   4.193   0.296   5.894 -1.3286 -3.7579 -0.4189
  443MOL0     H59764   4.204   0.407   5.748 -0.9671 -0.2193 -1.9360
  443MOL0     H59765   4.402   0.424   5.873 -3.5511 -2.2611 -3.1286
  443MOL0     H59766   4.646   0.430   5.918  0.1703 -1.4224 -0.1411
  443MOL0     H59767   5.135   0.173   5.578  1.4643 -0.0826 -0.1264
  443MOL0     H59768   5.359   0.170   5.650  0.3561 -1.6356  0.3421
  443MOL0     H59769   5.550   0.151   5.725 -1.2432  1.8589 -1.0449
  443MOL0     H59770   5.511   0.312   5.796 -0.9204 -0.3634  0.2576
  443MOL0     H59771   5.755   0.228   5.799 -0.2188  1.8239 -0.3185
  443MOL0     H59772   5.673   0.266   5.958  0.5791 -0.3560  0.4737
  443MOL0     H59773   5.662   0.014   6.002  0.8817  1.3986  2.4562
  443MOL0     H59774   5.708  -0.004   5.826  3.7494  0.2015 -0.3911
  443MOL0     H59775   5.900   0.112   6.018  2.8006  0.5063 -0.9219
  443MOL0     H59776   5.920   0.078   5.845 -1.3479  1.5834 -0.2171
  443MOL0     H59777   5.853  -0.167   5.884 -0.9590  0.6964  2.0797
  443MOL0     H59778   5.866  -0.133   6.054  0.5354 -0.6694 -0.1653
  443MOL0     H59779   6.082  -0.232   5.944  0.3255  0.0212  2.4645
  443MOL0     H59780   6.081  -0.077   5.851  0.2582  1.1679  0.8630
  443MOL0     H59781   6.102  -0.125   6.148  0.4049 -0.8846 -0.3384
  443MOL0     H59782   6.080   0.038   6.081 -0.4696  0.7162 -1.3618
  443MOL0     H59783   6.299  -0.159   6.007 -1.4008 -0.9649  0.2879
  443MOL0     H59784   6.306   0.002   5.962  1.8381 -5.0492 -1.7659
  443MOL0     H59785   5.249   0.087   6.055  1.8336 -0.7656 -0.7738
  443MOL0     H59786   5.014   0.091   5.992 -0.8036 -0.1479 -1.7939
  443MOL0     H59787   4.705   0.079   5.683  0.5470 -0.5057  1.3937
  443MOL0     H59788   4.468   0.070   5.635  1.4718 -0.5380 -1.1756
  443MOL0     H59789   2.494   0.345   5.716  1.0137 -2.2093  0.9519
  443MOL0     H59790   2.241   0.381   5.698  0.9000  0.8168 -0.0611
  443MOL0     H59791   1.859   0.392   5.832 -0.3746  1.3089 -1.4241
  443MOL0     H59792   1.620   0.414   5.786 -0.5321  2.2536 -0.9018
  443MOL0     H59793   1.379   0.716   6.017 -1.2314 -2.2762  0.6343
  443MOL0     H59794   1.277   0.670   5.887  0.4528  0.5464 -1.2071
  443MOL0     H59795   1.433   0.776   5.713  1.4039  2.1414 -0.5055
  443MOL0     H59796   1.526   0.839   5.843 -0.3155  0.0320  1.6560
  443MOL0     H59797   1.245   0.926   5.776 -0.2314  0.9380 -0.5135
  443MOL0     H59798   1.395   1.016   5.767 -0.0162 -0.0012  0.9179
  443MOL0     H59799   1.415   0.990   6.026 -1.3111 -2.5372 -0.6142
  443MOL0     H59800   1.304   1.107   5.949 -0.9233 -0.3313 -4.1810
  443MOL0     H59801   1.065   0.832   6.160 -0.8963 -0.6146 -1.6991
  443MOL0     H59802   1.603   0.758   6.048 -2.0047 -2.4048  1.6219
  443MOL0     H59803   1.879   0.734   6.209 -0.4455  0.4293  0.2400
  443MOL0     H59804   1.944   0.817   6.074 -0.4586  0.9845 -0.0899
  443MOL0     H59805   1.776   0.853   6.141 -0.4126 -1.5897  1.4823
  444MOL0     O59806   2.286   1.311   5.376  0.1489 -0.3426 -0.3107
  444MOL0     C59807   2.280   1.388   5.475 -0.0516  0.0659 -0.0270
  444MOL0     O59808   2.383   1.417   5.568  0.8463 -0.4094  0.2293
  444MOL0     C59809   2.482   1.336   5.561 -0.2736 -0.4207 -0.2724
  444MOL0     C59810   2.480   1.195   5.565  0.7486  0.5023 -0.5641
  444MOL0     C59811   2.587   1.113   5.547  1.1638  0.4263 -0.2169
  444MOL0     C59812   2.711   1.171   5.536  0.2884 -0.3241  0.1779
  444MOL0     O59813   2.814   1.093   5.544 -0.9118  0.4381 -0.7172
  444MOL0     C59814   2.915   1.122   5.648  0.4076  0.3744 -0.1944
  444MOL0     C59815   3.012   1.004   5.671 -0.4606  0.3688  1.2956
  444MOL0     C59816   3.105   0.989   5.546  0.2294 -1.1349  0.5335
  444MOL0     C59817   3.213   0.887   5.559  0.1165  0.6521  0.5619
  444MOL0     C59818   3.267   0.858   5.421 -0.2146  0.2128 -0.0535
  444MOL0     C59819   3.405   0.780   5.428  1.0993  0.6220 -0.0564
  444MOL0     C59820   3.481   0.790   5.294  0.6643 -0.0107  0.4935
  444MOL0     C59821   3.589   0.689   5.295  0.9075  0.2329 -0.2713
  444MOL0     N59822   3.692   0.703   5.400 -0.6194  0.4388  0.9868
  444MOL0     C59823   3.812   0.770   5.401 -0.1738 -0.4735  0.3934
  444MOL0     C59824   3.875   0.743   5.519 -0.4569  0.5668 -0.4498
  444MOL0     C59825   4.013   0.784   5.564 -0.6612  1.2694 -0.3275
  444MOL0     C59826   4.103   0.705   5.476  0.5288 -0.7557  0.8112
  444MOL0     C59827   4.152   0.581   5.548 -0.2792  0.3859 -0.9154
  444MOL0     C59828   4.287   0.526   5.491  0.0075 -0.1737 -0.1258
  444MOL0     O59829   4.382   0.633   5.462  0.4823  0.5505 -0.6770
  444MOL0     C59830   4.522   0.602   5.467  0.4730 -0.0845  0.7834
  444MOL0     C59831   4.608   0.703   5.417 -0.5973  0.2396 -0.0564
  444MOL0     C59832   4.747   0.689   5.414  0.8535  0.1631 -0.3006
  444MOL0     C59833   4.804   0.569   5.453 -1.1638 -0.2007 -0.3328
  444MOL0     C59834   4.952   0.553   5.444 -0.1373  0.4176 -0.0533
  444MOL0     O59835   5.014   0.461   5.539  0.7649 -0.1092  0.7983
  444MOL0     C59836   5.150   0.457   5.547 -0.1803  0.2138  0.1042
  444MOL0     C59837   5.220   0.407   5.444 -0.1958  0.2459  0.1579
  444MOL0     C59838   5.354   0.404   5.446  0.0757  0.0701  0.3966
  444MOL0     C59839   5.423   0.462   5.561  0.2661  0.5919  0.7945
  444MOL0     O59840   5.559   0.461   5.566 -0.6465 -0.3597  0.0653
  444MOL0     C59841   5.637   0.412   5.452  0.3458  0.4087  0.2922
  444MOL0     C59842   5.781   0.395   5.513 -0.4510  0.5544 -0.0726
  444MOL0     C59843   5.862   0.290   5.439 -0.6017  0.4368  0.4090
  444MOL0     C59844   5.983   0.249   5.523  0.8836 -0.6502 -0.5880
  444MOL0     C59845   6.110   0.190   5.446 -0.8429  0.0980 -0.8039
  444MOL0     C59846   6.210   0.115   5.538 -0.7014 -0.4179  0.0404
  444MOL0     C59847   6.331   0.044   5.475  0.2912  0.1812  0.2337
  444MOL0     C59848   6.462   0.093   5.537 -0.4200 -0.5404  0.1306
  444MOL0    Cl59849   6.490   0.280   5.530 -0.3962  0.2690  0.1377
  444MOL0     C59850   5.350   0.506   5.669  0.3464 -0.1217  0.1005
  444MOL0     C59851   5.209   0.503   5.657 -0.0099 -0.4908  1.0345
  444MOL0     O59852   5.012   0.638   5.374 -0.3575  0.0280  0.2654
  444MOL0     C59853   4.724   0.472   5.509  0.3178  0.1940  0.9811
  444MOL0     C59854   4.583   0.485   5.518  0.8752  0.8869 -0.0832
  444MOL0     N59855   3.793   0.640   5.579  1.0077 -0.0698  0.0421
  444MOL0     N59856   3.685   0.624   5.509  0.1299 -0.7435 -0.3946
  444MOL0     C59857   2.715   1.313   5.534 -0.0127 -0.5367 -0.7799
  444MOL0     C59858   2.606   1.396   5.558 -0.6283  0.6914  0.0985
  444MOL0     C59859   2.164   1.478   5.483 -0.3626 -0.0133 -0.0349
  444MOL0     C59860   2.040   1.413   5.481 -0.0501 -0.4098  1.2045
  444MOL0     C59861   1.927   1.488   5.491  0.3055 -0.4291 -0.2086
  444MOL0     C59862   1.932   1.628   5.504  0.9365 -0.7232  0.4525
  444MOL0     O59863   1.814   1.706   5.503 -0.5500  0.6770 -0.1224
  444MOL0     C59864   1.699   1.635   5.566 -0.1428 -0.8998 -0.2362
  444MOL0     C59865   1.597   1.742   5.595  0.0241  0.6380 -0.0911
  444MOL0     C59866   1.473   1.680   5.661 -0.6630 -0.2995 -0.0808
  444MOL0     C59867   1.345   1.772   5.647  0.0705 -0.5315  0.8748
  444MOL0     C59868   1.238   1.706   5.720 -0.1468 -0.2534  0.1869
  444MOL0     C59869   1.149   1.652   5.785  1.4754  0.0894  0.6801
  444MOL0     C59870   2.053   1.695   5.500 -0.3242  0.1647 -0.4598
  444MOL0     C59871   2.172   1.622   5.496 -0.6319 -0.2596 -0.0867
  444MOL0     C59872   2.296   1.709   5.512  0.7447  0.2329 -0.3231
  444MOL0     H59873   2.379   1.156   5.560  0.7707 -0.1261  2.2197
  444MOL0     H59874   2.571   1.006   5.556  3.1000  0.1625  0.4894
  444MOL0     H59875   2.972   1.214   5.631 -1.8162  2.7440  3.6484
  444MOL0     H59876   2.863   1.129   5.744  0.6330  2.1135 -0.1617
  444MOL0     H59877   2.953   0.917   5.700 -4.4173  1.9114 -1.2637
  444MOL0     H59878   3.074   1.027   5.759 -0.6795  0.9026  1.3132
  444MOL0     H59879   3.160   1.081   5.523  0.4060 -1.5620 -0.8688
  444MOL0     H59880   3.040   0.975   5.459  1.3812  0.7006 -0.7116
  444MOL0     H59881   3.288   0.931   5.626 -0.2548 -0.4541  1.7357
  444MOL0     H59882   3.174   0.791   5.592 -0.0951  1.2017  1.9847
  444MOL0     H59883   3.196   0.798   5.363  2.0105  0.1982 -2.9766
  444MOL0     H59884   3.281   0.954   5.371 -2.0621  0.4557 -0.1804
  444MOL0     H59885   3.468   0.822   5.506 -0.3116  0.4218  1.2352
  444MOL0     H59886   3.387   0.675   5.453 -2.6656  1.0785 -0.3257
  444MOL0     H59887   3.513   0.893   5.277  1.2107 -0.1608  0.5880
  444MOL0     H59888   3.414   0.759   5.213  0.3595  2.9675 -0.5189
  444MOL0     H59889   3.546   0.589   5.298  0.2151  0.5069 -1.0570
  444MOL0     H59890   3.634   0.699   5.196 -0.7425 -4.1327 -1.6913
  444MOL0     H59891   3.834   0.838   5.320  2.7339  1.9388  2.9088
  444MOL0     H59892   4.017   0.892   5.547 -0.3718  1.3380  0.1413
  444MOL0     H59893   4.026   0.761   5.671 -3.3872 -1.7285 -0.4666
  444MOL0     H59894   4.066   0.676   5.378 -0.6984  0.9587  0.7074
  444MOL0     H59895   4.180   0.782   5.469 -0.3496  0.0502 -0.3361
  444MOL0     H59896   4.077   0.503   5.536 -0.9517  1.2566 -2.7081
  444MOL0     H59897   4.179   0.599   5.652  0.4422 -0.7824 -0.8869
  444MOL0     H59898   4.248   0.484   5.397 -0.0073  1.0960 -0.7032
  444MOL0     H59899   4.337   0.452   5.554  1.5362  0.0337 -1.0549
  444MOL0     H59900   4.544   0.784   5.383  0.0545  0.3293 -1.1095
  444MOL0     H59901   4.794   0.773   5.362  0.7887  0.0665 -0.5188
  444MOL0     H59902   5.170   0.373   5.354  1.8680  0.3726 -1.1147
  444MOL0     H59903   5.393   0.358   5.356  0.4190  0.3053  0.4224
  444MOL0     H59904   5.591   0.323   5.409 -1.5427  1.1852  0.5787
  444MOL0     H59905   5.644   0.485   5.371 -0.6640  0.5944  0.3612
  444MOL0     H59906   5.840   0.487   5.508  0.9405 -0.2690  0.4316
  444MOL0     H59907   5.760   0.362   5.615 -1.6323  1.0697 -0.1370
  444MOL0     H59908   5.808   0.200   5.408  2.0963 -1.5048  0.9793
  444MOL0     H59909   5.910   0.326   5.348 -1.0587 -1.3666 -0.5944
  444MOL0     H59910   5.946   0.188   5.606 -1.1298  2.7568  1.2842
  444MOL0     H59911   6.018   0.339   5.575 -1.2412 -0.4742  0.6453
  444MOL0     H59912   6.168   0.265   5.392 -0.2930  0.4417  0.2297
  444MOL0     H59913   6.074   0.123   5.368  1.8089  0.8528 -2.8360
  444MOL0     H59914   6.248   0.181   5.617  3.3079  0.9042 -2.6760
  444MOL0     H59915   6.154   0.035   5.587  1.4989 -1.3006  1.2748
  444MOL0     H59916   6.335   0.070   5.369 -0.5812 -2.3834 -0.5015
  444MOL0     H59917   6.310  -0.063   5.481 -0.1010  0.2810  0.6935
  444MOL0     H59918   6.461   0.060   5.641  1.8036 -0.1376  0.3433
  444MOL0     H59919   6.542   0.041   5.483 -1.4680 -1.3555 -0.6633
  444MOL0     H59920   5.409   0.546   5.751 -0.8947  0.7599  0.5774
  444MOL0     H59921   5.142   0.536   5.737 -2.4431  1.2826 -1.5195
  444MOL0     H59922   4.764   0.381   5.551  0.0932 -0.9145 -1.0772
  444MOL0     H59923   4.530   0.395   5.547  1.2414  0.4450 -0.7685
  444MOL0     H59924   2.806   1.359   5.496 -2.0554  1.5570 -3.5095
  444MOL0     H59925   2.620   1.504   5.563  3.9626  0.3068 -0.3157
  444MOL0     H59926   2.028   1.307   5.459  3.4275 -0.8372  0.8949
  444MOL0     H59927   1.833   1.434   5.485 -0.7898  1.4454 -0.9177
  444MOL0     H59928   1.730   1.580   5.656  1.8109 -2.2531 -1.6362
  444MOL0     H59929   1.659   1.570   5.488 -0.2300  0.3145 -1.2205
  444MOL0     H59930   1.567   1.782   5.498 -0.2253  0.2579 -0.1754
  444MOL0     H59931   1.644   1.821   5.654  0.2488  1.8454 -1.7937
  444MOL0     H59932   1.486   1.659   5.767 -1.1821  0.4628  0.1411
  444MOL0     H59933   1.455   1.583   5.613  0.7611  0.0443 -1.4019
  444MOL0     H59934   1.366   1.869   5.692 -0.4353 -1.1859  2.5662
  444MOL0     H59935   1.309   1.780   5.544 -0.2659  0.0836  1.0351
  444MOL0     H59936   1.083   1.599   5.851  1.2940 -1.6594 -0.8338
  444MOL0     H59937   2.036   1.800   5.519 -3.6530 -0.4211  0.4645
  444MOL0     H59938   2.318   1.699   5.618 -1.7968 -1.9272  0.0978
  444MOL0     H59939   2.381   1.676   5.451  1.0521  0.3586  0.0346
  444MOL0     H59940   2.284   1.817   5.497  1.9630  1.0083  3.3383
  445MOL0     O59941   9.469  10.058   5.171 -0.4732 -0.0704 -0.4634
  445MOL0     C59942   9.475  10.150   5.096 -0.1349 -0.3039  0.1863
  445MOL0     O59943   9.590  10.216   5.053 -0.3857  0.2029  0.1444
  445MOL0     C59944   9.710  10.149   5.079  0.0037  0.5717  0.7515
  445MOL0     C59945   9.805  10.143   4.977 -0.5309  0.9888 -0.5135
  445MOL0     C59946   9.941  10.106   4.999 -0.6147  0.7995 -0.5649
  445MOL0     C59947   9.974  10.062   5.130  0.3856 -0.3036 -0.2339
  445MOL0     O59948  10.105  10.045   5.156  0.0423  0.1521  0.7156
  445MOL0     C59949  10.144  10.000   5.287 -0.3490  0.6816  0.4376
  445MOL0     C59950  10.282   9.940   5.269  0.2372 -0.2318  0.1801
  445MOL0     C59951  10.376   9.968   5.385  0.2051  0.2080  0.0565
  445MOL0     C59952  10.507   9.901   5.361  0.9830  0.1141 -0.8098
  445MOL0     C59953  10.584   9.910   5.494  0.1795 -0.2604 -0.0453
  445MOL0     C59954  10.721   9.857   5.477 -0.3424  0.3647  0.0173
  445MOL0     C59955  10.772   9.806   5.614 -0.5205 -0.7021  0.1180
  445MOL0     C59956  10.780   9.654   5.612 -0.1364  0.0317 -0.2861
  445MOL0     N59957  10.896   9.607   5.532  0.6245  0.1331  0.6108
  445MOL0     C59958  10.873   9.535   5.419  0.3535 -0.7146  0.0832
  445MOL0     C59959  10.997   9.504   5.372  1.0459 -0.0721  0.2750
  445MOL0     C59960  11.036   9.418   5.247  0.2103 -0.1022  0.0336
  445MOL0     C59961  10.952   9.456   5.120 -0.6654 -0.3416 -0.8484
  445MOL0     C59962  10.839   9.349   5.100  0.0198 -0.3277  0.0818
  445MOL0     C59963  10.712   9.403   5.042 -0.7035 -0.4251  0.8038
  445MOL0     O59964  10.644   9.460   5.154 -0.7437  0.9747 -0.1652
  445MOL0     C59965  10.524   9.513   5.129 -0.6790  0.2518 -0.0698
  445MOL0     C59966  10.415   9.430   5.121  0.1556 -0.6748 -0.7525
  445MOL0     C59967  10.288   9.484   5.087  0.1504  0.1889  0.1417
  445MOL0     C59968  10.291   9.626   5.038  1.6954  0.0448  0.4757
  445MOL0     C59969  10.179   9.682   4.976  0.6042 -0.4288 -0.2869
  445MOL0     O59970  10.071   9.596   4.966  0.4759 -0.8243 -0.1684
  445MOL0     C59971   9.950   9.646   4.930  0.1465  0.4506  0.0471
  445MOL0     C59972   9.874   9.713   5.026  0.1249  0.3047 -0.1356
  445MOL0     C59973   9.744   9.754   5.008  0.3471  0.3294  0.8120
  445MOL0     C59974   9.686   9.734   4.880  0.0905 -0.5944 -0.8785
  445MOL0     O59975   9.567   9.789   4.834 -0.6265 -0.4236  0.8237
  445MOL0     C59976   9.508   9.914   4.890 -0.7264 -0.5814 -0.0223
  445MOL0     C59977   9.442   9.982   4.773 -0.1744  0.0079  0.7034
  445MOL0     C59978   9.554  10.036   4.689 -0.0645 -0.4424  0.5319
  445MOL0     C59979   9.497  10.083   4.549 -0.3424 -0.1517  0.1614
  445MOL0     C59980   9.602  10.154   4.461  0.1993  0.0531 -1.0998
  445MOL0     C59981   9.624  10.304   4.509  0.1067  0.2236 -0.3900
  445MOL0     C59982   9.743  10.350   4.426  0.6422  0.3086  0.8457
  445MOL0     C59983   9.728  10.501   4.387 -0.7901  1.1847 -0.1541
  445MOL0    Cl59984   9.591  10.518   4.262 -0.0161 -0.0194 -0.1009
  445MOL0     C59985   9.758   9.661   4.782 -0.3002 -0.1564 -1.4341
  445MOL0     C59986   9.894   9.621   4.811  1.0823  0.5045 -0.2049
  445MOL0     O59987  10.174   9.804   4.940  0.1436 -0.1211  0.4406
  445MOL0     C59988  10.404   9.703   5.042 -0.0797  0.3418 -0.8317
  445MOL0     C59989  10.518   9.643   5.097  1.1011  0.2211 -0.1989
  445MOL0     N59990  11.087   9.558   5.459  0.1022 -0.1538  1.2800
  445MOL0     N59991  11.025   9.591   5.565  0.4223  0.1067 -0.3557
  445MOL0     C59992   9.871  10.064   5.230 -0.7508 -0.5223  0.3718
  445MOL0     C59993   9.742  10.106   5.204  0.2398  0.1725 -0.7055
  445MOL0     C59994   9.346  10.199   5.045 -0.8303 -0.0824  0.1229
  445MOL0     C59995   9.360  10.298   4.945  0.7217 -0.0282  0.6911
  445MOL0     C59996   9.246  10.346   4.874 -0.3728  0.5689 -0.0304
  445MOL0     C59997   9.115  10.303   4.894 -0.3469  0.3193 -0.8543
  445MOL0     O59998   9.016  10.348   4.816  0.0520 -0.7452  0.6056
  445MOL0     C59999   8.893  10.383   4.877  0.1158 -0.5608 -0.0395
  445MOL0     C60000   8.897  10.529   4.924  0.7345  0.6653  0.0728
  445MOL0     C60001   8.926  10.625   4.804 -0.8227 -0.3272  0.3085
  445MOL0     C60002   8.834  10.748   4.796 -0.3130  0.8773 -0.2372
  445MOL0     C60003   8.867  10.834   4.683  1.0868  0.8830 -1.5613
  445MOL0     C60004   8.883  10.918   4.599  0.1433 -1.3153  0.9544
  445MOL0     C60005   9.100  10.201   4.989 -1.3787  0.1880 -0.6014
  445MOL0     C60006   9.209  10.153   5.070 -0.0259 -0.0925  1.0871
  445MOL0     C60007   9.179  10.054   5.174  0.4966  0.2773 -0.3135
  445MOL0     H60008   9.769  10.145   4.875 -1.2587 -1.9608 -0.3935
  445MOL0     H60009  10.013  10.101   4.918  0.7424 -1.0987  0.6646
  445MOL0     H60010  10.148  10.084   5.357  1.4185 -0.0519  1.2810
  445MOL0     H60011  10.079   9.923   5.330 -0.0024  0.5400  0.7123
  445MOL0     H60012  10.327   9.986   5.180  0.8580 -0.4445  0.3748
  445MOL0     H60013  10.265   9.833   5.256 -0.6705  0.0745 -1.5746
  445MOL0     H60014  10.345   9.959   5.490  2.4138  3.1516  1.1076
  445MOL0     H60015  10.398  10.075   5.385  3.7808 -0.3536  2.1878
  445MOL0     H60016  10.489   9.795   5.341  1.9457  0.0636 -1.4566
  445MOL0     H60017  10.556   9.956   5.281  2.1020  2.2606  1.2325
  445MOL0     H60018  10.582  10.013   5.529 -1.1855  0.8357 -3.0426
  445MOL0     H60019  10.522   9.850   5.562 -0.5035  0.5873  0.0880
  445MOL0     H60020  10.740   9.785   5.397 -3.0361  1.0302 -1.3788
  445MOL0     H60021  10.779   9.948   5.458  0.8021 -0.0022  1.6397
  445MOL0     H60022  10.714   9.859   5.690  0.2477  1.9951 -1.0538
  445MOL0     H60023  10.877   9.833   5.632 -0.8915  2.5473 -1.9400
  445MOL0     H60024  10.804   9.629   5.716  2.6073  1.0127 -0.6134
  445MOL0     H60025  10.684   9.609   5.583  0.7671 -1.7542 -0.6217
  445MOL0     H60026  10.786   9.517   5.356 -0.9392 -1.1998  1.9429
  445MOL0     H60027  11.143   9.427   5.224 -0.1863 -1.0497 -2.5562
  445MOL0     H60028  11.027   9.311   5.268  1.5948 -0.0010  1.2829
  445MOL0     H60029  10.907   9.556   5.126  0.6129  0.1846  0.2663
  445MOL0     H60030  11.023   9.461   5.037 -1.4658  1.9687 -1.4947
  445MOL0     H60031  10.816   9.292   5.191  1.6730  0.5225  1.0881
  445MOL0     H60032  10.873   9.283   5.020 -0.9969  0.6360 -1.1917
  445MOL0     H60033  10.648   9.327   4.996 -0.6199  0.6372 -1.1470
  445MOL0     H60034  10.724   9.482   4.968 -1.3239 -2.0281 -1.0840
  445MOL0     H60035  10.425   9.326   5.153 -0.9486 -0.5485  0.0766
  445MOL0     H60036  10.207   9.412   5.096  0.9959 -0.6610  1.1443
  445MOL0     H60037   9.932   9.740   5.114  2.6850  1.0099 -1.9410
  445MOL0     H60038   9.688   9.819   5.075 -1.5839  0.1922 -0.5617
  445MOL0     H60039   9.427   9.892   4.960  0.5308 -0.2917  1.5783
  445MOL0     H60040   9.581   9.977   4.941 -2.1055 -1.9959  4.0964
  445MOL0     H60041   9.381   9.909   4.719  1.4323  0.5444 -2.0356
  445MOL0     H60042   9.387  10.070   4.806  2.5524  2.3895 -0.6028
  445MOL0     H60043   9.602  10.115   4.747 -1.0614 -0.4979  1.4632
  445MOL0     H60044   9.628   9.956   4.679  0.0207 -0.8265  3.4297
  445MOL0     H60045   9.412  10.149   4.569 -0.6772 -0.2183 -1.0018
  445MOL0     H60046   9.454   9.996   4.500 -0.5567 -0.2617  0.5380
  445MOL0     H60047   9.566  10.155   4.358 -1.4508  1.1156 -0.5652
  445MOL0     H60048   9.696  10.099   4.462  0.6757  0.8491 -1.3482
  445MOL0     H60049   9.540  10.367   4.479 -0.4081 -0.5963 -0.6876
  445MOL0     H60050   9.631  10.315   4.618 -0.4689  1.0280 -0.4312
  445MOL0     H60051   9.751  10.293   4.333 -1.5175  1.9716 -0.4550
  445MOL0     H60052   9.840  10.338   4.475  1.4302 -0.8663 -0.9017
  445MOL0     H60053   9.704  10.557   4.478 -2.6759  0.1536  0.0328
  445MOL0     H60054   9.821  10.552   4.359  0.1002  1.0882  2.3177
  445MOL0     H60055   9.697   9.631   4.697  0.9410 -2.0473 -1.7171
  445MOL0     H60056   9.938   9.556   4.736  0.8134 -0.7471  0.6997
  445MOL0     H60057  10.401   9.805   5.006 -1.5132  1.2950  1.7032
  445MOL0     H60058  10.613   9.693   5.107  2.4919 -2.1476 -0.8994
  445MOL0     H60059   9.885  10.027   5.331  1.8616 -1.6995 -0.3439
  445MOL0     H60060   9.666  10.105   5.281  0.5767 -2.3828 -0.3175
  445MOL0     H60061   9.456  10.338   4.915  0.7772  0.9271  2.0414
  445MOL0     H60062   9.251  10.419   4.794  2.2164  0.3782 -0.1411
  445MOL0     H60063   8.857  10.317   4.956 -1.3963 -0.4790 -0.6258
  445MOL0     H60064   8.821  10.381   4.795 -0.4807  2.5732  0.2584
  445MOL0     H60065   8.972  10.536   5.003  2.7549 -2.7988 -1.3375
  445MOL0     H60066   8.796  10.556   4.956  0.6801  1.4296 -0.7077
  445MOL0     H60067   8.915  10.575   4.707  3.7349 -0.0345 -0.5795
  445MOL0     H60068   9.031  10.656   4.811 -1.1556  0.6787  0.8999
  445MOL0     H60069   8.729  10.725   4.778 -0.4001  1.6276 -0.7063
  445MOL0     H60070   8.836  10.806   4.889 -0.6374 -1.3658  1.2500
  445MOL0     H60071   8.880  10.988   4.518 -1.4344 -0.4049  1.7572
  445MOL0     H60072   9.007  10.149   5.010 -0.1979 -0.9721  2.3946
  445MOL0     H60073   9.205   9.954   5.137 -0.4370 -0.0042 -0.2438
  445MOL0     H60074   9.239  10.070   5.263 -0.8647  0.5395  0.5909
  445MOL0     H60075   9.072  10.054   5.199  0.0216  0.3495 -2.1898
  446MOL0     O60076   6.289   2.028   7.112  0.3809 -0.2041  0.3868
  446MOL0     C60077   6.323   2.115   7.190 -0.2644  0.6446 -0.2515
  446MOL0     O60078   6.440   2.193   7.183  0.0156  0.6700  0.4299
  446MOL0     C60079   6.540   2.156   7.092  0.4395 -0.3017  0.8941
  446MOL0     C60080   6.517   2.140   6.955  0.3677 -0.4033 -0.6657
  446MOL0     C60081   6.618   2.089   6.871 -0.8671 -0.9199 -0.3322
  446MOL0     C60082   6.748   2.061   6.926  0.5723  0.3356  0.5414
  446MOL0     O60083   6.844   2.007   6.843  0.4616  0.0137 -0.7723
  446MOL0     C60084   6.946   2.096   6.812 -0.7312  0.5235  0.5165
  446MOL0     C60085   7.047   2.035   6.715 -0.0295 -0.7427 -0.1887
  446MOL0     C60086   7.178   2.116   6.698  0.5297 -0.2647 -1.0629
  446MOL0     C60087   7.269   2.060   6.578 -0.0261 -0.7765  0.2150
  446MOL0     C60088   7.380   2.174   6.535  0.3505 -0.0881  0.5656
  446MOL0     C60089   7.454   2.144   6.404  0.6214  0.1801 -0.0638
  446MOL0     C60090   7.552   2.245   6.367 -0.3869 -0.5855  0.2571
  446MOL0     C60091   7.629   2.218   6.248  0.3908 -0.0118 -0.0939
  446MOL0     N60092   7.548   2.207   6.124  1.0471  0.7532  0.6503
  446MOL0     C60093   7.473   2.304   6.068 -0.1061  0.1990  0.2613
  446MOL0     C60094   7.414   2.231   5.967  0.0134 -0.5591 -0.1828
  446MOL0     C60095   7.309   2.296   5.890  0.5615 -0.0860  0.1707
  446MOL0     C60096   7.354   2.394   5.775 -0.5911  0.1043 -0.0029
  446MOL0     C60097   7.251   2.506   5.767 -0.2728  0.3229  0.1443
  446MOL0     C60098   7.317   2.621   5.693 -0.6677 -0.7545  1.0388
  446MOL0     O60099   7.381   2.576   5.571 -0.3764  0.2808 -0.6674
  446MOL0     C60100   7.424   2.672   5.482 -0.3451  0.1895  0.3686
  446MOL0     C60101   7.429   2.814   5.511 -0.3663 -0.2626 -0.0229
  446MOL0     C60102   7.463   2.905   5.405  0.2881  0.0442 -0.1615
  446MOL0     C60103   7.506   2.853   5.280 -0.1975 -0.3635 -0.2554
  446MOL0     C60104   7.532   2.938   5.163 -0.8539 -0.6364 -0.2671
  446MOL0     O60105   7.491   3.066   5.165  0.2385  0.7282  0.2839
  446MOL0     C60106   7.518   3.149   5.065 -0.6940 -0.0254 -0.3265
  446MOL0     C60107   7.408   3.204   5.004  0.7098 -0.1430  0.7826
  446MOL0     C60108   7.421   3.298   4.902  0.5853  0.7865  0.2191
  446MOL0     C60109   7.555   3.327   4.859 -0.0587 -0.1191  0.0794
  446MOL0     O60110   7.585   3.426   4.771 -0.0791 -0.0418  0.3633
  446MOL0     C60111   7.483   3.518   4.736 -0.6382 -0.2721 -0.9670
  446MOL0     C60112   7.396   3.488   4.617  0.3153 -0.3347  0.2774
  446MOL0     C60113   7.315   3.612   4.566 -0.2522 -0.1029 -0.0689
  446MOL0     C60114   7.215   3.579   4.457  0.4106 -0.3492  0.2379
  446MOL0     C60115   7.142   3.709   4.414 -0.5160  0.5752 -0.1143
  446MOL0     C60116   7.051   3.692   4.294  0.1136 -0.5536 -0.1669
  446MOL0     C60117   6.925   3.786   4.296 -0.5921 -0.0425 -0.4413
  446MOL0     C60118   6.855   3.802   4.164 -0.0003  0.4543  0.2239
  446MOL0    Cl60119   6.710   3.907   4.171 -0.1862  0.3605 -0.0130
  446MOL0     C60120   7.672   3.259   4.911  0.7602  0.3701  0.3482
  446MOL0     C60121   7.653   3.178   5.021 -0.6433 -0.0495 -0.6807
  446MOL0     O60122   7.614   2.898   5.073  0.6792  0.6815 -1.2882
  446MOL0     C60123   7.505   2.716   5.258 -0.6625  0.3513 -0.8397
  446MOL0     C60124   7.476   2.626   5.361 -0.5057 -0.4720 -0.0212
  446MOL0     N60125   7.438   2.090   5.965 -1.0037 -0.0941 -0.3297
  446MOL0     N60126   7.525   2.079   6.064  0.8721 -0.0753 -0.0481
  446MOL0     C60127   6.777   2.089   7.059 -0.3555 -0.9884  0.3750
  446MOL0     C60128   6.676   2.140   7.140  0.5555  0.1778  0.0756
  446MOL0     C60129   6.243   2.129   7.307 -0.0618  0.3042 -0.1782
  446MOL0     C60130   6.112   2.074   7.313 -0.0031 -1.2991  0.4515
  446MOL0     C60131   6.026   2.093   7.422  0.3523  0.4976 -0.4673
  446MOL0     C60132   6.072   2.155   7.538  0.0563  0.3547 -0.7782
  446MOL0     O60133   5.971   2.171   7.631 -0.4496 -0.7095 -0.7004
  446MOL0     C60134   5.987   2.218   7.761 -0.0634 -0.4024  0.6126
  446MOL0     C60135   5.875   2.312   7.792  0.0042 -0.3840  0.6074
  446MOL0     C60136   5.856   2.429   7.689 -0.3714 -0.2169  1.2513
  446MOL0     C60137   5.755   2.540   7.730  0.6467 -0.5682 -0.4765
  446MOL0     C60138   5.806   2.619   7.843  0.2814  0.4459  0.2338
  446MOL0     C60139   5.849   2.691   7.934  0.2265  0.1457 -0.3359
  446MOL0     C60140   6.200   2.207   7.538 -0.4015 -0.2106 -0.7610
  446MOL0     C60141   6.289   2.191   7.427  0.4851 -0.4215 -0.0726
  446MOL0     C60142   6.436   2.230   7.467 -0.7702  0.1256  0.7026
  446MOL0     H60143   6.417   2.157   6.917  0.8781  0.5882 -1.6130
  446MOL0     H60144   6.609   2.075   6.764 -1.0206 -0.6898 -0.3500
  446MOL0     H60145   6.903   2.181   6.757 -5.5255 -1.0866  1.3232
  446MOL0     H60146   7.004   2.129   6.898  0.7303  0.1834 -0.2994
  446MOL0     H60147   6.991   2.036   6.621 -0.5807 -0.3154  0.1377
  446MOL0     H60148   7.071   1.932   6.741 -2.4649 -2.0347 -2.4825
  446MOL0     H60149   7.235   2.112   6.791 -3.1469 -0.3355  1.3858
  446MOL0     H60150   7.140   2.216   6.675 -3.5967 -1.7240 -1.4677
  446MOL0     H60151   7.321   1.971   6.614  0.3229 -1.0084 -0.8485
  446MOL0     H60152   7.211   2.032   6.490 -0.4217  0.2761  0.1181
  446MOL0     H60153   7.327   2.263   6.500 -0.4834 -1.1657 -1.0137
  446MOL0     H60154   7.442   2.207   6.619  0.2463 -0.0276  0.6192
  446MOL0     H60155   7.511   2.050   6.400  2.6489  1.3424  0.0127
  446MOL0     H60156   7.379   2.137   6.325 -0.0625  0.8560  0.5168
  446MOL0     H60157   7.618   2.256   6.454 -1.2384  3.7528  0.5919
  446MOL0     H60158   7.500   2.341   6.360 -0.3731 -0.6146 -0.2740
  446MOL0     H60159   7.701   2.299   6.233  1.0425 -0.3350  1.1375
  446MOL0     H60160   7.684   2.124   6.262 -0.7291 -0.4146  1.9624
  446MOL0     H60161   7.447   2.406   6.095 -0.8659 -0.2734  1.3695
  446MOL0     H60162   7.252   2.220   5.836  0.6406  1.3386 -2.0375
  446MOL0     H60163   7.231   2.342   5.952 -1.4430 -2.1325 -0.6897
  446MOL0     H60164   7.447   2.444   5.802  0.0786 -1.4729  0.7803
  446MOL0     H60165   7.371   2.333   5.686 -1.4523  2.2280 -1.7088
  446MOL0     H60166   7.217   2.547   5.862  1.1608  3.8546 -0.7012
  446MOL0     H60167   7.164   2.473   5.711 -0.1673  1.2775 -0.6043
  446MOL0     H60168   7.379   2.680   5.761  0.6594 -0.9731  0.0782
  446MOL0     H60169   7.234   2.681   5.655 -1.5586 -3.3737 -1.5682
  446MOL0     H60170   7.392   2.856   5.604 -2.2772 -1.9359  0.0362
  446MOL0     H60171   7.468   3.007   5.442 -0.5742 -0.5584  1.7763
  446MOL0     H60172   7.315   3.160   5.039  0.8611  0.0125  1.3802
  446MOL0     H60173   7.336   3.348   4.858 -0.1719 -1.2480 -0.7301
  446MOL0     H60174   7.415   3.539   4.818 -1.2818 -1.6400 -1.1377
  446MOL0     H60175   7.533   3.615   4.721 -1.5496  0.7950  2.1471
  446MOL0     H60176   7.457   3.446   4.536 -1.6482 -1.9514 -0.4582
  446MOL0     H60177   7.316   3.416   4.634  0.2206 -1.0165 -2.5603
  446MOL0     H60178   7.257   3.662   4.644  2.5638  3.4577  0.0317
  446MOL0     H60179   7.394   3.681   4.535  0.3633 -2.0036 -3.2231
  446MOL0     H60180   7.139   3.512   4.500  1.6954 -2.9528 -1.2720
  446MOL0     H60181   7.254   3.544   4.361 -2.0313  2.6442 -2.0724
  446MOL0     H60182   7.212   3.788   4.387  0.1405  0.4194  1.0630
  446MOL0     H60183   7.079   3.731   4.501  2.5684 -1.0216  2.7460
  446MOL0     H60184   7.122   3.701   4.211  1.4522 -3.3186  0.5701
  446MOL0     H60185   7.021   3.588   4.280 -0.1949 -0.4153 -0.5793
  446MOL0     H60186   6.961   3.882   4.335  1.4824 -0.5812 -0.8658
  446MOL0     H60187   6.856   3.737   4.365 -0.2862 -0.0729 -0.1501
  446MOL0     H60188   6.923   3.839   4.087 -1.8099  1.4504 -0.9719
  446MOL0     H60189   6.817   3.704   4.134  2.9951 -0.0981 -2.2471
  446MOL0     H60190   7.770   3.285   4.874 -0.1478 -0.7607 -3.2770
  446MOL0     H60191   7.736   3.127   5.068 -1.9065 -2.0631 -0.4865
  446MOL0     H60192   7.547   2.676   5.166  1.5530  0.9329 -0.1405
  446MOL0     H60193   7.475   2.518   5.346  4.1569 -0.9981  1.7541
  446MOL0     H60194   6.875   2.067   7.101 -0.7243 -0.9869  1.2523
  446MOL0     H60195   6.689   2.144   7.248 -2.0284  0.5416  0.4415
  446MOL0     H60196   6.061   2.041   7.223  0.2878  0.3651 -0.3785
  446MOL0     H60197   5.928   2.047   7.422 -0.9980  3.1528 -0.1241
  446MOL0     H60198   6.084   2.263   7.781 -1.1531  2.7986 -0.5612
  446MOL0     H60199   5.965   2.139   7.833 -2.1787 -0.9186 -0.5081
  446MOL0     H60200   5.901   2.355   7.889  2.1709  0.8043 -0.4238
  446MOL0     H60201   5.783   2.253   7.794 -0.7411  0.7273 -0.1119
  446MOL0     H60202   5.837   2.387   7.590  4.4350 -1.2371  0.5209
  446MOL0     H60203   5.956   2.472   7.680  0.3705 -1.9527  0.6935
  446MOL0     H60204   5.733   2.603   7.644 -0.8873 -0.7354 -0.2300
  446MOL0     H60205   5.662   2.494   7.766 -0.2733  1.4928 -0.1250
  446MOL0     H60206   5.876   2.768   8.003 -1.6625  1.2651 -0.7736
  446MOL0     H60207   6.230   2.269   7.622  1.2515  0.2864 -1.6705
  446MOL0     H60208   6.466   2.327   7.424 -1.8871 -0.0502 -0.5712
  446MOL0     H60209   6.441   2.237   7.576 -0.2610  1.7842  0.6028
  446MOL0     H60210   6.516   2.158   7.446  1.9887  3.0370  0.4813
  447MOL0     O60211   1.951   0.689   8.921 -0.0195 -0.7446 -0.4395
  447MOL0     C60212   1.938   0.658   9.036 -0.4211 -0.4416 -0.2074
  447MOL0     O60213   2.015   0.581   9.116 -0.1771  0.1195  0.2700
  447MOL0     C60214   2.139   0.532   9.078 -0.2118 -0.2039 -0.5169
  447MOL0     C60215   2.185   0.415   9.139  0.6541 -0.1716  0.1022
  447MOL0     C60216   2.305   0.354   9.093  0.7789 -0.0361 -0.5011
  447MOL0     C60217   2.386   0.419   8.993  0.3852  0.8060  0.0049
  447MOL0     O60218   2.521   0.394   8.982 -1.0433  0.0244  0.1935
  447MOL0     C60219   2.579   0.321   9.094 -0.3350  0.3895 -0.7107
  447MOL0     C60220   2.728   0.341   9.105  0.4219 -0.3004 -0.1765
  447MOL0     C60221   2.766   0.463   9.185  0.1306  0.5548  0.8739
  447MOL0     C60222   2.922   0.471   9.181 -0.2106 -0.3439 -0.2261
  447MOL0     C60223   2.960   0.583   9.280 -0.5583  0.1958 -0.4183
  447MOL0     C60224   3.102   0.562   9.303 -0.4109  0.3111 -0.7531
  447MOL0     C60225   3.154   0.668   9.399  0.0780  0.5298  0.2912
  447MOL0     C60226   3.307   0.667   9.404 -0.0874 -0.2168  0.2170
  447MOL0     N60227   3.370   0.713   9.280 -0.0519  0.3374  0.3450
  447MOL0     C60228   3.394   0.840   9.236  0.5986 -0.2772 -0.1384
  447MOL0     C60229   3.486   0.824   9.140 -0.7935 -0.4963 -0.2540
  447MOL0     C60230   3.569   0.937   9.073 -0.2032  0.0709 -0.6036
  447MOL0     C60231   3.715   0.906   9.080 -0.4358  0.8176  0.6452
  447MOL0     C60232   3.794   1.020   9.010  0.5907 -0.0279  0.0614
  447MOL0     C60233   3.939   1.008   9.039  1.0863  0.1327  0.4230
  447MOL0     O60234   4.002   1.125   8.975  0.8131 -0.3865 -0.4794
  447MOL0     C60235   4.027   1.140   8.841 -0.1448 -0.3813  0.4048
  447MOL0     C60236   4.079   1.268   8.803  0.4961 -0.6910 -0.1440
  447MOL0     C60237   4.118   1.287   8.677  0.8923  0.3917  0.4335
  447MOL0     C60238   4.106   1.191   8.568  0.4130 -0.6926 -1.6384
  447MOL0     C60239   4.137   1.231   8.430  0.4562  0.1297 -0.4568
  447MOL0     O60240   4.192   1.354   8.409  0.0773 -0.2438 -0.8993
  447MOL0     C60241   4.219   1.384   8.275  0.4107  0.3676 -0.5048
  447MOL0     C60242   4.107   1.389   8.195  0.2131  0.5796  0.6326
  447MOL0     C60243   4.121   1.408   8.059  0.1645 -0.0172  0.0868
  447MOL0     C60244   4.250   1.430   8.008  0.1506 -0.1967  0.4065
  447MOL0     O60245   4.260   1.462   7.878 -0.4034 -0.6835 -0.0705
  447MOL0     C60246   4.354   1.395   7.796  0.8785  0.5702 -0.1275
  447MOL0     C60247   4.295   1.394   7.653  0.0772 -0.2324 -0.1456
  447MOL0     C60248   4.171   1.301   7.619 -1.1255  0.4685  0.4986
  447MOL0     C60249   4.039   1.347   7.686 -0.2614  0.6772  0.3803
  447MOL0     C60250   3.925   1.270   7.623 -0.2960 -0.7757  0.2981
  447MOL0     C60251   3.799   1.305   7.709 -0.2997 -0.1931 -0.3429
  447MOL0     C60252   3.749   1.453   7.688 -0.3002 -0.5270  0.3207
  447MOL0     C60253   3.650   1.473   7.793  1.0754  0.0244  0.4450
  447MOL0    Cl60254   3.525   1.597   7.734 -0.7895 -0.5129 -0.4360
  447MOL0     C60255   4.357   1.437   8.090 -0.2856  0.4716 -0.3576
  447MOL0     C60256   4.342   1.409   8.229 -1.0188 -0.0388  0.4378
  447MOL0     O60257   4.121   1.142   8.344  0.1001 -0.7054 -0.4974
  447MOL0     C60258   4.052   1.070   8.607 -0.3836 -0.6325 -0.2908
  447MOL0     C60259   4.019   1.042   8.738 -0.8578  0.3881  0.0885
  447MOL0     N60260   3.530   0.693   9.135 -0.0723 -0.2787  0.5064
  447MOL0     N60261   3.454   0.623   9.209  0.2928 -0.0659 -0.6728
  447MOL0     C60262   2.345   0.544   8.942 -0.1505 -0.4690  0.9822
  447MOL0     C60263   2.221   0.603   8.984 -1.6968  0.2328  0.9893
  447MOL0     C60264   1.804   0.689   9.089  0.1461 -0.7941  0.5841
  447MOL0     C60265   1.791   0.772   9.204  0.7367  0.1753  0.0572
  447MOL0     C60266   1.662   0.807   9.252  0.2223 -0.1700  0.2306
  447MOL0     C60267   1.544   0.755   9.193 -0.2685  0.7033 -0.1586
  447MOL0     O60268   1.430   0.807   9.236  0.0516 -0.3695  0.0506
  447MOL0     C60269   1.297   0.757   9.210 -0.6217  0.1362 -0.1395
  447MOL0     C60270   1.177   0.850   9.241  0.4137  0.0752  0.5290
  447MOL0     C60271   1.162   0.938   9.121  0.0460 -0.3317 -0.3803
  447MOL0     C60272   1.066   1.049   9.138 -0.4976  0.2301 -0.4458
  447MOL0     C60273   0.932   1.011   9.149 -0.3772 -0.1834 -0.3003
  447MOL0     C60274   0.816   0.982   9.146 -0.0599 -0.4068  1.0699
  447MOL0     C60275   1.564   0.668   9.078 -0.6257  0.3086  0.3981
  447MOL0     C60276   1.688   0.639   9.026  0.3134  0.5506 -0.4476
  447MOL0     C60277   1.685   0.523   8.921 -0.0502 -0.6517  0.2139
  447MOL0     H60278   2.122   0.381   9.220  0.9007  2.1415  1.3462
  447MOL0     H60279   2.335   0.266   9.150 -1.6823 -1.2901 -0.9589
  447MOL0     H60280   2.540   0.341   9.195 -0.5077  0.4815 -0.7948
  447MOL0     H60281   2.558   0.217   9.071  0.0429 -0.0245  0.6990
  447MOL0     H60282   2.764   0.351   9.002  1.8203  4.5651  0.5316
  447MOL0     H60283   2.758   0.248   9.155 -2.4818 -0.4330  1.5804
  447MOL0     H60284   2.718   0.462   9.283  0.2051 -0.8641  0.9174
  447MOL0     H60285   2.723   0.553   9.141  0.1203 -0.6096 -1.7050
  447MOL0     H60286   2.963   0.372   9.205  0.8055 -0.4310 -2.0972
  447MOL0     H60287   2.957   0.499   9.081  0.0243  4.0536  0.8812
  447MOL0     H60288   2.945   0.670   9.214 -1.0380 -2.6124 -4.3695
  447MOL0     H60289   2.904   0.587   9.374  1.3342  3.6029  0.7471
  447MOL0     H60290   3.132   0.463   9.337 -1.6703  0.7471  1.9306
  447MOL0     H60291   3.148   0.580   9.206 -0.8357 -1.6513 -1.3569
  447MOL0     H60292   3.114   0.653   9.500  0.1664  1.7662  0.5347
  447MOL0     H60293   3.135   0.766   9.354  2.0141 -0.6386 -3.4620
  447MOL0     H60294   3.322   0.743   9.481 -2.4915  0.5284  0.0461
  447MOL0     H60295   3.349   0.580   9.455  2.3287  0.8066  0.1258
  447MOL0     H60296   3.368   0.933   9.284 -1.5447 -0.2069 -1.3255
  447MOL0     H60297   3.539   0.944   8.968 -0.3539  1.1404 -0.4962
  447MOL0     H60298   3.546   1.024   9.135  0.9538  0.3678 -0.5634
  447MOL0     H60299   3.747   0.900   9.185 -2.9665 -2.7875  1.4122
  447MOL0     H60300   3.732   0.809   9.032 -0.4887  1.9196 -1.7178
  447MOL0     H60301   3.749   1.117   9.034 -2.7607 -1.4237  0.0423
  447MOL0     H60302   3.777   1.007   8.903  3.3174  1.0559 -0.5901
  447MOL0     H60303   3.986   0.922   8.990  0.6375 -0.6590  1.3448
  447MOL0     H60304   3.956   1.005   9.148  0.8271  0.9642  0.4919
  447MOL0     H60305   4.104   1.343   8.877  0.1357 -0.1227 -0.5908
  447MOL0     H60306   4.163   1.380   8.645  1.9992 -1.1267 -2.9108
  447MOL0     H60307   4.008   1.362   8.231  0.8200 -1.8814  0.6292
  447MOL0     H60308   4.033   1.403   7.996 -0.8920  2.1058  1.2960
  447MOL0     H60309   4.449   1.450   7.802 -0.3741  3.1419 -1.7630
  447MOL0     H60310   4.365   1.290   7.825  1.3185  0.8959  0.9327
  447MOL0     H60311   4.259   1.495   7.631 -2.2573 -1.0257 -0.2953
  447MOL0     H60312   4.387   1.378   7.596  0.1622  2.3882 -0.8576
  447MOL0     H60313   4.165   1.285   7.511  1.8372 -1.0442  0.4379
  447MOL0     H60314   4.196   1.201   7.655 -1.0395  0.2328 -0.2035
  447MOL0     H60315   4.029   1.455   7.673 -1.6639  0.3922 -1.2068
  447MOL0     H60316   4.046   1.320   7.792 -2.2579 -2.2439 -0.1188
  447MOL0     H60317   3.955   1.165   7.629  1.6542 -0.4017 -1.6239
  447MOL0     H60318   3.899   1.290   7.519 -0.4522 -1.6657  0.1576
  447MOL0     H60319   3.716   1.239   7.680  0.4623 -2.2359  1.7904
  447MOL0     H60320   3.817   1.284   7.814  2.9697  3.5159  0.0420
  447MOL0     H60321   3.700   1.458   7.590  0.9035 -0.6893 -0.2985
  447MOL0     H60322   3.825   1.531   7.690 -1.4067  0.6462  3.8767
  447MOL0     H60323   3.594   1.383   7.819 -0.6707  0.5356 -1.3213
  447MOL0     H60324   3.708   1.512   7.877 -0.2772 -1.0360  1.9342
  447MOL0     H60325   4.458   1.440   8.049  0.5358 -2.6460  1.1552
  447MOL0     H60326   4.430   1.399   8.293 -0.2365 -2.4506 -0.9049
  447MOL0     H60327   4.050   0.993   8.530  2.5888 -1.2728  0.1588
  447MOL0     H60328   3.977   0.943   8.755  2.2878 -0.8990  1.1055
  447MOL0     H60329   2.402   0.587   8.860 -0.3674 -2.1839 -0.1236
  447MOL0     H60330   2.173   0.697   8.957 -1.5609  0.1346  0.3964
  447MOL0     H60331   1.882   0.813   9.248  0.9579  1.6850 -1.6537
  447MOL0     H60332   1.661   0.870   9.340  1.5241 -0.6677  0.6273
  447MOL0     H60333   1.287   0.672   9.278  0.9911  0.9340  1.1937
  447MOL0     H60334   1.303   0.716   9.109  4.8536 -0.0154 -0.0749
  447MOL0     H60335   1.182   0.899   9.339 -1.3731 -0.6752  1.0333
  447MOL0     H60336   1.080   0.801   9.253 -0.8491  2.3467  0.0756
  447MOL0     H60337   1.135   0.869   9.040 -1.1461 -2.8463  1.9795
  447MOL0     H60338   1.259   0.982   9.099  0.7167 -2.1413 -1.2345
  447MOL0     H60339   1.103   1.102   9.226  0.8565  0.4795 -1.1390
  447MOL0     H60340   1.076   1.117   9.053  1.3455 -0.0036 -0.4572
  447MOL0     H60341   0.712   0.960   9.133  0.3893 -2.0109 -0.1244
  447MOL0     H60342   1.480   0.638   9.017 -0.1432 -0.0865 -0.0872
  447MOL0     H60343   1.603   0.451   8.933 -0.3196 -0.1792  1.3926
  447MOL0     H60344   1.693   0.570   8.823  1.6908 -1.1657  0.0737
  447MOL0     H60345   1.773   0.462   8.943  0.3689 -1.4257 -3.1454
  448MOL0     O60346   7.552   5.750   6.338  0.1279  0.2643  0.0864
  448MOL0     C60347   7.556   5.732   6.219 -0.3923 -0.1554  0.4691
  448MOL0     O60348   7.652   5.661   6.150 -0.3361  0.2284  0.1841
  448MOL0     C60349   7.774   5.652   6.216 -0.9498 -0.3040 -0.0199
  448MOL0     C60350   7.861   5.759   6.210 -0.3498  0.3618  0.6996
  448MOL0     C60351   7.991   5.748   6.268  0.2982 -0.0648 -0.2495
  448MOL0     C60352   8.015   5.635   6.345 -0.3600 -0.4038 -0.3837
  448MOL0     O60353   8.137   5.633   6.410 -0.0369  0.3405 -0.4044
  448MOL0     C60354   8.194   5.760   6.454  0.3929  0.3386  0.2294
  448MOL0     C60355   8.278   5.735   6.576  0.3826 -0.0900 -0.1891
  448MOL0     C60356   8.416   5.690   6.548 -0.1626 -0.4663  0.6654
  448MOL0     C60357   8.427   5.545   6.505  0.1175  0.0292  0.1324
  448MOL0     C60358   8.574   5.495   6.484 -0.0353  0.8655 -0.7486
  448MOL0     C60359   8.664   5.582   6.403 -0.1287  0.7804 -0.7148
  448MOL0     C60360   8.787   5.501   6.347  0.1563  0.5694 -0.8476
  448MOL0     C60361   8.823   5.567   6.218  0.4472 -0.0731 -1.4433
  448MOL0     N60362   8.949   5.525   6.155  0.1625 -0.0165  0.0608
  448MOL0     C60363   9.074   5.536   6.194  0.3922 -0.4514  0.3454
  448MOL0     C60364   9.151   5.469   6.107 -0.4951  0.5731  0.1899
  448MOL0     C60365   9.301   5.468   6.113 -0.4790 -0.0884  0.4207
  448MOL0     C60366   9.360   5.414   6.247  0.9657 -0.3179  0.1110
  448MOL0     C60367   9.516   5.414   6.231  0.7322  0.0843  0.0649
  448MOL0     C60368   9.566   5.315   6.125  0.9138 -1.0257 -0.4741
  448MOL0     O60369   9.701   5.277   6.161  0.5189  0.9498  0.2206
  448MOL0     C60370   9.816   5.344   6.119  0.1805  0.6426 -0.4061
  448MOL0     C60371   9.939   5.293   6.172  0.0593 -0.1484  0.0378
  448MOL0     C60372  10.054   5.364   6.155 -1.0784 -0.0694  0.8897
  448MOL0     C60373  10.064   5.465   6.062  0.6327 -0.2315 -0.0977
  448MOL0     C60374  10.201   5.520   6.023  0.7592  0.4319  1.1027
  448MOL0     O60375  10.317   5.463   6.053  1.1211  0.3877 -0.7299
  448MOL0     C60376  10.430   5.524   6.024  0.0060  0.9289 -0.0652
  448MOL0     C60377  10.465   5.649   6.070  0.2995 -0.1089 -0.0770
  448MOL0     C60378  10.582   5.713   6.027  0.3030  0.9963  0.6817
  448MOL0     C60379  10.667   5.646   5.940  0.4773  0.6410  0.2865
  448MOL0     O60380  10.792   5.687   5.901 -0.3250 -0.2141 -0.3320
  448MOL0     C60381  10.811   5.835   5.876 -0.1862 -0.4162 -1.1976
  448MOL0     C60382  10.690   5.911   5.806 -0.5572 -0.3169  1.1277
  448MOL0     C60383  10.659   5.862   5.660 -0.1156  0.5759 -0.6154
  448MOL0     C60384  10.536   5.924   5.585 -0.1276  0.0650 -0.1690
  448MOL0     C60385  10.407   5.939   5.662  0.3855  0.3113  0.1051
  448MOL0     C60386  10.294   5.932   5.569  0.5971 -0.1227 -0.3952
  448MOL0     C60387  10.172   5.979   5.649  0.0141 -0.4931 -0.6313
  448MOL0     C60388  10.140   5.936   5.795  0.3002 -0.6405  0.4408
  448MOL0    Cl60389  10.027   6.055   5.858 -0.0413 -0.3030 -0.2685
  448MOL0     C60390  10.635   5.513   5.905 -0.1926  0.1420 -0.1884
  448MOL0     C60391  10.522   5.455   5.953 -0.1519  1.2331  0.6194
  448MOL0     O60392  10.188   5.632   5.969 -0.6404  0.2363 -0.1107
  448MOL0     C60393   9.941   5.521   6.018 -1.1421  0.1036 -0.2577
  448MOL0     C60394   9.818   5.457   6.044 -0.0891 -0.4964 -0.3905
  448MOL0     N60395   9.070   5.423   6.005  0.1096  0.8084 -0.7631
  448MOL0     N60396   8.948   5.465   6.030 -0.6277  0.3201  0.6284
  448MOL0     C60397   7.918   5.535   6.365 -0.1534 -0.4065 -0.2746
  448MOL0     C60398   7.806   5.535   6.287  0.9648 -0.0712 -0.7876
  448MOL0     C60399   7.434   5.775   6.155  0.0234 -0.0185 -0.8003
  448MOL0     C60400   7.404   5.735   6.023 -1.4726 -0.6474 -0.6636
  448MOL0     C60401   7.289   5.780   5.957 -0.3920 -0.4398  0.4183
  448MOL0     C60402   7.200   5.870   6.015  0.1006 -0.1111  0.6630
  448MOL0     O60403   7.099   5.920   5.939  0.4033 -0.7025  0.3125
  448MOL0     C60404   6.980   5.984   6.006  0.4319 -0.2928 -0.4544
  448MOL0     C60405   6.895   6.051   5.895 -0.5739  0.2526  0.3679
  448MOL0     C60406   6.932   6.190   5.857  0.1124 -0.4596 -0.8068
  448MOL0     C60407   6.838   6.280   5.786 -0.0001 -0.0434 -0.0347
  448MOL0     C60408   6.792   6.210   5.666  0.7610  0.4131  0.8256
  448MOL0     C60409   6.729   6.171   5.570 -0.1272 -0.2839  0.6624
  448MOL0     C60410   7.220   5.908   6.146  0.7915 -0.1640  0.0483
  448MOL0     C60411   7.338   5.868   6.215  0.2555  0.3657 -0.3145
  448MOL0     C60412   7.346   5.941   6.349 -0.2243 -0.9607 -1.0043
  448MOL0     H60413   7.843   5.855   6.163 -0.9927 -0.7230 -1.3976
  448MOL0     H60414   8.065   5.827   6.258 -1.3762  1.3702 -2.1855
  448MOL0     H60415   8.244   5.812   6.372 -0.1619  0.9179  0.2417
  448MOL0     H60416   8.120   5.838   6.474 -0.1974  0.1576 -1.0984
  448MOL0     H60417   8.220   5.671   6.643 -2.1243  1.6789 -0.5099
  448MOL0     H60418   8.295   5.831   6.624  1.1494 -1.5062  2.6076
  448MOL0     H60419   8.479   5.708   6.635  2.2493  3.1295 -1.5501
  448MOL0     H60420   8.464   5.755   6.474 -2.0607  3.2805  2.4255
  448MOL0     H60421   8.383   5.486   6.586  1.2661 -0.2173  0.5941
  448MOL0     H60422   8.370   5.528   6.413  2.0096  0.7344 -1.2145
  448MOL0     H60423   8.611   5.500   6.587 -0.3986 -0.6223 -0.5258
  448MOL0     H60424   8.564   5.389   6.458 -0.5489  0.4829  0.8470
  448MOL0     H60425   8.614   5.627   6.317  2.1728  1.5631 -1.6988
  448MOL0     H60426   8.681   5.669   6.467 -2.4387 -0.7490  2.2652
  448MOL0     H60427   8.762   5.400   6.314  2.7587  0.1338 -1.7523
  448MOL0     H60428   8.865   5.503   6.424 -1.4261 -1.7049  0.9568
  448MOL0     H60429   8.735   5.564   6.153 -3.3090  1.7072  2.9796
  448MOL0     H60430   8.842   5.673   6.237  0.3632 -0.4177  0.8027
  448MOL0     H60431   9.114   5.582   6.284 -0.1760  4.6874 -1.7034
  448MOL0     H60432   9.336   5.413   6.025 -1.3306  0.2100 -0.1084
  448MOL0     H60433   9.335   5.571   6.101  1.1246 -0.6334  0.0508
  448MOL0     H60434   9.329   5.471   6.335 -2.3834 -2.3228  0.4032
  448MOL0     H60435   9.336   5.310   6.269  0.0843 -1.1056 -3.7907
  448MOL0     H60436   9.550   5.391   6.333 -0.4647  0.7339  0.6277
  448MOL0     H60437   9.563   5.510   6.204 -0.1602  0.6250  0.3948
  448MOL0     H60438   9.556   5.366   6.028 -2.1506 -0.9146 -0.2009
  448MOL0     H60439   9.503   5.225   6.122 -2.3337  0.9794  1.6706
  448MOL0     H60440   9.932   5.208   6.239 -0.3171  2.4053  3.5123
  448MOL0     H60441  10.144   5.328   6.202  0.0223 -0.2187 -1.1957
  448MOL0     H60442  10.404   5.704   6.141 -1.8589 -0.8283 -1.2852
  448MOL0     H60443  10.614   5.811   6.061 -3.1744  2.3229  0.5326
  448MOL0     H60444  10.841   5.882   5.970 -0.8940  1.7306 -1.9723
  448MOL0     H60445  10.902   5.842   5.817  0.5192 -1.1931 -0.2237
  448MOL0     H60446  10.597   5.904   5.863 -1.2324  1.6025  0.3390
  448MOL0     H60447  10.715   6.017   5.801 -1.4894 -0.1478 -1.5935
  448MOL0     H60448  10.745   5.875   5.594  1.0672 -0.0205  0.7684
  448MOL0     H60449  10.642   5.757   5.681 -1.9900  0.3638 -2.7696
  448MOL0     H60450  10.523   5.861   5.497  1.3084 -0.3780 -0.0917
  448MOL0     H60451  10.561   6.025   5.551 -1.5580  0.3583 -0.4207
  448MOL0     H60452  10.407   6.027   5.727 -0.9900 -0.1895  0.8236
  448MOL0     H60453  10.406   5.846   5.719  0.5317 -1.6616 -2.9261
  448MOL0     H60454  10.309   6.004   5.488 -0.7648  1.1503  0.4160
  448MOL0     H60455  10.274   5.833   5.527 -0.0217  0.3077 -1.1507
  448MOL0     H60456  10.080   5.960   5.593 -2.2805 -2.1344  3.3165
  448MOL0     H60457  10.170   6.088   5.644 -0.5256 -0.5306 -1.5069
  448MOL0     H60458  10.094   5.837   5.793 -0.8477 -0.1399 -2.2690
  448MOL0     H60459  10.235   5.920   5.847  0.3514 -1.1142  0.2015
  448MOL0     H60460  10.700   5.453   5.843  0.4750  0.6140  0.0480
  448MOL0     H60461  10.495   5.358   5.911 -1.4410  0.7328  2.4515
  448MOL0     H60462   9.939   5.591   5.935 -2.9466  1.2524  0.6998
  448MOL0     H60463   9.726   5.484   5.993 -1.7973 -1.7625  1.8297
  448MOL0     H60464   7.940   5.461   6.441  1.3558  1.6132  1.4079
  448MOL0     H60465   7.735   5.455   6.298 -1.1436  1.8804  0.6651
  448MOL0     H60466   7.463   5.664   5.967 -0.6242  2.0777 -3.4724
  448MOL0     H60467   7.279   5.749   5.854  1.5866 -0.3352  0.1439
  448MOL0     H60468   7.004   6.057   6.084  0.1809  0.2958 -0.9231
  448MOL0     H60469   6.918   5.903   6.045  2.5159 -1.1481  1.3014
  448MOL0     H60470   6.794   6.047   5.938 -0.8297  2.3805  0.0911
  448MOL0     H60471   6.888   5.989   5.805 -0.0296  1.9370 -0.8922
  448MOL0     H60472   7.026   6.186   5.801 -0.6099  0.4428 -2.1237
  448MOL0     H60473   6.947   6.239   5.953 -0.3620  0.5676 -1.2382
  448MOL0     H60474   6.753   6.316   5.844 -0.6787  0.6577 -1.4304
  448MOL0     H60475   6.877   6.372   5.742 -2.6175  0.4217 -1.5656
  448MOL0     H60476   6.666   6.148   5.486  2.1269  1.0697 -1.5191
  448MOL0     H60477   7.150   5.976   6.193  1.3487 -0.9053  2.0578
  448MOL0     H60478   7.295   6.038   6.348  3.0426  1.0000  1.2673
  448MOL0     H60479   7.295   5.882   6.425 -0.5361  2.4355  1.6934
  448MOL0     H60480   7.449   5.960   6.383 -0.1070  2.4600 -2.7486
  449MOL0     O60481   2.385  10.798   4.812  0.4093 -0.1722 -0.0269
  449MOL0     C60482   2.425  10.820   4.925 -0.7819  1.0777  0.1809
  449MOL0     O60483   2.346  10.843   5.036  0.4579  0.3225  0.2151
  449MOL0     C60484   2.205  10.847   5.015 -0.3509 -0.2916 -0.7972
  449MOL0     C60485   2.123  10.743   5.059  0.3422  0.2869  0.6230
  449MOL0     C60486   1.977  10.744   5.052  0.1446  0.2542  0.2176
  449MOL0     C60487   1.919  10.857   4.995 -0.2687  0.4436  0.6349
  449MOL0     O60488   1.783  10.863   4.971 -0.4360 -0.2063 -0.2044
  449MOL0     C60489   1.710  10.991   4.979 -0.1549 -0.9138 -0.5936
  449MOL0     C60490   1.565  10.971   4.950 -0.2762 -0.2856  0.7091
  449MOL0     C60491   1.503  10.872   5.049  0.3756 -0.0010 -0.1991
  449MOL0     C60492   1.500  10.736   5.001  1.0928 -0.2688  0.4701
  449MOL0     C60493   1.408  10.655   5.094  0.6389 -0.8340  0.0949
  449MOL0     C60494   1.454  10.511   5.107 -0.0954  0.3120  0.0877
  449MOL0     C60495   1.577  10.499   5.202  1.8600 -0.2541 -0.2330
  449MOL0     C60496   1.628  10.354   5.210  0.0034  1.0235 -0.6510
  449MOL0     N60497   1.756  10.335   5.281 -0.3186  0.0129 -0.0046
  449MOL0     C60498   1.879  10.350   5.227  0.5019  0.7762  0.6519
  449MOL0     C60499   1.963  10.308   5.322 -0.4466  0.1008 -0.0707
  449MOL0     C60500   2.109  10.279   5.327 -0.9239 -0.4708  0.1644
  449MOL0     C60501   2.199  10.396   5.277 -0.1844  0.0860  0.1368
  449MOL0     C60502   2.340  10.352   5.293 -0.5261  0.2450 -0.0777
  449MOL0     C60503   2.379  10.395   5.434 -0.0826  0.2848  0.3167
  449MOL0     O60504   2.527  10.408   5.428 -0.1092 -0.7773 -0.6851
  449MOL0     C60505   2.600  10.397   5.540 -0.3213  0.6684 -0.3642
  449MOL0     C60506   2.733  10.423   5.516 -0.4471 -0.0759  0.3253
  449MOL0     C60507   2.838  10.386   5.598 -0.7795 -0.0881  0.5753
  449MOL0     C60508   2.806  10.321   5.715  0.3635  0.3586 -0.4041
  449MOL0     C60509   2.914  10.289   5.811 -0.8689 -0.8892  1.3416
  449MOL0     O60510   3.041  10.344   5.775 -0.4530 -0.0087  0.3142
  449MOL0     C60511   3.156  10.322   5.863 -0.5253  0.8418 -0.3548
  449MOL0     C60512   3.251  10.414   5.843  0.5670 -0.3185 -0.9460
  449MOL0     C60513   3.378  10.402   5.898 -0.4489  0.9842  1.0544
  449MOL0     C60514   3.412  10.292   5.982  0.2216 -0.2233 -0.2055
  449MOL0     O60515   3.534  10.256   6.034  0.5250 -0.3792  0.7364
  449MOL0     C60516   3.638  10.358   6.007  0.3214  0.1568 -0.6718
  449MOL0     C60517   3.762  10.318   6.087 -1.3459  0.4355 -1.3434
  449MOL0     C60518   3.754  10.311   6.244  0.0842 -0.1236  0.3092
  449MOL0     C60519   3.877  10.252   6.324  0.2781 -1.1680  0.6885
  449MOL0     C60520   3.997  10.345   6.312  0.3672  0.8002 -0.1385
  449MOL0     C60521   4.110  10.284   6.388  0.0051  0.7104 -0.7797
  449MOL0     C60522   4.139  10.128   6.366 -0.6893 -0.7710 -0.1674
  449MOL0     C60523   4.201  10.084   6.239 -0.4394 -0.2115 -0.4798
  449MOL0    Cl60524   4.156   9.918   6.218  0.2848 -0.2620  0.1715
  449MOL0     C60525   3.308  10.200   6.007 -0.4432  0.5586  0.8227
  449MOL0     C60526   3.181  10.220   5.954 -0.5189  1.3298 -0.4383
  449MOL0     O60527   2.890  10.239   5.921 -0.3056 -0.3811  0.1211
  449MOL0     C60528   2.666  10.307   5.744  0.0208  0.1764  0.5781
  449MOL0     C60529   2.565  10.324   5.654 -0.2049 -0.5026  0.6838
  449MOL0     N60530   1.890  10.266   5.431 -0.0741 -0.0373  0.6652
  449MOL0     N60531   1.767  10.274   5.404 -0.2969  0.2319  0.3874
  449MOL0     C60532   2.009  10.959   4.945 -0.2449  0.4527  0.1852
  449MOL0     C60533   2.148  10.956   4.955  0.4697 -0.4360 -0.0641
  449MOL0     C60534   2.567  10.794   4.951 -0.4688  0.1472 -1.0144
  449MOL0     C60535   2.597  10.758   5.087 -0.4282 -0.0487  0.2023
  449MOL0     C60536   2.726  10.720   5.122 -0.0639 -0.1891  0.3449
  449MOL0     C60537   2.834  10.718   5.029 -1.5594 -0.6048  0.6785
  449MOL0     O60538   2.959  10.678   5.070 -0.6076 -0.0326  0.3354
  449MOL0     C60539   3.075  10.689   4.990  0.8793 -0.0851  0.2917
  449MOL0     C60540   3.194  10.706   5.086  1.1174  0.1840 -0.1500
  449MOL0     C60541   3.329  10.740   5.024 -0.7204  0.0451 -0.1559
  449MOL0     C60542   3.429  10.789   5.127 -0.2837  0.6135  1.0211
  449MOL0     C60543   3.560  10.810   5.072 -0.1609  0.6083  0.8946
  449MOL0     C60544   3.661  10.825   5.019 -0.2789  0.9061  0.5172
  449MOL0     C60545   2.811  10.757   4.897  0.0041 -0.4883  0.1393
  449MOL0     C60546   2.675  10.787   4.855 -0.7620  0.2305 -0.0594
  449MOL0     C60547   2.661  10.812   4.705  0.3882  0.1214 -0.2367
  449MOL0     H60548   2.164  10.649   5.094 -1.5807 -0.9818 -0.3188
  449MOL0     H60549   1.918  10.656   5.075 -0.6714  1.2172  1.9494
  449MOL0     H60550   1.720  11.026   5.082 -0.5608  0.5052 -1.0015
  449MOL0     H60551   1.743  11.067   4.907  0.0331 -1.4674 -1.0918
  449MOL0     H60552   1.543  10.955   4.844 -1.4286 -2.2426  1.1936
  449MOL0     H60553   1.521  11.067   4.980  1.2232 -0.0554  2.3111
  449MOL0     H60554   1.398  10.901   5.053  0.7479  1.2325  2.3086
  449MOL0     H60555   1.536  10.882   5.153 -1.1902 -1.3687  0.4738
  449MOL0     H60556   1.457  10.723   4.901  2.2620 -0.6791  0.0019
  449MOL0     H60557   1.603  10.698   4.992  0.1184 -2.9080 -0.8515
  449MOL0     H60558   1.407  10.696   5.196  0.9537 -1.5536  0.3957
  449MOL0     H60559   1.309  10.669   5.051  1.0135  0.6930 -0.3423
  449MOL0     H60560   1.369  10.461   5.154 -0.1407  3.5938  4.0594
  449MOL0     H60561   1.474  10.473   5.006  2.2514  2.1318 -0.2067
  449MOL0     H60562   1.538  10.521   5.302  0.2249 -1.5681 -0.5429
  449MOL0     H60563   1.655  10.566   5.165  0.2381  1.0306 -1.4751
  449MOL0     H60564   1.546  10.302   5.261  0.4835  1.7295  0.9213
  449MOL0     H60565   1.645  10.313   5.110 -0.9035 -0.6251 -0.1727
  449MOL0     H60566   1.905  10.390   5.130  4.4593 -0.6369  0.9406
  449MOL0     H60567   2.127  10.251   5.432 -0.5894  2.8735  1.1224
  449MOL0     H60568   2.119  10.188   5.268  3.0313 -2.0083  2.7979
  449MOL0     H60569   2.179  10.405   5.170 -1.3361  1.1180  0.4231
  449MOL0     H60570   2.186  10.489   5.332  0.5833 -0.8836  2.0786
  449MOL0     H60571   2.402  10.402   5.218 -1.2080  0.8571 -0.2419
  449MOL0     H60572   2.359  10.247   5.267  0.4890  0.2462  0.5537
  449MOL0     H60573   2.338  10.327   5.509  0.4143 -0.7263 -0.2999
  449MOL0     H60574   2.326  10.490   5.446 -1.6339 -0.3733 -0.9747
  449MOL0     H60575   2.759  10.484   5.431 -0.7926 -1.1439 -0.5635
  449MOL0     H60576   2.940  10.404   5.565 -1.1427  0.1500 -0.4588
  449MOL0     H60577   3.219  10.489   5.772 -0.7349 -0.7160 -0.8027
  449MOL0     H60578   3.448  10.483   5.880 -0.8559  1.6831  2.5169
  449MOL0     H60579   3.651  10.349   5.899  2.7203 -0.8877 -0.3597
  449MOL0     H60580   3.614  10.458   6.044  0.9495 -0.2779  1.0038
  449MOL0     H60581   3.804  10.223   6.052  2.8669  1.2163  0.9901
  449MOL0     H60582   3.840  10.393   6.072  1.9624 -2.1880  1.4065
  449MOL0     H60583   3.725  10.410   6.281 -1.9766 -0.4163 -0.4342
  449MOL0     H60584   3.678  10.235   6.264 -0.3208 -0.0457 -0.8882
  449MOL0     H60585   3.893  10.155   6.277 -0.5256 -1.5300  1.1439
  449MOL0     H60586   3.844  10.229   6.426 -0.7493  0.2236  0.6967
  449MOL0     H60587   3.989  10.449   6.344  0.6916  0.4410  1.1699
  449MOL0     H60588   4.032  10.359   6.209  1.5974  1.0641  0.3091
  449MOL0     H60589   4.194  10.350   6.364  0.4258  0.7336  0.6672
  449MOL0     H60590   4.079  10.305   6.491  0.2869  0.2442 -0.5961
  449MOL0     H60591   4.056  10.071   6.408 -0.8055  0.1261  0.8743
  449MOL0     H60592   4.210  10.104   6.446  0.0513 -0.8677 -0.8370
  449MOL0     H60593   4.150  10.129   6.153  0.1600 -1.0659 -1.3087
  449MOL0     H60594   4.310  10.089   6.228 -0.5694 -0.6454 -2.3397
  449MOL0     H60595   3.325  10.108   6.062 -0.1303 -0.1424 -0.4057
  449MOL0     H60596   3.105  10.144   5.969  2.8676 -2.0359  1.2559
  449MOL0     H60597   2.637  10.261   5.838  1.7581 -2.1778  0.0578
  449MOL0     H60598   2.462  10.294   5.672 -0.6472  1.0222  0.9097
  449MOL0     H60599   1.968  11.050   4.902 -0.5297  1.7168  2.9238
  449MOL0     H60600   2.204  11.040   4.917 -1.2867  1.3615  1.1254
  449MOL0     H60601   2.516  10.756   5.160 -0.8641 -0.0436 -0.2753
  449MOL0     H60602   2.753  10.683   5.221  1.9681  0.1396 -0.0276
  449MOL0     H60603   3.054  10.772   4.923 -2.8680 -2.7061 -2.1231
  449MOL0     H60604   3.088  10.602   4.925 -1.7626 -0.1472 -0.2480
  449MOL0     H60605   3.218  10.621   5.150 -0.5455 -0.2164 -0.0323
  449MOL0     H60606   3.160  10.785   5.154 -2.4583 -1.4429  0.1801
  449MOL0     H60607   3.327  10.815   4.944  2.2800  1.2629  0.7856
  449MOL0     H60608   3.363  10.647   4.977 -1.9390  0.1284 -1.2879
  449MOL0     H60609   3.389  10.883   5.166 -2.1675  0.4290 -0.3192
  449MOL0     H60610   3.439  10.723   5.214 -2.6424 -1.4738 -0.1736
  449MOL0     H60611   3.756  10.832   4.970  2.2466 -1.8649  4.4467
  449MOL0     H60612   2.882  10.724   4.821  0.2620 -1.1717  0.6636
  449MOL0     H60613   2.745  10.855   4.649  0.6054  0.3766  0.2770
  449MOL0     H60614   2.648  10.718   4.650 -3.1010  1.6227 -2.3092
  449MOL0     H60615   2.573  10.873   4.687  0.9025  1.0826  0.4148
  450MOL0     O60616   1.471   2.706  11.087  0.7563 -0.0032 -0.4143
  450MOL0     C60617   1.358   2.656  11.106  0.0829  0.8741 -0.5977
  450MOL0     O60618   1.314   2.540  11.046  0.0041  0.5073  0.1001
  450MOL0     C60619   1.400   2.489  10.953 -0.2551 -0.0116 -0.2306
  450MOL0     C60620   1.480   2.384  10.983 -0.0350  1.2869 -0.0432
  450MOL0     C60621   1.552   2.323  10.872 -0.3982  0.5493 -0.6895
  450MOL0     C60622   1.541   2.370  10.740 -0.3208 -0.6789  0.1018
  450MOL0     O60623   1.608   2.331  10.633  0.2017  0.0064  0.5025
  450MOL0     C60624   1.714   2.240  10.645 -0.3367 -0.7386 -0.1931
  450MOL0     C60625   1.834   2.297  10.716 -0.0644  0.1302 -0.2445
  450MOL0     C60626   1.909   2.412  10.645 -0.1130  0.7826  0.4816
  450MOL0     C60627   2.048   2.440  10.720  0.2193 -0.6337 -0.5217
  450MOL0     C60628   2.118   2.575  10.674 -0.1284 -0.2154  0.7383
  450MOL0     C60629   2.258   2.611  10.735 -0.9092  0.9090  0.4836
  450MOL0     C60630   2.248   2.680  10.870 -0.4285 -0.0226 -0.6795
  450MOL0     C60631   2.392   2.710  10.915  0.4731 -0.3091 -0.2141
  450MOL0     N60632   2.370   2.766  11.052 -0.1655  0.0932 -0.0246
  450MOL0     C60633   2.351   2.898  11.076  0.1285  0.0490 -0.2456
  450MOL0     C60634   2.371   2.914  11.207 -0.1677  0.1026 -0.2121
  450MOL0     C60635   2.368   3.051  11.273 -0.4788 -0.8961  0.2370
  450MOL0     C60636   2.336   3.051  11.424 -0.5284 -0.7175  0.3400
  450MOL0     C60637   2.208   2.976  11.451 -0.4101  0.4738 -0.0310
  450MOL0     C60638   2.138   3.009  11.581  0.3133  0.0984 -0.0388
  450MOL0     O60639   2.089   3.142  11.594  0.1497  0.8120 -0.2128
  450MOL0     C60640   1.958   3.143  11.579  0.7957  0.8832  0.8841
  450MOL0     C60641   1.877   3.085  11.476 -0.4919 -0.0574 -0.1099
  450MOL0     C60642   1.736   3.100  11.479 -0.5360 -0.0384 -0.5430
  450MOL0     C60643   1.676   3.156  11.589 -0.1390 -0.1277 -0.9097
  450MOL0     C60644   1.530   3.158  11.601  0.1384 -0.4730 -0.0491
  450MOL0     O60645   1.472   3.154  11.726 -0.0758  0.7010  0.3840
  450MOL0     C60646   1.345   3.209  11.756  0.1103 -0.2276  1.2456
  450MOL0     C60647   1.284   3.173  11.874  0.6354  0.2919 -0.6602
  450MOL0     C60648   1.159   3.229  11.924 -1.5250  0.3951 -0.3879
  450MOL0     C60649   1.093   3.325  11.841  0.1758 -0.4048  0.0123
  450MOL0     O60650   0.997   3.405  11.884  0.4046  0.4300  0.2001
  450MOL0     C60651   0.917   3.374  11.999 -0.1861  0.0661  0.4097
  450MOL0     C60652   0.800   3.269  11.969  0.0604 -0.5743  0.4305
  450MOL0     C60653   0.705   3.251  12.088  0.6076 -0.3842 -0.7383
  450MOL0     C60654   0.581   3.159  12.037 -0.1233 -0.3450 -0.1418
  450MOL0     C60655   0.470   3.154  12.134  0.1234  0.0062  0.1961
  450MOL0     C60656   0.379   3.270  12.120  0.2709 -0.4156  0.4678
  450MOL0     C60657   0.244   3.239  12.183  0.0705  0.6390 -0.1384
  450MOL0     C60658   0.148   3.355  12.181 -0.1936 -0.2469 -0.9139
  450MOL0    Cl60659   0.213   3.495  12.259  0.1396 -0.0722 -0.0616
  450MOL0     C60660   1.149   3.360  11.715 -0.6985  0.1354  0.3987
  450MOL0     C60661   1.275   3.295  11.678 -0.5689 -0.7389  0.7155
  450MOL0     O60662   1.459   3.162  11.497  0.7837  0.4284  0.2693
  450MOL0     C60663   1.757   3.203  11.692 -0.0544 -0.5328  0.0234
  450MOL0     C60664   1.894   3.202  11.688  0.1209 -0.2591 -0.1321
  450MOL0     N60665   2.385   2.782  11.255  0.3029 -0.2361  0.5106
  450MOL0     N60666   2.393   2.690  11.164  0.4061 -0.1462  0.3339
  450MOL0     C60667   1.459   2.479  10.717  0.9838 -0.7193 -0.3528
  450MOL0     C60668   1.386   2.537  10.824  0.3026 -0.2167  0.1103
  450MOL0     C60669   1.271   2.696  11.211 -0.3011  0.6764  0.2473
  450MOL0     C60670   1.141   2.638  11.215 -0.4628  0.3410  0.4717
  450MOL0     C60671   1.047   2.684  11.304 -0.2304 -0.5309  0.0954
  450MOL0     C60672   1.070   2.778  11.405 -0.1013 -0.1427  0.2714
  450MOL0     O60673   0.977   2.806  11.505 -0.2875 -0.8605  0.1618
  450MOL0     C60674   0.840   2.765  11.488  0.1316 -0.0633  0.4948
  450MOL0     C60675   0.766   2.768  11.621 -0.2151  0.2355 -0.4409
  450MOL0     C60676   0.813   2.868  11.725  0.0972 -0.8330 -0.9412
  450MOL0     C60677   0.736   2.854  11.853  0.5181  0.3492  0.0191
  450MOL0     C60678   0.586   2.885  11.834  0.6013  0.0268 -0.0785
  450MOL0     C60679   0.473   2.910  11.822  0.2521 -0.1210  0.7308
  450MOL0     C60680   1.196   2.833  11.398  0.7424  0.1421 -0.5295
  450MOL0     C60681   1.298   2.789  11.304  0.1921  0.1311 -0.2671
  450MOL0     C60682   1.431   2.858  11.327 -0.2714 -0.1049 -0.7017
  450MOL0     H60683   1.477   2.341  11.082  3.2449 -0.1383 -0.4344
  450MOL0     H60684   1.602   2.229  10.893 -0.5839  0.3689 -1.0471
  450MOL0     H60685   1.682   2.161  10.713  2.3629 -0.2688  1.7716
  450MOL0     H60686   1.750   2.200  10.549  0.6375 -1.0164  0.2758
  450MOL0     H60687   1.904   2.213  10.706  1.4151  1.2125  0.6225
  450MOL0     H60688   1.807   2.326  10.818  1.6219  1.6208 -0.1640
  450MOL0     H60689   1.845   2.501  10.642 -1.2189  0.0068  0.4247
  450MOL0     H60690   1.929   2.375  10.544  1.2638 -0.5946  1.2166
  450MOL0     H60691   2.027   2.448  10.827  3.1005 -2.4521  0.2930
  450MOL0     H60692   2.113   2.353  10.732 -0.1709 -0.6797  1.6076
  450MOL0     H60693   2.136   2.571  10.566  3.3248 -0.4365  1.2065
  450MOL0     H60694   2.057   2.663  10.695  0.0358  0.4010 -1.1803
  450MOL0     H60695   2.319   2.521  10.747 -2.3688 -0.1653  0.1679
  450MOL0     H60696   2.312   2.672  10.662 -1.4145 -1.8085 -2.3225
  450MOL0     H60697   2.210   2.603  10.937  1.1511 -1.8092 -1.7269
  450MOL0     H60698   2.177   2.763  10.870 -1.8493 -1.1876 -1.0292
  450MOL0     H60699   2.453   2.621  10.928 -0.0589 -0.3033  3.2311
  450MOL0     H60700   2.434   2.786  10.849  0.4528 -0.8703 -0.8816
  450MOL0     H60701   2.337   2.971  10.997  0.2622 -0.7099 -0.9804
  450MOL0     H60702   2.467   3.095  11.263 -0.9777  0.8147  2.1811
  450MOL0     H60703   2.301   3.113  11.212 -2.1403 -1.5888  1.2897
  450MOL0     H60704   2.410   3.009  11.492  0.2907 -1.0501 -0.7224
  450MOL0     H60705   2.330   3.158  11.446  0.8736  0.4276 -3.8939
  450MOL0     H60706   2.243   2.872  11.453 -2.4920 -0.4865 -4.0084
  450MOL0     H60707   2.141   2.982  11.365 -0.8426  0.0229  0.2693
  450MOL0     H60708   2.229   3.004  11.642  0.3554  0.4767 -0.0682
  450MOL0     H60709   2.071   2.926  11.603  2.2366 -2.4334 -2.9268
  450MOL0     H60710   1.913   3.048  11.381 -0.4441  0.1430 -0.1701
  450MOL0     H60711   1.680   3.070  11.391 -0.6405 -0.8701 -0.2045
  450MOL0     H60712   1.336   3.102  11.936 -1.5658 -2.7069 -1.9709
  450MOL0     H60713   1.139   3.193  12.025  1.3999  2.5642  1.1226
  450MOL0     H60714   0.988   3.333  12.071  1.9756  1.1432 -0.9860
  450MOL0     H60715   0.889   3.469  12.044  2.2066 -0.6030  3.6852
  450MOL0     H60716   0.745   3.321  11.890 -0.3157 -0.5775  0.6881
  450MOL0     H60717   0.834   3.168  11.942  0.1237 -0.6579  0.8169
  450MOL0     H60718   0.748   3.201  12.175 -1.6418  0.8609  1.2253
  450MOL0     H60719   0.665   3.348  12.122  1.7740 -0.3121  0.4667
  450MOL0     H60720   0.638   3.067  12.027  0.2148  0.0990 -5.4684
  450MOL0     H60721   0.555   3.200  11.938  3.4159 -0.8087 -1.4015
  450MOL0     H60722   0.499   3.164  12.239 -1.2768  1.6829  0.4751
  450MOL0     H60723   0.425   3.054  12.131 -1.4958  0.7041  0.3725
  450MOL0     H60724   0.422   3.347  12.184 -1.0935  0.3686  0.4716
  450MOL0     H60725   0.372   3.306  12.017 -0.8938  1.3135  1.1138
  450MOL0     H60726   0.268   3.202  12.283  3.2497  1.0366 -0.6383
  450MOL0     H60727   0.197   3.157  12.128 -3.6476  1.5179  1.3801
  450MOL0     H60728   0.122   3.377  12.077 -0.4706  0.7566 -0.6405
  450MOL0     H60729   0.057   3.320  12.230 -0.2281 -2.0022 -2.1131
  450MOL0     H60730   1.100   3.427  11.644 -0.1418  0.5331  0.3812
  450MOL0     H60731   1.314   3.323  11.581  2.4851  1.2363  2.3409
  450MOL0     H60732   1.703   3.246  11.777 -1.2664 -1.3523 -0.3069
  450MOL0     H60733   1.941   3.250  11.774  0.5535  3.1755 -2.1112
  450MOL0     H60734   1.466   2.528  10.621  5.2695  0.3301  0.2818
  450MOL0     H60735   1.323   2.624  10.809 -2.4912 -1.7491  2.0170
  450MOL0     H60736   1.112   2.562  11.144 -0.1626 -0.8333  1.5767
  450MOL0     H60737   0.949   2.640  11.287 -0.9011  0.6155  0.8393
  450MOL0     H60738   0.843   2.663  11.448 -1.0618 -0.0109  0.2282
  450MOL0     H60739   0.779   2.818  11.414 -1.1399 -2.3467 -0.2028
  450MOL0     H60740   0.784   2.668  11.662  0.3335  0.2848 -0.5523
  450MOL0     H60741   0.662   2.789  11.595 -0.7797 -2.6872 -0.9772
  450MOL0     H60742   0.786   2.967  11.688  3.3621  0.0949 -1.1527
  450MOL0     H60743   0.921   2.869  11.747 -0.1805 -1.0137  0.5708
  450MOL0     H60744   0.748   2.752  11.890 -1.5836  0.7493  2.0716
  450MOL0     H60745   0.778   2.922  11.928 -1.9556  0.9193  0.9912
  450MOL0     H60746   0.372   2.945  11.832 -0.5400 -2.1339  0.3058
  450MOL0     H60747   1.224   2.875  11.494  0.2400 -0.3981 -0.1358
  450MOL0     H60748   1.434   2.928  11.411 -0.7015 -0.2258 -0.5829
  450MOL0     H60749   1.506   2.780  11.347  1.3451  1.8136  1.1875
  450MOL0     H60750   1.456   2.912  11.235 -0.4195  0.6963 -0.2809
  451MOL0     O60751   8.836   8.513   7.388 -0.7568  0.1056  0.7943
  451MOL0     C60752   8.901   8.494   7.283  0.4069  1.0742 -0.5229
  451MOL0     O60753   8.908   8.588   7.183  0.1949 -1.0154 -0.4500
  451MOL0     C60754   8.870   8.718   7.205  0.1371 -0.1512 -0.0014
  451MOL0     C60755   8.802   8.793   7.103 -0.7805  0.4535 -0.0083
  451MOL0     C60756   8.763   8.926   7.120 -0.2047  0.2270  0.3547
  451MOL0     C60757   8.796   9.000   7.233  0.2130 -0.2916  0.2626
  451MOL0     O60758   8.766   9.135   7.252 -0.0537 -0.3316  0.4893
  451MOL0     C60759   8.645   9.180   7.181 -0.4700 -0.4232  0.3844
  451MOL0     C60760   8.597   9.319   7.227 -0.6081 -0.3545 -0.3539
  451MOL0     C60761   8.703   9.437   7.251  0.9010  0.6835 -0.4261
  451MOL0     C60762   8.771   9.484   7.124 -1.0324  0.0319 -1.1154
  451MOL0     C60763   8.692   9.589   7.043  0.6240 -0.6187  0.6157
  451MOL0     C60764   8.767   9.624   6.917  0.5167 -0.2454  0.3332
  451MOL0     C60765   8.670   9.690   6.810  0.5044 -0.7809 -0.2781
  451MOL0     C60766   8.722   9.713   6.664 -1.3869  0.0095 -0.1710
  451MOL0     N60767   8.840   9.799   6.652 -0.1101  1.3140 -0.2112
  451MOL0     C60768   8.846   9.928   6.672 -0.1281 -0.0652  0.0053
  451MOL0     C60769   8.973   9.965   6.655 -0.0728  0.5621 -0.0784
  451MOL0     C60770   9.015  10.110   6.662 -0.3028  0.0833 -0.6762
  451MOL0     C60771   9.133  10.115   6.753  0.0204 -0.7421  0.3211
  451MOL0     C60772   9.253  10.208   6.704 -0.7241 -0.8353  0.4353
  451MOL0     C60773   9.370  10.212   6.802  0.1739 -0.4324 -0.1082
  451MOL0     O60774   9.443  10.088   6.798  0.7041 -1.4152 -0.0208
  451MOL0     C60775   9.561  10.086   6.872  0.2322  0.1423  0.0565
  451MOL0     C60776   9.643  10.192   6.900  0.0909  0.5645  0.0634
  451MOL0     C60777   9.771  10.182   6.966  0.3119 -0.7728 -0.1107
  451MOL0     C60778   9.817  10.050   7.000  0.7854  0.0025 -0.1739
  451MOL0     C60779   9.945  10.033   7.062 -0.5424 -0.5425  0.1482
  451MOL0     O60780   9.991   9.904   7.077 -0.3193  0.0199  0.1399
  451MOL0     C60781  10.121   9.887   7.120  0.3552 -0.1525  1.3152
  451MOL0     C60782  10.138   9.779   7.212 -0.3491 -0.4429 -0.4665
  451MOL0     C60783  10.274   9.744   7.239  0.0441  0.5411 -0.1435
  451MOL0     C60784  10.383   9.796   7.170 -0.0791 -0.2578 -0.1352
  451MOL0     O60785  10.508   9.744   7.187 -0.6410 -0.0624  0.5963
  451MOL0     C60786  10.624   9.776   7.110 -0.1402 -0.0431 -0.3847
  451MOL0     C60787  10.751   9.711   7.174 -0.1401 -0.6940  0.3595
  451MOL0     C60788  10.878   9.748   7.100 -0.4916  0.4120 -0.6513
  451MOL0     C60789  11.002   9.697   7.154 -1.4716 -0.1793 -0.5021
  451MOL0     C60790  11.128   9.737   7.076 -0.9051  0.3610  0.5670
  451MOL0     C60791  11.236   9.640   7.130  0.2809 -0.0153  0.3439
  451MOL0     C60792  11.377   9.666   7.084  0.1929  0.2617 -0.9069
  451MOL0     C60793  11.476   9.568   7.140 -0.3137 -0.4708  0.3759
  451MOL0    Cl60794  11.654   9.607   7.118  0.0630 -0.0469 -0.5802
  451MOL0     C60795  10.356   9.911   7.092 -1.1681 -0.1329  0.7459
  451MOL0     C60796  10.229   9.955   7.066 -0.6396  0.0093  0.2164
  451MOL0     O60797   9.995  10.139   7.109 -0.4317 -0.2064  1.0122
  451MOL0     C60798   9.731   9.939   6.971  0.2999  0.6287 -0.5750
  451MOL0     C60799   9.613   9.960   6.913  0.6456 -0.4831 -0.3904
  451MOL0     N60800   9.046   9.850   6.620 -0.7799 -0.3846  0.1925
  451MOL0     N60801   8.962   9.750   6.628  0.6628  0.6306 -0.2692
  451MOL0     C60802   8.869   8.935   7.328  0.2533  0.1572 -0.2645
  451MOL0     C60803   8.916   8.801   7.312  0.9668 -0.0889  0.3602
  451MOL0     C60804   8.971   8.369   7.260  0.1801 -0.5262 -0.1231
  451MOL0     C60805   9.076   8.374   7.175  0.4077  0.5367 -0.3251
  451MOL0     C60806   9.145   8.259   7.148 -0.0819  0.4060  0.4199
  451MOL0     C60807   9.122   8.136   7.223  0.2023 -0.9895  0.6842
  451MOL0     O60808   9.209   8.031   7.222 -0.3262 -0.3252 -0.0244
  451MOL0     C60809   9.167   7.928   7.130 -0.2223  0.1323 -0.3690
  451MOL0     C60810   9.106   7.815   7.209  0.5850  1.0650  0.0540
  451MOL0     C60811   9.085   7.697   7.114 -0.2460 -0.0767 -0.5108
  451MOL0     C60812   9.178   7.577   7.121 -0.5364 -0.1574  0.5709
  451MOL0     C60813   9.319   7.611   7.111 -0.7497  1.0007 -1.0552
  451MOL0     C60814   9.428   7.658   7.127  0.0990 -0.4102  0.0020
  451MOL0     C60815   9.017   8.134   7.300 -0.3849  0.0726  0.8166
  451MOL0     C60816   8.934   8.249   7.320 -0.7657 -0.0575 -0.8447
  451MOL0     C60817   8.819   8.227   7.413  0.1960  0.3485  1.0529
  451MOL0     H60818   8.779   8.732   7.016 -0.5707 -0.9901  0.9095
  451MOL0     H60819   8.733   8.979   7.030  0.3480 -0.1858 -0.0750
  451MOL0     H60820   8.676   9.190   7.077  0.2300  0.6052  0.6812
  451MOL0     H60821   8.563   9.108   7.196 -0.8999  0.4211  2.3897
  451MOL0     H60822   8.558   9.311   7.329  1.5995  1.0290  0.6844
  451MOL0     H60823   8.510   9.352   7.170 -0.1673  0.7893 -0.3979
  451MOL0     H60824   8.784   9.402   7.315  1.1592 -0.5863 -1.4033
  451MOL0     H60825   8.658   9.515   7.312 -1.9281 -2.1078  1.4056
  451MOL0     H60826   8.868   9.526   7.153 -1.2058 -0.0398 -0.4197
  451MOL0     H60827   8.784   9.395   7.062 -0.6571 -0.3968 -0.4424
  451MOL0     H60828   8.608   9.528   7.011  3.3013 -3.9193 -0.7482
  451MOL0     H60829   8.670   9.670   7.113  0.2646 -2.2451  2.4560
  451MOL0     H60830   8.852   9.688   6.944  0.9935 -1.6900  2.5248
  451MOL0     H60831   8.813   9.535   6.872 -2.6199 -0.6553 -2.3795
  451MOL0     H60832   8.641   9.791   6.839 -2.3227 -1.6080  0.0805
  451MOL0     H60833   8.586   9.621   6.801 -0.5320  0.5328 -1.0094
  451MOL0     H60834   8.748   9.613   6.629 -0.7272 -0.8132  2.3972
  451MOL0     H60835   8.642   9.759   6.606  0.4012  3.3681 -0.2339
  451MOL0     H60836   8.762   9.992   6.699 -0.4098  0.6163 -2.3080
  451MOL0     H60837   9.053  10.129   6.561 -1.3935 -1.1494 -1.3384
  451MOL0     H60838   8.946  10.189   6.694  2.8313  2.1058  1.7732
  451MOL0     H60839   9.088  10.165   6.839 -1.7358 -0.1571 -0.8789
  451MOL0     H60840   9.176  10.016   6.771  1.2290 -0.0898  1.1297
  451MOL0     H60841   9.221  10.312   6.702 -2.6549 -1.3757  0.5374
  451MOL0     H60842   9.293  10.182   6.606  1.9224  3.6169  0.1065
  451MOL0     H60843   9.329  10.225   6.902  1.1041 -0.5892  0.3095
  451MOL0     H60844   9.424  10.306   6.788 -1.0431  0.6976  2.2777
  451MOL0     H60845   9.602  10.288   6.873 -2.1077 -0.3534 -0.0464
  451MOL0     H60846   9.816  10.276   6.995  0.9370 -0.8118 -0.9263
  451MOL0     H60847  10.064   9.729   7.274  3.6475 -2.0506  3.5710
  451MOL0     H60848  10.291   9.658   7.303  0.2287 -0.1856 -1.1395
  451MOL0     H60849  10.614   9.750   7.004 -3.2944  3.2308 -1.0789
  451MOL0     H60850  10.636   9.884   7.120  0.5206 -0.0381 -1.1012
  451MOL0     H60851  10.765   9.749   7.275  1.7299 -1.6632  0.5006
  451MOL0     H60852  10.740   9.603   7.166 -0.4158 -0.5449 -2.0037
  451MOL0     H60853  10.875   9.710   6.997 -0.3865  0.7067 -0.7654
  451MOL0     H60854  10.876   9.854   7.072  1.8721 -0.1464 -3.3917
  451MOL0     H60855  10.982   9.589   7.147 -1.2858 -0.2652  0.2003
  451MOL0     H60856  11.009   9.731   7.258 -0.7081 -1.4738 -0.1114
  451MOL0     H60857  11.159   9.840   7.097 -0.3501 -0.1560  2.4310
  451MOL0     H60858  11.116   9.731   6.967  3.9456 -3.5533 -0.0867
  451MOL0     H60859  11.232   9.656   7.238  2.1619  3.8591  0.0142
  451MOL0     H60860  11.206   9.536   7.116 -1.3982  0.5846 -0.7763
  451MOL0     H60861  11.415   9.757   7.131 -1.7063 -0.9641  3.5134
  451MOL0     H60862  11.370   9.679   6.976 -2.5776  0.1992 -0.8111
  451MOL0     H60863  11.450   9.541   7.243 -1.9530 -3.2824 -0.6662
  451MOL0     H60864  11.450   9.473   7.095  1.6134 -2.0191  2.3043
  451MOL0     H60865  10.437   9.971   7.051 -0.7964 -0.6025  0.7899
  451MOL0     H60866  10.211  10.036   6.995  0.9817 -0.2464 -0.5348
  451MOL0     H60867   9.771   9.843   7.004  1.8395  1.7682  1.0856
  451MOL0     H60868   9.547   9.874   6.903 -0.3653  0.2277 -0.0272
  451MOL0     H60869   8.890   8.986   7.421  0.4497  0.2686 -0.3679
  451MOL0     H60870   8.980   8.760   7.389  0.4679  1.2851  1.5455
  451MOL0     H60871   9.116   8.463   7.128  1.9103 -1.9486 -4.2919
  451MOL0     H60872   9.223   8.258   7.072 -0.7029  2.3177 -0.2920
  451MOL0     H60873   9.252   7.891   7.071 -0.5743  0.4682 -1.1002
  451MOL0     H60874   9.090   7.965   7.062 -1.3620  3.0660  2.3340
  451MOL0     H60875   9.012   7.837   7.261 -0.3844 -0.7656 -0.8626
  451MOL0     H60876   9.175   7.785   7.288 -0.7592  0.7892  1.1610
  451MOL0     H60877   9.064   7.734   7.013 -1.4049  3.4160  0.8730
  451MOL0     H60878   8.991   7.645   7.137 -0.5935 -0.4545 -2.5459
  451MOL0     H60879   9.154   7.523   7.213  1.3353  0.5506  1.5142
  451MOL0     H60880   9.164   7.509   7.036  4.3803 -1.5903  0.6095
  451MOL0     H60881   9.528   7.690   7.144  0.9460 -2.9171  0.1411
  451MOL0     H60882   9.024   8.042   7.358 -1.1264 -2.6151 -2.9762
  451MOL0     H60883   8.848   8.234   7.519 -1.0450  0.6072  1.3871
  451MOL0     H60884   8.737   8.298   7.401  1.0962  0.9333 -3.7954
  451MOL0     H60885   8.761   8.138   7.389 -2.1603  2.2069 -0.6770
  452MOL0     O60886   8.082   6.451   8.496  0.2867 -0.5750  0.5414
  452MOL0     C60887   7.970   6.493   8.536 -0.8640 -0.3646  0.3118
  452MOL0     O60888   7.938   6.543   8.656 -0.3561 -0.3042  0.9406
  452MOL0     C60889   8.023   6.561   8.759 -0.6203 -0.8778  0.4181
  452MOL0     C60890   8.161   6.594   8.749  0.6675  0.9679  0.1096
  452MOL0     C60891   8.230   6.623   8.864  0.7176 -0.0723  0.0994
  452MOL0     C60892   8.174   6.630   8.991  0.2071  0.0490  1.0491
  452MOL0     O60893   8.264   6.648   9.095 -0.3832 -0.4888  0.6018
  452MOL0     C60894   8.226   6.645   9.235  0.0498 -0.3999 -0.3520
  452MOL0     C60895   8.205   6.789   9.288  0.6892  0.2524  0.0420
  452MOL0     C60896   8.330   6.875   9.306 -0.4042 -0.9481 -0.0344
  452MOL0     C60897   8.406   6.916   9.172 -1.0402  0.4045 -0.4145
  452MOL0     C60898   8.498   7.038   9.199 -0.2036  0.0664 -0.1643
  452MOL0     C60899   8.599   7.054   9.081  0.6349 -0.3749  0.7524
  452MOL0     C60900   8.730   7.113   9.125 -0.8612  0.1152  0.2205
  452MOL0     C60901   8.832   7.138   9.007 -1.1021 -0.6940 -0.1626
  452MOL0     N60902   8.977   7.095   9.034  0.0086 -0.7525 -0.3949
  452MOL0     C60903   9.071   7.174   9.105  0.0575 -0.1457 -0.3179
  452MOL0     C60904   9.182   7.103   9.093 -0.3412  1.1439 -0.8524
  452MOL0     C60905   9.308   7.139   9.168  0.1759 -0.9809 -0.8021
  452MOL0     C60906   9.365   7.014   9.230  0.1065  0.7390  0.5936
  452MOL0     C60907   9.492   7.048   9.315 -0.1353 -0.0285  0.2864
  452MOL0     C60908   9.611   7.067   9.227  0.2404 -0.1549  0.0949
  452MOL0     O60909   9.721   7.018   9.312 -0.2790 -0.4184 -0.8348
  452MOL0     C60910   9.839   6.986   9.247 -0.0784  0.0011 -0.1267
  452MOL0     C60911   9.895   7.066   9.151 -0.0588 -0.7870  1.0513
  452MOL0     C60912  10.032   7.049   9.109  0.3680 -0.8034 -0.0673
  452MOL0     C60913  10.102   6.931   9.151 -0.3807  0.3135 -0.3553
  452MOL0     C60914  10.241   6.913   9.105 -0.2049 -0.4553 -0.0096
  452MOL0     O60915  10.315   7.028   9.072 -0.2064  0.0839 -0.2619
  452MOL0     C60916  10.449   7.013   9.043 -0.9314  0.2651  0.4999
  452MOL0     C60917  10.503   6.892   8.975  0.1320 -0.5625  0.2265
  452MOL0     C60918  10.640   6.895   8.941 -0.2084  0.8060  0.4826
  452MOL0     C60919  10.724   7.004   8.970  0.5177  0.4110 -0.2394
  452MOL0     O60920  10.858   7.017   8.955 -0.6858 -0.4232  0.0694
  452MOL0     C60921  10.927   6.929   8.869  0.8115  0.0175 -0.1256
  452MOL0     C60922  11.074   6.946   8.904 -0.6056 -1.2049 -0.6024
  452MOL0     C60923  11.153   6.880   8.793 -0.2679 -0.1877  0.1122
  452MOL0     C60924  11.310   6.890   8.814  0.5123  0.4044 -0.2039
  452MOL0     C60925  11.394   6.823   8.704  0.4415 -0.9666  0.6617
  452MOL0     C60926  11.547   6.850   8.712  0.8579 -0.0165 -0.3339
  452MOL0     C60927  11.620   6.727   8.757  0.7350  0.3703  0.3757
  452MOL0     C60928  11.655   6.642   8.637 -0.3499 -0.4858 -0.6089
  452MOL0    Cl60929  11.798   6.713   8.564  0.2772 -0.3075  0.0127
  452MOL0     C60930  10.668   7.102   9.054  0.4738 -0.4222  0.7237
  452MOL0     C60931  10.535   7.111   9.084  0.2829 -0.2942  0.5000
  452MOL0     O60932  10.279   6.800   9.096 -0.3974 -0.4242 -0.9205
  452MOL0     C60933  10.038   6.839   9.234  0.6046  0.2917  0.3364
  452MOL0     C60934   9.913   6.868   9.288  0.6744  0.8705 -0.5228
  452MOL0     N60935   9.165   7.002   8.993  0.4803 -0.5201  0.2120
  452MOL0     N60936   9.035   6.990   8.969 -0.2115 -0.8829 -0.2334
  452MOL0     C60937   8.038   6.610   8.998  0.8312 -0.6812  0.3461
  452MOL0     C60938   7.961   6.577   8.883  0.0921 -1.0399  0.6206
  452MOL0     C60939   7.860   6.490   8.442 -0.3717  0.7614  1.3586
  452MOL0     C60940   7.802   6.371   8.388  0.2264  0.0647 -0.4929
  452MOL0     C60941   7.688   6.384   8.314  0.0451  0.1035  0.9314
  452MOL0     C60942   7.630   6.509   8.276  0.3151  0.2126 -0.3023
  452MOL0     O60943   7.524   6.498   8.185  0.1112 -0.7108 -0.3590
  452MOL0     C60944   7.460   6.621   8.139 -0.6377  1.1255  0.9012
  452MOL0     C60945   7.363   6.601   8.034  0.2395 -0.6266 -0.3159
  452MOL0     C60946   7.239   6.519   8.074  0.2803  0.4675 -0.7092
  452MOL0     C60947   7.145   6.590   8.172  0.4540 -0.4990 -0.4065
  452MOL0     C60948   7.170   6.571   8.312 -0.7651 -0.7481 -0.4499
  452MOL0     C60949   7.190   6.547   8.429 -0.1857 -0.4071  0.9439
  452MOL0     C60950   7.683   6.626   8.331 -0.2595 -0.2992 -0.5259
  452MOL0     C60951   7.798   6.617   8.412 -0.5736 -0.8180 -0.0277
  452MOL0     C60952   7.859   6.755   8.469  0.9244  0.5988 -0.2694
  452MOL0     H60953   8.200   6.592   8.648 -1.3028 -1.5749 -0.7190
  452MOL0     H60954   8.336   6.647   8.856  0.9515 -1.3843 -1.0059
  452MOL0     H60955   8.132   6.590   9.245 -1.4347  1.6266 -2.0163
  452MOL0     H60956   8.304   6.606   9.300 -2.1000  1.4121  3.6966
  452MOL0     H60957   8.161   6.773   9.387 -1.2923 -0.5201 -0.9032
  452MOL0     H60958   8.126   6.842   9.233 -0.2825 -1.2613 -0.0850
  452MOL0     H60959   8.401   6.830   9.376  1.2773  1.6275  0.0657
  452MOL0     H60960   8.298   6.965   9.361 -0.7750  1.6753 -4.0833
  452MOL0     H60961   8.461   6.834   9.127 -2.4251 -2.4606  2.6543
  452MOL0     H60962   8.331   6.939   9.096 -1.5092  0.2151 -0.0140
  452MOL0     H60963   8.438   7.129   9.203 -1.4894 -0.7429 -0.5565
  452MOL0     H60964   8.557   7.025   9.291 -1.5887 -1.1935  0.5766
  452MOL0     H60965   8.621   6.950   9.053 -1.3612 -1.2013  2.0471
  452MOL0     H60966   8.561   7.119   9.001 -0.1051 -0.5507  0.9553
  452MOL0     H60967   8.772   7.043   9.198  0.5703 -1.8268 -2.2932
  452MOL0     H60968   8.704   7.208   9.172 -3.5321 -0.2198 -0.4199
  452MOL0     H60969   8.793   7.080   8.923 -1.5711 -0.7581  0.1010
  452MOL0     H60970   8.820   7.247   8.996  1.8851 -0.1481  0.9660
  452MOL0     H60971   9.057   7.259   9.170  4.7097  0.9633 -0.3782
  452MOL0     H60972   9.377   7.181   9.095 -0.0168  2.8644  0.9513
  452MOL0     H60973   9.295   7.206   9.254 -0.2788 -2.2997  0.1957
  452MOL0     H60974   9.291   6.973   9.301 -0.2363  0.6075  0.1675
  452MOL0     H60975   9.391   6.935   9.159 -0.7886  0.6480  0.3560
  452MOL0     H60976   9.502   6.967   9.388 -2.8378 -0.7232 -0.0073
  452MOL0     H60977   9.479   7.141   9.372 -2.4219  1.0171 -1.7504
  452MOL0     H60978   9.611   7.173   9.202 -2.1771  0.2947  1.6607
  452MOL0     H60979   9.596   6.998   9.144  0.8316 -2.7750  2.0214
  452MOL0     H60980   9.841   7.157   9.130  0.4433  0.0218  3.0631
  452MOL0     H60981  10.067   7.128   9.042 -0.4362 -1.1693 -0.9428
  452MOL0     H60982  10.440   6.810   8.941  0.3971 -0.5708 -0.2451
  452MOL0     H60983  10.679   6.817   8.876 -1.6717  0.1049  0.3905
  452MOL0     H60984  10.894   6.827   8.890  0.8478 -0.2584 -1.3457
  452MOL0     H60985  10.911   6.959   8.765 -1.3076  0.6406  0.3246
  452MOL0     H60986  11.108   7.049   8.913 -2.8311 -0.5611  1.4234
  452MOL0     H60987  11.089   6.903   9.003 -0.7276  1.1128  0.4746
  452MOL0     H60988  11.122   6.776   8.776  0.0648 -0.5386  1.4949
  452MOL0     H60989  11.123   6.930   8.701 -0.2501  1.9620  1.2032
  452MOL0     H60990  11.336   6.847   8.912  1.9922  0.5146 -0.5174
  452MOL0     H60991  11.350   6.991   8.824 -0.8046  1.3814 -3.4497
  452MOL0     H60992  11.356   6.869   8.613  1.0435 -0.3720  0.7086
  452MOL0     H60993  11.376   6.715   8.703 -1.7046 -0.7050 -2.5260
  452MOL0     H60994  11.584   6.877   8.612 -0.8877  0.7552 -0.8092
  452MOL0     H60995  11.559   6.926   8.789  0.9170 -2.4781  2.2655
  452MOL0     H60996  11.551   6.664   8.814 -0.7694  0.8783 -0.8065
  452MOL0     H60997  11.710   6.761   8.809  0.4825  1.9986 -0.1904
  452MOL0     H60998  11.678   6.545   8.682  0.0112  0.3071  0.9581
  452MOL0     H60999  11.564   6.635   8.576 -0.4720  0.1491 -0.5037
  452MOL0     H61000  10.710   7.200   9.071 -0.8310  0.4788 -0.9514
  452MOL0     H61001  10.488   7.199   9.127 -0.5132 -0.1974 -0.5232
  452MOL0     H61002  10.088   6.747   9.263  0.0634  0.3586  1.5487
  452MOL0     H61003   9.871   6.789   9.349 -0.8914  0.3016 -2.2305
  452MOL0     H61004   7.985   6.626   9.091 -1.6790 -1.6480 -0.8070
  452MOL0     H61005   7.854   6.566   8.891 -0.4098  2.3667  0.0050
  452MOL0     H61006   7.837   6.273   8.419  0.4488 -0.3885 -2.0417
  452MOL0     H61007   7.638   6.297   8.273 -1.2019  0.9398  0.6281
  452MOL0     H61008   7.551   6.666   8.098  0.8544 -0.8817  1.8063
  452MOL0     H61009   7.408   6.676   8.217 -3.1940  1.9725 -1.2302
  452MOL0     H61010   7.414   6.555   7.949  3.6453  1.1771  0.6010
  452MOL0     H61011   7.324   6.701   8.013  0.6168 -0.4445 -0.1379
  452MOL0     H61012   7.261   6.423   8.121 -2.9028 -0.4477 -0.8504
  452MOL0     H61013   7.185   6.487   7.984  0.8638 -1.9195 -0.2951
  452MOL0     H61014   7.148   6.695   8.144  3.5822 -0.4596 -0.2883
  452MOL0     H61015   7.045   6.551   8.151 -1.4304  2.8462  1.4937
  452MOL0     H61016   7.202   6.515   8.531 -3.2013 -0.2660  1.4536
  452MOL0     H61017   7.630   6.720   8.316  1.1281  1.1833  2.8289
  452MOL0     H61018   7.968   6.759   8.469  0.9924 -0.6870 -0.0495
  452MOL0     H61019   7.819   6.837   8.408 -2.4775 -1.7444 -1.5268
  452MOL0     H61020   7.823   6.760   8.572 -2.5818 -0.8683 -1.2882
  453MOL0     O61021   7.760   2.062   7.053 -0.1081 -0.3090 -0.1325
  453MOL0     C61022   7.767   1.961   7.128 -0.1129 -0.3941  0.3056
  453MOL0     O61023   7.853   1.860   7.116  0.5739 -1.0578 -0.5974
  453MOL0     C61024   7.952   1.887   7.024  0.0125  0.6630 -0.1203
  453MOL0     C61025   8.062   1.969   7.057 -0.9530 -0.2942  0.1253
  453MOL0     C61026   8.172   1.987   6.974  0.3208  0.7288 -0.3986
  453MOL0     C61027   8.173   1.921   6.852 -0.3233 -0.2033  1.4007
  453MOL0     O61028   8.285   1.925   6.779 -0.3303  0.0168 -0.1398
  453MOL0     C61029   8.335   1.802   6.724 -0.2402 -0.0784  0.7857
  453MOL0     C61030   8.359   1.683   6.823 -0.0301 -0.2141 -0.8079
  453MOL0     C61031   8.500   1.675   6.878 -0.1197 -0.0767  0.6177
  453MOL0     C61032   8.545   1.786   6.979  0.1833 -0.4266 -0.3703
  453MOL0     C61033   8.661   1.877   6.917 -1.1044 -0.2847 -0.1850
  453MOL0     C61034   8.800   1.820   6.943 -0.4831  0.8462 -0.3816
  453MOL0     C61035   8.911   1.892   6.861  0.7282 -0.1359  0.6110
  453MOL0     C61036   8.899   1.860   6.713  0.3553 -0.1963  0.0613
  453MOL0     N61037   8.918   1.721   6.668  0.3370 -0.1149 -0.3569
  453MOL0     C61038   9.047   1.675   6.659  0.0896  0.2589 -0.3838
  453MOL0     C61039   9.056   1.588   6.554  0.1367 -0.1878  0.0451
  453MOL0     C61040   9.182   1.527   6.500  0.2406  0.9778  0.3486
  453MOL0     C61041   9.290   1.494   6.602  0.2559 -0.3576  0.5344
  453MOL0     C61042   9.247   1.401   6.713 -0.9209  0.4370 -0.3880
  453MOL0     C61043   9.327   1.268   6.693  0.5544 -0.1334 -0.3571
  453MOL0     O61044   9.304   1.181   6.801 -0.5719  0.7256 -0.5138
  453MOL0     C61045   9.190   1.098   6.795 -0.7425  0.8938  0.7079
  453MOL0     C61046   9.149   1.056   6.918  0.5106  0.4931 -0.0809
  453MOL0     C61047   9.047   0.958   6.942 -0.4426  0.2876  0.5636
  453MOL0     C61048   8.970   0.918   6.832  0.9197 -0.2951 -0.2092
  453MOL0     C61049   8.854   0.837   6.856  0.3388  0.4844  0.3380
  453MOL0     O61050   8.753   0.837   6.758 -0.0542  0.7196  0.0544
  453MOL0     C61051   8.677   0.722   6.756  0.7726  1.1041 -0.0604
  453MOL0     C61052   8.718   0.613   6.679 -1.0270  0.3626  0.3172
  453MOL0     C61053   8.637   0.500   6.675  0.9156  0.4947 -0.6040
  453MOL0     C61054   8.519   0.483   6.746 -0.3556 -0.0785  0.5569
  453MOL0     O61055   8.435   0.373   6.746  0.3901  0.4734 -0.0408
  453MOL0     C61056   8.461   0.259   6.657 -0.3099  0.1571 -0.1185
  453MOL0     C61057   8.364   0.134   6.666 -0.3524  0.1087 -0.1494
  453MOL0     C61058   8.327   0.116   6.813  0.6417 -0.3611  0.1756
  453MOL0     C61059   8.211   0.017   6.810  0.4093 -0.2778 -0.6866
  453MOL0     C61060   8.189  -0.048   6.951 -0.8982 -0.1080  0.9119
  453MOL0     C61061   8.091  -0.168   6.954 -0.1903 -0.4400 -0.0123
  453MOL0     C61062   8.065  -0.214   7.095 -0.2219  0.1389 -0.9684
  453MOL0     C61063   7.991  -0.356   7.105 -0.6541 -0.1958  0.8481
  453MOL0    Cl61064   8.073  -0.482   6.993 -0.2777 -0.1003  0.4405
  453MOL0     C61065   8.474   0.596   6.821  0.1017  0.6531 -0.3173
  453MOL0     C61066   8.554   0.713   6.829  0.9658  0.5654 -0.7531
  453MOL0     O61067   8.849   0.772   6.964  0.1847 -0.4403 -0.1939
  453MOL0     C61068   9.004   0.968   6.704 -0.5063  0.3635  0.5134
  453MOL0     C61069   9.114   1.056   6.679 -0.2832  0.2804 -0.3178
  453MOL0     N61070   8.923   1.573   6.508  0.8548 -0.7025  0.6542
  453MOL0     N61071   8.843   1.651   6.581 -0.4828  0.1474  1.1142
  453MOL0     C61072   8.056   1.859   6.807 -0.4833  0.6451 -0.1813
  453MOL0     C61073   7.949   1.831   6.893 -0.1133 -0.4393  0.6224
  453MOL0     C61074   7.648   1.946   7.215 -0.6190 -0.5507 -0.7267
  453MOL0     C61075   7.592   2.056   7.277  0.2399 -0.1846  0.1652
  453MOL0     C61076   7.474   2.049   7.357  0.5608 -0.3592  1.0460
  453MOL0     C61077   7.408   1.932   7.374 -0.1326 -0.7337 -0.0487
  453MOL0     O61078   7.302   1.935   7.451 -0.7087 -0.4374 -0.1015
  453MOL0     C61079   7.214   1.822   7.475 -0.5421 -0.0973  0.9524
  453MOL0     C61080   7.072   1.827   7.409 -0.7585  0.7042  0.1805
  453MOL0     C61081   6.986   1.927   7.488 -0.3624 -0.0990 -0.2459
  453MOL0     C61082   7.023   2.070   7.444 -0.2818 -1.1125  0.1280
  453MOL0     C61083   6.927   2.175   7.483 -0.1273 -0.0971 -0.1249
  453MOL0     C61084   6.834   2.240   7.524  0.6923 -0.4321 -0.7116
  453MOL0     C61085   7.457   1.819   7.306 -1.0544  0.3819  1.7890
  453MOL0     C61086   7.574   1.827   7.224 -0.6941  0.0759 -0.2939
  453MOL0     C61087   7.599   1.705   7.139 -0.3816 -0.2313  0.0816
  453MOL0     H61088   8.055   2.016   7.155  1.7208  0.8604 -0.1413
  453MOL0     H61089   8.258   2.045   7.005  0.5926  0.1703 -0.0998
  453MOL0     H61090   8.278   1.777   6.634  2.3666  0.1501 -1.0450
  453MOL0     H61091   8.433   1.824   6.681  0.2193  0.0269  1.8527
  453MOL0     H61092   8.326   1.593   6.770  1.6913 -1.6567  0.4511
  453MOL0     H61093   8.298   1.686   6.913 -0.3440 -0.7842 -0.9948
  453MOL0     H61094   8.572   1.670   6.795  0.3635 -3.0149  1.1163
  453MOL0     H61095   8.521   1.575   6.916  1.0493 -0.5152 -1.0177
  453MOL0     H61096   8.462   1.855   7.001  1.1020  0.4740  0.3281
  453MOL0     H61097   8.586   1.738   7.068  4.1772 -0.5632 -2.1102
  453MOL0     H61098   8.633   1.888   6.812 -0.6725 -4.0629 -0.8509
  453MOL0     H61099   8.648   1.967   6.978 -1.9218 -0.7134  0.2980
  453MOL0     H61100   8.818   1.819   7.051 -1.7052 -2.6156 -0.0956
  453MOL0     H61101   8.817   1.719   6.905  1.6103  1.3899 -1.0680
  453MOL0     H61102   9.007   1.850   6.894  0.2878 -0.8125  1.0760
  453MOL0     H61103   8.911   2.001   6.868  0.2000 -0.2283  3.0304
  453MOL0     H61104   8.795   1.882   6.684  0.7068  0.2930 -0.8519
  453MOL0     H61105   8.969   1.914   6.649  0.6477 -3.7093 -2.9119
  453MOL0     H61106   9.135   1.718   6.705 -0.9494  2.3625 -0.2415
  453MOL0     H61107   9.147   1.442   6.440 -1.2806  1.7122  0.1509
  453MOL0     H61108   9.221   1.591   6.421  0.3560 -0.1362 -0.5165
  453MOL0     H61109   9.379   1.455   6.551  0.9759 -1.1890  2.3529
  453MOL0     H61110   9.333   1.587   6.641  0.6391  0.0427 -0.7653
  453MOL0     H61111   9.139   1.388   6.709 -0.8518 -0.0230 -0.9371
  453MOL0     H61112   9.274   1.442   6.811  1.1993  2.7008 -1.7974
  453MOL0     H61113   9.436   1.278   6.691  1.0016 -3.2680  1.1259
  453MOL0     H61114   9.298   1.212   6.603  0.2591 -0.5862  0.0092
  453MOL0     H61115   9.195   1.094   7.009  1.4600 -0.3884 -0.1634
  453MOL0     H61116   9.003   0.932   7.037 -1.8440  1.7329  0.3532
  453MOL0     H61117   8.819   0.614   6.640 -1.3613  1.6632 -0.5981
  453MOL0     H61118   8.677   0.415   6.621 -3.3490 -0.9219 -1.9445
  453MOL0     H61119   8.454   0.307   6.559 -0.9543  1.1074  0.3901
  453MOL0     H61120   8.564   0.219   6.657 -0.0088  0.8063  2.2435
  453MOL0     H61121   8.273   0.157   6.610 -1.8309 -4.5114 -0.0624
  453MOL0     H61122   8.412   0.051   6.613 -0.8906  0.3241 -0.9868
  453MOL0     H61123   8.406   0.071   6.873 -0.0822 -0.9388  0.7170
  453MOL0     H61124   8.292   0.213   6.852  1.2673 -0.0473 -0.0347
  453MOL0     H61125   8.231  -0.066   6.742  0.0765 -0.0364 -1.0821
  453MOL0     H61126   8.113   0.061   6.789  0.1043  0.8463  2.5855
  453MOL0     H61127   8.166   0.028   7.026  0.4620  1.8988 -0.6069
  453MOL0     H61128   8.281  -0.102   6.977 -1.6736 -1.5628  0.7007
  453MOL0     H61129   8.003  -0.138   6.897 -0.7647 -2.1847 -0.0995
  453MOL0     H61130   8.148  -0.244   6.900  1.0730 -0.4810  1.3124
  453MOL0     H61131   8.005  -0.137   7.145  1.8235  1.1279  0.0852
  453MOL0     H61132   8.160  -0.211   7.148  1.4921 -1.7218 -3.6561
  453MOL0     H61133   7.993  -0.393   7.208  0.8945  3.6941  2.3960
  453MOL0     H61134   7.883  -0.347   7.087 -0.6878 -0.4086  0.9365
  453MOL0     H61135   8.378   0.594   6.872  0.1205 -0.9187 -0.3098
  453MOL0     H61136   8.520   0.797   6.889  2.1170  0.3323  0.2595
  453MOL0     H61137   8.947   0.941   6.615  0.6617  2.2383 -0.8801
  453MOL0     H61138   9.136   1.095   6.580  0.4802 -2.1329 -1.1776
  453MOL0     H61139   8.063   1.810   6.710  1.3294  0.4109  0.0386
  453MOL0     H61140   7.866   1.766   6.866  0.6520 -2.3417  2.5165
  453MOL0     H61141   7.649   2.148   7.270 -1.5653  1.3794  3.6193
  453MOL0     H61142   7.446   2.138   7.414 -2.0160 -2.2273  2.9089
  453MOL0     H61143   7.200   1.808   7.582 -0.8847 -0.1855  0.8983
  453MOL0     H61144   7.262   1.730   7.440 -2.0499 -0.8690  0.8501
  453MOL0     H61145   7.021   1.730   7.411 -0.6038  0.6201  0.0779
  453MOL0     H61146   7.084   1.858   7.305 -1.0647 -1.5973 -0.6031
  453MOL0     H61147   7.007   1.911   7.594 -0.3038 -1.3364 -0.4235
  453MOL0     H61148   6.879   1.906   7.474 -0.1161 -0.6242 -1.4569
  453MOL0     H61149   7.120   2.102   7.483 -1.8406  5.0689  0.0750
  453MOL0     H61150   7.037   2.077   7.335  0.5383  2.5162  0.3236
  453MOL0     H61151   6.744   2.289   7.554  0.0801 -1.8345 -0.1606
  453MOL0     H61152   7.411   1.721   7.298 -0.3631  0.1513  0.3053
  453MOL0     H61153   7.644   1.730   7.042  2.2148  2.0050  1.7320
  453MOL0     H61154   7.665   1.638   7.195 -0.1431 -1.2200 -1.3164
  453MOL0     H61155   7.509   1.644   7.122  0.2409 -1.8746  2.2534
  454MOL0     O61156   8.700  10.989   7.490  0.3183 -0.4008 -0.6158
  454MOL0     C61157   8.584  11.009   7.452  0.2771 -0.6831 -0.8549
  454MOL0     O61158   8.549  11.064   7.333 -0.0673  0.2764  0.4867
  454MOL0     C61159   8.621  11.080   7.226 -0.4020 -0.0851  0.9258
  454MOL0     C61160   8.539  11.126   7.121  0.3018  0.1572 -0.4328
  454MOL0     C61161   8.586  11.185   7.008 -0.3585  0.8258 -0.1116
  454MOL0     C61162   8.725  11.177   6.983 -0.2028 -0.4763 -0.0239
  454MOL0     O61163   8.796  11.235   6.877  0.6399 -0.3098  0.0639
  454MOL0     C61164   8.714  11.314   6.780  0.2600  0.8678 -0.6581
  454MOL0     C61165   8.817  11.389   6.689  0.2226  0.3071  0.0164
  454MOL0     C61166   8.889  11.485   6.777  0.4528  1.4027 -0.7783
  454MOL0     C61167   8.948  11.601   6.697  0.1361  0.0508  0.5439
  454MOL0     C61168   8.980  11.720   6.781 -0.4414  0.1872  0.6183
  454MOL0     C61169   9.068  11.821   6.714  0.5827 -0.6279 -0.8791
  454MOL0     C61170   9.120  11.924   6.820  0.5161  0.1887  0.6952
  454MOL0     C61171   9.213  12.015   6.740  0.6503 -0.5054 -0.4457
  454MOL0     N61172   9.283  12.114   6.827  0.6171 -0.2677  0.5525
  454MOL0     C61173   9.377  12.206   6.793 -0.9846  0.2262 -0.5248
  454MOL0     C61174   9.430  12.244   6.916 -0.1599  0.1545  0.6999
  454MOL0     C61175   9.533  12.351   6.933  0.5659 -0.2418 -0.1888
  454MOL0     C61176   9.670  12.306   6.979  0.0198  0.1081 -0.0445
  454MOL0     C61177   9.751  12.433   7.019  0.7761  0.2831 -0.2703
  454MOL0     C61178   9.903  12.415   7.047  0.7202  0.0280  0.3820
  454MOL0     O61179   9.982  12.392   6.927 -1.0516 -0.0084  0.1069
  454MOL0     C61180  10.117  12.390   6.943  0.0350 -0.4124 -0.0651
  454MOL0     C61181  10.187  12.427   7.056  0.6529  0.2299  0.0931
  454MOL0     C61182  10.324  12.441   7.049 -0.7811  0.0478 -0.2040
  454MOL0     C61183  10.398  12.398   6.940  0.6290 -0.1646  0.4163
  454MOL0     C61184  10.543  12.405   6.939 -0.4070  0.0977 -0.0015
  454MOL0     O61185  10.610  12.428   7.054 -0.8084 -0.4410  0.2399
  454MOL0     C61186  10.747  12.434   7.031 -0.3447 -0.1889 -0.6543
  454MOL0     C61187  10.819  12.325   7.064 -0.1909  0.1219 -1.3320
  454MOL0     C61188  10.961  12.333   7.046 -0.2617  0.0722  0.3689
  454MOL0     C61189  11.029  12.434   6.978 -0.2685 -0.5276 -0.1721
  454MOL0     O61190  11.160  12.439   6.947  0.1625 -0.9699 -0.0900
  454MOL0     C61191  11.241  12.327   6.979 -0.2895  0.2398 -0.1617
  454MOL0     C61192  11.394  12.332   6.931  0.3299  0.2744 -0.0492
  454MOL0     C61193  11.406  12.316   6.785  0.0842  0.0023 -0.0276
  454MOL0     C61194  11.548  12.363   6.745  0.2787 -0.8022  0.6391
  454MOL0     C61195  11.657  12.266   6.793  0.2054  0.0749 -0.0858
  454MOL0     C61196  11.777  12.335   6.747 -0.3236  0.1274  0.5827
  454MOL0     C61197  11.905  12.265   6.807 -0.0634 -0.4495 -0.5928
  454MOL0     C61198  12.039  12.339   6.765  0.0506  0.7377 -0.4194
  454MOL0    Cl61199  12.173  12.248   6.847  0.0838 -0.3518  0.1466
  454MOL0     C61200  10.951  12.540   6.944  0.8066  0.2025  0.6149
  454MOL0     C61201  10.808  12.544   6.971 -0.7252  0.0186  0.0418
  454MOL0     O61202  10.595  12.397   6.824  0.4045 -0.0867 -0.3600
  454MOL0     C61203  10.320  12.356   6.831  0.1442  0.0369 -0.2940
  454MOL0     C61204  10.183  12.347   6.831 -0.9047 -1.1104 -0.5071
  454MOL0     N61205   9.376  12.166   7.011  0.6061 -0.0120 -0.0983
  454MOL0     N61206   9.284  12.095   6.960  0.3082  0.0753  0.3768
  454MOL0     C61207   8.808  11.119   7.081  0.0447 -0.3004 -0.1421
  454MOL0     C61208   8.765  11.071   7.201 -0.7009 -0.2454  0.4556
  454MOL0     C61209   8.476  10.978   7.544 -0.2813  0.7176 -0.3884
  454MOL0     C61210   8.344  11.008   7.511  0.9165  0.0908 -0.7229
  454MOL0     C61211   8.235  10.986   7.592 -0.0347  0.3612  0.4587
  454MOL0     C61212   8.251  10.940   7.723 -0.5796 -0.2502  0.1522
  454MOL0     O61213   8.143  10.922   7.804 -0.1624  0.0507  0.3074
  454MOL0     C61214   8.157  10.834   7.918 -0.2843  0.2957  0.4063
  454MOL0     C61215   8.021  10.811   7.989  0.4800 -0.1515 -0.7417
  454MOL0     C61216   8.018  10.692   8.074  0.8919 -0.6089 -0.4515
  454MOL0     C61217   7.929  10.576   8.019 -0.0534  0.2487  0.5871
  454MOL0     C61218   7.893  10.477   8.125  0.1631 -1.0936  0.1038
  454MOL0     C61219   7.876  10.402   8.213 -0.5710  0.6773  0.8449
  454MOL0     C61220   8.380  10.908   7.760 -0.7991 -0.1932  0.2939
  454MOL0     C61221   8.493  10.918   7.675  0.0201 -0.1600  0.9596
  454MOL0     C61222   8.631  10.873   7.737  0.3134  0.2019 -0.0682
  454MOL0     H61223   8.432  11.108   7.134  0.2668  0.8266  0.2777
  454MOL0     H61224   8.510  11.226   6.943 -0.0819 -1.0842 -1.7186
  454MOL0     H61225   8.644  11.252   6.724  2.6042 -2.6025  0.0010
  454MOL0     H61226   8.651  11.389   6.829  1.9799  2.2460 -0.4486
  454MOL0     H61227   8.769  11.430   6.600 -0.4612  0.4680  0.4489
  454MOL0     H61228   8.892  11.321   6.647 -0.2929  0.6660 -1.5322
  454MOL0     H61229   8.971  11.436   6.830  0.1923 -0.3879 -1.9628
  454MOL0     H61230   8.816  11.530   6.845  0.2819  0.2632 -0.1718
  454MOL0     H61231   9.041  11.577   6.646  0.1111  1.3300 -0.1680
  454MOL0     H61232   8.876  11.628   6.618  0.9969  2.4838  0.5063
  454MOL0     H61233   8.890  11.770   6.817  1.2125  2.9425  1.1864
  454MOL0     H61234   9.043  11.687   6.864  0.1563  0.4828  0.2917
  454MOL0     H61235   9.146  11.764   6.661  1.5989 -1.7272  1.6278
  454MOL0     H61236   9.013  11.870   6.633  1.3049 -0.9715 -1.5883
  454MOL0     H61237   9.172  11.870   6.900  0.5944 -1.4636 -0.4253
  454MOL0     H61238   9.052  11.993   6.872  1.1559  0.2134  1.5251
  454MOL0     H61239   9.292  11.955   6.694  2.8002  3.2474 -2.0813
  454MOL0     H61240   9.166  12.071   6.658  3.2047 -0.7078 -2.1498
  454MOL0     H61241   9.394  12.252   6.696 -1.0767 -0.9563 -1.1073
  454MOL0     H61242   9.542  12.422   6.851  1.1308 -0.5279 -0.3798
  454MOL0     H61243   9.492  12.418   7.009  3.5253 -0.3164  1.6573
  454MOL0     H61244   9.646  12.243   7.065 -0.0185  1.0496  0.6404
  454MOL0     H61245   9.724  12.253   6.899  0.7398 -0.3177  0.7093
  454MOL0     H61246   9.708  12.497   7.096  2.5009 -0.2693  1.2186
  454MOL0     H61247   9.746  12.497   6.930 -0.5033 -1.2348 -1.3391
  454MOL0     H61248   9.926  12.343   7.126  0.4229 -0.2481  0.2170
  454MOL0     H61249   9.934  12.514   7.083  0.0415  0.0769  0.8474
  454MOL0     H61250  10.135  12.474   7.139  1.0814  0.4168  0.2601
  454MOL0     H61251  10.373  12.471   7.142  0.2788 -1.3365 -0.2838
  454MOL0     H61252  10.784  12.235   7.113  0.7873 -0.5509 -1.8398
  454MOL0     H61253  11.016  12.241   7.062  1.9330  0.6641 -2.9251
  454MOL0     H61254  11.251  12.315   7.087  2.1333  1.4078 -0.1847
  454MOL0     H61255  11.200  12.238   6.930  1.7540 -1.0088  0.2579
  454MOL0     H61256  11.439  12.421   6.976 -0.8406  1.5461 -1.3056
  454MOL0     H61257  11.439  12.246   6.982  1.2874  0.9006  0.1938
  454MOL0     H61258  11.388  12.210   6.764 -0.9890 -0.2946  2.1449
  454MOL0     H61259  11.344  12.390   6.733  1.9702  3.4417  2.2666
  454MOL0     H61260  11.564  12.469   6.769 -0.4089 -0.6267  0.3661
  454MOL0     H61261  11.552  12.379   6.636  0.8457  5.5153  1.1847
  454MOL0     H61262  11.655  12.170   6.741 -1.1400  1.4340 -2.7375
  454MOL0     H61263  11.665  12.256   6.901 -0.6223 -4.3048 -0.2634
  454MOL0     H61264  11.779  12.338   6.638 -1.1997  2.2937  0.5843
  454MOL0     H61265  11.773  12.435   6.792  1.0325  0.5172 -0.1095
  454MOL0     H61266  11.908  12.157   6.794  1.1572 -0.2560 -2.2803
  454MOL0     H61267  11.897  12.280   6.915 -1.9623 -3.5814 -0.1575
  454MOL0     H61268  12.043  12.340   6.656 -2.8493 -0.0702 -0.6376
  454MOL0     H61269  12.033  12.437   6.812  3.7797 -0.1486  2.3476
  454MOL0     H61270  11.001  12.633   6.918 -0.1562  0.4275 -0.4934
  454MOL0     H61271  10.742  12.629   6.957 -1.7878 -0.9160 -0.8085
  454MOL0     H61272  10.366  12.322   6.739  0.1637  0.5652 -0.4821
  454MOL0     H61273  10.130  12.313   6.743 -1.4302  2.6738 -1.8244
  454MOL0     H61274   8.916  11.133   7.076  0.4732 -3.0240 -0.0709
  454MOL0     H61275   8.842  11.029   7.265  3.9042 -0.8469 -4.7416
  454MOL0     H61276   8.314  11.057   7.419  0.7810  2.0669  0.3130
  454MOL0     H61277   8.134  11.015   7.564  0.1022  0.4646  0.0683
  454MOL0     H61278   8.228  10.875   7.991 -0.4879  0.3174  0.5946
  454MOL0     H61279   8.179  10.737   7.872 -1.7735  1.4791 -3.1453
  454MOL0     H61280   7.938  10.812   7.918 -3.1153  0.2259  3.0468
  454MOL0     H61281   7.996  10.898   8.050 -0.6262  0.9446 -2.6686
  454MOL0     H61282   7.974  10.729   8.167  0.6515 -0.5116 -0.6042
  454MOL0     H61283   8.121  10.658   8.085  0.7652 -2.6019 -3.9348
  454MOL0     H61284   7.837  10.607   7.968  0.8602  2.2091  0.0205
  454MOL0     H61285   7.985  10.518   7.946 -0.4221  0.9196 -0.2459
  454MOL0     H61286   7.875  10.344   8.303  2.3988  0.7452  1.0128
  454MOL0     H61287   8.398  10.879   7.863 -0.5631  0.5696  0.4714
  454MOL0     H61288   8.674  10.791   7.680 -0.0948  0.6435 -1.0369
  454MOL0     H61289   8.707  10.952   7.739  2.3872 -1.6873  2.4420
  454MOL0     H61290   8.625  10.848   7.843  1.8079 -0.7677 -0.1887
  455MOL0     O61291   2.191  10.395   4.374  0.9040 -0.1249 -0.3080
  455MOL0     C61292   2.120  10.445   4.285 -1.0818  0.7683  0.5159
  455MOL0     O61293   2.140  10.561   4.214  0.1513 -0.1810  0.1351
  455MOL0     C61294   2.235  10.654   4.244 -0.3133  0.6432 -0.6176
  455MOL0     C61295   2.271  10.683   4.381  0.2026  0.0939  0.1191
  455MOL0     C61296   2.373  10.768   4.415 -0.3279 -0.0124  0.3491
  455MOL0     C61297   2.439  10.837   4.326  0.6554 -0.0626  0.2758
  455MOL0     O61298   2.543  10.908   4.378  0.2426 -0.3887  0.0520
  455MOL0     C61299   2.607  10.998   4.282 -0.0359 -0.3687 -1.2608
  455MOL0     C61300   2.732  11.050   4.351 -0.8021  0.4956 -0.3024
  455MOL0     C61301   2.855  11.088   4.267  0.1293 -0.4008  1.1692
  455MOL0     C61302   2.911  10.973   4.169 -0.3889  0.4644 -0.1991
  455MOL0     C61303   3.051  11.008   4.116  0.6721  0.6338  0.0106
  455MOL0     C61304   3.159  10.980   4.218 -0.2198  0.7684 -0.2993
  455MOL0     C61305   3.298  11.017   4.164  0.4766 -0.1729 -0.0472
  455MOL0     C61306   3.391  10.982   4.280  0.1463  0.9905 -0.8001
  455MOL0     N61307   3.534  11.006   4.247 -0.7926  0.1761 -0.0842
  455MOL0     C61308   3.615  10.931   4.154 -0.0131  0.1683 -0.6318
  455MOL0     C61309   3.734  11.003   4.148  0.4614 -0.8402 -0.5288
  455MOL0     C61310   3.865  10.976   4.081 -0.5794 -0.5336  0.5484
  455MOL0     C61311   3.844  10.933   3.931  0.3959 -0.2458 -0.3498
  455MOL0     C61312   3.946  10.991   3.830  0.1457 -0.4479 -0.1798
  455MOL0     C61313   4.080  10.937   3.850  0.1209  0.3788  0.2824
  455MOL0     O61314   4.182  11.004   3.761  0.4831  0.4974  0.5372
  455MOL0     C61315   4.315  10.952   3.757  0.0903 -1.2852  0.7236
  455MOL0     C61316   4.368  10.855   3.842  0.0378  0.5685 -0.0513
  455MOL0     C61317   4.504  10.806   3.816  0.3999 -1.0531  0.5574
  455MOL0     C61318   4.569  10.853   3.702 -0.4412  0.2286  0.3463
  455MOL0     C61319   4.701  10.774   3.667 -0.1923 -0.9858  0.3936
  455MOL0     O61320   4.734  10.659   3.724 -0.2922 -0.2800  0.1969
  455MOL0     C61321   4.855  10.594   3.697 -0.4468  0.1875 -0.2035
  455MOL0     C61322   4.869  10.457   3.723 -0.4531 -0.3347  0.1815
  455MOL0     C61323   4.989  10.390   3.702 -0.2475 -0.0989  0.1951
  455MOL0     C61324   5.099  10.453   3.644 -0.3144 -0.4153 -0.0486
  455MOL0     O61325   5.201  10.380   3.597  0.1395  0.0325  0.2049
  455MOL0     C61326   5.334  10.437   3.576 -0.1224  0.0793 -0.6088
  455MOL0     C61327   5.396  10.490   3.706 -0.1438 -0.6582  0.2050
  455MOL0     C61328   5.506  10.591   3.681  0.0201  0.6299 -0.4861
  455MOL0     C61329   5.625  10.546   3.601  0.9166 -0.3999 -0.2653
  455MOL0     C61330   5.731  10.647   3.586  0.6720 -0.0729 -0.1545
  455MOL0     C61331   5.840  10.577   3.502  0.1284 -0.0283  0.5608
  455MOL0     C61332   5.962  10.679   3.486  1.1482 -0.2834  1.0485
  455MOL0     C61333   6.055  10.606   3.386  0.4868 -0.2284 -0.0395
  455MOL0    Cl61334   6.009  10.618   3.215 -0.2161  0.0427 -0.1102
  455MOL0     C61335   5.090  10.595   3.631 -0.4983  0.2438  0.2986
  455MOL0     C61336   4.970  10.661   3.656 -0.0523  0.6879 -0.7160
  455MOL0     O61337   4.764  10.831   3.577  0.1130  0.0889 -0.2174
  455MOL0     C61338   4.519  10.960   3.628  0.3995 -0.3872  0.7589
  455MOL0     C61339   4.392  11.008   3.653  1.1190 -0.2987 -0.3357
  455MOL0     N61340   3.714  11.110   4.236 -1.1190 -0.4814 -0.5717
  455MOL0     N61341   3.608  11.106   4.295 -0.2449 -0.0112 -0.2247
  455MOL0     C61342   2.407  10.824   4.187  0.4115  0.4254  0.2077
  455MOL0     C61343   2.296  10.735   4.149  0.7962 -0.2831  0.8638
  455MOL0     C61344   1.991  10.369   4.254 -0.3596  0.6016  1.4758
  455MOL0     C61345   1.994  10.228   4.227 -0.1687 -0.6319 -0.3362
  455MOL0     C61346   1.872  10.162   4.197  0.1508 -0.2736 -0.2521
  455MOL0     C61347   1.750  10.225   4.187 -0.5656  0.5734  0.5004
  455MOL0     O61348   1.636  10.158   4.161  0.8025  0.8351 -0.0681
  455MOL0     C61349   1.640  10.013   4.153 -0.8463 -0.6256 -0.6745
  455MOL0     C61350   1.507   9.963   4.115 -0.6202 -0.3024  0.3923
  455MOL0     C61351   1.489   9.809   4.149  0.6574 -0.6279  0.1762
  455MOL0     C61352   1.340   9.775   4.131 -0.3627  1.0714 -1.7340
  455MOL0     C61353   1.340   9.624   4.120 -0.1122 -0.6585  0.5991
  455MOL0     C61354   1.337   9.510   4.106 -0.2216  0.3648  0.4824
  455MOL0     C61355   1.748  10.366   4.211  0.9986  0.6200 -0.0651
  455MOL0     C61356   1.870  10.434   4.238  0.2002 -0.1094 -0.1543
  455MOL0     C61357   1.864  10.575   4.258  0.4113 -0.2862  0.4243
  455MOL0     H61358   2.222  10.640   4.468 -0.1682 -1.6399 -0.8969
  455MOL0     H61359   2.384  10.790   4.520  0.0441  0.7149  0.1694
  455MOL0     H61360   2.632  10.948   4.187  3.9775  0.1562 -0.6531
  455MOL0     H61361   2.541  11.083   4.262 -1.7459 -1.4694 -0.5367
  455MOL0     H61362   2.769  10.982   4.428  0.5564  0.2089 -1.1699
  455MOL0     H61363   2.704  11.141   4.406  2.2538  0.9305  0.7643
  455MOL0     H61364   2.930  11.119   4.341 -0.3078  1.7413  0.7792
  455MOL0     H61365   2.837  11.173   4.201  0.8429 -0.4033  0.9602
  455MOL0     H61366   2.915  10.880   4.227  0.6455  1.7940  1.9827
  455MOL0     H61367   2.833  10.960   4.093 -0.4217  1.5114 -0.3669
  455MOL0     H61368   3.080  10.935   4.040  0.3062  1.1933 -0.6698
  455MOL0     H61369   3.051  11.110   4.078  3.0772  1.5247  2.1356
  455MOL0     H61370   3.134  11.029   4.313  0.1391 -2.1731  1.4079
  455MOL0     H61371   3.151  10.874   4.242  3.0616  0.4114 -0.3945
  455MOL0     H61372   3.300  11.125   4.148 -1.4384 -0.3146 -1.6395
  455MOL0     H61373   3.324  10.974   4.067  0.5832 -1.8038  0.6710
  455MOL0     H61374   3.364  11.039   4.369  1.0011 -0.5124  0.4751
  455MOL0     H61375   3.378  10.880   4.317  0.3132  1.2084 -0.1278
  455MOL0     H61376   3.591  10.832   4.116 -1.0886 -1.6403  4.0953
  455MOL0     H61377   3.926  11.066   4.084 -1.3266 -0.0176  0.6270
  455MOL0     H61378   3.921  10.901   4.138 -0.7378  0.0454  1.4849
  455MOL0     H61379   3.838  10.824   3.923  1.1898 -0.3400  0.2574
  455MOL0     H61380   3.744  10.967   3.902  0.9925  0.5115 -1.6281
  455MOL0     H61381   3.962  11.099   3.842  2.4357 -0.4056 -2.5176
  455MOL0     H61382   3.920  10.978   3.724  2.8098  0.3158 -1.0235
  455MOL0     H61383   4.082  10.829   3.830 -0.6120  0.3063  0.6073
  455MOL0     H61384   4.098  10.947   3.957  0.6269  1.9469  0.0853
  455MOL0     H61385   4.311  10.820   3.927  0.0818 -0.4131 -0.4092
  455MOL0     H61386   4.543  10.734   3.887  0.5345  0.4204  2.0228
  455MOL0     H61387   4.786  10.400   3.763 -0.6540  1.1418  2.0045
  455MOL0     H61388   4.980  10.283   3.719  0.6481 -0.6995 -2.6434
  455MOL0     H61389   5.389  10.353   3.533  1.2610  0.1040  1.0024
  455MOL0     H61390   5.342  10.512   3.497 -0.6797 -1.0471 -1.7619
  455MOL0     H61391   5.317  10.533   3.768 -2.1055 -2.0292 -1.2560
  455MOL0     H61392   5.441  10.414   3.770  1.7942  0.4879  0.2859
  455MOL0     H61393   5.460  10.682   3.642 -2.6101 -0.1928  0.4498
  455MOL0     H61394   5.537  10.622   3.781 -4.1465 -1.6145  1.7773
  455MOL0     H61395   5.593  10.509   3.503 -1.6451 -2.9248  1.3961
  455MOL0     H61396   5.659  10.449   3.638 -0.3851 -1.1993 -1.0798
  455MOL0     H61397   5.769  10.687   3.681  1.4866  0.2502 -0.6022
  455MOL0     H61398   5.710  10.733   3.521  1.3889 -1.2320 -2.0085
  455MOL0     H61399   5.887  10.491   3.551  2.1067  0.5418 -0.2407
  455MOL0     H61400   5.793  10.539   3.411  1.5250 -1.8413  0.5274
  455MOL0     H61401   6.007  10.685   3.586 -1.6219 -0.5257  2.3992
  455MOL0     H61402   5.922  10.774   3.451  1.6578 -0.3357  0.2956
  455MOL0     H61403   6.148  10.661   3.401  1.7682 -1.6035 -2.2495
  455MOL0     H61404   6.069  10.502   3.419 -1.4880 -0.3965  0.4055
  455MOL0     H61405   5.180  10.638   3.589 -0.5427 -0.4668 -0.5485
  455MOL0     H61406   4.963  10.766   3.630  0.2659  0.0571 -3.7412
  455MOL0     H61407   4.580  11.009   3.554 -1.1026  1.7155  0.8091
  455MOL0     H61408   4.342  11.085   3.596  1.4792  0.8218  0.8152
  455MOL0     H61409   2.455  10.879   4.107  3.5488 -1.3052  0.7324
  455MOL0     H61410   2.252  10.720   4.051  0.1649  1.2142  0.9004
  455MOL0     H61411   2.091  10.180   4.238  0.2675  0.0527 -1.1205
  455MOL0     H61412   1.888  10.058   4.172 -1.7250 -0.7086  0.2141
  455MOL0     H61413   1.673   9.972   4.248  0.9436  5.0907  1.5948
  455MOL0     H61414   1.707   9.980   4.073 -0.7338  1.2935 -1.4311
  455MOL0     H61415   1.492   9.988   4.010  0.6796  3.0105  0.8637
  455MOL0     H61416   1.438  10.027   4.171 -1.3491  0.7921 -1.6826
  455MOL0     H61417   1.521   9.797   4.252 -1.0876 -0.0600  0.8176
  455MOL0     H61418   1.557   9.741   4.097 -0.6932 -1.9896  0.1344
  455MOL0     H61419   1.282   9.810   4.217  1.9800 -3.6827  2.2661
  455MOL0     H61420   1.307   9.831   4.043 -0.8334  4.2741  0.3119
  455MOL0     H61421   1.341   9.404   4.090  0.9120  0.2132  1.6006
  455MOL0     H61422   1.651  10.413   4.205 -0.0298 -1.4015  0.1017
  455MOL0     H61423   1.939  10.611   4.329  1.0448  0.6997 -0.6909
  455MOL0     H61424   1.887  10.620   4.161  0.4344 -2.2412 -0.5130
  455MOL0     H61425   1.769  10.607   4.301  0.5467 -0.2070  0.6627
  456MOL0     O61426   2.314   7.326   5.214  0.1990 -0.4691  0.0786
  456MOL0     C61427   2.219   7.321   5.292  0.2669 -1.2876  0.1837
  456MOL0     O61428   2.166   7.204   5.345 -0.1058  0.3439  0.8383
  456MOL0     C61429   2.213   7.088   5.296  0.0449  0.1387  0.6113
  456MOL0     C61430   2.252   6.995   5.393 -0.4725  0.1089 -0.6932
  456MOL0     C61431   2.314   6.876   5.366  0.0928 -0.0579  0.2539
  456MOL0     C61432   2.326   6.838   5.227 -0.0180  0.1289 -0.6387
  456MOL0     O61433   2.389   6.718   5.202  0.1976 -0.1688  0.1803
  456MOL0     C61434   2.409   6.682   5.069 -0.1345  0.6114 -0.2677
  456MOL0     C61435   2.486   6.548   5.062 -0.1212 -0.3961 -0.2313
  456MOL0     C61436   2.489   6.470   4.932 -0.3451 -0.8628  0.6238
  456MOL0     C61437   2.592   6.360   4.955  0.0048 -0.3032  0.1509
  456MOL0     C61438   2.566   6.267   4.842 -0.1749 -0.0992  0.0865
  456MOL0     C61439   2.616   6.126   4.882 -0.4945 -0.7113  0.1605
  456MOL0     C61440   2.771   6.118   4.906 -0.2313  0.1621 -0.0212
  456MOL0     C61441   2.811   5.984   4.960  0.0398  0.4536  0.3157
  456MOL0     N61442   2.931   5.919   4.895 -1.1389  0.0383 -0.6278
  456MOL0     C61443   3.059   5.969   4.895  0.3487  0.7067  0.9140
  456MOL0     C61444   3.124   5.888   4.795  0.3305  0.2875 -0.2833
  456MOL0     C61445   3.256   5.869   4.736 -0.0712 -0.2017  0.2687
  456MOL0     C61446   3.359   5.851   4.847 -0.3198  0.4016 -0.3955
  456MOL0     C61447   3.488   5.794   4.781  0.2942  0.5869  0.0474
  456MOL0     C61448   3.587   5.900   4.741  1.1594  0.2618  0.4263
  456MOL0     O61449   3.589   6.017   4.822 -0.6704 -0.2939 -0.3936
  456MOL0     C61450   3.714   6.057   4.859 -0.6827  0.4100 -0.1366
  456MOL0     C61451   3.742   6.090   4.992 -0.6217  0.0701 -0.3815
  456MOL0     C61452   3.869   6.127   5.038 -0.9956 -0.7198  0.1901
  456MOL0     C61453   3.971   6.141   4.950 -1.9833  0.6575  0.8950
  456MOL0     C61454   4.110   6.180   4.990 -0.9457  0.3159  1.1403
  456MOL0     O61455   4.192   6.219   4.890  0.1468 -0.3783  0.5006
  456MOL0     C61456   4.320   6.247   4.922  0.1252  0.5465 -0.1694
  456MOL0     C61457   4.397   6.137   4.930 -1.2086 -0.9032  0.6985
  456MOL0     C61458   4.537   6.143   4.963 -0.0932 -0.0493 -0.1304
  456MOL0     C61459   4.586   6.268   4.993  0.4542 -0.8806  0.4921
  456MOL0     O61460   4.717   6.297   5.030  0.0933  0.0742 -0.3585
  456MOL0     C61461   4.829   6.224   4.992 -0.7080 -0.5548 -0.6486
  456MOL0     C61462   4.951   6.318   4.952  0.4508 -0.4736 -0.0243
  456MOL0     C61463   4.998   6.392   5.074  0.0663  0.3615  0.2524
  456MOL0     C61464   5.156   6.413   5.052  0.3401  0.5634  0.4079
  456MOL0     C61465   5.217   6.552   5.045  0.9387  0.0834  0.4189
  456MOL0     C61466   5.364   6.550   5.046 -0.0803  0.1369 -0.0742
  456MOL0     C61467   5.432   6.510   4.919 -0.0668 -0.5394 -0.1165
  456MOL0     C61468   5.579   6.509   4.923  0.8367 -0.3306 -0.4311
  456MOL0    Cl61469   5.652   6.429   4.785  0.1321  0.5625 -0.5233
  456MOL0     C61470   4.504   6.379   5.004 -0.8848 -0.5986  0.4641
  456MOL0     C61471   4.367   6.376   4.960 -0.5415  0.3780 -0.1916
  456MOL0     O61472   4.134   6.175   5.110 -1.3239 -0.2920  0.3565
  456MOL0     C61473   3.947   6.124   4.814 -0.3560  0.3976 -0.0510
  456MOL0     C61474   3.823   6.075   4.772  0.8012 -0.6275  0.6846
  456MOL0     N61475   3.036   5.778   4.773 -0.0149  0.1968  0.7311
  456MOL0     N61476   2.924   5.804   4.826  0.3776  0.3080  0.0028
  456MOL0     C61477   2.281   6.921   5.132 -0.0114  0.3272  0.7992
  456MOL0     C61478   2.232   7.046   5.167 -0.0695  0.6804  0.9184
  456MOL0     C61479   2.164   7.450   5.329  0.4216  0.3897 -0.1618
  456MOL0     C61480   2.043   7.442   5.400 -0.1246 -0.3439  0.2293
  456MOL0     C61481   1.979   7.559   5.417  0.8896 -0.7679  0.4637
  456MOL0     C61482   2.010   7.683   5.381  0.1266 -0.4443  0.1570
  456MOL0     O61483   1.924   7.792   5.395  0.0816 -0.9924 -0.0163
  456MOL0     C61484   1.780   7.784   5.439 -0.1605  0.3033 -0.0960
  456MOL0     C61485   1.699   7.907   5.401  0.3719 -0.2633  0.4629
  456MOL0     C61486   1.558   7.907   5.468 -0.0803 -0.2498 -0.3780
  456MOL0     C61487   1.446   7.998   5.417 -0.0335  0.4487 -0.3149
  456MOL0     C61488   1.321   7.984   5.503 -0.9320  0.0964 -0.4749
  456MOL0     C61489   1.229   7.958   5.577 -0.5698 -0.8602 -0.6493
  456MOL0     C61490   2.133   7.694   5.312 -0.4993 -0.7670  0.7814
  456MOL0     C61491   2.212   7.582   5.286  0.2584 -0.6031  0.4804
  456MOL0     C61492   2.339   7.611   5.210 -0.6017 -0.0310 -0.6576
  456MOL0     H61493   2.233   7.036   5.491 -1.1779  0.4151 -0.9477
  456MOL0     H61494   2.352   6.810   5.443 -1.1288 -1.9115 -0.6699
  456MOL0     H61495   2.312   6.666   5.021  1.4983 -1.8696 -3.0494
  456MOL0     H61496   2.469   6.753   5.012  0.2313 -0.1696 -0.8705
  456MOL0     H61497   2.436   6.481   5.133  0.5764 -1.7247 -0.9471
  456MOL0     H61498   2.593   6.558   5.083  0.2189 -4.4790  0.9790
  456MOL0     H61499   2.517   6.533   4.847 -1.1557 -0.4096  0.6842
  456MOL0     H61500   2.390   6.428   4.910 -1.1418  0.4705  1.5873
  456MOL0     H61501   2.693   6.402   4.958  0.0862 -0.2552 -1.9446
  456MOL0     H61502   2.565   6.311   5.049 -1.2462  0.4684  0.2140
  456MOL0     H61503   2.459   6.262   4.817 -1.2818  1.6233  3.7909
  456MOL0     H61504   2.619   6.305   4.754 -2.3098  1.7907 -0.4890
  456MOL0     H61505   2.569   6.098   4.976  0.2424  0.3213  0.8526
  456MOL0     H61506   2.592   6.049   4.808 -0.3501  1.2076 -2.0052
  456MOL0     H61507   2.808   6.191   4.979  1.7563 -0.9746  0.1523
  456MOL0     H61508   2.829   6.134   4.815 -0.3897 -0.0565 -0.1617
  456MOL0     H61509   2.832   5.988   5.068  0.1294 -1.7031  0.4204
  456MOL0     H61510   2.729   5.916   4.937  1.3299 -0.9132 -0.4366
  456MOL0     H61511   3.097   6.060   4.939  0.8079 -0.0124  2.0582
  456MOL0     H61512   3.262   5.780   4.672  1.0351  0.5199 -0.6649
  456MOL0     H61513   3.292   5.948   4.669  2.1090 -1.0678  0.3347
  456MOL0     H61514   3.371   5.947   4.898 -3.0528 -0.2633  1.6853
  456MOL0     H61515   3.314   5.792   4.927 -2.2946  2.7591  0.3277
  456MOL0     H61516   3.472   5.741   4.686  0.9495 -0.1451  0.3339
  456MOL0     H61517   3.540   5.728   4.852 -2.2982 -0.6851  0.9005
  456MOL0     H61518   3.571   5.945   4.643  5.7528  0.2613 -0.5486
  456MOL0     H61519   3.678   5.840   4.729  1.1393  0.2981  0.0766
  456MOL0     H61520   3.653   6.080   5.054 -1.7324 -3.6454 -2.2700
  456MOL0     H61521   3.902   6.150   5.139  4.5307 -2.4375 -0.8850
  456MOL0     H61522   4.356   6.041   4.901  0.0138 -1.4718  0.8075
  456MOL0     H61523   4.605   6.058   4.962  0.9056  0.7424 -0.0755
  456MOL0     H61524   4.849   6.154   5.074 -3.2127  0.2355  0.7555
  456MOL0     H61525   4.808   6.167   4.901 -1.6014  0.8753 -1.3726
  456MOL0     H61526   5.027   6.247   4.918  0.3500 -0.0069 -1.2749
  456MOL0     H61527   4.923   6.385   4.870 -0.9750 -0.3402  0.5286
  456MOL0     H61528   4.948   6.489   5.083  2.6837  1.9864 -1.3300
  456MOL0     H61529   4.982   6.336   5.167  0.5509 -1.5350 -0.7685
  456MOL0     H61530   5.190   6.383   4.953 -0.4206  2.3046 -0.4259
  456MOL0     H61531   5.200   6.352   5.131 -1.3709 -0.9928  0.2485
  456MOL0     H61532   5.186   6.620   5.124  0.4726  0.2903  0.0682
  456MOL0     H61533   5.179   6.597   4.953  0.9372 -1.5821 -0.4362
  456MOL0     H61534   5.398   6.653   5.064  2.7360 -0.4808 -1.3471
  456MOL0     H61535   5.390   6.487   5.132 -3.3182 -0.8840  0.2942
  456MOL0     H61536   5.390   6.569   4.837 -2.5069 -1.8042  0.1447
  456MOL0     H61537   5.411   6.404   4.902  0.8932 -0.3746 -2.9380
  456MOL0     H61538   5.617   6.610   4.943 -1.1025  0.1786  0.8872
  456MOL0     H61539   5.617   6.450   5.007 -1.2738  1.8491  2.2654
  456MOL0     H61540   4.552   6.468   5.045  1.0785 -2.1688  1.7194
  456MOL0     H61541   4.305   6.465   4.956  0.0661  0.8656  0.7832
  456MOL0     H61542   4.030   6.124   4.744  0.6680 -1.2241  1.0923
  456MOL0     H61543   3.817   6.063   4.664 -3.1420 -0.2608  0.7130
  456MOL0     H61544   2.294   6.906   5.025  1.0602 -0.0079  0.9722
  456MOL0     H61545   2.211   7.116   5.087  1.5465 -0.5887 -0.6982
  456MOL0     H61546   2.014   7.350   5.450 -0.6058  0.6712  1.8891
  456MOL0     H61547   1.891   7.532   5.474 -0.2005 -0.5120 -1.0391
  456MOL0     H61548   1.767   7.763   5.546 -0.8837  3.9324  0.6580
  456MOL0     H61549   1.735   7.691   5.403 -2.1777  0.3044  2.1086
  456MOL0     H61550   1.684   7.906   5.292 -1.0570 -1.8284  0.6338
  456MOL0     H61551   1.754   7.996   5.432  0.7354 -0.2562 -0.1687
  456MOL0     H61552   1.575   7.931   5.574 -1.9368  5.5467 -1.0068
  456MOL0     H61553   1.528   7.802   5.477  1.4679 -0.7117 -0.3907
  456MOL0     H61554   1.482   8.101   5.422  1.8691  0.0118 -3.0082
  456MOL0     H61555   1.421   7.978   5.313 -0.7924 -2.8929  0.3751
  456MOL0     H61556   1.146   7.959   5.645  0.6116 -0.4711  0.8430
  456MOL0     H61557   2.167   7.793   5.285 -0.7720 -0.3547  1.8898
  456MOL0     H61558   2.421   7.549   5.248  1.4213  3.2938  0.8730
  456MOL0     H61559   2.321   7.588   5.104 -2.2469  0.4352 -0.5159
  456MOL0     H61560   2.361   7.718   5.220 -0.5740 -0.1547  0.8573
  457MOL0     O61561   7.821   3.716   1.987  0.6128  0.3062  0.8203
  457MOL0     C61562   7.913   3.662   2.039 -0.4063  0.1870  0.0949
  457MOL0     O61563   8.029   3.633   1.968  0.5912 -0.3694 -0.6261
  457MOL0     C61564   8.041   3.672   1.834 -0.4008 -0.1558  0.6579
  457MOL0     C61565   7.946   3.626   1.736 -0.9534  0.3124 -0.1951
  457MOL0     C61566   7.972   3.646   1.597 -0.1934  0.6130  0.0223
  457MOL0     C61567   8.080   3.716   1.550  0.1227 -1.4264  0.4431
  457MOL0     O61568   8.107   3.733   1.415  0.6302 -0.1476 -0.4862
  457MOL0     C61569   7.995   3.740   1.327  0.5302  0.0418  0.2006
  457MOL0     C61570   8.035   3.789   1.188  0.1888 -0.0369 -0.2946
  457MOL0     C61571   7.903   3.806   1.101 -0.4095  0.6294  1.0801
  457MOL0     C61572   7.931   3.831   0.958 -0.1254  0.0381  0.6810
  457MOL0     C61573   7.817   3.784   0.873  0.3422  0.3073  0.5565
  457MOL0     C61574   7.840   3.810   0.726 -0.0911  1.1440  0.3364
  457MOL0     C61575   7.850   3.954   0.685 -0.0374 -0.0565  0.1425
  457MOL0     C61576   7.830   3.980   0.531 -0.5019  0.1199 -0.1887
  457MOL0     N61577   7.948   3.937   0.448 -0.0077 -0.3736  0.2567
  457MOL0     C61578   8.066   4.009   0.435  1.1517  0.0924 -0.5751
  457MOL0     C61579   8.145   3.932   0.356 -0.3192  0.5051 -0.0083
  457MOL0     C61580   8.285   3.968   0.318  0.5394  0.0006  0.0661
  457MOL0     C61581   8.288   4.105   0.256  0.5359 -0.1470  0.1004
  457MOL0     C61582   8.433   4.143   0.237 -0.2090  0.4052  0.4642
  457MOL0     C61583   8.508   4.050   0.137  0.2617 -0.3485  0.1575
  457MOL0     O61584   8.638   4.106   0.125 -0.6437  0.1931 -0.4414
  457MOL0     C61585   8.720   4.037   0.036  0.9220  0.8870  0.3241
  457MOL0     C61586   8.686   3.936  -0.047  0.2923  0.4785  0.0299
  457MOL0     C61587   8.781   3.872  -0.123 -0.2055 -0.2350  1.3960
  457MOL0     C61588   8.913   3.919  -0.127 -0.1498  0.7676 -0.1081
  457MOL0     C61589   9.014   3.869  -0.216 -0.5501  0.2091  0.4123
  457MOL0     O61590   9.148   3.904  -0.186  0.4642 -0.3349 -0.0052
  457MOL0     C61591   9.241   3.887  -0.293  0.1249  0.0104  0.3159
  457MOL0     C61592   9.336   3.982  -0.315 -0.4526  0.2522 -0.2780
  457MOL0     C61593   9.443   3.955  -0.401 -0.0132  0.0517 -0.3225
  457MOL0     C61594   9.468   3.839  -0.468 -0.3930  0.1629  1.3468
  457MOL0     O61595   9.591   3.813  -0.524  0.0582  0.0171 -1.0310
  457MOL0     C61596   9.586   3.734  -0.639 -0.1694 -0.3709  0.7170
  457MOL0     C61597   9.734   3.700  -0.673 -1.0406 -0.2539  0.6486
  457MOL0     C61598   9.809   3.817  -0.738 -1.2176  0.0153 -0.8636
  457MOL0     C61599   9.951   3.791  -0.779  0.1760 -0.7410 -0.7699
  457MOL0     C61600  10.045   3.904  -0.803 -0.6858 -0.1439  0.0409
  457MOL0     C61601  10.004   3.986  -0.928  0.7467 -0.0212  0.1521
  457MOL0     C61602  10.134   4.058  -0.975 -0.2995  1.1266  0.5231
  457MOL0     C61603  10.193   3.984  -1.092 -0.5467  0.4282  0.7007
  457MOL0    Cl61604  10.247   3.818  -1.042  0.2227  0.1759  0.0995
  457MOL0     C61605   9.373   3.739  -0.434  0.4763  0.6593  0.0701
  457MOL0     C61606   9.263   3.756  -0.349 -0.2115 -0.6387 -0.7521
  457MOL0     O61607   8.980   3.798  -0.311  0.3439 -0.4642  0.4886
  457MOL0     C61608   8.944   4.025  -0.037  0.0349  0.5670  0.9446
  457MOL0     C61609   8.849   4.078   0.040 -0.2500 -0.3534 -0.5121
  457MOL0     N61610   8.076   3.819   0.325  0.1014 -0.2470 -0.3367
  457MOL0     N61611   7.969   3.814   0.388  0.2071 -0.3747  0.1244
  457MOL0     C61612   8.168   3.769   1.646 -0.4840  0.3016 -0.6271
  457MOL0     C61613   8.146   3.746   1.788 -0.1516  0.1855  0.2214
  457MOL0     C61614   7.916   3.645   2.191 -0.6298  1.6621  0.4830
  457MOL0     C61615   8.048   3.633   2.254  0.0317  0.1233 -0.9110
  457MOL0     C61616   8.057   3.626   2.396 -0.1721  0.0140 -0.8576
  457MOL0     C61617   7.933   3.613   2.473 -0.5315  0.0986 -0.9897
  457MOL0     O61618   7.923   3.598   2.610  0.1718  0.3445 -0.3625
  457MOL0     C61619   8.037   3.579   2.694  0.0477  0.0405 -0.3545
  457MOL0     C61620   8.088   3.435   2.672 -0.1501  0.6095 -1.1985
  457MOL0     C61621   7.984   3.342   2.743  0.4247  0.0199 -0.3186
  457MOL0     C61622   8.028   3.198   2.765 -0.3800  0.5077  0.7909
  457MOL0     C61623   8.065   3.140   2.638 -0.9641 -0.3214  0.7655
  457MOL0     C61624   8.105   3.077   2.537  0.6591  0.1331 -0.5075
  457MOL0     C61625   7.811   3.609   2.406 -0.1890 -0.8445  0.4014
  457MOL0     C61626   7.795   3.635   2.265  0.7622 -0.0781  0.7845
  457MOL0     C61627   7.656   3.642   2.207  0.3232  0.0657  0.4447
  457MOL0     H61628   7.855   3.568   1.747 -0.6977 -0.0553  0.0183
  457MOL0     H61629   7.908   3.597   1.525 -2.2630  1.9065  0.8834
  457MOL0     H61630   7.958   3.637   1.316 -0.2078  0.1092  1.6980
  457MOL0     H61631   7.912   3.796   1.371 -0.6629 -1.5260  0.0422
  457MOL0     H61632   8.092   3.718   1.127 -0.0460 -1.1045  0.7030
  457MOL0     H61633   8.084   3.887   1.193  0.5859 -0.0525 -2.6913
  457MOL0     H61634   7.844   3.885   1.148  3.0444  3.3555  1.3222
  457MOL0     H61635   7.847   3.713   1.100  1.7641 -0.7836 -1.3033
  457MOL0     H61636   7.963   3.935   0.943  0.1298 -0.3798 -2.1748
  457MOL0     H61637   8.016   3.768   0.932 -1.0832 -0.8733 -0.3557
  457MOL0     H61638   7.812   3.677   0.894  2.8882  0.5040  2.7003
  457MOL0     H61639   7.717   3.824   0.894 -0.1639  0.0527 -1.1792
  457MOL0     H61640   7.927   3.755   0.686  0.0526  2.2469 -0.9489
  457MOL0     H61641   7.757   3.770   0.667  0.3039 -0.4843  0.8157
  457MOL0     H61642   7.951   3.991   0.709 -0.7752  1.9301  0.3820
  457MOL0     H61643   7.785   4.019   0.745 -0.8079  0.3116 -1.0754
  457MOL0     H61644   7.736   3.932   0.499  1.2704 -2.7545 -1.6008
  457MOL0     H61645   7.822   4.087   0.513 -0.9259  0.3781  1.4482
  457MOL0     H61646   8.090   4.100   0.489  1.1306 -1.1834  1.7164
  457MOL0     H61647   8.336   3.954   0.414  3.0385 -0.8446 -1.3106
  457MOL0     H61648   8.318   3.895   0.244  2.9067  1.0461  0.0090
  457MOL0     H61649   8.240   4.106   0.158  0.9683  2.1012 -0.1423
  457MOL0     H61650   8.242   4.183   0.317  1.0438  0.7548 -0.6529
  457MOL0     H61651   8.483   4.139   0.334 -2.3442 -4.8876  1.6639
  457MOL0     H61652   8.435   4.248   0.207 -0.5622  0.4489  0.5931
  457MOL0     H61653   8.462   4.053   0.037 -2.0852  2.0265  1.1854
  457MOL0     H61654   8.504   3.946   0.170  2.4677 -0.4259  0.3185
  457MOL0     H61655   8.583   3.902  -0.052 -1.2126  4.5962 -0.6575
  457MOL0     H61656   8.750   3.794  -0.192 -0.4089 -0.2231  1.4730
  457MOL0     H61657   9.347   4.074  -0.259  0.4049 -1.0536  1.8058
  457MOL0     H61658   9.516   4.034  -0.418 -0.1409  0.1969 -0.1952
  457MOL0     H61659   9.522   3.647  -0.619 -1.3822  0.3616  0.1500
  457MOL0     H61660   9.537   3.789  -0.721 -0.6761  0.4829  1.5776
  457MOL0     H61661   9.789   3.670  -0.584 -1.0756  1.0276  1.1135
  457MOL0     H61662   9.734   3.616  -0.744 -2.4122 -0.2660  0.6297
  457MOL0     H61663   9.741   3.846  -0.818 -0.3588 -2.5515 -2.6497
  457MOL0     H61664   9.815   3.898  -0.664  0.4590 -2.7282  2.3033
  457MOL0     H61665   9.962   3.716  -0.858 -0.8522  1.3986 -3.0667
  457MOL0     H61666   9.991   3.726  -0.700  0.0648  0.1447  0.0315
  457MOL0     H61667  10.145   3.860  -0.806  0.2251  1.2293  3.9622
  457MOL0     H61668  10.059   3.975  -0.720  2.1083  1.4185 -1.6404
  457MOL0     H61669   9.964   3.928  -1.011  0.7095  1.0835 -0.6275
  457MOL0     H61670   9.933   4.064  -0.898  0.1768 -0.3386 -0.3494
  457MOL0     H61671  10.205   4.079  -0.895  1.8934 -0.7455 -0.7965
  457MOL0     H61672  10.108   4.155  -1.019 -1.4352  1.9086  2.7931
  457MOL0     H61673  10.130   3.989  -1.182  0.8997  0.0050 -0.3718
  457MOL0     H61674  10.278   4.049  -1.114  0.3367  0.2438  3.3073
  457MOL0     H61675   9.400   3.639  -0.466 -0.3134 -0.1744  1.8618
  457MOL0     H61676   9.210   3.668  -0.314  1.0084 -0.7116  1.0677
  457MOL0     H61677   9.048   4.054  -0.023  0.5879  0.1304 -1.7067
  457MOL0     H61678   8.884   4.152   0.110  0.1564 -1.5023  0.5307
  457MOL0     H61679   8.253   3.821   1.603  0.4085 -0.9429 -0.4121
  457MOL0     H61680   8.220   3.781   1.859 -0.3630 -0.1215  0.5949
  457MOL0     H61681   8.135   3.628   2.189  0.4418 -0.3717 -0.3409
  457MOL0     H61682   8.151   3.644   2.448 -0.9336  1.1692  0.1621
  457MOL0     H61683   8.009   3.592   2.799 -2.3919 -2.3768 -0.6241
  457MOL0     H61684   8.113   3.655   2.670 -0.6432  1.9084  2.7438
  457MOL0     H61685   8.190   3.419   2.710 -0.5535  0.3079 -0.2162
  457MOL0     H61686   8.097   3.411   2.566  0.2769 -0.5743 -0.9113
  457MOL0     H61687   7.886   3.335   2.695  0.4449 -0.3342 -0.3161
  457MOL0     H61688   7.952   3.384   2.838  2.2368 -0.7636  0.6942
  457MOL0     H61689   8.117   3.200   2.828  0.3572 -0.2201 -0.1902
  457MOL0     H61690   7.948   3.139   2.812  0.4610  0.4289  2.1721
  457MOL0     H61691   8.126   3.019   2.449  0.6862  0.0206 -0.4273
  457MOL0     H61692   7.729   3.617   2.476  2.1361 -2.7742  3.6229
  457MOL0     H61693   7.658   3.586   2.113  1.2032  1.7908 -0.6256
  457MOL0     H61694   7.576   3.596   2.264  0.9662 -0.9794  0.5275
  457MOL0     H61695   7.642   3.747   2.181  0.3113 -0.1232 -0.3476
  458MOL0     O61696   0.167   0.511   8.595 -0.2049 -0.3755 -0.2288
  458MOL0     C61697   0.101   0.490   8.494 -0.2301  0.0096 -0.1659
  458MOL0     O61698   0.137   0.405   8.395  0.6428 -0.0573 -0.0906
  458MOL0     C61699   0.244   0.330   8.414 -0.3426  0.8092 -0.3587
  458MOL0     C61700   0.358   0.361   8.339 -0.8299  0.9224 -0.0448
  458MOL0     C61701   0.479   0.295   8.377  0.3884  0.6251 -0.5783
  458MOL0     C61702   0.494   0.205   8.478 -0.0302 -0.4273  0.1432
  458MOL0     O61703   0.612   0.142   8.491 -0.1113 -0.7370 -0.7362
  458MOL0     C61704   0.622   0.008   8.546 -0.2443  0.9221  0.1243
  458MOL0     C61705   0.624  -0.116   8.456  0.7966 -0.3348  0.0738
  458MOL0     C61706   0.743  -0.120   8.372  0.0438 -0.3044  0.4256
  458MOL0     C61707   0.726  -0.239   8.278 -0.0647  0.2336 -0.4267
  458MOL0     C61708   0.857  -0.257   8.206  0.2636  0.0110  0.7624
  458MOL0     C61709   0.953  -0.342   8.300 -0.1960 -0.2189 -0.2056
  458MOL0     C61710   0.926  -0.492   8.269 -1.1491  0.8124  0.3618
  458MOL0     C61711   0.962  -0.581   8.392 -0.1151 -0.7388 -0.1674
  458MOL0     N61712   0.974  -0.722   8.347  0.8103 -0.2539 -0.7799
  458MOL0     C61713   1.079  -0.812   8.376 -0.3163  0.1934  0.5199
  458MOL0     C61714   1.030  -0.933   8.354 -0.1370 -0.4594 -0.4502
  458MOL0     C61715   1.089  -1.068   8.359  0.3688  0.3942  1.0662
  458MOL0     C61716   1.206  -1.088   8.452  0.5123 -0.7053 -0.6237
  458MOL0     C61717   1.262  -1.230   8.442  0.1961  0.5617  0.4964
  458MOL0     C61718   1.378  -1.258   8.530  0.5682  0.0124  0.9507
  458MOL0     O61719   1.355  -1.220   8.667 -1.3208  0.5499 -0.4585
  458MOL0     C61720   1.460  -1.249   8.758 -0.3314  0.0049  0.1872
  458MOL0     C61721   1.588  -1.307   8.717  0.6061 -0.9619 -0.0421
  458MOL0     C61722   1.683  -1.339   8.822  0.7261 -0.3047 -0.9029
  458MOL0     C61723   1.655  -1.309   8.955  0.6111  0.7626  0.2213
  458MOL0     C61724   1.739  -1.355   9.065  0.4082 -0.5641 -0.1808
  458MOL0     O61725   1.680  -1.355   9.190 -0.2944 -0.8451  0.3258
  458MOL0     C61726   1.746  -1.393   9.308  0.4870  0.3697 -0.2221
  458MOL0     C61727   1.768  -1.527   9.356  0.8719  1.0225  0.0090
  458MOL0     C61728   1.845  -1.563   9.471  0.0374 -0.3949 -0.0700
  458MOL0     C61729   1.880  -1.454   9.555 -0.0930  0.1682  0.3714
  458MOL0     O61730   1.964  -1.459   9.657  0.5607  0.6380 -0.1869
  458MOL0     C61731   2.019  -1.585   9.696 -0.9921 -0.1078  0.9810
  458MOL0     C61732   2.124  -1.568   9.812 -0.1201  0.0491 -0.0796
  458MOL0     C61733   2.258  -1.512   9.762  0.3526  0.6030  0.0412
  458MOL0     C61734   2.354  -1.514   9.880  0.9031  0.6565 -0.3272
  458MOL0     C61735   2.493  -1.494   9.844 -0.4341 -0.0869  0.2483
  458MOL0     C61736   2.524  -1.356   9.792 -0.4160 -0.0094 -0.0679
  458MOL0     C61737   2.679  -1.319   9.808  0.0481  0.5301 -0.3356
  458MOL0     C61738   2.699  -1.180   9.742 -0.3980 -0.5971  0.7381
  458MOL0    Cl61739   2.646  -1.054   9.857 -0.2720 -0.0220  0.0925
  458MOL0     C61740   1.854  -1.319   9.514  0.6553  0.1698  0.3798
  458MOL0     C61741   1.792  -1.291   9.393 -1.1599 -0.6611  0.3533
  458MOL0     O61742   1.854  -1.386   9.039  0.1041  0.1374 -0.5727
  458MOL0     C61743   1.534  -1.248   8.992 -0.9545  0.7678 -0.2810
  458MOL0     C61744   1.440  -1.217   8.891 -0.3063  0.7496 -0.4784
  458MOL0     N61745   0.899  -0.919   8.316  0.0588  0.2346 -0.6122
  458MOL0     N61746   0.869  -0.795   8.315 -0.3027 -0.6648  0.2054
  458MOL0     C61747   0.382   0.182   8.554  1.0698 -0.7831 -0.0919
  458MOL0     C61748   0.255   0.253   8.526  0.5934  0.6635 -0.2120
  458MOL0     C61749  -0.030   0.544   8.508  0.6504 -0.9583  0.2346
  458MOL0     C61750  -0.095   0.531   8.633 -0.8583  0.1285 -0.0956
  458MOL0     C61751  -0.213   0.579   8.650  0.4311  0.1868  0.1864
  458MOL0     C61752  -0.277   0.657   8.550 -0.6500 -0.1556  0.4571
  458MOL0     O61753  -0.392   0.738   8.566  0.8317  0.4859 -0.1208
  458MOL0     C61754  -0.379   0.830   8.673  0.3199 -0.3725 -0.4440
  458MOL0     C61755  -0.516   0.876   8.713 -0.8828 -0.2532  0.2565
  458MOL0     C61756  -0.612   0.775   8.775  0.2244  0.5022 -0.4442
  458MOL0     C61757  -0.764   0.826   8.782 -0.7885 -0.3629  0.3320
  458MOL0     C61758  -0.866   0.738   8.844 -1.5946  0.3455 -0.3101
  458MOL0     C61759  -0.958   0.683   8.903 -0.0910 -0.2443 -0.1858
  458MOL0     C61760  -0.219   0.671   8.422 -0.1529 -1.1001  0.4457
  458MOL0     C61761  -0.093   0.607   8.400 -0.4407 -0.4219  0.2104
  458MOL0     C61762  -0.029   0.636   8.270 -0.0273  0.5450 -0.3836
  458MOL0     H61763   0.336   0.436   8.263 -0.7920  1.5871  0.5926
  458MOL0     H61764   0.569   0.311   8.319 -0.4748  0.3157 -2.0849
  458MOL0     H61765   0.719   0.003   8.597 -0.7944  2.9150  1.4879
  458MOL0     H61766   0.546  -0.015   8.621 -2.8819  0.5636 -2.4733
  458MOL0     H61767   0.539  -0.132   8.389  2.5743 -2.6767 -1.8200
  458MOL0     H61768   0.613  -0.202   8.522 -0.5675 -0.2800 -0.0648
  458MOL0     H61769   0.836  -0.139   8.426  0.8798 -0.1130 -0.9068
  458MOL0     H61770   0.762  -0.032   8.311  1.1691 -1.3860 -0.8637
  458MOL0     H61771   0.701  -0.333   8.327  0.2927  1.5195  2.3757
  458MOL0     H61772   0.648  -0.223   8.203 -0.1907 -3.8618 -1.4177
  458MOL0     H61773   0.858  -0.314   8.112 -0.6240  2.0655 -0.5785
  458MOL0     H61774   0.904  -0.166   8.168  6.1797 -3.6000 -2.2060
  458MOL0     H61775   1.057  -0.319   8.273 -0.6873  1.5241 -0.7025
  458MOL0     H61776   0.947  -0.320   8.407  3.5551  0.0289  0.0864
  458MOL0     H61777   0.985  -0.506   8.178 -0.6403  1.9589  0.5094
  458MOL0     H61778   0.820  -0.513   8.254 -1.0626 -0.5830  1.3948
  458MOL0     H61779   1.048  -0.541   8.447 -2.1386  1.0528  1.9660
  458MOL0     H61780   0.885  -0.565   8.469 -1.4374  0.5232 -1.6678
  458MOL0     H61781   1.184  -0.789   8.393  0.9705 -4.9889  1.1421
  458MOL0     H61782   1.017  -1.141   8.397  0.3276 -0.9750 -1.3836
  458MOL0     H61783   1.116  -1.094   8.256  2.0659  2.0419  1.0507
  458MOL0     H61784   1.287  -1.016   8.435  0.3805  0.8309  3.7548
  458MOL0     H61785   1.165  -1.063   8.551 -0.1580 -2.8549 -0.2949
  458MOL0     H61786   1.305  -1.250   8.343  3.0712  2.2626  1.2801
  458MOL0     H61787   1.183  -1.302   8.465 -0.0534  0.5929 -0.2430
  458MOL0     H61788   1.465  -1.206   8.489  1.4718 -1.1474  1.3254
  458MOL0     H61789   1.404  -1.365   8.529 -0.3538 -0.4203 -3.8475
  458MOL0     H61790   1.600  -1.318   8.609  0.7354  1.6611 -0.3849
  458MOL0     H61791   1.783  -1.377   8.801  1.4101  1.8200 -1.7558
  458MOL0     H61792   1.726  -1.604   9.293 -0.4254 -0.2069  2.2514
  458MOL0     H61793   1.869  -1.668   9.478  0.1235 -0.4188 -0.6537
  458MOL0     H61794   1.940  -1.653   9.728 -1.8136 -0.0580 -0.8382
  458MOL0     H61795   2.077  -1.628   9.614  1.8185  0.5558  2.4872
  458MOL0     H61796   2.083  -1.501   9.888 -0.6985  2.3430 -2.2743
  458MOL0     H61797   2.144  -1.668   9.851 -1.0463 -0.4854 -0.9194
  458MOL0     H61798   2.299  -1.569   9.678 -0.3965 -1.2757  0.8915
  458MOL0     H61799   2.258  -1.406   9.733 -0.9558  0.7871  0.6289
  458MOL0     H61800   2.349  -1.607   9.936  1.8107  0.9592  0.2732
  458MOL0     H61801   2.318  -1.442   9.955 -2.0847 -1.7948  0.7902
  458MOL0     H61802   2.519  -1.567   9.767 -1.3323 -0.7155  0.5124
  458MOL0     H61803   2.557  -1.507   9.932  0.0874  1.1138  0.0574
  458MOL0     H61804   2.489  -1.348   9.689  1.5017  1.9111 -0.6361
  458MOL0     H61805   2.469  -1.280   9.849 -1.1512 -1.9197  1.8935
  458MOL0     H61806   2.746  -1.400   9.781 -1.5684 -0.6822 -0.8509
  458MOL0     H61807   2.704  -1.323   9.915  1.3325  0.9531 -0.6022
  458MOL0     H61808   2.801  -1.162   9.709  0.5743  0.3836  3.8584
  458MOL0     H61809   2.632  -1.164   9.657 -1.3677 -0.4215  1.5163
  458MOL0     H61810   1.893  -1.242   9.580  1.4419 -0.9680  1.2869
  458MOL0     H61811   1.776  -1.188   9.361  1.7173 -0.8934 -2.2570
  458MOL0     H61812   1.510  -1.227   9.096  0.1222  0.1784  0.1007
  458MOL0     H61813   1.350  -1.165   8.922 -1.3694 -1.0835 -0.3607
  458MOL0     H61814   0.380   0.106   8.632  1.4275  0.7204  1.4318
  458MOL0     H61815   0.164   0.226   8.579  1.4805  0.7561  1.3923
  458MOL0     H61816  -0.060   0.459   8.707  0.3708 -2.6632 -3.1677
  458MOL0     H61817  -0.265   0.562   8.744 -0.3754  3.0475  0.3615
  458MOL0     H61818  -0.323   0.914   8.630 -1.1905  1.3369  0.7987
  458MOL0     H61819  -0.327   0.789   8.760 -0.4811  0.8601  0.6608
  458MOL0     H61820  -0.555   0.923   8.622  2.7434 -1.8916 -2.4440
  458MOL0     H61821  -0.512   0.951   8.793  0.8214  2.2142 -1.9279
  458MOL0     H61822  -0.583   0.729   8.870 -2.7409  0.0290  0.3015
  458MOL0     H61823  -0.624   0.692   8.705  2.5022  0.7537 -1.2235
  458MOL0     H61824  -0.761   0.920   8.837  2.1020 -1.2751  1.9151
  458MOL0     H61825  -0.797   0.836   8.678  1.3452  2.2233 -0.1934
  458MOL0     H61826  -1.046   0.647   8.952  0.5001 -0.6027  0.6435
  458MOL0     H61827  -0.252   0.748   8.354 -0.1532 -1.0862  0.4615
  458MOL0     H61828   0.080   0.638   8.276 -0.1328  1.2789  3.3818
  458MOL0     H61829  -0.060   0.551   8.208 -0.3081 -0.0344  0.5378
  458MOL0     H61830  -0.065   0.732   8.231  0.9119  1.8615  1.8166
  459MOL0     O61831   6.876   8.163   2.825 -0.1286  0.3185 -0.2318
  459MOL0     C61832   6.783   8.151   2.907 -0.2146  0.5159  0.4261
  459MOL0     O61833   6.788   8.071   3.011 -0.6124  0.6664 -0.5900
  459MOL0     C61834   6.858   7.953   3.019 -0.1261 -0.5557 -0.2644
  459MOL0     C61835   6.938   7.930   3.124 -0.4991 -0.8322  0.3564
  459MOL0     C61836   6.998   7.802   3.145 -0.5376  0.5398  0.0989
  459MOL0     C61837   6.966   7.694   3.065 -0.0295 -0.7617  0.4805
  459MOL0     O61838   7.014   7.573   3.104 -0.1978 -0.1053 -0.4960
  459MOL0     C61839   6.962   7.453   3.049  0.2502  0.1337  0.9215
  459MOL0     C61840   7.010   7.428   2.908 -0.4397  0.7716 -0.5757
  459MOL0     C61841   7.164   7.406   2.891 -0.4868 -0.6101 -0.7874
  459MOL0     C61842   7.205   7.366   2.751 -0.2173  0.2127 -0.7693
  459MOL0     C61843   7.348   7.332   2.727 -0.6440 -0.0988 -0.6846
  459MOL0     C61844   7.440   7.448   2.734 -0.1211  0.0479  0.2473
  459MOL0     C61845   7.580   7.410   2.694 -0.0297  0.3780  0.5965
  459MOL0     C61846   7.679   7.524   2.715  0.5025  0.3290  0.5118
  459MOL0     N61847   7.819   7.481   2.715  0.0084  0.2904 -0.5397
  459MOL0     C61848   7.919   7.543   2.653  0.1801  0.8269  1.1302
  459MOL0     C61849   8.036   7.478   2.674 -0.6566 -0.4993  0.3479
  459MOL0     C61850   8.174   7.501   2.622  0.8980 -0.2717  0.0710
  459MOL0     C61851   8.169   7.577   2.489  0.6872  0.4296  0.1304
  459MOL0     C61852   8.298   7.588   2.418 -0.0511 -0.1108 -0.6346
  459MOL0     C61853   8.410   7.658   2.494 -0.3577 -0.1900 -0.9449
  459MOL0     O61854   8.530   7.626   2.427  0.8471  0.4414 -0.1821
  459MOL0     C61855   8.645   7.639   2.502 -0.7545 -0.4572  0.1789
  459MOL0     C61856   8.657   7.612   2.650  0.1761  0.8022 -0.6775
  459MOL0     C61857   8.784   7.599   2.705  0.2287 -0.1528 -0.3275
  459MOL0     C61858   8.899   7.620   2.635 -0.1863 -0.1010  0.3141
  459MOL0     C61859   9.023   7.612   2.705 -0.4297 -1.3775 -0.0904
  459MOL0     O61860   9.128   7.684   2.650  0.5143 -0.2657  0.3143
  459MOL0     C61861   9.255   7.675   2.689 -0.6031 -0.1950 -0.2148
  459MOL0     C61862   9.289   7.713   2.821  0.0469 -0.2489 -0.0698
  459MOL0     C61863   9.424   7.717   2.849  0.1116  0.5442 -0.4493
  459MOL0     C61864   9.526   7.672   2.753  0.8219 -0.4610  0.1779
  459MOL0     O61865   9.654   7.658   2.791  0.1355  0.6597 -0.4531
  459MOL0     C61866   9.716   7.771   2.845 -0.7700 -0.0733 -0.7920
  459MOL0     C61867   9.825   7.721   2.936 -0.8161  0.8654  0.3031
  459MOL0     C61868   9.943   7.643   2.861 -1.1391  0.2794  0.6022
  459MOL0     C61869  10.059   7.601   2.946  0.0383 -0.0273  0.4563
  459MOL0     C61870  10.093   7.714   3.053  0.2486  0.5062 -0.0636
  459MOL0     C61871  10.239   7.683   3.105  0.0004  0.0645  0.3060
  459MOL0     C61872  10.300   7.806   3.169 -0.0578  0.2745  0.4649
  459MOL0     C61873  10.449   7.802   3.167 -0.0269  0.6145 -0.0230
  459MOL0    Cl61874  10.512   7.642   3.225  0.6401 -0.1190 -0.5359
  459MOL0     C61875   9.485   7.645   2.625 -0.3973 -0.6051  0.5538
  459MOL0     C61876   9.353   7.640   2.592  1.1897  0.0415 -0.5698
  459MOL0     O61877   9.026   7.545   2.805 -0.2908 -0.2036  0.0836
  459MOL0     C61878   8.884   7.660   2.498 -0.4407  0.2186  0.2335
  459MOL0     C61879   8.761   7.668   2.430 -0.3391  0.4624 -0.2494
  459MOL0     N61880   8.001   7.370   2.741  0.5093  0.2919 -0.0492
  459MOL0     N61881   7.875   7.370   2.771 -0.4003  0.6121  0.1500
  459MOL0     C61882   6.864   7.713   2.969 -0.1152 -0.0181 -0.9966
  459MOL0     C61883   6.821   7.846   2.936  0.4336 -0.1585 -0.4454
  459MOL0     C61884   6.673   8.247   2.895  0.3374  0.3169  0.0469
  459MOL0     C61885   6.575   8.232   2.991  0.5088  0.1033 -0.0074
  459MOL0     C61886   6.475   8.320   3.015  0.9815 -0.7525 -0.4086
  459MOL0     C61887   6.457   8.427   2.924 -0.9617 -0.1359  0.4268
  459MOL0     O61888   6.376   8.539   2.935  0.1066  0.4730  0.4025
  459MOL0     C61889   6.243   8.502   2.959  0.1059 -0.2833 -0.2197
  459MOL0     C61890   6.164   8.546   2.832 -0.3115 -0.7338 -0.2756
  459MOL0     C61891   6.013   8.540   2.859 -0.2339  1.0062  0.3122
  459MOL0     C61892   5.962   8.397   2.898 -0.5246 -0.2920  0.3057
  459MOL0     C61893   5.820   8.422   2.933  0.2633 -0.0331 -0.6491
  459MOL0     C61894   5.700   8.420   2.949  0.0463 -0.2884  0.2624
  459MOL0     C61895   6.548   8.442   2.825 -0.1329  0.2960  0.8824
  459MOL0     C61896   6.662   8.359   2.798  0.3980  0.2287 -0.8066
  459MOL0     C61897   6.757   8.395   2.688  0.4058 -0.5631  0.5627
  459MOL0     H61898   6.947   8.014   3.191 -1.8561 -0.1060 -0.3279
  459MOL0     H61899   7.063   7.787   3.231 -0.7817 -2.1008 -0.1091
  459MOL0     H61900   7.000   7.372   3.112 -2.3568 -0.4549  1.8661
  459MOL0     H61901   6.855   7.459   3.026  0.8560 -1.8458 -3.5423
  459MOL0     H61902   6.992   7.514   2.843 -0.2210 -0.0287 -1.7276
  459MOL0     H61903   6.961   7.339   2.867  0.9357 -0.5428  0.5773
  459MOL0     H61904   7.204   7.328   2.957  0.9175 -0.0778 -0.9781
  459MOL0     H61905   7.217   7.499   2.916 -0.3476 -0.9808  0.3919
  459MOL0     H61906   7.150   7.273   2.733 -0.4829 -0.3156  2.1803
  459MOL0     H61907   7.169   7.441   2.681  2.1612  0.9146 -1.3457
  459MOL0     H61908   7.377   7.259   2.802 -1.2925  1.4330  1.1431
  459MOL0     H61909   7.369   7.294   2.627  1.1210  2.4733 -1.4227
  459MOL0     H61910   7.405   7.526   2.667  2.9157  3.1636  1.9368
  459MOL0     H61911   7.437   7.497   2.832 -2.4642 -1.4133  0.9990
  459MOL0     H61912   7.585   7.372   2.591  3.0740 -0.6164  1.0226
  459MOL0     H61913   7.607   7.322   2.753  0.3672 -1.0861 -1.6510
  459MOL0     H61914   7.664   7.599   2.637  2.0398 -0.9229 -1.0623
  459MOL0     H61915   7.650   7.576   2.807 -1.7588 -0.9116  0.5910
  459MOL0     H61916   7.903   7.637   2.601 -3.6170  0.9857  2.2720
  459MOL0     H61917   8.241   7.552   2.692  2.5227  0.4803 -1.9279
  459MOL0     H61918   8.215   7.401   2.607 -1.6258 -1.4835  0.6170
  459MOL0     H61919   8.092   7.546   2.417 -3.0951  2.9158  2.7089
  459MOL0     H61920   8.126   7.674   2.515 -0.4685 -0.8287  3.4539
  459MOL0     H61921   8.294   7.631   2.317  0.0899 -0.2571 -0.7032
  459MOL0     H61922   8.333   7.485   2.410  2.3786  0.7348 -2.3431
  459MOL0     H61923   8.404   7.630   2.600 -2.8972 -1.2373 -1.3138
  459MOL0     H61924   8.392   7.765   2.486  2.7013  0.9294  3.2252
  459MOL0     H61925   8.580   7.587   2.723 -0.6538 -1.5211 -2.1997
  459MOL0     H61926   8.791   7.584   2.812  0.9890  1.1708 -0.1818
  459MOL0     H61927   9.207   7.733   2.890 -1.0167  2.6422 -1.9856
  459MOL0     H61928   9.456   7.753   2.946  0.6151 -0.4768 -0.2252
  459MOL0     H61929   9.753   7.840   2.768 -2.5178  2.2477  0.3268
  459MOL0     H61930   9.651   7.831   2.909 -2.6153 -0.9944 -1.7500
  459MOL0     H61931   9.860   7.808   2.991  1.8063  0.0025  0.1065
  459MOL0     H61932   9.792   7.651   3.013 -0.1878  0.5841  0.3239
  459MOL0     H61933   9.909   7.550   2.814 -0.9779 -0.5559  2.0828
  459MOL0     H61934   9.986   7.702   2.779  2.2301 -0.3222  1.7586
  459MOL0     H61935  10.147   7.582   2.883  1.1014 -1.0485  2.1576
  459MOL0     H61936  10.027   7.510   2.998  0.4097 -0.2601  0.2842
  459MOL0     H61937  10.025   7.719   3.139 -0.4093  1.9069 -0.6379
  459MOL0     H61938  10.100   7.811   3.003 -2.1263 -0.3465 -2.2436
  459MOL0     H61939  10.244   7.594   3.169 -1.1531 -0.2323  0.0111
  459MOL0     H61940  10.295   7.658   3.014  0.5839  0.0271  0.6767
  459MOL0     H61941  10.275   7.818   3.275  0.1504 -0.9296  0.6560
  459MOL0     H61942  10.273   7.899   3.118 -2.5248 -1.4117 -1.5254
  459MOL0     H61943  10.469   7.807   3.059  1.1006  2.1426  0.2076
  459MOL0     H61944  10.502   7.888   3.211  2.7891  0.2293 -2.3440
  459MOL0     H61945   9.566   7.627   2.555  2.3231 -3.3628  4.0159
  459MOL0     H61946   9.315   7.653   2.491 -1.0552  1.6965  0.4229
  459MOL0     H61947   8.972   7.674   2.435 -0.1817 -2.3990 -0.0848
  459MOL0     H61948   8.753   7.697   2.326 -2.7847  0.0051 -0.2330
  459MOL0     H61949   6.819   7.629   2.918 -0.5482 -1.1886  1.1649
  459MOL0     H61950   6.741   7.862   2.864  0.2608  2.5213  0.2103
  459MOL0     H61951   6.571   8.139   3.048 -0.8830  0.5194  0.6244
  459MOL0     H61952   6.410   8.298   3.099 -3.5919  0.3816 -3.2677
  459MOL0     H61953   6.217   8.569   3.042  1.7294 -0.4403  0.4510
  459MOL0     H61954   6.224   8.398   2.988 -0.2087 -0.8568 -2.3400
  459MOL0     H61955   6.192   8.468   2.761 -2.7246 -3.6022  1.7082
  459MOL0     H61956   6.194   8.645   2.796 -2.2663 -0.1912 -0.5185
  459MOL0     H61957   5.980   8.571   2.759  0.3375 -0.0193 -0.2177
  459MOL0     H61958   5.975   8.616   2.927  0.0333  0.2706  1.3083
  459MOL0     H61959   5.984   8.323   2.820 -0.4601  2.4993 -2.5135
  459MOL0     H61960   6.013   8.358   2.987  0.3651 -0.2015 -0.1533
  459MOL0     H61961   5.596   8.418   2.973  0.0207 -2.2659  0.1296
  459MOL0     H61962   6.524   8.526   2.761  0.4082  1.5200  2.2328
  459MOL0     H61963   6.779   8.308   2.625  1.4228  1.4131 -1.9430
  459MOL0     H61964   6.714   8.465   2.616  0.5438 -3.7853 -2.9768
  459MOL0     H61965   6.843   8.438   2.740 -0.1933  1.0413  0.2802
  460MOL0     O61966   5.267   3.871   9.652  0.0565  0.8755 -0.3209
  460MOL0     C61967   5.272   3.779   9.570 -0.1433 -0.0656 -0.1459
  460MOL0     O61968   5.377   3.693   9.561  0.2710 -0.4980  0.4107
  460MOL0     C61969   5.502   3.734   9.594 -0.9053 -0.2962  0.1355
  460MOL0     C61970   5.538   3.698   9.722  0.4534  1.1106  0.0114
  460MOL0     C61971   5.664   3.738   9.775  0.6739  0.3330 -0.3516
  460MOL0     C61972   5.755   3.812   9.699  0.0669 -0.5557 -0.5485
  460MOL0     O61973   5.861   3.853   9.771  0.0342 -0.3526  0.2365
  460MOL0     C61974   5.977   3.905   9.698  0.7785 -0.0342  0.5542
  460MOL0     C61975   6.089   3.949   9.796 -0.3696 -0.1875 -0.9417
  460MOL0     C61976   6.080   4.092   9.847 -0.2672 -0.0559  0.1856
  460MOL0     C61977   6.194   4.129   9.956 -0.3943  0.9056  0.7024
  460MOL0     C61978   6.338   4.141   9.883  0.3770  0.0669 -0.6375
  460MOL0     C61979   6.431   4.224   9.966 -0.2230 -0.6258  0.4091
  460MOL0     C61980   6.552   4.266   9.879 -0.3038  0.0091  0.0202
  460MOL0     C61981   6.660   4.332   9.957 -0.6056 -0.0876  0.1348
  460MOL0     N61982   6.627   4.472   9.990 -0.2507  0.2959  0.4319
  460MOL0     C61983   6.715   4.547  10.061  0.0135 -0.1113  0.0308
  460MOL0     C61984   6.660   4.671  10.052 -0.2159 -0.3122 -0.3474
  460MOL0     C61985   6.725   4.793  10.093  0.9748  0.0778  0.6871
  460MOL0     C61986   6.850   4.842  10.018 -0.8897  0.1056  0.0731
  460MOL0     C61987   6.906   4.976  10.083 -0.1395 -0.7187 -0.3880
  460MOL0     C61988   7.061   5.001  10.051  0.4185 -0.6518  0.5228
  460MOL0     O61989   7.137   4.925  10.143  0.7188  0.0954  0.1403
  460MOL0     C61990   7.269   4.941  10.137 -0.8312 -0.3819 -0.0873
  460MOL0     C61991   7.338   4.885  10.252 -0.4945 -0.1198  0.2501
  460MOL0     C61992   7.475   4.904  10.273 -0.5672 -0.0181 -0.8392
  460MOL0     C61993   7.556   4.978  10.182  0.0116 -0.6905 -0.4943
  460MOL0     C61994   7.698   5.012  10.201  0.1982 -0.5360 -0.4293
  460MOL0     O61995   7.751   5.003  10.320  0.1220  0.2579 -0.5717
  460MOL0     C61996   7.884   5.049  10.342  0.2574 -0.2614  0.3833
  460MOL0     C61997   7.919   5.124  10.460 -0.6884  0.3033  0.1263
  460MOL0     C61998   8.050   5.149  10.499 -1.4395  0.0178 -0.8987
  460MOL0     C61999   8.160   5.105  10.421  0.2351  0.0769  0.1620
  460MOL0     O62000   8.291   5.124  10.472 -0.1942 -0.6452  0.3996
  460MOL0     C62001   8.410   5.074  10.404  0.8530 -0.4629 -0.2766
  460MOL0     C62002   8.534   5.087  10.498  0.2379 -0.2150  0.7735
  460MOL0     C62003   8.565   5.232  10.535  0.1173  0.5228  0.0396
  460MOL0     C62004   8.709   5.248  10.586 -0.8853 -0.1185 -0.1768
  460MOL0     C62005   8.760   5.385  10.580  0.3978 -0.4035  0.1870
  460MOL0     C62006   8.687   5.489  10.670  0.6549 -1.0716  0.2865
  460MOL0     C62007   8.759   5.624  10.652  0.2745 -0.8478  0.1985
  460MOL0     C62008   8.803   5.698  10.776 -0.2884 -0.1065  0.3112
  460MOL0    Cl62009   8.861   5.853  10.715 -0.1484 -0.3350  0.3107
  460MOL0     C62010   8.124   5.031  10.307 -0.1852  0.0319 -0.2020
  460MOL0     C62011   7.992   4.995  10.268  0.7598 -1.0151 -0.1772
  460MOL0     O62012   7.754   5.064  10.100  0.6588  0.0928  0.5994
  460MOL0     C62013   7.482   5.035  10.071 -0.7796 -0.5579 -0.1785
  460MOL0     C62014   7.348   5.014  10.043  0.2521 -0.3837  0.1809
  460MOL0     N62015   6.555   4.663   9.969 -0.2636  0.2129  0.8936
  460MOL0     N62016   6.535   4.546   9.928 -0.7129 -0.8926  0.0316
  460MOL0     C62017   5.724   3.838   9.561 -0.1700 -0.2038 -0.1026
  460MOL0     C62018   5.598   3.795   9.507  0.1380 -0.5518  0.2002
  460MOL0     C62019   5.149   3.729   9.517 -0.1249  0.5999 -0.3225
  460MOL0     C62020   5.117   3.754   9.380  0.6938  0.2043 -0.5727
  460MOL0     C62021   4.993   3.702   9.320 -1.0358  0.0433 -0.7578
  460MOL0     C62022   4.892   3.648   9.399 -1.4702 -0.3678  0.4966
  460MOL0     O62023   4.767   3.622   9.354 -0.0021 -0.2308 -0.9182
  460MOL0     C62024   4.716   3.692   9.238 -0.1480  0.7165  0.3464
  460MOL0     C62025   4.694   3.847   9.264 -0.2223 -0.1633  0.5134
  460MOL0     C62026   4.602   3.869   9.383  0.1176  0.5351  0.2290
  460MOL0     C62027   4.498   3.990   9.374 -0.3768  0.1382  0.0519
  460MOL0     C62028   4.575   4.114   9.385  0.1275  0.2196 -0.7862
  460MOL0     C62029   4.647   4.214   9.377 -0.0165  0.5336 -0.3676
  460MOL0     C62030   4.930   3.625   9.533 -0.3558  0.5009  0.3410
  460MOL0     C62031   5.052   3.657   9.595 -0.4648  0.8831 -0.3866
  460MOL0     C62032   5.066   3.622   9.736 -0.1613 -0.2359 -0.0781
  460MOL0     H62033   5.470   3.652   9.793 -0.3266 -0.5407 -1.7020
  460MOL0     H62034   5.691   3.716   9.878  0.2606 -1.9017 -0.6812
  460MOL0     H62035   6.017   3.831   9.628  2.0898  2.1567 -1.1771
  460MOL0     H62036   5.941   3.995   9.648 -0.6315 -1.2664 -0.7359
  460MOL0     H62037   6.176   3.927   9.734  1.5870 -1.2840  1.9572
  460MOL0     H62038   6.093   3.879   9.880  2.4169  1.2225  0.2228
  460MOL0     H62039   5.988   4.112   9.903 -1.4106 -0.7748 -1.3525
  460MOL0     H62040   6.091   4.147   9.753  2.7247  1.7856  1.4408
  460MOL0     H62041   6.164   4.225  10.000 -1.5932 -0.1994  2.4228
  460MOL0     H62042   6.199   4.055  10.036 -2.4369  0.9326  0.9179
  460MOL0     H62043   6.396   4.051   9.859 -0.7725 -0.8068 -0.2132
  460MOL0     H62044   6.312   4.204   9.798 -3.1073  1.0904  1.0196
  460MOL0     H62045   6.381   4.312  10.008 -1.1041 -0.5267 -0.7688
  460MOL0     H62046   6.472   4.156  10.040  1.3082 -1.2716 -0.9720
  460MOL0     H62047   6.530   4.320   9.786 -0.7806 -0.4225 -0.1256
  460MOL0     H62048   6.597   4.171   9.848 -0.3989  0.1018 -0.4172
  460MOL0     H62049   6.690   4.273  10.044  0.0518 -1.4147 -0.9491
  460MOL0     H62050   6.745   4.328   9.887 -0.4165  4.5407 -0.2164
  460MOL0     H62051   6.795   4.508  10.123 -0.7096 -1.3878  0.1821
  460MOL0     H62052   6.650   4.873  10.084  0.1774 -0.7776 -0.6587
  460MOL0     H62053   6.749   4.788  10.199 -1.7579  0.3918  1.4092
  460MOL0     H62054   6.919   4.757  10.019 -1.9124 -0.7600 -0.4042
  460MOL0     H62055   6.829   4.854   9.911  2.1943 -1.1283 -0.7752
  460MOL0     H62056   6.896   4.975  10.191  3.1559  0.1084  0.0440
  460MOL0     H62057   6.858   5.069  10.050  3.8481  1.9680  0.6346
  460MOL0     H62058   7.080   5.109  10.058  1.2566 -0.5278 -2.3725
  460MOL0     H62059   7.088   4.961   9.953 -0.5890 -2.2098  0.8335
  460MOL0     H62060   7.271   4.849  10.329 -3.3281  0.8740 -1.6131
  460MOL0     H62061   7.511   4.855  10.363 -3.6942 -2.5200 -0.7836
  460MOL0     H62062   7.831   5.156  10.514 -0.4770 -0.6107  1.0409
  460MOL0     H62063   8.073   5.200  10.592  0.0338  0.9396 -1.7238
  460MOL0     H62064   8.395   4.970  10.373  0.2228 -0.1869 -0.9380
  460MOL0     H62065   8.432   5.126  10.310  2.4585 -0.7602 -0.0976
  460MOL0     H62066   8.513   5.041  10.595  0.6516  2.2649  2.1365
  460MOL0     H62067   8.624   5.055  10.444  2.1653  4.1314  0.9347
  460MOL0     H62068   8.550   5.312  10.461  3.1266  2.0068  0.8644
  460MOL0     H62069   8.497   5.259  10.616 -0.9086 -2.7778  0.4317
  460MOL0     H62070   8.779   5.181  10.535 -1.1811 -1.0717  0.6464
  460MOL0     H62071   8.723   5.216  10.689  1.8074 -1.2361 -0.7943
  460MOL0     H62072   8.758   5.417  10.476 -0.6053 -1.5188 -0.1641
  460MOL0     H62073   8.869   5.374  10.584  0.3371 -1.2616 -0.1264
  460MOL0     H62074   8.582   5.496  10.640  0.5114 -1.4633  0.6751
  460MOL0     H62075   8.689   5.459  10.775  2.5040  2.1527  1.3175
  460MOL0     H62076   8.699   5.700  10.602  1.4112 -0.3674 -0.4754
  460MOL0     H62077   8.853   5.598  10.602 -0.0604 -0.3621 -0.7072
  460MOL0     H62078   8.713   5.724  10.832 -1.0461 -1.1502 -0.3875
  460MOL0     H62079   8.874   5.642  10.838 -0.6613 -0.3665  0.5074
  460MOL0     H62080   8.198   4.992  10.238 -0.0279 -2.9688  1.5333
  460MOL0     H62081   7.983   4.931  10.181 -0.0658  1.4034 -1.9796
  460MOL0     H62082   7.539   5.109  10.016 -0.6636 -0.5268 -0.0180
  460MOL0     H62083   7.319   5.071   9.955  1.3591 -0.1164 -0.0214
  460MOL0     H62084   5.788   3.905   9.504  0.4587  0.7211  1.6314
  460MOL0     H62085   5.568   3.822   9.406 -1.0406 -0.1669  0.6363
  460MOL0     H62086   5.185   3.811   9.318  3.3465 -0.2038  1.7769
  460MOL0     H62087   4.981   3.743   9.220  1.1577  2.6198 -0.0944
  460MOL0     H62088   4.618   3.648   9.218 -0.0736  1.6103 -2.4337
  460MOL0     H62089   4.781   3.683   9.150 -2.3714  0.2157 -1.3607
  460MOL0     H62090   4.641   3.891   9.179  0.1798 -0.9400 -0.1514
  460MOL0     H62091   4.788   3.900   9.280  0.2746 -1.5358  2.6038
  460MOL0     H62092   4.666   3.879   9.471  0.1680 -3.2482  0.7914
  460MOL0     H62093   4.547   3.775   9.396 -0.3953  0.9866  1.5517
  460MOL0     H62094   4.444   3.990   9.279  1.4782  1.6919 -1.0614
  460MOL0     H62095   4.423   3.985   9.454 -3.7541  2.3005 -2.6791
  460MOL0     H62096   4.705   4.299   9.348  0.3716  0.1414 -0.7586
  460MOL0     H62097   4.858   3.583   9.603  1.5077  0.6760  2.4635
  460MOL0     H62098   5.168   3.635   9.774 -0.0923 -2.5893  0.6956
  460MOL0     H62099   5.005   3.696   9.790 -3.4102 -2.1837 -0.7901
  460MOL0     H62100   5.016   3.527   9.758 -1.7899  0.8127  1.0178
  461MOL0     O62101   2.057   7.469   7.275  0.9149 -0.4620 -0.3019
  461MOL0     C62102   2.029   7.533   7.377  0.4475  0.0732 -0.3754
  461MOL0     O62103   2.107   7.545   7.491 -0.2088  0.4413  0.0722
  461MOL0     C62104   2.217   7.462   7.514 -0.3275 -0.2919 -0.3334
  461MOL0     C62105   2.239   7.331   7.456 -0.6916  0.2532 -0.2361
  461MOL0     C62106   2.356   7.256   7.486  0.0138  1.1365 -1.1314
  461MOL0     C62107   2.459   7.322   7.555 -0.1552  0.6009 -0.4337
  461MOL0     O62108   2.574   7.248   7.562 -0.3171 -0.1794 -0.1081
  461MOL0     C62109   2.686   7.306   7.630 -0.1167 -0.0789 -0.8229
  461MOL0     C62110   2.802   7.215   7.621 -0.1656  0.2240 -0.1212
  461MOL0     C62111   2.909   7.232   7.728 -0.3964 -0.7180  0.1295
  461MOL0     C62112   3.021   7.121   7.713  0.8967 -0.6258  0.3492
  461MOL0     C62113   3.089   7.105   7.849 -0.1495 -0.0284 -0.6434
  461MOL0     C62114   3.217   7.031   7.828 -0.0326  0.0641  0.2127
  461MOL0     C62115   3.295   7.041   7.953  0.6170  0.4524  0.6514
  461MOL0     C62116   3.422   6.950   7.942  0.3391  0.6359  0.3271
  461MOL0     N62117   3.487   6.927   8.074  0.0444 -0.6551 -0.3357
  461MOL0     C62118   3.500   7.014   8.180 -0.0286  0.6489  1.0180
  461MOL0     C62119   3.607   6.962   8.245 -0.0998  0.4945  0.3053
  461MOL0     C62120   3.650   7.020   8.381 -0.4026 -0.0811 -0.0727
  461MOL0     C62121   3.771   7.112   8.366  0.1912 -0.5845 -0.5583
  461MOL0     C62122   3.865   7.094   8.251  0.1496 -0.4316  0.0524
  461MOL0     C62123   3.960   7.217   8.236  0.1399  0.3994 -0.5438
  461MOL0     O62124   3.993   7.276   8.363  0.0125 -0.0102  0.3565
  461MOL0     C62125   4.084   7.384   8.375 -0.1814 -0.0872  0.0437
  461MOL0     C62126   4.092   7.459   8.497  0.2377  0.1065  0.6749
  461MOL0     C62127   4.177   7.565   8.516 -0.0550  0.3625  0.7600
  461MOL0     C62128   4.259   7.605   8.409 -0.5561  0.7225 -0.4653
  461MOL0     C62129   4.347   7.717   8.426 -0.0860 -0.5834 -0.3622
  461MOL0     O62130   4.452   7.733   8.333 -0.3411 -0.3782  0.5048
  461MOL0     C62131   4.535   7.834   8.334  0.4888 -0.7525 -0.8418
  461MOL0     C62132   4.535   7.959   8.412  0.3840  0.6160 -0.1528
  461MOL0     C62133   4.631   8.056   8.406  0.0248  0.1122  0.1566
  461MOL0     C62134   4.731   8.038   8.315 -0.9627  0.3199 -0.4534
  461MOL0     O62135   4.822   8.143   8.321  0.4226 -0.1561  0.0900
  461MOL0     C62136   4.955   8.141   8.269 -0.1038 -0.6205  0.0168
  461MOL0     C62137   5.013   8.280   8.272  0.3364  0.0039 -0.3008
  461MOL0     C62138   5.156   8.284   8.209  0.6984 -0.9658 -0.3509
  461MOL0     C62139   5.160   8.238   8.062 -0.3900 -0.2165  0.4531
  461MOL0     C62140   5.295   8.265   7.992 -0.8437 -0.0787  0.0647
  461MOL0     C62141   5.287   8.222   7.844 -0.7368  0.2855  0.9976
  461MOL0     C62142   5.424   8.210   7.780  0.4234 -0.7216 -0.1614
  461MOL0     C62143   5.397   8.158   7.640  0.0948  0.0318  0.2378
  461MOL0    Cl62144   5.548   8.110   7.551  0.0179 -0.0173 -0.4259
  461MOL0     C62145   4.738   7.917   8.240  0.1175 -0.5553  0.0082
  461MOL0     C62146   4.639   7.821   8.253  0.4351 -0.6229  0.6676
  461MOL0     O62147   4.322   7.790   8.520 -0.3119  1.0551 -0.1684
  461MOL0     C62148   4.244   7.539   8.288 -1.1397  0.4307 -0.1376
  461MOL0     C62149   4.156   7.433   8.271  0.7491  0.2966  0.4347
  461MOL0     N62150   3.648   6.850   8.181  0.5072 -0.0757 -0.1701
  461MOL0     N62151   3.568   6.819   8.092  0.8986  0.4249 -0.2204
  461MOL0     C62152   2.445   7.451   7.614  0.1518  1.1156 -0.1468
  461MOL0     C62153   2.317   7.511   7.594 -0.7397 -0.1358 -0.8977
  461MOL0     C62154   1.907   7.616   7.370  0.3096 -1.0748 -0.2355
  461MOL0     C62155   1.907   7.748   7.426  0.0167 -1.0852 -0.4867
  461MOL0     C62156   1.797   7.828   7.420  0.2260 -0.0732 -0.5066
  461MOL0     C62157   1.680   7.786   7.357 -0.2377  0.6201 -0.6552
  461MOL0     O62158   1.575   7.877   7.357 -0.6425 -0.0590 -0.1778
  461MOL0     C62159   1.468   7.841   7.448  0.5560  0.3702  0.1336
  461MOL0     C62160   1.330   7.903   7.424  0.3608  0.3861 -0.0620
  461MOL0     C62161   1.294   7.887   7.278  0.1272  0.7980 -0.5243
  461MOL0     C62162   1.173   7.965   7.239  0.4664  0.9957  1.1751
  461MOL0     C62163   1.056   7.916   7.302  0.0622  1.5397 -0.3024
  461MOL0     C62164   0.938   7.876   7.333 -0.4209  0.1179  0.3277
  461MOL0     C62165   1.673   7.659   7.302  0.4095 -0.3286 -0.3471
  461MOL0     C62166   1.778   7.569   7.317 -1.1732  0.4802 -0.4519
  461MOL0     C62167   1.759   7.421   7.268 -0.2357 -0.4506 -0.1903
  461MOL0     H62168   2.159   7.280   7.403 -1.0674 -0.9215  1.3625
  461MOL0     H62169   2.366   7.150   7.464  0.0730  0.9382 -0.2044
  461MOL0     H62170   2.709   7.405   7.589 -3.0986  1.9016  1.8274
  461MOL0     H62171   2.649   7.324   7.731 -0.2710 -1.4138 -0.6289
  461MOL0     H62172   2.845   7.231   7.522 -2.2106  1.7576 -0.8157
  461MOL0     H62173   2.765   7.112   7.614  1.0530 -0.3020  0.8673
  461MOL0     H62174   2.868   7.212   7.828 -1.6240 -3.3212 -0.7964
  461MOL0     H62175   2.952   7.332   7.737 -3.5500  0.7350  0.4721
  461MOL0     H62176   2.990   7.028   7.665  0.8090  0.5294 -1.9780
  461MOL0     H62177   3.082   7.172   7.637  1.8772 -3.1560 -0.6565
  461MOL0     H62178   3.119   7.198   7.899 -2.2412 -2.0777  5.3628
  461MOL0     H62179   3.022   7.054   7.918  2.2932  0.0129  1.9208
  461MOL0     H62180   3.189   6.927   7.815 -0.1467  0.1651 -0.3627
  461MOL0     H62181   3.279   7.074   7.748  2.0796 -1.6124  0.8451
  461MOL0     H62182   3.241   6.995   8.035 -0.4536  0.4350 -0.0390
  461MOL0     H62183   3.316   7.146   7.976 -1.6224  1.2799 -0.6793
  461MOL0     H62184   3.391   6.855   7.898  1.2648  0.6005 -0.2764
  461MOL0     H62185   3.499   6.993   7.877  0.4757  1.3216  0.9242
  461MOL0     H62186   3.440   7.102   8.199  1.0170  1.6132  0.0140
  461MOL0     H62187   3.568   7.074   8.430 -0.9687 -0.1358 -0.9312
  461MOL0     H62188   3.659   6.946   8.461 -1.8577  0.5968  0.7648
  461MOL0     H62189   3.731   7.214   8.365  0.7948 -0.3125  0.4891
  461MOL0     H62190   3.821   7.103   8.463 -1.7430  3.2206  1.0245
  461MOL0     H62191   3.808   7.089   8.157 -0.7868 -0.3912  0.6066
  461MOL0     H62192   3.930   7.007   8.264  2.3729  1.1906  0.5472
  461MOL0     H62193   3.915   7.296   8.174  0.9261  1.2961  0.0061
  461MOL0     H62194   4.044   7.184   8.174 -2.4560 -2.1485 -3.0230
  461MOL0     H62195   4.032   7.413   8.576 -0.9499 -1.2714 -0.9476
  461MOL0     H62196   4.184   7.602   8.618 -0.9198  0.6816  0.7129
  461MOL0     H62197   4.443   7.980   8.465 -0.1073  0.4263 -0.9035
  461MOL0     H62198   4.628   8.141   8.473  2.6945  1.3440 -1.1310
  461MOL0     H62199   5.013   8.068   8.327 -1.8643 -1.1460  1.2141
  461MOL0     H62200   4.944   8.103   8.167 -0.4638  0.2495 -0.2778
  461MOL0     H62201   4.956   8.345   8.205 -0.0906  1.6746  1.5811
  461MOL0     H62202   5.014   8.337   8.366 -1.4885  1.7511 -1.2545
  461MOL0     H62203   5.198   8.385   8.208  0.0106 -0.6064  1.6338
  461MOL0     H62204   5.227   8.230   8.272  1.2412  0.9978  0.8094
  461MOL0     H62205   5.085   8.291   8.003 -0.0600  0.1255  0.3371
  461MOL0     H62206   5.137   8.131   8.065  1.6898 -0.7206  0.2436
  461MOL0     H62207   5.367   8.201   8.045  1.6889  0.7216 -2.2274
  461MOL0     H62208   5.331   8.367   8.005 -1.5050  0.6051 -2.8743
  461MOL0     H62209   5.249   8.119   7.833 -1.2626  0.5674  0.0728
  461MOL0     H62210   5.222   8.288   7.786  1.2961  1.9931  0.5899
  461MOL0     H62211   5.472   8.137   7.845  1.6108  0.5121  0.4002
  461MOL0     H62212   5.468   8.310   7.776 -0.5048 -0.2917  0.0518
  461MOL0     H62213   5.338   8.066   7.647  0.1705  0.0803  1.8714
  461MOL0     H62214   5.339   8.218   7.569 -1.2782 -2.8276 -1.2373
  461MOL0     H62215   4.818   7.907   8.167 -2.1396 -1.5528 -2.4731
  461MOL0     H62216   4.658   7.730   8.197  1.5770 -0.5804  0.9462
  461MOL0     H62217   4.300   7.544   8.195 -2.3299 -0.3923 -0.9305
  461MOL0     H62218   4.156   7.393   8.170 -0.0392  1.8591 -0.2089
  461MOL0     H62219   2.530   7.488   7.669  0.6950  1.8973 -1.4545
  461MOL0     H62220   2.304   7.610   7.636  0.6376  0.1317 -1.0798
  461MOL0     H62221   1.997   7.796   7.463 -1.9222  2.2713  0.2374
  461MOL0     H62222   1.798   7.927   7.464  0.8852 -0.6807  0.9004
  461MOL0     H62223   1.497   7.867   7.550  0.1524  2.9523 -0.3289
  461MOL0     H62224   1.462   7.732   7.447  3.8102  0.0898 -0.6624
  461MOL0     H62225   1.327   8.012   7.437 -1.9612  0.3982 -0.3055
  461MOL0     H62226   1.251   7.849   7.478  0.5052 -0.4382 -0.6650
  461MOL0     H62227   1.285   7.782   7.250 -0.6066  1.1195 -1.5070
  461MOL0     H62228   1.372   7.923   7.211 -0.4475  0.3039 -1.4635
  461MOL0     H62229   1.187   8.073   7.255  0.3696  1.1871  0.0371
  461MOL0     H62230   1.157   7.959   7.131 -1.5560  3.4602  1.2468
  461MOL0     H62231   0.838   7.845   7.354 -0.2129 -1.2738 -0.6732
  461MOL0     H62232   1.578   7.631   7.258  0.5591 -1.6825  0.1401
  461MOL0     H62233   1.653   7.401   7.250 -0.9375  2.1412  0.5834
  461MOL0     H62234   1.806   7.396   7.172  3.0857 -3.6619  1.9905
  461MOL0     H62235   1.793   7.351   7.345 -0.6787 -3.3257 -2.4640
  462MOL0     O62236  10.382  11.094   9.498 -0.3840 -0.7431 -0.6375
  462MOL0     C62237  10.319  11.127   9.601  0.0843 -0.4629  0.0301
  462MOL0     O62238  10.377  11.147   9.719 -0.1871  0.1013 -0.3659
  462MOL0     C62239  10.507  11.108   9.768 -0.3227 -0.1696  0.0373
  462MOL0     C62240  10.607  11.026   9.706  0.1976  0.1590 -0.1092
  462MOL0     C62241  10.742  11.019   9.764 -0.6111 -0.7377  0.1380
  462MOL0     C62242  10.773  11.101   9.873 -0.2234 -0.6461 -0.2263
  462MOL0     O62243  10.893  11.123   9.934 -1.0165  0.1583  0.4024
  462MOL0     C62244  11.010  11.097   9.844 -0.2531 -0.8755 -0.0460
  462MOL0     C62245  11.142  11.134   9.924  0.5749 -0.4163  0.5098
  462MOL0     C62246  11.265  11.078   9.848  0.5356  0.7699  0.0608
  462MOL0     C62247  11.398  11.095   9.928  0.3160  0.4282  0.6980
  462MOL0     C62248  11.513  11.059   9.830 -0.1624 -0.6458  0.1941
  462MOL0     C62249  11.653  11.055   9.893 -0.1714 -0.3884 -0.1736
  462MOL0     C62250  11.752  10.974   9.806 -0.3873  0.0815 -0.3037
  462MOL0     C62251  11.899  10.973   9.838 -0.6510  0.3639 -0.8495
  462MOL0     N62252  11.934  11.108   9.877  0.4502 -0.0188  1.1944
  462MOL0     C62253  12.012  11.190   9.795 -0.0481  0.6483  0.6194
  462MOL0     C62254  12.027  11.299   9.868  0.1114 -0.7885 -0.4589
  462MOL0     C62255  12.110  11.422   9.831 -0.0754 -0.2559 -0.2191
  462MOL0     C62256  12.239  11.414   9.918  0.4788  0.1497 -0.1204
  462MOL0     C62257  12.334  11.529   9.870 -0.0229 -0.3390 -0.5476
  462MOL0     C62258  12.460  11.538   9.961  0.1245  1.0509 -0.0259
  462MOL0     O62259  12.552  11.626   9.911 -0.9531  0.2631  0.2557
  462MOL0     C62260  12.666  11.623   9.977 -0.4522 -0.5749  0.0252
  462MOL0     C62261  12.780  11.555   9.923  0.8114 -0.3463  0.5054
  462MOL0     C62262  12.913  11.564   9.974  0.1926 -0.5199 -0.1227
  462MOL0     C62263  12.926  11.628  10.098  0.2174 -0.0666 -1.0212
  462MOL0     C62264  13.057  11.652  10.154 -0.1449  0.3484  0.1097
  462MOL0     O62265  13.165  11.618  10.080  0.3708 -0.4055 -0.2880
  462MOL0     C62266  13.289  11.617  10.138  0.0241 -1.4247  0.0809
  462MOL0     C62267  13.326  11.524  10.235  0.1998  0.4067 -0.0054
  462MOL0     C62268  13.461  11.522  10.270  0.6311  0.4350 -0.2738
  462MOL0     C62269  13.555  11.593  10.205 -0.4728 -0.1773 -0.5408
  462MOL0     O62270  13.679  11.561  10.242  0.0336  0.4704 -0.8693
  462MOL0     C62271  13.785  11.659  10.246  0.6429  1.3380 -0.2133
  462MOL0     C62272  13.900  11.607  10.320  0.3936  0.0034  0.5143
  462MOL0     C62273  14.020  11.692  10.286 -0.5010 -0.0962  0.2460
  462MOL0     C62274  14.114  11.687  10.408 -0.4445 -0.7308  0.4727
  462MOL0     C62275  14.202  11.815  10.403 -0.7772 -0.0667 -0.2217
  462MOL0     C62276  14.284  11.845  10.535 -0.1820 -0.1911  0.2957
  462MOL0     C62277  14.348  11.987  10.534 -0.1487 -0.5007 -0.2204
  462MOL0     C62278  14.404  12.001  10.676 -0.2379  0.2911 -1.2931
  462MOL0    Cl62279  14.473  12.164  10.705 -0.1477 -0.0845 -0.0479
  462MOL0     C62280  13.520  11.682  10.110  0.4264 -0.4766  0.3152
  462MOL0     C62281  13.387  11.691  10.079  0.6898 -0.3848  0.6015
  462MOL0     O62282  13.066  11.711  10.266 -0.0553 -0.2878  0.5794
  462MOL0     C62283  12.807  11.687  10.164  0.1513 -0.7300  0.1580
  462MOL0     C62284  12.679  11.682  10.106  0.5432 -0.5979 -0.0558
  462MOL0     N62285  11.965  11.286   9.991  0.1247 -0.1983 -0.5038
  462MOL0     N62286  11.915  11.170   9.996 -0.3312  0.8320 -0.5030
  462MOL0     C62287  10.673  11.176   9.934  0.2268  0.4786  0.4140
  462MOL0     C62288  10.543  11.182   9.887  0.6006 -0.3107 -0.5646
  462MOL0     C62289  10.167  11.150   9.591  0.2819 -0.1372 -0.5777
  462MOL0     C62290  10.104  11.177   9.719 -0.6316  0.2480  0.5898
  462MOL0     C62291   9.971  11.208   9.724  0.5336  0.1476 -0.0665
  462MOL0     C62292   9.891  11.199   9.611  0.1000  0.8329 -0.2077
  462MOL0     O62293   9.753  11.217   9.613 -0.1981 -0.2080  0.0858
  462MOL0     C62294   9.679  11.299   9.512 -0.3789  0.8295 -1.2805
  462MOL0     C62295   9.536  11.332   9.562  0.4766  0.1348  0.1320
  462MOL0     C62296   9.539  11.390   9.702  0.7075 -0.1377 -0.5317
  462MOL0     C62297   9.397  11.412   9.760  0.0758  0.2649 -0.3960
  462MOL0     C62298   9.393  11.496   9.876  0.7834 -0.2126 -0.1514
  462MOL0     C62299   9.403  11.548   9.988  0.3314 -1.0358  0.1417
  462MOL0     C62300   9.956  11.174   9.486  0.3707  0.0189  0.2756
  462MOL0     C62301  10.090  11.135   9.475 -0.7978 -0.2172 -0.1184
  462MOL0     C62302  10.148  11.095   9.340  0.1030  0.6011  0.2685
  462MOL0     H62303  10.583  10.983   9.609 -2.0242  1.0143 -0.0004
  462MOL0     H62304  10.820  10.957   9.721 -1.2394 -0.8046 -0.9403
  462MOL0     H62305  11.016  10.990   9.824 -0.2982 -0.8941  0.0368
  462MOL0     H62306  11.002  11.151   9.749 -1.5215 -1.3036 -0.2015
  462MOL0     H62307  11.143  11.077  10.017  0.4670  0.1414  0.8581
  462MOL0     H62308  11.151  11.242   9.939  0.6919 -0.1374 -1.3704
  462MOL0     H62309  11.280  11.136   9.757  0.7715 -0.9812 -1.0386
  462MOL0     H62310  11.254  10.977   9.810 -0.7479  1.5941 -1.8897
  462MOL0     H62311  11.428  11.190   9.972  2.3378 -2.0970  5.6096
  462MOL0     H62312  11.394  11.017  10.005 -0.8432  1.8356  2.1212
  462MOL0     H62313  11.485  10.964   9.784 -1.6145  0.0681 -0.4546
  462MOL0     H62314  11.500  11.135   9.752 -0.2610  2.6553  3.1714
  462MOL0     H62315  11.683  11.160   9.903 -0.5091 -0.2730 -0.3505
  462MOL0     H62316  11.655  11.011   9.993  2.5579  0.7209  0.3513
  462MOL0     H62317  11.742  10.996   9.699 -1.8494  2.0679  0.1662
  462MOL0     H62318  11.725  10.868   9.810 -2.2842  0.5294 -0.1554
  462MOL0     H62319  11.918  10.901   9.918 -0.5838 -0.5391 -1.6722
  462MOL0     H62320  11.954  10.928   9.755 -1.3359 -3.0663  0.4224
  462MOL0     H62321  12.063  11.175   9.700  2.3354 -3.1622  2.2648
  462MOL0     H62322  12.134  11.432   9.724  1.5921  1.8140  0.2681
  462MOL0     H62323  12.064  11.518   9.852  1.3993  0.3863  0.2178
  462MOL0     H62324  12.206  11.420  10.022  0.9667 -0.7060  0.0929
  462MOL0     H62325  12.296  11.321   9.907 -1.8653 -1.3620 -0.1385
  462MOL0     H62326  12.276  11.621   9.881 -0.5648 -0.7726  0.3461
  462MOL0     H62327  12.369  11.519   9.767 -0.2894  2.8299 -1.0400
  462MOL0     H62328  12.522  11.448   9.961 -0.3938  0.6131  2.4025
  462MOL0     H62329  12.427  11.551  10.065 -1.9412  1.2243 -0.6467
  462MOL0     H62330  12.753  11.503   9.831 -1.0436  0.9215  0.2676
  462MOL0     H62331  12.993  11.518   9.917 -0.9755 -0.8551 -1.5466
  462MOL0     H62332  13.255  11.453  10.277  2.6481 -0.5153  2.9627
  462MOL0     H62333  13.498  11.466  10.355  0.6071  0.9294  0.0712
  462MOL0     H62334  13.816  11.685  10.144 -1.2232 -0.1352 -1.2210
  462MOL0     H62335  13.738  11.750  10.284 -1.3871  1.7218 -3.2648
  462MOL0     H62336  13.875  11.603  10.426  1.1889 -1.8520  0.6629
  462MOL0     H62337  13.916  11.505  10.285 -3.6085 -0.9098  0.9799
  462MOL0     H62338  14.067  11.652  10.195 -0.9605  1.6180 -0.7766
  462MOL0     H62339  13.990  11.795  10.267 -1.4569 -0.1840  1.1819
  462MOL0     H62340  14.167  11.591  10.403 -1.6297 -1.4024  0.5873
  462MOL0     H62341  14.077  11.687  10.511  3.4089 -2.2328  2.0665
  462MOL0     H62342  14.136  11.899  10.380  1.4129  1.7785 -0.0266
  462MOL0     H62343  14.275  11.810  10.321 -1.9049  0.8799 -1.3308
  462MOL0     H62344  14.224  11.824  10.623 -1.4101 -0.9348 -0.6947
  462MOL0     H62345  14.368  11.776  10.547  0.8085  1.0890  0.9284
  462MOL0     H62346  14.271  12.065  10.525  0.4521  0.0856 -0.3597
  462MOL0     H62347  14.423  12.003  10.456  1.1425  0.5133  1.1687
  462MOL0     H62348  14.325  11.986  10.750  1.5618  0.2873  0.7118
  462MOL0     H62349  14.485  11.930  10.697 -0.9737  0.0036  0.8323
  462MOL0     H62350  13.602  11.724  10.053 -0.7077 -0.1540 -1.1457
  462MOL0     H62351  13.354  11.752   9.995 -1.1974 -0.4603  1.2477
  462MOL0     H62352  12.804  11.738  10.260 -0.1530 -1.5292  0.5789
  462MOL0     H62353  12.598  11.736  10.153  3.7548  2.7143  2.2491
  462MOL0     H62354  10.698  11.233  10.022 -0.6644  0.0489  0.9560
  462MOL0     H62355  10.458  11.241   9.920 -1.6552 -3.1826 -0.8243
  462MOL0     H62356  10.165  11.172   9.808  0.5779 -1.3213 -0.2845
  462MOL0     H62357   9.932  11.239   9.820  1.3045 -1.2877  0.7520
  462MOL0     H62358   9.672  11.249   9.414 -2.7439 -1.5582 -0.0284
  462MOL0     H62359   9.728  11.395   9.492  0.9544  0.3546 -0.4570
  462MOL0     H62360   9.484  11.236   9.560  1.7089 -0.5596 -1.8770
  462MOL0     H62361   9.477  11.402   9.503 -0.3062 -1.6951 -1.3412
  462MOL0     H62362   9.598  11.482   9.702 -1.0539  1.0474 -0.0925
  462MOL0     H62363   9.583  11.318   9.771 -0.7189  1.9577  2.8407
  462MOL0     H62364   9.361  11.485   9.686  1.0431  1.0490 -0.1255
  462MOL0     H62365   9.339  11.320   9.753  0.1043  0.2544 -0.4956
  462MOL0     H62366   9.417  11.572  10.091  0.0948 -0.3312  0.0201
  462MOL0     H62367   9.890  11.162   9.401  1.2849 -1.5505 -0.2649
  462MOL0     H62368  10.225  11.167   9.310 -0.2874  0.7365 -0.4234
  462MOL0     H62369  10.207  11.003   9.341  1.6883  1.5815  0.3842
  462MOL0     H62370  10.075  11.099   9.259  1.4362  0.6338 -0.9942
  463MOL0     O62371  10.475   1.588   3.361  0.1277 -0.1941  0.2364
  463MOL0     C62372  10.386   1.608   3.437 -0.0126  0.0556 -0.9345
  463MOL0     O62373  10.395   1.600   3.578  0.3385 -0.2918 -0.5895
  463MOL0     C62374  10.510   1.569   3.646 -0.7250 -0.0145  0.1066
  463MOL0     C62375  10.591   1.460   3.612  0.6919 -0.9632 -1.2225
  463MOL0     C62376  10.713   1.434   3.680 -0.5955 -0.2710  0.5087
  463MOL0     C62377  10.756   1.517   3.778  0.3094 -0.5437  0.2464
  463MOL0     O62378  10.865   1.467   3.848 -0.5575 -0.3478 -0.2478
  463MOL0     C62379  10.844   1.455   3.988  0.7962 -0.1165 -0.4130
  463MOL0     C62380  10.936   1.543   4.079  0.5675  0.3745 -0.0440
  463MOL0     C62381  10.951   1.688   4.023 -0.1009 -0.4513 -0.5932
  463MOL0     C62382  11.073   1.761   4.082  0.1137 -0.3041  0.0385
  463MOL0     C62383  11.077   1.900   4.019  0.8754 -0.4047 -0.1621
  463MOL0     C62384  11.197   1.985   4.062  0.5577  0.0137 -0.4538
  463MOL0     C62385  11.172   2.051   4.198  0.7147 -0.3110  0.0904
  463MOL0     C62386  11.274   2.164   4.238 -0.1964  0.3834  0.3193
  463MOL0     N62387  11.414   2.131   4.222 -0.3786 -0.1166 -0.5348
  463MOL0     C62388  11.503   2.092   4.321 -0.0003  0.0196  0.1163
  463MOL0     C62389  11.617   2.067   4.256 -0.4546 -0.0643 -0.3017
  463MOL0     C62390  11.750   2.023   4.315  0.3631  0.5446  0.1356
  463MOL0     C62391  11.829   2.130   4.381  0.1816 -0.1782 -0.5260
  463MOL0     C62392  11.979   2.087   4.405  1.1057  0.7777  1.0459
  463MOL0     C62393  12.057   2.190   4.470 -0.2723  0.5133 -0.2143
  463MOL0     O62394  12.023   2.197   4.606  0.0337 -0.2704 -0.4292
  463MOL0     C62395  12.123   2.230   4.703  0.3290  0.5777  0.5440
  463MOL0     C62396  12.105   2.184   4.835 -0.6771 -0.4374  0.0384
  463MOL0     C62397  12.210   2.203   4.928  0.4653 -0.0830  0.3724
  463MOL0     C62398  12.329   2.267   4.893  0.2899  0.1783  0.4503
  463MOL0     C62399  12.426   2.280   4.998  0.1372 -0.7976 -0.3702
  463MOL0     O62400  12.501   2.398   5.006  0.2059 -0.0256  0.4182
  463MOL0     C62401  12.606   2.412   5.088  0.2445  0.5079 -0.1535
  463MOL0     C62402  12.723   2.457   5.030 -0.2473 -0.7994  0.2384
  463MOL0     C62403  12.836   2.491   5.108  0.0025  0.6782 -0.1591
  463MOL0     C62404  12.826   2.476   5.246  0.5060 -0.2946  0.0697
  463MOL0     O62405  12.910   2.532   5.339  0.0620 -0.4545  0.6824
  463MOL0     C62406  13.054   2.508   5.311 -0.3050 -0.3058  0.2173
  463MOL0     C62407  13.145   2.578   5.404  0.6086 -0.4205  0.2661
  463MOL0     C62408  13.290   2.536   5.374 -0.3901 -0.1519 -0.1103
  463MOL0     C62409  13.388   2.624   5.454 -0.4542 -0.1642  0.6068
  463MOL0     C62410  13.512   2.551   5.499 -0.4008 -0.2693  0.2411
  463MOL0     C62411  13.598   2.483   5.385  0.2905  0.2323  0.6721
  463MOL0     C62412  13.736   2.452   5.435  0.0324 -0.0001  0.4714
  463MOL0     C62413  13.821   2.363   5.341  0.7615  0.1260 -0.6403
  463MOL0    Cl62414  13.997   2.374   5.385 -0.0780  0.0214 -0.1082
  463MOL0     C62415  12.715   2.420   5.301  0.0969 -0.2185  0.6818
  463MOL0     C62416  12.601   2.395   5.220 -0.1684 -0.4137 -1.0547
  463MOL0     O62417  12.457   2.172   5.046  0.2767  0.0546  0.5081
  463MOL0     C62418  12.341   2.327   4.764  0.8900 -0.4050 -0.3318
  463MOL0     C62419  12.234   2.310   4.667  0.5047 -0.7651 -0.7938
  463MOL0     N62420  11.599   2.088   4.119 -0.8293 -0.1792 -0.9064
  463MOL0     N62421  11.475   2.126   4.103 -0.3299  0.5448 -0.4755
  463MOL0     C62422  10.672   1.623   3.815 -0.4221  0.1873 -0.1554
  463MOL0     C62423  10.555   1.652   3.746 -0.5042 -0.5522  0.5282
  463MOL0     C62424  10.248   1.633   3.385 -0.6486  0.7450  0.3595
  463MOL0     C62425  10.133   1.609   3.464 -0.0139  0.0980  0.7702
  463MOL0     C62426  10.005   1.628   3.416  0.5723  0.1708  0.1623
  463MOL0     C62427   9.988   1.664   3.282  0.6141 -0.3018  0.3795
  463MOL0     O62428   9.865   1.669   3.222  0.5752 -0.5530  0.4155
  463MOL0     C62429   9.765   1.582   3.261 -0.4606  0.0532 -0.1311
  463MOL0     C62430   9.640   1.606   3.182 -0.5606  0.0467 -0.1300
  463MOL0     C62431   9.541   1.496   3.214 -0.6058 -0.9778 -0.1619
  463MOL0     C62432   9.434   1.483   3.109 -0.8423  0.4364  0.2811
  463MOL0     C62433   9.344   1.593   3.126 -0.4894  0.1824 -0.7946
  463MOL0     C62434   9.279   1.701   3.131 -0.0410  0.3723 -0.2468
  463MOL0     C62435  10.097   1.701   3.205  0.5919 -0.6585  0.0438
  463MOL0     C62436  10.222   1.693   3.263  0.9539  0.6175  0.5811
  463MOL0     C62437  10.329   1.732   3.163 -0.5546 -0.6357 -0.1955
  463MOL0     H62438  10.571   1.399   3.524 -0.6499 -0.2482 -1.4415
  463MOL0     H62439  10.785   1.358   3.649 -0.0180  0.2536  0.5356
  463MOL0     H62440  10.749   1.494   4.025  1.3489  0.3709  0.5117
  463MOL0     H62441  10.855   1.349   4.012  1.4906 -0.3097 -1.5039
  463MOL0     H62442  11.041   1.512   4.086  0.2905 -0.2914  1.5011
  463MOL0     H62443  10.901   1.550   4.182  1.8597 -0.7558  0.4996
  463MOL0     H62444  10.858   1.744   4.041 -1.0762 -1.4709 -2.1413
  463MOL0     H62445  10.976   1.678   3.917  1.6662 -2.1344 -0.0628
  463MOL0     H62446  11.054   1.763   4.190  0.9440  0.8366  0.1783
  463MOL0     H62447  11.164   1.704   4.060  1.2223  1.0011  1.0869
  463MOL0     H62448  11.089   1.878   3.912 -1.3026 -2.7647 -0.0308
  463MOL0     H62449  10.983   1.952   4.038  1.0027 -0.4669  0.6617
  463MOL0     H62450  11.291   1.928   4.057  2.2436  2.7219 -1.8090
  463MOL0     H62451  11.208   2.065   3.988 -3.4302  0.7142 -0.4859
  463MOL0     H62452  11.150   1.978   4.277 -2.6784 -1.1507 -1.4689
  463MOL0     H62453  11.080   2.107   4.183  1.6285  0.7657 -1.8934
  463MOL0     H62454  11.257   2.251   4.174  1.5692  1.0393  0.6806
  463MOL0     H62455  11.244   2.200   4.337  1.7947  0.8246  0.8112
  463MOL0     H62456  11.484   2.083   4.427 -0.3537 -0.7218 -0.0045
  463MOL0     H62457  11.735   1.947   4.392 -0.6110  0.2623 -0.3173
  463MOL0     H62458  11.809   1.987   4.230  1.9237  2.3350  0.3733
  463MOL0     H62459  11.813   2.230   4.339 -0.0662  0.7024  1.5083
  463MOL0     H62460  11.789   2.144   4.482 -0.7678  1.2955 -1.0738
  463MOL0     H62461  12.023   2.040   4.316 -1.0322 -0.7662  0.6970
  463MOL0     H62462  11.969   2.000   4.471  1.3804  0.1382  0.2625
  463MOL0     H62463  12.031   2.291   4.435  0.4487  1.0558  0.7436
  463MOL0     H62464  12.163   2.172   4.449 -0.5811 -1.8264  0.0577
  463MOL0     H62465  12.012   2.129   4.851 -0.2488 -1.8473 -1.9403
  463MOL0     H62466  12.193   2.164   5.028 -0.8313  0.8720  0.5350
  463MOL0     H62467  12.732   2.454   4.922  0.3254  0.0122  0.2461
  463MOL0     H62468  12.917   2.541   5.056 -0.3733  2.9377  1.2790
  463MOL0     H62469  13.068   2.402   5.332  1.4258  0.1898  1.8268
  463MOL0     H62470  13.078   2.536   5.208 -0.2319 -0.2277  0.2559
  463MOL0     H62471  13.131   2.685   5.390  2.9404 -0.3305 -2.3311
  463MOL0     H62472  13.116   2.538   5.501 -2.4002  1.3779  0.2201
  463MOL0     H62473  13.304   2.436   5.415 -0.0571 -0.2628 -0.4877
  463MOL0     H62474  13.314   2.543   5.267 -1.8979 -0.2643 -0.4802
  463MOL0     H62475  13.329   2.643   5.544 -0.0408 -1.3793  1.1604
  463MOL0     H62476  13.415   2.719   5.407  2.8504 -1.0515  0.4991
  463MOL0     H62477  13.480   2.473   5.568  0.6024  0.8419  2.0388
  463MOL0     H62478  13.570   2.629   5.549  0.0433 -0.2100 -0.3491
  463MOL0     H62479  13.540   2.398   5.348 -1.0974  0.8641  1.3467
  463MOL0     H62480  13.598   2.551   5.300  0.0815 -0.0643  0.4317
  463MOL0     H62481  13.726   2.410   5.535 -0.5513  1.2663  0.9679
  463MOL0     H62482  13.801   2.540   5.426  1.1015 -0.9428 -2.6632
  463MOL0     H62483  13.782   2.261   5.346  1.8886 -0.3443 -1.2502
  463MOL0     H62484  13.810   2.391   5.236 -3.5336 -1.8369 -0.9478
  463MOL0     H62485  12.721   2.400   5.408  0.4824 -0.3371  0.6432
  463MOL0     H62486  12.520   2.344   5.271 -0.9650  0.6495 -1.2421
  463MOL0     H62487  12.430   2.384   4.738  1.6032 -2.0820 -1.8210
  463MOL0     H62488  12.257   2.348   4.568  1.3681 -0.3861 -0.4501
  463MOL0     H62489  10.694   1.690   3.897  3.0009  0.8706 -1.4498
  463MOL0     H62490  10.497   1.741   3.771  2.2510  1.2278  0.9304
  463MOL0     H62491  10.145   1.568   3.564  1.3276 -4.3156 -0.9470
  463MOL0     H62492   9.918   1.595   3.472 -0.2277 -3.5811 -2.8374
  463MOL0     H62493   9.753   1.596   3.369  0.7828  0.7474 -0.0564
  463MOL0     H62494   9.822   1.490   3.243  1.9205  1.3738  0.2951
  463MOL0     H62495   9.674   1.607   3.078  1.4765  0.1253  0.4854
  463MOL0     H62496   9.588   1.699   3.207  0.0468  0.6494 -1.0463
  463MOL0     H62497   9.508   1.515   3.317 -0.0588  0.4219 -0.2232
  463MOL0     H62498   9.599   1.403   3.221  3.6264  1.4376  0.4964
  463MOL0     H62499   9.469   1.485   3.005 -1.9263  0.9983 -0.0804
  463MOL0     H62500   9.380   1.388   3.118  2.3994 -1.5135  0.9676
  463MOL0     H62501   9.224   1.792   3.135 -3.6786 -1.6279 -0.7143
  463MOL0     H62502  10.089   1.738   3.104 -0.3045 -1.8492 -0.3391
  463MOL0     H62503  10.396   1.806   3.208  0.3235  0.7398 -3.4637
  463MOL0     H62504  10.397   1.650   3.136 -0.0994 -0.5483  0.6663
  463MOL0     H62505  10.279   1.780   3.078 -1.7537 -1.4545  0.0212
  464MOL0     O62506   7.016   1.499   7.653  0.1199  0.9283  0.0499
  464MOL0     C62507   6.966   1.445   7.553 -0.6838 -1.2776 -0.0784
  464MOL0     O62508   7.031   1.402   7.449  0.2303 -0.3463 -1.1637
  464MOL0     C62509   7.166   1.389   7.443  1.0221 -0.1175 -0.3079
  464MOL0     C62510   7.229   1.294   7.519 -0.7802 -0.0095 -0.0687
  464MOL0     C62511   7.361   1.258   7.490 -0.2767 -0.1806 -0.4804
  464MOL0     C62512   7.413   1.301   7.365 -0.4675 -0.2968 -0.4862
  464MOL0     O62513   7.527   1.241   7.325  0.4698  0.4064 -0.6442
  464MOL0     C62514   7.627   1.333   7.278 -0.6355 -0.2135 -0.0575
  464MOL0     C62515   7.699   1.390   7.394 -0.1087 -0.5518 -0.8687
  464MOL0     C62516   7.769   1.287   7.483 -0.3712  0.3229 -1.2398
  464MOL0     C62517   7.863   1.189   7.413 -0.4122 -0.4403  0.1630
  464MOL0     C62518   7.943   1.113   7.521  0.7673 -0.2291  0.8654
  464MOL0     C62519   8.064   1.041   7.466  0.0599  0.1937 -0.0677
  464MOL0     C62520   8.138   0.966   7.577  0.5139 -0.0629 -0.0856
  464MOL0     C62521   8.282   0.933   7.549 -0.1788  0.6610 -0.8985
  464MOL0     N62522   8.373   1.045   7.573  0.2518 -0.0209  0.2610
  464MOL0     C62523   8.360   1.170   7.529 -0.3226  0.0221 -0.0626
  464MOL0     C62524   8.478   1.231   7.535 -0.9629 -0.3015 -0.9795
  464MOL0     C62525   8.520   1.366   7.485 -0.2494  0.2239  0.0221
  464MOL0     C62526   8.549   1.372   7.333  0.6952 -0.0283 -0.6363
  464MOL0     C62527   8.592   1.509   7.284 -0.4073 -0.5916  0.5033
  464MOL0     C62528   8.742   1.527   7.325  0.4005 -0.0384  0.3711
  464MOL0     O62529   8.792   1.642   7.253  0.1333 -0.4870 -0.5186
  464MOL0     C62530   8.918   1.687   7.304  0.2564 -0.7469  0.3769
  464MOL0     C62531   9.015   1.596   7.345  0.4506  0.6169  0.1653
  464MOL0     C62532   9.132   1.642   7.412  0.1312  0.9213  0.4516
  464MOL0     C62533   9.167   1.775   7.404 -0.6040 -0.3906  0.0097
  464MOL0     C62534   9.303   1.817   7.452  0.7164 -0.4214  0.0155
  464MOL0     O62535   9.320   1.958   7.439  0.2621 -0.6135 -0.5351
  464MOL0     C62536   9.444   2.011   7.478  1.4357 -0.4422  0.5928
  464MOL0     C62537   9.560   1.961   7.431 -0.0216 -0.2431  1.3400
  464MOL0     C62538   9.678   2.030   7.455 -0.4412  0.3339 -0.2456
  464MOL0     C62539   9.683   2.150   7.536  0.5116  0.6618  0.1332
  464MOL0     O62540   9.800   2.216   7.557  0.4800 -0.9925 -0.4770
  464MOL0     C62541   9.922   2.159   7.583 -0.2096 -0.4031 -0.2094
  464MOL0     C62542  10.032   2.267   7.579  0.5885  0.4142 -0.9056
  464MOL0     C62543  10.024   2.390   7.662  0.4243 -0.0687 -0.4295
  464MOL0     C62544  10.155   2.465   7.634  0.9069  0.5583 -0.4943
  464MOL0     C62545  10.274   2.442   7.720 -0.0617 -0.0058  0.2123
  464MOL0     C62546  10.380   2.536   7.681 -0.1710 -0.0848 -0.8068
  464MOL0     C62547  10.359   2.686   7.731  0.8047  0.9539 -0.3160
  464MOL0     C62548  10.382   2.688   7.880 -0.0100  0.7429  0.3454
  464MOL0    Cl62549  10.566   2.676   7.913  0.4330 -0.1449 -0.1672
  464MOL0     C62550   9.568   2.196   7.582 -0.2883  0.0084 -0.3780
  464MOL0     C62551   9.449   2.134   7.552  0.3814  0.4337 -0.0321
  464MOL0     O62552   9.394   1.739   7.472  0.1400  0.1718 -0.4203
  464MOL0     C62553   9.078   1.869   7.344 -0.0917 -0.0797 -0.5510
  464MOL0     C62554   8.955   1.827   7.306  0.9288  0.4121 -0.1267
  464MOL0     N62555   8.566   1.146   7.595  0.3315 -0.1214  0.1457
  464MOL0     N62556   8.506   1.029   7.614 -0.3327  0.2762 -0.0820
  464MOL0     C62557   7.344   1.396   7.287  0.7437 -0.6291 -0.2219
  464MOL0     C62558   7.218   1.436   7.325 -0.1533 -0.2338  0.6468
  464MOL0     C62559   6.820   1.426   7.552 -0.4605  1.1877 -0.2553
  464MOL0     C62560   6.743   1.404   7.431 -0.1654 -0.4528  0.0677
  464MOL0     C62561   6.604   1.383   7.431  0.3474  0.3076  1.4912
  464MOL0     C62562   6.531   1.382   7.544  0.5937  0.4679 -0.6405
  464MOL0     O62563   6.395   1.344   7.539 -0.0281  0.3643 -0.0102
  464MOL0     C62564   6.323   1.343   7.660  0.5207 -0.9204  0.4258
  464MOL0     C62565   6.175   1.328   7.624 -0.4900  0.5102  0.4295
  464MOL0     C62566   6.081   1.344   7.744  0.4640  0.5251 -0.0030
  464MOL0     C62567   6.107   1.254   7.856 -0.6645  0.7938  0.2144
  464MOL0     C62568   5.995   1.257   7.956  0.6957  0.0083  0.4557
  464MOL0     C62569   5.900   1.267   8.024  0.8280  0.4693 -0.2017
  464MOL0     C62570   6.596   1.420   7.661 -1.1639 -0.0124  0.2671
  464MOL0     C62571   6.740   1.434   7.671  0.4902 -0.1018  0.4478
  464MOL0     C62572   6.798   1.469   7.812 -0.6789 -0.4902 -0.1224
  464MOL0     H62573   7.197   1.246   7.611  2.1381 -2.2649 -0.0492
  464MOL0     H62574   7.409   1.181   7.548  0.4359  1.6454  1.4861
  464MOL0     H62575   7.698   1.287   7.210  1.5779 -1.2832  2.7806
  464MOL0     H62576   7.583   1.418   7.225 -0.7796 -0.4018 -0.2424
  464MOL0     H62577   7.638   1.454   7.457  2.5511 -0.2979  1.6876
  464MOL0     H62578   7.777   1.456   7.353 -1.5795  1.4390 -0.6001
  464MOL0     H62579   7.701   1.230   7.546 -1.3390 -0.0994 -2.6200
  464MOL0     H62580   7.823   1.346   7.558 -0.6278 -0.8186 -0.1331
  464MOL0     H62581   7.806   1.126   7.343 -4.4993  1.7891  1.1757
  464MOL0     H62582   7.941   1.245   7.360 -1.4370 -0.1521 -1.0895
  464MOL0     H62583   7.978   1.172   7.607 -0.8983  0.1732  1.3014
  464MOL0     H62584   7.868   1.046   7.564 -0.9340 -0.7105 -2.5206
  464MOL0     H62585   8.040   0.960   7.395  1.9075 -0.7787  0.3654
  464MOL0     H62586   8.129   1.106   7.407 -1.7581  0.9339 -1.3590
  464MOL0     H62587   8.086   0.871   7.589 -2.6616  1.6036  0.6279
  464MOL0     H62588   8.124   1.020   7.671  0.1776  1.4688 -0.9746
  464MOL0     H62589   8.313   0.845   7.606  1.4413  1.4382 -0.5460
  464MOL0     H62590   8.295   0.890   7.449  2.7792 -0.3179 -0.2015
  464MOL0     H62591   8.274   1.225   7.493  0.3367  2.6096  1.9540
  464MOL0     H62592   8.443   1.439   7.510  0.6347  1.2557 -0.2211
  464MOL0     H62593   8.608   1.391   7.544 -0.5238  3.0318 -0.6020
  464MOL0     H62594   8.622   1.294   7.311  1.9918 -0.2166  3.4754
  464MOL0     H62595   8.452   1.341   7.293  1.5847 -1.7880 -1.5217
  464MOL0     H62596   8.543   1.597   7.327 -1.4293 -0.6451 -0.4936
  464MOL0     H62597   8.577   1.514   7.176  0.5072 -1.5566  0.3145
  464MOL0     H62598   8.794   1.434   7.300  1.2114 -0.5096  3.3778
  464MOL0     H62599   8.752   1.553   7.431  1.8363  0.2002  0.1933
  464MOL0     H62600   9.005   1.489   7.332  1.0297  0.6788 -0.8990
  464MOL0     H62601   9.206   1.573   7.450 -0.1185 -0.9698 -2.1431
  464MOL0     H62602   9.551   1.873   7.369 -1.0757  0.0687  1.0240
  464MOL0     H62603   9.770   1.989   7.414  0.3030  0.5073  1.1811
  464MOL0     H62604   9.921   2.118   7.684 -0.5159  1.2611  0.4941
  464MOL0     H62605   9.943   2.078   7.513  1.0598  0.1489 -0.4993
  464MOL0     H62606  10.127   2.224   7.613  1.0837  0.3780 -2.2691
  464MOL0     H62607  10.044   2.292   7.473 -1.8380  1.7618 -0.9228
  464MOL0     H62608   9.938   2.453   7.640 -0.0531 -0.8192 -0.7679
  464MOL0     H62609  10.017   2.379   7.770  1.5232 -1.5542 -0.4641
  464MOL0     H62610  10.131   2.572   7.628 -0.5772  0.2836  0.2064
  464MOL0     H62611  10.195   2.446   7.534  3.2155  3.1472 -0.1981
  464MOL0     H62612  10.307   2.343   7.689 -0.0010  0.0867 -0.0197
  464MOL0     H62613  10.258   2.443   7.828 -0.6779 -2.8613  0.2119
  464MOL0     H62614  10.465   2.490   7.732 -0.9909  0.4851  1.1874
  464MOL0     H62615  10.399   2.524   7.574  0.9224  1.3650 -0.8104
  464MOL0     H62616  10.254   2.704   7.707  0.1023 -0.6237  1.2911
  464MOL0     H62617  10.422   2.750   7.670 -1.7722  2.2444 -1.8106
  464MOL0     H62618  10.344   2.783   7.919  2.3842  2.7398 -1.8073
  464MOL0     H62619  10.313   2.619   7.930 -1.1144  1.6306  0.0820
  464MOL0     H62620   9.571   2.270   7.661  0.9704 -0.3204 -0.0888
  464MOL0     H62621   9.358   2.180   7.589 -0.2737 -1.2133  0.5250
  464MOL0     H62622   9.111   1.971   7.332 -1.9498  0.3188 -2.7719
  464MOL0     H62623   8.881   1.904   7.286 -0.0960 -0.0951  1.5093
  464MOL0     H62624   7.364   1.423   7.184 -2.3116  0.2761 -0.6521
  464MOL0     H62625   7.170   1.513   7.266 -1.0910  0.6445  2.4614
  464MOL0     H62626   6.789   1.402   7.333  0.5997  0.2245  0.4014
  464MOL0     H62627   6.554   1.370   7.336  3.5084  4.0053 -1.0051
  464MOL0     H62628   6.340   1.439   7.710 -1.0645  0.6792 -1.9100
  464MOL0     H62629   6.352   1.260   7.725  1.5054 -1.4922 -0.7103
  464MOL0     H62630   6.156   1.227   7.588  0.1948  1.1232 -1.7944
  464MOL0     H62631   6.148   1.388   7.537  2.0458 -0.9817 -1.5268
  464MOL0     H62632   5.982   1.316   7.708 -0.3398  2.6498  0.4142
  464MOL0     H62633   6.089   1.447   7.780  0.4630  0.3402  0.5404
  464MOL0     H62634   6.113   1.150   7.820  0.6202  1.8843 -3.1582
  464MOL0     H62635   6.202   1.280   7.903 -0.9207 -1.0695  1.8792
  464MOL0     H62636   5.810   1.268   8.083  0.5975 -1.3206 -0.4609
  464MOL0     H62637   6.553   1.422   7.761  2.1337 -0.4387  1.8347
  464MOL0     H62638   6.717   1.459   7.885  0.0762 -2.8326  0.5157
  464MOL0     H62639   6.888   1.416   7.845  1.2643  1.1061 -2.4991
  464MOL0     H62640   6.831   1.573   7.805  1.6193 -1.1698 -0.3530
  465MOL0     O62641   8.682  10.409   4.090 -0.0992  0.2305 -0.2860
  465MOL0     C62642   8.637  10.362   3.987 -0.3329  0.0894  0.5474
  465MOL0     O62643   8.709  10.287   3.898 -0.6613 -0.6495  0.1112
  465MOL0     C62644   8.847  10.270   3.908 -0.0686 -0.2174 -0.2269
  465MOL0     C62645   8.912  10.212   4.022 -0.4050  1.4908  0.1476
  465MOL0     C62646   9.054  10.190   4.012  0.4107  0.0345 -0.7636
  465MOL0     C62647   9.127  10.234   3.901  0.1824 -0.5196 -0.6431
  465MOL0     O62648   9.261  10.234   3.889  0.1939 -0.6366  1.3208
  465MOL0     C62649   9.343  10.140   3.965  0.4020 -0.0498  0.5202
  465MOL0     C62650   9.482  10.194   3.952  0.0218  0.1033 -1.4322
  465MOL0     C62651   9.580  10.101   4.017 -0.7435  0.6960  0.5198
  465MOL0     C62652   9.720  10.166   4.009  1.0501 -0.3608 -0.4582
  465MOL0     C62653   9.829  10.070   4.049  0.1821  0.1310 -0.5051
  465MOL0     C62654   9.958  10.138   4.042 -0.3231  0.1557  0.1458
  465MOL0     C62655  10.077  10.046   4.062 -0.4301  0.2946  0.2480
  465MOL0     C62656  10.106  10.013   4.204  0.3734  0.2660  0.4009
  465MOL0     N62657  10.237   9.966   4.206  0.2565  1.3682  0.4091
  465MOL0     C62658  10.353  10.034   4.190  0.1608  0.1385 -0.1025
  465MOL0     C62659  10.452   9.933   4.190  0.3002 -0.4298 -1.0913
  465MOL0     C62660  10.598   9.968   4.169  0.1445 -0.2629 -0.6245
  465MOL0     C62661  10.688   9.846   4.209 -0.1762  0.6667 -0.8674
  465MOL0     C62662  10.836   9.888   4.214  0.7284  0.5402  0.3922
  465MOL0     C62663  10.921   9.769   4.261 -0.7160  0.1857  0.6464
  465MOL0     O62664  11.037   9.810   4.193  0.4659  0.3965 -0.1038
  465MOL0     C62665  11.156   9.751   4.229  0.0111  0.4136  0.2357
  465MOL0     C62666  11.279   9.821   4.216  0.6095  0.0090 -0.4592
  465MOL0     C62667  11.397   9.766   4.265  0.4048  0.6557 -0.2088
  465MOL0     C62668  11.393   9.638   4.334 -0.4595  0.3734 -0.3370
  465MOL0     C62669  11.510   9.580   4.399 -0.1256  0.1767  0.4504
  465MOL0     O62670  11.629   9.648   4.387 -0.3140 -0.3611  0.6220
  465MOL0     C62671  11.752   9.604   4.446 -0.3959  0.5538 -1.1031
  465MOL0     C62672  11.857   9.698   4.439  0.7165 -0.2488 -0.2051
  465MOL0     C62673  11.984   9.670   4.494  0.2149  0.2451 -0.9302
  465MOL0     C62674  12.014   9.542   4.541 -0.4266 -0.4655 -0.2256
  465MOL0     O62675  12.143   9.500   4.577 -0.0313 -0.3314 -0.3680
  465MOL0     C62676  12.246   9.525   4.484  0.1384 -0.6316 -0.6753
  465MOL0     C62677  12.240   9.410   4.381 -0.6985 -0.2874  0.2987
  465MOL0     C62678  12.371   9.404   4.303  1.4594 -0.9279  0.1112
  465MOL0     C62679  12.354   9.307   4.180 -0.3383 -0.8685  0.6878
  465MOL0     C62680  12.308   9.164   4.211  0.5780 -0.4120  0.2694
  465MOL0     C62681  12.272   9.097   4.080 -0.6510 -1.2905  0.1490
  465MOL0     C62682  12.209   8.965   4.098 -0.7086  0.2726 -0.1594
  465MOL0     C62683  12.227   8.886   3.974  0.1147 -0.1147  1.2333
  465MOL0    Cl62684  12.136   8.736   3.984  0.3161 -0.0997  0.4728
  465MOL0     C62685  11.915   9.450   4.546  0.9286 -0.3113  0.1893
  465MOL0     C62686  11.787   9.479   4.501  0.1234  0.2309  0.1726
  465MOL0     O62687  11.500   9.475   4.464  0.1392 -0.1481 -0.3384
  465MOL0     C62688  11.275   9.571   4.334 -0.7225  0.9123 -0.7841
  465MOL0     C62689  11.161   9.616   4.285  0.9845  0.0729  0.3132
  465MOL0     N62690  10.393   9.810   4.196  0.3202  0.0485  0.2852
  465MOL0     N62691  10.266   9.829   4.207  1.0036  0.3367  0.7667
  465MOL0     C62692   9.055  10.294   3.789 -0.0558 -0.2154 -0.6559
  465MOL0     C62693   8.924  10.315   3.801 -0.1017 -0.6692 -1.5503
  465MOL0     C62694   8.490  10.375   3.978 -0.4567  0.7388  0.3866
  465MOL0     C62695   8.440  10.505   3.996 -1.5308  0.2909 -0.2411
  465MOL0     C62696   8.301  10.527   4.002 -0.3149 -0.4430  0.0334
  465MOL0     C62697   8.207  10.429   3.971 -0.5574 -0.2751  0.2999
  465MOL0     O62698   8.074  10.458   3.981 -0.2194 -0.5132  0.7036
  465MOL0     C62699   7.986  10.351   3.965  0.5513 -0.7784  0.7914
  465MOL0     C62700   7.843  10.411   3.985 -0.2748 -0.3627  0.3210
  465MOL0     C62701   7.825  10.487   4.121  0.6688  0.8076  0.5643
  465MOL0     C62702   7.671  10.533   4.139 -0.5425  0.1767 -0.9980
  465MOL0     C62703   7.600  10.441   4.226  0.3421 -0.3005 -0.5658
  465MOL0     C62704   7.516  10.372   4.288 -0.7939 -1.1142  0.8890
  465MOL0     C62705   8.257  10.308   3.931  0.8991 -0.6035 -0.0304
  465MOL0     C62706   8.398  10.277   3.935  0.0730  0.5189 -0.9302
  465MOL0     C62707   8.438  10.133   3.887  0.4113  0.3208  1.0403
  465MOL0     H62708   8.851  10.178   4.105  2.1846  0.5713  1.8096
  465MOL0     H62709   9.096  10.150   4.104  0.1911  0.5599 -0.4303
  465MOL0     H62710   9.314  10.131   4.070  0.1701 -2.2009  0.3210
  465MOL0     H62711   9.331  10.043   3.917  0.3904  1.5038 -2.8997
  465MOL0     H62712   9.492  10.294   3.994 -0.5999 -0.5650  0.3713
  465MOL0     H62713   9.495  10.221   3.846  0.1782  1.5210 -1.0697
  465MOL0     H62714   9.578   9.999   3.977 -0.8671  1.4614 -1.5623
  465MOL0     H62715   9.557  10.086   4.123  0.4146  1.4534  0.9045
  465MOL0     H62716   9.743  10.193   3.905  1.0092  2.7851  0.2567
  465MOL0     H62717   9.721  10.261   4.062  2.0375 -2.0216  2.6970
  465MOL0     H62718   9.809  10.043   4.154  2.8086  0.8485  0.2478
  465MOL0     H62719   9.821   9.974   3.997 -1.3089  0.3861 -0.8019
  465MOL0     H62720   9.977  10.172   3.940  0.6357 -1.4868 -0.2490
  465MOL0     H62721   9.959  10.229   4.103  0.8025  1.4379 -1.6723
  465MOL0     H62722  10.161  10.103   4.019 -0.5125  3.0459  3.3276
  465MOL0     H62723  10.063   9.952   4.008 -0.4347  0.2004  0.4140
  465MOL0     H62724  10.099  10.102   4.267  4.2181  1.3308 -0.4316
  465MOL0     H62725  10.050   9.934   4.256  1.6741 -1.4084 -0.6010
  465MOL0     H62726  10.359  10.143   4.185 -1.2460  0.4160  2.4169
  465MOL0     H62727  10.617  10.001   4.066  0.7821 -0.6726 -0.6451
  465MOL0     H62728  10.614  10.055   4.233 -1.8392  0.3187 -0.8453
  465MOL0     H62729  10.638   9.818   4.302  0.3978 -0.5387 -0.9106
  465MOL0     H62730  10.670   9.757   4.149  3.4922 -0.5135 -0.4750
  465MOL0     H62731  10.850   9.975   4.278 -0.8683  1.4536 -0.4106
  465MOL0     H62732  10.859   9.918   4.111 -1.7892 -0.3562 -0.5198
  465MOL0     H62733  10.894   9.670   4.221  0.6226  0.3289 -0.7112
  465MOL0     H62734  10.949   9.766   4.367  0.2247 -0.9016  0.3921
  465MOL0     H62735  11.275   9.923   4.180 -0.9501 -0.7746 -2.7200
  465MOL0     H62736  11.493   9.812   4.246  0.3410  1.7837  1.9031
  465MOL0     H62737  11.841   9.796   4.397  0.3044  0.7294  2.0847
  465MOL0     H62738  12.055   9.752   4.496 -2.6811  2.8855 -0.0813
  465MOL0     H62739  12.249   9.623   4.435  1.9113 -0.2008  0.2338
  465MOL0     H62740  12.344   9.520   4.532 -0.2073 -1.1989 -0.0218
  465MOL0     H62741  12.214   9.315   4.428  0.8394 -1.4628 -1.1132
  465MOL0     H62742  12.162   9.430   4.306  1.4000  0.7645 -1.7366
  465MOL0     H62743  12.410   9.497   4.259 -0.9809 -0.8210 -2.0769
  465MOL0     H62744  12.445   9.354   4.366  0.8328 -2.2650 -0.1812
  465MOL0     H62745  12.450   9.296   4.130 -1.3829  0.8688 -1.9187
  465MOL0     H62746  12.288   9.356   4.108 -0.8270 -1.6753  0.5641
  465MOL0     H62747  12.217   9.161   4.272  0.4358  0.5838  0.1272
  465MOL0     H62748  12.382   9.118   4.277  1.6959  0.2699 -0.4843
  465MOL0     H62749  12.203   9.159   4.023  0.8987  1.0552  0.7067
  465MOL0     H62750  12.359   9.092   4.015 -3.1434 -2.2798 -3.4231
  465MOL0     H62751  12.101   8.971   4.114 -0.7397  3.4486 -0.9672
  465MOL0     H62752  12.255   8.916   4.185 -0.6993  0.8723  0.1765
  465MOL0     H62753  12.196   8.945   3.888 -0.6370 -1.3052  0.6558
  465MOL0     H62754  12.334   8.872   3.956 -0.2066  0.8890 -2.1352
  465MOL0     H62755  11.931   9.347   4.578 -1.0164 -1.2951 -1.7443
  465MOL0     H62756  11.716   9.397   4.506 -1.3837  1.5536  2.2220
  465MOL0     H62757  11.261   9.487   4.402 -2.5792  2.1455  0.4548
  465MOL0     H62758  11.073   9.553   4.296  0.8515  0.5698  2.5126
  465MOL0     H62759   9.117  10.312   3.702 -1.1338  0.9814 -1.2024
  465MOL0     H62760   8.889  10.378   3.719  1.8756 -0.0973 -2.0265
  465MOL0     H62761   8.504  10.589   4.020 -1.0378 -0.2832  0.4692
  465MOL0     H62762   8.268  10.630   4.015  4.4088  1.5908 -1.8046
  465MOL0     H62763   8.012  10.276   4.041  0.4708 -1.4799  0.1321
  465MOL0     H62764   7.985  10.308   3.865 -0.6331  0.5516  0.1807
  465MOL0     H62765   7.769  10.331   3.993  1.1273 -1.9229 -1.3483
  465MOL0     H62766   7.833  10.471   3.894 -2.1539 -1.0030  0.0560
  465MOL0     H62767   7.894  10.571   4.103  0.4497  0.6738 -1.0722
  465MOL0     H62768   7.854  10.418   4.200  4.3085 -1.0302 -2.0970
  465MOL0     H62769   7.677  10.639   4.164 -3.7805  0.4254 -0.9675
  465MOL0     H62770   7.621  10.538   4.042  0.5204  0.9062 -1.5316
  465MOL0     H62771   7.454  10.296   4.331 -2.2945 -2.7765 -3.5675
  465MOL0     H62772   8.195  10.221   3.910  0.3642 -0.6433  1.5727
  465MOL0     H62773   8.521  10.130   3.816 -0.4872  1.3515 -0.0998
  465MOL0     H62774   8.466  10.073   3.974  0.7450  1.6567  1.8945
  465MOL0     H62775   8.351  10.094   3.834  0.6883 -1.9514  2.1475
  466MOL0     O62776   0.302   6.469  11.287 -1.2867  0.6256 -0.5446
  466MOL0     C62777   0.277   6.553  11.205  1.4806 -1.1330  0.5636
  466MOL0     O62778   0.345   6.673  11.183  0.2529  0.6808 -0.4841
  466MOL0     C62779   0.452   6.697  11.269 -0.5198 -0.5911 -0.1885
  466MOL0     C62780   0.583   6.707  11.220 -0.1643  0.3874  0.0339
  466MOL0     C62781   0.680   6.745  11.310 -0.9631  0.5551 -0.4627
  466MOL0     C62782   0.661   6.775  11.448  0.7263  0.0485  0.7785
  466MOL0     O62783   0.759   6.808  11.534  0.0061  0.0762 -0.2094
  466MOL0     C62784   0.873   6.892  11.483  0.4701  0.1581  0.8904
  466MOL0     C62785   0.962   6.919  11.609 -0.1963  0.9120 -0.3086
  466MOL0     C62786   1.087   6.989  11.571  0.2880  0.2114 -0.3820
  466MOL0     C62787   1.207   6.965  11.661  0.1274  0.5345 -0.0743
  466MOL0     C62788   1.334   7.024  11.587  1.4621 -0.1494  0.2814
  466MOL0     C62789   1.467   7.002  11.654 -0.2507 -0.2671  0.0636
  466MOL0     C62790   1.557   7.128  11.669 -0.5207  0.1949 -1.1381
  466MOL0     C62791   1.620   7.150  11.529 -0.4552 -1.0392 -0.1719
  466MOL0     N62792   1.673   7.283  11.517  0.0573 -0.4599 -0.3043
  466MOL0     C62793   1.797   7.319  11.556  1.2637 -0.3725 -0.0732
  466MOL0     C62794   1.820   7.443  11.506  0.5447 -0.8863 -0.1422
  466MOL0     C62795   1.946   7.522  11.527 -0.0440  0.2107  0.4773
  466MOL0     C62796   1.937   7.647  11.613  0.0600 -0.6700 -0.1484
  466MOL0     C62797   1.914   7.600  11.759  1.0024 -0.2378 -0.3949
  466MOL0     C62798   2.023   7.639  11.862  0.0424  0.6535 -0.2827
  466MOL0     O62799   2.051   7.782  11.862 -0.3353  0.2897 -0.1948
  466MOL0     C62800   2.146   7.812  11.946  0.4155 -0.4180 -0.3523
  466MOL0     C62801   2.113   7.873  12.063  0.0858 -0.0553 -0.3059
  466MOL0     C62802   2.213   7.925  12.143 -0.6012  0.0127 -0.4303
  466MOL0     C62803   2.346   7.927  12.102 -0.4981 -0.8699  0.1080
  466MOL0     C62804   2.455   8.006  12.159 -0.1821 -0.3000 -0.4514
  466MOL0     O62805   2.568   8.023  12.090 -0.0170 -0.2700 -0.2720
  466MOL0     C62806   2.667   8.118  12.108  0.0718  0.0933  0.0938
  466MOL0     C62807   2.762   8.106  12.008 -0.4618 -0.5440 -0.2764
  466MOL0     C62808   2.868   8.191  12.021  0.1534 -0.0751  0.0653
  466MOL0     C62809   2.884   8.290  12.114 -0.3387 -0.3433 -1.1042
  466MOL0     O62810   3.005   8.360  12.110  0.4324  0.1982  0.2622
  466MOL0     C62811   3.097   8.330  12.219 -0.4249 -0.1049  0.8267
  466MOL0     C62812   3.234   8.349  12.174  0.1511  0.7100  0.4081
  466MOL0     C62813   3.264   8.292  12.035 -0.5936  0.1787  1.1643
  466MOL0     C62814   3.419   8.288  12.018 -1.0351 -0.1338 -0.4006
  466MOL0     C62815   3.455   8.293  11.861  0.2768  0.1907 -0.3022
  466MOL0     C62816   3.418   8.176  11.782  0.5963  1.0689 -0.7853
  466MOL0     C62817   3.475   8.189  11.640  0.2335  0.1929 -0.0384
  466MOL0     C62818   3.462   8.058  11.554 -0.0089 -0.2597  0.5602
  466MOL0    Cl62819   3.511   8.110  11.392  0.1213  0.5593  0.2281
  466MOL0     C62820   2.794   8.295  12.222  0.4731 -0.6630 -0.1512
  466MOL0     C62821   2.680   8.212  12.209 -0.6520 -0.0361 -0.3068
  466MOL0     O62822   2.432   8.054  12.265  0.3161 -0.2168 -0.0422
  466MOL0     C62823   2.378   7.855  11.987 -0.7817  1.0859 -0.0852
  466MOL0     C62824   2.286   7.789  11.915  0.5458 -0.0857 -0.1961
  466MOL0     N62825   1.706   7.478  11.436  0.5241 -0.3864 -0.2668
  466MOL0     N62826   1.624   7.382  11.439  0.6377  0.1415  0.2677
  466MOL0     C62827   0.522   6.783  11.487  0.3467 -0.4376 -1.3398
  466MOL0     C62828   0.417   6.738  11.404  0.4765  0.0239 -0.2485
  466MOL0     C62829   0.175   6.526  11.106 -0.0306 -0.2511 -0.0371
  466MOL0     C62830   0.049   6.502  11.148  1.0293  0.0287  0.0229
  466MOL0     C62831  -0.051   6.468  11.058  0.2029  0.0111  0.1428
  466MOL0     C62832  -0.030   6.468  10.917 -0.2507  0.0731  0.0920
  466MOL0     O62833  -0.124   6.430  10.823  0.2135 -0.7849 -0.0134
  466MOL0     C62834  -0.258   6.387  10.862 -0.2479 -0.5783 -0.2130
  466MOL0     C62835  -0.352   6.355  10.752 -0.7430 -0.8803  0.1144
  466MOL0     C62836  -0.485   6.286  10.808  0.0798 -0.4809  0.0949
  466MOL0     C62837  -0.578   6.230  10.702 -0.0805 -0.4055  1.0003
  466MOL0     C62838  -0.713   6.186  10.756 -0.2488  0.0371 -0.0399
  466MOL0     C62839  -0.824   6.174  10.808  0.2945 -0.6054  0.7974
  466MOL0     C62840   0.098   6.488  10.873 -1.2197 -0.4487  0.0120
  466MOL0     C62841   0.206   6.511  10.967  0.6891  0.9539  0.2153
  466MOL0     C62842   0.342   6.535  10.909 -1.3661  0.3708 -0.1405
  466MOL0     H62843   0.609   6.683  11.118  1.4575  0.7781  0.3160
  466MOL0     H62844   0.782   6.729  11.276 -1.5800 -3.7949 -0.7810
  466MOL0     H62845   0.931   6.838  11.409 -0.0832 -2.8963  2.5354
  466MOL0     H62846   0.840   6.982  11.429 -0.3941 -1.0370 -0.6426
  466MOL0     H62847   0.984   6.821  11.652 -2.2778  0.7471  0.5219
  466MOL0     H62848   0.904   6.971  11.686  0.0674 -1.1944  1.4218
  466MOL0     H62849   1.071   7.097  11.573 -0.7400  0.0948  2.6294
  466MOL0     H62850   1.117   6.953  11.472  1.9888  0.1056  0.1353
  466MOL0     H62851   1.192   7.018  11.756  2.6930  0.7754  0.2803
  466MOL0     H62852   1.223   6.862  11.696 -0.2426  0.5722  0.2137
  466MOL0     H62853   1.338   6.986  11.484 -0.8255 -0.6050  0.2954
  466MOL0     H62854   1.318   7.130  11.563 -3.8631 -0.9949 -1.4411
  466MOL0     H62855   1.449   6.954  11.751  2.1553 -0.6124  0.3982
  466MOL0     H62856   1.510   6.917  11.601  0.4608 -0.0085  0.2149
  466MOL0     H62857   1.633   7.107  11.745 -3.8309 -2.0127  1.9242
  466MOL0     H62858   1.506   7.221  11.695 -0.2200  0.5770 -1.8914
  466MOL0     H62859   1.685   7.066  11.501 -1.4518 -1.9991  0.3138
  466MOL0     H62860   1.532   7.145  11.465  0.9503  1.9236 -2.5878
  466MOL0     H62861   1.873   7.259  11.606  1.2317 -0.8254 -0.5563
  466MOL0     H62862   2.017   7.454  11.575 -0.2159  1.5271  2.7974
  466MOL0     H62863   1.983   7.553  11.429 -0.2864  0.9706  0.6138
  466MOL0     H62864   2.031   7.702  11.605 -0.3524  0.0657 -0.0641
  466MOL0     H62865   1.855   7.715  11.589 -0.3866 -0.6538  1.2744
  466MOL0     H62866   1.909   7.491  11.767 -0.4509 -0.1364  0.5073
  466MOL0     H62867   1.821   7.648  11.790  1.5387 -0.2518  1.3280
  466MOL0     H62868   2.119   7.594  11.832  0.3326 -0.1503  1.6820
  466MOL0     H62869   2.001   7.607  11.964 -1.0293  0.9231 -0.4223
  466MOL0     H62870   2.011   7.870  12.098  0.5435 -0.4423  1.0312
  466MOL0     H62871   2.174   7.968  12.235 -2.1534 -0.2515 -0.9440
  466MOL0     H62872   2.749   8.033  11.929  1.2007  0.1875 -1.2612
  466MOL0     H62873   2.940   8.196  11.940 -1.6919  1.7186 -1.6121
  466MOL0     H62874   3.076   8.407  12.295 -2.6394  1.4281 -1.1794
  466MOL0     H62875   3.086   8.228  12.255  0.6253  0.1214  1.8497
  466MOL0     H62876   3.255   8.456  12.167  2.8153  0.1740 -1.8372
  466MOL0     H62877   3.303   8.313  12.251 -1.3585 -1.5720  0.7796
  466MOL0     H62878   3.223   8.192  12.017 -0.9257  0.3054  1.2109
  466MOL0     H62879   3.221   8.372  11.974 -0.5761  0.0419  0.9727
  466MOL0     H62880   3.463   8.191  12.043  0.9200  0.4817 -1.1942
  466MOL0     H62881   3.474   8.366  12.073 -0.1516 -1.7281  1.0726
  466MOL0     H62882   3.562   8.312  11.845  0.1476  0.6447 -0.6665
  466MOL0     H62883   3.412   8.384  11.819  0.5937 -0.9303 -3.3017
  466MOL0     H62884   3.467   8.084  11.814 -0.7284  1.1090  1.6070
  466MOL0     H62885   3.310   8.159  11.771  0.9277 -1.4044 -0.6123
  466MOL0     H62886   3.583   8.200  11.638  0.6307 -2.7911  0.4605
  466MOL0     H62887   3.418   8.270  11.594 -1.0200 -1.5353 -1.6808
  466MOL0     H62888   3.512   7.966  11.585 -1.8377 -1.1309  1.0695
  466MOL0     H62889   3.356   8.033  11.544  0.1363 -0.2133 -1.5255
  466MOL0     H62890   2.815   8.348  12.314 -3.9914  3.1547 -0.9547
  466MOL0     H62891   2.620   8.204  12.299 -0.4547  0.9449 -0.0817
  466MOL0     H62892   2.478   7.832  11.952 -1.9477 -2.2397 -1.6232
  466MOL0     H62893   2.305   7.732  11.825  0.6365 -0.8896  0.3319
  466MOL0     H62894   0.501   6.802  11.592  3.9755 -1.1794 -0.3577
  466MOL0     H62895   0.313   6.757  11.431  0.3920  3.1977 -2.3618
  466MOL0     H62896   0.035   6.510  11.255  0.4114 -0.8707  0.0193
  466MOL0     H62897  -0.149   6.428  11.082 -1.3429  0.7862 -4.0292
  466MOL0     H62898  -0.307   6.467  10.918 -2.2486 -0.2418 -2.3303
  466MOL0     H62899  -0.260   6.309  10.939  0.4953 -1.0463 -0.6528
  466MOL0     H62900  -0.296   6.276  10.700  0.0508  0.5441 -1.2602
  466MOL0     H62901  -0.365   6.439  10.683  0.5551  1.6560  2.7385
  466MOL0     H62902  -0.545   6.356  10.867  0.5221  0.2445 -0.2885
  466MOL0     H62903  -0.457   6.208  10.879  2.6082  1.9597  1.9840
  466MOL0     H62904  -0.588   6.305  10.623  1.4423 -0.0358  1.1281
  466MOL0     H62905  -0.532   6.142  10.655  2.2716  2.1322 -1.8698
  466MOL0     H62906  -0.915   6.171  10.863  0.3986  2.6548  1.3363
  466MOL0     H62907   0.109   6.464  10.768  0.3801  2.1686 -0.5177
  466MOL0     H62908   0.402   6.444  10.909  1.0763  1.8899 -1.3290
  466MOL0     H62909   0.335   6.584  10.812 -2.3447 -1.3814 -1.0063
  466MOL0     H62910   0.392   6.608  10.974 -1.0528 -2.1257  2.6657
  467MOL0     O62911   0.299  10.983   3.123  0.0742  0.6959  0.1470
  467MOL0     C62912   0.218  10.896   3.156 -0.3402 -0.4358 -0.0489
  467MOL0     O62913   0.241  10.764   3.167  0.7010 -0.1263  0.2498
  467MOL0     C62914   0.365  10.728   3.126 -0.0243 -0.2657  0.4910
  467MOL0     C62915   0.398  10.715   2.989  0.3709  0.6700 -0.0350
  467MOL0     C62916   0.520  10.663   2.953  0.7829  1.2968 -0.3831
  467MOL0     C62917   0.625  10.624   3.039  0.7423 -0.3649 -0.2219
  467MOL0     O62918   0.745  10.582   2.987  0.9005  0.7616 -0.2616
  467MOL0     C62919   0.853  10.544   3.078  0.6115  0.0107 -0.2083
  467MOL0     C62920   0.983  10.575   2.997 -0.6478  0.5578 -0.5272
  467MOL0     C62921   1.110  10.597   3.085  0.0751 -0.4950 -0.3674
  467MOL0     C62922   1.187  10.476   3.120  0.0432 -0.5153 -0.3392
  467MOL0     C62923   1.328  10.518   3.174 -0.6115 -0.7296  0.4669
  467MOL0     C62924   1.418  10.399   3.195 -0.4274 -0.2570  0.0943
  467MOL0     C62925   1.376  10.319   3.316  0.8394 -0.1385 -0.0532
  467MOL0     C62926   1.390  10.165   3.285 -0.0239  0.2743 -0.0354
  467MOL0     N62927   1.531  10.109   3.259  0.4116 -0.2504  1.3019
  467MOL0     C62928   1.646  10.175   3.291 -0.7494 -0.2409 -1.0508
  467MOL0     C62929   1.749  10.101   3.241 -0.4486 -0.0441 -0.5945
  467MOL0     C62930   1.895  10.140   3.259 -1.1288 -0.1173 -0.1895
  467MOL0     C62931   2.004  10.037   3.207 -0.2048  0.2500 -0.7213
  467MOL0     C62932   2.144  10.092   3.254  0.2256  0.5267 -0.3029
  467MOL0     C62933   2.249   9.979   3.231 -0.0523 -0.3706  0.5122
  467MOL0     O62934   2.382  10.030   3.212 -0.8383  0.5470 -0.1987
  467MOL0     C62935   2.493   9.940   3.186  0.3289  0.6502  0.5404
  467MOL0     C62936   2.489   9.802   3.191  1.1776 -0.5066  0.2642
  467MOL0     C62937   2.600   9.726   3.163  0.6451 -0.3606 -0.3930
  467MOL0     C62938   2.720   9.792   3.127 -0.5685  0.4655  0.7001
  467MOL0     C62939   2.848   9.717   3.108  0.1275  0.2423 -0.2622
  467MOL0     O62940   2.967   9.793   3.127  0.6636  0.2813  0.3394
  467MOL0     C62941   3.092   9.737   3.114  0.4419 -0.2632 -0.3310
  467MOL0     C62942   3.193   9.765   3.205 -0.4576  0.5956  0.1353
  467MOL0     C62943   3.315   9.703   3.201 -0.7516  0.6408 -0.2846
  467MOL0     C62944   3.352   9.621   3.094  0.3073  0.4532 -0.1659
  467MOL0     O62945   3.468   9.557   3.100  0.0125 -0.0923 -0.3477
  467MOL0     C62946   3.582   9.625   3.140  0.1071  0.7864 -0.0794
  467MOL0     C62947   3.705   9.536   3.088 -0.2115 -0.1897 -0.3997
  467MOL0     C62948   3.835   9.561   3.158  0.4189 -1.1853  0.4991
  467MOL0     C62949   3.891   9.699   3.149  0.0208 -0.7504  0.2870
  467MOL0     C62950   4.033   9.727   3.207  0.6436  0.5105  0.1509
  467MOL0     C62951   4.092   9.851   3.158  0.5643 -0.2010  1.1593
  467MOL0     C62952   4.227   9.882   3.232  0.1093 -0.5740  0.2941
  467MOL0     C62953   4.304   9.999   3.158  0.3319 -0.5864  0.4267
  467MOL0    Cl62954   4.445  10.029   3.267 -0.0837  0.1447 -0.2787
  467MOL0     C62955   3.254   9.593   2.995  0.9155  0.7833  0.4926
  467MOL0     C62956   3.124   9.656   3.007  0.1781  0.4121  0.2319
  467MOL0     O62957   2.846   9.598   3.073 -0.4441 -0.3843 -0.8714
  467MOL0     C62958   2.723   9.933   3.140 -0.5647 -0.4970 -0.5968
  467MOL0     C62959   2.613  10.010   3.172  0.5383 -0.2990 -0.8166
  467MOL0     N62960   1.684   9.993   3.176  1.0089 -0.1900 -0.2880
  467MOL0     N62961   1.555  10.000   3.182  1.3179  0.2376  0.4167
  467MOL0     C62962   0.586  10.632   3.177 -1.2325 -0.4827  0.8282
  467MOL0     C62963   0.457  10.683   3.210 -0.3741  0.3350 -0.3722
  467MOL0     C62964   0.077  10.948   3.163 -0.6578  0.1175 -0.6883
  467MOL0     C62965  -0.005  10.901   3.060 -0.0136 -0.5915 -0.4086
  467MOL0     C62966  -0.136  10.933   3.054 -0.0182  0.5784  0.1897
  467MOL0     C62967  -0.192  11.012   3.159  0.7277 -0.8316 -0.7294
  467MOL0     O62968  -0.324  11.036   3.180  0.0835 -0.3499  0.0136
  467MOL0     C62969  -0.413  10.960   3.089 -0.8251 -0.5768  0.1209
  467MOL0     C62970  -0.553  10.964   3.146  0.0497 -0.4907  1.4285
  467MOL0     C62971  -0.656  10.880   3.065  0.1584  0.3175  0.0754
  467MOL0     C62972  -0.795  10.873   3.137  0.5697 -0.5409 -0.5113
  467MOL0     C62973  -0.886  10.984   3.091 -0.2305  0.6804  0.1577
  467MOL0     C62974  -0.952  11.065   3.030  0.0394  0.2423  0.0437
  467MOL0     C62975  -0.107  11.066   3.255  0.2042  0.2316 -0.4482
  467MOL0     C62976   0.027  11.032   3.261  0.8515  0.3122 -0.3641
  467MOL0     C62977   0.107  11.105   3.365  0.4024 -0.7402  0.6260
  467MOL0     H62978   0.336  10.745   2.905  1.5822  2.5852 -0.3039
  467MOL0     H62979   0.544  10.648   2.848 -1.6455 -1.8934 -0.6319
  467MOL0     H62980   0.863  10.595   3.174 -0.4467 -1.2514  0.6089
  467MOL0     H62981   0.840  10.436   3.093 -0.8731  0.1252 -0.5342
  467MOL0     H62982   0.958  10.670   2.948 -2.0714  0.8763  0.7433
  467MOL0     H62983   1.005  10.501   2.920 -0.8933 -0.1760  0.0990
  467MOL0     H62984   1.079  10.654   3.173 -1.1889  0.7337 -1.5593
  467MOL0     H62985   1.174  10.661   3.025 -0.6434 -0.9837 -1.6935
  467MOL0     H62986   1.132  10.426   3.200 -0.9399  2.1178  0.7380
  467MOL0     H62987   1.210  10.419   3.029  1.1826 -1.8481  0.7395
  467MOL0     H62988   1.381  10.588   3.109 -0.6993 -2.7618 -1.9817
  467MOL0     H62989   1.304  10.563   3.271  0.8178 -0.8944  0.9247
  467MOL0     H62990   1.416  10.335   3.106  0.5086 -0.3211  0.1102
  467MOL0     H62991   1.520  10.440   3.200  0.4363 -1.5461 -3.5960
  467MOL0     H62992   1.269  10.328   3.339  0.8773 -0.2304  0.1626
  467MOL0     H62993   1.423  10.361   3.405 -0.2653  3.6582 -1.0712
  467MOL0     H62994   1.354  10.115   3.376  0.3741  1.6888  0.9338
  467MOL0     H62995   1.322  10.135   3.206  1.6595 -2.2434 -0.6405
  467MOL0     H62996   1.670  10.272   3.333  4.6513 -2.4310  2.0973
  467MOL0     H62997   1.913  10.240   3.216  1.3989 -0.5230 -0.1952
  467MOL0     H62998   1.916  10.152   3.365 -1.3261 -2.1571  0.1188
  467MOL0     H62999   1.985   9.933   3.233 -0.6899 -0.3520 -3.2286
  467MOL0     H63000   2.009  10.034   3.098  0.6815 -0.8331 -0.6706
  467MOL0     H63001   2.144  10.114   3.361 -1.4181  1.3787 -0.4483
  467MOL0     H63002   2.176  10.176   3.191  1.5319  0.3108  0.0415
  467MOL0     H63003   2.220   9.947   3.130 -1.2897  0.5143  0.5728
  467MOL0     H63004   2.244   9.897   3.304 -0.9457 -0.5256  0.2825
  467MOL0     H63005   2.391   9.757   3.205  0.1946  1.5939  0.5207
  467MOL0     H63006   2.601   9.619   3.176 -0.5063 -0.3121  0.2338
  467MOL0     H63007   3.179   9.836   3.286  0.5544 -0.6061  1.4254
  467MOL0     H63008   3.378   9.742   3.280 -2.9729  2.0489  0.9117
  467MOL0     H63009   3.589   9.727   3.101 -0.1059  0.3717 -1.2162
  467MOL0     H63010   3.589   9.626   3.249 -0.2246 -0.2075 -0.0467
  467MOL0     H63011   3.677   9.433   3.111 -0.1827  0.1115  1.0901
  467MOL0     H63012   3.721   9.550   2.980  0.2058  0.2865 -0.2823
  467MOL0     H63013   3.815   9.540   3.263 -1.0921  0.0752  0.4906
  467MOL0     H63014   3.910   9.486   3.129  0.5235 -1.0125  0.3138
  467MOL0     H63015   3.819   9.764   3.199  0.3607 -1.0763  1.2219
  467MOL0     H63016   3.889   9.722   3.042 -4.0690 -1.3658  0.0646
  467MOL0     H63017   4.105   9.655   3.168  0.1649  0.2584 -0.2749
  467MOL0     H63018   4.029   9.727   3.317 -0.8959 -1.2812  0.1301
  467MOL0     H63019   4.105   9.844   3.049 -1.7426 -1.3086  0.8943
  467MOL0     H63020   4.013   9.926   3.168 -0.4641 -0.4913 -2.8144
  467MOL0     H63021   4.288   9.794   3.257  1.0106  0.0487  0.3550
  467MOL0     H63022   4.202   9.936   3.324  1.9272  4.6794 -1.9325
  467MOL0     H63023   4.337   9.979   3.056  0.0762 -0.6474  0.3563
  467MOL0     H63024   4.239  10.087   3.161  1.3238  0.1558  3.2354
  467MOL0     H63025   3.278   9.527   2.912 -0.4752  1.4164 -0.4475
  467MOL0     H63026   3.047   9.636   2.933  0.1975  0.9966  0.0456
  467MOL0     H63027   2.817   9.987   3.139 -1.3150  0.8620 -0.6154
  467MOL0     H63028   2.619  10.117   3.188 -0.5837 -0.2589 -0.5562
  467MOL0     H63029   0.651  10.587   3.252  0.3305 -0.4113 -0.4219
  467MOL0     H63030   0.424  10.668   3.312  2.9320  1.4021  0.9658
  467MOL0     H63031   0.032  10.846   2.973 -0.5055 -2.8764  0.7446
  467MOL0     H63032  -0.195  10.907   2.967 -1.2659  1.5237  0.7098
  467MOL0     H63033  -0.380  10.856   3.079 -0.6595 -0.5213  0.0607
  467MOL0     H63034  -0.408  11.004   2.989  0.6871  0.2097  0.5107
  467MOL0     H63035  -0.585  11.068   3.136  0.4578 -0.4826 -0.2311
  467MOL0     H63036  -0.554  10.936   3.251  0.4526 -1.1248  1.2731
  467MOL0     H63037  -0.617  10.778   3.060  0.7932  0.5589 -0.1696
  467MOL0     H63038  -0.673  10.925   2.966  1.7294 -0.7185 -0.7207
  467MOL0     H63039  -0.834  10.777   3.101 -0.7568 -0.4488  0.5952
  467MOL0     H63040  -0.792  10.868   3.246  0.6054  0.3080 -0.4691
  467MOL0     H63041  -0.999  11.120   2.952  2.4494  3.0532  0.3880
  467MOL0     H63042  -0.153  11.128   3.331  0.4693 -1.3498  1.0619
  467MOL0     H63043   0.133  11.205   3.327 -2.4305  0.2133  0.9997
  467MOL0     H63044   0.058  11.135   3.458  2.6590  2.3407  1.0122
  467MOL0     H63045   0.199  11.050   3.389  0.4569 -1.0439 -0.2777
  468MOL0     O63046   4.506   5.114   4.055 -0.8360 -0.0839 -0.3929
  468MOL0     C63047   4.424   5.060   3.978 -0.3807  1.1547  0.8423
  468MOL0     O63048   4.453   4.979   3.879  0.2388 -0.3626  0.5278
  468MOL0     C63049   4.585   4.958   3.843 -0.2900  0.8080  0.0799
  468MOL0     C63050   4.666   5.066   3.794  0.0353  0.6740 -0.3335
  468MOL0     C63051   4.794   5.046   3.761 -1.1428 -0.8614  0.7768
  468MOL0     C63052   4.851   4.916   3.768 -0.3553 -0.2153  0.4037
  468MOL0     O63053   4.988   4.912   3.753 -1.0120  0.1164 -0.5078
  468MOL0     C63054   5.059   4.788   3.762 -0.0840  0.0410 -0.5780
  468MOL0     C63055   5.203   4.837   3.727 -0.3392  0.3905  0.1421
  468MOL0     C63056   5.306   4.717   3.755  0.2673 -0.6024 -0.3434
  468MOL0     C63057   5.441   4.743   3.692  0.3186 -0.5329 -0.2713
  468MOL0     C63058   5.546   4.653   3.750 -0.2129  0.4070 -1.0942
  468MOL0     C63059   5.690   4.674   3.702 -0.3844 -0.1033  0.4142
  468MOL0     C63060   5.790   4.589   3.778  0.7857  0.5908  0.6505
  468MOL0     C63061   5.758   4.445   3.770 -0.0232 -0.5854 -0.6402
  468MOL0     N63062   5.880   4.374   3.831 -0.7520 -0.2983 -0.3345
  468MOL0     C63063   5.977   4.309   3.759 -0.0209  0.3410 -0.1291
  468MOL0     C63064   6.071   4.288   3.856 -0.3505  0.3199  1.3586
  468MOL0     C63065   6.196   4.224   3.818 -0.2961 -0.2093 -0.2305
  468MOL0     C63066   6.290   4.286   3.719  0.5841  0.0267 -0.2984
  468MOL0     C63067   6.421   4.207   3.713 -0.3120  0.3258 -0.4019
  468MOL0     C63068   6.527   4.227   3.826 -0.4016 -0.5386  1.4077
  468MOL0     O63069   6.659   4.199   3.772 -0.1745 -0.0903 -0.7109
  468MOL0     C63070   6.766   4.178   3.855  0.6301  1.0232 -0.5093
  468MOL0     C63071   6.775   4.214   3.988  0.2508  0.4915 -0.0712
  468MOL0     C63072   6.887   4.178   4.063 -0.8698  0.6843  0.0594
  468MOL0     C63073   6.993   4.099   4.008  0.3943 -0.3596 -0.3523
  468MOL0     C63074   7.089   4.042   4.098 -0.5780 -0.8063  0.5844
  468MOL0     O63075   7.098   4.090   4.227 -0.1564 -0.0145 -0.1304
  468MOL0     C63076   7.198   4.069   4.312  0.3556  0.4524  0.2782
  468MOL0     C63077   7.331   4.035   4.278 -0.3615  1.1731  0.1116
  468MOL0     C63078   7.437   4.030   4.374 -0.7650  0.1307  0.3466
  468MOL0     C63079   7.411   4.050   4.507  0.3170 -0.1860  0.6737
  468MOL0     O63080   7.497   4.025   4.614  0.5139 -0.1038 -0.4461
  468MOL0     C63081   7.629   4.061   4.583 -0.7630 -0.1764  0.7081
  468MOL0     C63082   7.719   3.941   4.561 -0.2835  0.5665  0.9273
  468MOL0     C63083   7.718   3.852   4.687  0.3131 -0.4022  0.0006
  468MOL0     C63084   7.800   3.723   4.660 -0.0229 -0.4697 -0.0385
  468MOL0     C63085   7.848   3.648   4.782 -0.7662 -0.2375  0.8033
  468MOL0     C63086   7.960   3.732   4.847 -0.4612  0.1306 -0.0674
  468MOL0     C63087   8.018   3.662   4.976  0.4146  0.8694  0.5090
  468MOL0     C63088   8.142   3.741   5.030  0.6959  0.3649 -0.3419
  468MOL0    Cl63089   8.265   3.742   4.899  0.0046  0.1088  0.4966
  468MOL0     C63090   7.276   4.073   4.546  0.2610  0.6330 -0.4019
  468MOL0     C63091   7.172   4.088   4.455  0.0576  0.8107 -0.2961
  468MOL0     O63092   7.166   3.960   4.045  0.5125  0.2681  0.2075
  468MOL0     C63093   6.987   4.073   3.867 -0.2535  0.5704  0.8662
  468MOL0     C63094   6.875   4.112   3.791 -0.1893  0.2139  0.0195
  468MOL0     N63095   6.032   4.326   3.979 -0.3658  0.3392  0.0732
  468MOL0     N63096   5.914   4.377   3.962  0.0071 -0.0039 -0.1300
  468MOL0     C63097   4.774   4.814   3.822  0.3917 -0.3037 -0.4215
  468MOL0     C63098   4.638   4.835   3.861 -0.4775  0.6811  0.7993
  468MOL0     C63099   4.283   5.059   4.011  0.2019  0.4257  0.3036
  468MOL0     C63100   4.191   5.027   3.906 -0.1778  0.1222 -0.9846
  468MOL0     C63101   4.050   5.019   3.925  0.8649  0.5181  0.0389
  468MOL0     C63102   3.991   5.055   4.049 -0.2714  0.0210  0.5488
  468MOL0     O63103   3.854   5.060   4.062 -0.3597  0.0472  0.5384
  468MOL0     C63104   3.797   5.133   4.176 -0.0724 -0.2523 -0.3071
  468MOL0     C63105   3.796   5.062   4.311  0.4248 -0.7152  0.4171
  468MOL0     C63106   3.758   4.909   4.301 -0.0568  0.8848  0.0376
  468MOL0     C63107   3.615   4.881   4.256  0.1019  0.0247  1.0685
  468MOL0     C63108   3.531   4.904   4.369 -0.2387  0.3571  0.1364
  468MOL0     C63109   3.470   4.903   4.472 -0.3232 -0.5716 -1.0188
  468MOL0     C63110   4.088   5.074   4.156  0.6229  0.6293  0.8707
  468MOL0     C63111   4.227   5.088   4.135 -0.4756 -0.2287 -0.5938
  468MOL0     C63112   4.306   5.130   4.263  0.1958  0.2404  0.5935
  468MOL0     H63113   4.627   5.168   3.800 -0.6578  0.3155  2.9027
  468MOL0     H63114   4.853   5.133   3.736  1.0186 -2.0897  1.3646
  468MOL0     H63115   5.061   4.752   3.865  0.8956 -3.1846 -1.6381
  468MOL0     H63116   5.033   4.712   3.688  2.0484  0.8804 -2.3319
  468MOL0     H63117   5.236   4.926   3.782 -0.5333  1.5946 -1.6344
  468MOL0     H63118   5.197   4.860   3.621  0.1680 -0.9364 -0.2010
  468MOL0     H63119   5.267   4.622   3.715 -1.0982  0.0882 -0.7230
  468MOL0     H63120   5.316   4.708   3.864 -0.4828  0.3462 -0.1834
  468MOL0     H63121   5.426   4.741   3.584 -2.2673 -0.1054  0.0191
  468MOL0     H63122   5.461   4.849   3.706 -3.3209  0.3462 -0.6771
  468MOL0     H63123   5.536   4.654   3.858 -4.2418  0.8067 -1.3353
  468MOL0     H63124   5.513   4.554   3.718 -2.1835  1.8433 -3.9869
  468MOL0     H63125   5.704   4.669   3.594 -2.9557  2.1826 -0.1345
  468MOL0     H63126   5.711   4.780   3.721  1.6695  0.0457 -2.1576
  468MOL0     H63127   5.779   4.628   3.880 -0.3184  2.0125  0.0136
  468MOL0     H63128   5.889   4.609   3.735  0.5382  4.7585  1.5480
  468MOL0     H63129   5.672   4.424   3.833 -0.3629  0.0059 -0.9034
  468MOL0     H63130   5.737   4.429   3.664 -2.8183  0.1862 -0.2634
  468MOL0     H63131   5.988   4.276   3.656  1.2589  1.3310 -0.3300
  468MOL0     H63132   6.268   4.214   3.899  3.6881 -1.1155 -3.5476
  468MOL0     H63133   6.177   4.120   3.789  2.7394 -2.0950  3.6289
  468MOL0     H63134   6.245   4.278   3.620 -2.5396  1.5786  0.8598
  468MOL0     H63135   6.299   4.391   3.749 -0.6063  0.4113 -1.2167
  468MOL0     H63136   6.477   4.218   3.621  2.1184 -0.5527  0.8851
  468MOL0     H63137   6.394   4.101   3.707 -2.8529  0.7471  1.4873
  468MOL0     H63138   6.501   4.171   3.916  0.0766 -1.0676  1.2231
  468MOL0     H63139   6.524   4.334   3.849  1.8970 -0.2679  0.6762
  468MOL0     H63140   6.702   4.283   4.027 -0.0405  0.9638 -1.3921
  468MOL0     H63141   6.894   4.209   4.166  0.1198 -3.4039  1.4132
  468MOL0     H63142   7.350   4.013   4.174 -1.5902  0.6075 -0.0064
  468MOL0     H63143   7.536   4.002   4.339 -1.2446 -1.8381  0.4635
  468MOL0     H63144   7.631   4.124   4.493 -2.0366 -1.1657 -0.0471
  468MOL0     H63145   7.675   4.116   4.665  3.0417 -2.4101  0.3054
  468MOL0     H63146   7.678   3.872   4.486  2.1122 -3.1375  2.7702
  468MOL0     H63147   7.814   3.985   4.533 -1.3926  1.5575 -1.5904
  468MOL0     H63148   7.760   3.907   4.772  1.4794  0.7340 -1.2808
  468MOL0     H63149   7.615   3.828   4.716  0.6003  0.5538  2.0090
  468MOL0     H63150   7.886   3.754   4.599 -0.3416 -0.5366 -0.5290
  468MOL0     H63151   7.752   3.651   4.593  1.1329 -0.4877 -0.8735
  468MOL0     H63152   7.898   3.556   4.753 -0.7450  0.8385 -3.2160
  468MOL0     H63153   7.758   3.632   4.842 -2.0256 -0.1996 -1.0103
  468MOL0     H63154   8.033   3.758   4.770 -3.1702  1.3557 -2.3934
  468MOL0     H63155   7.919   3.825   4.886 -3.9339  0.2780 -3.4412
  468MOL0     H63156   8.041   3.556   4.966  0.6486  1.1200 -3.5470
  468MOL0     H63157   7.934   3.659   5.045  0.4349 -2.2456  0.5279
  468MOL0     H63158   8.097   3.839   5.049 -0.0417 -0.1956  0.8633
  468MOL0     H63159   8.171   3.688   5.121 -1.5558  1.3484  1.0381
  468MOL0     H63160   7.256   4.088   4.652 -0.3377 -0.4652 -0.3448
  468MOL0     H63161   7.069   4.097   4.488  0.3984 -2.3805  2.1688
  468MOL0     H63162   7.068   4.013   3.827 -0.0639  1.5020 -0.2051
  468MOL0     H63163   6.879   4.073   3.690  2.4001 -0.5806  0.3645
  468MOL0     H63164   4.821   4.718   3.843 -1.2174 -1.4080 -1.5637
  468MOL0     H63165   4.569   4.764   3.906 -0.7319  0.4803  0.0946
  468MOL0     H63166   4.241   5.005   3.812  3.6367  0.4072  0.8062
  468MOL0     H63167   3.976   4.998   3.848  0.8415  0.0205  0.1943
  468MOL0     H63168   3.694   5.165   4.158  0.0610  0.9876  0.9778
  468MOL0     H63169   3.862   5.220   4.188 -0.4318  0.3314 -2.2660
  468MOL0     H63170   3.710   5.114   4.355 -1.0055 -1.3226 -1.4939
  468MOL0     H63171   3.887   5.076   4.369  0.6914 -1.9103  0.3251
  468MOL0     H63172   3.773   4.862   4.399  0.1626  0.9412  0.0321
  468MOL0     H63173   3.839   4.862   4.244  0.4214  1.7305 -0.0077
  468MOL0     H63174   3.582   4.945   4.174  1.4359 -0.8350 -0.1909
  468MOL0     H63175   3.593   4.778   4.224 -1.7969  1.3402 -2.3493
  468MOL0     H63176   3.406   4.891   4.557 -2.9245 -0.9158 -2.9001
  468MOL0     H63177   4.042   5.106   4.249 -0.5345  0.8729  0.2397
  468MOL0     H63178   4.331   5.236   4.253 -2.6003  0.7816 -2.9147
  468MOL0     H63179   4.248   5.122   4.355  1.1250 -1.1930  1.0881
  468MOL0     H63180   4.400   5.075   4.273  0.0562 -0.1914 -0.3125
  469MOL0     O63181   1.956   6.690   6.500 -0.6649  0.3479 -0.1005
  469MOL0     C63182   1.897   6.583   6.501  0.0352 -0.3189  0.4724
  469MOL0     O63183   1.965   6.460   6.496 -0.0777 -0.8545  0.6799
  469MOL0     C63184   2.103   6.461   6.474 -0.1019  0.6726 -0.3356
  469MOL0     C63185   2.154   6.399   6.355 -0.1475  0.1491  0.1812
  469MOL0     C63186   2.291   6.413   6.316  0.0493 -0.3482  0.6124
  469MOL0     C63187   2.388   6.474   6.398  0.1261  0.0220 -0.0713
  469MOL0     O63188   2.526   6.464   6.360 -0.0782  0.3632 -0.4167
  469MOL0     C63189   2.581   6.341   6.307 -0.4377 -0.3566  0.3841
  469MOL0     C63190   2.730   6.335   6.316  0.6186 -0.3741  0.0276
  469MOL0     C63191   2.782   6.199   6.295 -0.2479  0.2979 -0.8669
  469MOL0     C63192   2.926   6.187   6.350  1.0449  0.4375 -0.0862
  469MOL0     C63193   2.986   6.059   6.290  0.0164 -0.4133  0.4835
  469MOL0     C63194   3.131   6.042   6.327 -0.6384  0.4422 -0.8848
  469MOL0     C63195   3.198   5.925   6.260 -0.2800  0.1094 -0.0340
  469MOL0     C63196   3.251   5.961   6.129  0.2721  0.1919  0.1899
  469MOL0     N63197   3.294   5.835   6.053 -0.4812  0.1618  0.1840
  469MOL0     C63198   3.420   5.779   6.042  0.2200  0.3665  0.2639
  469MOL0     C63199   3.392   5.668   5.961 -0.7980  0.2040  0.0742
  469MOL0     C63200   3.493   5.567   5.915  0.7975  0.4791  0.0895
  469MOL0     C63201   3.638   5.606   5.951 -0.1263  1.1312  0.4470
  469MOL0     C63202   3.720   5.503   5.871 -0.1258 -1.5923 -1.0276
  469MOL0     C63203   3.866   5.512   5.914 -0.1239  0.1637 -0.5996
  469MOL0     O63204   3.949   5.431   5.827 -0.2426  0.7525 -0.3581
  469MOL0     C63205   4.085   5.442   5.836  0.1007  0.3289 -0.6415
  469MOL0     C63206   4.164   5.350   5.766  0.9088  0.2022 -0.1977
  469MOL0     C63207   4.303   5.341   5.787 -0.0767  0.8205 -0.4441
  469MOL0     C63208   4.369   5.433   5.880  0.2559  0.3659 -0.1016
  469MOL0     C63209   4.514   5.423   5.889  0.4143 -0.5549 -1.0304
  469MOL0     O63210   4.578   5.318   5.847 -0.6707  0.0603 -0.3879
  469MOL0     C63211   4.713   5.294   5.876 -0.0882  0.3777 -0.1186
  469MOL0     C63212   4.796   5.368   5.962 -1.0713  0.3192 -1.0261
  469MOL0     C63213   4.939   5.339   5.966 -0.1982 -1.2213  0.0100
  469MOL0     C63214   4.991   5.236   5.888 -0.2700  0.4404 -0.0752
  469MOL0     O63215   5.124   5.204   5.885  1.0716  0.2576  0.1596
  469MOL0     C63216   5.196   5.151   6.002 -1.1149  0.2060 -0.5505
  469MOL0     C63217   5.310   5.061   5.966 -0.0208 -0.7084  0.4387
  469MOL0     C63218   5.384   5.023   6.095  1.0217 -0.3844 -0.9429
  469MOL0     C63219   5.532   5.007   6.079  0.1278  0.0607 -0.1864
  469MOL0     C63220   5.607   5.007   6.210 -0.4945  0.5406 -0.5942
  469MOL0     C63221   5.737   4.926   6.208 -0.2449 -0.1815  0.0061
  469MOL0     C63222   5.691   4.781   6.226 -0.1083  0.5919 -0.2686
  469MOL0     C63223   5.783   4.681   6.150 -0.2394 -0.0436  0.1895
  469MOL0    Cl63224   5.962   4.697   6.183 -0.2475  0.4453  0.2019
  469MOL0     C63225   4.907   5.155   5.807  0.4814  0.4566 -0.1428
  469MOL0     C63226   4.769   5.185   5.803 -0.2718 -0.7167 -0.1834
  469MOL0     O63227   4.573   5.524   5.939 -0.5379  0.2777 -0.0213
  469MOL0     C63228   4.290   5.536   5.935  0.4360  0.5323 -1.0804
  469MOL0     C63229   4.149   5.536   5.920  0.5247  0.6354  0.6852
  469MOL0     N63230   3.261   5.657   5.937 -0.3658  0.1823 -0.0738
  469MOL0     N63231   3.201   5.749   5.997  0.2091 -0.6266  0.3305
  469MOL0     C63232   2.342   6.533   6.523  0.2462 -0.3005  0.0411
  469MOL0     C63233   2.203   6.528   6.557  0.2415 -0.4377  0.0013
  469MOL0     C63234   1.751   6.576   6.526 -0.5319  0.1905  0.6997
  469MOL0     C63235   1.706   6.477   6.603  0.0907  0.4037 -0.7104
  469MOL0     C63236   1.568   6.459   6.646 -0.6630  0.8710  0.1672
  469MOL0     C63237   1.476   6.553   6.592  1.3769 -0.1130 -0.0744
  469MOL0     O63238   1.341   6.551   6.620  0.5296 -0.8077 -0.1060
  469MOL0     C63239   1.273   6.427   6.641 -0.1067  0.7028 -0.2463
  469MOL0     C63240   1.114   6.433   6.639  0.3642 -0.0768 -0.2315
  469MOL0     C63241   1.044   6.302   6.674  0.3662 -1.0267  0.3398
  469MOL0     C63242   0.888   6.314   6.677 -0.1214  0.2170 -1.0168
  469MOL0     C63243   0.830   6.186   6.664 -1.0116 -0.4883 -0.2436
  469MOL0     C63244   0.789   6.073   6.639  0.3302  0.4110 -0.5558
  469MOL0     C63245   1.519   6.652   6.509 -0.0189  0.4276  0.0243
  469MOL0     C63246   1.651   6.656   6.465  0.2161  0.3915  0.1095
  469MOL0     C63247   1.698   6.762   6.377  0.0933 -0.8349  0.7649
  469MOL0     H63248   2.091   6.348   6.283 -0.3104 -0.4502  0.7418
  469MOL0     H63249   2.325   6.377   6.219  2.5669  0.8123  0.9850
  469MOL0     H63250   2.537   6.256   6.361 -1.4956 -0.0969 -0.0367
  469MOL0     H63251   2.574   6.322   6.200  0.1159 -3.2727  0.7915
  469MOL0     H63252   2.755   6.370   6.417  2.6009 -1.2752 -0.1114
  469MOL0     H63253   2.788   6.390   6.241 -1.7772 -1.9394 -3.2091
  469MOL0     H63254   2.774   6.173   6.189  1.9217  0.3071 -1.0814
  469MOL0     H63255   2.721   6.123   6.345  0.5952  0.3574  0.2865
  469MOL0     H63256   2.994   6.270   6.330  0.5435  0.3144 -2.6796
  469MOL0     H63257   2.920   6.174   6.459 -0.2853 -3.8926 -0.4586
  469MOL0     H63258   2.935   5.968   6.326  0.4332 -0.6644  0.4497
  469MOL0     H63259   2.965   6.057   6.183 -2.9022 -0.2079  0.9618
  469MOL0     H63260   3.186   6.133   6.301  1.1654  0.2777  1.8836
  469MOL0     H63261   3.125   6.022   6.435  0.6394  1.6698 -0.5464
  469MOL0     H63262   3.119   5.853   6.236  2.3112 -3.6927  1.9124
  469MOL0     H63263   3.271   5.880   6.327  2.3318 -1.9655 -3.8609
  469MOL0     H63264   3.183   6.023   6.070  0.2504 -1.4123 -1.5779
  469MOL0     H63265   3.343   6.021   6.136  0.9873 -0.9056  0.5867
  469MOL0     H63266   3.520   5.818   6.062  0.0798 -0.3525  2.7346
  469MOL0     H63267   3.478   5.481   5.981 -0.2811  1.0620  0.6216
  469MOL0     H63268   3.473   5.538   5.811 -0.0907 -1.6202  0.7853
  469MOL0     H63269   3.666   5.707   5.919 -1.4524  1.2017 -0.5750
  469MOL0     H63270   3.639   5.609   6.060 -2.0350 -0.4988  0.5666
  469MOL0     H63271   3.719   5.548   5.772  0.9135  2.9026  0.7417
  469MOL0     H63272   3.685   5.399   5.867 -2.3849 -0.9904  0.9485
  469MOL0     H63273   3.877   5.485   6.019 -1.3726  1.5817 -0.0803
  469MOL0     H63274   3.898   5.615   5.899 -1.7002  0.2309 -5.3659
  469MOL0     H63275   4.116   5.286   5.693  2.4039  2.2229 -3.1245
  469MOL0     H63276   4.345   5.263   5.725 -3.2339  0.1074 -1.8916
  469MOL0     H63277   4.782   5.459   6.019 -0.8001 -0.7392  0.7754
  469MOL0     H63278   5.011   5.396   6.024 -0.4007 -1.1810  0.2243
  469MOL0     H63279   5.247   5.234   6.050 -0.3648  0.0553 -1.0691
  469MOL0     H63280   5.116   5.110   6.064 -0.2132 -0.6196  0.0913
  469MOL0     H63281   5.282   4.970   5.912  0.6760 -0.7924  0.2082
  469MOL0     H63282   5.375   5.122   5.903 -0.3757  0.5434  1.2517
  469MOL0     H63283   5.373   5.106   6.166 -1.0130  2.0224 -3.8269
  469MOL0     H63284   5.343   4.931   6.137 -0.7389  1.9495  3.0206
  469MOL0     H63285   5.575   5.096   6.031  1.0661 -0.1798  0.1749
  469MOL0     H63286   5.556   4.916   6.024  0.2357  0.1190 -0.2367
  469MOL0     H63287   5.541   4.964   6.286  0.1481  1.0629  0.2758
  469MOL0     H63288   5.629   5.111   6.234 -2.2379  0.8334 -0.1391
  469MOL0     H63289   5.795   4.934   6.116 -0.9391 -0.3316 -0.4579
  469MOL0     H63290   5.806   4.942   6.291 -0.8234 -0.7799  0.6121
  469MOL0     H63291   5.595   4.756   6.180  0.2139 -1.6764  0.1852
  469MOL0     H63292   5.679   4.765   6.334  0.2454 -0.4567 -0.3773
  469MOL0     H63293   5.755   4.583   6.190 -0.6840  0.2853  0.7004
  469MOL0     H63294   5.753   4.685   6.045 -2.9405 -3.0883  0.6669
  469MOL0     H63295   4.946   5.070   5.753  0.0015 -0.8818  1.5263
  469MOL0     H63296   4.707   5.121   5.741 -2.6679  1.0932  0.1744
  469MOL0     H63297   4.338   5.617   5.988  3.7581 -2.8936  1.7921
  469MOL0     H63298   4.097   5.621   5.962  1.0802 -0.1624  3.1264
  469MOL0     H63299   2.406   6.590   6.589  0.0884  0.7878 -0.7318
  469MOL0     H63300   2.152   6.579   6.639 -1.3397 -1.3272 -0.3818
  469MOL0     H63301   1.774   6.413   6.658 -0.0320  1.9639  1.4055
  469MOL0     H63302   1.544   6.382   6.719 -1.4713  0.8474 -0.1192
  469MOL0     H63303   1.294   6.393   6.743 -0.1701 -2.2998 -1.1442
  469MOL0     H63304   1.315   6.354   6.572 -2.0224 -2.6100  1.8284
  469MOL0     H63305   1.082   6.477   6.544  0.9525  1.1260  0.0995
  469MOL0     H63306   1.076   6.503   6.715 -0.1363 -1.6415  1.0289
  469MOL0     H63307   1.077   6.257   6.768 -0.5196 -0.4408  0.9489
  469MOL0     H63308   1.064   6.227   6.597 -1.6864 -1.4904  0.2092
  469MOL0     H63309   0.865   6.361   6.773 -1.7716 -1.4396 -0.5412
  469MOL0     H63310   0.855   6.375   6.593 -1.0386  2.0639  0.6082
  469MOL0     H63311   0.756   5.972   6.629  2.0206 -0.0451 -1.8008
  469MOL0     H63312   1.443   6.720   6.472  1.1394  2.5606  1.3874
  469MOL0     H63313   1.785   6.735   6.316  2.1612  1.2137  2.6152
  469MOL0     H63314   1.623   6.807   6.311 -0.0378  0.2527  1.6230
  469MOL0     H63315   1.745   6.840   6.437  0.0009  0.6496 -0.9882
  470MOL0     O63316   1.117  10.888   6.678 -0.1957  0.4337 -0.5073
  470MOL0     C63317   1.138  10.781   6.637 -0.0834 -0.2902  0.0998
  470MOL0     O63318   1.246  10.739   6.560  0.0596 -0.2309  0.2698
  470MOL0     C63319   1.341  10.821   6.534 -0.1858 -0.5116 -0.0373
  470MOL0     C63320   1.351  10.887   6.409 -0.4125 -0.0925  0.7470
  470MOL0     C63321   1.446  10.986   6.386 -0.2271 -0.8564 -0.3858
  470MOL0     C63322   1.544  11.013   6.483  0.5792  0.5354 -0.4293
  470MOL0     O63323   1.641  11.106   6.460  0.1252 -1.0826  0.0666
  470MOL0     C63324   1.662  11.145   6.325 -0.0654 -1.0248 -0.2502
  470MOL0     C63325   1.779  11.241   6.326  0.3537  0.4324 -0.5745
  470MOL0     C63326   1.831  11.268   6.187 -0.1453  0.9703 -0.5766
  470MOL0     C63327   1.946  11.369   6.188  0.3071 -0.2430 -0.0368
  470MOL0     C63328   1.970  11.419   6.051 -0.0059  0.0863  0.3468
  470MOL0     C63329   2.074  11.525   6.048  0.2869  0.4900  0.4859
  470MOL0     C63330   2.216  11.484   6.078  0.3333 -1.1165 -1.7492
  470MOL0     C63331   2.267  11.389   5.968 -0.1200  0.0248  0.8543
  470MOL0     N63332   2.413  11.352   5.992  0.6798  1.0844 -0.6348
  470MOL0     C63333   2.490  11.357   6.106 -0.9947 -0.5248  0.4590
  470MOL0     C63334   2.617  11.320   6.065 -0.1591 -0.4878 -0.4407
  470MOL0     C63335   2.734  11.332   6.159  0.5457  0.1851  0.1643
  470MOL0     C63336   2.834  11.215   6.168 -0.0244  0.0806 -0.4422
  470MOL0     C63337   2.893  11.197   6.028 -0.5966  1.1900  0.4764
  470MOL0     C63338   2.988  11.082   6.023  1.3321  0.1070 -0.3669
  470MOL0     O63339   3.102  11.096   6.113  0.5297  0.0930 -0.3765
  470MOL0     C63340   3.205  11.018   6.078 -0.4415  0.5878  0.9824
  470MOL0     C63341   3.215  10.906   5.983 -0.1538  0.0243  0.0425
  470MOL0     C63342   3.333  10.832   5.981  0.2277  0.3999  0.8732
  470MOL0     C63343   3.456  10.891   6.018  0.1564 -0.8979 -0.6912
  470MOL0     C63344   3.586  10.825   5.994 -0.2658 -0.8991  0.8251
  470MOL0     O63345   3.700  10.886   6.039  0.3286 -0.8178 -0.0698
  470MOL0     C63346   3.813  10.805   6.021  0.1295  0.5997 -0.2940
  470MOL0     C63347   3.874  10.778   5.901 -0.5924 -1.1179  0.4038
  470MOL0     C63348   3.981  10.696   5.886  0.2977  0.6371  0.8819
  470MOL0     C63349   4.035  10.638   5.996 -0.5950  1.4389 -0.7069
  470MOL0     O63350   4.145  10.550   6.000  0.2012  0.2459  0.7204
  470MOL0     C63351   4.257  10.601   5.935  0.0189 -0.0986  0.0302
  470MOL0     C63352   4.387  10.520   5.972 -0.2099 -0.4556  0.7424
  470MOL0     C63353   4.504  10.571   5.875  0.4739  0.5104 -0.8006
  470MOL0     C63354   4.627  10.483   5.891  0.4370  0.0594  0.3011
  470MOL0     C63355   4.717  10.540   5.786  1.0929  0.1088  0.5671
  470MOL0     C63356   4.842  10.457   5.781  0.7819  0.2150 -0.6367
  470MOL0     C63357   4.961  10.530   5.713 -0.3520 -0.2315 -0.1593
  470MOL0     C63358   5.020  10.645   5.793 -0.0303 -0.0968 -0.4632
  470MOL0    Cl63359   5.175  10.716   5.732 -0.0122  0.0056 -0.0065
  470MOL0     C63360   3.981  10.662   6.118  0.6325 -1.2180 -0.5212
  470MOL0     C63361   3.874  10.747   6.133  0.3522 -0.3441  0.5203
  470MOL0     O63362   3.575  10.718   5.941 -0.1351 -0.2096  0.3229
  470MOL0     C63363   3.449  11.010   6.093 -0.4552 -0.0813  0.5353
  470MOL0     C63364   3.326  11.066   6.132  0.3894 -0.9516  0.3174
  470MOL0     N63365   2.609  11.299   5.925 -0.2546 -0.0138 -0.3469
  470MOL0     N63366   2.491  11.310   5.888  0.3216 -1.0677  0.5645
  470MOL0     C63367   1.548  10.938   6.603 -0.1948  0.4823 -0.1805
  470MOL0     C63368   1.440  10.849   6.629  0.4729 -0.0163 -0.1271
  470MOL0     C63369   1.023  10.697   6.677  0.9949 -0.0241  0.5453
  470MOL0     C63370   0.999  10.692   6.813  0.2799  0.3160 -0.6816
  470MOL0     C63371   0.908  10.594   6.866  0.2326  0.2746  0.2671
  470MOL0     C63372   0.834  10.511   6.772  0.6555  0.0669 -0.4576
  470MOL0     O63373   0.748  10.418   6.825 -0.3866 -0.1328 -0.0028
  470MOL0     C63374   0.607  10.451   6.826  0.4080 -0.6236  0.5218
  470MOL0     C63375   0.570  10.502   6.962 -0.1979 -0.5727  0.1860
  470MOL0     C63376   0.420  10.513   6.982 -0.0702 -0.0778 -0.6582
  470MOL0     C63377   0.390  10.515   7.136  0.8476  0.1687  0.0901
  470MOL0     C63378   0.441  10.632   7.206 -0.0095 -1.3448  0.0226
  470MOL0     C63379   0.483  10.740   7.254 -0.4670  0.2249  0.5084
  470MOL0     C63380   0.860  10.516   6.641  0.2510 -0.0934  0.1536
  470MOL0     C63381   0.954  10.606   6.590  0.1172 -0.0987  0.2205
  470MOL0     C63382   0.986  10.601   6.438 -0.1498 -0.6337  0.2829
  470MOL0     H63383   1.269  10.879   6.339  1.5162  2.2576 -2.0118
  470MOL0     H63384   1.442  11.026   6.285  2.2324  2.0238  0.4943
  470MOL0     H63385   1.689  11.056   6.268  1.3946 -0.0927 -1.0721
  470MOL0     H63386   1.580  11.199   6.276  1.6307  1.5405 -0.4798
  470MOL0     H63387   1.851  11.202   6.398 -1.5369  1.7744  2.2358
  470MOL0     H63388   1.734  11.328   6.374 -1.3665 -1.2155  1.0140
  470MOL0     H63389   1.756  11.308   6.118  0.7533 -0.0746 -2.2160
  470MOL0     H63390   1.862  11.170   6.149  2.1319 -0.1905  3.6645
  470MOL0     H63391   1.911  11.449   6.255 -0.1986  0.3615 -1.0029
  470MOL0     H63392   2.036  11.334   6.240  0.4517 -0.8574 -0.6910
  470MOL0     H63393   2.004  11.336   5.988  1.8967  1.3829 -0.4401
  470MOL0     H63394   1.874  11.458   6.017 -0.8457 -0.8633  1.5259
  470MOL0     H63395   2.080  11.579   5.953 -0.6559  0.1579  0.2295
  470MOL0     H63396   2.046  11.595   6.128  0.6199  0.4719  0.6220
  470MOL0     H63397   2.235  11.444   6.178 -0.5456  1.5477 -0.4114
  470MOL0     H63398   2.278  11.574   6.082 -1.3000  0.0208 -0.4093
  470MOL0     H63399   2.211  11.295   5.960 -1.0355  0.2950  3.1941
  470MOL0     H63400   2.258  11.434   5.868  2.7866 -1.5594 -0.2457
  470MOL0     H63401   2.462  11.382   6.208  1.5590  0.5609  0.9571
  470MOL0     H63402   2.779  11.430   6.144 -1.6795  1.4628  1.3957
  470MOL0     H63403   2.691  11.326   6.259  0.0349 -1.0214 -0.1058
  470MOL0     H63404   2.915  11.236   6.239 -0.3582 -0.3663  0.0768
  470MOL0     H63405   2.780  11.121   6.185  1.0568 -0.6012 -0.6756
  470MOL0     H63406   2.938  11.292   5.998 -1.2569  1.8675  1.5658
  470MOL0     H63407   2.825  11.168   5.948  0.1808  0.8778 -0.0836
  470MOL0     H63408   3.011  11.066   5.918 -0.2275 -1.2913 -0.5333
  470MOL0     H63409   2.919  11.000   6.048  2.1948 -1.3033 -2.3573
  470MOL0     H63410   3.140  10.855   5.924  1.6174 -2.5172 -0.2027
  470MOL0     H63411   3.341  10.743   5.920 -1.4414  2.1091 -2.0628
  470MOL0     H63412   3.835  10.823   5.810  0.0326 -2.1596 -0.3992
  470MOL0     H63413   4.019  10.652   5.794  1.0907 -0.8505  1.8863
  470MOL0     H63414   4.240  10.620   5.828 -0.5950  1.4917  0.3702
  470MOL0     H63415   4.270  10.703   5.972  2.0135 -0.5630  0.6960
  470MOL0     H63416   4.415  10.531   6.077  1.0242 -1.1239  0.4988
  470MOL0     H63417   4.361  10.413   5.968  0.7551 -0.6579 -0.7540
  470MOL0     H63418   4.461  10.566   5.775  0.3508  2.5444 -0.8809
  470MOL0     H63419   4.525  10.677   5.894 -1.6016  1.0028 -0.9751
  470MOL0     H63420   4.600  10.379   5.872  0.7233 -0.0632  0.5759
  470MOL0     H63421   4.686  10.492   5.982 -0.0896 -0.9234  0.7513
  470MOL0     H63422   4.738  10.637   5.831  2.9906 -1.2797  2.9576
  470MOL0     H63423   4.660  10.543   5.693 -1.1248 -1.8373  1.7638
  470MOL0     H63424   4.866  10.420   5.881  2.6805 -1.8638 -1.7694
  470MOL0     H63425   4.832  10.365   5.723 -1.9470  0.7881 -1.2054
  470MOL0     H63426   4.931  10.566   5.614  1.4881  2.2563  0.1088
  470MOL0     H63427   5.043  10.462   5.690  0.6094  0.9017 -0.1461
  470MOL0     H63428   4.949  10.728   5.789 -0.0086 -0.0984 -1.0646
  470MOL0     H63429   5.036  10.614   5.896 -2.2026  1.0182  0.2632
  470MOL0     H63430   4.028  10.606   6.198 -1.0949 -0.5959  1.0208
  470MOL0     H63431   3.847  10.779   6.233  1.0516  1.4892  0.1715
  470MOL0     H63432   3.534  11.060   6.138 -0.5028  2.7319 -2.1425
  470MOL0     H63433   3.323  11.154   6.194  3.3272 -1.2654  1.0613
  470MOL0     H63434   1.631  10.958   6.669 -1.2342 -0.9513  1.6764
  470MOL0     H63435   1.434  10.799   6.725  4.3167  1.3983  1.0593
  470MOL0     H63436   1.054  10.762   6.876 -1.4110  0.0846  1.1476
  470MOL0     H63437   0.889  10.591   6.973  1.1943 -0.2945  0.4318
  470MOL0     H63438   0.553  10.356   6.818  3.1414 -2.2409 -0.0351
  470MOL0     H63439   0.573  10.510   6.740 -0.3768 -1.6077  0.1274
  470MOL0     H63440   0.605  10.606   6.972 -2.3514  0.0728  1.7569
  470MOL0     H63441   0.604  10.443   7.047 -1.1558 -0.1126  0.9046
  470MOL0     H63442   0.371  10.434   6.925 -1.0306 -0.0070  0.0620
  470MOL0     H63443   0.368  10.604   6.949 -3.4107 -1.7089 -0.2898
  470MOL0     H63444   0.284  10.507   7.159  0.6985 -2.0315 -1.0205
  470MOL0     H63445   0.436  10.426   7.181  0.6927 -0.3568 -0.7648
  470MOL0     H63446   0.513  10.831   7.301 -1.9730 -0.3710  2.7587
  470MOL0     H63447   0.809  10.446   6.575  1.1181 -1.4964  0.9140
  470MOL0     H63448   1.067  10.531   6.414  1.9416  2.1542 -1.4437
  470MOL0     H63449   0.896  10.575   6.381  1.1467 -0.0707 -2.1795
  470MOL0     H63450   1.021  10.698   6.402  1.0173 -0.1562  2.5344
  471MOL0     O63451   2.744   7.017   9.205  0.4295  0.2324  0.1525
  471MOL0     C63452   2.775   7.133   9.216  0.3126  0.0227  0.2241
  471MOL0     O63453   2.901   7.182   9.269  0.0700  0.6125 -0.3319
  471MOL0     C63454   3.012   7.102   9.273 -0.3918 -0.6593 -1.1170
  471MOL0     C63455   3.117   7.142   9.354 -0.3677 -0.0697  0.4541
  471MOL0     C63456   3.235   7.062   9.375  0.0744 -0.7655 -0.1355
  471MOL0     C63457   3.240   6.940   9.305 -0.2519  0.1830 -0.4935
  471MOL0     O63458   3.331   6.838   9.328 -0.1912  0.1967 -0.3865
  471MOL0     C63459   3.452   6.882   9.380  0.3415 -0.6934 -0.1889
  471MOL0     C63460   3.561   6.779   9.350  0.1074 -0.7579  0.8748
  471MOL0     C63461   3.705   6.832   9.387  0.5843 -0.0391  0.0201
  471MOL0     C63462   3.696   6.913   9.521 -0.3048 -0.0020 -0.2889
  471MOL0     C63463   3.836   6.961   9.561 -0.5722  0.2729  0.2703
  471MOL0     C63464   3.911   6.840   9.633 -0.5733 -0.1036 -0.1843
  471MOL0     C63465   4.049   6.879   9.681 -0.0638  0.3479 -0.0795
  471MOL0     C63466   4.151   6.764   9.704  0.2023 -0.1757  0.1263
  471MOL0     N63467   4.263   6.814   9.788  0.3828 -0.4260 -0.4428
  471MOL0     C63468   4.260   6.868   9.922 -0.8478 -0.2580  0.0094
  471MOL0     C63469   4.388   6.890   9.960 -0.4911 -1.1312  0.1805
  471MOL0     C63470   4.435   6.940  10.091 -0.1490  0.1662 -0.2115
  471MOL0     C63471   4.580   6.999  10.092  0.1050 -0.3958  0.6018
  471MOL0     C63472   4.636   7.066  10.219  0.0540 -0.3434 -0.6933
  471MOL0     C63473   4.541   7.079  10.339  0.3085  0.7058  0.2459
  471MOL0     O63474   4.533   6.963  10.424  0.1370  0.2518 -0.4490
  471MOL0     C63475   4.628   6.960  10.522  0.1648  0.5132  0.0064
  471MOL0     C63476   4.607   7.040  10.637  0.3177  1.0599 -0.2408
  471MOL0     C63477   4.708   7.056  10.732  0.3795  0.2683  0.2948
  471MOL0     C63478   4.824   6.977  10.713 -0.6391  0.5383 -0.5681
  471MOL0     C63479   4.929   6.989  10.810 -1.1899 -0.3063 -0.9459
  471MOL0     O63480   5.011   6.873  10.820  0.0366 -0.1410 -0.6761
  471MOL0     C63481   5.126   6.887  10.895  0.1801  0.5480 -0.2004
  471MOL0     C63482   5.121   6.908  11.035  0.2223  0.8849  0.2605
  471MOL0     C63483   5.237   6.908  11.112  0.8311  0.2821  0.4695
  471MOL0     C63484   5.362   6.905  11.052  0.4021  0.3617 -0.4741
  471MOL0     O63485   5.478   6.908  11.127 -0.2976 -0.0988 -0.2771
  471MOL0     C63486   5.612   6.882  11.068 -0.3669  0.1415 -0.6082
  471MOL0     C63487   5.713   6.878  11.176  0.5383 -0.4033  0.4528
  471MOL0     C63488   5.688   6.762  11.266  0.3735 -0.9391 -0.3343
  471MOL0     C63489   5.807   6.694  11.326  0.0093 -0.1555  0.4247
  471MOL0     C63490   5.778   6.578  11.420  0.3524 -0.1357 -0.4971
  471MOL0     C63491   5.716   6.628  11.551  0.2140 -0.4568 -0.4740
  471MOL0     C63492   5.828   6.678  11.649  0.1980  0.3781 -0.4575
  471MOL0     C63493   5.786   6.804  11.721 -0.3713 -0.0099 -0.0371
  471MOL0    Cl63494   5.903   6.859  11.849  0.2067  0.5295  0.0897
  471MOL0     C63495   5.365   6.896  10.911  0.3454  0.3029 -1.1234
  471MOL0     C63496   5.250   6.886  10.839 -0.3268  0.4968 -0.3409
  471MOL0     O63497   4.945   7.092  10.873  0.1669 -0.2574  0.0222
  471MOL0     C63498   4.840   6.882  10.607 -0.2018 -0.5648 -0.3470
  471MOL0     C63499   4.748   6.884  10.509 -0.0982  0.5995 -0.5676
  471MOL0     N63500   4.467   6.832   9.860 -0.0674  0.8379 -0.3579
  471MOL0     N63501   4.393   6.789   9.773  0.1815 -0.2702 -0.2375
  471MOL0     C63502   3.143   6.906   9.212 -0.4856 -0.2167 -0.5984
  471MOL0     C63503   3.028   6.981   9.201 -0.1985 -0.2717  0.2767
  471MOL0     C63504   2.689   7.240   9.193  0.3893  0.2276  0.0841
  471MOL0     C63505   2.674   7.349   9.291 -0.2351 -0.0955 -0.5134
  471MOL0     C63506   2.595   7.459   9.271 -0.3004 -0.3372  0.0352
  471MOL0     C63507   2.529   7.472   9.148 -0.1864  0.0088 -0.5188
  471MOL0     O63508   2.461   7.595   9.139  0.0135 -0.6638 -0.5599
  471MOL0     C63509   2.403   7.627   9.012 -0.3154 -0.9918 -0.3439
  471MOL0     C63510   2.378   7.774   9.019 -0.6849  0.7790  0.3404
  471MOL0     C63511   2.276   7.817   9.121  0.2599  0.0608  0.3265
  471MOL0     C63512   2.309   7.966   9.148  0.3409 -0.0273 -0.0339
  471MOL0     C63513   2.278   8.067   9.040 -0.1382  0.5693  0.1698
  471MOL0     C63514   2.251   8.141   8.942 -0.0153 -0.0759  0.1360
  471MOL0     C63515   2.549   7.372   9.049 -0.0059 -0.8790 -0.1299
  471MOL0     C63516   2.616   7.253   9.072  0.2030 -0.4796  0.2338
  471MOL0     C63517   2.630   7.150   8.959 -0.2138 -0.2183  0.2354
  471MOL0     H63518   3.106   7.240   9.400  1.2578 -0.1991  1.1971
  471MOL0     H63519   3.314   7.097   9.440 -0.3479  1.7533 -0.8823
  471MOL0     H63520   3.467   6.974   9.322 -3.7462  0.6890  0.5820
  471MOL0     H63521   3.445   6.899   9.488 -0.9668 -1.9504 -0.0499
  471MOL0     H63522   3.562   6.749   9.245  1.0219 -0.6103  0.8382
  471MOL0     H63523   3.533   6.700   9.420  0.4123 -0.6784  1.0874
  471MOL0     H63524   3.736   6.899   9.306  0.6749 -1.3340 -1.0462
  471MOL0     H63525   3.779   6.753   9.394  0.7352  0.2081  1.4854
  471MOL0     H63526   3.637   7.005   9.513  1.9289  1.7100  1.6209
  471MOL0     H63527   3.659   6.845   9.598 -1.1732 -3.2398 -3.3125
  471MOL0     H63528   3.894   6.983   9.472 -0.5420 -5.0043 -1.3302
  471MOL0     H63529   3.830   7.049   9.626 -1.7716  1.0827 -0.8742
  471MOL0     H63530   3.846   6.807   9.715 -2.7673  0.1483 -1.7270
  471MOL0     H63531   3.927   6.763   9.557  0.5920  1.3921 -1.4982
  471MOL0     H63532   4.034   6.935   9.774  0.7790 -0.0863  0.3355
  471MOL0     H63533   4.084   6.957   9.613 -3.1590  0.9535 -1.1114
  471MOL0     H63534   4.110   6.676   9.755 -1.0928 -0.0862 -0.7171
  471MOL0     H63535   4.194   6.741   9.606  1.2817  0.6118  0.3977
  471MOL0     H63536   4.172   6.889   9.982  0.1136 -0.8520  1.7095
  471MOL0     H63537   4.355   7.006  10.128 -0.7638 -0.9543  0.5203
  471MOL0     H63538   4.440   6.856  10.160 -0.9827 -0.0639 -0.4064
  471MOL0     H63539   4.648   6.916  10.071  0.0451 -0.1971 -0.3891
  471MOL0     H63540   4.591   7.072  10.011 -1.9795 -0.9148 -0.2259
  471MOL0     H63541   4.664   7.167  10.189  1.4853 -0.7807 -0.9023
  471MOL0     H63542   4.731   7.016  10.242 -0.2634 -0.9514 -0.6807
  471MOL0     H63543   4.445   7.107  10.296  0.6586  0.1391 -0.9445
  471MOL0     H63544   4.572   7.161  10.404 -2.0280  0.4440  1.8155
  471MOL0     H63545   4.516   7.098  10.652  0.6999  1.4539  0.6186
  471MOL0     H63546   4.710   7.135  10.806 -1.6558 -0.4526  1.1641
  471MOL0     H63547   5.022   6.925  11.074  0.2481  2.6467 -0.3886
  471MOL0     H63548   5.232   6.917  11.220  2.0710 -1.5569  0.7436
  471MOL0     H63549   5.608   6.787  11.014 -2.3501  0.6082 -1.3757
  471MOL0     H63550   5.645   6.965  11.005  4.4599 -0.2374  1.0212
  471MOL0     H63551   5.813   6.867  11.132 -0.0395 -1.7937 -0.6152
  471MOL0     H63552   5.713   6.972  11.232 -0.6436  1.5608 -2.5864
  471MOL0     H63553   5.622   6.792  11.348  1.1041  1.9716 -0.6972
  471MOL0     H63554   5.631   6.686  11.212 -0.2723  1.7534 -3.7523
  471MOL0     H63555   5.866   6.768  11.381  2.1566  0.1540 -2.0683
  471MOL0     H63556   5.885   6.667  11.254 -0.4913  0.1010 -0.2158
  471MOL0     H63557   5.857   6.502  11.424  1.1333  0.5251 -2.4090
  471MOL0     H63558   5.701   6.513  11.377  0.4911 -0.7210  0.1272
  471MOL0     H63559   5.640   6.706  11.537 -1.0023 -1.1366  1.7752
  471MOL0     H63560   5.668   6.539  11.592 -0.0809 -0.8878 -1.7132
  471MOL0     H63561   5.922   6.696  11.595  1.3879 -2.7121  0.3838
  471MOL0     H63562   5.852   6.601  11.722 -0.0877 -0.3168 -1.0756
  471MOL0     H63563   5.775   6.884  11.648  1.3759  0.2120 -0.0930
  471MOL0     H63564   5.687   6.796  11.767 -0.1165  3.8187  1.5249
  471MOL0     H63565   5.451   6.881  10.847 -1.5348 -2.1493 -3.2428
  471MOL0     H63566   5.265   6.876  10.732 -2.3009  0.9375 -0.7067
  471MOL0     H63567   4.928   6.821  10.591  0.1023 -0.3900  0.5827
  471MOL0     H63568   4.757   6.818  10.423  0.0284 -0.9981  0.6158
  471MOL0     H63569   3.154   6.816   9.152 -2.1863 -0.6765 -0.2744
  471MOL0     H63570   2.968   6.953   9.115  0.0454  0.7272 -0.2343
  471MOL0     H63571   2.728   7.359   9.385  0.4170 -2.3039 -0.5817
  471MOL0     H63572   2.591   7.549   9.332  0.1409  0.2498 -0.7900
  471MOL0     H63573   2.315   7.567   8.986 -2.9075  2.0397  0.9062
  471MOL0     H63574   2.481   7.624   8.935  1.0475 -0.1914  0.9533
  471MOL0     H63575   2.348   7.812   8.921  2.0169  2.7020  0.1627
  471MOL0     H63576   2.476   7.813   9.045 -0.1641  0.7544 -1.4356
  471MOL0     H63577   2.294   7.761   9.213  3.3658  2.8355  1.6023
  471MOL0     H63578   2.173   7.813   9.085  0.7140 -1.1496 -0.9041
  471MOL0     H63579   2.256   7.994   9.239  0.6151 -0.4866  0.2693
  471MOL0     H63580   2.417   7.980   9.156  0.2327 -0.4204  2.9513
  471MOL0     H63581   2.237   8.205   8.857  2.0875  0.2831 -0.0151
  471MOL0     H63582   2.506   7.394   8.951  1.4768 -1.8038 -1.0357
  471MOL0     H63583   2.563   7.063   8.963 -2.2828  1.2462 -0.7092
  471MOL0     H63584   2.622   7.208   8.867  1.9894  1.3096  0.9348
  471MOL0     H63585   2.726   7.097   8.958 -2.5350 -4.9719  0.9906
  472MOL0     O63586   0.023   6.817   8.305 -0.7681 -0.0168  0.1415
  472MOL0     C63587  -0.069   6.738   8.323  0.4566 -0.2392 -0.9983
  472MOL0     O63588  -0.055   6.608   8.304 -0.1485  0.3822 -0.1178
  472MOL0     C63589   0.070   6.545   8.327  0.4488 -0.4039 -0.0197
  472MOL0     C63590   0.169   6.555   8.233  0.2906 -0.1180 -0.7177
  472MOL0     C63591   0.289   6.476   8.245 -0.6792  0.1997  0.5281
  472MOL0     C63592   0.301   6.381   8.348  0.5596  0.4785 -0.0200
  472MOL0     O63593   0.412   6.307   8.373 -0.8203 -0.4344 -0.0911
  472MOL0     C63594   0.513   6.285   8.268 -0.4087 -0.0828 -0.1562
  472MOL0     C63595   0.621   6.190   8.315 -0.4968  0.0485 -1.3048
  472MOL0     C63596   0.737   6.263   8.377  0.3524  0.5566  0.2594
  472MOL0     C63597   0.824   6.146   8.444 -0.3924 -0.5466  0.0339
  472MOL0     C63598   0.947   6.199   8.519  0.2584 -0.0851 -0.5537
  472MOL0     C63599   0.927   6.305   8.618 -0.0142 -0.1431 -0.6795
  472MOL0     C63600   1.059   6.353   8.680 -0.1791 -0.2016 -0.7976
  472MOL0     C63601   1.119   6.266   8.799  0.1165 -0.2422  0.1837
  472MOL0     N63602   1.258   6.324   8.826  0.8095  0.7588  0.2351
  472MOL0     C63603   1.278   6.447   8.878  0.1383  0.3610 -0.6918
  472MOL0     C63604   1.415   6.457   8.880  0.1870 -0.7054  0.1219
  472MOL0     C63605   1.502   6.567   8.934 -0.7943  0.1424  0.0619
  472MOL0     C63606   1.593   6.519   9.045  0.5128 -0.8036  0.1729
  472MOL0     C63607   1.710   6.618   9.080  0.0556  0.0740  0.1299
  472MOL0     C63608   1.793   6.565   9.197  0.4903 -0.2201  0.3804
  472MOL0     O63609   1.892   6.662   9.200 -0.7360  0.0446 -0.6186
  472MOL0     C63610   1.967   6.665   9.319 -0.6053  0.1819  0.0203
  472MOL0     C63611   2.049   6.766   9.328 -0.4543 -0.4081 -0.6462
  472MOL0     C63612   2.158   6.784   9.421 -0.5649  0.2087 -0.3230
  472MOL0     C63613   2.177   6.678   9.512  0.5966  0.5452  0.5743
  472MOL0     C63614   2.279   6.688   9.618  0.2568 -0.5943 -0.2396
  472MOL0     O63615   2.293   6.571   9.692  0.0393  0.2010  0.2109
  472MOL0     C63616   2.415   6.541   9.752 -0.2841 -0.6482  0.0871
  472MOL0     C63617   2.418   6.519   9.896  0.3570  0.9173  0.3519
  472MOL0     C63618   2.534   6.471   9.952 -0.3873  0.5976  0.9455
  472MOL0     C63619   2.652   6.466   9.874 -0.5746 -0.8076 -0.0589
  472MOL0     O63620   2.775   6.406   9.913  0.3728  0.1892  0.6446
  472MOL0     C63621   2.792   6.363  10.042 -1.1097  0.7371 -1.1619
  472MOL0     C63622   2.913   6.267  10.048 -0.3216 -0.6531  0.9280
  472MOL0     C63623   3.050   6.319   9.992 -0.1650 -0.5504  0.1336
  472MOL0     C63624   3.163   6.229  10.041 -1.1632 -0.5661  0.1796
  472MOL0     C63625   3.235   6.198   9.910 -0.0571 -0.6811  0.3044
  472MOL0     C63626   3.361   6.119   9.936 -0.0170 -0.3051  1.0309
  472MOL0     C63627   3.425   6.051   9.809  0.0876  0.2422  0.1055
  472MOL0     C63628   3.544   5.953   9.840 -0.2872 -0.9345  0.1271
  472MOL0    Cl63629   3.694   6.055   9.871  0.0897  0.5864 -0.3957
  472MOL0     C63630   2.643   6.499   9.733  0.5498 -0.0703  0.2441
  472MOL0     C63631   2.528   6.540   9.672 -0.2700  0.5890 -0.1945
  472MOL0     O63632   2.340   6.791   9.633 -0.5510 -0.3498 -0.1656
  472MOL0     C63633   2.105   6.553   9.495 -0.4939 -0.0413 -0.6485
  472MOL0     C63634   1.994   6.560   9.405  0.2147  0.4949 -0.1153
  472MOL0     N63635   1.473   6.347   8.819 -0.7750 -0.2646 -0.1954
  472MOL0     N63636   1.378   6.260   8.791  0.2838  0.0560 -0.9289
  472MOL0     C63637   0.197   6.365   8.434  0.6819  0.7428 -0.1268
  472MOL0     C63638   0.073   6.442   8.424 -0.5256  0.3993 -1.0252
  472MOL0     C63639  -0.205   6.796   8.368 -0.6404 -0.3196 -0.5643
  472MOL0     C63640  -0.207   6.934   8.387  0.3569  0.5221 -0.5015
  472MOL0     C63641  -0.328   6.999   8.410  0.3837 -0.4672  0.2654
  472MOL0     C63642  -0.452   6.935   8.427 -0.2946  0.7254  0.1572
  472MOL0     O63643  -0.557   7.018   8.442 -0.1445  0.7377 -0.0577
  472MOL0     C63644  -0.673   6.967   8.497  0.0445  0.1616 -0.1592
  472MOL0     C63645  -0.775   7.069   8.548 -0.3874 -0.1941 -0.0909
  472MOL0     C63646  -0.911   6.992   8.573  0.2102 -0.8361 -0.6648
  472MOL0     C63647  -1.013   7.088   8.650  0.0154 -0.3418 -0.0930
  472MOL0     C63648  -1.124   7.010   8.708 -0.3112  0.1589  1.0774
  472MOL0     C63649  -1.220   6.952   8.758 -0.6106 -0.5304  0.0267
  472MOL0     C63650  -0.448   6.793   8.423  0.3927  0.2282 -0.4267
  472MOL0     C63651  -0.335   6.722   8.393 -0.0333 -0.1783  0.5029
  472MOL0     C63652  -0.342   6.573   8.400  0.7234 -0.9076 -0.2053
  472MOL0     H63653   0.160   6.625   8.151 -0.3121 -0.1083 -0.6446
  472MOL0     H63654   0.364   6.492   8.168 -0.3490 -0.5050  0.6895
  472MOL0     H63655   0.464   6.256   8.175  0.1503 -1.0312 -0.1641
  472MOL0     H63656   0.566   6.380   8.254  0.8457 -0.5569  1.0971
  472MOL0     H63657   0.653   6.127   8.231 -0.7748 -0.5778 -0.9469
  472MOL0     H63658   0.572   6.118   8.381 -0.8734 -0.7213 -2.3968
  472MOL0     H63659   0.705   6.334   8.454 -1.0207  1.6431 -1.2362
  472MOL0     H63660   0.786   6.326   8.302 -1.2729  3.0651  1.1968
  472MOL0     H63661   0.761   6.075   8.499  1.0637 -2.4392 -0.5986
  472MOL0     H63662   0.862   6.092   8.357 -0.4370  1.2675 -1.1658
  472MOL0     H63663   1.003   6.120   8.569  0.1856  0.0076 -0.3200
  472MOL0     H63664   1.003   6.230   8.431  1.3110 -3.6006 -1.2713
  472MOL0     H63665   0.880   6.387   8.563 -1.6643  0.1619  1.1170
  472MOL0     H63666   0.859   6.269   8.695  2.0687 -3.2708 -0.0805
  472MOL0     H63667   1.063   6.455   8.721  2.7065 -0.9054  0.9319
  472MOL0     H63668   1.140   6.354   8.606  1.8740  1.8780  1.3203
  472MOL0     H63669   1.071   6.267   8.897  0.4628  1.6288  0.3745
  472MOL0     H63670   1.130   6.161   8.773  0.2861 -0.5029  1.2565
  472MOL0     H63671   1.206   6.523   8.906 -0.1676  0.0613 -0.6604
  472MOL0     H63672   1.570   6.608   8.860 -2.1328  1.3644 -0.5203
  472MOL0     H63673   1.436   6.650   8.960  0.0250 -0.1392  3.5475
  472MOL0     H63674   1.540   6.498   9.138  0.3480  0.6379  0.4249
  472MOL0     H63675   1.644   6.426   9.019  0.8306  0.2063 -3.2781
  472MOL0     H63676   1.674   6.716   9.113  0.9602  0.2561  0.6124
  472MOL0     H63677   1.780   6.623   8.996 -0.5526 -3.4776 -0.7455
  472MOL0     H63678   1.834   6.464   9.186  1.9407  0.5590 -2.1144
  472MOL0     H63679   1.727   6.560   9.285 -0.6047 -1.2748 -0.4672
  472MOL0     H63680   2.040   6.852   9.263 -0.9311  0.6160  0.7141
  472MOL0     H63681   2.220   6.873   9.418 -0.9559  0.5502  1.2585
  472MOL0     H63682   2.331   6.535   9.959  0.9082  1.4471  0.9993
  472MOL0     H63683   2.530   6.453  10.059 -1.3323 -0.0741  0.7992
  472MOL0     H63684   2.803   6.439  10.120  2.3561 -2.3906  1.7923
  472MOL0     H63685   2.700   6.307  10.066  1.1307 -2.9395 -0.4009
  472MOL0     H63686   2.919   6.235  10.152  0.8234 -2.0796  0.4507
  472MOL0     H63687   2.902   6.180   9.982  1.8058 -0.8820  0.8119
  472MOL0     H63688   3.042   6.339   9.885 -3.9525 -1.7533  0.0395
  472MOL0     H63689   3.065   6.416  10.040 -0.9087 -0.3419 -0.0417
  472MOL0     H63690   3.114   6.146  10.093 -2.6886 -0.0571 -0.3926
  472MOL0     H63691   3.226   6.279  10.115 -1.5553  2.4487 -1.3736
  472MOL0     H63692   3.261   6.292   9.861 -2.2041 -0.4183 -0.4417
  472MOL0     H63693   3.170   6.141   9.843  1.2953 -0.1593 -1.5444
  472MOL0     H63694   3.430   6.191   9.980  0.3703  0.8539 -1.2721
  472MOL0     H63695   3.343   6.043  10.012 -2.3711  2.0433  3.0489
  472MOL0     H63696   3.452   6.131   9.740  2.7637 -0.7394 -0.1313
  472MOL0     H63697   3.349   5.997   9.751  1.8809 -0.2942 -1.8659
  472MOL0     H63698   3.534   5.876   9.917  3.3607 -0.9990  0.7225
  472MOL0     H63699   3.560   5.884   9.756  0.4519  1.0108 -1.4215
  472MOL0     H63700   2.729   6.498   9.666 -1.8258  0.5483 -3.0524
  472MOL0     H63701   2.521   6.553   9.565  1.6235  3.7045 -0.0450
  472MOL0     H63702   2.133   6.474   9.564  2.9957  2.8260  1.6187
  472MOL0     H63703   1.946   6.463   9.395  0.9894  0.2911 -3.0864
  472MOL0     H63704   0.200   6.293   8.514  2.2765  0.3573 -0.5070
  472MOL0     H63705  -0.019   6.430   8.481 -2.2614 -2.0932 -4.0614
  472MOL0     H63706  -0.113   6.988   8.383  1.6510 -1.5095  0.9860
  472MOL0     H63707  -0.328   7.108   8.415 -0.8317 -0.3431 -1.6400
  472MOL0     H63708  -0.650   6.907   8.586  0.7481  2.7036  1.4820
  472MOL0     H63709  -0.716   6.904   8.418 -0.8469  0.0213  0.4247
  472MOL0     H63710  -0.783   7.143   8.467  0.3296  1.5056  1.3247
  472MOL0     H63711  -0.734   7.103   8.643 -0.7623  0.1688 -0.0545
  472MOL0     H63712  -0.886   6.907   8.637 -3.0125 -0.1512  1.6993
  472MOL0     H63713  -0.951   6.975   8.473  2.5872 -0.0634 -1.8276
  472MOL0     H63714  -0.964   7.149   8.726 -1.8275  2.8165 -1.2750
  472MOL0     H63715  -1.055   7.160   8.580 -1.5690 -1.6244 -0.5167
  472MOL0     H63716  -1.301   6.897   8.803  1.5480 -4.3106 -0.2141
  472MOL0     H63717  -0.542   6.743   8.445  2.3797 -3.5263  0.3899
  472MOL0     H63718  -0.300   6.529   8.309  0.1723  2.0699 -2.0478
  472MOL0     H63719  -0.289   6.535   8.488 -1.6799 -0.5764  1.5025
  472MOL0     H63720  -0.445   6.538   8.414  1.0243 -0.9440  2.3954
  473MOL0     O63721   8.031   0.810   4.483  0.1520  0.0300  0.3885
  473MOL0     C63722   8.029   0.729   4.579 -0.2803 -0.7500  0.2320
  473MOL0     O63723   8.135   0.701   4.665  0.3129  0.1332  0.6251
  473MOL0     C63724   8.231   0.796   4.653  0.0485  0.5681 -0.3945
  473MOL0     C63725   8.329   0.779   4.554 -0.7758  0.6460  0.7833
  473MOL0     C63726   8.430   0.873   4.546 -0.1502  0.7321 -0.0170
  473MOL0     C63727   8.420   0.988   4.621 -0.5069 -0.5069 -0.6584
  473MOL0     O63728   8.514   1.088   4.597 -0.9183 -0.4436  0.0342
  473MOL0     C63729   8.522   1.150   4.467  0.4872  0.9538 -0.0620
  473MOL0     C63730   8.579   1.292   4.477  0.6991 -0.8163 -0.2717
  473MOL0     C63731   8.728   1.275   4.483  0.4888  0.1774  0.4586
  473MOL0     C63732   8.797   1.399   4.530  0.0868  0.2827 -0.3975
  473MOL0     C63733   8.948   1.407   4.493 -0.8345  0.5443 -0.4066
  473MOL0     C63734   9.006   1.549   4.510  0.1263 -0.0467 -0.3653
  473MOL0     C63735   9.147   1.546   4.450  0.8535 -0.2518 -0.0039
  473MOL0     C63736   9.205   1.684   4.400 -0.3435  0.0199  0.0050
  473MOL0     N63737   9.271   1.754   4.510  0.2917 -0.3314 -0.5228
  473MOL0     C63738   9.357   1.857   4.482  0.8804 -0.1681 -0.8500
  473MOL0     C63739   9.425   1.887   4.602  0.1379  0.2926  0.8512
  473MOL0     C63740   9.535   1.988   4.628 -0.1566  0.2102 -0.3521
  473MOL0     C63741   9.674   1.918   4.648 -0.1007 -0.3826  0.7527
  473MOL0     C63742   9.756   1.993   4.756 -0.0808 -0.3305  0.4527
  473MOL0     C63743   9.905   1.962   4.741  0.0895 -0.5436  0.0127
  473MOL0     O63744   9.943   1.819   4.754  0.3170  0.0287 -0.3469
  473MOL0     C63745  10.078   1.797   4.779  0.3419  0.0360 -0.0718
  473MOL0     C63746  10.110   1.705   4.878 -1.4464  0.6040  0.0266
  473MOL0     C63747  10.244   1.674   4.907  0.0221  0.6465 -0.0151
  473MOL0     C63748  10.350   1.744   4.837  0.1182  0.1323 -0.0802
  473MOL0     C63749  10.497   1.712   4.856 -0.1330  0.8759  0.0017
  473MOL0     O63750  10.586   1.781   4.771 -0.1366 -0.4409  0.4357
  473MOL0     C63751  10.718   1.788   4.794 -0.6411 -0.3126 -0.0702
  473MOL0     C63752  10.775   1.866   4.898 -0.3846  0.0895  0.5836
  473MOL0     C63753  10.905   1.850   4.929 -0.1605 -0.2783 -0.5800
  473MOL0     C63754  10.990   1.764   4.859 -0.7650 -0.5570 -0.3325
  473MOL0     O63755  11.121   1.750   4.899 -0.3351 -0.4889 -0.2386
  473MOL0     C63756  11.202   1.639   4.864 -0.6533  0.0925  0.7380
  473MOL0     C63757  11.326   1.652   4.959  0.5707 -0.5853  0.3023
  473MOL0     C63758  11.304   1.590   5.098  0.6734  0.2382 -0.0179
  473MOL0     C63759  11.410   1.622   5.201 -0.4906  0.5041  0.2148
  473MOL0     C63760  11.547   1.562   5.180  0.0161 -0.3781 -0.1019
  473MOL0     C63761  11.545   1.414   5.145 -0.1225  0.4766 -0.1467
  473MOL0     C63762  11.679   1.331   5.168  0.2383  1.2587 -0.4921
  473MOL0     C63763  11.720   1.325   5.325  1.0599 -0.1971 -0.0820
  473MOL0    Cl63764  11.614   1.218   5.423  0.7664  0.3143 -0.4658
  473MOL0     C63765  10.931   1.689   4.760 -0.4301 -0.1104  0.5722
  473MOL0     C63766  10.792   1.698   4.722 -0.8019 -0.1081  0.6266
  473MOL0     O63767  10.538   1.645   4.945  0.4840  0.3265  0.0955
  473MOL0     C63768  10.314   1.837   4.736  0.4260  0.3451  0.0889
  473MOL0     C63769  10.176   1.856   4.703  0.1861 -0.4770 -0.6846
  473MOL0     N63770   9.383   1.793   4.695 -0.7474 -0.2436 -0.7233
  473MOL0     N63771   9.295   1.715   4.640  0.1730 -0.8301 -0.1698
  473MOL0     C63772   8.319   1.007   4.719  0.7535 -0.3848  0.6620
  473MOL0     C63773   8.221   0.902   4.743  0.1005  0.8792  0.3446
  473MOL0     C63774   7.898   0.671   4.607 -0.0796 -0.6080  0.4612
  473MOL0     C63775   7.868   0.636   4.734  0.2016  0.5790 -0.5414
  473MOL0     C63776   7.741   0.591   4.770 -0.2019 -0.6602  0.3531
  473MOL0     C63777   7.629   0.582   4.676 -0.4074  0.3928 -0.3235
  473MOL0     O63778   7.500   0.542   4.722  0.3940 -0.0281 -0.2272
  473MOL0     C63779   7.486   0.464   4.840 -1.0143  0.5318 -0.9093
  473MOL0     C63780   7.345   0.410   4.851  0.3332 -0.0482  1.1717
  473MOL0     C63781   7.318   0.317   4.969 -0.4565 -1.1167  0.4608
  473MOL0     C63782   7.358   0.385   5.096 -0.5672 -0.4422 -0.9406
  473MOL0     C63783   7.497   0.348   5.143 -0.3443 -0.3390  0.2839
  473MOL0     C63784   7.602   0.315   5.190 -1.2746 -0.0140  0.2590
  473MOL0     C63785   7.657   0.638   4.556 -0.1505 -0.8856 -0.1915
  473MOL0     C63786   7.791   0.673   4.514 -0.5532 -0.6639 -1.0672
  473MOL0     C63787   7.807   0.718   4.368  0.4173  0.0168  0.3747
  473MOL0     H63788   8.330   0.685   4.499  0.0949 -0.1987  2.1629
  473MOL0     H63789   8.515   0.870   4.478 -0.0225  0.6136  0.1486
  473MOL0     H63790   8.586   1.085   4.406 -0.0722  0.0555  0.2921
  473MOL0     H63791   8.423   1.148   4.422  0.1265 -1.0298  0.7107
  473MOL0     H63792   8.534   1.337   4.566  0.7854  2.8843 -1.9276
  473MOL0     H63793   8.553   1.352   4.390 -0.5815 -1.9893 -0.7446
  473MOL0     H63794   8.768   1.239   4.388  0.0310  0.0615  0.3050
  473MOL0     H63795   8.738   1.200   4.562 -2.3290  0.6304  1.3666
  473MOL0     H63796   8.749   1.484   4.481 -0.9479 -0.6411 -0.9979
  473MOL0     H63797   8.778   1.409   4.637 -2.5260  0.1019 -0.7763
  473MOL0     H63798   8.988   1.338   4.567 -1.6728  1.0501  0.5394
  473MOL0     H63799   8.954   1.373   4.389  0.6548  1.6704 -0.7149
  473MOL0     H63800   8.942   1.617   4.452 -2.3131 -3.0045 -1.4197
  473MOL0     H63801   9.009   1.576   4.616 -2.9840 -1.0232  0.0727
  473MOL0     H63802   9.135   1.492   4.356  2.0974  0.0233 -0.3447
  473MOL0     H63803   9.222   1.495   4.512  0.5268 -1.3441 -0.4846
  473MOL0     H63804   9.276   1.672   4.317  2.5836  0.6029  2.2499
  473MOL0     H63805   9.117   1.741   4.369 -1.7363 -1.9096  0.2262
  473MOL0     H63806   9.369   1.900   4.383  1.8074 -0.8667 -1.0650
  473MOL0     H63807   9.542   2.055   4.543 -1.4130  3.2868  1.7910
  473MOL0     H63808   9.509   2.049   4.715  3.1084 -0.3072  1.1401
  473MOL0     H63809   9.669   1.811   4.668  4.0152 -1.0283 -0.7212
  473MOL0     H63810   9.734   1.929   4.556 -0.2211  5.6249  0.9841
  473MOL0     H63811   9.720   1.971   4.857 -2.1334  0.0257 -0.1420
  473MOL0     H63812   9.747   2.098   4.727  3.1402  0.6990  2.7196
  473MOL0     H63813   9.961   2.020   4.815  0.1452  0.1786 -0.5801
  473MOL0     H63814   9.933   2.001   4.643 -4.2867 -2.5353 -2.3128
  473MOL0     H63815  10.046   1.646   4.944  1.1937 -0.3308  1.9023
  473MOL0     H63816  10.271   1.614   4.993 -0.7533 -0.9204 -0.8326
  473MOL0     H63817  10.720   1.942   4.953  0.4980  1.8859 -0.9189
  473MOL0     H63818  10.955   1.896   5.014  1.4209 -3.2449  0.2190
  473MOL0     H63819  11.140   1.551   4.881  1.0951 -1.3226  0.0383
  473MOL0     H63820  11.221   1.655   4.757 -3.3098  2.1283  0.4527
  473MOL0     H63821  11.418   1.607   4.919  0.7164  0.2994 -0.3975
  473MOL0     H63822  11.355   1.757   4.967  1.4000 -0.9669  3.2394
  473MOL0     H63823  11.218   1.648   5.133  0.3981  0.4422 -1.0058
  473MOL0     H63824  11.273   1.485   5.101  1.3021  0.0704  1.1524
  473MOL0     H63825  11.368   1.587   5.295 -3.1384  1.3904 -0.5321
  473MOL0     H63826  11.411   1.732   5.204  0.8358  0.7790 -3.8948
  473MOL0     H63827  11.604   1.588   5.270  0.5197  1.5228 -0.9109
  473MOL0     H63828  11.588   1.610   5.090 -1.6870 -0.6123 -1.0557
  473MOL0     H63829  11.477   1.374   5.221 -1.0075 -1.1058 -1.7028
  473MOL0     H63830  11.505   1.398   5.044  2.1035  1.4110 -1.2230
  473MOL0     H63831  11.753   1.376   5.102 -0.4282  0.2539 -1.9777
  473MOL0     H63832  11.659   1.227   5.140  3.7817  0.2745  0.0875
  473MOL0     H63833  11.814   1.270   5.335  1.0033 -0.5399 -1.2373
  473MOL0     H63834  11.741   1.423   5.369  2.0117 -0.1109 -0.6993
  473MOL0     H63835  11.000   1.628   4.703  1.7303  2.2360  0.5042
  473MOL0     H63836  10.746   1.642   4.641  0.0422  0.9660 -0.6401
  473MOL0     H63837  10.380   1.888   4.667 -2.6871  4.2725 -0.3020
  473MOL0     H63838  10.161   1.916   4.614  0.0778  2.3455  1.1063
  473MOL0     H63839   8.320   1.101   4.773 -1.2491 -0.0036  0.0906
  473MOL0     H63840   8.148   0.909   4.824 -1.5782  0.2847 -1.0454
  473MOL0     H63841   7.946   0.638   4.810  0.7013 -4.7706 -0.5603
  473MOL0     H63842   7.729   0.552   4.870  3.2477 -0.7924  0.8277
  473MOL0     H63843   7.520   0.528   4.922  2.9890  1.7063 -3.2285
  473MOL0     H63844   7.546   0.373   4.841 -1.8307 -0.2068  3.4051
  473MOL0     H63845   7.326   0.352   4.760  0.2717  0.1830  1.0363
  473MOL0     H63846   7.269   0.488   4.853 -0.5656 -0.7968 -0.7397
  473MOL0     H63847   7.369   0.220   4.959  0.7524 -0.5233  0.6283
  473MOL0     H63848   7.212   0.294   4.974 -0.3624 -2.0167 -1.1720
  473MOL0     H63849   7.338   0.492   5.096 -2.7819 -0.7002  2.6775
  473MOL0     H63850   7.292   0.345   5.173 -1.1430  0.2459 -1.0678
  473MOL0     H63851   7.684   0.274   5.246 -0.4376 -0.6923 -1.4088
  473MOL0     H63852   7.575   0.653   4.488 -0.2351 -1.3342 -0.1956
  473MOL0     H63853   7.902   0.686   4.325  0.4494  0.5681  0.0211
  473MOL0     H63854   7.729   0.657   4.322 -0.3547 -0.0635  1.7348
  473MOL0     H63855   7.784   0.822   4.341  1.2094 -0.0037 -0.4033
  474MOL0     O63856   4.575   9.735   2.442 -0.0102 -0.6127  0.8516
  474MOL0     C63857   4.581   9.653   2.353 -0.2438  0.0489  0.2563
  474MOL0     O63858   4.493   9.643   2.238 -0.3219 -0.0602 -0.2152
  474MOL0     C63859   4.380   9.707   2.233 -0.0367  0.5777  0.9811
  474MOL0     C63860   4.291   9.732   2.339 -0.4158 -0.0591  0.1401
  474MOL0     C63861   4.173   9.803   2.318 -0.0648  0.7025 -0.5084
  474MOL0     C63862   4.130   9.844   2.196 -0.0866 -1.0493  0.7007
  474MOL0     O63863   4.017   9.910   2.178  0.0456 -0.9994  0.4209
  474MOL0     C63864   3.897   9.830   2.208  0.5082  0.2114  0.2813
  474MOL0     C63865   3.767   9.905   2.177  0.1210 -0.9194  0.2403
  474MOL0     C63866   3.730   9.906   2.029  0.1661  0.3208 -0.3404
  474MOL0     C63867   3.845   9.934   1.942  0.1260 -0.5422  0.0078
  474MOL0     C63868   3.803   9.943   1.792  0.2938 -0.1142  0.3435
  474MOL0     C63869   3.741   9.818   1.737  0.1898  1.2824  0.6145
  474MOL0     C63870   3.709   9.812   1.584  0.2950 -0.2969 -0.1163
  474MOL0     C63871   3.584   9.897   1.558  0.0061 -0.1561  0.6207
  474MOL0     N63872   3.556   9.882   1.412 -0.1382  0.3892  0.2499
  474MOL0     C63873   3.612   9.956   1.310 -0.1666  0.2038 -0.2124
  474MOL0     C63874   3.573   9.897   1.193 -0.3264  0.2451 -0.0826
  474MOL0     C63875   3.631   9.910   1.056 -0.1167  0.4178  0.2733
  474MOL0     C63876   3.713   9.783   1.009  0.3755 -0.7178 -0.6454
  474MOL0     C63877   3.842   9.765   1.111 -0.0715 -0.5075  0.0914
  474MOL0     C63878   3.799   9.684   1.229 -1.0272 -0.1624  0.0017
  474MOL0     O63879   3.881   9.720   1.345 -0.3607  0.2742  0.0983
  474MOL0     C63880   4.003   9.655   1.347 -0.4425 -1.1190  0.0736
  474MOL0     C63881   4.115   9.723   1.284 -0.2453  0.0667 -0.6809
  474MOL0     C63882   4.234   9.649   1.268 -0.3175 -0.3079 -0.0627
  474MOL0     C63883   4.256   9.527   1.327  0.1433 -0.3659  0.1168
  474MOL0     C63884   4.382   9.448   1.315 -0.1131 -0.5581 -0.4584
  474MOL0     O63885   4.489   9.487   1.240 -0.0713 -0.6648 -0.5639
  474MOL0     C63886   4.602   9.410   1.227 -0.2384 -0.1522 -0.7685
  474MOL0     C63887   4.608   9.286   1.151  0.4054  0.7751 -0.0301
  474MOL0     C63888   4.721   9.217   1.112 -1.0302  0.0980  0.0952
  474MOL0     C63889   4.850   9.262   1.167  0.6262 -0.5453 -0.2318
  474MOL0     O63890   4.966   9.196   1.154  0.0885 -0.2977 -0.0263
  474MOL0     C63891   4.983   9.083   1.070 -0.4992  0.0305 -0.5775
  474MOL0     C63892   5.128   9.051   1.065 -0.0132 -0.7810  0.0963
  474MOL0     C63893   5.165   8.981   1.194 -0.3108  0.4529 -0.2173
  474MOL0     C63894   5.315   8.938   1.196  0.3658 -0.3457  0.1084
  474MOL0     C63895   5.342   8.850   1.322  0.2107 -0.0836 -0.0136
  474MOL0     C63896   5.485   8.800   1.325 -0.6054  0.7326 -0.1624
  474MOL0     C63897   5.487   8.695   1.429  0.0684  0.9075 -0.1051
  474MOL0     C63898   5.617   8.605   1.425  0.3495  0.7786  0.2232
  474MOL0    Cl63899   5.740   8.689   1.522 -0.1324 -0.0424  0.2598
  474MOL0     C63900   4.847   9.380   1.245 -0.9672 -0.2837 -0.5150
  474MOL0     C63901   4.728   9.453   1.280  0.2454 -0.1984  0.1516
  474MOL0     O63902   4.379   9.346   1.381 -0.0219 -0.7681  0.5401
  474MOL0     C63903   4.153   9.481   1.409 -0.6465 -0.1274  0.7132
  474MOL0     C63904   4.031   9.548   1.417 -0.0963 -0.2498  0.1354
  474MOL0     N63905   3.464   9.817   1.229 -0.2734  0.4074  0.1867
  474MOL0     N63906   3.462   9.808   1.359  0.2585 -0.3549  0.2502
  474MOL0     C63907   4.215   9.816   2.082 -0.1294  0.1345 -0.3839
  474MOL0     C63908   4.335   9.746   2.101 -0.1777 -0.1727 -0.8060
  474MOL0     C63909   4.688   9.543   2.362  0.3641 -1.2185  0.9479
  474MOL0     C63910   4.659   9.429   2.280  0.5265  0.3902 -0.1422
  474MOL0     C63911   4.737   9.318   2.289  0.5610  0.4430  0.5652
  474MOL0     C63912   4.844   9.318   2.368 -0.1145  0.2966  0.3038
  474MOL0     O63913   4.917   9.207   2.388  0.0178 -0.2411 -0.8744
  474MOL0     C63914   4.837   9.086   2.415  0.2350  0.2956  0.2751
  474MOL0     C63915   4.933   8.969   2.444 -0.4027 -0.3846 -0.7277
  474MOL0     C63916   5.025   9.008   2.559 -0.2308 -0.0494  0.5840
  474MOL0     C63917   5.114   8.901   2.612  1.3036  0.1226  0.1802
  474MOL0     C63918   5.206   8.959   2.709  0.3627 -0.6390  0.6280
  474MOL0     C63919   5.287   9.009   2.777 -0.4729 -0.1942  0.5783
  474MOL0     C63920   4.881   9.433   2.435 -0.1658  0.3997  0.4683
  474MOL0     C63921   4.805   9.546   2.426 -0.6205 -0.6024  1.1643
  474MOL0     C63922   4.871   9.667   2.486  0.4999 -0.9997  0.4637
  474MOL0     H63923   4.322   9.695   2.436  1.3069  1.9141  0.4204
  474MOL0     H63924   4.104   9.824   2.399  0.3872  1.3183 -0.2722
  474MOL0     H63925   3.901   9.738   2.149 -2.8408  0.2899 -0.2518
  474MOL0     H63926   3.905   9.811   2.315 -3.0595 -0.6877  0.4809
  474MOL0     H63927   3.772  10.006   2.220 -2.9918 -0.2658 -0.6695
  474MOL0     H63928   3.686   9.847   2.224 -0.3504  1.2926  2.3970
  474MOL0     H63929   3.650   9.979   2.018 -1.5783 -1.1728  1.5646
  474MOL0     H63930   3.682   9.812   1.999  0.3896  0.3704 -0.8521
  474MOL0     H63931   3.892  10.029   1.971  0.7377 -1.2665  1.5357
  474MOL0     H63932   3.915   9.852   1.960  0.6709  0.1224  0.9816
  474MOL0     H63933   3.731  10.025   1.785 -0.3418 -0.8062 -1.6720
  474MOL0     H63934   3.892   9.971   1.734  0.7702 -1.1932  0.5361
  474MOL0     H63935   3.817   9.742   1.755  0.6658  1.7404  0.5700
  474MOL0     H63936   3.657   9.784   1.798 -0.3455  2.9518  0.8616
  474MOL0     H63937   3.692   9.711   1.545  3.3840 -0.7950 -0.4216
  474MOL0     H63938   3.800   9.849   1.537  0.4488  0.1281  0.5001
  474MOL0     H63939   3.500   9.854   1.614 -0.2230 -0.4449  0.0653
  474MOL0     H63940   3.591  10.002   1.587  0.3159 -0.5119  1.9009
  474MOL0     H63941   3.674  10.044   1.324 -1.4332  0.9104  1.3914
  474MOL0     H63942   3.545   9.926   0.991 -0.6956  0.8517  1.1271
  474MOL0     H63943   3.693  10.000   1.057 -1.0167  1.1506 -2.1524
  474MOL0     H63944   3.654   9.690   1.014 -1.4619  0.4559  1.2050
  474MOL0     H63945   3.737   9.802   0.904 -2.3525  1.1134 -1.0395
  474MOL0     H63946   3.873   9.860   1.156 -3.1311  0.9365 -0.6401
  474MOL0     H63947   3.908   9.708   1.044 -1.2233  0.8993 -2.3806
  474MOL0     H63948   3.817   9.577   1.217 -1.2972 -0.1901 -0.1479
  474MOL0     H63949   3.694   9.705   1.250 -0.9533  2.6260 -1.8761
  474MOL0     H63950   4.107   9.826   1.250  2.7364  0.1530 -1.4560
  474MOL0     H63951   4.314   9.703   1.216  0.3784 -0.2767  1.0021
  474MOL0     H63952   4.516   9.241   1.113  0.1633  2.4607 -1.5677
  474MOL0     H63953   4.701   9.130   1.051 -1.8893  1.4317 -1.6139
  474MOL0     H63954   4.917   9.008   1.115  0.5379  0.2078  1.3073
  474MOL0     H63955   4.954   9.108   0.967  0.8680 -1.5242 -1.3932
  474MOL0     H63956   5.152   8.988   0.978 -0.7648 -2.7201  1.2478
  474MOL0     H63957   5.177   9.149   1.055 -2.2307  0.3832  0.1143
  474MOL0     H63958   5.158   9.059   1.271  1.0211 -1.7887  2.3346
  474MOL0     H63959   5.096   8.903   1.228 -0.0539  1.3251  2.6032
  474MOL0     H63960   5.371   9.031   1.210 -1.5159  0.6945  0.9719
  474MOL0     H63961   5.330   8.886   1.101 -0.6559  2.0711 -1.4533
  474MOL0     H63962   5.268   8.771   1.335 -0.1426  0.4949  1.7463
  474MOL0     H63963   5.334   8.908   1.414  0.5311  0.9549 -0.6191
  474MOL0     H63964   5.505   8.767   1.223  1.3368  1.8807 -0.2027
  474MOL0     H63965   5.557   8.880   1.348 -1.7265  1.6009  0.4657
  474MOL0     H63966   5.399   8.632   1.410 -1.3058  2.6210  0.3573
  474MOL0     H63967   5.473   8.733   1.531  0.3299 -1.7667  1.0096
  474MOL0     H63968   5.592   8.506   1.464  0.7444  1.4223  2.2284
  474MOL0     H63969   5.657   8.601   1.324  1.4455 -0.4680  0.6754
  474MOL0     H63970   4.943   9.409   1.287 -2.6643  0.5924  3.1454
  474MOL0     H63971   4.741   9.545   1.337  1.0589  0.5478 -1.1767
  474MOL0     H63972   4.176   9.396   1.472 -2.0696 -1.2873 -0.2691
  474MOL0     H63973   3.957   9.500   1.481 -2.2696 -2.0320 -3.3957
  474MOL0     H63974   4.191   9.851   1.982 -1.0187 -1.1674 -0.6520
  474MOL0     H63975   4.410   9.732   2.024  1.1722  1.4552  0.1230
  474MOL0     H63976   4.569   9.421   2.221  2.4992 -0.5234 -3.2508
  474MOL0     H63977   4.708   9.227   2.238  0.2560  0.7148  0.2514
  474MOL0     H63978   4.777   9.063   2.326 -0.2736  0.4921  0.5626
  474MOL0     H63979   4.771   9.111   2.499 -1.3941  1.6825 -1.3358
  474MOL0     H63980   4.989   8.946   2.353 -0.0556  1.4295 -1.0101
  474MOL0     H63981   4.887   8.878   2.484  1.2806 -0.0359  2.2771
  474MOL0     H63982   4.956   9.041   2.636  0.3461 -0.6987  1.4083
  474MOL0     H63983   5.095   9.090   2.539 -0.3511  0.0209  0.4532
  474MOL0     H63984   5.055   8.826   2.664  0.9868 -0.4954 -1.0424
  474MOL0     H63985   5.168   8.859   2.527  0.8063 -0.8104  0.3158
  474MOL0     H63986   5.341   9.057   2.856 -1.3580  0.1305  1.0048
  474MOL0     H63987   4.964   9.431   2.505 -0.2125  0.8829  0.5367
  474MOL0     H63988   4.876   9.742   2.407  0.8706  0.6214  1.9564
  474MOL0     H63989   4.804   9.705   2.564  0.8262  2.3162 -0.7178
  474MOL0     H63990   4.967   9.644   2.532  0.0811 -2.4701  0.6562
  475MOL0     O63991   2.035   2.020   7.031  0.3239  0.2476  0.3549
  475MOL0     C63992   2.044   1.899   7.016  0.0564  0.3677  0.1556
  475MOL0     O63993   1.940   1.809   7.011 -0.0702  0.4669 -0.4040
  475MOL0     C63994   1.811   1.842   6.994  0.0634  0.8238 -0.2654
  475MOL0     C63995   1.718   1.737   6.987  0.2536  0.3324  0.4050
  475MOL0     C63996   1.583   1.764   6.953  0.0155 -0.3130  0.1613
  475MOL0     C63997   1.536   1.896   6.929 -0.9161 -0.2680  0.3641
  475MOL0     O63998   1.401   1.912   6.908  0.0421  0.6224 -0.0310
  475MOL0     C63999   1.348   2.040   6.922 -1.0708 -0.5403  0.4506
  475MOL0     C64000   1.202   2.038   6.902  1.0362 -0.1003 -0.2294
  475MOL0     C64001   1.154   1.977   6.760 -0.4570  0.4211 -0.4247
  475MOL0     C64002   0.995   1.976   6.755 -0.1122 -0.1628 -0.8116
  475MOL0     C64003   0.936   1.996   6.611 -0.7787  0.2319 -0.6862
  475MOL0     C64004   0.782   2.024   6.622 -0.2674  0.6729  0.2869
  475MOL0     C64005   0.720   2.043   6.475 -1.2288  0.4286  0.1446
  475MOL0     C64006   0.574   2.008   6.480  0.1479 -0.1550  0.1562
  475MOL0     N64007   0.500   2.073   6.368 -0.5827 -0.5742 -0.2194
  475MOL0     C64008   0.526   2.054   6.236  0.2352 -0.3370  0.6615
  475MOL0     C64009   0.413   2.107   6.177 -0.1633 -0.8102 -0.6855
  475MOL0     C64010   0.384   2.125   6.032  0.1492  0.0639  0.6160
  475MOL0     C64011   0.471   2.050   5.928 -0.1620  0.0074  0.2958
  475MOL0     C64012   0.607   2.114   5.916 -0.2537 -0.2105  0.4336
  475MOL0     C64013   0.674   2.092   5.778 -0.0217  0.4267 -0.4376
  475MOL0     O64014   0.700   1.951   5.772 -0.1809  0.8192  0.3299
  475MOL0     C64015   0.780   1.897   5.669  0.2012  1.4778  0.5878
  475MOL0     C64016   0.844   1.980   5.579  0.1608  0.1000  0.1200
  475MOL0     C64017   0.923   1.918   5.480  0.4828 -0.8505  0.1451
  475MOL0     C64018   0.936   1.779   5.465 -0.0465  0.9755 -0.5680
  475MOL0     C64019   1.015   1.710   5.358 -0.1403  0.0996 -0.0209
  475MOL0     O64020   1.110   1.795   5.304 -0.4096 -0.4845 -0.6951
  475MOL0     C64021   1.200   1.748   5.215  0.1999  0.1617 -0.2752
  475MOL0     C64022   1.238   1.846   5.124 -0.3975 -0.5387  0.3038
  475MOL0     C64023   1.331   1.827   5.024  0.1783  0.8049  0.2505
  475MOL0     C64024   1.392   1.690   5.010  0.4293 -0.1384 -1.0155
  475MOL0     O64025   1.467   1.645   4.907  0.6970 -0.1099  1.0773
  475MOL0     C64026   1.465   1.732   4.793 -0.3597 -0.3255  1.2037
  475MOL0     C64027   1.549   1.676   4.674 -0.8929  0.6684 -0.1846
  475MOL0     C64028   1.698   1.648   4.714  1.0118  0.2944  0.5768
  475MOL0     C64029   1.787   1.768   4.744 -0.3428  0.1110 -0.4204
  475MOL0     C64030   1.938   1.741   4.732 -0.0684 -0.4991  0.2908
  475MOL0     C64031   2.025   1.837   4.810  0.1657 -0.2207  0.4700
  475MOL0     C64032   2.015   1.977   4.741  0.0705 -0.7287  0.3741
  475MOL0     C64033   2.101   2.077   4.812 -0.3321  0.8393 -0.0524
  475MOL0    Cl64034   2.088   2.221   4.715  0.3063 -0.0658  0.0785
  475MOL0     C64035   1.349   1.597   5.099  0.5501  1.3283  0.5324
  475MOL0     C64036   1.248   1.618   5.196  0.0945 -0.2241  0.2548
  475MOL0     O64037   0.993   1.595   5.314  0.7966 -0.1745  0.1032
  475MOL0     C64038   0.864   1.692   5.549 -0.0869  0.2625 -0.5875
  475MOL0     C64039   0.793   1.756   5.656  0.8529 -0.0135  0.7312
  475MOL0     N64040   0.324   2.138   6.279  0.2394  0.1264 -0.0135
  475MOL0     N64041   0.373   2.115   6.392 -1.0008 -0.2880  0.0073
  475MOL0     C64042   1.629   1.991   6.924 -0.0889 -0.4306 -0.4910
  475MOL0     C64043   1.768   1.971   6.958  1.1692 -0.0453 -0.7390
  475MOL0     C64044   2.177   1.841   6.987 -0.4416 -0.1787 -0.8724
  475MOL0     C64045   2.187   1.759   6.872 -0.7356 -0.3712 -0.6537
  475MOL0     C64046   2.311   1.715   6.823 -0.2793 -0.5843 -0.4329
  475MOL0     C64047   2.429   1.736   6.905  0.3375 -0.4588  0.2257
  475MOL0     O64048   2.564   1.715   6.874  0.4263  0.3543 -1.1322
  475MOL0     C64049   2.587   1.634   6.755 -0.5995  0.2102  0.4045
  475MOL0     C64050   2.737   1.620   6.734  0.7532  0.1970  0.2250
  475MOL0     C64051   2.774   1.495   6.649 -1.1858  0.1035 -0.4178
  475MOL0     C64052   2.919   1.463   6.657  0.8319  0.4892  0.0566
  475MOL0     C64053   3.002   1.566   6.598 -0.4671 -0.2031  0.7327
  475MOL0     C64054   3.083   1.629   6.535  0.2102 -0.0257 -0.2152
  475MOL0     C64055   2.415   1.825   7.011 -0.9950  0.1528  0.2527
  475MOL0     C64056   2.295   1.878   7.063  0.4829 -0.2916 -0.3583
  475MOL0     C64057   2.298   1.985   7.175 -1.0240 -0.1562 -0.0062
  475MOL0     H64058   1.755   1.635   6.997 -0.9330 -0.1869 -0.3557
  475MOL0     H64059   1.517   1.678   6.948  2.3341 -2.1383 -4.2035
  475MOL0     H64060   1.376   2.079   7.020 -1.8150 -1.4210  1.0294
  475MOL0     H64061   1.390   2.101   6.842  1.2759 -3.4099 -0.6955
  475MOL0     H64062   1.172   2.142   6.917  1.9146 -0.1082  1.9465
  475MOL0     H64063   1.153   1.978   6.979  0.2732  0.2574 -0.4215
  475MOL0     H64064   1.200   1.879   6.749 -0.1868  0.3702  0.9923
  475MOL0     H64065   1.187   2.045   6.681  2.7744  1.4213  1.6061
  475MOL0     H64066   0.967   1.881   6.802  0.3476  0.9410  1.8714
  475MOL0     H64067   0.961   2.059   6.818 -1.2253 -0.5723 -0.8563
  475MOL0     H64068   0.981   2.088   6.573  0.2189  1.0957  2.3260
  475MOL0     H64069   0.960   1.911   6.546  0.2170 -0.1320  0.1249
  475MOL0     H64070   0.740   1.936   6.672  0.1001 -1.3178 -2.6188
  475MOL0     H64071   0.754   2.113   6.679 -1.4277 -0.2698  1.2394
  475MOL0     H64072   0.775   1.991   6.396  1.3643  2.4040  0.5050
  475MOL0     H64073   0.737   2.150   6.459 -1.9955  1.7506  5.9540
  475MOL0     H64074   0.562   1.899   6.474 -1.0546  0.0217 -1.6998
  475MOL0     H64075   0.539   2.039   6.579 -1.6412  1.6680 -0.9696
  475MOL0     H64076   0.619   2.015   6.196  0.3810 -0.9452  1.5644
  475MOL0     H64077   0.289   2.074   6.015  1.4265 -1.7230 -1.6578
  475MOL0     H64078   0.387   2.234   6.017  0.0070  0.1987  1.4995
  475MOL0     H64079   0.485   1.945   5.955 -0.4660 -0.3456 -0.8566
  475MOL0     H64080   0.423   2.048   5.830  0.9343  3.6347 -0.4439
  475MOL0     H64081   0.671   2.070   5.992 -0.8299  0.0885  1.0992
  475MOL0     H64082   0.606   2.224   5.919  0.6274 -0.1054 -1.4747
  475MOL0     H64083   0.765   2.152   5.773 -0.3981  1.1172  0.6073
  475MOL0     H64084   0.604   2.127   5.701  0.1297  0.9940 -0.3206
  475MOL0     H64085   0.843   2.088   5.591  3.1615  0.2395  0.0553
  475MOL0     H64086   0.975   1.976   5.404  0.2867 -1.8172 -0.7397
  475MOL0     H64087   1.207   1.950   5.134  0.0344 -0.4282  0.5214
  475MOL0     H64088   1.370   1.913   4.971 -1.2296  1.6427  0.5154
  475MOL0     H64089   1.364   1.750   4.756 -0.2863  1.8217  1.9167
  475MOL0     H64090   1.510   1.826   4.826  0.6306 -0.2518 -0.2444
  475MOL0     H64091   1.505   1.582   4.640  2.2147 -1.1484  0.4102
  475MOL0     H64092   1.552   1.746   4.590  2.1252 -0.2855 -0.9928
  475MOL0     H64093   1.702   1.575   4.795 -3.4380 -2.1156 -1.0095
  475MOL0     H64094   1.752   1.607   4.628  1.8692  0.9355  0.8034
  475MOL0     H64095   1.776   1.801   4.848  0.9349  3.4700 -1.2347
  475MOL0     H64096   1.759   1.861   4.693  0.0454  0.7811  0.5506
  475MOL0     H64097   1.960   1.745   4.625 -2.7405 -0.5239 -0.3243
  475MOL0     H64098   1.964   1.644   4.776 -0.4649  0.0272  1.7503
  475MOL0     H64099   1.992   1.833   4.913 -0.9236 -1.3352  0.0966
  475MOL0     H64100   2.127   1.799   4.794 -1.0747 -2.8373 -2.2927
  475MOL0     H64101   1.909   2.006   4.739 -0.7691 -3.4748 -1.5618
  475MOL0     H64102   2.046   1.973   4.636 -0.7723  0.0600  0.0809
  475MOL0     H64103   2.051   2.104   4.906 -2.4973  0.8351 -1.1371
  475MOL0     H64104   2.200   2.034   4.825 -0.4579  0.3154 -0.8111
  475MOL0     H64105   1.377   1.492   5.088 -0.5167  1.1597 -1.0111
  475MOL0     H64106   1.204   1.540   5.257  0.5026 -0.2232  0.5542
  475MOL0     H64107   0.859   1.583   5.550 -2.2150  0.3066  0.4185
  475MOL0     H64108   0.731   1.694   5.719 -0.8624  1.1923  0.3061
  475MOL0     H64109   1.598   2.087   6.884  1.0093  0.1664  0.0135
  475MOL0     H64110   1.828   2.060   6.951 -1.6837  2.1663  0.6042
  475MOL0     H64111   2.099   1.740   6.811 -0.1239 -1.7806 -1.1351
  475MOL0     H64112   2.312   1.668   6.725  0.2702 -1.9415  0.1867
  475MOL0     H64113   2.556   1.691   6.666  2.9627  2.9679  0.6791
  475MOL0     H64114   2.534   1.539   6.763 -0.4145  0.0830  0.1501
  475MOL0     H64115   2.783   1.608   6.833 -0.0541  1.1866  0.7284
  475MOL0     H64116   2.781   1.709   6.688  0.2009 -0.5115 -1.7641
  475MOL0     H64117   2.749   1.514   6.544  0.2353 -1.6369 -1.1253
  475MOL0     H64118   2.723   1.410   6.694 -2.6913  0.4424 -1.3936
  475MOL0     H64119   2.948   1.437   6.759  0.6459 -2.1485 -0.4902
  475MOL0     H64120   2.935   1.372   6.599  1.5276  0.6966 -0.0849
  475MOL0     H64121   3.137   1.689   6.465  2.5156 -2.2460 -0.5116
  475MOL0     H64122   2.497   1.867   7.068 -1.4413  1.7781 -0.2548
  475MOL0     H64123   2.289   2.087   7.135  0.0191  0.4555  1.2643
  475MOL0     H64124   2.217   1.968   7.247  0.0236 -0.4167  1.1341
  475MOL0     H64125   2.389   1.972   7.233 -0.4783  0.3835 -0.7229
  476MOL0     O64126   5.676   2.364   6.740 -0.2700  0.1813 -0.2779
  476MOL0     C64127   5.603   2.390   6.647 -0.6467  0.1915  0.5605
  476MOL0     O64128   5.640   2.448   6.525  0.1455  0.2782 -0.2124
  476MOL0     C64129   5.772   2.482   6.513 -1.5169 -0.8982 -0.2526
  476MOL0     C64130   5.793   2.618   6.493  0.0876 -0.5468  0.1618
  476MOL0     C64131   5.926   2.676   6.479  0.7752  1.8644  0.7279
  476MOL0     C64132   6.034   2.588   6.483  0.5517  0.0595 -0.0397
  476MOL0     O64133   6.159   2.631   6.464  0.7381 -0.0777  0.5476
  476MOL0     C64134   6.173   2.749   6.377  0.2906  0.2329 -0.9001
  476MOL0     C64135   6.315   2.767   6.323 -0.2869  0.1704 -0.2470
  476MOL0     C64136   6.421   2.781   6.422 -0.3619  1.3098  0.2335
  476MOL0     C64137   6.549   2.830   6.356 -0.3171 -0.4710 -0.3237
  476MOL0     C64138   6.676   2.825   6.456 -0.5344  0.2135  0.2261
  476MOL0     C64139   6.789   2.925   6.424 -0.1262 -0.1280 -0.6795
  476MOL0     C64140   6.882   2.954   6.545  0.5690  0.4418  0.1603
  476MOL0     C64141   6.943   2.833   6.617 -0.0106 -0.2365  0.4260
  476MOL0     N64142   7.083   2.854   6.656  0.0203 -0.3672  0.4282
  476MOL0     C64143   7.130   2.952   6.746  1.0694 -0.2215 -0.2455
  476MOL0     C64144   7.260   2.923   6.749  1.0274  0.3286 -0.4773
  476MOL0     C64145   7.360   2.999   6.829  0.8874  0.0515 -0.7226
  476MOL0     C64146   7.332   2.974   6.975 -0.0563  0.0817  0.6759
  476MOL0     C64147   7.448   3.028   7.055  0.1399 -0.0112  0.1946
  476MOL0     C64148   7.448   2.994   7.205 -0.1971 -0.4868  0.4918
  476MOL0     O64149   7.455   2.852   7.230 -0.0113  0.2912 -0.3199
  476MOL0     C64150   7.585   2.809   7.236  0.2298  0.4097  0.4116
  476MOL0     C64151   7.651   2.777   7.118  0.4023  0.0305 -0.2868
  476MOL0     C64152   7.785   2.754   7.111 -0.5457  0.1745  0.3041
  476MOL0     C64153   7.864   2.763   7.230 -0.2352  0.2421  0.1236
  476MOL0     C64154   8.011   2.738   7.224 -0.1846  0.4645  0.3639
  476MOL0     O64155   8.076   2.753   7.106 -0.6751 -0.1168  0.2982
  476MOL0     C64156   8.213   2.779   7.107  1.0554  0.1294 -0.6002
  476MOL0     C64157   8.292   2.840   7.202  0.5189 -0.0629 -0.0469
  476MOL0     C64158   8.427   2.855   7.182 -0.4019 -0.6557  0.0224
  476MOL0     C64159   8.488   2.796   7.064 -0.9644 -0.5909 -0.5597
  476MOL0     O64160   8.619   2.814   7.043  0.0188  0.0685  0.0273
  476MOL0     C64161   8.693   2.739   7.137  0.3292  0.0624 -0.8442
  476MOL0     C64162   8.815   2.685   7.076 -1.4926  0.0591 -0.2188
  476MOL0     C64163   8.885   2.794   6.984  0.2299  0.2316  0.2860
  476MOL0     C64164   9.031   2.766   6.957  0.2583 -1.1254 -0.6219
  476MOL0     C64165   9.114   2.886   6.903  0.2670 -0.4479  0.6867
  476MOL0     C64166   9.264   2.853   6.894  0.8383 -0.2254 -0.6410
  476MOL0     C64167   9.357   2.954   6.828  0.8560 -0.0658 -0.4267
  476MOL0     C64168   9.494   2.917   6.839  0.4390  0.7328 -0.4017
  476MOL0    Cl64169   9.581   3.012   6.713 -0.3026  0.1651  0.2254
  476MOL0     C64170   8.406   2.729   6.980  0.5675 -0.0038 -0.5321
  476MOL0     C64171   8.273   2.720   6.999  0.3712 -0.0014 -0.5300
  476MOL0     O64172   8.064   2.727   7.333 -0.3431  0.2289  0.3632
  476MOL0     C64173   7.799   2.777   7.355 -0.1473  0.0261  0.9713
  476MOL0     C64174   7.655   2.806   7.354 -0.1105  0.8643 -0.1287
  476MOL0     N64175   7.290   2.810   6.677 -0.1143  0.2161  0.1122
  476MOL0     N64176   7.183   2.774   6.607 -0.8235 -0.8287  0.2817
  476MOL0     C64177   6.010   2.453   6.494  0.5499  0.1634 -0.1652
  476MOL0     C64178   5.886   2.396   6.513  0.8927 -0.6117 -0.7159
  476MOL0     C64179   5.458   2.363   6.665  0.3701 -0.6971  0.3373
  476MOL0     C64180   5.379   2.352   6.553 -0.0201  0.7908 -0.6850
  476MOL0     C64181   5.241   2.332   6.565 -0.2847 -0.6521  0.6181
  476MOL0     C64182   5.174   2.335   6.683  0.9776 -0.8559 -0.4086
  476MOL0     O64183   5.039   2.319   6.672 -1.1250  0.8540 -0.1986
  476MOL0     C64184   4.965   2.292   6.791 -0.0967  0.2907  0.1477
  476MOL0     C64185   4.822   2.240   6.768 -0.4710  0.9958  1.0350
  476MOL0     C64186   4.763   2.186   6.898 -0.6893 -0.0777 -0.1520
  476MOL0     C64187   4.626   2.125   6.885 -0.3885 -0.6492  0.0830
  476MOL0     C64188   4.580   2.098   7.027 -1.0019  0.1777  0.1843
  476MOL0     C64189   4.544   2.070   7.140 -0.1889  0.0927  0.1302
  476MOL0     C64190   5.251   2.353   6.796 -0.9379 -0.2572 -0.6156
  476MOL0     C64191   5.390   2.359   6.792 -0.2073 -0.2750 -0.3024
  476MOL0     C64192   5.451   2.361   6.927  0.1855 -0.7165 -0.7444
  476MOL0     H64193   5.706   2.683   6.499 -0.3323 -1.1593  1.0437
  476MOL0     H64194   5.929   2.784   6.469 -0.3001  1.8795  0.4230
  476MOL0     H64195   6.114   2.744   6.285  3.5047 -0.0122 -3.1436
  476MOL0     H64196   6.153   2.842   6.431  2.6458 -0.2821  1.0538
  476MOL0     H64197   6.319   2.861   6.268  0.0773 -0.1355 -0.7519
  476MOL0     H64198   6.336   2.690   6.248  0.6060  1.7423 -1.6731
  476MOL0     H64199   6.445   2.677   6.448  1.8948  1.1432 -2.1436
  476MOL0     H64200   6.393   2.822   6.520 -4.6926 -4.3346  1.9126
  476MOL0     H64201   6.558   2.771   6.264  2.1349 -1.2851  0.3551
  476MOL0     H64202   6.542   2.937   6.332  1.0212  0.2215  1.9848
  476MOL0     H64203   6.639   2.858   6.554 -0.6635 -0.5841  0.4514
  476MOL0     H64204   6.705   2.720   6.460  0.2842  0.2670 -2.5074
  476MOL0     H64205   6.841   2.884   6.337 -0.6002 -1.0767 -0.5290
  476MOL0     H64206   6.753   3.027   6.404  0.5397  0.2549  0.0462
  476MOL0     H64207   6.817   3.006   6.616 -2.7280  0.0199 -2.3641
  476MOL0     H64208   6.956   3.024   6.504  0.9675  1.0167  1.7717
  476MOL0     H64209   6.877   2.820   6.703  1.4564  0.8629  1.7751
  476MOL0     H64210   6.932   2.758   6.538  1.6621  0.5842 -0.6534
  476MOL0     H64211   7.075   3.029   6.799  1.7600 -2.3031  3.9926
  476MOL0     H64212   7.456   2.950   6.811  1.5559  0.6540  0.9911
  476MOL0     H64213   7.373   3.104   6.801  0.8458 -0.3514 -2.3421
  476MOL0     H64214   7.245   3.035   7.001 -1.9097 -1.0158 -2.3582
  476MOL0     H64215   7.319   2.866   6.989  2.0684 -0.5827 -1.6730
  476MOL0     H64216   7.452   3.133   7.025  2.8724  0.4327  1.7151
  476MOL0     H64217   7.540   2.982   7.016 -0.0995 -0.1541 -0.2071
  476MOL0     H64218   7.361   3.030   7.261 -0.6497 -3.5407  1.9462
  476MOL0     H64219   7.527   3.055   7.252  0.6852 -0.1896 -1.2643
  476MOL0     H64220   7.595   2.787   7.026  2.6438 -1.0697 -1.8755
  476MOL0     H64221   7.831   2.732   7.015 -3.8281  2.4991 -2.0112
  476MOL0     H64222   8.241   2.890   7.284 -2.5652 -0.9288 -1.2818
  476MOL0     H64223   8.487   2.922   7.242  0.2054 -0.8347 -0.3764
  476MOL0     H64224   8.710   2.805   7.223 -0.2026  0.7468 -1.2578
  476MOL0     H64225   8.637   2.650   7.167  1.5260  0.2053  2.2154
  476MOL0     H64226   8.877   2.649   7.159 -3.2786 -0.0435  1.1311
  476MOL0     H64227   8.780   2.604   7.012  1.3406  1.0414 -3.2925
  476MOL0     H64228   8.837   2.804   6.886  3.4631  0.1472 -1.4334
  476MOL0     H64229   8.873   2.894   7.026  2.5889  0.4567  0.5485
  476MOL0     H64230   9.027   2.676   6.893 -2.6824 -0.7722 -1.0775
  476MOL0     H64231   9.077   2.738   7.053  1.9199  0.9996 -0.7312
  476MOL0     H64232   9.104   2.976   6.965  5.5688  1.6818 -1.0230
  476MOL0     H64233   9.062   2.912   6.810 -0.2830  0.3477  1.2005
  476MOL0     H64234   9.312   2.841   6.992  0.3270  4.1410  0.3447
  476MOL0     H64235   9.261   2.755   6.845  2.3617 -2.7324  3.7225
  476MOL0     H64236   9.346   3.050   6.879 -1.2566 -0.5824  0.1837
  476MOL0     H64237   9.320   2.966   6.726 -2.9382  1.9343  0.9751
  476MOL0     H64238   9.534   2.923   6.940  0.2199 -1.4477 -0.1450
  476MOL0     H64239   9.504   2.811   6.813  3.2663  0.6078  0.8279
  476MOL0     H64240   8.453   2.687   6.892  0.3683  2.4090 -1.8785
  476MOL0     H64241   8.214   2.666   6.925 -0.2376  3.4766 -2.8449
  476MOL0     H64242   7.850   2.770   7.451  1.1680 -2.2427  0.1721
  476MOL0     H64243   7.617   2.819   7.454  3.1850  3.1913  0.9669
  476MOL0     H64244   6.087   2.377   6.489 -0.5405 -0.9781 -0.0503
  476MOL0     H64245   5.878   2.289   6.524 -0.4666 -0.5552 -1.0700
  476MOL0     H64246   5.425   2.341   6.456 -1.7794 -2.8376 -1.2825
  476MOL0     H64247   5.190   2.318   6.471  1.5523 -3.3877 -0.0965
  476MOL0     H64248   4.964   2.376   6.861 -2.5377 -0.7648  1.5135
  476MOL0     H64249   5.015   2.210   6.844 -0.3851  0.2604  0.3769
  476MOL0     H64250   4.814   2.166   6.687 -1.1881 -2.2312  3.8164
  476MOL0     H64251   4.777   2.337   6.747 -0.0716  0.9760  0.0396
  476MOL0     H64252   4.746   2.274   6.962  0.2076 -0.6925  0.9720
  476MOL0     H64253   4.830   2.113   6.944 -0.9634 -1.1993 -1.4952
  476MOL0     H64254   4.556   2.194   6.836  1.0387 -0.3030 -1.5442
  476MOL0     H64255   4.631   2.030   6.830  1.3509 -1.1536  1.0637
  476MOL0     H64256   4.482   2.054   7.226  1.1312  1.9123  1.5046
  476MOL0     H64257   5.201   2.353   6.893  2.5301 -1.8359  1.3622
  476MOL0     H64258   5.374   2.364   7.003 -0.8600 -0.9052 -1.7698
  476MOL0     H64259   5.504   2.268   6.950  2.2321  0.2866 -1.0902
  476MOL0     H64260   5.521   2.446   6.932  0.2984 -0.8656  0.3749
  477MOL0     O64261   2.613   8.792   6.316  0.4474 -0.4375 -0.1549
  477MOL0     C64262   2.502   8.735   6.313 -0.9130  0.3505 -0.2652
  477MOL0     O64263   2.481   8.593   6.341  0.4288 -0.2009 -0.0077
  477MOL0     C64264   2.591   8.532   6.387 -0.0836 -0.1594 -0.5368
  477MOL0     C64265   2.676   8.454   6.309  0.1624 -0.7155  0.3169
  477MOL0     C64266   2.784   8.388   6.368 -0.1411  0.1015  0.4070
  477MOL0     C64267   2.818   8.383   6.506 -0.0300  0.0403 -0.8824
  477MOL0     O64268   2.911   8.292   6.555  0.0224 -0.2732  0.4252
  477MOL0     C64269   2.962   8.329   6.684 -0.1945  0.3313  0.0664
  477MOL0     C64270   3.059   8.234   6.761  0.1803 -0.2114 -0.4300
  477MOL0     C64271   3.171   8.207   6.654 -0.3129  0.1311  0.1512
  477MOL0     C64272   3.296   8.138   6.712  0.0727  0.6858 -0.8707
  477MOL0     C64273   3.395   8.120   6.597  0.1681 -0.4822 -0.0865
  477MOL0     C64274   3.525   8.048   6.636  0.1350 -0.9084 -0.1140
  477MOL0     C64275   3.613   8.110   6.753  0.0801 -0.7696  0.0867
  477MOL0     C64276   3.656   8.009   6.857 -0.3377  0.1958  0.2690
  477MOL0     N64277   3.723   8.068   6.979 -0.4151 -0.5585 -0.0269
  477MOL0     C64278   3.673   8.170   7.058  0.3652 -0.6450  0.5288
  477MOL0     C64279   3.749   8.172   7.174 -0.8121 -0.5679 -0.8337
  477MOL0     C64280   3.739   8.267   7.288  0.1834 -0.5491  0.3913
  477MOL0     C64281   3.610   8.257   7.362 -1.3161 -0.6675  0.0671
  477MOL0     C64282   3.626   8.165   7.481  0.3011 -0.4652  1.1704
  477MOL0     C64283   3.491   8.131   7.542  0.5101 -0.1566  1.0282
  477MOL0     O64284   3.509   8.032   7.646  0.3372 -0.1164 -0.5849
  477MOL0     C64285   3.518   8.072   7.781 -1.0457  0.2650 -0.0634
  477MOL0     C64286   3.556   7.963   7.857  0.5570  0.0466  0.3236
  477MOL0     C64287   3.556   7.979   7.993 -0.7126  0.6589  0.0232
  477MOL0     C64288   3.508   8.093   8.060 -0.1194 -1.1999  0.6916
  477MOL0     C64289   3.514   8.099   8.209 -0.6448  0.2130 -0.1736
  477MOL0     O64290   3.574   8.001   8.278 -1.1196  0.3355  0.2652
  477MOL0     C64291   3.616   8.027   8.412 -0.1988 -0.1929 -0.0148
  477MOL0     C64292   3.693   8.134   8.446 -0.1390  0.0397 -0.4077
  477MOL0     C64293   3.730   8.164   8.580 -0.2822 -0.4983 -0.0613
  477MOL0     C64294   3.691   8.079   8.679 -0.7993 -0.3418  0.5921
  477MOL0     O64295   3.723   8.089   8.805 -0.1451  0.0027 -0.4059
  477MOL0     C64296   3.839   8.157   8.829  0.1471  0.3678  0.0069
  477MOL0     C64297   3.865   8.140   8.977 -0.4726  0.4063  0.1650
  477MOL0     C64298   3.982   8.221   9.034  0.1903 -0.0184  0.3050
  477MOL0     C64299   4.112   8.140   8.995 -0.4609 -0.3673 -0.8096
  477MOL0     C64300   4.234   8.229   9.028  0.7665 -0.1673  0.1222
  477MOL0     C64301   4.233   8.292   9.171 -0.4227 -0.6876  0.3020
  477MOL0     C64302   4.203   8.193   9.280 -0.5262  0.1155 -0.6270
  477MOL0     C64303   4.234   8.250   9.422  0.3187  0.0604  0.4124
  477MOL0    Cl64304   4.121   8.377   9.466 -0.1595 -0.4875 -0.1871
  477MOL0     C64305   3.628   7.964   8.642 -0.8537 -0.5796  0.4432
  477MOL0     C64306   3.597   7.929   8.510  0.3501 -0.2825 -0.0551
  477MOL0     O64307   3.466   8.197   8.261  0.6824  0.5343 -0.7153
  477MOL0     C64308   3.458   8.197   7.977 -0.0288 -0.3608  0.6126
  477MOL0     C64309   3.460   8.187   7.841 -0.8281  0.5710  0.6086
  477MOL0     N64310   3.847   8.076   7.160  0.0311  0.1841  0.6809
  477MOL0     N64311   3.841   8.019   7.039  0.4062 -0.3315 -0.0073
  477MOL0     C64312   2.737   8.468   6.580 -0.2875 -0.3446 -0.2143
  477MOL0     C64313   2.623   8.538   6.525  0.5193 -0.2925  0.4270
  477MOL0     C64314   2.381   8.818   6.314 -0.4488 -0.7105 -0.2485
  477MOL0     C64315   2.280   8.774   6.395  0.1009  0.4828  0.9875
  477MOL0     C64316   2.167   8.857   6.413 -1.2981  0.7390  0.8941
  477MOL0     C64317   2.154   8.974   6.343 -0.3006 -0.6930  0.3466
  477MOL0     O64318   2.056   9.071   6.353  0.0029 -0.1248 -0.2957
  477MOL0     C64319   1.960   9.079   6.467 -0.0390 -0.9475  0.3438
  477MOL0     C64320   1.865   9.203   6.456 -0.8138  0.4477  1.6355
  477MOL0     C64321   1.784   9.210   6.587  0.3352 -0.6963 -0.2433
  477MOL0     C64322   1.778   9.357   6.639  0.1111 -0.0011 -0.1630
  477MOL0     C64323   1.682   9.431   6.559 -0.3346  0.1803  0.0253
  477MOL0     C64324   1.605   9.509   6.501 -0.7081  0.1981  0.3397
  477MOL0     C64325   2.254   9.024   6.262  0.4565  0.1814  0.1840
  477MOL0     C64326   2.374   8.952   6.259  0.0724  0.4848 -0.3429
  477MOL0     C64327   2.488   9.029   6.188 -0.5350  0.6635  1.5088
  477MOL0     H64328   2.656   8.448   6.203 -3.3587 -2.4596  0.9285
  477MOL0     H64329   2.841   8.323   6.302 -0.0672  1.1087 -0.5315
  477MOL0     H64330   2.997   8.432   6.690 -0.0719  0.6434 -3.7051
  477MOL0     H64331   2.878   8.309   6.751  0.7901  0.4631  1.3793
  477MOL0     H64332   3.021   8.133   6.782  1.5533 -1.1187 -2.0332
  477MOL0     H64333   3.096   8.273   6.856 -1.7085 -0.6739  0.5456
  477MOL0     H64334   3.205   8.302   6.611  1.3773  0.1561  1.4290
  477MOL0     H64335   3.130   8.148   6.571  2.0945 -0.9706 -0.3570
  477MOL0     H64336   3.349   8.194   6.789  1.2950  0.7234 -1.7065
  477MOL0     H64337   3.268   8.044   6.761 -2.4479  3.1202  2.8862
  477MOL0     H64338   3.351   8.069   6.511 -2.5055  1.0749  0.2555
  477MOL0     H64339   3.426   8.220   6.564  0.0181  0.2362  1.8205
  477MOL0     H64340   3.488   7.950   6.667  0.8973 -1.2617 -0.2959
  477MOL0     H64341   3.584   8.033   6.545  2.3083  0.2107  1.0102
  477MOL0     H64342   3.555   8.183   6.811  2.8749 -0.2103  2.3850
  477MOL0     H64343   3.699   8.161   6.708 -2.1172 -1.3356 -5.5999
  477MOL0     H64344   3.568   7.949   6.884 -2.8262  2.2485 -2.7108
  477MOL0     H64345   3.727   7.940   6.810 -3.1673 -1.7913 -1.3537
  477MOL0     H64346   3.593   8.238   7.030  0.5231 -0.4992  0.4346
  477MOL0     H64347   3.825   8.248   7.353 -0.0402  1.5290  1.4012
  477MOL0     H64348   3.747   8.367   7.244 -0.7688 -1.7529 -2.7934
  477MOL0     H64349   3.577   8.352   7.404  1.8585  1.1613 -1.1967
  477MOL0     H64350   3.532   8.220   7.294 -2.0901 -0.1961  0.6823
  477MOL0     H64351   3.670   8.219   7.566  1.5737 -0.5914  0.6263
  477MOL0     H64352   3.682   8.073   7.459  1.1970  0.5322 -1.1300
  477MOL0     H64353   3.425   8.086   7.467  0.2945 -1.6482  2.0625
  477MOL0     H64354   3.435   8.221   7.569 -1.2797  0.0497 -2.7367
  477MOL0     H64355   3.581   7.865   7.820  0.1532  0.7806 -2.0170
  477MOL0     H64356   3.593   7.901   8.059 -0.0387  0.9326 -0.0224
  477MOL0     H64357   3.715   8.219   8.382  0.5456  0.4621  0.3600
  477MOL0     H64358   3.784   8.256   8.596  1.7898 -1.8558  1.1814
  477MOL0     H64359   3.928   8.123   8.776  0.8954  0.3695  1.2255
  477MOL0     H64360   3.820   8.263   8.815 -3.1573 -0.0485  0.5114
  477MOL0     H64361   3.776   8.164   9.035  0.9434  1.5244  2.0017
  477MOL0     H64362   3.896   8.037   9.000  0.6773  0.8737  0.7982
  477MOL0     H64363   3.985   8.324   8.999 -2.5191  1.1039  2.8835
  477MOL0     H64364   3.967   8.234   9.142 -0.4459 -0.7743  0.3160
  477MOL0     H64365   4.103   8.106   8.892 -3.9072 -1.6397 -0.2299
  477MOL0     H64366   4.124   8.048   9.053 -1.3892  0.1891  0.3086
  477MOL0     H64367   4.235   8.302   8.946 -2.1985 -4.2100 -4.0553
  477MOL0     H64368   4.316   8.161   9.005 -0.8935 -1.3494 -3.0666
  477MOL0     H64369   4.333   8.330   9.194 -0.8700 -0.0966  1.3171
  477MOL0     H64370   4.163   8.375   9.178  0.1246 -0.0782 -1.0446
  477MOL0     H64371   4.262   8.102   9.270 -0.5429 -0.0735  0.8479
  477MOL0     H64372   4.102   8.151   9.282 -0.3459 -0.3663 -1.3215
  477MOL0     H64373   4.204   8.172   9.493 -0.9421 -0.9372 -1.1417
  477MOL0     H64374   4.339   8.280   9.423  1.0593 -2.3152  0.0366
  477MOL0     H64375   3.621   7.894   8.725 -2.4139 -1.1740 -0.1497
  477MOL0     H64376   3.555   7.839   8.466 -1.4261  0.1412  0.6829
  477MOL0     H64377   3.426   8.289   8.024 -0.9405  1.0164 -2.4492
  477MOL0     H64378   3.427   8.266   7.775 -0.1745  0.8937  0.6577
  477MOL0     H64379   2.736   8.478   6.688  1.0601  1.4013 -0.3278
  477MOL0     H64380   2.562   8.600   6.590  0.8261  1.1807 -0.6494
  477MOL0     H64381   2.290   8.679   6.447 -1.1494 -1.3947 -1.9141
  477MOL0     H64382   2.092   8.819   6.482 -2.1489 -1.2048 -1.0105
  477MOL0     H64383   2.018   9.088   6.559 -0.3890 -3.3142  0.8696
  477MOL0     H64384   1.907   8.984   6.480 -1.2553 -0.4346 -0.5611
  477MOL0     H64385   1.796   9.183   6.374  0.3696  3.7241 -0.3500
  477MOL0     H64386   1.923   9.293   6.430 -1.0820 -0.3160 -2.0922
  477MOL0     H64387   1.827   9.153   6.669 -0.5735  1.2690  1.7120
  477MOL0     H64388   1.682   9.173   6.577  1.0173 -3.1197  1.0473
  477MOL0     H64389   1.747   9.365   6.744  1.0458 -0.7708  0.1914
  477MOL0     H64390   1.877   9.403   6.640 -0.7587  2.0369 -1.7723
  477MOL0     H64391   1.529   9.574   6.463  1.0811  1.2729 -1.5675
  477MOL0     H64392   2.243   9.113   6.200 -0.8654 -1.1454 -1.5891
  477MOL0     H64393   2.542   9.079   6.268  0.5205 -1.1779  1.9917
  477MOL0     H64394   2.559   8.966   6.134 -0.6189  2.1098 -0.4011
  477MOL0     H64395   2.457   9.093   6.105  2.3224  0.3676  0.0853
  478MOL0     O64396   4.870   8.768   3.699  0.0418 -0.2082 -0.2618
  478MOL0     C64397   4.928   8.853   3.772 -0.1678  0.4374  0.0810
  478MOL0     O64398   4.879   8.893   3.900 -0.2793 -0.6521 -0.2618
  478MOL0     C64399   4.812   8.798   3.975  0.4418 -0.0582  0.0191
  478MOL0     C64400   4.865   8.668   3.981  0.0223 -0.1555  0.7789
  478MOL0     C64401   4.801   8.574   4.060  1.0463  0.3401 -0.9358
  478MOL0     C64402   4.705   8.606   4.155  0.8726 -0.5194 -0.4865
  478MOL0     O64403   4.652   8.496   4.222  0.7409 -1.0007 -0.3826
  478MOL0     C64404   4.571   8.520   4.340  0.4007  0.7340 -0.1628
  478MOL0     C64405   4.637   8.592   4.454 -0.4083 -0.2866 -0.8463
  478MOL0     C64406   4.741   8.499   4.519  0.5636 -0.0041 -0.6833
  478MOL0     C64407   4.854   8.574   4.599 -0.1333 -0.2883 -0.2722
  478MOL0     C64408   4.956   8.488   4.674  0.4786  0.6539  0.5633
  478MOL0     C64409   5.064   8.582   4.732 -0.0192  0.4801  0.3122
  478MOL0     C64410   5.175   8.606   4.632  0.5103 -0.8813  1.2539
  478MOL0     C64411   5.282   8.703   4.688  0.6279  0.3525  0.2454
  478MOL0     N64412   5.391   8.730   4.583 -0.2576  0.1926  0.2818
  478MOL0     C64413   5.480   8.834   4.588 -0.5113 -0.2500  0.2453
  478MOL0     C64414   5.570   8.821   4.485  0.1251 -1.1288  0.0188
  478MOL0     C64415   5.691   8.904   4.443  0.5303  0.1445  0.9575
  478MOL0     C64416   5.819   8.824   4.435 -0.2220 -0.3674 -0.9676
  478MOL0     C64417   5.936   8.921   4.404  0.7765 -0.7287 -0.4564
  478MOL0     C64418   6.066   8.847   4.351  0.6200 -0.1998 -0.1008
  478MOL0     O64419   6.184   8.937   4.371  0.5872  0.0988  0.4350
  478MOL0     C64420   6.301   8.893   4.323 -0.3209  0.3863  0.1665
  478MOL0     C64421   6.406   8.980   4.338 -0.5635 -0.5642 -0.4846
  478MOL0     C64422   6.536   8.941   4.306  0.2844  0.0523 -0.6924
  478MOL0     C64423   6.563   8.824   4.238 -0.7855 -0.1702  1.3587
  478MOL0     C64424   6.701   8.811   4.180  0.2059  0.0275 -0.0694
  478MOL0     O64425   6.793   8.894   4.236  0.3269 -0.3974  0.5735
  478MOL0     C64426   6.931   8.876   4.239  0.4134 -0.5060 -0.3035
  478MOL0     C64427   7.006   8.990   4.248  0.2372 -0.5620 -0.4815
  478MOL0     C64428   7.146   8.995   4.238  0.2876 -0.4477  0.7855
  478MOL0     C64429   7.214   8.877   4.223  0.6116 -0.0965  0.0495
  478MOL0     O64430   7.345   8.870   4.220  0.1982  0.3144  0.4524
  478MOL0     C64431   7.428   8.968   4.284 -0.0406  0.1896 -0.0154
  478MOL0     C64432   7.467   8.927   4.426  0.4072 -0.1355 -0.0374
  478MOL0     C64433   7.572   9.027   4.461 -0.7266 -0.3641 -0.9400
  478MOL0     C64434   7.596   9.006   4.610  0.5192 -0.8924 -0.0565
  478MOL0     C64435   7.708   9.090   4.663  0.7409  0.0807 -0.0168
  478MOL0     C64436   7.705   9.108   4.816  0.2506  1.0333  0.2229
  478MOL0     C64437   7.836   9.154   4.875  0.3807 -0.0148  0.6669
  478MOL0     C64438   7.833   9.145   5.026  0.2085 -0.8097 -0.7586
  478MOL0    Cl64439   7.724   9.275   5.094  0.3919  0.2133 -0.2441
  478MOL0     C64440   7.137   8.756   4.208 -0.0649 -0.3503  0.2422
  478MOL0     C64441   6.999   8.754   4.233  0.4907 -0.1913  0.0178
  478MOL0     O64442   6.724   8.720   4.099 -0.7739  0.0849  0.4625
  478MOL0     C64443   6.457   8.743   4.208 -0.6289  0.4338 -0.3117
  478MOL0     C64444   6.328   8.780   4.248 -0.6815 -0.4116  0.4787
  478MOL0     N64445   5.535   8.707   4.428 -0.8996  0.9366  0.4996
  478MOL0     N64446   5.439   8.647   4.483  0.7904  0.7311 -0.3700
  478MOL0     C64447   4.651   8.737   4.153 -0.2697  0.4548 -0.4797
  478MOL0     C64448   4.701   8.826   4.059 -0.2838 -0.5906  0.2527
  478MOL0     C64449   5.064   8.919   3.740  0.0800 -0.2345 -0.3330
  478MOL0     C64450   5.137   8.980   3.843  1.0636 -0.3873  0.2190
  478MOL0     C64451   5.242   9.065   3.817 -1.0438  0.3983  0.1708
  478MOL0     C64452   5.291   9.080   3.690 -0.0417  0.7926  0.7696
  478MOL0     O64453   5.413   9.144   3.664  0.6144 -0.4834 -0.6240
  478MOL0     C64454   5.414   9.289   3.659  0.6780 -0.7156 -0.9784
  478MOL0     C64455   5.552   9.360   3.665  0.8674  0.1121  0.3194
  478MOL0     C64456   5.537   9.494   3.745  0.1218 -0.6995 -1.1414
  478MOL0     C64457   5.664   9.584   3.746  0.0101  0.3466  0.2446
  478MOL0     C64458   5.780   9.506   3.789 -1.0223  0.0045  0.0378
  478MOL0     C64459   5.880   9.446   3.827  0.5636 -0.7215  0.0029
  478MOL0     C64460   5.232   9.015   3.584  0.7806  0.4864  0.3889
  478MOL0     C64461   5.112   8.942   3.604 -0.0578  1.5651 -0.0649
  478MOL0     C64462   5.047   8.890   3.471  0.6184 -0.1150 -0.5391
  478MOL0     H64463   4.957   8.647   3.928  0.0500  0.5737  0.5341
  478MOL0     H64464   4.840   8.474   4.075 -2.5470 -0.7975  2.9546
  478MOL0     H64465   4.472   8.562   4.318 -1.2986 -3.3846 -1.3540
  478MOL0     H64466   4.544   8.419   4.372 -0.0322  0.9741  0.2483
  478MOL0     H64467   4.565   8.623   4.530  1.5765 -0.4852  1.1972
  478MOL0     H64468   4.682   8.686   4.422  1.7098 -0.3504  1.6601
  478MOL0     H64469   4.779   8.436   4.438  0.3273 -2.7537  1.2381
  478MOL0     H64470   4.690   8.426   4.582  0.8947  0.5592  0.2608
  478MOL0     H64471   4.898   8.641   4.524  0.8052 -1.0388 -0.4115
  478MOL0     H64472   4.802   8.636   4.672 -1.6339 -0.0998 -1.4409
  478MOL0     H64473   4.903   8.440   4.756 -1.3568  1.7306  0.0517
  478MOL0     H64474   5.008   8.405   4.625  4.2123  1.4926  2.6744
  478MOL0     H64475   5.010   8.675   4.752 -1.2062 -0.3625  1.1509
  478MOL0     H64476   5.110   8.549   4.826 -0.3603  2.0779  1.0877
  478MOL0     H64477   5.129   8.647   4.542  0.9627 -3.2451 -0.1315
  478MOL0     H64478   5.217   8.513   4.593 -0.7387  0.2983 -3.4747
  478MOL0     H64479   5.225   8.796   4.695  0.5055  0.5710 -2.5025
  478MOL0     H64480   5.311   8.667   4.787 -0.2432  0.3626  0.5176
  478MOL0     H64481   5.479   8.909   4.666 -2.1955  0.2997 -0.2398
  478MOL0     H64482   5.672   8.947   4.344  0.5504 -0.8050  0.5338
  478MOL0     H64483   5.714   8.985   4.514  0.3979  0.4294  0.6748
  478MOL0     H64484   5.827   8.786   4.537  0.9249  1.0998 -0.4638
  478MOL0     H64485   5.815   8.750   4.355  1.8830  0.4357 -1.8791
  478MOL0     H64486   5.965   8.979   4.492  2.0596  0.6669 -1.7438
  478MOL0     H64487   5.917   8.994   4.325  0.6205  0.7198  0.8871
  478MOL0     H64488   6.063   8.813   4.247 -0.8801 -0.2111 -0.0783
  478MOL0     H64489   6.071   8.759   4.417 -3.8317 -1.3209 -0.9311
  478MOL0     H64490   6.382   9.076   4.381 -0.3554 -1.7535  2.5345
  478MOL0     H64491   6.605   9.020   4.335  2.8251 -2.3314  0.2145
  478MOL0     H64492   6.947   9.080   4.264 -1.9909 -2.3825  2.9576
  478MOL0     H64493   7.183   9.092   4.270  0.9803 -0.7431  0.8963
  478MOL0     H64494   7.517   8.984   4.222  0.3888  1.5710  0.9025
  478MOL0     H64495   7.382   9.068   4.288  1.0488  0.6530  3.1286
  478MOL0     H64496   7.374   8.938   4.482  0.5601 -1.8393  0.5773
  478MOL0     H64497   7.501   8.824   4.430 -1.4897 -0.8657 -1.0807
  478MOL0     H64498   7.668   9.007   4.413 -0.5102  0.8721 -1.0623
  478MOL0     H64499   7.543   9.130   4.438 -1.8057 -1.1158 -3.2253
  478MOL0     H64500   7.613   8.900   4.635 -0.4026 -1.4207 -1.5358
  478MOL0     H64501   7.503   9.034   4.661  0.7195  1.1012 -0.7060
  478MOL0     H64502   7.689   9.187   4.616 -0.4821  0.1473  0.5785
  478MOL0     H64503   7.804   9.043   4.640 -0.7502 -3.7751  0.9305
  478MOL0     H64504   7.634   9.190   4.832 -0.9960  0.7068 -3.0280
  478MOL0     H64505   7.672   9.014   4.860  1.7967  0.2125 -0.2878
  478MOL0     H64506   7.855   9.252   4.830  0.0696 -1.6650 -3.5703
  478MOL0     H64507   7.906   9.075   4.845 -0.0482 -0.4579  0.8457
  478MOL0     H64508   7.813   9.039   5.047  1.6502 -0.8925  0.3385
  478MOL0     H64509   7.936   9.162   5.058 -1.0296  1.2023  2.7088
  478MOL0     H64510   7.183   8.659   4.196 -0.3852 -0.2604 -2.2932
  478MOL0     H64511   6.950   8.658   4.226  0.2512 -0.2549  1.9609
  478MOL0     H64512   6.477   8.655   4.147 -1.4914  0.3872 -0.5387
  478MOL0     H64513   6.250   8.706   4.236  0.7622 -2.0728  0.9541
  478MOL0     H64514   4.570   8.757   4.222  0.1675  0.4836  0.0335
  478MOL0     H64515   4.655   8.924   4.059 -1.2331 -0.9638 -2.2151
  478MOL0     H64516   5.101   8.973   3.945  1.9396 -1.0822  0.4943
  478MOL0     H64517   5.302   9.112   3.894  1.2592 -1.5489 -0.3081
  478MOL0     H64518   5.349   9.332   3.736  0.8254 -1.8908 -0.1888
  478MOL0     H64519   5.356   9.307   3.567 -3.2200  1.3726  1.5652
  478MOL0     H64520   5.571   9.388   3.561  1.9212  0.7870  0.6792
  478MOL0     H64521   5.620   9.288   3.709 -1.2637 -3.0159 -1.1398
  478MOL0     H64522   5.509   9.471   3.848 -2.0479  1.9150 -1.0333
  478MOL0     H64523   5.446   9.548   3.716  0.5612  1.4657  1.2031
  478MOL0     H64524   5.675   9.621   3.644  0.1917 -0.6714 -0.1167
  478MOL0     H64525   5.642   9.668   3.813  0.1008  1.1165 -0.6700
  478MOL0     H64526   5.966   9.400   3.870  1.0540 -1.0408 -1.2730
  478MOL0     H64527   5.278   9.008   3.486 -1.8820  2.1368 -1.1063
  478MOL0     H64528   5.126   8.862   3.400  0.6519 -1.8776  0.1599
  478MOL0     H64529   4.999   8.793   3.484  1.9451 -0.5424  1.8548
  478MOL0     H64530   4.980   8.964   3.426  0.0045 -0.8494 -0.8546
  479MOL0     O64531   4.135   8.100   2.403  0.1298  0.1070 -0.4556
  479MOL0     C64532   4.057   8.011   2.439  1.2522  0.7709 -0.1103
  479MOL0     O64533   4.098   7.887   2.481 -0.7205  0.2854 -0.8418
  479MOL0     C64534   4.237   7.852   2.478 -0.0047  0.4310 -0.0306
  479MOL0     C64535   4.312   7.802   2.578  0.4792 -0.0770 -0.7552
  479MOL0     C64536   4.438   7.762   2.554  0.5692  0.0947 -0.1159
  479MOL0     C64537   4.507   7.770   2.438 -0.3484  0.8757  0.0746
  479MOL0     O64538   4.632   7.708   2.430 -0.5986 -0.1878  0.5194
  479MOL0     C64539   4.700   7.694   2.303  0.2865 -0.4797 -0.8013
  479MOL0     C64540   4.785   7.806   2.251 -0.8608 -0.2796 -0.9150
  479MOL0     C64541   4.909   7.851   2.333  0.2243  0.4000 -0.0788
  479MOL0     C64542   4.990   7.721   2.367 -0.0143 -0.1032 -0.0725
  479MOL0     C64543   5.120   7.759   2.438  0.1247  0.6619 -0.4827
  479MOL0     C64544   5.198   7.627   2.457  0.8535 -0.3744 -0.2625
  479MOL0     C64545   5.324   7.633   2.537  0.4443  0.4996  0.2753
  479MOL0     C64546   5.393   7.493   2.559 -0.3013  0.1722 -0.2265
  479MOL0     N64547   5.535   7.503   2.587 -0.3409 -0.4487 -0.6146
  479MOL0     C64548   5.629   7.589   2.521 -0.2181 -0.2192  1.3316
  479MOL0     C64549   5.752   7.551   2.571 -0.9510  0.4805 -0.4468
  479MOL0     C64550   5.888   7.607   2.525  0.6534  0.1855 -0.4944
  479MOL0     C64551   5.997   7.498   2.513  0.6264 -0.3032  0.3602
  479MOL0     C64552   6.105   7.528   2.401  0.3088  0.0025 -0.3614
  479MOL0     C64553   6.064   7.493   2.260  0.5952 -0.2567 -0.0725
  479MOL0     O64554   5.990   7.608   2.198 -0.2170 -0.1156 -0.2170
  479MOL0     C64555   5.863   7.602   2.158 -0.7100 -0.3343  0.0246
  479MOL0     C64556   5.817   7.700   2.062  0.1727 -0.1870 -0.5941
  479MOL0     C64557   5.691   7.691   2.003 -0.5581  0.1841 -0.7255
  479MOL0     C64558   5.621   7.565   2.024  0.2351 -1.0971  0.3597
  479MOL0     C64559   5.497   7.546   1.944  0.1516 -0.0639  1.0284
  479MOL0     O64560   5.477   7.618   1.825 -0.2283 -0.7569 -0.6408
  479MOL0     C64561   5.359   7.603   1.747  0.1466  0.2960 -0.6421
  479MOL0     C64562   5.332   7.707   1.661 -0.3655 -0.0454  0.5501
  479MOL0     C64563   5.234   7.712   1.563 -0.4767 -0.1349 -0.0356
  479MOL0     C64564   5.141   7.599   1.551  0.1042  0.0490  0.4304
  479MOL0     O64565   5.044   7.604   1.449  0.2000 -0.2966 -0.1235
  479MOL0     C64566   4.953   7.719   1.462  0.0194  0.1132  0.0123
  479MOL0     C64567   4.935   7.783   1.333  0.7635  0.1499  1.1751
  479MOL0     C64568   4.849   7.908   1.356  0.3297 -0.4147 -0.8522
  479MOL0     C64569   4.832   7.999   1.232 -0.3995  0.1131  0.6930
  479MOL0     C64570   4.759   8.132   1.265 -0.0398 -0.4799  0.5224
  479MOL0     C64571   4.617   8.113   1.327  0.2317 -0.9147  0.7176
  479MOL0     C64572   4.530   8.026   1.241 -0.1308  0.6883  0.8709
  479MOL0     C64573   4.390   8.043   1.285  0.2380  0.0227 -0.3309
  479MOL0    Cl64574   4.365   7.993   1.455  0.1764 -0.1861  0.0543
  479MOL0     C64575   5.161   7.498   1.645  0.1138 -0.0650  0.5046
  479MOL0     C64576   5.267   7.501   1.739  0.7605 -0.4946  0.1355
  479MOL0     O64577   5.415   7.458   1.988 -0.0101  0.6849 -0.0823
  479MOL0     C64578   5.663   7.471   2.115  0.4412  0.0368  0.3156
  479MOL0     C64579   5.784   7.490   2.183 -0.8161  0.2256 -0.2723
  479MOL0     N64580   5.727   7.448   2.672  1.0776  0.4065  0.5936
  479MOL0     N64581   5.598   7.428   2.680 -0.0899 -0.0133 -0.4794
  479MOL0     C64582   4.438   7.834   2.334 -0.5494  1.1751  0.1268
  479MOL0     C64583   4.303   7.868   2.355 -0.8676  0.0437 -0.7972
  479MOL0     C64584   3.917   8.056   2.459  0.0004  0.5966 -0.7835
  479MOL0     C64585   3.875   8.176   2.399  0.0238 -0.4061  0.6170
  479MOL0     C64586   3.745   8.217   2.416 -0.0936  0.1516  0.2800
  479MOL0     C64587   3.657   8.157   2.503 -0.2310  0.0117 -0.2200
  479MOL0     O64588   3.533   8.197   2.535 -0.1165 -0.4943  0.0960
  479MOL0     C64589   3.530   8.284   2.646  1.0278 -0.4075 -0.0119
  479MOL0     C64590   3.401   8.366   2.642 -0.4618  0.2763  0.0849
  479MOL0     C64591   3.279   8.278   2.655 -0.1539 -0.7194 -1.2360
  479MOL0     C64592   3.156   8.366   2.684  0.5412 -0.1480  0.2687
  479MOL0     C64593   3.026   8.287   2.717  0.5953  0.7189 -0.7717
  479MOL0     C64594   2.929   8.214   2.739 -0.3987 -0.0203  0.2005
  479MOL0     C64595   3.696   8.030   2.570 -0.0501 -0.6728 -0.0652
  479MOL0     C64596   3.820   7.985   2.540  0.7239 -0.0100 -0.8492
  479MOL0     C64597   3.856   7.850   2.606 -0.4070 -0.5517 -0.2909
  479MOL0     H64598   4.267   7.781   2.674  0.3734  0.1305 -0.7588
  479MOL0     H64599   4.489   7.716   2.638 -1.7111 -2.1147  0.1979
  479MOL0     H64600   4.773   7.613   2.306  3.3524  2.1277 -0.2779
  479MOL0     H64601   4.623   7.669   2.228 -0.4136  1.3060 -0.7319
  479MOL0     H64602   4.718   7.893   2.243 -0.6358  0.2921  1.9991
  479MOL0     H64603   4.808   7.777   2.149  0.4651  0.0986 -0.7381
  479MOL0     H64604   4.872   7.892   2.426 -0.9979 -1.7070  0.4289
  479MOL0     H64605   4.974   7.916   2.273  0.3285  1.7780  1.4840
  479MOL0     H64606   4.935   7.650   2.428  0.5112 -1.0820 -0.7176
  479MOL0     H64607   5.029   7.673   2.277  2.3568  1.1636  0.1925
  479MOL0     H64608   5.181   7.828   2.379  0.0561  0.8513 -0.3339
  479MOL0     H64609   5.083   7.804   2.530 -0.9232  0.5739 -0.8455
  479MOL0     H64610   5.134   7.556   2.510  1.3496 -0.3148  0.4270
  479MOL0     H64611   5.223   7.588   2.358  2.7033  1.1541 -0.4485
  479MOL0     H64612   5.322   7.680   2.635 -0.0491 -2.6954  1.9075
  479MOL0     H64613   5.378   7.686   2.457 -1.2589 -2.5877 -3.2594
  479MOL0     H64614   5.350   7.445   2.648  2.0183 -1.6630  0.0267
  479MOL0     H64615   5.380   7.420   2.479  0.1274 -4.0601  3.1861
  479MOL0     H64616   5.600   7.657   2.442  2.1073  1.8660  2.1257
  479MOL0     H64617   5.875   7.637   2.421 -1.6977 -3.4807 -1.4514
  479MOL0     H64618   5.922   7.686   2.593 -0.7732 -1.1718  1.9463
  479MOL0     H64619   6.043   7.487   2.611 -1.3508  1.4674  1.5683
  479MOL0     H64620   5.937   7.409   2.491 -1.7814  0.9778  1.4039
  479MOL0     H64621   6.198   7.478   2.429  0.9945  0.6534 -1.4382
  479MOL0     H64622   6.125   7.636   2.404 -1.5012  0.3460  0.7602
  479MOL0     H64623   6.007   7.400   2.275 -0.0615  0.2748  0.8587
  479MOL0     H64624   6.142   7.476   2.185 -0.4758  1.9071 -1.8060
  479MOL0     H64625   5.874   7.788   2.034 -1.7901  1.5494  0.5291
  479MOL0     H64626   5.663   7.782   1.950  0.6167  0.2230 -1.3104
  479MOL0     H64627   5.404   7.787   1.650 -0.5699 -0.1082 -1.7529
  479MOL0     H64628   5.233   7.795   1.493 -1.2403 -1.9077 -2.2634
  479MOL0     H64629   4.857   7.677   1.492 -0.6200  1.7764  0.3498
  479MOL0     H64630   5.001   7.792   1.528  0.6229  1.3395 -1.7056
  479MOL0     H64631   5.032   7.810   1.291  0.8563  1.1773  2.0279
  479MOL0     H64632   4.878   7.723   1.261 -0.5980  2.8013 -0.1117
  479MOL0     H64633   4.747   7.889   1.391  1.0157  1.7529  2.8193
  479MOL0     H64634   4.898   7.963   1.437  2.8097 -3.9201  0.2741
  479MOL0     H64635   4.778   7.953   1.149 -1.5084  0.1755  1.3615
  479MOL0     H64636   4.930   8.028   1.193 -0.4786 -0.5091  0.0223
  479MOL0     H64637   4.767   8.193   1.175  2.2704  0.5686  1.3453
  479MOL0     H64638   4.826   8.180   1.337 -1.4094 -0.7123  2.0104
  479MOL0     H64639   4.632   8.065   1.424  4.0424  3.2765  2.5878
  479MOL0     H64640   4.571   8.211   1.345 -1.0207 -1.7894  2.5199
  479MOL0     H64641   4.546   7.919   1.256 -0.6044  0.6370  1.0310
  479MOL0     H64642   4.545   8.049   1.135 -0.3730  0.8682  0.8756
  479MOL0     H64643   4.365   8.149   1.273 -1.7879 -0.3349  0.4027
  479MOL0     H64644   4.326   7.981   1.223  0.0160 -1.3026  1.1709
  479MOL0     H64645   5.095   7.412   1.652  0.8418 -0.5352  1.7924
  479MOL0     H64646   5.274   7.411   1.799 -3.6440 -0.6038  0.8153
  479MOL0     H64647   5.612   7.376   2.131 -2.1663  0.8372 -2.3016
  479MOL0     H64648   5.803   7.409   2.252 -2.8852  1.0423  1.3952
  479MOL0     H64649   4.494   7.863   2.246  1.5762  3.3862  2.0651
  479MOL0     H64650   4.257   7.918   2.271 -1.3722 -2.5990 -2.2193
  479MOL0     H64651   3.933   8.235   2.329  1.2397 -0.0246  1.8821
  479MOL0     H64652   3.710   8.301   2.356 -1.5847 -1.1683 -0.7889
  479MOL0     H64653   3.608   8.360   2.649  1.6809 -1.0895  0.9089
  479MOL0     H64654   3.536   8.222   2.736  0.1584  0.7907  0.9086
  479MOL0     H64655   3.390   8.422   2.548 -2.7873  1.0305  0.7430
  479MOL0     H64656   3.406   8.430   2.730 -1.8532 -0.8329  1.0178
  479MOL0     H64657   3.304   8.197   2.724  3.8737  1.1723 -0.1756
  479MOL0     H64658   3.254   8.227   2.561 -1.0473 -0.4118 -1.1810
  479MOL0     H64659   3.192   8.407   2.778  0.7212 -1.0429  0.6031
  479MOL0     H64660   3.144   8.444   2.609  5.0643  0.9418  0.4157
  479MOL0     H64661   2.842   8.152   2.745  0.4826 -1.1826  1.5638
  479MOL0     H64662   3.636   7.985   2.648 -0.7632 -0.3554 -0.4268
  479MOL0     H64663   3.766   7.805   2.649  0.3228 -2.7989 -0.9657
  479MOL0     H64664   3.888   7.790   2.520  2.4708 -1.7893  1.5210
  479MOL0     H64665   3.937   7.860   2.678  0.3037  0.1753 -1.1682
  480MOL0     O64666   3.461   8.447   2.253  0.7458 -0.3888  0.4027
  480MOL0     C64667   3.405   8.446   2.141  0.2124  0.5380  0.0932
  480MOL0     O64668   3.465   8.424   2.024 -0.1168 -0.4936  0.4004
  480MOL0     C64669   3.600   8.401   2.020  0.0889  0.1677 -0.8819
  480MOL0     C64670   3.659   8.274   2.047  0.8323 -0.7349  0.2886
  480MOL0     C64671   3.800   8.260   2.046 -0.0785  0.0638  0.1514
  480MOL0     C64672   3.877   8.373   2.024  0.9212  0.1682 -0.4696
  480MOL0     O64673   4.013   8.380   2.028 -0.4919 -0.7235  0.6461
  480MOL0     C64674   4.099   8.273   1.987  0.0100  0.2369 -0.0683
  480MOL0     C64675   4.244   8.296   2.018  0.1553  0.3111 -0.0543
  480MOL0     C64676   4.291   8.270   2.160 -0.3245 -0.0089 -0.9318
  480MOL0     C64677   4.424   8.338   2.183  0.3893  0.0303  0.6131
  480MOL0     C64678   4.519   8.297   2.301  0.3026  1.4934 -0.1778
  480MOL0     C64679   4.457   8.348   2.434 -0.6497 -0.2468  0.2797
  480MOL0     C64680   4.513   8.279   2.562 -0.0202  0.5151 -0.4325
  480MOL0     C64681   4.464   8.137   2.576 -0.5475  0.2231 -0.0850
  480MOL0     N64682   4.519   8.073   2.685 -0.8819 -0.2444 -0.5077
  480MOL0     C64683   4.651   8.034   2.691  1.0667 -0.7951 -0.0013
  480MOL0     C64684   4.655   7.942   2.796  0.2443 -0.1261  0.5313
  480MOL0     C64685   4.772   7.852   2.834 -0.2733  0.2433  0.3087
  480MOL0     C64686   4.904   7.919   2.797  0.9517 -0.7004  0.0037
  480MOL0     C64687   5.018   7.821   2.840  0.3030  0.2472  0.6450
  480MOL0     C64688   5.151   7.898   2.836  0.3479 -0.7546  0.0780
  480MOL0     O64689   5.258   7.797   2.862  0.3580 -0.0594 -0.2902
  480MOL0     C64690   5.388   7.829   2.847 -0.1870 -0.4969 -0.3287
  480MOL0     C64691   5.483   7.725   2.861 -0.4803  0.4104 -0.3738
  480MOL0     C64692   5.622   7.754   2.849 -0.0176 -0.2799  1.0204
  480MOL0     C64693   5.664   7.888   2.829 -0.6254 -1.1259 -0.5333
  480MOL0     C64694   5.809   7.910   2.840  0.4434  0.2440  0.9905
  480MOL0     O64695   5.894   7.803   2.834  0.5307  0.6365  0.1178
  480MOL0     C64696   6.019   7.825   2.880 -0.3497 -0.3061 -0.7456
  480MOL0     C64697   6.062   7.906   2.983  0.7010 -0.4210  0.8032
  480MOL0     C64698   6.193   7.927   3.021 -0.3985  1.2151 -0.8143
  480MOL0     C64699   6.294   7.874   2.950  0.2311  0.5736  0.1669
  480MOL0     O64700   6.422   7.899   2.983 -0.5990 -0.0541 -0.4958
  480MOL0     C64701   6.480   7.806   3.074 -0.2706  0.8183  0.3947
  480MOL0     C64702   6.505   7.879   3.202 -0.1629 -0.4394 -0.2760
  480MOL0     C64703   6.607   7.805   3.290  0.0232 -0.0367 -0.0228
  480MOL0     C64704   6.552   7.705   3.384 -0.6747 -0.6450  0.4701
  480MOL0     C64705   6.659   7.656   3.491  0.1379 -0.0689  0.0656
  480MOL0     C64706   6.800   7.630   3.437 -0.6748  0.1067 -0.0965
  480MOL0     C64707   6.886   7.551   3.540 -0.4541  0.4263 -0.3412
  480MOL0     C64708   7.019   7.504   3.477  0.4313 -0.4191 -0.2692
  480MOL0    Cl64709   7.121   7.644   3.465  0.0502  0.1183 -0.3790
  480MOL0     C64710   6.262   7.788   2.836  0.2871 -0.2397  0.2213
  480MOL0     C64711   6.126   7.766   2.808  0.4561  0.6853  0.0172
  480MOL0     O64712   5.842   8.028   2.849  0.1911 -0.0157 -0.0113
  480MOL0     C64713   5.574   7.994   2.843  1.2746 -0.4909 -0.0294
  480MOL0     C64714   5.436   7.962   2.861 -0.4037  0.5528 -0.8997
  480MOL0     N64715   4.531   7.945   2.857 -0.4495  0.1240 -0.2715
  480MOL0     N64716   4.457   8.026   2.800  0.1146  0.3857  0.5787
  480MOL0     C64717   3.823   8.492   2.003  0.5647 -0.0473  1.0740
  480MOL0     C64718   3.681   8.509   1.989 -0.2256  0.0432  0.7561
  480MOL0     C64719   3.261   8.484   2.145  0.0000  1.2216  0.3316
  480MOL0     C64720   3.189   8.416   2.244  0.2431  0.3690 -0.6999
  480MOL0     C64721   3.044   8.430   2.257  0.4031 -0.0603  0.3275
  480MOL0     C64722   2.975   8.500   2.162 -0.0702  0.2474  0.5697
  480MOL0     O64723   2.836   8.497   2.176  0.5325 -0.2396 -0.4588
  480MOL0     C64724   2.779   8.609   2.242 -0.8876 -0.3009  0.0838
  480MOL0     C64725   2.767   8.571   2.393  0.1066 -0.2713  1.2592
  480MOL0     C64726   2.652   8.467   2.419 -0.3155 -0.6536 -0.4062
  480MOL0     C64727   2.679   8.377   2.543 -0.4510 -0.1725 -1.2792
  480MOL0     C64728   2.570   8.277   2.552 -0.7402  0.2682 -0.6947
  480MOL0     C64729   2.487   8.192   2.571  0.0369  0.4464 -0.0460
  480MOL0     C64730   3.048   8.565   2.065 -0.7735 -0.2131  0.2444
  480MOL0     C64731   3.189   8.557   2.051 -0.7617 -0.0573 -0.7095
  480MOL0     C64732   3.248   8.630   1.930 -0.6627  0.0020 -0.0697
  480MOL0     H64733   3.594   8.190   2.068 -1.0270  0.1493 -1.5220
  480MOL0     H64734   3.853   8.167   2.061 -1.7732 -1.3659 -2.0815
  480MOL0     H64735   4.068   8.192   2.054  0.5124  1.7849  2.1728
  480MOL0     H64736   4.087   8.248   1.881 -0.8904 -0.2830  0.1419
  480MOL0     H64737   4.259   8.400   1.987  2.5195  0.3621  1.0282
  480MOL0     H64738   4.309   8.239   1.951  2.9589  1.8498  1.1950
  480MOL0     H64739   4.293   8.161   2.167 -0.3236 -0.1857 -2.9614
  480MOL0     H64740   4.217   8.313   2.229 -0.2911 -1.7573  0.2494
  480MOL0     H64741   4.479   8.330   2.089 -1.3913  0.4045 -0.5042
  480MOL0     H64742   4.395   8.442   2.200 -0.1296 -0.2451  1.4628
  480MOL0     H64743   4.514   8.188   2.294 -4.2571  1.4712  0.2399
  480MOL0     H64744   4.619   8.339   2.294  0.4393  1.6645  2.0788
  480MOL0     H64745   4.494   8.451   2.434  2.9915 -1.3950 -0.8907
  480MOL0     H64746   4.348   8.340   2.427 -0.6291 -0.0899 -0.2450
  480MOL0     H64747   4.477   8.340   2.645 -0.1480  1.1826 -0.9758
  480MOL0     H64748   4.621   8.277   2.551 -0.2214  0.6036 -3.3595
  480MOL0     H64749   4.355   8.142   2.588 -1.2708  0.7219 -4.9360
  480MOL0     H64750   4.474   8.072   2.489  3.7299  0.1238  0.2975
  480MOL0     H64751   4.725   8.052   2.613  0.0190 -0.3521 -0.9114
  480MOL0     H64752   4.764   7.842   2.943  0.8963 -2.5302  0.2404
  480MOL0     H64753   4.749   7.758   2.784 -2.9059  3.0562 -4.3948
  480MOL0     H64754   4.903   7.941   2.690  0.5397  1.9366  0.4837
  480MOL0     H64755   4.914   8.017   2.845 -0.1020 -0.3895 -0.3716
  480MOL0     H64756   5.020   7.739   2.767 -1.0643  1.1604 -0.4664
  480MOL0     H64757   4.988   7.778   2.937  1.4156 -0.7253  0.5765
  480MOL0     H64758   5.151   7.971   2.918 -4.3356  0.7442 -0.9739
  480MOL0     H64759   5.160   7.960   2.747  1.2123  2.0645  1.9635
  480MOL0     H64760   5.451   7.628   2.900  1.5464  0.1179  0.6897
  480MOL0     H64761   5.690   7.676   2.881 -1.1000 -1.9763 -0.5951
  480MOL0     H64762   5.983   7.950   3.043  2.7374  2.4566  1.5644
  480MOL0     H64763   6.212   7.991   3.107  0.5843  1.0078 -0.8635
  480MOL0     H64764   6.412   7.720   3.084  1.1227 -0.2635  0.9621
  480MOL0     H64765   6.575   7.767   3.035 -0.2765 -2.0248  2.8276
  480MOL0     H64766   6.555   7.969   3.165 -0.9101  0.0302 -0.1736
  480MOL0     H64767   6.411   7.906   3.251  0.3395  0.9116 -0.0251
  480MOL0     H64768   6.687   7.761   3.231 -0.2381 -0.9486  0.2925
  480MOL0     H64769   6.645   7.880   3.360  1.4200 -1.7931  1.1693
  480MOL0     H64770   6.496   7.628   3.329 -0.6887  1.2503 -2.3708
  480MOL0     H64771   6.476   7.751   3.449  0.2149  1.4536  0.0698
  480MOL0     H64772   6.619   7.565   3.537 -0.2850  0.1021  0.0442
  480MOL0     H64773   6.679   7.728   3.571  2.2520 -0.3345 -0.1828
  480MOL0     H64774   6.791   7.579   3.341 -3.3588 -0.2563  0.2647
  480MOL0     H64775   6.846   7.728   3.421 -2.1403  0.6039 -1.4637
  480MOL0     H64776   6.834   7.466   3.586  1.3948 -1.1099 -0.9877
  480MOL0     H64777   6.919   7.604   3.629  0.7830 -0.2998 -0.3552
  480MOL0     H64778   7.084   7.447   3.544 -0.8813 -1.0100  0.5359
  480MOL0     H64779   6.999   7.449   3.385  1.0995 -0.6227 -0.2974
  480MOL0     H64780   6.345   7.756   2.775  0.3921 -1.7209  1.1030
  480MOL0     H64781   6.106   7.701   2.724  1.1034  0.1664  0.2580
  480MOL0     H64782   5.604   8.098   2.856  2.1710 -0.6135 -1.0153
  480MOL0     H64783   5.366   8.044   2.874 -0.3066  1.2643 -3.9804
  480MOL0     H64784   3.890   8.578   2.006  0.7297 -0.1948  1.6421
  480MOL0     H64785   3.646   8.606   1.955  3.4796  2.3335  2.8048
  480MOL0     H64786   3.236   8.338   2.301 -0.4936 -0.5324 -1.2972
  480MOL0     H64787   2.997   8.379   2.340 -1.7098  1.9656  0.4536
  480MOL0     H64788   2.678   8.618   2.202 -0.9451  0.2519  0.3567
  480MOL0     H64789   2.831   8.701   2.214  0.3009 -0.7203  0.8464
  480MOL0     H64790   2.736   8.660   2.448 -1.5078  1.0374 -1.6020
  480MOL0     H64791   2.862   8.528   2.427  1.7906  2.8445  0.8794
  480MOL0     H64792   2.638   8.398   2.335  1.7351 -2.0469  0.3137
  480MOL0     H64793   2.560   8.524   2.434  1.5121  2.1392  1.0333
  480MOL0     H64794   2.769   8.317   2.528 -1.3970 -2.1198  0.3771
  480MOL0     H64795   2.675   8.431   2.638 -1.3534 -0.4276 -1.1628
  480MOL0     H64796   2.406   8.124   2.590  2.0437 -1.9696  0.5041
  480MOL0     H64797   2.992   8.627   1.995 -0.3222 -0.7566 -0.6114
  480MOL0     H64798   3.312   8.570   1.866 -1.6644 -0.9440 -0.2070
  480MOL0     H64799   3.166   8.664   1.865  1.5251 -1.6105 -3.9742
  480MOL0     H64800   3.300   8.724   1.952  1.6672 -1.3183  0.2661
  481MOL0     O64801   3.676   3.211   9.610  0.0145  0.2779  0.1621
  481MOL0     C64802   3.618   3.121   9.551 -0.1938 -0.6730 -1.8061
  481MOL0     O64803   3.664   3.065   9.437  0.2709  0.2655 -0.1788
  481MOL0     C64804   3.761   3.130   9.375 -0.5007 -0.9188 -0.8768
  481MOL0     C64805   3.879   3.055   9.343 -0.1732 -0.0597  0.3466
  481MOL0     C64806   3.973   3.098   9.253 -0.8259  0.0517  1.0915
  481MOL0     C64807   3.954   3.223   9.187  0.3259 -0.7962 -0.6788
  481MOL0     O64808   4.065   3.265   9.112 -0.4159  0.0509  0.0001
  481MOL0     C64809   4.021   3.353   9.003  0.4340  0.4776 -0.0693
  481MOL0     C64810   4.139   3.399   8.925  0.4485 -0.0257  0.5215
  481MOL0     C64811   4.213   3.284   8.847  0.3228 -0.7540 -0.9762
  481MOL0     C64812   4.363   3.310   8.832 -0.0185 -0.5977 -0.3901
  481MOL0     C64813   4.430   3.197   8.748 -0.8305  0.6825 -0.4603
  481MOL0     C64814   4.469   3.075   8.826 -0.1111 -0.7985  0.0434
  481MOL0     C64815   4.590   3.009   8.773 -0.1690  0.2738  0.3853
  481MOL0     C64816   4.574   2.953   8.628 -0.1287  0.1692  1.7225
  481MOL0     N64817   4.508   2.824   8.630 -0.4272  0.2947  0.0704
  481MOL0     C64818   4.372   2.805   8.639 -0.4718 -0.2449 -0.5720
  481MOL0     C64819   4.344   2.672   8.656  0.6770 -0.3340 -0.3310
  481MOL0     C64820   4.228   2.582   8.663  0.6567  0.5274  0.3331
  481MOL0     C64821   4.117   2.600   8.562  0.6512  0.3138  0.0266
  481MOL0     C64822   3.968   2.568   8.607  0.0318  0.3014  0.1446
  481MOL0     C64823   3.959   2.421   8.669  0.4949 -0.5534  0.2127
  481MOL0     O64824   3.849   2.425   8.756 -0.8850  0.3097  0.0979
  481MOL0     C64825   3.726   2.401   8.700 -0.6449 -0.0260 -0.2759
  481MOL0     C64826   3.625   2.379   8.795  0.0282 -0.1903  0.2350
  481MOL0     C64827   3.494   2.357   8.761 -0.1501 -0.8457  0.5710
  481MOL0     C64828   3.465   2.362   8.623  0.2342 -0.5093  0.2647
  481MOL0     C64829   3.327   2.346   8.570 -0.2831 -0.6768  0.4963
  481MOL0     O64830   3.230   2.311   8.654 -0.5950 -0.1693 -0.2056
  481MOL0     C64831   3.099   2.299   8.610  1.3144  0.4016  0.5298
  481MOL0     C64832   3.001   2.354   8.694  0.6357 -0.7483 -0.2879
  481MOL0     C64833   2.868   2.325   8.665  0.9477 -0.3989 -0.1361
  481MOL0     C64834   2.835   2.257   8.549 -0.0319  0.8250  0.4961
  481MOL0     O64835   2.704   2.252   8.519  0.1660 -0.4660 -0.0852
  481MOL0     C64836   2.659   2.126   8.471  0.6382  0.0109  0.5053
  481MOL0     C64837   2.509   2.115   8.482 -0.1377 -0.9549 -0.1000
  481MOL0     C64838   2.443   2.186   8.361  0.4452 -0.3546 -0.2290
  481MOL0     C64839   2.292   2.181   8.376 -0.8026 -0.6447 -0.1469
  481MOL0     C64840   2.207   2.205   8.256  0.7648  0.6939  0.0527
  481MOL0     C64841   2.072   2.125   8.271  0.2297 -0.1275  0.8996
  481MOL0     C64842   2.000   2.101   8.142 -0.1985 -1.2243  0.8379
  481MOL0     C64843   1.860   2.046   8.140  1.3979 -0.9827 -0.6327
  481MOL0    Cl64844   1.763   2.114   8.278  0.1820 -0.2687 -0.1192
  481MOL0     C64845   2.932   2.224   8.453  0.6302 -0.0465 -0.7353
  481MOL0     C64846   3.066   2.234   8.494 -0.0639  0.7350  0.0047
  481MOL0     O64847   3.314   2.359   8.446  0.6879 -0.4170  0.5820
  481MOL0     C64848   3.565   2.376   8.523  0.1080  0.6401 -0.4439
  481MOL0     C64849   3.690   2.409   8.568 -0.4427 -0.3136 -0.0445
  481MOL0     N64850   4.475   2.615   8.653  0.5121  0.1659 -0.2689
  481MOL0     N64851   4.565   2.700   8.637 -0.2872 -0.0601 -0.1411
  481MOL0     C64852   3.829   3.295   9.215 -0.4313  0.5618  0.8806
  481MOL0     C64853   3.734   3.251   9.305 -0.6942  0.4217 -1.2884
  481MOL0     C64854   3.510   3.049   9.625 -0.5249  0.4886  0.4827
  481MOL0     C64855   3.431   2.959   9.559 -0.1149 -0.0807  0.4485
  481MOL0     C64856   3.322   2.901   9.613 -0.1909  0.2656 -0.9285
  481MOL0     C64857   3.274   2.938   9.742  0.0119 -0.3894  0.4811
  481MOL0     O64858   3.162   2.887   9.803 -0.3294 -0.0058  0.1234
  481MOL0     C64859   3.064   2.814   9.722  0.5074 -0.2211 -0.3249
  481MOL0     C64860   2.951   2.788   9.818 -0.3686 -0.0433  0.6552
  481MOL0     C64861   2.819   2.762   9.757  1.2218  1.3244  0.5267
  481MOL0     C64862   2.810   2.625   9.679 -0.4964  0.1559 -1.1711
  481MOL0     C64863   2.682   2.605   9.611  0.0696  0.3366 -0.5337
  481MOL0     C64864   2.582   2.573   9.553 -0.7398  0.0018 -0.2445
  481MOL0     C64865   3.348   3.031   9.804 -0.0752 -1.0722  0.3491
  481MOL0     C64866   3.476   3.085   9.759  0.0796  0.4990  0.3607
  481MOL0     C64867   3.550   3.179   9.857 -0.2213  0.7671 -0.1895
  481MOL0     H64868   3.899   2.962   9.395 -1.8454 -1.2050 -0.9520
  481MOL0     H64869   4.062   3.037   9.240  0.2273  0.7804  4.0386
  481MOL0     H64870   3.959   3.298   8.932  0.4483  0.0428  0.2478
  481MOL0     H64871   3.968   3.441   9.043  0.7044  1.3421 -1.5313
  481MOL0     H64872   4.206   3.454   8.992  0.9320 -0.7130  0.6056
  481MOL0     H64873   4.099   3.471   8.853 -0.1261  1.1243  1.9348
  481MOL0     H64874   4.160   3.278   8.752 -0.5284  0.7132 -0.6310
  481MOL0     H64875   4.194   3.183   8.886  3.3016 -0.8861  0.3660
  481MOL0     H64876   4.384   3.404   8.781  2.5028  0.6875  2.7063
  481MOL0     H64877   4.399   3.312   8.935  0.4062 -1.6610 -0.5054
  481MOL0     H64878   4.366   3.164   8.666 -1.2677 -1.1594  0.5526
  481MOL0     H64879   4.516   3.241   8.697  1.3546 -1.3287  1.2436
  481MOL0     H64880   4.484   3.112   8.928 -1.6707 -0.5486  0.2052
  481MOL0     H64881   4.386   3.004   8.827  0.4719 -1.5397 -1.3363
  481MOL0     H64882   4.598   2.923   8.840 -0.2132  0.3521  0.4916
  481MOL0     H64883   4.685   3.064   8.780 -0.3517  0.4199  2.3908
  481MOL0     H64884   4.524   3.024   8.561  2.0384 -0.8846 -1.2004
  481MOL0     H64885   4.674   2.930   8.592  0.3178 -1.7254  3.9285
  481MOL0     H64886   4.302   2.888   8.639  0.1748  0.4272  2.6716
  481MOL0     H64887   4.264   2.479   8.660  4.4309  1.6780  1.1047
  481MOL0     H64888   4.184   2.604   8.761 -1.6841  0.4827 -0.6375
  481MOL0     H64889   4.124   2.707   8.537 -4.4761  1.6261  2.6673
  481MOL0     H64890   4.129   2.532   8.477  1.8243 -1.2999  1.4215
  481MOL0     H64891   3.890   2.581   8.533  0.0739 -1.5175 -0.2622
  481MOL0     H64892   3.945   2.650   8.676 -0.8279  1.5992 -1.6030
  481MOL0     H64893   4.050   2.394   8.725  0.1246 -0.0721  1.0786
  481MOL0     H64894   3.960   2.338   8.599  4.7995 -0.3490 -0.2775
  481MOL0     H64895   3.642   2.370   8.902 -2.4715  0.0603  0.7052
  481MOL0     H64896   3.421   2.333   8.838  1.9973 -0.0440  3.0026
  481MOL0     H64897   3.018   2.407   8.787  0.5850  2.3220 -1.9081
  481MOL0     H64898   2.792   2.374   8.725  1.8768 -0.6107  1.2644
  481MOL0     H64899   2.676   2.123   8.363  2.0460 -0.0499  0.7151
  481MOL0     H64900   2.707   2.037   8.511  0.4743  0.6222  2.1453
  481MOL0     H64901   2.505   2.006   8.477 -0.0278 -0.9122 -3.3778
  481MOL0     H64902   2.478   2.150   8.581  3.4687 -2.9667  1.9548
  481MOL0     H64903   2.474   2.290   8.355 -1.1740  0.0585 -3.2459
  481MOL0     H64904   2.478   2.139   8.269 -1.6659  0.5441 -1.5621
  481MOL0     H64905   2.261   2.255   8.450 -1.4939  0.7415 -1.7542
  481MOL0     H64906   2.272   2.083   8.421 -0.6827 -0.1364  1.0561
  481MOL0     H64907   2.267   2.183   8.167  4.4760  0.7682  2.3288
  481MOL0     H64908   2.189   2.312   8.245 -0.5931  0.4743 -0.0371
  481MOL0     H64909   2.090   2.034   8.329 -0.6916 -0.2450  1.0158
  481MOL0     H64910   2.011   2.188   8.336 -0.5248  1.7173 -1.4533
  481MOL0     H64911   2.057   2.032   8.079  0.1158 -1.3473  1.2543
  481MOL0     H64912   2.006   2.201   8.098 -3.2641 -0.2819  2.3065
  481MOL0     H64913   1.805   2.074   8.049 -0.7554 -3.7164 -0.3196
  481MOL0     H64914   1.875   1.938   8.144  4.1409 -0.6299  0.5778
  481MOL0     H64915   2.902   2.169   8.365 -1.2803 -2.5410  1.3024
  481MOL0     H64916   3.149   2.188   8.441  0.3888  1.3705  0.1470
  481MOL0     H64917   3.540   2.383   8.418 -1.5873  4.0549  0.0583
  481MOL0     H64918   3.752   2.441   8.485 -0.2463  2.0864  0.9649
  481MOL0     H64919   3.800   3.391   9.173  0.3407 -0.1514 -1.4548
  481MOL0     H64920   3.633   3.291   9.303 -0.1746  1.7867 -1.7445
  481MOL0     H64921   3.441   2.931   9.454 -1.8368 -2.9233  0.9486
  481MOL0     H64922   3.272   2.825   9.552  2.6275 -1.5048 -1.2064
  481MOL0     H64923   3.108   2.725   9.677  2.6546 -0.2403  1.5817
  481MOL0     H64924   3.027   2.879   9.643 -0.9011  0.0580  0.5262
  481MOL0     H64925   2.935   2.870   9.889 -1.0724  1.6237 -1.3063
  481MOL0     H64926   2.969   2.699   9.878 -1.6098  0.1247  1.3053
  481MOL0     H64927   2.785   2.846   9.695  1.8928  1.2860  0.1047
  481MOL0     H64928   2.747   2.750   9.839 -0.7322  0.3990 -1.2176
  481MOL0     H64929   2.885   2.617   9.600  0.4772  1.0375 -0.3759
  481MOL0     H64930   2.833   2.541   9.746  1.1980  0.4315 -1.3485
  481MOL0     H64931   2.494   2.533   9.505 -0.2494 -0.4438 -0.7924
  481MOL0     H64932   3.321   3.069   9.902 -2.6794  2.0680 -1.4070
  481MOL0     H64933   3.501   3.160   9.953 -1.4928  1.0906 -0.7530
  481MOL0     H64934   3.656   3.152   9.850 -1.0782 -2.5485 -3.4265
  481MOL0     H64935   3.526   3.283   9.835 -0.5927  0.6266 -0.4551
  482MOL0     O64936   4.236   1.141  10.735 -0.8341  0.1234  0.4880
  482MOL0     C64937   4.247   1.020  10.742  0.7265  0.4506 -0.5061
  482MOL0     O64938   4.363   0.948  10.766 -0.5562  0.1714 -0.0718
  482MOL0     C64939   4.490   1.001  10.776 -0.1665  0.2297 -0.3438
  482MOL0     C64940   4.520   1.136  10.767  0.2592  0.0419  1.0571
  482MOL0     C64941   4.651   1.171  10.771  0.8001 -0.2900  0.2802
  482MOL0     C64942   4.756   1.090  10.810  0.7771  0.2527  0.2414
  482MOL0     O64943   4.887   1.126  10.817 -0.3095  0.4727  0.0490
  482MOL0     C64944   4.946   1.254  10.830 -0.2292  0.4119 -0.4411
  482MOL0     C64945   4.902   1.330  10.965  0.2965  0.5536  0.0207
  482MOL0     C64946   4.993   1.445  11.000  0.4469  0.7737  1.0112
  482MOL0     C64947   4.943   1.537  11.109 -0.1777  0.2505 -0.4025
  482MOL0     C64948   5.054   1.632  11.150 -0.6177 -0.0566 -0.5575
  482MOL0     C64949   5.014   1.705  11.262 -0.3471 -0.4098  0.4687
  482MOL0     C64950   5.125   1.802  11.308 -0.8463  0.1751  0.4776
  482MOL0     C64951   5.073   1.903  11.402 -0.2780 -1.0353 -0.2802
  482MOL0     N64952   5.192   1.959  11.466  0.6673  0.3061  0.0986
  482MOL0     C64953   5.225   1.953  11.603 -0.5038 -0.0858 -0.2622
  482MOL0     C64954   5.348   2.009  11.612 -0.8723  0.2506  0.1938
  482MOL0     C64955   5.426   2.022  11.736 -0.3755  0.5204  0.0151
  482MOL0     C64956   5.427   2.173  11.784 -0.2754  0.2362 -0.8539
  482MOL0     C64957   5.469   2.285  11.686 -0.2070  0.2476  0.2434
  482MOL0     C64958   5.618   2.284  11.655  0.7349  0.1580 -0.0733
  482MOL0     O64959   5.703   2.319  11.764 -0.5585  0.6527  0.3436
  482MOL0     C64960   5.834   2.294  11.755 -0.2207 -0.1349 -0.9474
  482MOL0     C64961   5.906   2.237  11.657  0.8928 -0.7454  0.1892
  482MOL0     C64962   6.043   2.210  11.673 -0.1704  0.3817 -0.1279
  482MOL0     C64963   6.103   2.232  11.798  0.0275 -0.0121 -0.2446
  482MOL0     C64964   6.242   2.195  11.827  0.8266  1.0451 -0.3921
  482MOL0     O64965   6.308   2.122  11.738  0.0919  0.1537 -0.2522
  482MOL0     C64966   6.439   2.094  11.767  0.2016  0.5499 -0.0191
  482MOL0     C64967   6.439   1.957  11.794 -0.5692 -0.3764 -0.3140
  482MOL0     C64968   6.561   1.905  11.839  0.2798 -0.1914 -0.0105
  482MOL0     C64969   6.672   1.983  11.878 -0.9705 -0.5941  0.2844
  482MOL0     O64970   6.780   1.934  11.950 -0.0588 -0.0012 -0.4507
  482MOL0     C64971   6.848   1.811  11.898 -0.0422 -0.2963 -0.4607
  482MOL0     C64972   6.999   1.837  11.908 -0.1472 -0.2252  0.3454
  482MOL0     C64973   7.098   1.708  11.888  0.6646  0.4268  0.2762
  482MOL0     C64974   7.248   1.738  11.888  0.2261 -0.3261 -0.6835
  482MOL0     C64975   7.333   1.599  11.902 -0.3234 -0.7244  0.7738
  482MOL0     C64976   7.309   1.505  11.778 -0.0146 -0.0690 -0.3196
  482MOL0     C64977   7.388   1.380  11.801 -0.1813 -0.0443 -0.5553
  482MOL0     C64978   7.344   1.255  11.705  0.5692 -0.4142 -0.8003
  482MOL0    Cl64979   7.378   1.099  11.782  0.0927  0.5483 -0.2725
  482MOL0     C64980   6.666   2.117  11.839 -0.4754  0.2947  1.0497
  482MOL0     C64981   6.552   2.179  11.777  0.0829 -0.5927 -0.5998
  482MOL0     O64982   6.291   2.224  11.935  0.5826 -0.5605  0.3546
  482MOL0     C64983   6.022   2.294  11.899  0.1052 -0.1837 -0.1482
  482MOL0     C64984   5.894   2.327  11.875  0.5461 -0.5620 -0.4508
  482MOL0     N64985   5.390   2.042  11.483  0.2362  0.3369  0.0643
  482MOL0     N64986   5.291   2.022  11.406 -0.5072 -0.1281 -0.1169
  482MOL0     C64987   4.720   0.954  10.834  0.5450 -0.6787 -0.8833
  482MOL0     C64988   4.587   0.910  10.821  0.0585 -0.2826  0.0244
  482MOL0     C64989   4.113   0.944  10.718  0.3009  0.3869  0.6296
  482MOL0     C64990   3.990   1.006  10.731 -0.0693  0.8466 -0.2429
  482MOL0     C64991   3.869   0.949  10.707  0.0313  0.5776  0.5066
  482MOL0     C64992   3.866   0.820  10.665 -1.1964  0.1677 -0.1609
  482MOL0     O64993   3.750   0.750  10.624  0.2346  0.5268  0.1373
  482MOL0     C64994   3.673   0.669  10.710  0.2527 -0.6189  0.2758
  482MOL0     C64995   3.567   0.754  10.782  0.5468 -0.0118  0.1753
  482MOL0     C64996   3.498   0.842  10.680 -0.3720 -0.2242 -0.0648
  482MOL0     C64997   3.427   0.956  10.751  0.4476  0.2169  0.4157
  482MOL0     C64998   3.515   1.063  10.798 -0.6160 -0.0281 -0.1479
  482MOL0     C64999   3.593   1.155  10.837  0.0039 -0.9281  0.2443
  482MOL0     C65000   3.986   0.747  10.673  0.2259  1.4077 -0.4816
  482MOL0     C65001   4.111   0.804  10.688  1.3599 -0.3004  0.4730
  482MOL0     C65002   4.227   0.703  10.691 -0.5466  0.4815 -0.2267
  482MOL0     H65003   4.458   1.215  10.725  4.8177  2.4893 -1.8158
  482MOL0     H65004   4.677   1.273  10.745  0.5076 -0.5887 -1.2429
  482MOL0     H65005   5.052   1.229  10.834 -0.3387 -0.5087 -2.1278
  482MOL0     H65006   4.930   1.311  10.738 -0.0913  0.0796 -0.6708
  482MOL0     H65007   4.899   1.257  11.046 -1.1214  2.8973  2.2211
  482MOL0     H65008   4.796   1.356  10.955  0.3318  0.8600  0.4417
  482MOL0     H65009   5.009   1.505  10.910 -0.8477  0.4259  0.5312
  482MOL0     H65010   5.085   1.404  11.043  0.0250 -0.5459  0.7079
  482MOL0     H65011   4.859   1.597  11.075 -1.5085 -0.9565  0.6381
  482MOL0     H65012   4.921   1.487  11.204  1.8906  1.6131  0.8895
  482MOL0     H65013   5.147   1.578  11.169  0.8141  1.4198 -2.9236
  482MOL0     H65014   5.087   1.700  11.071 -0.5140  0.0363 -0.4346
  482MOL0     H65015   4.921   1.757  11.238  0.9124  1.6131 -0.3140
  482MOL0     H65016   4.993   1.644  11.350  1.4253 -0.8076  0.6577
  482MOL0     H65017   5.178   1.858  11.231  0.6342 -0.3502  1.0665
  482MOL0     H65018   5.202   1.746  11.362 -1.8192 -1.7397 -0.0415
  482MOL0     H65019   5.020   1.987  11.355  0.2963 -1.3693 -1.5671
  482MOL0     H65020   5.004   1.857  11.473 -1.1255  1.6793  0.8128
  482MOL0     H65021   5.168   1.904  11.682 -0.3065  0.2032  0.0585
  482MOL0     H65022   5.394   1.953  11.814  1.2195 -1.3101 -0.8295
  482MOL0     H65023   5.531   1.997  11.713 -0.1148  2.8080 -1.7052
  482MOL0     H65024   5.321   2.194  11.797 -0.5818 -1.8742  0.6644
  482MOL0     H65025   5.474   2.176  11.883 -1.8017 -1.3142 -0.0246
  482MOL0     H65026   5.446   2.383  11.729  1.1644  1.8790 -2.4707
  482MOL0     H65027   5.407   2.279  11.596  2.5531  2.8442 -2.0415
  482MOL0     H65028   5.635   2.347  11.567 -3.0483  3.1200  1.0576
  482MOL0     H65029   5.627   2.178  11.628 -2.5208  0.2084 -1.7415
  482MOL0     H65030   5.847   2.226  11.566 -1.0138  3.1016  0.7420
  482MOL0     H65031   6.101   2.175  11.588  1.2155  1.1227  0.4831
  482MOL0     H65032   6.348   1.898  11.790 -1.6197  0.7988  3.0876
  482MOL0     H65033   6.559   1.801  11.870  3.4920 -0.0123  1.2084
  482MOL0     H65034   6.821   1.717  11.946  3.1776 -1.4710 -0.7190
  482MOL0     H65035   6.831   1.788  11.792  1.2928 -0.6954 -0.6095
  482MOL0     H65036   7.037   1.911  11.837  1.2026 -1.5674 -0.3993
  482MOL0     H65037   7.021   1.858  12.014  2.1333 -3.2031  0.6047
  482MOL0     H65038   7.080   1.620  11.951 -1.4595  1.4521  1.2246
  482MOL0     H65039   7.072   1.672  11.788 -2.1050 -0.2080  1.1378
  482MOL0     H65040   7.280   1.795  11.975  0.5573 -1.1770 -0.2384
  482MOL0     H65041   7.278   1.788  11.795  0.6982 -1.1076 -0.9595
  482MOL0     H65042   7.331   1.541  11.995  0.0815 -0.7466  0.7720
  482MOL0     H65043   7.435   1.639  11.900  0.0243 -1.5120  1.6182
  482MOL0     H65044   7.201   1.491  11.772 -0.7937  4.6992 -1.4821
  482MOL0     H65045   7.330   1.549  11.680  2.5872 -0.8500 -0.1945
  482MOL0     H65046   7.370   1.343  11.902  0.6010 -0.6018 -0.6058
  482MOL0     H65047   7.490   1.405  11.772 -0.3326  1.8347  0.3880
  482MOL0     H65048   7.236   1.267  11.693  0.6871  0.3848 -1.1635
  482MOL0     H65049   7.398   1.257  11.610  0.2203 -0.3503 -0.9991
  482MOL0     H65050   6.754   2.178  11.852 -1.2694  1.7053  0.0504
  482MOL0     H65051   6.538   2.284  11.753  2.4318 -0.0882 -0.0174
  482MOL0     H65052   6.064   2.319  11.996 -1.5870 -2.4712  1.2892
  482MOL0     H65053   5.837   2.348  11.965 -0.8438 -0.0447 -1.4140
  482MOL0     H65054   4.790   0.883  10.875  0.0009 -2.0935 -2.2973
  482MOL0     H65055   4.562   0.805  10.828 -1.6742  0.1508  1.2014
  482MOL0     H65056   4.003   1.110  10.759  0.9397  0.3147  1.4066
  482MOL0     H65057   3.784   1.016  10.700  0.5845  1.3314  0.8611
  482MOL0     H65058   3.733   0.619  10.787  0.7950  1.8266  1.5493
  482MOL0     H65059   3.621   0.599  10.644 -0.8685  1.6323 -1.3445
  482MOL0     H65060   3.604   0.819  10.861 -0.5718  0.1690  0.5645
  482MOL0     H65061   3.489   0.689  10.823  0.9330 -0.7074 -0.1712
  482MOL0     H65062   3.432   0.776  10.624  2.0368 -2.2000 -0.7777
  482MOL0     H65063   3.575   0.889  10.617  0.9107 -1.5448  0.4541
  482MOL0     H65064   3.348   0.996  10.687 -1.7013 -1.0496  2.1624
  482MOL0     H65065   3.370   0.919  10.836 -2.1437  0.3664 -1.1630
  482MOL0     H65066   3.660   1.224  10.884 -0.9817 -1.0249  1.8689
  482MOL0     H65067   3.982   0.645  10.638  1.4601  1.0027  0.4813
  482MOL0     H65068   4.235   0.681  10.798 -1.7800  2.5361  0.3536
  482MOL0     H65069   4.199   0.616  10.632 -3.4541  1.2538 -0.1324
  482MOL0     H65070   4.319   0.745  10.650 -0.4543  0.3292 -0.1742
  483MOL0     O65071   7.700   8.925   0.997 -0.4174 -0.1293 -0.5501
  483MOL0     C65072   7.703   8.801   1.005  0.0425 -0.0841 -0.0752
  483MOL0     O65073   7.822   8.725   1.001 -0.6780 -0.1639  0.4579
  483MOL0     C65074   7.949   8.785   0.989  0.0951  0.0353  0.9361
  483MOL0     C65075   7.988   8.889   1.071  0.3028  0.0674  0.5439
  483MOL0     C65076   8.117   8.937   1.057  0.2202  0.0627  0.6777
  483MOL0     C65077   8.211   8.876   0.971 -0.3126  0.2645  0.4939
  483MOL0     O65078   8.338   8.920   0.952 -0.3346  0.0933 -0.5551
  483MOL0     C65079   8.403   8.985   1.054  0.3163  0.4965 -0.6158
  483MOL0     C65080   8.419   8.901   1.178  0.4536  0.4615 -1.0432
  483MOL0     C65081   8.515   8.783   1.171 -0.1708 -0.0035 -0.1188
  483MOL0     C65082   8.527   8.722   1.312 -0.0890 -0.0589  0.2477
  483MOL0     C65083   8.650   8.637   1.326  0.0646  0.1049  0.1718
  483MOL0     C65084   8.642   8.567   1.470  0.0446  0.4090  0.3896
  483MOL0     C65085   8.749   8.448   1.478  0.4628 -0.0708 -0.0940
  483MOL0     C65086   8.768   8.402   1.618 -0.4707 -0.3496  0.2639
  483MOL0     N65087   8.852   8.492   1.693 -0.1990 -0.7399 -0.1289
  483MOL0     C65088   8.833   8.520   1.829  0.0196  0.3054  0.6840
  483MOL0     C65089   8.948   8.586   1.869 -0.1793  0.4671  0.6170
  483MOL0     C65090   8.991   8.659   1.996  0.7249  0.4744 -0.4161
  483MOL0     C65091   9.075   8.578   2.101  0.0026 -0.9325  0.8559
  483MOL0     C65092   9.108   8.684   2.206 -0.2855  0.8246 -0.1798
  483MOL0     C65093   9.148   8.621   2.334 -0.2248  0.4739 -0.4475
  483MOL0     O65094   9.095   8.714   2.438  0.1822  0.5633  0.2729
  483MOL0     C65095   9.182   8.813   2.476 -0.3351  0.0074 -0.2432
  483MOL0     C65096   9.304   8.780   2.535  0.5036  0.7447  0.0743
  483MOL0     C65097   9.402   8.876   2.546 -1.1080 -0.3764 -0.6730
  483MOL0     C65098   9.378   9.010   2.520  0.0030  0.4528  0.0248
  483MOL0     C65099   9.477   9.127   2.547  1.0340 -0.3069 -0.4017
  483MOL0     O65100   9.564   9.100   2.649  0.5609  0.2293 -0.1216
  483MOL0     C65101   9.656   9.195   2.688 -0.1255  0.0417 -1.3784
  483MOL0     C65102   9.744   9.143   2.788  1.1650  0.3122 -0.1066
  483MOL0     C65103   9.846   9.218   2.847 -0.8519  0.4665  0.5087
  483MOL0     C65104   9.854   9.354   2.819  0.5184  0.2486  0.7613
  483MOL0     O65105   9.957   9.434   2.859 -1.2683 -0.1634  0.8402
  483MOL0     C65106  10.032   9.395   2.970 -0.1748  0.3844  0.3364
  483MOL0     C65107  10.144   9.305   2.922 -0.2956 -0.2209  1.2408
  483MOL0     C65108  10.223   9.248   3.040  0.3707  0.7425 -0.3814
  483MOL0     C65109  10.365   9.204   3.005  0.6618 -0.0953  0.6637
  483MOL0     C65110  10.449   9.172   3.134  0.5011 -0.1531  0.2005
  483MOL0     C65111  10.591   9.130   3.106  0.5750 -0.5797  0.9509
  483MOL0     C65112  10.602   9.001   3.013 -0.3241 -0.4586 -0.0789
  483MOL0     C65113  10.635   8.875   3.094  0.3774  0.4962 -0.6853
  483MOL0    Cl65114  10.782   8.906   3.181 -0.3643 -0.0583  0.4305
  483MOL0     C65115   9.760   9.411   2.734  0.3758  0.0550  0.1508
  483MOL0     C65116   9.663   9.334   2.666 -0.4571 -0.1362  0.2547
  483MOL0     O65117   9.478   9.228   2.483 -0.1112 -0.6634  0.8638
  483MOL0     C65118   9.258   9.039   2.462  0.5244  0.6801  0.2986
  483MOL0     C65119   9.158   8.941   2.439  0.6035  0.6394 -0.3859
  483MOL0     N65120   9.033   8.594   1.752 -0.5331 -0.0963 -0.3766
  483MOL0     N65121   8.975   8.533   1.650 -0.7017 -0.4088  0.2923
  483MOL0     C65122   8.175   8.761   0.901 -0.2646  1.1686 -0.4268
  483MOL0     C65123   8.052   8.711   0.915  1.0228 -0.4531  0.6598
  483MOL0     C65124   7.582   8.734   1.064 -0.9098  0.0015 -0.1874
  483MOL0     C65125   7.598   8.650   1.180 -0.8512  0.5881 -0.1533
  483MOL0     C65126   7.495   8.590   1.242 -0.3955  0.6785  0.5027
  483MOL0     C65127   7.370   8.596   1.189 -0.9439  0.0613 -0.2690
  483MOL0     O65128   7.266   8.518   1.229  0.4378 -0.3744  0.1141
  483MOL0     C65129   7.287   8.427   1.333  1.3953  0.1861  1.0785
  483MOL0     C65130   7.156   8.349   1.354  0.1676  0.2823  1.0376
  483MOL0     C65131   7.169   8.210   1.428 -0.0124  0.5727  0.0341
  483MOL0     C65132   7.043   8.129   1.439 -0.0132 -0.5073 -0.0635
  483MOL0     C65133   6.943   8.213   1.513 -0.0791 -0.7163  0.5211
  483MOL0     C65134   6.862   8.283   1.573 -0.8410 -0.3710  0.2893
  483MOL0     C65135   7.347   8.680   1.078  0.7975 -0.8703  0.1895
  483MOL0     C65136   7.454   8.746   1.017  0.0497 -0.2230  0.8806
  483MOL0     C65137   7.425   8.820   0.891 -0.2371  0.4467  0.6570
  483MOL0     H65138   7.919   8.934   1.142 -2.9135 -1.4925 -1.3392
  483MOL0     H65139   8.145   9.010   1.131 -3.2947  1.3809  0.8793
  483MOL0     H65140   8.501   9.021   1.022  1.8500 -1.3610  1.6212
  483MOL0     H65141   8.347   9.068   1.097  0.7385 -0.1661  1.3207
  483MOL0     H65142   8.326   8.862   1.221  0.5689  0.2727 -0.9634
  483MOL0     H65143   8.466   8.959   1.258 -0.0453 -1.4908  0.7436
  483MOL0     H65144   8.614   8.821   1.146  0.3016 -0.8666  0.3939
  483MOL0     H65145   8.490   8.702   1.103 -0.8074 -1.1692  1.4242
  483MOL0     H65146   8.529   8.797   1.392 -2.7115 -0.8237  1.1529
  483MOL0     H65147   8.441   8.656   1.326  1.2703 -1.8636  0.5753
  483MOL0     H65148   8.650   8.562   1.247  0.6111 -0.4956  0.7262
  483MOL0     H65149   8.739   8.701   1.326  1.4349 -1.6327 -1.9199
  483MOL0     H65150   8.656   8.644   1.546 -1.6631  2.1884 -0.9923
  483MOL0     H65151   8.548   8.515   1.487  0.0848  0.7195  1.6003
  483MOL0     H65152   8.838   8.498   1.440 -2.2411  2.3073 -4.0319
  483MOL0     H65153   8.712   8.360   1.425 -2.1951 -2.1458  4.5720
  483MOL0     H65154   8.666   8.396   1.657 -0.9262  2.9083 -0.1129
  483MOL0     H65155   8.816   8.304   1.624 -1.4510 -0.7614  3.2776
  483MOL0     H65156   8.741   8.515   1.886 -1.0662  0.3501 -1.0115
  483MOL0     H65157   9.059   8.741   1.969  1.5646  0.2613  0.9643
  483MOL0     H65158   8.901   8.691   2.049 -1.3749 -3.5153 -1.1536
  483MOL0     H65159   9.015   8.498   2.144  0.1213 -1.0442  0.8124
  483MOL0     H65160   9.164   8.537   2.053  0.5094 -0.9887  1.8282
  483MOL0     H65161   9.024   8.754   2.217 -0.2862  1.1180 -1.8264
  483MOL0     H65162   9.188   8.747   2.167 -0.5204  1.5626  0.5025
  483MOL0     H65163   9.256   8.619   2.345 -0.4161 -2.4850  2.2792
  483MOL0     H65164   9.110   8.520   2.351  0.1958  0.1866 -1.1907
  483MOL0     H65165   9.323   8.677   2.564 -0.8128  0.3398 -0.4281
  483MOL0     H65166   9.496   8.859   2.598  0.1972 -0.5363 -2.9469
  483MOL0     H65167   9.728   9.038   2.810 -0.2045  0.3187 -0.9888
  483MOL0     H65168   9.915   9.161   2.908  0.5426  2.1891  0.6330
  483MOL0     H65169  10.073   9.483   3.020 -2.3381  0.6820  1.7363
  483MOL0     H65170   9.967   9.346   3.043  1.0013  2.3396  2.8362
  483MOL0     H65171  10.106   9.219   2.866 -1.2764  0.0317  1.4963
  483MOL0     H65172  10.214   9.357   2.856  1.5690 -1.6218  2.0165
  483MOL0     H65173  10.230   9.315   3.126  1.6849 -2.5897  2.3875
  483MOL0     H65174  10.175   9.158   3.082  1.3605  1.0618  1.5560
  483MOL0     H65175  10.416   9.280   2.945 -0.2614 -0.2230 -0.3241
  483MOL0     H65176  10.357   9.117   2.939  3.6387  0.1720 -0.2027
  483MOL0     H65177  10.399   9.092   3.189 -1.6487  1.9155  1.4569
  483MOL0     H65178  10.449   9.255   3.205 -4.3687 -0.1592  0.5684
  483MOL0     H65179  10.634   9.221   3.062 -2.7052  0.6597  0.0245
  483MOL0     H65180  10.639   9.111   3.202 -0.6927 -2.2345  1.3017
  483MOL0     H65181  10.692   9.018   2.954  0.3682 -5.4200 -0.8216
  483MOL0     H65182  10.522   8.992   2.939 -1.2189 -0.5270  0.8627
  483MOL0     H65183  10.545   8.849   3.150  0.3773  1.0961 -0.4009
  483MOL0     H65184  10.650   8.794   3.022  0.5182  1.6317 -2.0024
  483MOL0     H65185   9.771   9.512   2.697  2.7610  0.2868  1.3420
  483MOL0     H65186   9.609   9.381   2.584 -0.7290 -1.1841 -0.1838
  483MOL0     H65187   9.240   9.144   2.442 -1.0200  0.3272 -0.2629
  483MOL0     H65188   9.061   8.967   2.399 -1.0030 -2.7893  0.8634
  483MOL0     H65189   8.254   8.717   0.840  0.6655 -0.2632  1.6670
  483MOL0     H65190   8.014   8.628   0.857 -0.7448 -1.7008  3.3506
  483MOL0     H65191   7.698   8.647   1.223 -0.1328  1.5394 -1.6501
  483MOL0     H65192   7.525   8.539   1.334  1.8353  1.0511  0.0541
  483MOL0     H65193   7.331   8.475   1.421 -1.6106  3.2799  1.1140
  483MOL0     H65194   7.363   8.362   1.288  1.0901  1.4897 -1.4715
  483MOL0     H65195   7.124   8.321   1.253  1.5907 -0.0090  0.6425
  483MOL0     H65196   7.085   8.409   1.410 -1.6861 -0.4193 -0.4468
  483MOL0     H65197   7.197   8.231   1.532  1.2704 -0.5957 -0.0440
  483MOL0     H65198   7.248   8.157   1.374 -0.5339  0.2091 -0.3808
  483MOL0     H65199   7.011   8.092   1.341  1.6424 -2.4546  0.0464
  483MOL0     H65200   7.068   8.035   1.489  1.2698  0.2475  0.7765
  483MOL0     H65201   6.796   8.354   1.618  0.0520 -0.1454  1.3023
  483MOL0     H65202   7.243   8.685   1.046  0.9029  0.8385  0.0400
  483MOL0     H65203   7.414   8.749   0.808 -3.1926 -0.3489  1.6111
  483MOL0     H65204   7.331   8.874   0.906 -0.3843  0.6865 -0.9409
  483MOL0     H65205   7.499   8.894   0.859  0.9886 -0.4557  1.3212
  484MOL0     O65206  10.990  11.291   1.946 -0.0777  0.3896  0.0830
  484MOL0     C65207  10.864  11.292   1.944 -0.5944  0.0467  0.9147
  484MOL0     O65208  10.780  11.403   1.945 -0.2644 -0.2670 -0.3215
  484MOL0     C65209  10.837  11.534   1.944  0.7647 -0.3990  1.0794
  484MOL0     C65210  10.936  11.579   1.854 -0.3624 -0.2875  0.0790
  484MOL0     C65211  10.974  11.720   1.847 -0.2241  0.6250 -0.0661
  484MOL0     C65212  10.901  11.813   1.928 -0.5794 -0.3347  0.0135
  484MOL0     O65213  10.925  11.945   1.922 -0.3267  0.1133 -0.0027
  484MOL0     C65214  11.051  11.997   1.988  0.3495  0.5291  0.4731
  484MOL0     C65215  11.023  11.991   2.134 -0.4452 -0.1615 -0.2826
  484MOL0     C65216  11.145  12.044   2.208 -0.4435  0.1610 -0.1742
  484MOL0     C65217  11.121  12.042   2.357  0.8230  0.7707 -1.2036
  484MOL0     C65218  11.234  12.095   2.441  0.0479  0.4920 -0.4740
  484MOL0     C65219  11.228  12.052   2.587 -0.2673 -0.3345 -0.9515
  484MOL0     C65220  11.120  12.134   2.652  0.0973  0.3878 -0.4049
  484MOL0     C65221  11.163  12.167   2.801 -0.4235 -0.8425  0.1026
  484MOL0     N65222  11.057  12.255   2.857  0.2041 -0.6060  0.0820
  484MOL0     C65223  11.020  12.383   2.822 -0.4268  0.4146 -0.6954
  484MOL0     C65224  10.895  12.399   2.880 -0.8574  0.2191  0.9547
  484MOL0     C65225  10.810  12.533   2.871  1.2754 -0.3403 -0.5197
  484MOL0     C65226  10.732  12.550   3.001 -0.6746 -0.3480 -1.0274
  484MOL0     C65227  10.656  12.679   3.000 -1.5458  0.1963 -0.2498
  484MOL0     C65228  10.541  12.681   3.091 -0.0562 -0.5793  0.0075
  484MOL0     O65229  10.453  12.599   3.020 -0.0414 -0.1579  0.7350
  484MOL0     C65230  10.316  12.618   3.017  0.7097  0.0811  0.8974
  484MOL0     C65231  10.250  12.718   3.091  0.0246 -0.0286  0.7198
  484MOL0     C65232  10.113  12.743   3.068 -0.6099  0.2706  0.3487
  484MOL0     C65233  10.044  12.673   2.964  0.4879  0.4928  0.2116
  484MOL0     C65234   9.902  12.699   2.913 -0.3469  0.5248 -0.6960
  484MOL0     O65235   9.843  12.627   2.810 -0.6075  0.3395  0.0137
  484MOL0     C65236   9.708  12.644   2.805 -0.1220  0.2718 -0.0766
  484MOL0     C65237   9.645  12.765   2.766  0.4198 -0.1155  0.4263
  484MOL0     C65238   9.507  12.771   2.741  0.3296  0.7156  1.1829
  484MOL0     C65239   9.429  12.661   2.778 -0.1199  0.3665 -0.2924
  484MOL0     O65240   9.291  12.645   2.758  0.0190 -0.0788  0.8306
  484MOL0     C65241   9.209  12.759   2.734 -0.8601  0.1293 -0.1072
  484MOL0     C65242   9.068  12.712   2.700 -0.5924 -0.1936  0.0096
  484MOL0     C65243   9.011  12.635   2.827  0.2528 -0.1020  0.0148
  484MOL0     C65244   8.885  12.560   2.794 -1.0794  0.0841 -0.0140
  484MOL0     C65245   8.778  12.644   2.736 -0.6070 -0.4713  0.4109
  484MOL0     C65246   8.660  12.549   2.712 -1.1693 -0.5118 -0.0454
  484MOL0     C65247   8.555  12.636   2.641 -0.4118  0.2151 -0.1397
  484MOL0     C65248   8.434  12.559   2.582 -0.6286 -0.6188  0.6726
  484MOL0    Cl65249   8.298  12.675   2.542 -0.0545 -0.0364  0.0202
  484MOL0     C65250   9.491  12.542   2.817  0.2198  0.3983 -0.3000
  484MOL0     C65251   9.628  12.536   2.829 -0.2872 -0.8178  0.3868
  484MOL0     O65252   9.847  12.768   2.989 -0.5056  0.4757  0.0693
  484MOL0     C65253  10.105  12.567   2.904 -0.1443  0.0256  0.4024
  484MOL0     C65254  10.238  12.538   2.925 -0.4920 -0.0546 -0.1318
  484MOL0     N65255  10.868  12.291   2.958  0.9224  0.4233  1.2725
  484MOL0     N65256  10.957  12.197   2.935 -0.0909 -0.0778 -1.0573
  484MOL0     C65257  10.807  11.770   2.019  0.4643 -0.0379 -0.4908
  484MOL0     C65258  10.774  11.635   2.026  0.0285  0.3714  0.0351
  484MOL0     C65259  10.799  11.156   1.923 -0.1798 -0.0606  0.0893
  484MOL0     C65260  10.666  11.162   1.876 -0.2561 -0.2620  1.3085
  484MOL0     C65261  10.589  11.046   1.869  0.1283 -0.1429 -0.1435
  484MOL0     C65262  10.639  10.920   1.901  0.5148 -0.6505 -0.1803
  484MOL0     O65263  10.567  10.807   1.910 -0.5539 -0.0330  0.6722
  484MOL0     C65264  10.432  10.809   1.872  0.8539 -0.9705  0.1817
  484MOL0     C65265  10.359  10.679   1.899  0.2592  0.6968 -0.0495
  484MOL0     C65266  10.418  10.555   1.832  0.2827  0.3986 -0.2511
  484MOL0     C65267  10.467  10.574   1.686 -0.2092  0.6989  0.2594
  484MOL0     C65268  10.479  10.444   1.611  0.2107 -0.7440  0.5936
  484MOL0     C65269  10.478  10.334   1.554 -0.4095 -0.1353 -1.1256
  484MOL0     C65270  10.765  10.910   1.948  0.6520 -0.1709  0.1094
  484MOL0     C65271  10.847  11.030   1.957  0.2647 -0.1088 -1.1589
  484MOL0     C65272  10.980  10.997   2.016 -0.7604  0.0031  0.2961
  484MOL0     H65273  10.996  11.505   1.803 -2.4331 -1.9823 -0.0690
  484MOL0     H65274  11.048  11.763   1.781  2.1879  0.1897  2.1772
  484MOL0     H65275  11.145  11.945   1.967  0.8502  2.8492 -4.6669
  484MOL0     H65276  11.071  12.102   1.965  0.7638  0.6742  1.4461
  484MOL0     H65277  11.001  11.891   2.173  1.8621 -0.3074  0.7664
  484MOL0     H65278  10.929  12.047   2.144  1.3335  2.7891  1.2788
  484MOL0     H65279  11.178  12.146   2.186 -2.8959  0.6822 -1.9256
  484MOL0     H65280  11.225  11.975   2.181 -0.7913 -0.9133  1.4176
  484MOL0     H65281  11.042  12.117   2.361  0.2373  0.1187  1.1165
  484MOL0     H65282  11.087  11.943   2.388 -0.9701  1.0393 -2.2000
  484MOL0     H65283  11.330  12.063   2.398  0.4758  1.4442 -0.2518
  484MOL0     H65284  11.244  12.204   2.442 -2.6816  0.7978  0.7667
  484MOL0     H65285  11.209  11.945   2.602  2.3027 -1.2158 -3.0529
  484MOL0     H65286  11.326  12.062   2.636 -0.5666  0.5611 -0.5134
  484MOL0     H65287  11.033  12.070   2.669  0.9210 -0.7857 -0.5398
  484MOL0     H65288  11.095  12.225   2.597  0.4205  1.8322  1.6842
  484MOL0     H65289  11.162  12.079   2.866 -0.0171 -0.0876  1.1589
  484MOL0     H65290  11.263  12.212   2.795 -0.2339 -1.4712 -2.3316
  484MOL0     H65291  11.070  12.444   2.747  0.4604 -0.4604 -0.8318
  484MOL0     H65292  10.866  12.626   2.858 -1.4383  1.2489 -1.8049
  484MOL0     H65293  10.737  12.515   2.791  0.0617  2.1438 -0.0862
  484MOL0     H65294  10.659  12.469   3.010 -1.8828  0.8482  0.6965
  484MOL0     H65295  10.793  12.548   3.092 -1.1691  0.4027 -0.6690
  484MOL0     H65296  10.627  12.696   2.896 -3.6733 -0.2404  0.2144
  484MOL0     H65297  10.716  12.764   3.033 -1.2724 -0.4831  1.0784
  484MOL0     H65298  10.504  12.783   3.097  0.4322 -0.2823 -1.5460
  484MOL0     H65299  10.569  12.645   3.190 -0.5355  0.5782  0.5718
  484MOL0     H65300  10.311  12.773   3.162 -0.0324 -0.6223  1.2399
  484MOL0     H65301  10.068  12.825   3.122  0.8861  0.0907  1.9240
  484MOL0     H65302   9.719  12.843   2.753 -0.3849  0.7582  0.9257
  484MOL0     H65303   9.473  12.854   2.679 -1.6676 -1.0221 -0.2264
  484MOL0     H65304   9.217  12.829   2.817 -0.1299  0.0681 -0.1193
  484MOL0     H65305   9.249  12.807   2.644 -1.5514 -0.0291 -0.5048
  484MOL0     H65306   9.007  12.802   2.687  1.1478  1.3503  1.7632
  484MOL0     H65307   9.062  12.648   2.612  0.1710 -4.3641  2.7167
  484MOL0     H65308   9.091  12.568   2.860 -0.3582 -0.9702 -0.2214
  484MOL0     H65309   8.993  12.704   2.910  1.1969 -1.1862  1.1740
  484MOL0     H65310   8.845  12.517   2.887 -1.6100  2.2320  0.8054
  484MOL0     H65311   8.915  12.467   2.744  0.5925  0.6015 -0.0352
  484MOL0     H65312   8.808  12.707   2.651  0.9273  0.3574  1.5099
  484MOL0     H65313   8.749  12.721   2.808 -1.7628 -0.2066 -0.3045
  484MOL0     H65314   8.696  12.462   2.657  2.1886 -0.3426  1.6559
  484MOL0     H65315   8.610  12.506   2.799  1.3328 -2.1599  0.6585
  484MOL0     H65316   8.595  12.680   2.549  1.0454 -0.9400 -0.1082
  484MOL0     H65317   8.507  12.708   2.709 -0.6649 -0.8948  0.8890
  484MOL0     H65318   8.470  12.514   2.489 -1.3128 -0.6739  0.4339
  484MOL0     H65319   8.404  12.476   2.648  1.2688 -3.4447 -1.7452
  484MOL0     H65320   9.433  12.453   2.842  1.1034 -0.3692 -0.9194
  484MOL0     H65321   9.670  12.446   2.873 -1.1069 -0.4711  1.9359
  484MOL0     H65322  10.056  12.505   2.829  4.0297 -2.8839 -0.2826
  484MOL0     H65323  10.289  12.462   2.867  0.2665 -2.2965  3.1907
  484MOL0     H65324  10.745  11.840   2.074 -1.6677 -1.3601 -1.0803
  484MOL0     H65325  10.681  11.600   2.071 -0.8471  0.9888 -1.2132
  484MOL0     H65326  10.613  11.256   1.867  0.8738  0.6041  3.1115
  484MOL0     H65327  10.489  11.058   1.829 -0.0854  1.6152  0.7883
  484MOL0     H65328  10.416  10.828   1.765  1.9174 -6.0602 -1.1401
  484MOL0     H65329  10.379  10.886   1.929  0.5500 -0.3844 -0.8479
  484MOL0     H65330  10.257  10.695   1.861 -0.4114 -0.2391  1.2945
  484MOL0     H65331  10.353  10.657   2.005 -2.4902 -0.8429 -0.4287
  484MOL0     H65332  10.341  10.479   1.821  1.3277 -0.3844 -2.8571
  484MOL0     H65333  10.496  10.511   1.895 -1.1464  0.5880  1.7390
  484MOL0     H65334  10.404  10.638   1.623 -0.0264  2.1920  1.5431
  484MOL0     H65335  10.564  10.623   1.693 -0.7544  1.7016  0.9420
  484MOL0     H65336  10.483  10.234   1.515 -0.6597 -1.5100  2.1108
  484MOL0     H65337  10.808  10.820   1.991  2.0071  0.1813 -0.4759
  484MOL0     H65338  11.043  10.993   1.926  3.5284  0.0988  2.9912
  484MOL0     H65339  11.017  11.073   2.085 -2.0955  2.8229 -1.8729
  484MOL0     H65340  10.977  10.906   2.077  2.3547 -1.3101 -1.2476
  485MOL0     O65341   7.555   6.335   2.123 -0.4388  0.5885 -0.2691
  485MOL0     C65342   7.474   6.285   2.045  0.2457 -0.5623  0.0411
  485MOL0     O65343   7.476   6.165   1.992 -1.2364  0.5089  0.3652
  485MOL0     C65344   7.579   6.077   2.013  0.0975 -0.0124  0.0398
  485MOL0     C65345   7.664   6.046   1.903 -0.0912 -0.0756 -0.3924
  485MOL0     C65346   7.771   5.951   1.918 -0.8890 -0.0078  0.2064
  485MOL0     C65347   7.784   5.885   2.037 -0.6164 -0.6847  0.6640
  485MOL0     O65348   7.894   5.798   2.039  0.4887  0.0511 -0.4648
  485MOL0     C65349   7.937   5.750   2.163  0.4574  1.0242 -1.0774
  485MOL0     C65350   8.015   5.615   2.135  0.2659 -0.3023 -0.3067
  485MOL0     C65351   8.149   5.632   2.066 -0.5799  0.1993 -0.5993
  485MOL0     C65352   8.238   5.517   2.106  0.0728 -0.1123 -0.3323
  485MOL0     C65353   8.376   5.523   2.031 -0.7630 -0.2975 -0.4509
  485MOL0     C65354   8.458   5.654   2.064  0.3913  0.1382  0.1886
  485MOL0     C65355   8.608   5.656   2.029  0.0915 -0.2003  0.4887
  485MOL0     C65356   8.686   5.584   2.141  0.5900 -0.5688  0.0905
  485MOL0     N65357   8.804   5.518   2.084 -0.2566 -0.3863 -1.2766
  485MOL0     C65358   8.913   5.589   2.024  0.0191  0.6533 -0.3243
  485MOL0     C65359   8.980   5.493   1.953 -0.5814  0.6041  1.4249
  485MOL0     C65360   9.102   5.508   1.861 -0.1497 -0.5747  0.4257
  485MOL0     C65361   9.231   5.522   1.948  0.2602 -0.1772 -0.2320
  485MOL0     C65362   9.232   5.653   2.016 -0.4359 -0.1825  0.1741
  485MOL0     C65363   9.376   5.688   2.057  0.4557 -0.5472 -0.0466
  485MOL0     O65364   9.363   5.798   2.145 -0.4007  0.7422  0.3347
  485MOL0     C65365   9.472   5.878   2.162  0.4943 -0.1794  0.2421
  485MOL0     C65366   9.559   5.920   2.065  1.0470 -0.6837 -0.0045
  485MOL0     C65367   9.656   6.013   2.099 -0.1659 -0.1490  1.0997
  485MOL0     C65368   9.672   6.072   2.227 -0.0874 -0.1528  0.2032
  485MOL0     C65369   9.783   6.165   2.250  0.2186 -0.4864 -0.3720
  485MOL0     O65370   9.831   6.234   2.138  0.4757 -0.0249 -0.4031
  485MOL0     C65371   9.948   6.308   2.143 -0.4826 -0.1863  0.1156
  485MOL0     C65372  10.062   6.225   2.152 -0.9232 -0.2107 -0.2911
  485MOL0     C65373  10.194   6.283   2.150 -0.0621 -0.0968  0.8660
  485MOL0     C65374  10.203   6.424   2.159 -0.8884  0.1084 -0.3988
  485MOL0     O65375  10.323   6.494   2.168 -0.1271  0.6449 -0.1288
  485MOL0     C65376  10.443   6.416   2.151 -0.0132 -0.8983 -0.1118
  485MOL0     C65377  10.569   6.509   2.154 -0.1226  0.2333  0.7929
  485MOL0     C65378  10.688   6.428   2.097 -0.4043  0.3413 -0.0310
  485MOL0     C65379  10.704   6.450   1.948  0.8309  0.6913 -0.2397
  485MOL0     C65380  10.846   6.410   1.912  0.6758 -0.3224  0.0415
  485MOL0     C65381  10.945   6.522   1.942  0.0464  0.8943  0.3087
  485MOL0     C65382  11.086   6.478   1.892  0.2319  0.6250  0.4495
  485MOL0     C65383  11.090   6.484   1.740 -0.0163  0.0641 -0.6678
  485MOL0    Cl65384  11.040   6.636   1.673  0.3113 -0.1051 -0.1192
  485MOL0     C65385  10.091   6.504   2.145 -0.1688  0.1630  0.5714
  485MOL0     C65386   9.956   6.448   2.139  0.3690 -0.4459  0.5853
  485MOL0     O65387   9.827   6.172   2.365  0.3678  0.3390 -0.2497
  485MOL0     C65388   9.577   6.033   2.328 -0.6525 -0.3621  1.1194
  485MOL0     C65389   9.477   5.939   2.288  0.5032 -0.2251  0.2470
  485MOL0     N65390   8.905   5.375   1.963  0.3789  0.0187 -0.3223
  485MOL0     N65391   8.803   5.394   2.043 -0.4775  0.2110  0.0271
  485MOL0     C65392   7.695   5.910   2.142  0.7431  0.6785 -0.0552
  485MOL0     C65393   7.593   6.009   2.129  0.6694 -0.3583 -0.6160
  485MOL0     C65394   7.348   6.360   2.019 -0.3983 -0.2527 -0.3645
  485MOL0     C65395   7.231   6.309   2.076  0.6608 -0.8581 -0.5815
  485MOL0     C65396   7.109   6.377   2.080  0.9049  0.0023  0.6420
  485MOL0     C65397   7.101   6.498   2.002  0.5441  0.2824  0.3280
  485MOL0     O65398   6.984   6.574   1.999 -0.2229  0.5923 -0.2249
  485MOL0     C65399   6.882   6.546   2.091 -0.2341 -0.6883  0.2763
  485MOL0     C65400   6.753   6.620   2.062 -1.5406 -0.4530 -0.0231
  485MOL0     C65401   6.701   6.605   1.923  0.0566 -0.3179 -0.0214
  485MOL0     C65402   6.583   6.511   1.904  0.0629 -0.3733 -0.1851
  485MOL0     C65403   6.540   6.515   1.766  0.0313 -0.1294  0.9924
  485MOL0     C65404   6.514   6.513   1.650 -0.2631 -0.7108  0.4735
  485MOL0     C65405   7.220   6.546   1.942  0.0167  0.4418  0.0065
  485MOL0     C65406   7.341   6.485   1.962 -0.3258 -0.2307  0.0425
  485MOL0     C65407   7.473   6.550   1.906  0.5015  0.0085 -0.6366
  485MOL0     H65408   7.654   6.108   1.814  0.9528  2.3367  1.0473
  485MOL0     H65409   7.851   5.929   1.848 -0.1503  1.2194  0.6252
  485MOL0     H65410   7.993   5.821   2.224  2.6984 -2.3351  1.1307
  485MOL0     H65411   7.853   5.709   2.220  1.8006  0.6389  0.7177
  485MOL0     H65412   7.952   5.547   2.076  1.8914 -1.3284 -0.9371
  485MOL0     H65413   8.042   5.575   2.233 -1.5171  0.9280  0.7432
  485MOL0     H65414   8.193   5.727   2.097 -1.5731  0.7094 -0.7376
  485MOL0     H65415   8.141   5.642   1.958 -1.2461 -1.4196 -0.7280
  485MOL0     H65416   8.266   5.532   2.210  1.8288  1.9541 -1.0402
  485MOL0     H65417   8.192   5.420   2.084 -0.7230 -0.0285  0.8980
  485MOL0     H65418   8.448   5.444   2.058 -0.0230  0.3691 -0.4200
  485MOL0     H65419   8.354   5.521   1.924 -1.4528 -1.4381 -0.3050
  485MOL0     H65420   8.407   5.724   1.997  2.6472  0.9882 -0.7220
  485MOL0     H65421   8.439   5.693   2.165 -1.1304 -0.4015  0.1417
  485MOL0     H65422   8.638   5.761   2.028 -1.0856  0.1433 -0.1182
  485MOL0     H65423   8.635   5.616   1.931 -0.9056 -2.7316  1.1733
  485MOL0     H65424   8.714   5.650   2.223 -0.1742 -2.9179  2.3631
  485MOL0     H65425   8.632   5.504   2.192  2.6989 -0.9115  1.9549
  485MOL0     H65426   8.940   5.694   2.037 -1.0007  0.7266  1.5745
  485MOL0     H65427   9.106   5.416   1.802 -0.8569  0.4931 -1.3614
  485MOL0     H65428   9.072   5.595   1.801  2.6735  0.7430  0.7824
  485MOL0     H65429   9.247   5.441   2.020 -1.0115  0.0220  0.3160
  485MOL0     H65430   9.316   5.531   1.880 -1.1019  0.4506 -1.9202
  485MOL0     H65431   9.167   5.653   2.104 -1.0302  0.7377 -0.2501
  485MOL0     H65432   9.197   5.733   1.950  0.9959  0.3288  0.0021
  485MOL0     H65433   9.438   5.728   1.975 -0.5928  3.3814  0.8739
  485MOL0     H65434   9.427   5.604   2.106 -0.5351 -0.9499  0.3077
  485MOL0     H65435   9.546   5.900   1.959  1.9381  0.0921 -0.2795
  485MOL0     H65436   9.703   6.062   2.014 -1.4970  1.1731  1.0917
  485MOL0     H65437  10.054   6.117   2.158 -1.7576 -0.0703  2.6866
  485MOL0     H65438  10.279   6.216   2.152  0.5863  0.6126 -1.0112
  485MOL0     H65439  10.457   6.341   2.230 -0.1999 -0.2447  0.5492
  485MOL0     H65440  10.436   6.370   2.052 -0.7925  0.5312 -0.7368
  485MOL0     H65441  10.551   6.590   2.082  0.9488 -0.1468  0.0772
  485MOL0     H65442  10.585   6.543   2.256  1.4460  1.6041  0.1211
  485MOL0     H65443  10.778   6.446   2.156 -0.2682  0.7000 -0.3459
  485MOL0     H65444  10.671   6.320   2.097  1.7102 -0.1353 -3.3492
  485MOL0     H65445  10.697   6.554   1.914  0.9333 -0.3340 -3.7593
  485MOL0     H65446  10.624   6.395   1.898  2.2307 -0.8644 -0.8618
  485MOL0     H65447  10.849   6.380   1.806  1.0012 -0.0423 -0.0290
  485MOL0     H65448  10.873   6.335   1.987  0.4872 -0.0487  0.3820
  485MOL0     H65449  10.911   6.616   1.897 -0.9483  0.2515 -0.3334
  485MOL0     H65450  10.955   6.542   2.049 -1.8532  1.0820  0.4958
  485MOL0     H65451  11.100   6.376   1.929  1.0117  1.0690  1.4317
  485MOL0     H65452  11.157   6.545   1.942 -0.0628 -0.3475  2.2295
  485MOL0     H65453  11.191   6.477   1.699 -0.3287 -1.4201 -1.2521
  485MOL0     H65454  11.028   6.404   1.697 -1.5494  0.4838  0.6482
  485MOL0     H65455  10.104   6.612   2.147 -0.2424  0.1771  0.3195
  485MOL0     H65456   9.869   6.509   2.118  1.5843  0.9517 -0.6548
  485MOL0     H65457   9.582   6.079   2.426 -2.1506  1.7202  0.2925
  485MOL0     H65458   9.401   5.907   2.359 -1.4619  0.8998 -1.2363
  485MOL0     H65459   7.715   5.869   2.241 -0.5973 -1.6066 -0.6536
  485MOL0     H65460   7.529   6.035   2.212  1.4815 -0.9209  0.2128
  485MOL0     H65461   7.243   6.222   2.140 -0.6609  2.0280  4.0763
  485MOL0     H65462   7.028   6.330   2.134  0.4038 -1.1111 -0.9851
  485MOL0     H65463   6.920   6.579   2.188 -1.2364  1.0870  0.1033
  485MOL0     H65464   6.852   6.443   2.071 -1.7850  0.3309 -3.4386
  485MOL0     H65465   6.771   6.724   2.091 -3.0988 -0.5117  1.3437
  485MOL0     H65466   6.679   6.576   2.130 -2.1931 -0.1801 -0.5500
  485MOL0     H65467   6.777   6.569   1.853  0.0646  0.2900 -0.3334
  485MOL0     H65468   6.656   6.701   1.894  0.5470 -0.2423 -0.5568
  485MOL0     H65469   6.623   6.410   1.916  3.6470  1.0059  1.0227
  485MOL0     H65470   6.497   6.551   1.958 -0.2600  2.4049 -2.4813
  485MOL0     H65471   6.494   6.521   1.545 -1.7044 -0.7355  0.7219
  485MOL0     H65472   7.218   6.644   1.894 -2.5275 -0.3376 -1.7085
  485MOL0     H65473   7.527   6.473   1.850  1.7218  1.1714 -1.1185
  485MOL0     H65474   7.461   6.639   1.844  3.4029  0.5228 -0.6350
  485MOL0     H65475   7.532   6.594   1.988 -1.1006  2.1970 -0.5814
  486MOL0     O65476   2.638   1.684   0.951 -0.1454 -0.0635  0.1495
  486MOL0     C65477   2.639   1.737   1.064  0.3342 -0.6521 -0.0563
  486MOL0     O65478   2.745   1.747   1.157 -0.0813  0.3065 -0.8218
  486MOL0     C65479   2.868   1.708   1.116  0.0721  0.3426  0.0719
  486MOL0     C65480   2.923   1.586   1.143 -0.0955  0.7262  0.3129
  486MOL0     C65481   3.055   1.555   1.099  0.4797  0.3678 -0.0319
  486MOL0     C65482   3.132   1.649   1.038 -0.5245 -0.0971 -0.0333
  486MOL0     O65483   3.266   1.623   1.026  0.3583 -0.4088 -0.1336
  486MOL0     C65484   3.321   1.637   0.893 -0.2556 -0.2425  0.7582
  486MOL0     C65485   3.309   1.500   0.822  0.6109  0.1545 -0.1592
  486MOL0     C65486   3.387   1.494   0.694 -0.3010  0.2062  0.7276
  486MOL0     C65487   3.319   1.551   0.573  0.5672  0.4946  0.2415
  486MOL0     C65488   3.366   1.485   0.436  0.2921  0.0689 -0.2416
  486MOL0     C65489   3.517   1.505   0.399  0.5317 -0.4294 -0.1847
  486MOL0     C65490   3.550   1.455   0.254  0.2264  0.4119  0.4015
  486MOL0     C65491   3.678   1.508   0.193 -0.1708 -1.0846  0.3931
  486MOL0     N65492   3.802   1.460   0.249  0.7996 -0.3670 -0.0152
  486MOL0     C65493   3.893   1.376   0.186  0.0061  0.0764  0.2548
  486MOL0     C65494   3.990   1.353   0.278  0.0598  0.9527 -0.6635
  486MOL0     C65495   4.128   1.285   0.276 -0.0316 -0.4351  0.1660
  486MOL0     C65496   4.113   1.146   0.207 -0.1372  0.4148 -0.7278
  486MOL0     C65497   4.252   1.080   0.206 -0.9727  0.6089 -0.9399
  486MOL0     C65498   4.311   1.046   0.346  0.4910  0.7331  0.7915
  486MOL0     O65499   4.434   0.967   0.332  0.0111 -0.3258  0.5271
  486MOL0     C65500   4.545   1.022   0.278 -0.4477  0.0152 -0.1108
  486MOL0     C65501   4.559   1.163   0.259  0.1319  0.8817 -0.3333
  486MOL0     C65502   4.657   1.216   0.183  0.1131 -0.2629 -0.8673
  486MOL0     C65503   4.771   1.139   0.151  0.3332  0.6271  0.3172
  486MOL0     C65504   4.895   1.205   0.102 -0.2462 -0.1860  0.7831
  486MOL0     O65505   5.016   1.141   0.124  0.1115  0.3309 -0.1195
  486MOL0     C65506   5.133   1.171   0.050 -0.0826  0.2646  0.5511
  486MOL0     C65507   5.249   1.101   0.086 -0.3736  0.2958  0.6586
  486MOL0     C65508   5.367   1.116   0.020 -0.4013 -0.1660  0.5416
  486MOL0     C65509   5.388   1.206  -0.086  1.0793 -0.0917 -0.6960
  486MOL0     O65510   5.507   1.245  -0.146  1.2110  0.0775  0.1730
  486MOL0     C65511   5.635   1.184  -0.105 -0.2222 -0.5855 -0.1876
  486MOL0     C65512   5.755   1.277  -0.145  0.0467 -0.5508  0.7633
  486MOL0     C65513   5.893   1.206  -0.141  0.3366 -0.1383  0.0011
  486MOL0     C65514   6.011   1.307  -0.100 -0.2611  0.3463  0.6514
  486MOL0     C65515   6.141   1.216  -0.098  0.8160  0.6638 -0.1347
  486MOL0     C65516   6.268   1.304  -0.054  0.7042 -0.2874 -0.0866
  486MOL0     C65517   6.385   1.210  -0.025  0.2049 -0.0150 -0.5702
  486MOL0     C65518   6.511   1.284   0.024 -0.6612 -0.0012  0.4854
  486MOL0    Cl65519   6.647   1.177   0.051 -0.2760 -0.1292  0.2509
  486MOL0     C65520   5.269   1.273  -0.135 -0.3405 -0.0662  0.2946
  486MOL0     C65521   5.143   1.251  -0.070 -0.2878  1.0794 -0.2634
  486MOL0     O65522   4.885   1.321   0.055 -0.1961  0.1379 -0.1978
  486MOL0     C65523   4.768   1.000   0.183  0.6021  0.6341  0.2853
  486MOL0     C65524   4.654   0.941   0.250  0.3144  0.1631 -0.3226
  486MOL0     N65525   3.951   1.421   0.391 -0.1781  0.3984 -0.2320
  486MOL0     N65526   3.841   1.485   0.378  0.4076  0.3570 -0.5484
  486MOL0     C65527   3.074   1.771   1.000 -1.0330 -0.7943 -0.3550
  486MOL0     C65528   2.945   1.796   1.033  0.0716  1.0187 -0.0664
  486MOL0     C65529   2.507   1.774   1.120 -0.0129  0.1242  1.2083
  486MOL0     C65530   2.506   1.830   1.246 -0.1985  0.4780  0.2947
  486MOL0     C65531   2.392   1.857   1.314 -0.6635 -0.3319 -0.2921
  486MOL0     C65532   2.271   1.826   1.264 -0.2403  0.3168 -0.4581
  486MOL0     O65533   2.160   1.864   1.339  0.0814  0.1728  0.0194
  486MOL0     C65534   2.042   1.786   1.321 -0.0637  0.6998 -0.1867
  486MOL0     C65535   1.933   1.810   1.424  0.8418 -0.3176  0.0493
  486MOL0     C65536   1.911   1.962   1.454  0.6183  0.4000  0.3848
  486MOL0     C65537   1.795   1.992   1.549 -0.0225 -0.1194  0.4794
  486MOL0     C65538   1.667   1.965   1.487  0.0172  0.0922  0.6477
  486MOL0     C65539   1.568   1.957   1.411  0.2889  1.0726 -0.1303
  486MOL0     C65540   2.264   1.776   1.138  0.8462 -0.3873 -0.0272
  486MOL0     C65541   2.384   1.750   1.062 -0.6348 -0.3854 -0.6934
  486MOL0     C65542   2.358   1.693   0.936 -0.2499 -0.0763  0.5420
  486MOL0     H65543   2.866   1.502   1.182  1.4786 -0.6072 -0.1810
  486MOL0     H65544   3.097   1.455   1.109  0.7795  0.5603  0.7116
  486MOL0     H65545   3.276   1.716   0.832  2.4191  0.8230 -0.0053
  486MOL0     H65546   3.427   1.664   0.901  0.2131 -1.6778 -0.3174
  486MOL0     H65547   3.208   1.462   0.803 -0.8426  1.8396  3.3421
  486MOL0     H65548   3.347   1.432   0.899 -1.0864 -1.2540 -0.5226
  486MOL0     H65549   3.402   1.390   0.663  0.1071  0.9873 -1.9696
  486MOL0     H65550   3.486   1.540   0.699  0.1831 -0.6475 -0.4708
  486MOL0     H65551   3.213   1.528   0.583  0.7561 -2.2712 -2.6043
  486MOL0     H65552   3.327   1.660   0.566  1.6227  0.3065 -2.5436
  486MOL0     H65553   3.336   1.380   0.431  0.0648  0.0703  0.8251
  486MOL0     H65554   3.311   1.545   0.363 -0.9308  0.3106  0.8404
  486MOL0     H65555   3.542   1.611   0.401 -2.5391  0.3810  1.8754
  486MOL0     H65556   3.583   1.450   0.467  1.7859  2.2791  0.9363
  486MOL0     H65557   3.477   1.498   0.185 -0.6740 -1.5166  0.0867
  486MOL0     H65558   3.545   1.345   0.255 -0.7299  0.4505  0.5413
  486MOL0     H65559   3.669   1.476   0.089 -0.0335  0.5823 -0.1705
  486MOL0     H65560   3.676   1.617   0.204 -0.4336 -0.8927 -1.3112
  486MOL0     H65561   3.884   1.343   0.083  0.1750 -3.2248  1.1838
  486MOL0     H65562   4.199   1.360   0.239 -2.2874  2.4334  1.2272
  486MOL0     H65563   4.153   1.263   0.380  0.4142  0.0865  0.1763
  486MOL0     H65564   4.039   1.091   0.266  1.6860 -1.2609  0.0991
  486MOL0     H65565   4.072   1.165   0.108 -0.4395  1.0325 -0.4868
  486MOL0     H65566   4.315   1.147   0.147  0.4377 -1.6056 -2.0861
  486MOL0     H65567   4.255   0.983   0.156  1.9253  1.0635 -1.8609
  486MOL0     H65568   4.236   0.983   0.394 -0.7572  0.7311 -1.0450
  486MOL0     H65569   4.316   1.128   0.417  0.5259  0.9877  0.4973
  486MOL0     H65570   4.474   1.226   0.283 -1.6307 -2.0082  1.6544
  486MOL0     H65571   4.637   1.319   0.157 -1.5263 -0.7001 -1.4073
  486MOL0     H65572   5.243   1.033   0.171  1.0268 -0.0835  0.4759
  486MOL0     H65573   5.454   1.068   0.063  1.6213  0.6950 -2.2961
  486MOL0     H65574   5.636   1.178   0.004 -4.6747  1.7220  0.1792
  486MOL0     H65575   5.646   1.087  -0.155  3.2684 -0.2718 -0.3071
  486MOL0     H65576   5.744   1.310  -0.248  1.3473 -3.0582 -0.2785
  486MOL0     H65577   5.753   1.368  -0.085 -0.9831 -0.6438  0.8773
  486MOL0     H65578   5.893   1.131  -0.061 -2.9151 -0.4955 -0.1976
  486MOL0     H65579   5.907   1.144  -0.230 -2.9485 -0.7459 -0.2369
  486MOL0     H65580   5.993   1.343   0.003  1.7096 -0.8531  1.4532
  486MOL0     H65581   6.015   1.391  -0.170 -2.8110 -0.3899 -0.5191
  486MOL0     H65582   6.160   1.184  -0.201 -2.1451 -2.1480  0.0238
  486MOL0     H65583   6.132   1.136  -0.024  1.1552  1.2263  0.5267
  486MOL0     H65584   6.294   1.374  -0.134  0.7837 -0.5099 -0.2533
  486MOL0     H65585   6.238   1.364   0.033  1.6667 -1.5062  1.1437
  486MOL0     H65586   6.401   1.171  -0.126  0.3189  3.0737 -1.8675
  486MOL0     H65587   6.361   1.131   0.046  1.1247  0.2198  0.0160
  486MOL0     H65588   6.542   1.366  -0.041 -0.6319  0.3283  0.9117
  486MOL0     H65589   6.467   1.330   0.113 -0.6646 -0.3096  0.6441
  486MOL0     H65590   5.281   1.332  -0.225  2.4351 -1.3060 -0.2531
  486MOL0     H65591   5.057   1.309  -0.103 -0.9491  0.9572  1.1628
  486MOL0     H65592   4.846   0.932   0.152 -0.1885  0.2235 -0.8784
  486MOL0     H65593   4.642   0.835   0.266 -2.1281  0.3913 -0.2835
  486MOL0     H65594   3.134   1.847   0.950 -2.3642  1.2332  1.0142
  486MOL0     H65595   2.902   1.894   1.012  0.3570  0.9390 -1.0931
  486MOL0     H65596   2.602   1.856   1.290 -1.3532 -0.7110  3.7937
  486MOL0     H65597   2.404   1.900   1.413 -1.6223 -3.9809  1.5945
  486MOL0     H65598   2.085   1.686   1.322 -1.3019  0.1550  0.5410
  486MOL0     H65599   1.993   1.800   1.224 -0.3106 -4.1601 -0.9819
  486MOL0     H65600   1.963   1.748   1.509  0.8516  0.2777  0.4907
  486MOL0     H65601   1.839   1.776   1.381  0.1134  1.9577 -0.2970
  486MOL0     H65602   1.895   2.013   1.358 -3.9690  0.2963  0.8742
  486MOL0     H65603   2.002   1.996   1.503  0.1739  1.1128  0.7299
  486MOL0     H65604   1.808   1.921   1.631 -0.0841 -0.0704  0.5312
  486MOL0     H65605   1.795   2.098   1.575 -1.9970  0.9755 -3.2529
  486MOL0     H65606   1.491   1.933   1.342  1.3826 -2.4993 -0.2956
  486MOL0     H65607   2.164   1.769   1.097 -0.0103 -0.2947  1.9158
  486MOL0     H65608   2.253   1.703   0.906 -0.2439 -0.2214  0.4706
  486MOL0     H65609   2.410   1.747   0.857 -2.8282  2.0240  0.1263
  486MOL0     H65610   2.389   1.588   0.928 -0.7235 -0.2014  0.2877
  487MOL0     O65611   8.368  10.154  10.486 -0.1866  0.1409  0.1465
  487MOL0     C65612   8.373  10.234  10.574  0.4129  0.2619 -0.6526
  487MOL0     O65613   8.265  10.310  10.610  0.3917  0.2030 -0.3913
  487MOL0     C65614   8.143  10.288  10.549  0.2788 -0.3638 -0.7483
  487MOL0     C65615   8.038  10.222  10.614 -0.6511  0.7967  0.4553
  487MOL0     C65616   7.922  10.195  10.539 -0.0546  0.3885  0.1790
  487MOL0     C65617   7.906  10.240  10.410  0.4901  0.2665  1.1183
  487MOL0     O65618   7.792  10.193  10.347 -0.2875  0.1166  0.5732
  487MOL0     C65619   7.749  10.280  10.240 -0.6021 -0.2327  0.5256
  487MOL0     C65620   7.609  10.245  10.222 -0.2912 -0.5446  0.0141
  487MOL0     C65621   7.528  10.276  10.344 -0.7174  0.4352  0.3877
  487MOL0     C65622   7.386  10.265  10.293 -1.4894 -0.6927  0.4702
  487MOL0     C65623   7.286  10.248  10.403 -0.6198 -0.2696  0.0960
  487MOL0     C65624   7.161  10.325  10.381  0.1965 -0.4583  0.7900
  487MOL0     C65625   7.048  10.261  10.469 -0.1709 -0.1494 -0.1974
  487MOL0     C65626   6.924  10.331  10.425 -0.4964 -0.4322  0.8208
  487MOL0     N65627   6.827  10.300  10.537  0.3541 -0.2719  0.3968
  487MOL0     C65628   6.765  10.177  10.562  0.6482 -0.7423  0.8012
  487MOL0     C65629   6.711  10.188  10.689  0.8301  0.1448  0.4489
  487MOL0     C65630   6.623  10.074  10.743  0.0153  0.9415  0.0209
  487MOL0     C65631   6.498  10.028  10.662 -0.5492  0.4814 -0.5820
  487MOL0     C65632   6.423   9.934  10.757  0.7952  0.7805  0.1378
  487MOL0     C65633   6.286   9.904  10.708  0.4615 -0.5911 -0.8981
  487MOL0     O65634   6.202  10.026  10.711 -0.0053 -0.0143 -0.2815
  487MOL0     C65635   6.075   9.999  10.743  0.2754  1.1473 -0.0369
  487MOL0     C65636   5.999  10.109  10.768 -0.1461  0.0151 -0.5260
  487MOL0     C65637   5.871  10.105  10.816 -0.0185 -0.1031 -0.8878
  487MOL0     C65638   5.810   9.981  10.822  0.4482  0.2276  0.2611
  487MOL0     C65639   5.659   9.980  10.837 -0.5083  0.0195  0.7215
  487MOL0     O65640   5.595  10.095  10.858 -0.4487  0.4818  0.7415
  487MOL0     C65641   5.459  10.092  10.881 -0.6174 -0.1470 -0.7120
  487MOL0     C65642   5.368  10.046  10.781  0.7053 -0.7505 -0.6340
  487MOL0     C65643   5.232  10.040  10.807  0.4395 -0.5228 -0.2188
  487MOL0     C65644   5.179  10.081  10.928 -0.6907  0.3843  0.0310
  487MOL0     O65645   5.046  10.092  10.962  0.4529 -1.0040 -0.1619
  487MOL0     C65646   4.958  10.007  10.902  0.6473  0.7764 -0.0361
  487MOL0     C65647   4.815  10.024  10.955 -0.1048 -0.7427  0.1174
  487MOL0     C65648   4.749  10.161  10.898 -0.5125 -0.3058  0.3360
  487MOL0     C65649   4.600  10.153  10.947  0.3895  0.1366  0.4836
  487MOL0     C65650   4.519  10.259  10.874  0.3150  0.3791 -0.2564
  487MOL0     C65651   4.370  10.265  10.933  0.0000  0.2098 -0.3935
  487MOL0     C65652   4.289  10.386  10.875 -0.7422  0.0427 -0.6489
  487MOL0     C65653   4.356  10.522  10.875  0.5041 -0.8149 -0.1785
  487MOL0    Cl65654   4.359  10.594  11.043 -0.7516 -0.1115 -0.1875
  487MOL0     C65655   5.272  10.127  11.027  0.5745 -0.0030  0.1689
  487MOL0     C65656   5.408  10.140  10.999  0.2131 -0.0565  0.5028
  487MOL0     O65657   5.601   9.873  10.824  0.4116 -0.0673 -0.3795
  487MOL0     C65658   5.877   9.866  10.798 -0.2273  0.2686 -0.1166
  487MOL0     C65659   6.006   9.874  10.748  0.3942  0.0981  0.7069
  487MOL0     N65660   6.751  10.312  10.743 -0.0478 -0.0703  0.2981
  487MOL0     N65661   6.825  10.368  10.652  0.5213  0.6688 -0.6060
  487MOL0     C65662   8.011  10.312  10.351 -0.0470 -1.3805  0.1178
  487MOL0     C65663   8.129  10.334  10.419  0.3942  1.2305 -0.3118
  487MOL0     C65664   8.498  10.238  10.653 -0.1052  0.8919 -0.4963
  487MOL0     C65665   8.484  10.299  10.777 -0.5986 -1.4129  0.5662
  487MOL0     C65666   8.602  10.318  10.855 -0.4218 -0.5317  0.2112
  487MOL0     C65667   8.730  10.267  10.823  0.1438  0.0180  0.6850
  487MOL0     O65668   8.846  10.274  10.890  0.4864  0.0448 -0.5526
  487MOL0     C65669   8.842  10.310  11.029  0.0012  0.1310  0.1885
  487MOL0     C65670   8.983  10.365  11.048 -0.1753  0.0629 -0.1098
  487MOL0     C65671   9.004  10.402  11.193  0.5313 -0.4180 -0.7114
  487MOL0     C65672   9.153  10.427  11.219 -0.1587 -0.6021 -0.3336
  487MOL0     C65673   9.158  10.498  11.349  0.5678 -0.7819  0.0479
  487MOL0     C65674   9.154  10.555  11.459  0.5675 -0.7426 -0.2377
  487MOL0     C65675   8.735  10.189  10.706  1.0035 -0.2511 -0.2059
  487MOL0     C65676   8.627  10.182  10.614 -0.3042  0.0000 -0.6169
  487MOL0     C65677   8.661  10.107  10.495  0.3735  0.5650  0.6944
  487MOL0     H65678   8.063  10.186  10.713 -0.4348  1.9756  0.8429
  487MOL0     H65679   7.846  10.130  10.581  1.3521 -0.6527  1.1616
  487MOL0     H65680   7.765  10.383  10.274  0.2108  0.8168 -2.6514
  487MOL0     H65681   7.802  10.273  10.145 -2.8844  2.3909 -1.0966
  487MOL0     H65682   7.586  10.141  10.196  0.4637 -0.4577 -1.0259
  487MOL0     H65683   7.582  10.301  10.132 -0.2593 -0.0464  0.3098
  487MOL0     H65684   7.541  10.369  10.400 -2.0311  0.5484  0.5335
  487MOL0     H65685   7.545  10.206  10.426  2.1663 -0.4308 -0.8280
  487MOL0     H65686   7.371  10.358  10.238  2.8138 -0.5952 -0.8679
  487MOL0     H65687   7.377  10.182  10.222 -0.5752  1.2157 -2.0394
  487MOL0     H65688   7.262  10.143  10.419 -3.1274  0.3137  0.7698
  487MOL0     H65689   7.328  10.281  10.498 -1.5830  0.0481  0.4321
  487MOL0     H65690   7.171  10.432  10.401  1.1056 -0.2934 -0.4109
  487MOL0     H65691   7.131  10.302  10.279  0.7828 -1.2204  0.7787
  487MOL0     H65692   7.083  10.288  10.568  0.8865  0.2873 -0.6782
  487MOL0     H65693   7.033  10.152  10.467 -1.3862 -0.0601  1.7308
  487MOL0     H65694   6.949  10.437  10.415 -0.0575 -0.6212 -0.1810
  487MOL0     H65695   6.894  10.293  10.327 -1.1217  1.3621  0.2676
  487MOL0     H65696   6.755  10.090  10.498 -1.9065 -0.3095  0.4958
  487MOL0     H65697   6.686   9.985  10.746 -0.1726  0.7416 -1.2774
  487MOL0     H65698   6.603  10.087  10.850  2.5195 -0.5646  0.7638
  487MOL0     H65699   6.437  10.114  10.635  0.7784  1.7449  0.3025
  487MOL0     H65700   6.536   9.985  10.569 -0.7008 -0.0384 -0.4067
  487MOL0     H65701   6.410   9.966  10.861  1.3191  1.2130  0.0750
  487MOL0     H65702   6.476   9.838  10.762 -3.3054 -1.9105 -1.9708
  487MOL0     H65703   6.249   9.827  10.777 -1.8077 -1.2224 -2.6845
  487MOL0     H65704   6.283   9.850  10.613  1.3446 -0.1899 -1.1601
  487MOL0     H65705   6.052  10.204  10.760  2.6578 -1.1885  1.8388
  487MOL0     H65706   5.813  10.197  10.825  1.6751  1.1343 -1.9306
  487MOL0     H65707   5.408  10.014  10.685  1.1412  1.6738 -1.3282
  487MOL0     H65708   5.172  10.011  10.722  1.7760  0.3974 -1.5291
  487MOL0     H65709   4.949  10.011  10.793 -1.7846  0.8300  0.1003
  487MOL0     H65710   4.992   9.905  10.924  0.5630  0.9761  1.1113
  487MOL0     H65711   4.762   9.938  10.912 -3.8501  1.8973 -1.0436
  487MOL0     H65712   4.815  10.030  11.064 -0.9685  1.9838  0.0286
  487MOL0     H65713   4.803  10.247  10.940 -2.6084 -0.0462  2.7317
  487MOL0     H65714   4.749  10.169  10.789 -3.3351 -0.5881  0.2457
  487MOL0     H65715   4.602  10.165  11.056 -3.2975  1.2697  0.5538
  487MOL0     H65716   4.560  10.052  10.932 -1.2934  0.4463  2.4049
  487MOL0     H65717   4.505  10.236  10.768 -0.3574  0.2358 -0.1421
  487MOL0     H65718   4.574  10.354  10.876 -1.7941  1.6710  1.7180
  487MOL0     H65719   4.326  10.169  10.907  1.4963 -0.3283 -1.0769
  487MOL0     H65720   4.375  10.266  11.042  2.5069  1.8391 -0.4316
  487MOL0     H65721   4.200  10.399  10.937 -1.1755 -3.1853 -0.4137
  487MOL0     H65722   4.258  10.358  10.774 -0.1234 -0.9750 -0.5733
  487MOL0     H65723   4.452  10.523  10.824  0.4904  1.2955 -0.2777
  487MOL0     H65724   4.290  10.591  10.822  3.1006  2.3637  0.3699
  487MOL0     H65725   5.229  10.159  11.122 -1.3281  1.4030 -1.0858
  487MOL0     H65726   5.473  10.185  11.073 -0.2602  0.2588  0.7355
  487MOL0     H65727   5.828   9.769  10.808 -1.7511  0.8884 -1.1357
  487MOL0     H65728   6.045   9.780  10.711 -0.5924 -0.5216  1.2085
  487MOL0     H65729   8.007  10.334  10.245  1.3692 -3.0134 -0.3243
  487MOL0     H65730   8.211  10.393  10.377  0.4587  1.6932  0.4500
  487MOL0     H65731   8.389  10.338  10.815 -0.7947 -0.4455 -0.8403
  487MOL0     H65732   8.578  10.376  10.944  1.8227  0.5345  0.1879
  487MOL0     H65733   8.828  10.221  11.092 -0.9512  0.2924  0.2203
  487MOL0     H65734   8.767  10.383  11.061  0.2605  0.2877  0.4539
  487MOL0     H65735   8.994  10.454  10.985 -0.7874 -1.5760 -2.7138
  487MOL0     H65736   9.049  10.282  11.020  2.4797  1.6831  0.9589
  487MOL0     H65737   8.976  10.319  11.259  1.5623  0.1082  0.4353
  487MOL0     H65738   8.943  10.490  11.212  1.8013  0.1829  0.8443
  487MOL0     H65739   9.201  10.330  11.233  2.5228  0.7205  0.4376
  487MOL0     H65740   9.198  10.493  11.144  0.5475  0.9375  1.3521
  487MOL0     H65741   9.144  10.606  11.552  1.0324  0.1193 -0.6455
  487MOL0     H65742   8.827  10.134  10.687  0.3947 -0.3488 -3.2326
  487MOL0     H65743   8.639  10.167  10.406 -0.6032 -0.6132  0.1127
  487MOL0     H65744   8.764  10.073  10.479  0.0010 -0.7851  1.0448
  487MOL0     H65745   8.597  10.020  10.478  2.4017 -0.8175 -0.4127
  488MOL0     O65746   6.462   2.906   8.204 -0.1393  0.4470 -0.4814
  488MOL0     C65747   6.440   2.784   8.194 -0.8278 -0.7270 -0.2475
  488MOL0     O65748   6.532   2.686   8.172 -0.5166 -0.5061  0.9808
  488MOL0     C65749   6.665   2.719   8.163  0.1792  0.0304 -0.2985
  488MOL0     C65750   6.720   2.781   8.054 -0.0562 -0.2535 -0.4736
  488MOL0     C65751   6.850   2.815   8.058 -0.2883  0.0217 -0.3563
  488MOL0     C65752   6.935   2.782   8.164 -0.1228  0.3142 -0.9347
  488MOL0     O65753   7.063   2.819   8.159 -0.2291 -0.3030 -0.2078
  488MOL0     C65754   7.103   2.900   8.269 -0.9576  0.1935 -0.2278
  488MOL0     C65755   7.208   2.814   8.349  0.8157  0.3017 -0.6291
  488MOL0     C65756   7.240   2.860   8.495  0.0302  0.0749 -0.1383
  488MOL0     C65757   7.373   2.803   8.540 -0.4704 -0.2141  0.0865
  488MOL0     C65758   7.411   2.868   8.673 -0.1310 -0.1374  0.0727
  488MOL0     C65759   7.532   2.804   8.737 -0.3560  0.1244  0.0722
  488MOL0     C65760   7.558   2.876   8.867 -0.1983  0.3471 -0.9943
  488MOL0     C65761   7.635   2.789   8.979  0.2180  0.8129 -0.0261
  488MOL0     N65762   7.781   2.763   8.939 -0.2287  0.4644 -0.2800
  488MOL0     C65763   7.846   2.818   8.833  0.0710 -0.4658  0.2478
  488MOL0     C65764   7.968   2.749   8.821 -0.0516 -1.2836  1.4285
  488MOL0     C65765   8.071   2.774   8.709 -0.4464 -0.2047 -0.4646
  488MOL0     C65766   8.176   2.881   8.763 -0.2720  0.1089 -0.0377
  488MOL0     C65767   8.285   2.910   8.668 -0.5082 -0.5710  1.1787
  488MOL0     C65768   8.391   3.001   8.723 -0.4068 -0.2353 -0.5619
  488MOL0     O65769   8.447   2.939   8.834 -0.1982  0.0774  0.3074
  488MOL0     C65770   8.577   2.893   8.832 -0.5438  0.5735 -0.1608
  488MOL0     C65771   8.635   2.857   8.957  0.4227 -0.4865  0.5482
  488MOL0     C65772   8.771   2.832   8.975  0.1438  0.6639 -0.2335
  488MOL0     C65773   8.847   2.839   8.864 -0.6394  0.2771 -0.4432
  488MOL0     C65774   8.996   2.810   8.858  0.7361  1.0322 -0.0402
  488MOL0     O65775   9.063   2.830   8.732  0.7212  0.2542 -0.4069
  488MOL0     C65776   9.195   2.818   8.733 -0.5247  0.1273 -0.4974
  488MOL0     C65777   9.287   2.877   8.831 -0.2026 -0.0304 -0.6596
  488MOL0     C65778   9.426   2.845   8.823 -0.4470  0.3894 -0.2493
  488MOL0     C65779   9.482   2.771   8.720 -1.1520  0.4112 -0.2052
  488MOL0     O65780   9.620   2.743   8.730 -0.2280  0.3283  0.5053
  488MOL0     C65781   9.681   2.668   8.623 -0.1431  0.3677  0.5204
  488MOL0     C65782   9.827   2.641   8.661 -0.1187 -0.4581 -0.2494
  488MOL0     C65783   9.896   2.538   8.570  0.0406  0.3882 -0.3533
  488MOL0     C65784   9.871   2.384   8.594  1.0382 -0.4306  0.9815
  488MOL0     C65785   9.958   2.295   8.500 -0.3778 -0.4507 -0.5038
  488MOL0     C65786  10.102   2.283   8.553  0.5702  0.0060  0.9880
  488MOL0     C65787  10.164   2.145   8.536  0.1840 -0.4281  0.5431
  488MOL0     C65788  10.294   2.152   8.608 -0.1944  0.2476 -0.3152
  488MOL0    Cl65789  10.423   2.267   8.532 -0.2363 -0.1346  0.6579
  488MOL0     C65790   9.391   2.713   8.632 -0.2025 -0.2825 -0.4558
  488MOL0     C65791   9.253   2.733   8.640  0.5232 -0.9831  0.4840
  488MOL0     O65792   9.053   2.778   8.967 -0.4911 -0.3467 -1.0198
  488MOL0     C65793   8.793   2.855   8.738 -0.2017  0.5310 -1.0280
  488MOL0     C65794   8.658   2.866   8.718  0.2254 -0.2210 -0.0797
  488MOL0     N65795   7.977   2.657   8.927  1.0209  1.0790  0.3936
  488MOL0     N65796   7.866   2.667   8.996  0.6177  0.4739  0.7888
  488MOL0     C65797   6.880   2.711   8.269 -0.1461 -0.1951  0.4106
  488MOL0     C65798   6.742   2.684   8.268  0.2045  0.4291  0.2542
  488MOL0     C65799   6.299   2.742   8.211  0.1664 -0.4986  0.0331
  488MOL0     C65800   6.194   2.820   8.169 -0.4887  0.2941  0.0718
  488MOL0     C65801   6.059   2.781   8.206 -0.7017 -0.2987 -0.4022
  488MOL0     C65802   6.034   2.675   8.285  0.2805  0.9088 -0.3038
  488MOL0     O65803   5.901   2.664   8.312 -0.1704 -0.0656 -0.3669
  488MOL0     C65804   5.853   2.561   8.403 -0.2609  0.5218 -0.2261
  488MOL0     C65805   5.698   2.547   8.415  0.6061 -0.5769 -0.8634
  488MOL0     C65806   5.632   2.542   8.277  0.0222  0.2271  0.2689
  488MOL0     C65807   5.501   2.462   8.278  0.4086 -0.1751  0.0569
  488MOL0     C65808   5.394   2.526   8.365 -0.2443 -0.8305 -0.3843
  488MOL0     C65809   5.302   2.552   8.435  0.7243 -0.1690 -0.4207
  488MOL0     C65810   6.141   2.611   8.338 -0.5432 -0.1367  0.2633
  488MOL0     C65811   6.272   2.637   8.296 -0.0831 -0.0031 -0.4363
  488MOL0     C65812   6.382   2.558   8.363  0.2256 -0.7557 -0.8440
  488MOL0     H65813   6.655   2.802   7.970 -1.8175 -1.1785  0.5946
  488MOL0     H65814   6.896   2.858   7.970 -0.8448 -0.2424 -0.7845
  488MOL0     H65815   7.169   2.982   8.239  0.7523  0.2289  3.1936
  488MOL0     H65816   7.021   2.930   8.335 -0.7856 -0.3281  0.2317
  488MOL0     H65817   7.294   2.812   8.281 -0.4456 -0.9617 -2.2515
  488MOL0     H65818   7.175   2.710   8.346  1.9881 -0.1251  0.2388
  488MOL0     H65819   7.162   2.824   8.563  2.6063 -0.4877  2.7783
  488MOL0     H65820   7.235   2.970   8.494  0.3460  0.0876 -1.7113
  488MOL0     H65821   7.363   2.696   8.560  1.0069 -0.4978 -0.5261
  488MOL0     H65822   7.451   2.818   8.465 -1.0665  0.9159 -0.3162
  488MOL0     H65823   7.437   2.974   8.658 -2.2438  0.3009 -0.8353
  488MOL0     H65824   7.335   2.858   8.751  1.2325 -0.0141  1.4752
  488MOL0     H65825   7.529   2.697   8.759  0.0251  0.9283  5.4157
  488MOL0     H65826   7.615   2.822   8.669 -0.3571  0.9909  0.2877
  488MOL0     H65827   7.465   2.914   8.909 -1.8461 -2.9410 -1.3660
  488MOL0     H65828   7.619   2.963   8.842 -0.5574  1.1437  0.7247
  488MOL0     H65829   7.626   2.832   9.079 -2.2386  2.1151 -0.7484
  488MOL0     H65830   7.579   2.695   8.984 -2.1957  2.2269  1.2046
  488MOL0     H65831   7.813   2.894   8.763 -0.0254  0.6773  1.4830
  488MOL0     H65832   8.130   2.684   8.688  2.0284  1.6197 -1.8222
  488MOL0     H65833   8.026   2.815   8.618 -3.4791 -1.3849  0.3684
  488MOL0     H65834   8.127   2.975   8.793 -0.6039  0.7697 -2.4486
  488MOL0     H65835   8.214   2.829   8.851  0.4739  0.7875  0.0547
  488MOL0     H65836   8.238   2.965   8.586  2.8287 -0.4460 -0.8785
  488MOL0     H65837   8.341   2.823   8.630 -0.3221 -0.1306  0.4162
  488MOL0     H65838   8.359   3.103   8.746  4.2642  1.3440  0.0896
  488MOL0     H65839   8.465   3.027   8.647 -1.8253  0.1731 -1.8474
  488MOL0     H65840   8.569   2.846   9.042  1.6572 -0.9885  1.4684
  488MOL0     H65841   8.813   2.796   9.069  0.2540 -0.3996 -0.6674
  488MOL0     H65842   9.243   2.949   8.899 -3.4419  0.3711 -2.9255
  488MOL0     H65843   9.477   2.902   8.900 -0.5043  2.2519 -1.5259
  488MOL0     H65844   9.643   2.569   8.595 -2.7949  1.9574 -1.9092
  488MOL0     H65845   9.676   2.730   8.533 -0.0832  1.5949  1.3426
  488MOL0     H65846   9.892   2.728   8.651 -0.1184 -0.0125  2.7179
  488MOL0     H65847   9.833   2.608   8.766  2.5949 -1.8078 -0.7570
  488MOL0     H65848   9.872   2.562   8.466 -0.6985 -0.0598 -0.2956
  488MOL0     H65849  10.003   2.553   8.586  0.9210 -3.6946 -1.3813
  488MOL0     H65850   9.763   2.377   8.578  1.0626  0.3665  0.4470
  488MOL0     H65851   9.886   2.359   8.700 -1.0162  2.9847  2.2143
  488MOL0     H65852   9.951   2.336   8.399  0.1709  0.4150 -0.2019
  488MOL0     H65853   9.926   2.191   8.487 -0.7377 -0.4703  0.4768
  488MOL0     H65854  10.167   2.359   8.508  2.9253 -2.1634  0.4618
  488MOL0     H65855  10.096   2.313   8.658  1.8905 -1.1754  1.4283
  488MOL0     H65856  10.187   2.119   8.432  0.1215  0.7054  0.2364
  488MOL0     H65857  10.098   2.065   8.570  0.4099 -0.3554  1.1810
  488MOL0     H65858  10.280   2.187   8.710  0.6127  3.4597 -1.1811
  488MOL0     H65859  10.330   2.049   8.611 -2.0884 -0.4374  0.2068
  488MOL0     H65860   9.428   2.642   8.558 -1.0859 -2.6563  1.2239
  488MOL0     H65861   9.190   2.689   8.563 -5.1155  1.0168  3.4135
  488MOL0     H65862   8.851   2.842   8.647 -0.9194 -1.3232 -1.2773
  488MOL0     H65863   8.630   2.872   8.613  2.3372  0.6369 -0.6386
  488MOL0     H65864   6.956   2.687   8.343  0.0574 -1.6893 -0.2344
  488MOL0     H65865   6.694   2.630   8.350  0.8725  1.4491  1.3522
  488MOL0     H65866   6.212   2.906   8.105  0.6184 -1.2347 -1.7625
  488MOL0     H65867   5.981   2.851   8.177 -0.5351 -0.4638 -1.2754
  488MOL0     H65868   5.892   2.585   8.502 -3.0245  0.6120  0.9324
  488MOL0     H65869   5.909   2.474   8.368  1.3959  1.8753 -1.1033
  488MOL0     H65870   5.646   2.618   8.480 -3.8953 -1.8605 -2.7262
  488MOL0     H65871   5.684   2.454   8.471  4.7991 -0.2015  1.1985
  488MOL0     H65872   5.690   2.490   8.200 -1.7196  0.5214 -1.2927
  488MOL0     H65873   5.622   2.637   8.224  2.1153 -2.8551 -6.9364
  488MOL0     H65874   5.469   2.472   8.174  0.3773  0.9115  0.1591
  488MOL0     H65875   5.514   2.355   8.300 -0.9314 -0.5593 -0.9084
  488MOL0     H65876   5.219   2.573   8.499  1.1260 -1.7233  0.6742
  488MOL0     H65877   6.140   2.535   8.416  2.6537  0.3687  0.9259
  488MOL0     H65878   6.341   2.508   8.451 -0.1942  2.0083  0.6325
  488MOL0     H65879   6.422   2.483   8.294  2.4104 -0.5048  0.0724
  488MOL0     H65880   6.462   2.621   8.401  0.4303 -0.7873 -1.2187
  489MOL0     O65881   9.839   5.722   5.737 -0.3790  0.5970  0.5067
  489MOL0     C65882   9.797   5.673   5.628 -0.1489 -0.3454  0.1585
  489MOL0     O65883   9.803   5.537   5.590 -0.4867  0.1295  0.0429
  489MOL0     C65884   9.894   5.456   5.661  0.0876 -0.2414 -0.2500
  489MOL0     C65885  10.035   5.479   5.649  1.0901 -0.4360 -0.3082
  489MOL0     C65886  10.123   5.397   5.716 -0.7451  0.2140  0.1524
  489MOL0     C65887  10.086   5.277   5.766  0.1114 -0.0429 -1.5428
  489MOL0     O65888  10.182   5.198   5.815  0.3830  0.3522 -0.9717
  489MOL0     C65889  10.143   5.104   5.913 -0.0579  0.4650  0.0160
  489MOL0     C65890  10.272   5.046   5.974  0.1706  0.6334  0.9041
  489MOL0     C65891  10.306   4.913   5.908  0.0759 -0.4994 -0.9738
  489MOL0     C65892  10.423   4.842   5.983 -0.3927  0.3773  0.2431
  489MOL0     C65893  10.552   4.875   5.915  0.9927 -0.4571 -0.0752
  489MOL0     C65894  10.663   4.793   5.968 -0.3223  0.5820  0.2794
  489MOL0     C65895  10.792   4.836   5.901  1.4047 -0.0085  0.7566
  489MOL0     C65896  10.905   4.737   5.922  0.1723  0.3893 -0.0661
  489MOL0     N65897  11.030   4.791   5.862  0.2005 -0.3718  0.5889
  489MOL0     C65898  11.069   4.787   5.722 -0.3320 -0.2399 -1.0332
  489MOL0     C65899  11.200   4.819   5.720  1.0907 -0.3637 -0.8017
  489MOL0     C65900  11.272   4.823   5.589  0.0401 -0.0625 -0.3441
  489MOL0     C65901  11.425   4.841   5.601  0.1376  0.8566 -0.6523
  489MOL0     C65902  11.489   4.767   5.479  0.1805 -0.6666 -0.5920
  489MOL0     C65903  11.632   4.821   5.480 -0.2999 -0.4731  0.1039
  489MOL0     O65904  11.714   4.724   5.407  0.4157  0.0865 -0.5019
  489MOL0     C65905  11.851   4.758   5.398  0.3718 -0.0325 -0.2892
  489MOL0     C65906  11.915   4.880   5.420  0.7530 -0.1759 -0.6578
  489MOL0     C65907  12.057   4.889   5.396 -0.0416  0.0915 -0.2156
  489MOL0     C65908  12.138   4.781   5.373  0.6150  1.0690 -0.6588
  489MOL0     C65909  12.281   4.795   5.365 -0.1269 -0.9711  0.0074
  489MOL0     O65910  12.337   4.915   5.409  0.0435  0.0168  0.4000
  489MOL0     C65911  12.478   4.926   5.399  0.4933  0.2603  0.1376
  489MOL0     C65912  12.533   5.013   5.314 -0.5668 -0.1702  0.1334
  489MOL0     C65913  12.669   5.044   5.322 -0.6084  0.5099 -0.2798
  489MOL0     C65914  12.756   4.968   5.402 -0.2608 -0.8288 -0.2166
  489MOL0     O65915  12.890   4.991   5.400  0.2906  0.8410  0.2713
  489MOL0     C65916  12.955   4.972   5.270  1.1768  0.6012  0.2826
  489MOL0     C65917  13.102   4.952   5.288  0.7600 -0.4306  0.4801
  489MOL0     C65918  13.173   5.071   5.356 -0.6595  0.2379  0.5794
  489MOL0     C65919  13.321   5.050   5.353 -0.3363 -0.2191  0.2563
  489MOL0     C65920  13.400   5.175   5.403  0.5875 -0.3043  0.9995
  489MOL0     C65921  13.546   5.138   5.394  0.0227 -1.0499  0.1910
  489MOL0     C65922  13.632   5.257   5.441 -0.2519 -0.1750  0.1644
  489MOL0     C65923  13.783   5.228   5.423  0.1805 -0.6516 -0.2423
  489MOL0    Cl65924  13.887   5.359   5.476  0.2998 -0.0249  0.2052
  489MOL0     C65925  12.699   4.877   5.496 -0.1350 -0.0905  0.4170
  489MOL0     C65926  12.558   4.857   5.496 -0.1925 -0.1786  0.8209
  489MOL0     O65927  12.349   4.699   5.338 -0.0917  0.7073  0.5331
  489MOL0     C65928  12.074   4.657   5.372 -0.1582 -0.1760 -0.7138
  489MOL0     C65929  11.937   4.650   5.387 -0.4831  0.1475 -0.5621
  489MOL0     N65930  11.243   4.842   5.851  0.1937 -0.4562  0.9821
  489MOL0     N65931  11.144   4.822   5.932 -0.0284 -0.3155  0.3115
  489MOL0     C65932   9.949   5.260   5.787 -0.5122 -0.0947 -0.3742
  489MOL0     C65933   9.856   5.353   5.742  0.6836 -0.1556 -0.6229
  489MOL0     C65934   9.719   5.757   5.528 -0.3834 -0.1507  0.7047
  489MOL0     C65935   9.683   5.702   5.399 -0.2098 -0.3494 -1.0627
  489MOL0     C65936   9.626   5.778   5.299  0.9361 -0.4564 -0.0700
  489MOL0     C65937   9.605   5.914   5.316 -0.0875 -0.8402 -0.6936
  489MOL0     O65938   9.562   5.983   5.209  0.2894 -0.2697  0.3313
  489MOL0     C65939   9.424   5.969   5.177  0.1104 -0.2588 -0.1580
  489MOL0     C65940   9.388   6.065   5.068  0.3706 -0.5098 -0.2028
  489MOL0     C65941   9.476   6.053   4.949  0.8026 -0.2247  0.1479
  489MOL0     C65942   9.423   6.133   4.827 -0.0628  0.1239  0.2102
  489MOL0     C65943   9.303   6.073   4.772  0.7057 -0.0416 -0.3925
  489MOL0     C65944   9.193   6.030   4.741 -0.0441 -0.1823  0.5492
  489MOL0     C65945   9.624   5.970   5.446  0.5533 -0.5074  0.1589
  489MOL0     C65946   9.679   5.893   5.550  0.1195 -0.2699 -0.0859
  489MOL0     C65947   9.700   5.962   5.683  0.0684 -0.1367 -0.3160
  489MOL0     H65948  10.065   5.559   5.582  1.7611  1.9313  2.5971
  489MOL0     H65949  10.230   5.405   5.699 -0.6187 -3.6736 -2.0985
  489MOL0     H65950  10.081   5.134   5.998 -1.3297 -2.3884  0.2104
  489MOL0     H65951  10.086   5.024   5.866  0.3284 -0.8417  1.6665
  489MOL0     H65952  10.257   5.033   6.081 -2.2026 -1.0514  0.4692
  489MOL0     H65953  10.361   5.109   5.961  1.0402 -0.2375  2.3945
  489MOL0     H65954  10.320   4.928   5.801  2.6069  2.0304 -0.4228
  489MOL0     H65955  10.218   4.850   5.925 -0.7400  1.3847  2.9094
  489MOL0     H65956  10.426   4.858   6.091  0.9294 -3.5954  0.9705
  489MOL0     H65957  10.413   4.734   5.973 -1.2269  0.3716  0.9945
  489MOL0     H65958  10.544   4.871   5.806  0.0443  1.7531 -0.1488
  489MOL0     H65959  10.570   4.981   5.936 -3.5814  0.6453 -0.6164
  489MOL0     H65960  10.675   4.800   6.076  2.1121  4.0479 -0.0496
  489MOL0     H65961  10.644   4.688   5.943 -1.4182  0.9706 -0.6027
  489MOL0     H65962  10.828   4.933   5.936  2.5619 -0.3644  0.6035
  489MOL0     H65963  10.780   4.834   5.792 -0.7927 -0.5868  0.9512
  489MOL0     H65964  10.915   4.727   6.030  1.2125  3.2015  0.1823
  489MOL0     H65965  10.869   4.643   5.879 -2.5216  0.7860  1.1238
  489MOL0     H65966  11.012   4.747   5.639 -1.7153 -1.6005  0.5064
  489MOL0     H65967  11.248   4.733   5.531 -0.2899 -0.8986  1.0346
  489MOL0     H65968  11.232   4.910   5.536  0.5060  0.6495  0.4529
  489MOL0     H65969  11.465   4.941   5.619  1.4524  0.0051  1.6519
  489MOL0     H65970  11.462   4.785   5.688  2.4695  2.7077 -0.3597
  489MOL0     H65971  11.442   4.799   5.386  0.9459  1.8970 -0.1889
  489MOL0     H65972  11.481   4.659   5.492 -0.1119 -0.5370  0.4290
  489MOL0     H65973  11.677   4.827   5.580 -0.0208 -2.3011  0.1144
  489MOL0     H65974  11.626   4.923   5.441 -0.4501 -0.4633  0.1534
  489MOL0     H65975  11.860   4.974   5.422 -1.1508 -1.2532 -0.2021
  489MOL0     H65976  12.111   4.982   5.408 -0.6726  0.3694  0.6251
  489MOL0     H65977  12.465   5.058   5.243  1.3696  0.1009 -1.6414
  489MOL0     H65978  12.705   5.129   5.266 -0.3502 -0.9216 -2.4283
  489MOL0     H65979  12.915   4.881   5.225 -3.8058  2.2902  0.6176
  489MOL0     H65980  12.929   5.060   5.210  0.3943  1.0441  1.2386
  489MOL0     H65981  13.123   4.856   5.337 -1.4795 -0.3418  1.7703
  489MOL0     H65982  13.143   4.943   5.187 -1.5776 -0.7566 -0.5125
  489MOL0     H65983  13.152   5.167   5.308 -1.3553  0.9461  2.2338
  489MOL0     H65984  13.146   5.079   5.462 -1.3001 -0.6559  0.4892
  489MOL0     H65985  13.348   5.026   5.250 -0.4508  0.5899  0.0355
  489MOL0     H65986  13.354   4.966   5.414  0.3081  0.4955  0.9132
  489MOL0     H65987  13.371   5.202   5.505 -1.4201 -2.7850  1.1912
  489MOL0     H65988  13.368   5.269   5.356  1.7858  0.1847  1.1251
  489MOL0     H65989  13.554   5.045   5.452 -2.2610 -0.6963  1.1703
  489MOL0     H65990  13.567   5.114   5.289 -0.4924  0.6942 -0.3429
  489MOL0     H65991  13.619   5.265   5.549  2.3932 -0.2989  0.5565
  489MOL0     H65992  13.587   5.338   5.383  1.5080 -0.2831 -1.4344
  489MOL0     H65993  13.819   5.135   5.468  0.4722  0.2225  1.4183
  489MOL0     H65994  13.801   5.225   5.315 -0.0858  1.1969 -0.3750
  489MOL0     H65995  12.766   4.826   5.563  0.0163 -1.1782 -0.5183
  489MOL0     H65996  12.518   4.782   5.564  5.3024 -4.4542  0.1224
  489MOL0     H65997  12.135   4.567   5.366  0.3170  0.1469 -0.8298
  489MOL0     H65998  11.891   4.553   5.373 -0.8208  0.4784 -1.9215
  489MOL0     H65999   9.910   5.176   5.843 -0.3624  0.1857  0.1499
  489MOL0     H66000   9.749   5.349   5.754  0.4397  2.1528 -1.5621
  489MOL0     H66001   9.701   5.597   5.380 -0.6814 -0.1013 -3.0609
  489MOL0     H66002   9.600   5.740   5.201 -0.9929  3.2815 -1.1801
  489MOL0     H66003   9.366   5.992   5.267  2.8278 -1.7197  2.1138
  489MOL0     H66004   9.409   5.865   5.148 -0.3566  0.3860 -2.4173
  489MOL0     H66005   9.410   6.163   5.111 -2.3741  0.3617 -0.6473
  489MOL0     H66006   9.281   6.063   5.046 -0.3429 -0.0458  2.7708
  489MOL0     H66007   9.487   5.948   4.921 -0.0066 -0.5422  0.9823
  489MOL0     H66008   9.570   6.106   4.969  1.4349 -0.8011 -1.2003
  489MOL0     H66009   9.404   6.236   4.858 -0.6164  0.2546 -0.5340
  489MOL0     H66010   9.498   6.132   4.747 -1.6318 -3.2047 -1.4521
  489MOL0     H66011   9.096   5.991   4.720  0.3197 -1.0659  0.4647
  489MOL0     H66012   9.601   6.076   5.455  0.8473 -0.4474  0.2100
  489MOL0     H66013   9.807   5.966   5.708 -0.3076 -1.0774  1.6957
  489MOL0     H66014   9.642   6.054   5.688 -0.7764 -0.5808 -1.6239
  489MOL0     H66015   9.654   5.900   5.761  1.3076  0.9313  1.3144
  490MOL0     O66016  10.587   3.118   3.094 -0.6671  0.0740 -0.1765
  490MOL0     C66017  10.633   3.168   2.984  0.3085  0.4367 -0.0388
  490MOL0     O66018  10.548   3.201   2.882 -0.7410  0.0469  0.0710
  490MOL0     C66019  10.419   3.140   2.875  0.2029 -0.5328  0.4507
  490MOL0     C66020  10.387   3.011   2.920  0.0847  0.1649  0.4174
  490MOL0     C66021  10.253   2.972   2.928 -1.0460  0.0654  0.4394
  490MOL0     C66022  10.145   3.050   2.879 -0.5525 -0.4260 -0.0597
  490MOL0     O66023  10.018   3.003   2.882 -0.2096 -0.9357 -0.7085
  490MOL0     C66024   9.925   3.076   2.809  0.0844 -0.3409 -0.0689
  490MOL0     C66025   9.798   2.992   2.811  0.2375 -0.5532 -1.1233
  490MOL0     C66026   9.689   3.090   2.752  0.3629 -0.9968 -0.3141
  490MOL0     C66027   9.550   3.024   2.756  0.0385 -0.1032 -0.0956
  490MOL0     C66028   9.433   3.132   2.758  0.0274 -0.0149  0.1136
  490MOL0     C66029   9.283   3.073   2.731 -0.0413  0.5462 -0.1591
  490MOL0     C66030   9.175   3.166   2.777  0.5880  0.1540 -0.5527
  490MOL0     C66031   9.158   3.278   2.672  0.6622 -0.4180 -0.1288
  490MOL0     N66032   9.064   3.378   2.733 -0.4132  0.0030  0.5773
  490MOL0     C66033   8.939   3.352   2.781  0.4555 -0.3710 -0.2058
  490MOL0     C66034   8.907   3.474   2.843 -0.2875  1.1536  0.3540
  490MOL0     C66035   8.777   3.503   2.914  0.1956 -0.3129  0.0895
  490MOL0     C66036   8.701   3.622   2.845 -0.5097 -0.0641  0.9984
  490MOL0     C66037   8.577   3.675   2.924 -1.0886 -0.3727  0.3989
  490MOL0     C66038   8.478   3.563   2.947 -0.0275 -0.1990  0.7321
  490MOL0     O66039   8.347   3.619   2.967 -0.0016  0.0166  0.5232
  490MOL0     C66040   8.261   3.535   3.029  0.2747  0.3897 -0.0390
  490MOL0     C66041   8.270   3.396   3.036 -0.7429  0.3931  1.4102
  490MOL0     C66042   8.166   3.309   3.087 -0.1734  0.0309  0.6085
  490MOL0     C66043   8.041   3.368   3.118  0.8727 -0.0045  0.4858
  490MOL0     C66044   7.923   3.283   3.157 -0.7347 -0.0094 -0.2434
  490MOL0     O66045   7.830   3.345   3.234 -0.2777  0.3732  0.8555
  490MOL0     C66046   7.699   3.314   3.218  0.8052  0.5387 -1.0922
  490MOL0     C66047   7.609   3.366   3.314  0.4321  0.8032  1.0933
  490MOL0     C66048   7.475   3.346   3.293 -0.1003  0.2958 -0.2728
  490MOL0     C66049   7.415   3.279   3.190 -0.1462 -0.2469  0.0340
  490MOL0     O66050   7.279   3.259   3.197 -0.3743  0.3138  0.2372
  490MOL0     C66051   7.206   3.219   3.082  0.0986 -0.1747  0.3275
  490MOL0     C66052   7.057   3.270   3.076 -0.1799 -0.1049 -0.0784
  490MOL0     C66053   6.960   3.230   3.191  0.2017  0.0693  0.5047
  490MOL0     C66054   6.819   3.293   3.173 -0.5926  0.4264 -0.1258
  490MOL0     C66055   6.726   3.256   3.290 -0.4271  0.9526 -1.1049
  490MOL0     C66056   6.594   3.336   3.290 -0.1505  0.0293  1.0418
  490MOL0     C66057   6.501   3.282   3.394  0.6571 -0.2314 -0.3376
  490MOL0     C66058   6.365   3.351   3.402 -0.1115 -0.4852 -0.9540
  490MOL0    Cl66059   6.274   3.313   3.272  0.1703  0.1554  0.8751
  490MOL0     C66060   7.499   3.227   3.089 -0.1038 -0.1561 -1.0629
  490MOL0     C66061   7.639   3.247   3.106 -0.1445 -0.9576  0.3832
  490MOL0     O66062   7.911   3.173   3.101 -0.1690  0.0863  0.3014
  490MOL0     C66063   8.034   3.512   3.119  0.0277  0.4753  0.0430
  490MOL0     C66064   8.139   3.583   3.074  0.0899  1.0550  0.1767
  490MOL0     N66065   9.021   3.564   2.842 -0.2985 -0.5667  0.3847
  490MOL0     N66066   9.114   3.496   2.775  0.3853  0.0588  0.0778
  490MOL0     C66067  10.183   3.176   2.830 -0.6851 -1.3923 -0.6155
  490MOL0     C66068  10.320   3.219   2.828 -0.3345  0.3443  0.3751
  490MOL0     C66069  10.778   3.226   2.981 -0.3208  0.3973  0.4655
  490MOL0     C66070  10.803   3.332   2.882  0.5951  0.3849  0.8397
  490MOL0     C66071  10.934   3.365   2.846  0.1840 -1.0507 -0.0161
  490MOL0     C66072  11.046   3.315   2.911  0.1659 -0.1983 -0.5662
  490MOL0     O66073  11.178   3.346   2.881  0.4493  0.1468  0.0486
  490MOL0     C66074  11.214   3.481   2.851  0.1477 -0.9183 -0.9547
  490MOL0     C66075  11.371   3.502   2.865 -0.5063  0.8827 -0.0797
  490MOL0     C66076  11.412   3.645   2.839  0.4288 -0.0637 -0.7616
  490MOL0     C66077  11.564   3.652   2.825  0.2491 -0.0527  0.7557
  490MOL0     C66078  11.629   3.702   2.947 -0.1115  0.4775  0.0927
  490MOL0     C66079  11.698   3.740   3.039 -0.6241 -0.1414  0.4721
  490MOL0     C66080  11.020   3.222   3.014 -0.2690 -0.4810  0.0026
  490MOL0     C66081  10.894   3.176   3.047  0.4516 -0.0245 -0.4750
  490MOL0     C66082  10.890   3.088   3.173  0.4036 -0.3146 -0.5518
  490MOL0     H66083  10.462   2.948   2.966  0.2625 -0.3869 -0.6075
  490MOL0     H66084  10.214   2.873   2.951 -0.9828 -0.1164 -0.2162
  490MOL0     H66085   9.902   3.174   2.852 -0.9582  0.5314 -2.4700
  490MOL0     H66086   9.951   3.100   2.706 -1.3768  1.7300 -0.0239
  490MOL0     H66087   9.784   2.965   2.916 -1.7049 -0.1746 -1.2532
  490MOL0     H66088   9.809   2.900   2.753  0.2098 -2.0247  1.0660
  490MOL0     H66089   9.715   3.134   2.655 -0.6883  0.5375  0.0596
  490MOL0     H66090   9.682   3.162   2.834  0.7127 -3.1599  1.7178
  490MOL0     H66091   9.538   2.951   2.676  1.4919  0.0520 -0.4668
  490MOL0     H66092   9.538   2.965   2.848 -2.2293  0.2675 -0.0958
  490MOL0     H66093   9.438   3.176   2.858  0.0795 -1.9970  1.0349
  490MOL0     H66094   9.458   3.205   2.682  0.9895 -0.1674  0.2675
  490MOL0     H66095   9.254   3.039   2.631  1.7372 -1.3632 -0.0985
  490MOL0     H66096   9.269   2.976   2.781  1.9533 -2.5685 -4.9197
  490MOL0     H66097   9.191   3.202   2.879 -1.9731  1.3832 -0.5020
  490MOL0     H66098   9.085   3.104   2.780 -1.3144  2.6354 -2.0305
  490MOL0     H66099   9.250   3.333   2.652 -0.0488  1.4592  1.5183
  490MOL0     H66100   9.105   3.233   2.587  0.2545 -0.0802 -0.0578
  490MOL0     H66101   8.881   3.261   2.775  1.2740 -0.9005 -0.2173
  490MOL0     H66102   8.715   3.413   2.914 -1.2475  0.6566  0.4883
  490MOL0     H66103   8.797   3.521   3.020 -2.7465 -2.3532  1.1122
  490MOL0     H66104   8.765   3.710   2.833  2.2511 -1.8718  1.4560
  490MOL0     H66105   8.678   3.583   2.746  2.1810  2.6615 -0.8908
  490MOL0     H66106   8.534   3.756   2.863  1.0825  1.1906  0.8177
  490MOL0     H66107   8.604   3.725   3.018 -0.8968  0.3185 -0.0114
  490MOL0     H66108   8.519   3.516   3.036 -0.1650  1.7007  1.8359
  490MOL0     H66109   8.476   3.491   2.864 -1.0374  0.0786  0.4928
  490MOL0     H66110   8.361   3.350   2.997  0.9982  2.8086  2.3963
  490MOL0     H66111   8.193   3.205   3.103 -1.1815 -0.2817  0.3730
  490MOL0     H66112   7.658   3.416   3.397  0.3318  0.6747  1.2310
  490MOL0     H66113   7.411   3.388   3.369 -0.8967 -2.1876  0.5138
  490MOL0     H66114   7.256   3.269   2.999 -0.8212 -0.0347 -0.1464
  490MOL0     H66115   7.207   3.109   3.076 -0.8373 -0.1156 -1.1639
  490MOL0     H66116   7.041   3.376   3.055 -0.0800  0.8874  4.1132
  490MOL0     H66117   7.011   3.225   2.987  0.8894  0.6366 -1.0277
  490MOL0     H66118   6.959   3.121   3.202  2.9124  0.1393  2.5010
  490MOL0     H66119   7.003   3.255   3.289  3.2258  0.5407 -0.8070
  490MOL0     H66120   6.775   3.268   3.076  1.5302  2.1875 -1.6459
  490MOL0     H66121   6.818   3.402   3.174  1.4004  0.4971 -1.0338
  490MOL0     H66122   6.784   3.274   3.381  1.3418  1.3469 -2.2430
  490MOL0     H66123   6.710   3.147   3.289 -0.6538  0.9865 -2.4612
  490MOL0     H66124   6.609   3.442   3.314 -2.5306  0.4678  0.8236
  490MOL0     H66125   6.539   3.337   3.195 -0.2371 -2.8367  0.9746
  490MOL0     H66126   6.551   3.304   3.488  1.3283  1.8623 -1.1231
  490MOL0     H66127   6.476   3.175   3.390 -0.9083  0.0855  0.1283
  490MOL0     H66128   6.319   3.326   3.498 -0.7556  1.5037 -0.7074
  490MOL0     H66129   6.377   3.459   3.406 -1.6682 -0.2304  3.8601
  490MOL0     H66130   7.456   3.176   3.004 -0.8650 -3.2175  1.0193
  490MOL0     H66131   7.709   3.207   3.033  0.9142 -0.7299  1.2419
  490MOL0     H66132   7.949   3.569   3.156  0.1456  0.2361  0.6965
  490MOL0     H66133   8.125   3.690   3.079 -2.4533  0.7672  0.4641
  490MOL0     H66134  10.103   3.241   2.795 -1.1434 -0.3961  2.0211
  490MOL0     H66135  10.340   3.320   2.794 -1.0979  0.9696  1.6780
  490MOL0     H66136  10.722   3.373   2.821  1.5965  2.4310  0.8007
  490MOL0     H66137  10.929   3.432   2.761 -4.6163  1.0148  1.5602
  490MOL0     H66138  11.173   3.549   2.926  3.0615  0.5180 -0.5183
  490MOL0     H66139  11.181   3.514   2.751  1.4369 -2.8694 -2.0925
  490MOL0     H66140  11.414   3.437   2.788 -1.1110  1.3684 -0.8448
  490MOL0     H66141  11.404   3.473   2.965 -0.1917 -0.8880 -0.6481
  490MOL0     H66142  11.376   3.710   2.920  0.8441  0.2627 -0.8364
  490MOL0     H66143  11.366   3.678   2.746  0.8707 -0.5303 -1.1444
  490MOL0     H66144  11.607   3.553   2.804  1.8813  0.2204  2.5459
  490MOL0     H66145  11.589   3.723   2.746 -0.9465 -0.3131  0.1185
  490MOL0     H66146  11.753   3.768   3.127 -0.1320 -0.8424  0.3978
  490MOL0     H66147  11.097   3.191   3.083 -1.4069  1.6645  2.3705
  490MOL0     H66148  10.993   3.068   3.204  1.0796  2.0909 -1.0615
  490MOL0     H66149  10.833   3.143   3.249  1.1725 -2.2095  1.5260
  490MOL0     H66150  10.840   2.995   3.145 -0.2972 -0.2293  0.3747
  491MOL0     O66151   5.133   9.148   6.976 -0.8585 -0.4953  0.1785
  491MOL0     C66152   5.236   9.084   7.012  0.4820 -0.7400  0.5123
  491MOL0     O66153   5.237   8.977   7.100  0.5712  0.3907 -0.2425
  491MOL0     C66154   5.121   8.930   7.156 -0.0044 -0.4793  0.5460
  491MOL0     C66155   5.108   8.793   7.147 -0.4547  0.1005 -0.7267
  491MOL0     C66156   4.996   8.727   7.193 -0.4851 -0.3505  0.4189
  491MOL0     C66157   4.901   8.806   7.250  0.7504  0.1808  0.0742
  491MOL0     O66158   4.789   8.744   7.293 -0.0224 -0.6445  0.0216
  491MOL0     C66159   4.689   8.816   7.367  0.2892 -0.2263 -0.1079
  491MOL0     C66160   4.579   8.715   7.388  0.0593  0.2968 -0.3484
  491MOL0     C66161   4.504   8.662   7.271  0.7138  0.2667 -0.0996
  491MOL0     C66162   4.456   8.765   7.167 -0.0029  0.2109  0.2252
  491MOL0     C66163   4.347   8.722   7.065 -0.3588  1.1209  0.0033
  491MOL0     C66164   4.392   8.605   6.972 -1.1391  0.5344  0.1445
  491MOL0     C66165   4.530   8.627   6.903  0.1607  0.0171 -0.5965
  491MOL0     C66166   4.538   8.749   6.807 -0.2244 -0.1511  0.7100
  491MOL0     N66167   4.672   8.769   6.752 -0.0003  0.2287  0.3995
  491MOL0     C66168   4.789   8.743   6.825 -0.5346 -0.1947 -0.3069
  491MOL0     C66169   4.891   8.755   6.742  0.0361 -0.0394  0.1439
  491MOL0     C66170   5.034   8.726   6.767  0.1969 -0.1487 -0.2582
  491MOL0     C66171   5.105   8.865   6.777 -0.5167  0.1086  0.5367
  491MOL0     C66172   5.136   8.916   6.634 -0.4829  0.7591  0.4422
  491MOL0     C66173   5.255   9.008   6.631 -0.3380  0.2827 -0.7177
  491MOL0     O66174   5.370   8.925   6.632 -0.0991  0.1524  0.3161
  491MOL0     C66175   5.469   8.956   6.549  0.1671  0.0010 -0.5020
  491MOL0     C66176   5.531   8.845   6.486 -0.4578  0.6936  0.3548
  491MOL0     C66177   5.639   8.871   6.396 -0.5326  0.6546 -0.2024
  491MOL0     C66178   5.686   8.998   6.380 -0.0545 -0.8489  0.3749
  491MOL0     C66179   5.800   9.022   6.297 -1.2381  0.0658 -0.0598
  491MOL0     O66180   5.828   9.151   6.258 -0.4741  0.1608 -0.0113
  491MOL0     C66181   5.963   9.187   6.253 -0.3840 -0.9918 -0.4364
  491MOL0     C66182   6.001   9.299   6.168 -0.3307 -0.4494 -0.7694
  491MOL0     C66183   6.137   9.346   6.169 -0.2392 -0.7003  0.2698
  491MOL0     C66184   6.233   9.286   6.249 -0.1379  0.2060 -0.3536
  491MOL0     O66185   6.358   9.335   6.269  0.4783 -0.0241 -0.7654
  491MOL0     C66186   6.391   9.458   6.198  0.7819  1.3765 -0.3276
  491MOL0     C66187   6.525   9.518   6.234 -0.0049  0.1273  0.2126
  491MOL0     C66188   6.526   9.586   6.374  0.2878 -0.0103 -0.2025
  491MOL0     C66189   6.436   9.701   6.393  0.4506 -0.7607 -0.1376
  491MOL0     C66190   6.483   9.802   6.500  0.5503  0.3150 -0.0266
  491MOL0     C66191   6.394   9.919   6.536  0.4694  0.9961 -1.1452
  491MOL0     C66192   6.360  10.018   6.415 -0.2375  0.6107  0.2566
  491MOL0     C66193   6.476  10.068   6.325 -0.5936 -0.3149 -1.3534
  491MOL0    Cl66194   6.621  10.100   6.418 -0.5081  0.1005 -0.3099
  491MOL0     C66195   6.192   9.174   6.321 -1.1031  0.5782  0.2526
  491MOL0     C66196   6.065   9.126   6.329  0.0065  0.4204 -0.5916
  491MOL0     O66197   5.874   8.925   6.267  0.7364 -0.3765 -0.3006
  491MOL0     C66198   5.618   9.106   6.437  0.2018 -0.2747  1.0406
  491MOL0     C66199   5.515   9.082   6.524 -0.4613  0.5623 -0.7490
  491MOL0     N66200   4.844   8.810   6.625 -0.5711 -0.2496  0.5411
  491MOL0     N66201   4.717   8.816   6.628  0.5190 -0.2822 -0.0426
  491MOL0     C66202   4.913   8.949   7.269 -0.0762  0.8524 -0.9951
  491MOL0     C66203   5.025   9.011   7.221  0.3324 -0.3280  0.1541
  491MOL0     C66204   5.367   9.124   6.957 -1.0149  0.1685 -0.5223
  491MOL0     C66205   5.466   9.026   6.965 -0.1384 -0.3737 -0.3925
  491MOL0     C66206   5.582   9.038   6.896 -0.1973 -0.1031  1.0445
  491MOL0     C66207   5.623   9.161   6.836  0.7220  0.8819 -0.3766
  491MOL0     O66208   5.729   9.173   6.742  0.6276  0.2971  0.0076
  491MOL0     C66209   5.774   9.300   6.689 -0.6369 -0.8341 -0.1488
  491MOL0     C66210   5.914   9.283   6.621 -0.6093  0.7274  0.0702
  491MOL0     C66211   5.966   9.409   6.536  0.1941  0.0924 -0.1636
  491MOL0     C66212   5.868   9.521   6.496  0.1566 -0.5470 -0.1945
  491MOL0     C66213   5.844   9.618   6.609  0.5672 -0.5828 -0.2471
  491MOL0     C66214   5.820   9.706   6.688  0.3218  0.0151  0.4696
  491MOL0     C66215   5.527   9.261   6.841  0.4608  0.3233  0.5643
  491MOL0     C66216   5.400   9.245   6.897  0.0429 -0.5538 -0.0974
  491MOL0     C66217   5.306   9.363   6.894  0.6212  0.3044  0.6392
  491MOL0     H66218   5.193   8.751   7.095  1.6013  1.4418  1.3318
  491MOL0     H66219   4.996   8.621   7.170  0.6141 -0.2140 -0.2946
  491MOL0     H66220   4.738   8.851   7.458  1.2042 -0.8119 -0.3546
  491MOL0     H66221   4.652   8.909   7.322 -0.6116 -0.4300  0.2022
  491MOL0     H66222   4.508   8.764   7.455  0.7853 -0.1991  0.8224
  491MOL0     H66223   4.615   8.629   7.446  0.2169 -0.6426 -1.7923
  491MOL0     H66224   4.416   8.602   7.295  0.9951 -0.6108 -1.1832
  491MOL0     H66225   4.566   8.589   7.218  0.6359 -0.7961  1.2033
  491MOL0     H66226   4.417   8.847   7.228 -0.4614 -1.4462  2.3049
  491MOL0     H66227   4.552   8.787   7.120 -0.6809  1.9179 -0.4307
  491MOL0     H66228   4.252   8.701   7.115 -0.6508 -0.9119 -1.3016
  491MOL0     H66229   4.331   8.810   7.003 -2.2548  0.4735 -0.5007
  491MOL0     H66230   4.405   8.511   7.026 -2.5080 -1.0048 -2.0594
  491MOL0     H66231   4.319   8.583   6.893  1.6935 -0.6151 -2.3481
  491MOL0     H66232   4.541   8.545   6.831 -2.0956 -1.0496  0.1787
  491MOL0     H66233   4.605   8.622   6.983  0.9565  2.3869 -1.1394
  491MOL0     H66234   4.474   8.736   6.719  0.2277  1.3489  0.1246
  491MOL0     H66235   4.500   8.839   6.856  1.3017 -0.4519  2.5424
  491MOL0     H66236   4.810   8.695   6.920  1.2201 -0.9100 -0.9978
  491MOL0     H66237   5.050   8.671   6.861  1.3534  2.7811  1.3875
  491MOL0     H66238   5.071   8.666   6.684 -0.9269 -1.3461  0.0546
  491MOL0     H66239   5.049   8.939   6.835  1.9683  1.0334  1.9418
  491MOL0     H66240   5.198   8.842   6.830 -1.0202 -2.0717  0.5742
  491MOL0     H66241   5.043   8.968   6.608 -1.8139 -0.6336  2.1358
  491MOL0     H66242   5.165   8.839   6.562  1.8488  0.2627  1.8216
  491MOL0     H66243   5.260   9.075   6.717  1.0213  2.3402 -2.3255
  491MOL0     H66244   5.252   9.076   6.546 -0.7634  0.6432 -0.4189
  491MOL0     H66245   5.486   8.749   6.509  0.1618 -0.1752 -1.7742
  491MOL0     H66246   5.682   8.781   6.353 -1.7002  1.0229 -2.2722
  491MOL0     H66247   5.925   9.342   6.104  1.7338 -0.0078 -3.0401
  491MOL0     H66248   6.161   9.433   6.107  4.0542 -1.3820  0.7266
  491MOL0     H66249   6.398   9.434   6.091  0.3471  1.5770 -0.4029
  491MOL0     H66250   6.317   9.537   6.214  0.5065  1.1253 -0.3394
  491MOL0     H66251   6.599   9.436   6.237  0.4164  0.3228 -2.4106
  491MOL0     H66252   6.567   9.592   6.166 -0.6207  2.1794  1.9530
  491MOL0     H66253   6.512   9.503   6.444 -1.3819 -0.2450 -0.7500
  491MOL0     H66254   6.631   9.616   6.381  0.0960  0.3979  1.2618
  491MOL0     H66255   6.340   9.665   6.430  0.0245 -2.6041 -2.7079
  491MOL0     H66256   6.425   9.758   6.300 -0.0850  0.1771  0.4873
  491MOL0     H66257   6.579   9.843   6.469  1.2286 -0.8870  0.4061
  491MOL0     H66258   6.501   9.747   6.593 -2.0442  0.1135  0.4430
  491MOL0     H66259   6.295   9.887   6.571  0.7885  1.3048  0.0977
  491MOL0     H66260   6.453   9.961   6.618 -0.5598  0.9323 -0.3441
  491MOL0     H66261   6.309  10.090   6.479 -0.7608 -1.4514  2.3236
  491MOL0     H66262   6.281   9.977   6.353 -1.1376  0.9328  1.1537
  491MOL0     H66263   6.503   9.991   6.252 -1.6815  0.0582 -2.1756
  491MOL0     H66264   6.448  10.154   6.264  0.4455  0.7519 -0.3719
  491MOL0     H66265   6.263   9.114   6.377  0.0354  0.7534 -0.9506
  491MOL0     H66266   6.035   9.042   6.391 -1.5739  0.2266 -1.5674
  491MOL0     H66267   5.638   9.212   6.425 -0.3895 -0.1872  0.7627
  491MOL0     H66268   5.463   9.164   6.572 -0.9489  0.5201 -1.2025
  491MOL0     H66269   4.833   9.012   7.306  1.4031  1.7277  0.8568
  491MOL0     H66270   5.033   9.119   7.222 -1.2744 -0.1675 -0.9085
  491MOL0     H66271   5.450   8.930   7.013  0.0614  0.2302  0.9454
  491MOL0     H66272   5.669   8.972   6.897  3.1126  3.8564  0.7022
  491MOL0     H66273   5.782   9.375   6.768  1.5789  0.8320 -1.8020
  491MOL0     H66274   5.712   9.323   6.601 -2.5783  3.0528  1.9621
  491MOL0     H66275   5.899   9.198   6.554  3.2592 -0.2780  0.2138
  491MOL0     H66276   5.992   9.266   6.696  0.7746  1.2607 -1.2055
  491MOL0     H66277   6.020   9.381   6.445  1.1618 -2.2317  1.0449
  491MOL0     H66278   6.038   9.460   6.600 -0.5200  1.5478 -0.4687
  491MOL0     H66279   5.902   9.578   6.409 -3.1297  0.3439 -1.0547
  491MOL0     H66280   5.776   9.470   6.464 -0.1247 -0.8168  1.0019
  491MOL0     H66281   5.782   9.779   6.757  0.8221  0.6285  0.1114
  491MOL0     H66282   5.544   9.362   6.803  2.4996 -0.0016  0.5058
  491MOL0     H66283   5.285   9.399   6.995 -2.2169  0.2591  0.1548
  491MOL0     H66284   5.350   9.448   6.841 -1.1568  2.1712  1.9990
  491MOL0     H66285   5.211   9.350   6.842  1.5033  1.4731 -1.3699
  492MOL0     O66286   9.523   1.903   2.559  0.1620  0.6039 -0.1711
  492MOL0     C66287   9.475   1.842   2.654 -0.4237 -0.0542  0.1811
  492MOL0     O66288   9.544   1.811   2.766 -0.4456  0.3638  0.3712
  492MOL0     C66289   9.673   1.776   2.764 -0.4140 -0.0145 -0.1569
  492MOL0     C66290   9.740   1.726   2.652 -0.0843  0.0010  0.2954
  492MOL0     C66291   9.872   1.678   2.668  0.4725 -0.7770  0.6348
  492MOL0     C66292   9.947   1.687   2.786  0.7140  0.6422 -0.6189
  492MOL0     O66293  10.069   1.637   2.808 -0.6295  0.5811 -0.3048
  492MOL0     C66294  10.156   1.677   2.706 -0.1518 -0.6588  0.3829
  492MOL0     C66295  10.303   1.665   2.752 -0.3615  0.1583 -0.2086
  492MOL0     C66296  10.404   1.697   2.637 -0.9466 -0.2640 -1.1981
  492MOL0     C66297  10.550   1.710   2.684  0.1179 -0.2528 -0.2649
  492MOL0     C66298  10.565   1.849   2.746  0.0556 -0.1158  0.0374
  492MOL0     C66299  10.677   1.846   2.855 -0.5765 -0.1885  0.5022
  492MOL0     C66300  10.686   1.994   2.915  0.4449  0.2908  0.3004
  492MOL0     C66301  10.816   1.987   3.004  0.1529  0.0088 -0.1063
  492MOL0     N66302  10.801   1.921   3.130 -0.2727 -0.2528 -1.2690
  492MOL0     C66303  10.724   1.953   3.236 -0.1715 -1.0573 -0.0188
  492MOL0     C66304  10.736   1.848   3.313  0.2670  0.1470 -1.1983
  492MOL0     C66305  10.663   1.850   3.448  0.2426 -0.4792  0.3226
  492MOL0     C66306  10.720   1.956   3.543  0.8719  0.6703  0.5086
  492MOL0     C66307  10.872   1.930   3.567 -0.4811  0.4725 -0.4099
  492MOL0     C66308  10.932   2.060   3.620  0.2799 -0.2454  0.4392
  492MOL0     O66309  11.075   2.043   3.646 -0.7565 -0.2212  0.8035
  492MOL0     C66310  11.148   2.134   3.721  0.5434 -0.8366 -0.5142
  492MOL0     C66311  11.290   2.119   3.740  0.2538  1.1509  0.0488
  492MOL0     C66312  11.358   2.216   3.809 -0.2738  0.1452  0.7016
  492MOL0     C66313  11.292   2.331   3.869  0.2372  0.5328 -0.0811
  492MOL0     C66314  11.365   2.422   3.957  0.3716 -0.2095 -0.0618
  492MOL0     O66315  11.494   2.441   3.928  0.6515 -0.4623  0.1024
  492MOL0     C66316  11.568   2.525   4.008  0.9475  0.7260  0.1761
  492MOL0     C66317  11.600   2.491   4.140 -0.5412  0.2021 -0.3580
  492MOL0     C66318  11.694   2.562   4.215 -0.0254 -0.2920  0.4949
  492MOL0     C66319  11.758   2.669   4.155  0.0808 -0.3862 -0.1097
  492MOL0     O66320  11.850   2.747   4.231  0.7868  0.1565 -0.4546
  492MOL0     C66321  11.826   2.881   4.243  0.1817  0.1640 -0.4301
  492MOL0     C66322  11.927   2.942   4.334 -0.4709 -0.2682  0.0505
  492MOL0     C66323  11.926   3.093   4.315 -0.8955 -0.2901  0.1550
  492MOL0     C66324  12.049   3.153   4.359  0.6377 -0.3159 -0.6197
  492MOL0     C66325  12.043   3.308   4.369  0.3479  0.7590  1.6521
  492MOL0     C66326  12.145   3.354   4.475  0.1552  0.4415  0.2102
  492MOL0     C66327  12.139   3.509   4.491  0.7358 -0.5343  0.0553
  492MOL0     C66328  12.245   3.578   4.582  0.8129 -0.4754  1.0180
  492MOL0    Cl66329  12.210   3.751   4.604 -0.1402  0.7370 -0.1558
  492MOL0     C66330  11.728   2.705   4.020 -0.2688 -0.2467  0.8824
  492MOL0     C66331  11.626   2.641   3.952  0.6248 -0.6422 -0.2421
  492MOL0     O66332  11.303   2.475   4.051  0.0209 -0.6265  0.1840
  492MOL0     C66333  11.156   2.348   3.846 -0.4778 -0.1812  0.5544
  492MOL0     C66334  11.084   2.255   3.771  0.3764  0.2024  0.5692
  492MOL0     N66335  10.829   1.759   3.266 -0.2400  0.1867  0.8905
  492MOL0     N66336  10.864   1.800   3.148  0.8225  0.2147 -0.4030
  492MOL0     C66337   9.873   1.723   2.894  0.2586 -0.3199 -0.7461
  492MOL0     C66338   9.744   1.777   2.882 -0.4475  0.3524 -0.3553
  492MOL0     C66339   9.340   1.790   2.643 -1.0814 -0.7535  0.9593
  492MOL0     C66340   9.272   1.767   2.760  0.7245 -0.4227  0.4840
  492MOL0     C66341   9.141   1.721   2.762 -0.1297 -0.4536 -0.8181
  492MOL0     C66342   9.061   1.711   2.654  0.8457  0.2337 -0.2300
  492MOL0     O66343   8.930   1.683   2.673  0.3930  0.3956  0.4942
  492MOL0     C66344   8.840   1.744   2.575  0.4996  0.5563 -0.6775
  492MOL0     C66345   8.699   1.767   2.616  0.3251 -0.4874  0.1766
  492MOL0     C66346   8.628   1.630   2.615  0.2331 -0.0975 -0.2206
  492MOL0     C66347   8.475   1.636   2.599  0.1398 -0.6435 -0.2184
  492MOL0     C66348   8.411   1.655   2.724  0.6724 -1.1919 -0.6600
  492MOL0     C66349   8.360   1.667   2.831 -0.6037 -0.6232 -0.2001
  492MOL0     C66350   9.127   1.723   2.530 -0.2059 -0.4004  0.0385
  492MOL0     C66351   9.262   1.765   2.517 -0.2203  0.0693  0.7463
  492MOL0     C66352   9.320   1.775   2.372  0.0098 -0.2179 -0.5359
  492MOL0     H66353   9.711   1.727   2.548 -1.1762 -2.8919  0.4746
  492MOL0     H66354   9.920   1.648   2.575  1.6469  0.4931  0.8112
  492MOL0     H66355  10.136   1.620   2.615 -0.0990 -3.9098  2.2351
  492MOL0     H66356  10.145   1.785   2.695  0.6343 -0.6158 -0.1471
  492MOL0     H66357  10.319   1.564   2.791  0.2934  0.5700  0.6315
  492MOL0     H66358  10.320   1.731   2.838 -1.3520 -0.6613  0.6512
  492MOL0     H66359  10.386   1.788   2.581  1.6729  0.7212 -0.5628
  492MOL0     H66360  10.412   1.614   2.566 -4.5379 -1.4658 -0.4408
  492MOL0     H66361  10.565   1.629   2.756 -0.5234 -0.4837 -0.3862
  492MOL0     H66362  10.615   1.703   2.596 -1.7923  1.4259 -1.9084
  492MOL0     H66363  10.576   1.924   2.666  0.0524  1.4013  1.4036
  492MOL0     H66364  10.471   1.873   2.795 -0.2397 -0.6619 -0.2569
  492MOL0     H66365  10.647   1.780   2.937  1.2204 -0.3930  1.0398
  492MOL0     H66366  10.771   1.809   2.812 -1.3713 -0.5381 -1.0277
  492MOL0     H66367  10.596   2.014   2.975 -0.1677  1.5403 -0.9773
  492MOL0     H66368  10.695   2.059   2.827 -1.4418 -0.3264 -0.3972
  492MOL0     H66369  10.902   1.948   2.948 -1.2618  0.9100 -3.1104
  492MOL0     H66370  10.837   2.091   3.032  1.0066 -0.8766  2.9768
  492MOL0     H66371  10.672   2.048   3.244  0.6274 -0.7260  1.6354
  492MOL0     H66372  10.558   1.869   3.424  0.1063  2.9214  2.8600
  492MOL0     H66373  10.673   1.758   3.507 -0.0719  1.5217  3.8079
  492MOL0     H66374  10.717   2.051   3.488 -2.4188  0.2244 -0.3189
  492MOL0     H66375  10.665   1.966   3.637 -3.4970  0.0560 -1.7500
  492MOL0     H66376  10.929   1.913   3.476 -0.2104 -0.5757 -0.0569
  492MOL0     H66377  10.878   1.844   3.634 -2.3132 -0.7707 -1.7433
  492MOL0     H66378  10.879   2.072   3.715 -0.7707 -2.5173  0.1946
  492MOL0     H66379  10.910   2.144   3.554 -0.7308 -1.1723 -0.4452
  492MOL0     H66380  11.338   2.036   3.689 -2.2463  1.5314 -3.1974
  492MOL0     H66381  11.462   2.197   3.831 -0.6929 -2.7997  0.4791
  492MOL0     H66382  11.555   2.397   4.168  2.3142 -0.8477  1.1408
  492MOL0     H66383  11.726   2.537   4.316  2.1749  0.8142  0.1245
  492MOL0     H66384  11.846   2.920   4.142  0.3495 -3.6685 -2.0272
  492MOL0     H66385  11.728   2.901   4.287  0.3901 -2.5920  1.5012
  492MOL0     H66386  11.919   2.916   4.439  2.5625 -0.1113  0.3954
  492MOL0     H66387  12.021   2.893   4.306 -0.1006  0.9704 -1.0159
  492MOL0     H66388  11.900   3.132   4.216 -2.3289  0.0309  0.6371
  492MOL0     H66389  11.848   3.123   4.386 -2.5367 -2.8858 -0.4022
  492MOL0     H66390  12.128   3.125   4.288 -0.4467 -1.8615 -1.2756
  492MOL0     H66391  12.073   3.102   4.453 -0.4536 -1.9019 -1.1523
  492MOL0     H66392  11.940   3.324   4.401 -0.8246  1.1063 -1.8057
  492MOL0     H66393  12.065   3.354   4.272  1.8826  0.3363  1.7824
  492MOL0     H66394  12.119   3.309   4.571 -0.1277  0.6598  0.2376
  492MOL0     H66395  12.249   3.333   4.451  0.4463  3.9160 -2.4466
  492MOL0     H66396  12.038   3.521   4.530  0.7161 -3.1642  1.0134
  492MOL0     H66397  12.148   3.551   4.390  0.6243  0.6127  0.5158
  492MOL0     H66398  12.223   3.529   4.678 -0.7734 -0.0676  0.8867
  492MOL0     H66399  12.346   3.549   4.552  0.0137 -0.1177 -2.3129
  492MOL0     H66400  11.781   2.790   3.978 -2.0732  0.3636 -0.2888
  492MOL0     H66401  11.598   2.674   3.852  2.5683 -0.1495 -0.6635
  492MOL0     H66402  11.098   2.434   3.876 -0.0401  0.3203 -0.0031
  492MOL0     H66403  10.981   2.268   3.739  0.4030  1.2674  0.8780
  492MOL0     H66404   9.914   1.716   2.994  0.4872  2.0483 -0.6148
  492MOL0     H66405   9.702   1.818   2.973 -2.4428  1.4269 -1.7091
  492MOL0     H66406   9.323   1.773   2.856  1.7979 -0.8441 -0.0343
  492MOL0     H66407   9.093   1.703   2.857 -1.8827 -2.1982 -1.9454
  492MOL0     H66408   8.853   1.679   2.488  1.4484 -1.5769  0.9693
  492MOL0     H66409   8.883   1.844   2.561 -0.3738  1.0819  0.2856
  492MOL0     H66410   8.645   1.838   2.552 -1.4565 -0.0946  2.0075
  492MOL0     H66411   8.711   1.820   2.712 -2.8725  0.4127  0.1924
  492MOL0     H66412   8.653   1.583   2.710 -1.6291  2.3635  1.5932
  492MOL0     H66413   8.663   1.577   2.525 -0.1472 -1.0216  0.1571
  492MOL0     H66414   8.441   1.717   2.533 -0.7473 -1.9274 -1.4032
  492MOL0     H66415   8.433   1.548   2.548 -0.7675  0.1518 -0.8828
  492MOL0     H66416   8.304   1.689   2.920  1.6738  1.9617  0.7141
  492MOL0     H66417   9.062   1.699   2.447  0.3799 -0.4037 -0.4288
  492MOL0     H66418   9.379   1.865   2.351  1.5622 -1.3205 -1.0287
  492MOL0     H66419   9.368   1.683   2.337  1.2892 -0.2658  1.2485
  492MOL0     H66420   9.237   1.788   2.301 -0.7208 -1.2079  0.1206
  493MOL0     O66421   3.525  11.155   7.759  0.1048 -0.7685 -0.1888
  493MOL0     C66422   3.589  11.236   7.823  0.5551 -0.1466  0.8057
  493MOL0     O66423   3.723  11.260   7.809 -0.5916  0.3616  0.2754
  493MOL0     C66424   3.803  11.167   7.742 -0.4895 -0.3909  1.0740
  493MOL0     C66425   3.868  11.060   7.806 -0.5474 -0.0104  0.2695
  493MOL0     C66426   3.940  10.965   7.738  0.2084  0.0587 -0.0400
  493MOL0     C66427   3.943  10.967   7.600  0.1553  0.4722  0.8033
  493MOL0     O66428   4.012  10.866   7.541 -0.1387  0.2590  0.8359
  493MOL0     C66429   4.111  10.895   7.432 -0.0287  0.1243 -0.1149
  493MOL0     C66430   4.200  10.773   7.412 -0.1765 -0.6246 -0.0693
  493MOL0     C66431   4.327  10.816   7.340  0.5060  0.2742 -0.1492
  493MOL0     C66432   4.432  10.704   7.323  0.1172 -0.0692  0.0016
  493MOL0     C66433   4.545  10.740   7.232  0.4330 -0.6124 -0.1168
  493MOL0     C66434   4.659  10.631   7.223 -0.3008 -0.6876 -0.7853
  493MOL0     C66435   4.775  10.685   7.137 -0.5583 -0.2531 -0.3681
  493MOL0     C66436   4.870  10.571   7.112 -0.2905  0.0937  0.4330
  493MOL0     N66437   4.968  10.605   7.013  0.1369  0.0050 -0.2719
  493MOL0     C66438   5.081  10.685   7.040  0.9910 -0.5309  0.3508
  493MOL0     C66439   5.144  10.685   6.923  0.2373 -0.6621 -0.3357
  493MOL0     C66440   5.269  10.761   6.907  0.0294 -0.4537  0.6141
  493MOL0     C66441   5.391  10.697   6.966 -0.6983 -0.4226  0.4240
  493MOL0     C66442   5.520  10.790   6.942 -0.2563  0.1393 -1.1767
  493MOL0     C66443   5.639  10.728   7.014  0.0705  0.9371  0.9449
  493MOL0     O66444   5.616  10.714   7.155  0.0965  0.4210 -0.2602
  493MOL0     C66445   5.593  10.828   7.234 -0.4199 -0.0535 -0.4744
  493MOL0     C66446   5.691  10.933   7.232  0.3976  0.1083  0.0540
  493MOL0     C66447   5.675  11.046   7.319 -0.4567  1.0458 -0.0504
  493MOL0     C66448   5.563  11.055   7.406 -0.6830 -0.3223 -0.2154
  493MOL0     C66449   5.563  11.155   7.508  0.2082  0.0278  0.0121
  493MOL0     O66450   5.473  11.139   7.607 -0.2845 -0.0632  0.1455
  493MOL0     C66451   5.452  11.241   7.700  0.5675 -0.8110  1.0934
  493MOL0     C66452   5.347  11.335   7.669 -0.3025 -0.0367 -0.3730
  493MOL0     C66453   5.318  11.441   7.754 -0.0188  0.6503  0.3738
  493MOL0     C66454   5.391  11.470   7.866 -0.0474  0.4948  0.2946
  493MOL0     O66455   5.342  11.574   7.942  0.2213  0.2191 -0.5896
  493MOL0     C66456   5.428  11.627   8.040  0.5634 -0.3522 -0.1594
  493MOL0     C66457   5.360  11.716   8.141  0.1191  0.5621 -0.3706
  493MOL0     C66458   5.294  11.630   8.259 -0.1796 -0.3988  0.7327
  493MOL0     C66459   5.158  11.563   8.200 -0.3391 -0.4970  1.1455
  493MOL0     C66460   5.064  11.491   8.307  0.1651  0.6972 -0.5023
  493MOL0     C66461   4.940  11.447   8.232 -0.1124 -0.3106 -0.3728
  493MOL0     C66462   4.866  11.337   8.321  0.4623 -0.6932 -0.1925
  493MOL0     C66463   4.744  11.296   8.232  0.3563  0.4270 -0.6342
  493MOL0    Cl66464   4.682  11.136   8.301  0.0568 -0.7589 -0.0471
  493MOL0     C66465   5.504  11.393   7.897 -0.6644 -0.1565  0.6983
  493MOL0     C66466   5.540  11.285   7.807  0.0836  0.5762  0.1900
  493MOL0     O66467   5.647  11.242   7.504 -0.2509 -0.6550 -0.0752
  493MOL0     C66468   5.463  10.956   7.396  0.5834 -0.2066 -0.5222
  493MOL0     C66469   5.479  10.842   7.312 -0.0007 -0.9321 -0.8013
  493MOL0     N66470   5.070  10.613   6.828  0.6870 -0.0117  0.0274
  493MOL0     N66471   4.953  10.572   6.881 -1.1078  0.5465  0.0772
  493MOL0     C66472   3.879  11.069   7.530 -0.3297 -0.5886 -0.0915
  493MOL0     C66473   3.814  11.168   7.605 -0.0361  0.7686  0.5178
  493MOL0     C66474   3.515  11.330   7.904 -0.5882 -0.5557  0.2082
  493MOL0     C66475   3.577  11.455   7.937  0.1989 -0.1032  0.2591
  493MOL0     C66476   3.519  11.553   8.014  0.8028  0.5231 -0.6372
  493MOL0     C66477   3.392  11.525   8.067 -1.0983 -0.7882  0.5571
  493MOL0     O66478   3.344  11.621   8.155 -0.2981  0.0622  0.6323
  493MOL0     C66479   3.217  11.679   8.117 -0.2057  0.2382  0.2176
  493MOL0     C66480   3.205  11.813   8.180 -0.1687  0.1723  0.6626
  493MOL0     C66481   3.062  11.865   8.196 -0.1139  0.2865 -0.2225
  493MOL0     C66482   2.975  11.873   8.065 -0.0149  0.2567 -0.4877
  493MOL0     C66483   2.867  11.966   8.088  0.9011  0.0484 -1.1492
  493MOL0     C66484   2.785  12.042   8.138 -0.2125  0.0460  1.0539
  493MOL0     C66485   3.330  11.405   8.042  0.7548  0.3911  0.3448
  493MOL0     C66486   3.381  11.309   7.958 -0.1012 -0.5487  0.2654
  493MOL0     C66487   3.300  11.178   7.954  1.3306  0.1681  0.0156
  493MOL0     H66488   3.856  11.045   7.913  0.0549 -0.4130  0.2896
  493MOL0     H66489   3.991  10.880   7.782 -0.6130  0.3604  1.5518
  493MOL0     H66490   4.062  10.909   7.335 -0.4583  1.0459  0.2242
  493MOL0     H66491   4.156  10.989   7.465  0.4601 -0.2484  0.3094
  493MOL0     H66492   4.154  10.688   7.361 -1.1163 -1.6323  2.2752
  493MOL0     H66493   4.210  10.735   7.514  2.0915  0.5664  0.2162
  493MOL0     H66494   4.375  10.878   7.416 -0.4368 -0.9764  1.5474
  493MOL0     H66495   4.306  10.877   7.252 -3.6581 -1.4863 -0.6488
  493MOL0     H66496   4.460  10.673   7.424  1.5199  1.6846  0.2049
  493MOL0     H66497   4.385  10.615   7.280 -0.5830 -0.2443  1.0763
  493MOL0     H66498   4.500  10.761   7.135 -4.5212  2.1499  2.3595
  493MOL0     H66499   4.580  10.835   7.272 -1.1484 -0.5465  1.2367
  493MOL0     H66500   4.695  10.604   7.323  0.0960 -0.2675 -0.8117
  493MOL0     H66501   4.610  10.549   7.170 -1.0438  0.6440 -2.2255
  493MOL0     H66502   4.843  10.757   7.185  2.3003 -2.4691 -0.8144
  493MOL0     H66503   4.741  10.720   7.039 -2.8883 -1.8221 -0.1814
  493MOL0     H66504   4.927  10.549   7.202  2.3122  2.1448 -0.5724
  493MOL0     H66505   4.813  10.487   7.072 -0.5534  0.6775 -0.4495
  493MOL0     H66506   5.101  10.727   7.138 -2.4761  3.8880 -0.4962
  493MOL0     H66507   5.279  10.784   6.800 -0.7425 -2.2852  0.1054
  493MOL0     H66508   5.244  10.856   6.954 -2.0870  0.2325 -1.6383
  493MOL0     H66509   5.380  10.672   7.072 -1.3520 -1.0144  0.2222
  493MOL0     H66510   5.412  10.601   6.918 -0.8041 -1.9122  3.1734
  493MOL0     H66511   5.517  10.893   6.980 -1.9747 -0.2440 -0.1531
  493MOL0     H66512   5.535  10.798   6.834  0.7716  1.4403 -0.9678
  493MOL0     H66513   5.726  10.791   6.998  0.7007  0.3136  1.8176
  493MOL0     H66514   5.661  10.630   6.970  0.9969  1.1176  0.9957
  493MOL0     H66515   5.780  10.922   7.172  0.8789  1.5132  0.4737
  493MOL0     H66516   5.755  11.119   7.313 -1.0380  1.6975 -0.0259
  493MOL0     H66517   5.284  11.312   7.583 -1.3061 -0.4041  0.4488
  493MOL0     H66518   5.236  11.510   7.734  0.8589  1.8063  0.6085
  493MOL0     H66519   5.490  11.553   8.091  1.6562  1.3749  1.1238
  493MOL0     H66520   5.494  11.693   7.983 -0.4498  4.3646  3.4864
  493MOL0     H66521   5.436  11.765   8.201  0.8853 -1.7200  0.6366
  493MOL0     H66522   5.291  11.787   8.094 -0.8500  1.4326  2.2196
  493MOL0     H66523   5.374  11.557   8.280  2.4514  2.0218 -0.2784
  493MOL0     H66524   5.281  11.679   8.355 -0.4092 -0.2382  0.6204
  493MOL0     H66525   5.181  11.494   8.119  0.3695 -0.9443  1.7200
  493MOL0     H66526   5.090  11.635   8.153 -0.6901 -3.6349 -3.9432
  493MOL0     H66527   5.043  11.557   8.391  0.0003  0.3806 -0.2952
  493MOL0     H66528   5.114  11.398   8.337  0.8431  1.0607 -0.4798
  493MOL0     H66529   4.875  11.533   8.210  2.1397  1.2647 -1.2064
  493MOL0     H66530   4.973  11.388   8.146  1.9342  2.6087 -1.7597
  493MOL0     H66531   4.833  11.378   8.417 -0.1325  2.1637 -1.4843
  493MOL0     H66532   4.927  11.252   8.352 -0.4549 -0.6779  1.7944
  493MOL0     H66533   4.660  11.366   8.240 -0.1032 -0.0719 -0.9805
  493MOL0     H66534   4.766  11.279   8.126  0.9163  1.7034 -0.7328
  493MOL0     H66535   5.563  11.406   7.987  1.4995 -1.8538 -0.3778
  493MOL0     H66536   5.632  11.230   7.827 -0.0751  0.8451  1.7631
  493MOL0     H66537   5.384  10.956   7.470 -1.3629 -3.1678 -2.3823
  493MOL0     H66538   5.395  10.773   7.314  0.4831 -1.5598  2.0138
  493MOL0     H66539   3.878  11.075   7.422  2.0614  2.0601 -0.0768
  493MOL0     H66540   3.758  11.240   7.546  1.5553  0.0896 -1.9544
  493MOL0     H66541   3.673  11.480   7.895 -0.1907  1.5840  0.2872
  493MOL0     H66542   3.579  11.638   8.043  0.8401 -0.3909  2.3653
  493MOL0     H66543   3.135  11.615   8.153  1.3063 -2.3200 -0.5979
  493MOL0     H66544   3.218  11.688   8.008  2.0627  1.1261  0.2758
  493MOL0     H66545   3.272  11.879   8.124  0.5467  1.9842  3.4673
  493MOL0     H66546   3.255  11.802   8.276 -2.3815 -0.9945  1.7672
  493MOL0     H66547   3.064  11.968   8.235  1.6735 -0.0976  0.8533
  493MOL0     H66548   3.014  11.798   8.268 -0.8322 -1.3861 -2.1773
  493MOL0     H66549   3.046  11.908   7.988  1.1672 -0.6649  0.1476
  493MOL0     H66550   2.932  11.777   8.038 -1.9411  0.8855  0.2285
  493MOL0     H66551   2.716  12.105   8.190 -2.2360 -1.0997 -0.1369
  493MOL0     H66552   3.236  11.385   8.093  1.5250  0.7010  1.9468
  493MOL0     H66553   3.208  11.188   8.011  0.8665 -1.3559 -0.4259
  493MOL0     H66554   3.282  11.148   7.850  0.1674  1.3112 -0.1365
  493MOL0     H66555   3.354  11.094   7.999  0.2623 -1.8669 -2.2692
  494MOL0     O66556   5.666   4.548   2.182  0.0025  0.0967  0.1109
  494MOL0     C66557   5.689   4.425   2.158  0.2028 -0.2230 -0.2186
  494MOL0     O66558   5.595   4.332   2.131  0.1385  0.3122  0.8988
  494MOL0     C66559   5.466   4.365   2.154  1.0080 -0.4395 -0.8824
  494MOL0     C66560   5.428   4.394   2.281 -0.9857  0.6838  0.9963
  494MOL0     C66561   5.290   4.409   2.307  0.2933  0.1129  0.5748
  494MOL0     C66562   5.196   4.417   2.206  0.0310  0.2425  0.4053
  494MOL0     O66563   5.055   4.421   2.223  0.2039  0.4721  0.1452
  494MOL0     C66564   5.004   4.432   2.357 -0.6494 -0.1942 -0.3181
  494MOL0     C66565   5.017   4.576   2.408 -0.2207 -0.1872 -0.3839
  494MOL0     C66566   4.930   4.684   2.338  0.1867 -0.2888 -0.6071
  494MOL0     C66567   4.784   4.648   2.358  0.5425  0.5407  0.0426
  494MOL0     C66568   4.698   4.768   2.296 -0.7002  0.3640 -0.8301
  494MOL0     C66569   4.542   4.752   2.290 -0.1766  0.4671 -0.4127
  494MOL0     C66570   4.499   4.781   2.431  0.2793  0.6555 -0.1147
  494MOL0     C66571   4.379   4.685   2.465  0.0738 -0.0535  0.1220
  494MOL0     N66572   4.417   4.548   2.463  0.3463 -0.1547  0.0828
  494MOL0     C66573   4.466   4.475   2.568 -0.1793  0.0388  0.0337
  494MOL0     C66574   4.413   4.349   2.552 -0.1768  0.2420  0.3791
  494MOL0     C66575   4.436   4.230   2.645  0.0824  0.0365 -0.4432
  494MOL0     C66576   4.569   4.160   2.623  0.0248 -0.5425 -0.0486
  494MOL0     C66577   4.590   4.103   2.484  0.2890  0.0886 -0.2691
  494MOL0     C66578   4.738   4.065   2.457  0.2635 -0.4884 -0.1809
  494MOL0     O66579   4.805   3.981   2.558 -0.0449  0.2227  0.5944
  494MOL0     C66580   4.936   3.942   2.550  0.2398 -0.2163 -0.2709
  494MOL0     C66581   4.979   3.867   2.658 -0.3861  0.4809 -0.1653
  494MOL0     C66582   5.112   3.818   2.656 -0.1689 -0.9737  0.6407
  494MOL0     C66583   5.205   3.872   2.567  0.9816  1.0302 -0.5584
  494MOL0     C66584   5.349   3.840   2.595 -0.4301 -1.0250  0.3786
  494MOL0     O66585   5.390   3.799   2.717 -0.8618  0.0365  0.1572
  494MOL0     C66586   5.525   3.808   2.756  0.2641 -0.6401 -0.1246
  494MOL0     C66587   5.609   3.914   2.726 -0.2077  0.4087 -0.0576
  494MOL0     C66588   5.745   3.917   2.760 -0.1322  0.3968 -0.3326
  494MOL0     C66589   5.798   3.821   2.852  0.5026 -0.4817  0.0654
  494MOL0     O66590   5.925   3.825   2.913  0.0707 -0.0854  0.0982
  494MOL0     C66591   6.005   3.938   2.880  0.0838  0.6188  0.4981
  494MOL0     C66592   6.082   3.903   2.755 -0.7689  0.1170  0.5024
  494MOL0     C66593   6.224   3.962   2.772  0.6714  0.1335  0.3699
  494MOL0     C66594   6.294   3.975   2.629 -0.2083 -0.2981  0.1465
  494MOL0     C66595   6.439   3.927   2.639 -0.1032  0.2436  0.1496
  494MOL0     C66596   6.502   3.923   2.497 -0.1929 -0.0958  0.3365
  494MOL0     C66597   6.643   3.883   2.511 -0.6343 -0.0095  0.0737
  494MOL0     C66598   6.739   3.991   2.543 -0.5225 -0.6038  0.1917
  494MOL0    Cl66599   6.902   3.926   2.580  0.4752  0.3996  0.1514
  494MOL0     C66600   5.709   3.721   2.890  0.4936  0.4356  0.5897
  494MOL0     C66601   5.576   3.710   2.840 -1.1100  0.3091 -0.4268
  494MOL0     O66602   5.428   3.880   2.502  0.7392  0.0267 -0.7658
  494MOL0     C66603   5.162   3.956   2.464 -0.0459 -0.6063 -0.4351
  494MOL0     C66604   5.030   3.998   2.454  0.5135  0.9951 -0.4670
  494MOL0     N66605   4.330   4.333   2.446 -0.1480  0.1108 -0.1034
  494MOL0     N66606   4.349   4.451   2.395 -0.3883 -0.4730  0.1313
  494MOL0     C66607   5.239   4.400   2.075 -0.1329 -1.1978 -0.1871
  494MOL0     C66608   5.371   4.373   2.050 -0.5942 -0.1899  0.2675
  494MOL0     C66609   5.829   4.381   2.171 -0.2926  0.3409  0.2343
  494MOL0     C66610   5.868   4.288   2.271 -0.1862 -0.3055 -1.5576
  494MOL0     C66611   6.002   4.263   2.285  1.1986  0.3860  0.5866
  494MOL0     C66612   6.100   4.333   2.215  0.9492 -0.5574  0.3373
  494MOL0     O66613   6.225   4.283   2.222 -0.7561 -0.4458 -0.7076
  494MOL0     C66614   6.324   4.378   2.249 -0.7931 -0.6350 -0.0250
  494MOL0     C66615   6.428   4.316   2.332 -0.0200  0.3187  0.8402
  494MOL0     C66616   6.520   4.426   2.383  0.0524 -0.1593  0.2282
  494MOL0     C66617   6.627   4.371   2.477 -0.5977  0.1239 -0.4146
  494MOL0     C66618   6.568   4.315   2.600 -0.1286 -0.0545 -0.4430
  494MOL0     C66619   6.515   4.270   2.701  0.9328 -0.7644  1.1048
  494MOL0     C66620   6.061   4.439   2.138 -0.3063  0.2038  0.3701
  494MOL0     C66621   5.924   4.461   2.111 -0.0744 -0.6830  0.2081
  494MOL0     C66622   5.890   4.589   2.024  0.4194  0.5439 -0.6927
  494MOL0     H66623   5.499   4.391   2.363 -2.2120  2.1899  2.1671
  494MOL0     H66624   5.259   4.424   2.410 -1.6083  4.3462 -0.3964
  494MOL0     H66625   4.901   4.394   2.356  0.4461 -3.5818  0.6654
  494MOL0     H66626   5.049   4.360   2.426 -1.0371 -0.6599 -0.5379
  494MOL0     H66627   5.119   4.612   2.392 -0.6968  3.3143  2.9273
  494MOL0     H66628   5.003   4.589   2.515  1.6799 -1.8783  0.1371
  494MOL0     H66629   4.961   4.685   2.233  0.9813 -0.9656 -0.3928
  494MOL0     H66630   4.945   4.788   2.366 -0.4550 -0.0663 -1.0822
  494MOL0     H66631   4.758   4.556   2.305 -2.5683  0.7033  1.0779
  494MOL0     H66632   4.758   4.632   2.463 -3.7274  0.3823 -0.8564
  494MOL0     H66633   4.730   4.855   2.353 -0.3890 -1.0285  1.2422
  494MOL0     H66634   4.737   4.795   2.197 -1.2571  1.0912 -0.8598
  494MOL0     H66635   4.486   4.816   2.221 -3.4768 -2.7156 -0.9604
  494MOL0     H66636   4.511   4.652   2.258  1.4959  0.5700 -2.6913
  494MOL0     H66637   4.455   4.881   2.431 -0.0806  0.5036 -0.8479
  494MOL0     H66638   4.568   4.768   2.515 -2.4470  1.1737  2.3634
  494MOL0     H66639   4.331   4.712   2.559 -1.7712  0.0781 -0.7986
  494MOL0     H66640   4.303   4.702   2.388  0.9572  2.6981 -0.2625
  494MOL0     H66641   4.528   4.513   2.649 -0.9284  1.8381 -0.1850
  494MOL0     H66642   4.431   4.264   2.749 -0.3366 -0.8519 -0.1641
  494MOL0     H66643   4.352   4.161   2.635  1.1090 -1.2899 -0.2027
  494MOL0     H66644   4.652   4.228   2.643 -1.4735  0.8253  1.8511
  494MOL0     H66645   4.585   4.077   2.693  0.5276  0.8211  1.5089
  494MOL0     H66646   4.566   4.181   2.410  0.8627 -1.1251 -1.7685
  494MOL0     H66647   4.526   4.015   2.477  0.8655 -0.2193 -2.1807
  494MOL0     H66648   4.796   4.158   2.451 -1.3064  0.9988  3.9981
  494MOL0     H66649   4.735   4.019   2.357 -3.1699  0.9586 -0.8838
  494MOL0     H66650   4.914   3.839   2.741  0.4582 -1.1335 -0.0158
  494MOL0     H66651   5.147   3.757   2.739  3.4625  2.8672  2.3263
  494MOL0     H66652   5.573   4.000   2.671 -1.3967  0.6257  1.0169
  494MOL0     H66653   5.794   4.008   2.726 -1.0180  0.0038 -2.9215
  494MOL0     H66654   5.948   4.031   2.883 -0.0817  0.5073  0.8279
  494MOL0     H66655   6.069   3.940   2.969 -1.1441  1.6512  1.3924
  494MOL0     H66656   6.073   3.794   2.749 -3.8060  0.2499  1.0441
  494MOL0     H66657   6.041   3.966   2.676  0.9429  1.6277  0.7545
  494MOL0     H66658   6.218   4.058   2.823  1.1325  0.3408  0.0393
  494MOL0     H66659   6.289   3.903   2.837  0.2357  0.3374  0.9988
  494MOL0     H66660   6.291   4.080   2.598  0.5219  0.5391  2.6193
  494MOL0     H66661   6.244   3.909   2.557 -1.1598 -0.8359  1.2491
  494MOL0     H66662   6.446   3.823   2.674  2.7012  0.4790  0.4684
  494MOL0     H66663   6.495   3.995   2.703  3.0327 -1.7652 -0.2709
  494MOL0     H66664   6.445   3.844   2.447  1.1450 -0.3542 -0.8377
  494MOL0     H66665   6.480   4.008   2.432 -0.0301  0.2671  0.7556
  494MOL0     H66666   6.691   3.841   2.422  2.6771  1.4855  0.9759
  494MOL0     H66667   6.645   3.807   2.590 -0.0008  1.8214  1.9290
  494MOL0     H66668   6.739   4.049   2.450  0.3293 -2.8162 -1.2588
  494MOL0     H66669   6.705   4.055   2.625  3.1040  2.9338 -0.7297
  494MOL0     H66670   5.744   3.644   2.958 -1.7921 -0.1933  1.1163
  494MOL0     H66671   5.510   3.628   2.864 -0.6437 -0.2939 -1.1551
  494MOL0     H66672   5.233   4.006   2.399 -0.6375  3.4284  1.7424
  494MOL0     H66673   4.991   4.063   2.376  1.1146 -3.4583 -4.9912
  494MOL0     H66674   5.164   4.403   1.996  1.4298  0.5584 -1.6991
  494MOL0     H66675   5.406   4.353   1.950  1.2893 -0.5592  0.9580
  494MOL0     H66676   5.795   4.223   2.320 -0.4188  2.6488  2.5671
  494MOL0     H66677   6.024   4.177   2.347  3.2604  0.5982  0.2162
  494MOL0     H66678   6.289   4.469   2.297 -0.4107 -0.5766  0.1440
  494MOL0     H66679   6.373   4.404   2.155 -2.1404 -0.3524 -0.6693
  494MOL0     H66680   6.495   4.254   2.271  0.9533 -0.1269  2.2832
  494MOL0     H66681   6.388   4.260   2.417  1.2210  0.2171  1.3893
  494MOL0     H66682   6.460   4.494   2.443  1.4229  0.7278  0.6463
  494MOL0     H66683   6.564   4.481   2.299 -1.2840  1.7329  0.7174
  494MOL0     H66684   6.704   4.305   2.437  1.3130  2.5095 -0.9181
  494MOL0     H66685   6.684   4.458   2.509 -1.8180  1.2366 -1.1384
  494MOL0     H66686   6.464   4.219   2.780  0.8313  0.0188  1.5540
  494MOL0     H66687   6.133   4.509   2.099 -2.4188  0.8523 -2.7387
  494MOL0     H66688   5.806   4.574   1.955 -0.5868 -1.9411  0.9303
  494MOL0     H66689   5.870   4.672   2.092  0.2519 -0.7091  0.8351
  494MOL0     H66690   5.979   4.609   1.963  0.9880  2.1981  0.6032
  495MOL0     O66691   7.096   4.394   3.062 -0.0223 -0.0947  0.6907
  495MOL0     C66692   7.038   4.302   3.006 -0.3182  0.1287  0.6090
  495MOL0     O66693   7.027   4.284   2.867  0.3487  0.5728 -0.1919
  495MOL0     C66694   7.101   4.359   2.782 -0.7561  0.0523  0.1393
  495MOL0     C66695   7.048   4.457   2.709  0.0239 -0.6220  0.0816
  495MOL0     C66696   7.123   4.541   2.639 -0.6880 -0.4046 -1.0032
  495MOL0     C66697   7.267   4.535   2.642  0.1577  0.2715  0.9787
  495MOL0     O66698   7.336   4.625   2.563  0.9413  0.9903  0.1341
  495MOL0     C66699   7.462   4.658   2.601  0.6206 -0.8101  0.0623
  495MOL0     C66700   7.561   4.569   2.523 -0.3504  0.2050 -0.0089
  495MOL0     C66701   7.702   4.620   2.539  0.3157  0.0435  0.4541
  495MOL0     C66702   7.804   4.515   2.493  0.7366 -0.9799  0.5739
  495MOL0     C66703   7.945   4.535   2.547 -0.2173  0.5437 -0.0583
  495MOL0     C66704   8.042   4.478   2.438 -0.2696 -0.6627  0.3406
  495MOL0     C66705   8.193   4.493   2.498  0.0183  1.2841 -0.8476
  495MOL0     C66706   8.298   4.485   2.384  0.1160  0.0638  0.7551
  495MOL0     N66707   8.436   4.463   2.420  0.1782  0.3412 -0.6130
  495MOL0     C66708   8.550   4.503   2.352  0.4612 -0.1935 -1.0032
  495MOL0     C66709   8.650   4.436   2.409 -0.0179  0.4147 -0.5808
  495MOL0     C66710   8.788   4.437   2.342 -0.0960  0.2431 -0.1743
  495MOL0     C66711   8.895   4.519   2.416 -0.7449 -0.5300  0.5317
  495MOL0     C66712   9.006   4.545   2.312 -0.8006 -0.6399  0.7538
  495MOL0     C66713   9.086   4.424   2.251 -0.2425 -0.3838 -0.2215
  495MOL0     O66714   9.203   4.457   2.178 -0.6092 -0.2035  0.4489
  495MOL0     C66715   9.320   4.460   2.246  0.2626  0.3703  0.3015
  495MOL0     C66716   9.439   4.484   2.181  0.6161  0.2705  0.4965
  495MOL0     C66717   9.564   4.479   2.238  0.0301 -1.0317 -0.8542
  495MOL0     C66718   9.572   4.478   2.377 -0.1134  0.3519 -0.7527
  495MOL0     C66719   9.705   4.473   2.446  0.1269 -0.1152  0.0821
  495MOL0     O66720   9.822   4.488   2.373  0.1867  0.3724  0.4833
  495MOL0     C66721   9.928   4.537   2.437  0.0667  0.4273 -0.8670
  495MOL0     C66722   9.934   4.664   2.495 -0.0046  0.3369 -0.0178
  495MOL0     C66723  10.058   4.718   2.539  0.0203  0.4137  0.4875
  495MOL0     C66724  10.177   4.639   2.534  0.2152  0.6738  0.1132
  495MOL0     O66725  10.295   4.680   2.585 -1.0243  0.4418 -0.1171
  495MOL0     C66726  10.332   4.817   2.572  0.2544  0.1846  0.3364
  495MOL0     C66727  10.478   4.831   2.635 -0.6260 -0.6653 -0.2966
  495MOL0     C66728  10.524   4.975   2.604  0.0353 -0.3465 -0.1202
  495MOL0     C66729  10.603   4.977   2.479 -0.2393  0.5026 -1.0296
  495MOL0     C66730  10.623   5.121   2.432  0.3174  0.3689  0.7178
  495MOL0     C66731  10.664   5.131   2.280  0.0631 -0.3434  0.0269
  495MOL0     C66732  10.811   5.093   2.252 -1.1295 -0.1312 -0.2782
  495MOL0     C66733  10.861   5.135   2.111  0.1460 -0.1176 -0.8367
  495MOL0    Cl66734  11.036   5.117   2.100  0.0718 -0.1757  0.4939
  495MOL0     C66735  10.160   4.503   2.496 -0.8795 -0.0371 -0.5954
  495MOL0     C66736  10.042   4.456   2.441 -0.0017 -0.3185 -0.2652
  495MOL0     O66737   9.699   4.485   2.572 -0.7171 -0.2693 -0.4894
  495MOL0     C66738   9.451   4.456   2.455 -0.1714  0.0407  0.3331
  495MOL0     C66739   9.330   4.434   2.384 -0.6224 -0.0679  0.2034
  495MOL0     N66740   8.596   4.355   2.511 -1.3861  0.5120  0.2713
  495MOL0     N66741   8.478   4.390   2.532 -0.1242 -0.1659  0.5804
  495MOL0     C66742   7.336   4.431   2.716  0.2726  0.2185  0.3348
  495MOL0     C66743   7.242   4.343   2.783  0.0199 -0.3069  0.0379
  495MOL0     C66744   6.990   4.187   3.098  0.0439 -0.0199  0.8524
  495MOL0     C66745   7.044   4.184   3.227 -0.4031  0.5774  0.8735
  495MOL0     C66746   6.996   4.087   3.323 -0.0576 -0.1751  0.0165
  495MOL0     C66747   6.882   4.013   3.305 -0.9579  0.1326 -0.1457
  495MOL0     O66748   6.839   3.942   3.414  0.0640 -0.4057  0.4415
  495MOL0     C66749   6.736   3.842   3.399 -0.2251  0.2839  0.0352
  495MOL0     C66750   6.598   3.900   3.397  0.3284  0.6745 -0.0202
  495MOL0     C66751   6.477   3.793   3.395  0.1067  0.4521  0.3385
  495MOL0     C66752   6.337   3.845   3.377 -0.6281 -0.5934  0.8069
  495MOL0     C66753   6.325   3.907   3.242  0.4710 -0.0001 -0.2088
  495MOL0     C66754   6.307   3.946   3.132 -0.0310 -0.5492  0.4084
  495MOL0     C66755   6.821   4.023   3.180  0.7111  0.6202  0.1037
  495MOL0     C66756   6.874   4.107   3.075  0.3024  0.2203 -0.2756
  495MOL0     C66757   6.792   4.113   2.948 -0.6600  0.5145  0.1570
  495MOL0     H66758   6.941   4.472   2.714  0.2298  2.0140 -1.8343
  495MOL0     H66759   7.083   4.629   2.591  1.0567  1.0963  0.1245
  495MOL0     H66760   7.475   4.763   2.572 -0.3807 -0.5428  0.5466
  495MOL0     H66761   7.482   4.648   2.708 -0.6609  1.2726  0.5583
  495MOL0     H66762   7.532   4.560   2.418 -0.4587  0.0392  0.0343
  495MOL0     H66763   7.556   4.472   2.572  0.8249  0.5055  0.7356
  495MOL0     H66764   7.728   4.646   2.642  1.4951 -2.0150  0.7325
  495MOL0     H66765   7.705   4.706   2.471 -2.4380  0.1897  0.4158
  495MOL0     H66766   7.772   4.420   2.535 -1.7105 -0.2470  0.5245
  495MOL0     H66767   7.802   4.506   2.384  0.5888  1.1777  0.3431
  495MOL0     H66768   7.956   4.640   2.573 -2.8475  1.3192 -1.6622
  495MOL0     H66769   7.957   4.468   2.633 -0.0938 -0.6726 -0.9859
  495MOL0     H66770   8.023   4.371   2.423 -3.4342 -0.0333 -1.0633
  495MOL0     H66771   8.042   4.529   2.342  2.3448 -1.3509 -0.0864
  495MOL0     H66772   8.206   4.415   2.573 -0.6014  1.0212 -1.0089
  495MOL0     H66773   8.199   4.596   2.536  1.3725 -0.0717  3.1879
  495MOL0     H66774   8.272   4.407   2.312  0.8374 -1.3922  2.0196
  495MOL0     H66775   8.290   4.574   2.322  2.3938 -0.5587 -0.5591
  495MOL0     H66776   8.555   4.570   2.267 -1.8711  0.5329 -0.6665
  495MOL0     H66777   8.820   4.332   2.341 -2.1237 -0.4162 -0.5251
  495MOL0     H66778   8.777   4.462   2.236  1.7162  0.4209 -0.3435
  495MOL0     H66779   8.850   4.609   2.460 -2.4460 -0.1580 -1.7853
  495MOL0     H66780   8.940   4.457   2.494  0.1648  0.5250  0.8875
  495MOL0     H66781   9.073   4.610   2.369 -1.2775 -0.3864  1.0279
  495MOL0     H66782   8.966   4.604   2.229 -1.2403 -2.5972 -0.5110
  495MOL0     H66783   9.022   4.387   2.171  2.5562 -2.4029 -1.6912
  495MOL0     H66784   9.097   4.340   2.321 -0.7556  1.2578  1.9457
  495MOL0     H66785   9.434   4.499   2.074  0.3924  1.9139  0.6968
  495MOL0     H66786   9.651   4.494   2.176  0.5313  0.6595  0.1908
  495MOL0     H66787   9.844   4.714   2.528  0.9524  2.5228 -0.5192
  495MOL0     H66788  10.061   4.821   2.572 -0.0453  0.0752  1.5616
  495MOL0     H66789  10.335   4.843   2.466 -1.2708 -0.0747  0.2112
  495MOL0     H66790  10.259   4.878   2.626 -1.8974 -1.4401 -0.6282
  495MOL0     H66791  10.485   4.806   2.741  2.0792 -0.2927 -0.3218
  495MOL0     H66792  10.547   4.769   2.577  1.1507  0.4998  0.4715
  495MOL0     H66793  10.436   5.041   2.603 -1.5128 -2.2314 -2.9234
  495MOL0     H66794  10.587   5.011   2.685  0.1577  0.1281 -0.4225
  495MOL0     H66795  10.556   4.931   2.391  0.0745 -1.6484 -0.1289
  495MOL0     H66796  10.701   4.928   2.485 -0.8073 -0.4313  2.0653
  495MOL0     H66797  10.700   5.165   2.496 -1.0225 -0.2359  2.8708
  495MOL0     H66798  10.533   5.177   2.456  0.8374 -0.0374  4.1609
  495MOL0     H66799  10.608   5.056   2.224  0.8785  0.0986 -1.4306
  495MOL0     H66800  10.619   5.226   2.249 -0.7588 -0.6413  0.2754
  495MOL0     H66801  10.841   4.990   2.272  3.4179  1.1727  0.8000
  495MOL0     H66802  10.875   5.146   2.323 -0.5630 -1.2106  0.0333
  495MOL0     H66803  10.819   5.068   2.036  0.0633 -1.0963  0.0563
  495MOL0     H66804  10.824   5.237   2.094 -0.2349  0.3177  2.0076
  495MOL0     H66805  10.251   4.447   2.516 -1.6374 -1.0673 -0.0041
  495MOL0     H66806  10.045   4.352   2.407 -0.8541 -1.0974  1.8782
  495MOL0     H66807   9.452   4.433   2.561  0.5531 -1.6230  0.0054
  495MOL0     H66808   9.243   4.428   2.448  0.5240 -1.7608  1.6777
  495MOL0     H66809   7.442   4.443   2.738  0.2073  1.5886 -0.0124
  495MOL0     H66810   7.289   4.264   2.841  4.0723  1.4163 -0.5814
  495MOL0     H66811   7.127   4.251   3.251 -0.0025  0.2556  0.4111
  495MOL0     H66812   7.042   4.076   3.421 -1.2232 -1.5291  0.4422
  495MOL0     H66813   6.746   3.757   3.467 -1.9407 -2.9619 -3.4086
  495MOL0     H66814   6.744   3.795   3.301 -2.1517 -1.4953  0.6522
  495MOL0     H66815   6.584   3.974   3.318 -0.8021  0.8678  0.3398
  495MOL0     H66816   6.590   3.961   3.488 -0.5433 -0.7299  0.8874
  495MOL0     H66817   6.472   3.735   3.487  1.9038 -1.0289 -0.4374
  495MOL0     H66818   6.502   3.720   3.318  2.4320  0.7434  0.7435
  495MOL0     H66819   6.272   3.756   3.376 -0.1645 -0.9358  0.8465
  495MOL0     H66820   6.300   3.906   3.460  0.4107  1.9572 -0.5244
  495MOL0     H66821   6.281   3.981   3.034 -1.7304 -2.0273  0.2853
  495MOL0     H66822   6.729   3.970   3.156  0.8791 -0.2253  1.2290
  495MOL0     H66823   6.759   4.214   2.920  0.7492  1.0308  0.2658
  495MOL0     H66824   6.860   4.068   2.874  0.3578  1.3554  0.5512
  495MOL0     H66825   6.699   4.058   2.957 -1.0912  1.5830  3.1617
  496MOL0     O66826  10.065   9.141   8.722  0.2054 -0.2241  0.0643
  496MOL0     C66827  10.137   9.217   8.785  0.4318  0.8733 -0.5465
  496MOL0     O66828  10.096   9.329   8.850  0.0132  0.4238  0.7729
  496MOL0     C66829   9.964   9.354   8.851  0.0036 -0.8430  0.2627
  496MOL0     C66830   9.886   9.300   8.950 -0.4278  0.9451 -0.5386
  496MOL0     C66831   9.746   9.316   8.949  0.3078 -0.2499 -0.0352
  496MOL0     C66832   9.681   9.378   8.837  0.4031 -0.1579 -0.9244
  496MOL0     O66833   9.548   9.386   8.841  0.7427  0.1051 -0.3709
  496MOL0     C66834   9.488   9.513   8.883  0.5310 -0.3863  0.6952
  496MOL0     C66835   9.438   9.501   9.028 -0.4944  0.1623 -0.3603
  496MOL0     C66836   9.330   9.394   9.064  0.0049 -0.3509 -0.1471
  496MOL0     C66837   9.197   9.397   8.981 -0.7086 -1.0863 -0.2397
  496MOL0     C66838   9.087   9.350   9.072  0.5572 -0.0164 -0.3501
  496MOL0     C66839   9.036   9.455   9.175  0.2205  0.1584  0.3798
  496MOL0     C66840   8.906   9.425   9.250 -0.3173  0.3057 -0.3566
  496MOL0     C66841   8.925   9.321   9.355  0.0826  0.0651 -0.6350
  496MOL0     N66842   8.996   9.357   9.484  0.2907 -0.5071  0.7796
  496MOL0     C66843   9.131   9.392   9.503 -0.1324  0.5371  0.7062
  496MOL0     C66844   9.156   9.379   9.630 -0.0388 -0.6986 -0.5077
  496MOL0     C66845   9.283   9.395   9.713  0.7829  0.2798  1.0599
  496MOL0     C66846   9.387   9.289   9.685  0.0989 -0.0891 -0.7049
  496MOL0     C66847   9.473   9.316   9.549 -0.4978  0.2332  0.3023
  496MOL0     C66848   9.554   9.446   9.538  0.3201 -0.0160 -0.4666
  496MOL0     O66849   9.656   9.439   9.433  0.6301  0.0247 -1.1685
  496MOL0     C66850   9.777   9.381   9.458 -0.0182  0.5451 -0.6854
  496MOL0     C66851   9.821   9.298   9.568 -0.3464 -0.2101  0.5801
  496MOL0     C66852   9.946   9.234   9.577  0.0576  0.3442 -0.2711
  496MOL0     C66853  10.037   9.264   9.469  0.5761 -0.6393 -0.1270
  496MOL0     C66854  10.166   9.201   9.469 -0.7512  0.0054 -0.4592
  496MOL0     O66855  10.238   9.216   9.350  0.3231 -0.5181 -0.6730
  496MOL0     C66856  10.368   9.171   9.356  0.4062  1.3750  0.6786
  496MOL0     C66857  10.458   9.188   9.456  0.3027  0.4951 -0.4124
  496MOL0     C66858  10.594   9.145   9.437 -0.0011  1.6458  0.6241
  496MOL0     C66859  10.632   9.065   9.319  0.3336  0.3993 -0.1415
  496MOL0     O66860  10.750   9.009   9.291 -0.6432 -0.4478  0.4188
  496MOL0     C66861  10.803   8.912   9.385 -1.3539  0.4032 -0.1773
  496MOL0     C66862  10.951   8.913   9.366  0.0319 -0.4564 -0.6155
  496MOL0     C66863  11.012   8.812   9.453  0.3789  0.3585 -0.5382
  496MOL0     C66864  11.165   8.838   9.428  0.1107  0.5548  0.1560
  496MOL0     C66865  11.233   8.726   9.501 -0.8083 -0.8370 -0.9587
  496MOL0     C66866  11.381   8.745   9.471  0.7362 -0.6219  0.0494
  496MOL0     C66867  11.479   8.663   9.551 -0.0396 -0.2123  0.1900
  496MOL0     C66868  11.431   8.516   9.559 -0.3969  0.6410 -1.3466
  496MOL0    Cl66869  11.549   8.415   9.646 -0.3544  0.1797 -0.1075
  496MOL0     C66870  10.536   9.048   9.221 -0.4447 -0.3517  0.6016
  496MOL0     C66871  10.405   9.097   9.241 -0.1615  1.4123  0.0151
  496MOL0     O66872  10.200   9.140   9.571  0.4354  0.1067 -0.3701
  496MOL0     C66873  10.004   9.350   9.365  0.3476  0.0164  0.3776
  496MOL0     C66874   9.872   9.403   9.364 -0.0241  0.9630 -0.1701
  496MOL0     N66875   9.036   9.349   9.694  0.5552 -0.2080  0.3758
  496MOL0     N66876   8.934   9.343   9.606 -0.2489  0.4832  0.3285
  496MOL0     C66877   9.759   9.438   8.736  0.9670  0.0942 -0.0322
  496MOL0     C66878   9.899   9.423   8.738  0.4283 -0.6450 -0.4152
  496MOL0     C66879  10.285   9.192   8.800  0.2568  0.5201 -0.2979
  496MOL0     C66880  10.359   9.275   8.891  0.5469  0.2483  0.1460
  496MOL0     C66881  10.494   9.251   8.914  0.1952  1.0092 -0.1047
  496MOL0     C66882  10.557   9.137   8.867  0.4972  0.0160 -0.4805
  496MOL0     O66883  10.687   9.113   8.885 -0.0263 -0.4120  0.3906
  496MOL0     C66884  10.770   9.198   8.966  0.0344 -0.8278  0.0688
  496MOL0     C66885  10.914   9.162   8.928 -0.8352 -0.5958  0.1831
  496MOL0     C66886  10.951   9.023   8.972 -0.3246  0.3118 -0.1524
  496MOL0     C66887  11.072   8.983   8.898  0.1614  0.1959  0.3254
  496MOL0     C66888  11.111   8.851   8.952  0.0803 -0.1060  0.1525
  496MOL0     C66889  11.132   8.741   8.995 -0.5387  0.3274  0.1237
  496MOL0     C66890  10.489   9.057   8.773 -0.5058  0.1345 -0.7546
  496MOL0     C66891  10.350   9.078   8.746 -0.4342 -0.1886 -0.0345
  496MOL0     C66892  10.281   8.979   8.645  0.0845 -0.7626  0.3451
  496MOL0     H66893   9.937   9.248   9.030 -2.7363  1.6430  1.5424
  496MOL0     H66894   9.685   9.289   9.035  0.2592  0.8824  0.2976
  496MOL0     H66895   9.555   9.599   8.873 -2.1900  1.8050  0.1534
  496MOL0     H66896   9.407   9.542   8.816  1.2951  2.0497  0.7553
  496MOL0     H66897   9.409   9.600   9.063  0.3077  0.7113 -1.2357
  496MOL0     H66898   9.526   9.492   9.092  0.1167  0.6356 -1.1220
  496MOL0     H66899   9.313   9.410   9.171 -1.2008  1.5777 -0.5743
  496MOL0     H66900   9.374   9.295   9.048 -2.2129 -1.3008 -0.8819
  496MOL0     H66901   9.185   9.501   8.949 -1.2541 -1.6011 -1.7591
  496MOL0     H66902   9.206   9.335   8.892 -1.8148  1.5030 -2.2742
  496MOL0     H66903   8.992   9.345   9.020 -0.7964 -0.8084  2.0186
  496MOL0     H66904   9.111   9.256   9.122  0.9669  1.1118  1.6955
  496MOL0     H66905   9.121   9.453   9.244  0.6296  0.7257 -0.0986
  496MOL0     H66906   9.030   9.555   9.131  1.2926 -0.1789 -0.6009
  496MOL0     H66907   8.822   9.412   9.182  0.5257  2.4444 -1.9266
  496MOL0     H66908   8.877   9.512   9.310 -1.3207  0.2631 -0.7695
  496MOL0     H66909   8.820   9.295   9.373 -0.3488  1.8638 -0.2956
  496MOL0     H66910   8.970   9.232   9.311 -0.2425 -0.5160  0.1688
  496MOL0     H66911   9.208   9.407   9.428  0.5150  0.4355  1.3371
  496MOL0     H66912   9.323   9.496   9.705 -0.1121  0.4962 -1.0407
  496MOL0     H66913   9.262   9.374   9.819  2.8147 -0.6019  1.3576
  496MOL0     H66914   9.452   9.287   9.773 -0.5945  1.0308 -0.1362
  496MOL0     H66915   9.333   9.194   9.675  0.6627 -0.1399 -5.3696
  496MOL0     H66916   9.411   9.318   9.459 -1.4588  1.2476  0.9630
  496MOL0     H66917   9.540   9.230   9.547  1.6479  1.8103 -0.2919
  496MOL0     H66918   9.610   9.476   9.627  2.9449 -0.3243 -1.9059
  496MOL0     H66919   9.484   9.529   9.526  0.1971  0.2113  1.5413
  496MOL0     H66920   9.743   9.283   9.642 -0.5155  2.4126  1.0424
  496MOL0     H66921   9.979   9.172   9.660 -1.4148 -0.4604 -0.2648
  496MOL0     H66922  10.427   9.237   9.548 -4.4064 -3.5886  0.6171
  496MOL0     H66923  10.667   9.168   9.514  0.4709  0.9235  0.4006
  496MOL0     H66924  10.774   8.927   9.489 -1.9959 -1.9697  0.0469
  496MOL0     H66925  10.755   8.815   9.368  0.8197 -0.3977 -2.3585
  496MOL0     H66926  10.977   8.903   9.261 -0.6192  1.7272 -1.0499
  496MOL0     H66927  10.983   9.013   9.397 -0.7837  0.0377 -1.3217
  496MOL0     H66928  10.987   8.821   9.559  3.0696  0.6162  0.1559
  496MOL0     H66929  10.974   8.716   9.417 -1.2226  1.3283 -1.5992
  496MOL0     H66930  11.188   8.941   9.458 -0.9771  1.0001 -0.4458
  496MOL0     H66931  11.191   8.834   9.322 -0.8609 -2.4828 -0.0455
  496MOL0     H66932  11.203   8.634   9.450  2.2182 -0.7995 -3.1096
  496MOL0     H66933  11.207   8.732   9.607  1.3891  0.3567 -0.4307
  496MOL0     H66934  11.405   8.714   9.369 -0.6390 -3.8551  0.5958
  496MOL0     H66935  11.402   8.852   9.478  0.5711 -0.6973  2.6029
  496MOL0     H66936  11.498   8.696   9.654  1.5769 -1.6249  0.3810
  496MOL0     H66937  11.580   8.660   9.509 -0.1381 -0.8329 -0.0098
  496MOL0     H66938  11.335   8.496   9.609  0.7182 -0.0550  0.6490
  496MOL0     H66939  11.414   8.486   9.456  2.6049  0.8797 -2.0113
  496MOL0     H66940  10.554   8.994   9.129 -2.0111  0.0015  0.0562
  496MOL0     H66941  10.335   9.093   9.158 -0.1427 -1.0866  0.0524
  496MOL0     H66942  10.067   9.377   9.281 -1.5818 -0.5722 -1.3499
  496MOL0     H66943   9.851   9.469   9.281  1.0929 -1.7698 -2.8244
  496MOL0     H66944   9.714   9.487   8.650  1.5651  0.7960  0.0431
  496MOL0     H66945   9.958   9.467   8.659  1.5448 -0.9983  0.2068
  496MOL0     H66946  10.319   9.354   8.954  0.6372 -0.4865  1.1538
  496MOL0     H66947  10.539   9.326   8.978 -2.6911  3.0506 -0.2751
  496MOL0     H66948  10.756   9.176   9.072 -1.7850 -3.1775 -0.5523
  496MOL0     H66949  10.737   9.302   8.962 -1.0703 -1.1715 -0.2411
  496MOL0     H66950  10.983   9.241   8.960 -1.1022 -0.9395  1.6833
  496MOL0     H66951  10.925   9.172   8.820 -1.3508  0.1824  0.1911
  496MOL0     H66952  10.869   8.953   8.954 -0.6288  0.5134  0.4062
  496MOL0     H66953  10.967   9.026   9.080 -1.9516  2.2662  0.0901
  496MOL0     H66954  11.048   8.986   8.792  0.0991 -0.8188  0.2995
  496MOL0     H66955  11.154   9.054   8.914  2.3344 -1.1705 -3.3201
  496MOL0     H66956  11.152   8.638   9.017  0.9827  0.4202 -0.6430
  496MOL0     H66957  10.546   8.970   8.741 -0.2455  1.1593 -3.2980
  496MOL0     H66958  10.350   8.911   8.596  1.3213 -0.8625  2.1172
  496MOL0     H66959  10.197   8.922   8.685 -0.0450 -2.6415 -2.3447
  496MOL0     H66960  10.233   9.044   8.571 -2.8798  0.4091  3.0331
  497MOL0     O66961  10.737  10.702   0.952 -0.3340  0.4230 -0.0077
  497MOL0     C66962  10.715  10.601   1.018 -0.0994  0.4767 -0.8829
  497MOL0     O66963  10.805  10.495   1.033  0.1477 -0.9808  0.6202
  497MOL0     C66964  10.920  10.502   0.967  0.0682 -0.4798 -0.2390
  497MOL0     C66965  10.924  10.519   0.819  0.0680 -0.6052  0.9049
  497MOL0     C66966  11.040  10.481   0.748 -0.2782 -0.0337 -0.0832
  497MOL0     C66967  11.158  10.456   0.811 -0.1042  1.0420 -0.0719
  497MOL0     O66968  11.255  10.417   0.727 -0.3140  0.3036  0.6390
  497MOL0     C66969  11.353  10.328   0.772 -0.1329  0.2282 -0.0961
  497MOL0     C66970  11.427  10.287   0.652 -0.3382 -0.1140  0.4643
  497MOL0     C66971  11.553  10.207   0.678 -0.9557 -0.0924  0.3725
  497MOL0     C66972  11.623  10.147   0.556  0.4855 -0.1266 -0.3764
  497MOL0     C66973  11.746  10.058   0.600  0.0883 -0.1139  0.9814
  497MOL0     C66974  11.873  10.157   0.609  0.1337 -0.5348  0.1991
  497MOL0     C66975  12.004  10.082   0.642  0.3398  1.3558 -0.2144
  497MOL0     C66976  12.125  10.182   0.621  0.1321  0.5411 -0.2887
  497MOL0     N66977  12.256  10.111   0.629  0.2669  0.0734  0.0759
  497MOL0     C66978  12.315  10.065   0.747  0.1955  0.6554 -0.0392
  497MOL0     C66979  12.429  10.014   0.692 -0.6019  0.1737 -0.8781
  497MOL0     C66980  12.542   9.954   0.773 -0.2067 -1.1613  0.0026
  497MOL0     C66981  12.540   9.802   0.790 -0.4590 -0.4529  0.4464
  497MOL0     C66982  12.685   9.754   0.821 -0.7182 -0.5560  0.3004
  497MOL0     C66983  12.681   9.603   0.828 -0.5033  0.3684 -0.0135
  497MOL0     O66984  12.757   9.570   0.940 -0.3762 -0.5807 -0.6181
  497MOL0     C66985  12.893   9.536   0.921 -0.2766 -0.0661 -0.1845
  497MOL0     C66986  12.965   9.497   1.037  0.0907  0.2080 -0.1356
  497MOL0     C66987  13.100   9.465   1.027 -0.2578 -0.0868  0.2061
  497MOL0     C66988  13.176   9.468   0.905  0.3343 -0.6233 -0.0699
  497MOL0     C66989  13.315   9.409   0.897 -0.3943 -0.2606 -0.4902
  497MOL0     O66990  13.359   9.329   0.997  0.8306 -0.7692  0.0479
  497MOL0     C66991  13.485   9.301   0.991  0.0236  0.0481  0.0486
  497MOL0     C66992  13.573   9.388   1.052 -0.4077 -0.2418 -0.3792
  497MOL0     C66993  13.712   9.359   1.054  0.0003  0.0838 -0.2915
  497MOL0     C66994  13.768   9.252   0.977 -0.9606  0.3530  0.5423
  497MOL0     O66995  13.901   9.214   0.977 -0.0875  0.1811 -0.3735
  497MOL0     C66996  13.995   9.273   1.065 -0.2257  0.0851  0.0748
  497MOL0     C66997  14.131   9.227   1.016 -0.6243  1.5464  0.6507
  497MOL0     C66998  14.244   9.314   1.061 -0.1038  0.3892 -1.3381
  497MOL0     C66999  14.379   9.264   1.010 -0.7842  0.3901  0.3916
  497MOL0     C67000  14.499   9.354   1.043 -0.4553 -0.7719  0.2223
  497MOL0     C67001  14.497   9.505   0.983 -0.4043 -0.5264 -0.1458
  497MOL0     C67002  14.590   9.595   1.060 -0.6005 -0.2772 -0.0983
  497MOL0     C67003  14.619   9.715   0.986 -0.6913 -1.0532 -0.5935
  497MOL0    Cl67004  14.756   9.678   0.876 -0.0919 -0.1637  0.2666
  497MOL0     C67005  13.673   9.176   0.908  0.0518 -0.1705 -0.9612
  497MOL0     C67006  13.537   9.194   0.918  0.6569 -0.5240  0.5865
  497MOL0     O67007  13.372   9.432   0.791  0.0655 -0.7299  0.0402
  497MOL0     C67008  13.106   9.518   0.793 -0.0198  0.8129 -0.8756
  497MOL0     C67009  12.969   9.553   0.803 -0.1488  0.0855  0.0589
  497MOL0     N67010  12.422  10.011   0.558 -0.3531  0.4496  0.5684
  497MOL0     N67011  12.330  10.091   0.521 -0.7150 -0.0516 -0.1812
  497MOL0     C67012  11.163  10.452   0.950 -0.5220  0.7268  0.9562
  497MOL0     C67013  11.043  10.467   1.027 -0.0238 -0.4060  0.7551
  497MOL0     C67014  10.584  10.584   1.081 -1.0297 -1.0457  0.4505
  497MOL0     C67015  10.539  10.698   1.162 -0.6823  0.5734  0.1569
  497MOL0     C67016  10.417  10.692   1.222  0.0738 -0.9373  0.4120
  497MOL0     C67017  10.330  10.587   1.194 -0.0862  0.5188 -0.4745
  497MOL0     O67018  10.203  10.598   1.246 -0.1313  0.5393 -0.1588
  497MOL0     C67019  10.098  10.492   1.227  0.1411  0.6988  0.7141
  497MOL0     C67020  10.124  10.377   1.322 -0.3718 -0.0013 -0.3917
  497MOL0     C67021  10.093  10.422   1.468 -0.1085 -0.2076  0.4201
  497MOL0     C67022  10.077  10.306   1.574 -0.7094 -0.7495 -0.3128
  497MOL0     C67023  10.074  10.369   1.714 -0.5158 -0.0228  0.3500
  497MOL0     C67024  10.058  10.420   1.823  0.6800  0.5040  0.2407
  497MOL0     C67025  10.377  10.475   1.126 -0.6327  0.0144  0.5545
  497MOL0     C67026  10.500  10.472   1.064 -0.3863  0.2712 -0.3847
  497MOL0     C67027  10.526  10.348   0.987 -0.1766  0.0501  0.1415
  497MOL0     H67028  10.831  10.534   0.766  0.7891 -1.0755 -0.5292
  497MOL0     H67029  11.033  10.483   0.640  2.8493  1.8408 -0.3581
  497MOL0     H67030  11.413  10.374   0.850 -1.8017  1.2569  0.6370
  497MOL0     H67031  11.306  10.240   0.816  0.8416 -0.2764 -0.0422
  497MOL0     H67032  11.455  10.380   0.601 -1.8358 -0.0339 -0.2662
  497MOL0     H67033  11.357  10.233   0.588 -2.9835  1.7890  1.5479
  497MOL0     H67034  11.533  10.122   0.745  1.0406 -2.5516 -1.9053
  497MOL0     H67035  11.632  10.270   0.718 -0.0495 -0.8633 -0.1484
  497MOL0     H67036  11.552  10.075   0.514  2.0896 -2.3252  0.4630
  497MOL0     H67037  11.647  10.208   0.468 -0.7585 -0.1255 -0.7388
  497MOL0     H67038  11.729  10.011   0.697 -0.8437  0.7760  1.2726
  497MOL0     H67039  11.751   9.984   0.519 -1.3896  2.3863 -1.5991
  497MOL0     H67040  11.880  10.211   0.515 -0.7414 -2.8244 -1.2598
  497MOL0     H67041  11.858  10.230   0.689  1.6495 -0.0464  0.0617
  497MOL0     H67042  12.019  10.007   0.563 -2.1905  0.4713  0.0763
  497MOL0     H67043  12.013  10.026   0.735  0.6377  0.8097 -0.5637
  497MOL0     H67044  12.115  10.242   0.530  0.2945 -1.4504 -1.6975
  497MOL0     H67045  12.136  10.247   0.708  0.2448 -1.8349  1.5797
  497MOL0     H67046  12.277  10.059   0.848  0.2220  1.1372  0.0004
  497MOL0     H67047  12.638   9.980   0.727 -1.4434 -0.2130 -2.1977
  497MOL0     H67048  12.536  10.010   0.867  0.4914 -2.0698  0.6053
  497MOL0     H67049  12.468   9.777   0.868  1.2212  1.2182  2.6595
  497MOL0     H67050  12.518   9.761   0.691  5.1002  1.0778 -1.8606
  497MOL0     H67051  12.723   9.805   0.911  1.4103 -0.7469 -0.4553
  497MOL0     H67052  12.747   9.784   0.736 -0.8629 -0.2337  0.3043
  497MOL0     H67053  12.715   9.550   0.739 -0.5486 -0.6637  0.5576
  497MOL0     H67054  12.575   9.575   0.841 -1.1794  3.3252  1.7360
  497MOL0     H67055  12.906   9.497   1.129 -2.9073 -1.4664 -1.8844
  497MOL0     H67056  13.159   9.429   1.110 -1.4204 -1.4373  0.4756
  497MOL0     H67057  13.536   9.464   1.120  0.8730 -2.1160  2.5870
  497MOL0     H67058  13.765   9.429   1.118 -1.7008 -1.5321  3.1410
  497MOL0     H67059  13.982   9.381   1.066 -3.0232 -0.1559  2.0085
  497MOL0     H67060  13.978   9.237   1.167  1.6486  0.3047  0.5108
  497MOL0     H67061  14.134   9.125   1.054 -2.3166  1.5242  0.8344
  497MOL0     H67062  14.135   9.213   0.908  0.2453 -0.9202  0.9436
  497MOL0     H67063  14.235   9.409   1.007  3.3887  1.0785 -0.9234
  497MOL0     H67064  14.253   9.322   1.169  1.8024 -0.4794 -1.4019
  497MOL0     H67065  14.374   9.260   0.901  4.0451  0.7034 -0.0382
  497MOL0     H67066  14.402   9.162   1.041  4.0417  0.4692 -2.0626
  497MOL0     H67067  14.589   9.310   0.998 -1.2598 -0.4160 -1.8517
  497MOL0     H67068  14.508   9.369   1.151 -0.7112  4.3493 -0.2355
  497MOL0     H67069  14.533   9.497   0.880  1.1807 -0.9336  0.4005
  497MOL0     H67070  14.399   9.553   0.982  0.0754  0.5374  1.1141
  497MOL0     H67071  14.679   9.537   1.089  2.7078  2.9828 -2.7692
  497MOL0     H67072  14.537   9.624   1.151 -1.3291 -1.5669 -0.0876
  497MOL0     H67073  14.528   9.745   0.933  1.4231  2.5858 -2.6183
  497MOL0     H67074  14.643   9.796   1.055 -1.8865 -3.0892  2.4311
  497MOL0     H67075  13.718   9.093   0.853 -1.1990 -1.4811 -0.0613
  497MOL0     H67076  13.469   9.129   0.865 -1.0291  3.0204 -2.0276
  497MOL0     H67077  13.153   9.529   0.696  1.4530 -0.5615 -0.3541
  497MOL0     H67078  12.929   9.578   0.705  0.6566 -1.0070 -0.5741
  497MOL0     H67079  11.253  10.416   0.998  0.7944 -1.1752 -2.5774
  497MOL0     H67080  11.042  10.447   1.134 -1.8112 -0.1755  0.8196
  497MOL0     H67081  10.600  10.786   1.179 -0.7473  1.3083 -2.8237
  497MOL0     H67082  10.377  10.766   1.291  0.8603  0.8578 -0.9744
  497MOL0     H67083  10.098  10.463   1.122 -1.0755 -1.3553  1.2315
  497MOL0     H67084  10.009  10.553   1.249  1.7079  3.7521 -0.7235
  497MOL0     H67085  10.231  10.359   1.311  0.0087  0.6698  1.7758
  497MOL0     H67086  10.066  10.288   1.296 -1.5528  0.6443 -0.0430
  497MOL0     H67087   9.998  10.475   1.474  0.5537  1.2039 -0.8439
  497MOL0     H67088  10.179  10.483   1.496 -0.3239  0.2425  0.1086
  497MOL0     H67089   9.991  10.241   1.559 -0.3126 -1.6429  1.0882
  497MOL0     H67090  10.170  10.249   1.569 -0.2014  0.1399 -1.5916
  497MOL0     H67091  10.044  10.443   1.927 -2.3689  1.1856 -0.2088
  497MOL0     H67092  10.308  10.394   1.104 -0.2125  0.4914 -3.1633
  497MOL0     H67093  10.446  10.334   0.914 -0.0739 -3.6437  0.5319
  497MOL0     H67094  10.624  10.362   0.941 -0.2332  0.9014  0.2522
  497MOL0     H67095  10.531  10.271   1.064  0.5795 -0.6643 -0.6026
  498MOL0     O67096   0.004   5.193   8.331 -0.2423 -0.3643  0.7823
  498MOL0     C67097  -0.077   5.183   8.240  0.1565  0.4994 -0.5008
  498MOL0     O67098  -0.058   5.209   8.114 -0.9941  0.1042 -0.3681
  498MOL0     C67099   0.061   5.266   8.074 -0.0934  0.2256 -0.6877
  498MOL0     C67100   0.105   5.401   8.093  0.0761 -0.2321 -0.0200
  498MOL0     C67101   0.230   5.447   8.058  0.3425 -0.0113  0.4358
  498MOL0     C67102   0.317   5.358   8.002 -0.1251  0.2255  0.1772
  498MOL0     O67103   0.439   5.407   7.961 -0.3007  0.3668  0.2683
  498MOL0     C67104   0.556   5.323   7.984  0.4316  0.3677 -0.3094
  498MOL0     C67105   0.678   5.414   7.957  0.3276  0.2991  0.1423
  498MOL0     C67106   0.686   5.547   8.043 -0.4138  0.1254 -0.0351
  498MOL0     C67107   0.818   5.602   8.021 -0.4568 -0.2499 -0.1187
  498MOL0     C67108   0.820   5.697   7.894  0.0132 -0.5488  0.4893
  498MOL0     C67109   0.964   5.749   7.865 -0.4580 -0.0045  0.5098
  498MOL0     C67110   0.981   5.844   7.751 -0.9509  0.9268 -0.2936
  498MOL0     C67111   0.892   5.971   7.774 -0.8932 -0.2068 -0.1058
  498MOL0     N67112   0.932   6.041   7.897  0.4229 -0.3516 -0.4872
  498MOL0     C67113   1.046   6.112   7.909  0.5100  0.0186 -0.3648
  498MOL0     C67114   1.059   6.150   8.043  1.1842 -0.4722  0.4683
  498MOL0     C67115   1.176   6.215   8.117  0.4190 -0.5880  0.4719
  498MOL0     C67116   1.271   6.101   8.158 -0.3067  1.5022  0.1522
  498MOL0     C67117   1.199   6.001   8.250 -0.7612 -0.3526  0.0584
  498MOL0     C67118   1.297   5.886   8.289  0.2265  0.2435 -0.6222
  498MOL0     O67119   1.349   5.832   8.166 -0.4868 -0.0853  0.3115
  498MOL0     C67120   1.459   5.740   8.179 -1.0131 -0.2676  0.3135
  498MOL0     C67121   1.489   5.677   8.304 -0.4925  0.2798 -0.6444
  498MOL0     C67122   1.600   5.590   8.301 -0.6443 -0.4860  0.2868
  498MOL0     C67123   1.688   5.564   8.197  0.5207 -0.8895  0.5015
  498MOL0     C67124   1.804   5.478   8.228  0.7902  0.1728  0.0395
  498MOL0     O67125   1.880   5.452   8.126 -0.7061 -0.1255  1.0269
  498MOL0     C67126   2.008   5.411   8.148 -0.4523 -1.0655  0.0325
  498MOL0     C67127   2.053   5.320   8.059 -0.7314  0.1952 -0.7987
  498MOL0     C67128   2.186   5.294   8.037  0.2926  0.2516  0.8798
  498MOL0     C67129   2.278   5.340   8.128  0.8397 -0.5348  0.2150
  498MOL0     O67130   2.410   5.319   8.117 -0.0739 -0.1383  0.2780
  498MOL0     C67131   2.462   5.240   8.009 -0.6548  0.0903 -0.6411
  498MOL0     C67132   2.609   5.221   8.029  0.5742 -1.1508 -1.3939
  498MOL0     C67133   2.686   5.147   7.918 -0.0006 -0.3881 -0.8387
  498MOL0     C67134   2.641   4.999   7.896  0.2771  1.0202  0.2104
  498MOL0     C67135   2.753   4.918   7.812 -0.4380 -0.3831  1.2158
  498MOL0     C67136   2.887   4.894   7.897 -0.1766  0.1078  0.4719
  498MOL0     C67137   2.980   4.818   7.805 -0.5006 -0.3618 -0.6450
  498MOL0     C67138   3.111   4.784   7.874  0.0500  0.3551 -0.1252
  498MOL0    Cl67139   3.195   4.924   7.943 -1.0803 -0.0691  0.0927
  498MOL0     C67140   2.231   5.422   8.231  0.1073 -0.3795  0.3327
  498MOL0     C67141   2.097   5.462   8.246 -0.3408  0.3309 -0.5485
  498MOL0     O67142   1.815   5.427   8.342  0.2121 -0.0800 -0.0172
  498MOL0     C67143   1.658   5.638   8.074 -0.8945  1.2666 -0.3231
  498MOL0     C67144   1.546   5.725   8.065 -0.2786 -0.9760 -0.6980
  498MOL0     N67145   0.939   6.108   8.107 -0.8241  0.3510 -0.4829
  498MOL0     N67146   0.877   6.030   8.025 -0.7044 -0.9160 -0.4505
  498MOL0     C67147   0.282   5.221   7.986 -0.3964 -0.4315  0.5232
  498MOL0     C67148   0.156   5.180   8.021  0.3537  0.4702  0.7306
  498MOL0     C67149  -0.215   5.148   8.280  0.6318  0.6789 -0.1210
  498MOL0     C67150  -0.323   5.174   8.187 -0.2039 -0.1350 -0.1856
  498MOL0     C67151  -0.454   5.131   8.208  0.2994 -0.3273 -0.9376
  498MOL0     C67152  -0.488   5.082   8.331  0.1033  0.1255  0.1972
  498MOL0     O67153  -0.610   5.046   8.372 -0.5156  0.2483 -0.1416
  498MOL0     C67154  -0.719   5.089   8.299 -0.5208  0.7133 -0.6038
  498MOL0     C67155  -0.847   5.039   8.385 -0.1124 -0.3454 -0.3433
  498MOL0     C67156  -0.980   5.103   8.347 -0.2801 -0.1007 -1.1278
  498MOL0     C67157  -1.101   5.070   8.437 -0.2539  0.1529  0.2114
  498MOL0     C67158  -1.129   4.922   8.454  0.1849 -0.0539  0.3071
  498MOL0     C67159  -1.152   4.805   8.474  0.4260  0.6386  0.3887
  498MOL0     C67160  -0.386   5.057   8.422  0.3076  0.6042 -0.2803
  498MOL0     C67161  -0.256   5.085   8.400 -0.9251  1.1998  0.7479
  498MOL0     C67162  -0.166   5.026   8.504  0.1111 -0.4909 -1.0451
  498MOL0     H67163   0.037   5.467   8.147 -1.6424 -0.6141 -1.6197
  498MOL0     H67164   0.250   5.552   8.075 -0.7531 -0.0105  2.0289
  498MOL0     H67165   0.563   5.274   8.081  1.5596 -3.5835 -2.1832
  498MOL0     H67166   0.561   5.239   7.913 -2.1185 -1.5134  1.5284
  498MOL0     H67167   0.667   5.445   7.853  2.6064  1.0896  0.0946
  498MOL0     H67168   0.767   5.354   7.974  0.2411 -0.1912 -1.0526
  498MOL0     H67169   0.685   5.524   8.150  0.1521  4.0307  0.9838
  498MOL0     H67170   0.606   5.619   8.021 -1.9001 -1.2353  0.7445
  498MOL0     H67171   0.846   5.660   8.109 -0.7971  2.4330 -1.6827
  498MOL0     H67172   0.883   5.515   8.005 -0.2998 -0.3502  0.9770
  498MOL0     H67173   0.786   5.652   7.800  0.9486  1.0977 -0.6935
  498MOL0     H67174   0.745   5.775   7.910  1.0319  0.9390 -1.5093
  498MOL0     H67175   1.005   5.793   7.957 -2.0790  1.2213  0.6939
  498MOL0     H67176   1.030   5.663   7.847 -0.0621  0.5463 -0.7800
  498MOL0     H67177   0.945   5.796   7.659 -0.5445  1.0363 -0.5109
  498MOL0     H67178   1.087   5.870   7.739 -0.7476  0.7191  0.9116
  498MOL0     H67179   0.902   6.031   7.683 -0.1056 -0.8657 -0.4604
  498MOL0     H67180   0.788   5.938   7.781 -0.4692 -1.4011  0.8938
  498MOL0     H67181   1.121   6.128   7.832 -0.7303  0.1419 -1.5906
  498MOL0     H67182   1.222   6.295   8.058 -1.9896  1.2905  0.9716
  498MOL0     H67183   1.127   6.263   8.203  1.6160  1.3396  0.1394
  498MOL0     H67184   1.306   6.057   8.065 -0.6522  1.0727  0.2215
  498MOL0     H67185   1.361   6.135   8.210  2.5029 -2.4872 -1.6303
  498MOL0     H67186   1.116   5.946   8.206 -0.8077  1.3099 -2.1083
  498MOL0     H67187   1.151   6.049   8.336 -0.7157  1.8109 -1.0565
  498MOL0     H67188   1.249   5.808   8.348 -1.7946  1.8542  0.0321
  498MOL0     H67189   1.369   5.938   8.352 -0.1200  3.5393 -2.6900
  498MOL0     H67190   1.440   5.706   8.397 -1.1374  2.2502 -1.5344
  498MOL0     H67191   1.620   5.537   8.394  0.5044 -0.4267  0.0832
  498MOL0     H67192   1.975   5.293   7.989 -1.7846  2.3867 -0.5347
  498MOL0     H67193   2.211   5.233   7.951 -1.8182  1.7401 -0.9060
  498MOL0     H67194   2.407   5.146   8.006 -1.8625  0.7503 -0.2639
  498MOL0     H67195   2.453   5.293   7.914  2.4068  1.9649  0.0039
  498MOL0     H67196   2.659   5.316   8.048  0.5811 -1.4220  0.0119
  498MOL0     H67197   2.628   5.155   8.114  2.6603  0.0554 -0.8678
  498MOL0     H67198   2.670   5.200   7.824 -0.8204 -2.5655 -1.9950
  498MOL0     H67199   2.791   5.160   7.947  0.1782 -2.1010 -0.6547
  498MOL0     H67200   2.551   4.991   7.834  0.8619 -2.1189 -0.3764
  498MOL0     H67201   2.616   4.945   7.987 -1.7860 -0.0630 -0.9232
  498MOL0     H67202   2.780   4.969   7.719 -1.5078  0.0594  1.1356
  498MOL0     H67203   2.711   4.819   7.793 -4.1498  1.2848 -0.1726
  498MOL0     H67204   2.919   4.992   7.932  1.5744 -0.5682  0.8982
  498MOL0     H67205   2.874   4.833   7.987  0.4088  0.8413  1.0669
  498MOL0     H67206   3.005   4.870   7.713  1.7626 -2.9182 -1.6134
  498MOL0     H67207   2.943   4.721   7.771 -1.1508 -0.1414 -0.5790
  498MOL0     H67208   3.095   4.715   7.957  0.7941 -3.2715 -2.7553
  498MOL0     H67209   3.177   4.738   7.800  0.5741  1.1117 -0.1338
  498MOL0     H67210   2.302   5.460   8.304 -0.4066 -0.4963  0.8933
  498MOL0     H67211   2.062   5.540   8.312 -3.0394 -0.0051 -1.4406
  498MOL0     H67212   1.720   5.609   7.991  0.8827 -0.8131  1.6144
  498MOL0     H67213   1.516   5.771   7.971 -0.6636 -1.2461 -0.7096
  498MOL0     H67214   0.341   5.140   7.944  1.6635  1.3121 -0.1069
  498MOL0     H67215   0.128   5.075   8.010  0.2440  0.6276 -0.7373
  498MOL0     H67216  -0.304   5.211   8.087 -1.6751 -0.2675 -0.5444
  498MOL0     H67217  -0.535   5.134   8.136 -1.5386 -0.2594  1.0207
  498MOL0     H67218  -0.725   5.048   8.198 -2.0948  1.5940 -0.8961
  498MOL0     H67219  -0.717   5.198   8.290  1.1553  0.7312 -0.4327
  498MOL0     H67220  -0.831   5.071   8.488 -3.1839 -0.6163  0.3040
  498MOL0     H67221  -0.852   4.930   8.384 -1.6125 -0.3275 -2.7752
  498MOL0     H67222  -1.000   5.063   8.247  0.5041 -0.5765 -1.1119
  498MOL0     H67223  -0.970   5.211   8.333 -1.7060 -0.0484 -1.8750
  498MOL0     H67224  -1.087   5.112   8.537 -0.9873  2.0988 -0.4511
  498MOL0     H67225  -1.192   5.117   8.399  1.4080  2.8963 -0.7235
  498MOL0     H67226  -1.170   4.701   8.491 -0.3420  0.5830 -0.7077
  498MOL0     H67227  -0.424   5.011   8.512 -1.3753  1.3976 -0.5316
  498MOL0     H67228  -0.107   5.106   8.550 -0.0718 -0.8489 -0.1546
  498MOL0     H67229  -0.215   4.972   8.586 -0.5330 -1.2133 -1.8815
  498MOL0     H67230  -0.088   4.962   8.462  1.3209 -1.5467  2.4362
  499MOL0     O67231   5.490   3.554   8.331  0.0592 -0.0648 -0.3056
  499MOL0     C67232   5.429   3.560   8.436  0.0900 -1.0442  0.3225
  499MOL0     O67233   5.472   3.512   8.551 -0.2884  0.0112  0.8808
  499MOL0     C67234   5.598   3.480   8.559  0.4916 -0.0400  0.5770
  499MOL0     C67235   5.685   3.588   8.581  0.7111 -0.1591 -1.3701
  499MOL0     C67236   5.823   3.571   8.594 -0.1902 -0.2163 -0.0747
  499MOL0     C67237   5.880   3.449   8.585  0.2748 -0.7674 -0.0709
  499MOL0     O67238   6.020   3.439   8.592  0.0326 -0.7164  0.2230
  499MOL0     C67239   6.076   3.318   8.632 -0.3091 -0.1575  0.5093
  499MOL0     C67240   6.021   3.272   8.769 -0.2980  0.1432 -0.6152
  499MOL0     C67241   6.132   3.193   8.850  0.6301 -0.4390 -0.1541
  499MOL0     C67242   6.223   3.297   8.929  0.8071 -0.4559  1.1167
  499MOL0     C67243   6.363   3.232   8.962  0.3771  0.4095 -0.6666
  499MOL0     C67244   6.484   3.244   8.865 -0.1346 -1.3092 -0.5885
  499MOL0     C67245   6.618   3.177   8.908  0.1388 -0.5135 -0.8451
  499MOL0     C67246   6.667   3.228   9.043 -0.1104 -0.2304  0.7979
  499MOL0     N67247   6.704   3.375   9.046  0.2437 -0.7739  0.4286
  499MOL0     C67248   6.621   3.476   9.092 -0.1626  0.1017  0.3573
  499MOL0     C67249   6.689   3.588   9.059  0.2305  0.1232  0.6287
  499MOL0     C67250   6.636   3.728   9.082 -0.0703  0.7947 -0.6489
  499MOL0     C67251   6.740   3.843   9.090 -0.3500  0.5977  0.7428
  499MOL0     C67252   6.775   3.898   8.952  0.2294 -0.2881 -0.0144
  499MOL0     C67253   6.896   4.003   8.931  0.9365 -0.1832  0.0214
  499MOL0     O67254   7.017   3.929   8.950 -0.0203 -0.5337 -0.0955
  499MOL0     C67255   7.131   3.999   8.981 -0.4663  0.4509  0.6257
  499MOL0     C67256   7.252   3.952   8.922 -0.2802 -0.2031  0.3428
  499MOL0     C67257   7.374   3.992   8.968 -0.8722 -0.6859 -0.3781
  499MOL0     C67258   7.379   4.104   9.067 -0.1553 -0.1494  1.2707
  499MOL0     C67259   7.503   4.185   9.084  0.3474 -0.1147 -0.2457
  499MOL0     O67260   7.615   4.152   9.002  0.6731 -0.5721 -0.5042
  499MOL0     C67261   7.732   4.203   9.031 -0.4544 -0.2053 -0.0345
  499MOL0     C67262   7.753   4.331   9.076  0.0298  0.0800 -0.3768
  499MOL0     C67263   7.885   4.382   9.075  0.5192  0.5558  0.8483
  499MOL0     C67264   7.995   4.296   9.053  0.4986 -0.2163 -0.1127
  499MOL0     O67265   8.122   4.338   9.077  0.1664  0.0107  0.0570
  499MOL0     C67266   8.149   4.474   9.113  0.3525  0.1996 -0.5062
  499MOL0     C67267   8.297   4.480   9.137 -0.1400 -0.4936 -0.4732
  499MOL0     C67268   8.334   4.614   9.198  0.2731 -0.0800  0.3389
  499MOL0     C67269   8.483   4.625   9.203  0.2844 -0.5508 -0.4614
  499MOL0     C67270   8.537   4.768   9.252  0.0565 -0.9688 -0.1329
  499MOL0     C67271   8.671   4.770   9.321 -0.2558 -0.1008  0.6628
  499MOL0     C67272   8.792   4.735   9.228  0.1483 -0.1658  0.5345
  499MOL0     C67273   8.924   4.729   9.298  0.0356 -0.1362 -0.5757
  499MOL0    Cl67274   8.998   4.871   9.367  0.1820  0.1403  0.1654
  499MOL0     C67275   7.971   4.164   9.009  0.0064  0.2269 -0.4994
  499MOL0     C67276   7.841   4.128   8.993 -0.0515  0.8903 -0.0066
  499MOL0     O67277   7.503   4.265   9.176 -0.0204 -0.1782 -0.9499
  499MOL0     C67278   7.263   4.159   9.112 -0.2686  0.2970  0.3385
  499MOL0     C67279   7.138   4.105   9.073  0.3324  0.0427  0.8828
  499MOL0     N67280   6.806   3.561   8.992 -1.1289  0.5014  0.0673
  499MOL0     N67281   6.814   3.433   8.980  1.2781  0.5372 -0.0901
  499MOL0     C67282   5.791   3.341   8.557  0.1518  0.3130 -0.5865
  499MOL0     C67283   5.656   3.352   8.535  0.0045 -0.3186 -0.4876
  499MOL0     C67284   5.304   3.639   8.444  0.2784 -0.5954 -0.5233
  499MOL0     C67285   5.221   3.606   8.546  0.2809  1.1050  0.3076
  499MOL0     C67286   5.101   3.656   8.573  0.2626  0.3013  0.7141
  499MOL0     C67287   5.055   3.757   8.484  0.7161 -0.5776 -0.0153
  499MOL0     O67288   4.935   3.811   8.520  0.2472  0.3294 -0.0699
  499MOL0     C67289   4.847   3.865   8.423 -0.4778  0.7726  1.2063
  499MOL0     C67290   4.797   3.765   8.308  0.5174 -0.4182  0.4557
  499MOL0     C67291   4.694   3.842   8.216 -0.5355  0.5742 -0.3589
  499MOL0     C67292   4.669   3.751   8.095 -0.1171 -0.5907 -0.5122
  499MOL0     C67293   4.597   3.628   8.137 -0.1246 -0.0882  0.1535
  499MOL0     C67294   4.584   3.515   8.170  0.6263  0.0329 -0.2199
  499MOL0     C67295   5.142   3.810   8.382  0.7431 -0.1111 -0.1910
  499MOL0     C67296   5.267   3.747   8.363  0.0501  0.1108  1.2241
  499MOL0     C67297   5.355   3.794   8.248  1.3940  0.1935  0.1891
  499MOL0     H67298   5.648   3.689   8.583 -0.0923 -0.3785 -3.1838
  499MOL0     H67299   5.875   3.664   8.617 -1.8410  0.0029  3.4047
  499MOL0     H67300   6.062   3.246   8.551  0.4364 -1.6403  1.6570
  499MOL0     H67301   6.185   3.331   8.629 -0.5681  3.1850 -3.0221
  499MOL0     H67302   5.943   3.198   8.751  0.8424 -1.9260  2.1742
  499MOL0     H67303   5.978   3.359   8.821  0.6969 -0.9024  2.1440
  499MOL0     H67304   6.196   3.130   8.788  2.1162  2.3324 -1.6184
  499MOL0     H67305   6.089   3.121   8.920  1.2099 -1.5231 -0.8961
  499MOL0     H67306   6.241   3.387   8.870  3.6629 -0.9482  1.0758
  499MOL0     H67307   6.170   3.314   9.023  0.4556 -1.4570  1.1130
  499MOL0     H67308   6.383   3.246   9.069  1.8819  0.0599 -0.8783
  499MOL0     H67309   6.334   3.127   8.966  1.3666  0.0440 -2.1995
  499MOL0     H67310   6.450   3.209   8.767  1.9368  1.6964 -2.5630
  499MOL0     H67311   6.508   3.345   8.830 -2.5313 -0.4307  0.0599
  499MOL0     H67312   6.697   3.180   8.833 -0.2684 -3.2316 -1.4764
  499MOL0     H67313   6.585   3.074   8.923 -0.0320 -0.2710  0.5321
  499MOL0     H67314   6.591   3.210   9.120  2.4685  1.4030  3.9508
  499MOL0     H67315   6.756   3.169   9.067 -0.4149 -1.8029 -1.5480
  499MOL0     H67316   6.521   3.487   9.133  0.1985 -1.3483  1.7157
  499MOL0     H67317   6.582   3.740   8.987 -0.6473 -2.8077 -0.9125
  499MOL0     H67318   6.564   3.723   9.164  0.8937 -1.2099  0.1533
  499MOL0     H67319   6.699   3.925   9.150  1.0362 -0.0879  2.6975
  499MOL0     H67320   6.834   3.812   9.136 -1.4421 -1.1031  1.9255
  499MOL0     H67321   6.690   3.956   8.916  0.7086 -0.2187 -1.0699
  499MOL0     H67322   6.803   3.817   8.885 -0.2014 -1.5163  1.2272
  499MOL0     H67323   6.884   4.091   8.995 -4.3739  0.9026 -1.9371
  499MOL0     H67324   6.901   4.033   8.826  2.0262 -1.5740 -0.3535
  499MOL0     H67325   7.252   3.871   8.850 -2.1911 -1.0719  1.2538
  499MOL0     H67326   7.463   3.958   8.917  1.5959  0.4412  2.8069
  499MOL0     H67327   7.668   4.393   9.101  0.6079 -0.0899  2.3068
  499MOL0     H67328   7.904   4.487   9.096  1.6261  1.6441 -4.2234
  499MOL0     H67329   8.121   4.541   9.031 -0.4555 -1.4532 -1.6498
  499MOL0     H67330   8.095   4.506   9.203  0.3479 -0.6228 -0.2022
  499MOL0     H67331   8.341   4.394   9.189  0.2067 -1.8264 -2.8045
  499MOL0     H67332   8.341   4.477   9.037 -0.3829 -0.4863 -0.5808
  499MOL0     H67333   8.287   4.686   9.130  1.1442 -0.3177 -0.5387
  499MOL0     H67334   8.288   4.619   9.297  0.3513  0.0801  0.3667
  499MOL0     H67335   8.522   4.606   9.102  1.1488 -0.8476 -0.0777
  499MOL0     H67336   8.527   4.558   9.277  0.5163  2.6048  2.5541
  499MOL0     H67337   8.468   4.814   9.323  1.7123 -0.2768  1.0955
  499MOL0     H67338   8.544   4.846   9.175 -0.6831  2.3231  2.8350
  499MOL0     H67339   8.693   4.873   9.350 -2.9292  1.7095 -2.9693
  499MOL0     H67340   8.685   4.709   9.411  3.0422 -1.5517 -0.6327
  499MOL0     H67341   8.793   4.810   9.149 -3.0095 -0.6176 -0.0616
  499MOL0     H67342   8.771   4.644   9.170  1.1043  2.0876 -3.7220
  499MOL0     H67343   8.913   4.659   9.382  0.4955  0.7013  0.1964
  499MOL0     H67344   8.992   4.694   9.220 -0.9837  0.6831 -1.8606
  499MOL0     H67345   8.054   4.094   8.998  0.6312  0.6189  1.2983
  499MOL0     H67346   7.822   4.025   8.963  0.1079  0.8575  0.0033
  499MOL0     H67347   7.265   4.247   9.176 -0.6531 -0.5489  1.5575
  499MOL0     H67348   7.051   4.150   9.119  1.0176  0.6818  1.5623
  499MOL0     H67349   5.830   3.241   8.542 -2.7319 -1.0539  0.2296
  499MOL0     H67350   5.588   3.269   8.519 -1.6670  0.4853  1.8187
  499MOL0     H67351   5.249   3.533   8.623  0.3069 -1.1884 -1.7564
  499MOL0     H67352   5.046   3.615   8.658 -1.2966  0.0745 -0.3635
  499MOL0     H67353   4.882   3.955   8.373  3.7436 -0.0238  2.3076
  499MOL0     H67354   4.766   3.899   8.488 -1.9339  0.2888 -0.3025
  499MOL0     H67355   4.741   3.685   8.357 -0.0552  0.1979  0.8226
  499MOL0     H67356   4.881   3.724   8.251  0.6781  4.0278 -3.1137
  499MOL0     H67357   4.734   3.934   8.171  1.9193 -0.5062 -0.5329
  499MOL0     H67358   4.598   3.854   8.268  0.0530  0.0547  0.8941
  499MOL0     H67359   4.601   3.801   8.024 -2.1688  3.9812  4.0065
  499MOL0     H67360   4.759   3.720   8.043  0.4367 -1.3907  0.8694
  499MOL0     H67361   4.564   3.419   8.212 -3.1866  1.1578  0.9536
  499MOL0     H67362   5.113   3.890   8.315  3.6551 -0.1144 -1.5967
  499MOL0     H67363   5.459   3.806   8.279  1.0929 -2.4150  2.6054
  499MOL0     H67364   5.360   3.716   8.172  1.2958 -1.3264  1.6692
  499MOL0     H67365   5.314   3.887   8.209 -0.0277  0.0036  1.1508
  500MOL0     O67366   8.490   5.672   2.404 -0.3340  0.7212 -0.3709
  500MOL0     C67367   8.428   5.568   2.432  0.1171 -0.4162  0.4074
  500MOL0     O67368   8.480   5.442   2.425  0.3322  0.6826  0.1414
  500MOL0     C67369   8.606   5.429   2.488  0.1007 -1.0327  0.3652
  500MOL0     C67370   8.621   5.472   2.621 -0.8720 -0.2647  0.1095
  500MOL0     C67371   8.737   5.455   2.696  0.1797  0.0455  0.4534
  500MOL0     C67372   8.850   5.412   2.635 -0.0313  0.0411 -0.1364
  500MOL0     O67373   8.968   5.390   2.700 -0.9708 -0.0194 -0.2445
  500MOL0     C67374   8.966   5.276   2.792 -0.4100  0.4378  0.2087
  500MOL0     C67375   9.099   5.279   2.873 -0.7124 -0.7713 -0.4082
  500MOL0     C67376   9.218   5.242   2.778 -0.0454  0.2061 -0.2403
  500MOL0     C67377   9.243   5.087   2.767  0.4230 -1.0611  0.2591
  500MOL0     C67378   9.333   5.048   2.648 -0.0237  0.3204  0.0590
  500MOL0     C67379   9.403   4.905   2.652  0.3221 -0.0595 -0.5876
  500MOL0     C67380   9.501   4.905   2.542 -0.4714 -0.4881  0.3442
  500MOL0     C67381   9.454   4.914   2.402 -0.2796  0.0720  0.4518
  500MOL0     N67382   9.569   4.962   2.320 -0.1623 -0.2608  0.6964
  500MOL0     C67383   9.679   4.896   2.294 -0.2684  1.4323  0.4477
  500MOL0     C67384   9.764   4.983   2.238 -0.3082 -0.2401  0.9041
  500MOL0     C67385   9.904   4.967   2.195 -0.5795  0.2389 -0.2351
  500MOL0     C67386   9.934   4.858   2.091 -0.3068  1.4384  0.8798
  500MOL0     C67387   9.977   4.725   2.156  0.1559 -0.3853  0.2538
  500MOL0     C67388  10.035   4.617   2.063  0.1247  0.1462 -0.4819
  500MOL0     O67389  10.150   4.652   1.992 -0.0556 -0.6348 -0.4364
  500MOL0     C67390  10.274   4.659   2.055  0.4669  0.6058  0.6791
  500MOL0     C67391  10.387   4.686   1.978 -0.2895 -0.7215 -0.1265
  500MOL0     C67392  10.514   4.710   2.024  0.1795  0.7044  0.1549
  500MOL0     C67393  10.545   4.674   2.155 -0.1355  0.2142 -0.6014
  500MOL0     C67394  10.681   4.674   2.204  0.0189 -1.5168  0.4529
  500MOL0     O67395  10.784   4.710   2.115  1.0125  0.8604 -0.1687
  500MOL0     C67396  10.918   4.706   2.147 -0.0569 -0.0126 -0.2911
  500MOL0     C67397  11.008   4.793   2.074  0.3742  0.6882 -0.7150
  500MOL0     C67398  11.141   4.796   2.101  0.1343  0.5499  0.9727
  500MOL0     C67399  11.190   4.705   2.196 -0.2799 -0.1290  0.1060
  500MOL0     O67400  11.327   4.679   2.224  0.1942 -0.1790  0.2349
  500MOL0     C67401  11.425   4.771   2.169 -0.6235  1.0075 -0.7784
  500MOL0     C67402  11.467   4.733   2.024  0.1028 -0.0014 -0.3715
  500MOL0     C67403  11.583   4.628   2.020 -0.2674 -0.1236 -0.5752
  500MOL0     C67404  11.626   4.599   1.874 -0.3664 -0.3136  0.1074
  500MOL0     C67405  11.708   4.470   1.859 -1.2738  0.2667  0.9040
  500MOL0     C67406  11.768   4.439   1.720  0.2916  0.1301  0.5620
  500MOL0     C67407  11.788   4.282   1.713  0.4189 -0.4574 -0.8606
  500MOL0     C67408  11.830   4.244   1.573 -0.5842 -0.5071  0.3733
  500MOL0    Cl67409  11.781   4.070   1.539 -0.1684  0.2101 -0.0895
  500MOL0     C67410  11.106   4.623   2.270  0.6268  0.1395 -0.1231
  500MOL0     C67411  10.968   4.619   2.244  0.6530 -0.0512 -0.0129
  500MOL0     O67412  10.696   4.661   2.323  0.5615  0.4024 -0.6078
  500MOL0     C67413  10.434   4.644   2.241  0.0419 -0.1901 -0.4111
  500MOL0     C67414  10.301   4.642   2.189 -0.1558 -0.0263  0.0301
  500MOL0     N67415   9.699   5.106   2.235 -0.8074 -0.1244 -0.4370
  500MOL0     N67416   9.580   5.096   2.278  0.7857 -0.0756  0.2371
  500MOL0     C67417   8.844   5.371   2.508  0.6362  0.8367 -0.0790
  500MOL0     C67418   8.721   5.361   2.440  0.4278  0.0338  0.5489
  500MOL0     C67419   8.280   5.584   2.477 -0.0744 -0.3273  0.3309
  500MOL0     C67420   8.230   5.468   2.524  0.9790 -0.0719  0.0648
  500MOL0     C67421   8.104   5.465   2.581  0.0228  0.2902  0.1215
  500MOL0     C67422   8.029   5.583   2.585 -0.5591 -0.3154 -0.8351
  500MOL0     O67423   7.910   5.573   2.660  0.0190 -0.6970  0.0103
  500MOL0     C67424   7.849   5.698   2.695 -0.5081 -0.2162 -0.3786
  500MOL0     C67425   7.744   5.695   2.798  0.4279  0.2086  0.7327
  500MOL0     C67426   7.615   5.624   2.761  0.6453 -0.7251  0.4482
  500MOL0     C67427   7.521   5.683   2.655  0.6048  0.2666  0.0614
  500MOL0     C67428   7.372   5.651   2.674 -0.6100  0.4434  0.4323
  500MOL0     C67429   7.258   5.646   2.670  0.4393 -0.7059 -0.1832
  500MOL0     C67430   8.083   5.700   2.519  0.4563 -0.3497 -0.0138
  500MOL0     C67431   8.205   5.699   2.462 -0.2065 -0.2290  0.7028
  500MOL0     C67432   8.249   5.834   2.399 -0.0557  0.3230  0.1127
  500MOL0     H67433   8.535   5.510   2.676  0.0960 -0.4332  1.8145
  500MOL0     H67434   8.741   5.463   2.804  1.6246  1.3563  0.3330
  500MOL0     H67435   8.880   5.284   2.859 -1.7447  0.5843 -1.4410
  500MOL0     H67436   8.951   5.181   2.740  0.2971 -0.0373  0.8709
  500MOL0     H67437   9.104   5.217   2.963  0.9291  0.9879  0.8072
  500MOL0     H67438   9.119   5.381   2.907  0.1657 -0.6982 -1.1093
  500MOL0     H67439   9.301   5.307   2.806 -0.9433  1.7037 -0.9411
  500MOL0     H67440   9.191   5.272   2.676 -3.1669  0.2053  0.5010
  500MOL0     H67441   9.290   5.052   2.859 -4.2661 -2.1691  2.5880
  500MOL0     H67442   9.144   5.039   2.763 -0.8634  1.4821 -1.5285
  500MOL0     H67443   9.279   5.059   2.554 -0.8673 -0.4157  0.4416
  500MOL0     H67444   9.415   5.121   2.656  1.1206 -1.0946  2.6260
  500MOL0     H67445   9.463   4.872   2.738  0.4916  0.9144 -0.3205
  500MOL0     H67446   9.323   4.831   2.639  1.1423 -0.5936 -2.9154
  500MOL0     H67447   9.560   4.814   2.557  4.0602  2.1600  0.4152
  500MOL0     H67448   9.569   4.989   2.563  0.2444 -0.7088 -0.9634
  500MOL0     H67449   9.412   4.819   2.369 -3.0898  0.3137  2.8980
  500MOL0     H67450   9.370   4.980   2.380  0.5119  0.8026 -0.4461
  500MOL0     H67451   9.713   4.796   2.319 -2.0664 -0.1153 -2.7418
  500MOL0     H67452   9.940   5.066   2.168 -1.5026  0.0905 -2.1479
  500MOL0     H67453   9.951   4.935   2.289 -0.0984  0.8742 -0.2524
  500MOL0     H67454   9.845   4.842   2.030 -0.4510 -0.1555  1.4570
  500MOL0     H67455  10.013   4.899   2.027  2.4790 -0.5977  2.7958
  500MOL0     H67456   9.889   4.686   2.208  1.9449 -2.1356  2.1846
  500MOL0     H67457  10.050   4.746   2.235  0.9530  0.0855 -0.5937
  500MOL0     H67458   9.959   4.607   1.985 -2.2894 -3.0297  1.9586
  500MOL0     H67459  10.046   4.526   2.123 -3.1405 -0.3210 -0.4074
  500MOL0     H67460  10.367   4.690   1.871 -2.3092  2.0784  0.2542
  500MOL0     H67461  10.591   4.749   1.958  0.1116  1.3594  0.4588
  500MOL0     H67462  10.972   4.867   2.003  1.3959  0.0989 -1.8739
  500MOL0     H67463  11.202   4.871   2.052  1.8156 -2.9062 -2.7526
  500MOL0     H67464  11.395   4.876   2.175  0.2861  1.3303 -1.4712
  500MOL0     H67465  11.511   4.748   2.234 -0.2356 -3.9946 -2.6142
  500MOL0     H67466  11.373   4.698   1.982 -1.2694  3.1060 -0.1432
  500MOL0     H67467  11.510   4.819   1.971 -0.5733  1.5175  1.4445
  500MOL0     H67468  11.670   4.675   2.065 -1.6657  2.6164 -0.5509
  500MOL0     H67469  11.542   4.541   2.074 -1.3035  0.6282 -0.1190
  500MOL0     H67470  11.695   4.667   1.824 -1.8543 -0.1662 -1.8840
  500MOL0     H67471  11.536   4.595   1.812 -0.7293 -1.0456  0.6647
  500MOL0     H67472  11.642   4.389   1.889  0.5261 -2.0071 -0.8963
  500MOL0     H67473  11.793   4.475   1.927  0.2198 -0.1668 -0.8368
  500MOL0     H67474  11.701   4.471   1.640 -1.3754 -2.9063  0.5924
  500MOL0     H67475  11.864   4.491   1.711  1.0845 -1.3328  0.3299
  500MOL0     H67476  11.689   4.244   1.739  0.1548 -1.1244 -2.7126
  500MOL0     H67477  11.865   4.248   1.783  1.1953  1.1208 -0.8912
  500MOL0     H67478  11.784   4.301   1.491 -0.7701 -1.8422 -0.4827
  500MOL0     H67479  11.937   4.266   1.560 -0.6563  0.2746  1.0710
  500MOL0     H67480  11.146   4.561   2.349 -3.0657 -1.3619  0.7788
  500MOL0     H67481  10.909   4.552   2.305  0.4076 -0.0250 -0.2217
  500MOL0     H67482  10.435   4.619   2.347  1.2125  0.7262 -0.1806
  500MOL0     H67483  10.220   4.627   2.260  1.1658  1.9350  2.1079
  500MOL0     H67484   8.933   5.344   2.452 -1.2491  1.2070 -3.5862
  500MOL0     H67485   8.696   5.303   2.352 -4.7185  0.1771  1.6145
  500MOL0     H67486   8.289   5.379   2.542 -0.4372 -1.3027 -1.1215
  500MOL0     H67487   8.072   5.379   2.638 -1.5653 -0.6851 -2.0672
  500MOL0     H67488   7.801   5.728   2.601  0.1827 -1.7974 -1.2699
  500MOL0     H67489   7.924   5.776   2.711 -0.4814  0.3186 -2.6854
  500MOL0     H67490   7.723   5.801   2.816 -0.5108  0.1444  0.1215
  500MOL0     H67491   7.789   5.644   2.883 -0.9023 -0.4088  1.0804
  500MOL0     H67492   7.561   5.614   2.855 -0.0796  0.4921  0.1809
  500MOL0     H67493   7.634   5.523   2.722 -1.1295 -1.1390  0.5733
  500MOL0     H67494   7.533   5.791   2.647  1.3680  0.0898 -1.8058
  500MOL0     H67495   7.559   5.660   2.555  2.1949 -1.3901  0.9758
  500MOL0     H67496   7.151   5.651   2.673  0.5048  3.0774  0.6700
  500MOL0     H67497   8.021   5.789   2.523 -1.0132 -1.3052 -0.9203
  500MOL0     H67498   8.279   5.834   2.294  0.9296  0.5764  0.3903
  500MOL0     H67499   8.168   5.908   2.405 -0.0644  0.4552 -1.3064
  500MOL0     H67500   8.337   5.873   2.449 -1.6012  3.8006  0.4445
  501MOL0     O67501   6.589   9.455   5.890 -0.2369  0.5572  0.5179
  501MOL0     C67502   6.615   9.519   5.785  0.2181 -1.1886 -0.8539
  501MOL0     O67503   6.740   9.580   5.768 -0.0567  0.0776  0.1028
  501MOL0     C67504   6.853   9.523   5.825  0.2230 -0.0961 -0.4066
  501MOL0     C67505   6.960   9.602   5.848  0.0547  0.1360  0.0310
  501MOL0     C67506   7.085   9.547   5.896  0.3999  0.1286  0.9456
  501MOL0     C67507   7.094   9.410   5.924 -0.2510 -0.5791 -0.2868
  501MOL0     O67508   7.213   9.362   5.974 -0.3337 -0.1572 -0.3891
  501MOL0     C67509   7.212   9.230   6.027 -0.8473 -0.3133 -0.2112
  501MOL0     C67510   7.354   9.192   6.059  0.3135  0.0198 -0.3753
  501MOL0     C67511   7.434   9.160   5.928 -0.2098 -0.8177  0.1453
  501MOL0     C67512   7.585   9.111   5.965 -0.6939  1.1195  0.7165
  501MOL0     C67513   7.678   9.213   6.044  0.5579  0.1282 -0.8733
  501MOL0     C67514   7.763   9.140   6.141 -0.3755  0.0627 -0.3930
  501MOL0     C67515   7.852   9.233   6.222  0.0879  0.3004 -0.8641
  501MOL0     C67516   7.927   9.153   6.332  1.5069 -0.6740 -0.3060
  501MOL0     N67517   8.027   9.233   6.408  0.4093  0.0125 -0.3789
  501MOL0     C67518   8.157   9.251   6.370  0.7600  0.6128  0.2890
  501MOL0     C67519   8.213   9.311   6.477  0.2793 -0.1954  0.0057
  501MOL0     C67520   8.351   9.363   6.484 -0.1918 -0.6071  0.0106
  501MOL0     C67521   8.376   9.474   6.379  0.1511  0.2566  0.9266
  501MOL0     C67522   8.516   9.532   6.398 -0.0196 -0.5256  0.7882
  501MOL0     C67523   8.627   9.434   6.356  0.0805  0.0222 -0.9936
  501MOL0     O67524   8.752   9.490   6.407  0.1985 -0.0504  0.1490
  501MOL0     C67525   8.866   9.426   6.373  0.2270  0.1283  0.1801
  501MOL0     C67526   8.982   9.511   6.372 -0.0321 -0.0030  0.9466
  501MOL0     C67527   9.104   9.449   6.331 -0.6082  0.4418  1.2373
  501MOL0     C67528   9.123   9.314   6.292  0.4256 -0.5448  0.1247
  501MOL0     C67529   9.254   9.260   6.267  0.3324 -0.3933 -0.3017
  501MOL0     O67530   9.254   9.129   6.243 -0.9389  0.1102  0.6554
  501MOL0     C67531   9.368   9.062   6.228 -0.4553 -0.2714  0.6368
  501MOL0     C67532   9.400   8.990   6.112 -0.4690 -0.6633  0.5412
  501MOL0     C67533   9.527   8.941   6.092  0.2953 -0.2861  0.2344
  501MOL0     C67534   9.610   8.933   6.208 -0.6326 -0.3797  0.0830
  501MOL0     O67535   9.739   8.898   6.182  0.0952 -0.1527 -0.3791
  501MOL0     C67536   9.843   8.876   6.272  0.5861  0.3588 -1.1417
  501MOL0     C67537   9.943   8.771   6.211  0.0731  0.7676  0.4329
  501MOL0     C67538  10.069   8.762   6.289 -0.5733  0.7020  0.1664
  501MOL0     C67539  10.172   8.657   6.252  0.5501 -1.0055 -0.2210
  501MOL0     C67540  10.294   8.666   6.350  0.5994  0.5304  0.6046
  501MOL0     C67541  10.277   8.622   6.487  0.2915  0.1375 -0.4854
  501MOL0     C67542  10.395   8.676   6.572  0.7553  0.3911 -0.5641
  501MOL0     C67543  10.358   8.803   6.658  0.7936 -0.3626  0.4499
  501MOL0    Cl67544  10.234   8.752   6.783  0.4387 -0.0229  0.1646
  501MOL0     C67545   9.564   8.978   6.335  0.3995  0.6864  0.1612
  501MOL0     C67546   9.439   9.045   6.345 -0.4315 -0.9413  0.3320
  501MOL0     O67547   9.352   9.336   6.247  0.5023 -0.4608 -0.2572
  501MOL0     C67548   9.006   9.237   6.294 -0.9193  0.0691  0.8087
  501MOL0     C67549   8.883   9.290   6.333  0.1080 -0.1239 -0.7794
  501MOL0     N67550   8.118   9.333   6.582  0.6186  1.2150 -0.3145
  501MOL0     N67551   8.008   9.283   6.537  0.7477  0.5645 -0.3588
  501MOL0     C67552   6.975   9.337   5.908 -0.2894 -0.2722 -0.1066
  501MOL0     C67553   6.868   9.389   5.839  0.3634 -0.2300  0.0670
  501MOL0     C67554   6.489   9.565   5.710  0.8076  0.3193  0.9123
  501MOL0     C67555   6.503   9.683   5.624  0.0471  0.1977 -0.6529
  501MOL0     C67556   6.395   9.735   5.559  0.7210  0.4327  0.5115
  501MOL0     C67557   6.268   9.677   5.565  0.0700 -0.1464  1.2482
  501MOL0     O67558   6.171   9.740   5.484 -0.6871  0.2289 -0.3814
  501MOL0     C67559   6.048   9.662   5.468 -0.2509 -0.6282 -0.0509
  501MOL0     C67560   5.956   9.747   5.392 -0.2056  0.7232 -0.3110
  501MOL0     C67561   5.812   9.684   5.400 -0.1308 -0.7867 -0.4106
  501MOL0     C67562   5.713   9.770   5.316 -0.8136  0.4120 -0.6281
  501MOL0     C67563   5.584   9.714   5.348 -0.0022 -0.4067  0.1693
  501MOL0     C67564   5.469   9.668   5.361 -0.2566  0.4368  0.1022
  501MOL0     C67565   6.254   9.559   5.637  0.4937 -0.2659 -0.2433
  501MOL0     C67566   6.355   9.503   5.711  0.0602 -0.4755 -0.0662
  501MOL0     C67567   6.321   9.383   5.785 -0.3948  0.7581  0.7324
  501MOL0     H67568   6.949   9.709   5.837 -0.8587 -0.0442 -0.9633
  501MOL0     H67569   7.162   9.622   5.901  0.6323 -0.1502  1.7393
  501MOL0     H67570   7.155   9.231   6.120  0.0077 -2.6938  0.4211
  501MOL0     H67571   7.185   9.156   5.951  0.5216 -1.0183 -0.0476
  501MOL0     H67572   7.353   9.104   6.124 -2.1259  0.0514 -0.2716
  501MOL0     H67573   7.405   9.268   6.118  0.4737 -0.9086  0.7176
  501MOL0     H67574   7.442   9.253   5.872  1.7612 -0.1943  1.3348
  501MOL0     H67575   7.378   9.083   5.874 -0.9918 -0.0879 -0.1118
  501MOL0     H67576   7.570   9.012   6.010  0.2973 -0.2090 -1.7243
  501MOL0     H67577   7.637   9.107   5.869 -0.0192 -0.5752  1.1175
  501MOL0     H67578   7.738   9.274   5.976  1.3863 -1.8959 -2.0430
  501MOL0     H67579   7.623   9.292   6.097  2.7915  1.0372  0.2166
  501MOL0     H67580   7.683   9.096   6.202 -0.7253 -0.8503 -1.4701
  501MOL0     H67581   7.817   9.052   6.107  1.4894  0.8119  0.5001
  501MOL0     H67582   7.792   9.312   6.269  1.4935  0.8209  0.1039
  501MOL0     H67583   7.919   9.279   6.150 -0.4061  1.2100 -0.7589
  501MOL0     H67584   7.854   9.104   6.396 -0.7491  2.4061 -0.3682
  501MOL0     H67585   7.968   9.065   6.281 -0.9436 -1.5841 -0.8444
  501MOL0     H67586   8.204   9.218   6.278  0.8861 -1.3144  0.9990
  501MOL0     H67587   8.372   9.397   6.585  2.4001 -2.7386  0.3038
  501MOL0     H67588   8.417   9.277   6.467 -2.4883 -2.4923  0.0611
  501MOL0     H67589   8.365   9.437   6.277  0.7045  1.0876  0.5620
  501MOL0     H67590   8.304   9.552   6.404  0.6830  1.0478  0.0506
  501MOL0     H67591   8.515   9.567   6.502  0.0950 -1.7846  1.2313
  501MOL0     H67592   8.550   9.613   6.334  1.6363 -2.6507 -1.2213
  501MOL0     H67593   8.624   9.428   6.247 -2.3825 -4.0297 -0.9157
  501MOL0     H67594   8.602   9.334   6.394 -0.6220  0.7316  0.4688
  501MOL0     H67595   8.967   9.612   6.408  0.8442  1.2027 -1.8583
  501MOL0     H67596   9.199   9.495   6.358  0.5731 -2.1739  1.8474
  501MOL0     H67597   9.336   8.982   6.024  1.2821 -0.2232 -0.8329
  501MOL0     H67598   9.566   8.920   5.994 -1.9979  3.3404 -1.6959
  501MOL0     H67599   9.899   8.969   6.288  1.1634 -0.2729  0.7854
  501MOL0     H67600   9.801   8.830   6.362  2.4355 -3.8528 -2.1534
  501MOL0     H67601   9.888   8.678   6.199 -2.0253  2.1192 -1.1557
  501MOL0     H67602   9.963   8.817   6.113  0.1891  3.4037  1.6012
  501MOL0     H67603  10.128   8.854   6.287  3.3092 -1.4348  2.9919
  501MOL0     H67604  10.024   8.734   6.385 -1.4244 -2.9858 -1.1253
  501MOL0     H67605  10.208   8.688   6.153 -0.3379  4.0111  0.7746
  501MOL0     H67606  10.130   8.557   6.263 -0.8605 -0.4063 -0.0622
  501MOL0     H67607  10.329   8.769   6.339  0.0344  0.5847 -1.0270
  501MOL0     H67608  10.377   8.606   6.311  0.3360  1.0049 -0.7233
  501MOL0     H67609  10.183   8.659   6.529  0.2565 -0.8093  0.3051
  501MOL0     H67610  10.270   8.513   6.486 -0.1228  0.1364  0.6954
  501MOL0     H67611  10.476   8.714   6.508  0.5116 -0.5475 -1.4542
  501MOL0     H67612  10.425   8.594   6.639  0.1112  0.7326  0.1570
  501MOL0     H67613  10.452   8.832   6.706  0.4064  2.7831 -0.4962
  501MOL0     H67614  10.322   8.885   6.596  1.8565  0.8062  1.3179
  501MOL0     H67615   9.630   8.962   6.419  1.9187  3.5196 -0.3749
  501MOL0     H67616   9.407   9.085   6.440  0.6573 -1.4583  0.9376
  501MOL0     H67617   9.010   9.129   6.279  2.2340  0.2878 -0.8233
  501MOL0     H67618   8.801   9.219   6.337  1.5339 -1.8260 -0.7891
  501MOL0     H67619   6.976   9.230   5.925  3.7382 -0.0721  2.1298
  501MOL0     H67620   6.792   9.319   5.805  0.4601 -2.1598  3.4666
  501MOL0     H67621   6.601   9.725   5.607 -0.9135  2.2919 -1.3470
  501MOL0     H67622   6.413   9.816   5.489  0.6972 -0.1601 -0.2013
  501MOL0     H67623   6.004   9.629   5.563 -1.7967  0.8281 -0.2115
  501MOL0     H67624   6.077   9.578   5.404  0.5478  1.5838 -2.7711
  501MOL0     H67625   5.992   9.754   5.289 -0.3673  0.1114 -0.4125
  501MOL0     H67626   5.959   9.851   5.427  0.9748  0.2107  1.2312
  501MOL0     H67627   5.767   9.661   5.497  1.7271 -2.5239  0.0947
  501MOL0     H67628   5.819   9.586   5.354 -1.6513  0.1346 -2.8017
  501MOL0     H67629   5.731   9.875   5.341  2.6094  0.9152 -4.1471
  501MOL0     H67630   5.729   9.764   5.208 -2.9723 -0.8633 -0.9167
  501MOL0     H67631   5.366   9.641   5.354  0.3301 -1.6238 -1.7852
  501MOL0     H67632   6.158   9.507   5.638  0.6025 -0.5595  2.2704
  501MOL0     H67633   6.223   9.351   5.748 -0.5904  3.4225 -1.3680
  501MOL0     H67634   6.393   9.301   5.784  0.4085  1.4460  0.6336
  501MOL0     H67635   6.319   9.411   5.891  1.6403  1.0298  0.7353
  502MOL0     O67636   0.527   5.775   7.768 -0.1390  0.3453 -0.1335
  502MOL0     C67637   0.407   5.779   7.742  0.0573  0.5584  0.9755
  502MOL0     O67638   0.351   5.702   7.642  0.6286  0.0129 -0.4593
  502MOL0     C67639   0.426   5.619   7.569  0.5190 -0.3601  0.1678
  502MOL0     C67640   0.451   5.478   7.613  1.3033 -0.2103  0.0041
  502MOL0     C67641   0.520   5.397   7.522  0.5127 -0.1675 -0.9222
  502MOL0     C67642   0.574   5.450   7.400 -0.2779  0.3786 -0.0188
  502MOL0     O67643   0.652   5.364   7.340 -0.2063  0.3109  0.9296
  502MOL0     C67644   0.726   5.396   7.226 -0.9315 -0.1071 -0.2004
  502MOL0     C67645   0.754   5.252   7.180 -0.2039 -0.3608  0.1797
  502MOL0     C67646   0.851   5.265   7.054  0.9591  0.2002 -0.4389
  502MOL0     C67647   0.998   5.262   7.080  0.4735  0.0316  0.4548
  502MOL0     C67648   1.084   5.305   6.959  0.4970 -0.0728 -0.3502
  502MOL0     C67649   1.235   5.295   6.993  0.3506 -0.4061 -0.2215
  502MOL0     C67650   1.292   5.431   7.042 -0.1615 -0.2663  0.3592
  502MOL0     C67651   1.330   5.524   6.922 -0.4621 -0.0992 -1.0260
  502MOL0     N67652   1.468   5.493   6.871 -0.2866  0.5087 -0.3548
  502MOL0     C67653   1.526   5.362   6.848 -0.6550 -0.0829 -0.3060
  502MOL0     C67654   1.629   5.385   6.757 -0.9920 -0.8095 -0.6440
  502MOL0     C67655   1.731   5.282   6.698  0.4071 -0.3478 -0.7549
  502MOL0     C67656   1.860   5.293   6.775  0.2520  0.1068  0.1540
  502MOL0     C67657   1.956   5.177   6.744  0.2524 -0.5834  0.3393
  502MOL0     C67658   2.095   5.201   6.806 -0.4402 -0.3310  1.0957
  502MOL0     O67659   2.180   5.271   6.708  0.6994 -0.5627 -0.6063
  502MOL0     C67660   2.317   5.288   6.724 -0.7144 -0.8981  0.8205
  502MOL0     C67661   2.393   5.363   6.628 -0.0386  0.1013  0.0742
  502MOL0     C67662   2.528   5.376   6.647 -0.1597  0.4210 -0.1095
  502MOL0     C67663   2.599   5.339   6.759  0.2879 -0.2958  0.0330
  502MOL0     C67664   2.741   5.386   6.773  0.6848 -0.6964 -0.6678
  502MOL0     O67665   2.794   5.389   6.893 -0.2227  0.3666 -0.0618
  502MOL0     C67666   2.926   5.415   6.901  0.5423  0.2278  0.1690
  502MOL0     C67667   3.020   5.308   6.921 -0.6815  0.3221 -0.1141
  502MOL0     C67668   3.155   5.345   6.923  0.4386 -0.5091  0.0645
  502MOL0     C67669   3.200   5.475   6.898 -0.1033  0.2786  0.5949
  502MOL0     O67670   3.331   5.521   6.902  0.9379 -1.0349 -0.5277
  502MOL0     C67671   3.434   5.435   6.863  0.6775  0.3461  0.5564
  502MOL0     C67672   3.504   5.384   6.989 -0.0133  0.1560 -0.4404
  502MOL0     C67673   3.607   5.490   7.045  0.1376  0.0637  0.6257
  502MOL0     C67674   3.691   5.443   7.161  0.0090  0.9746  0.1284
  502MOL0     C67675   3.746   5.559   7.249  0.4858  0.2685 -0.7394
  502MOL0     C67676   3.841   5.662   7.186  0.6201 -0.7020 -0.1138
  502MOL0     C67677   3.898   5.773   7.281  0.2735  1.3494 -0.2325
  502MOL0     C67678   4.021   5.835   7.226  0.4850 -0.0661 -0.0162
  502MOL0    Cl67679   4.086   5.983   7.312 -0.5284  0.1836 -0.7837
  502MOL0     C67680   3.109   5.577   6.878  0.3246 -0.8388  0.4546
  502MOL0     C67681   2.977   5.547   6.887  0.0288  0.4100  0.1413
  502MOL0     O67682   2.794   5.422   6.666 -0.2770 -0.6748  0.4708
  502MOL0     C67683   2.533   5.267   6.852 -0.3428  0.4638 -0.0834
  502MOL0     C67684   2.398   5.232   6.837  1.6036  0.3536  0.3641
  502MOL0     N67685   1.640   5.522   6.740  0.2402  0.4859 -0.1858
  502MOL0     N67686   1.546   5.579   6.808 -0.0724 -0.0431  0.8700
  502MOL0     C67687   0.554   5.585   7.363  0.3509  0.1709 -0.8454
  502MOL0     C67688   0.476   5.663   7.440 -0.7101 -0.3503  0.2353
  502MOL0     C67689   0.319   5.873   7.816  0.1525  1.1779  1.0354
  502MOL0     C67690   0.180   5.865   7.791  0.3195  0.3538 -0.1716
  502MOL0     C67691   0.091   5.949   7.859 -0.3842  0.2300  0.5209
  502MOL0     C67692   0.131   6.046   7.947 -0.5141  0.4984 -0.4077
  502MOL0     O67693   0.054   6.148   8.011  0.4969 -0.0786 -0.7244
  502MOL0     C67694  -0.082   6.110   8.034  0.3489 -0.7400  0.1594
  502MOL0     C67695  -0.156   6.227   8.096  0.3970 -0.1197  0.2039
  502MOL0     C67696  -0.159   6.232   8.254 -0.1496 -1.1386  0.0182
  502MOL0     C67697  -0.299   6.200   8.307  0.5952 -0.0167  0.3597
  502MOL0     C67698  -0.342   6.063   8.274  0.5830  0.5182 -0.3589
  502MOL0     C67699  -0.387   5.952   8.250  0.2214  0.5306 -0.2637
  502MOL0     C67700   0.270   6.065   7.970 -1.0591  0.8694  0.5761
  502MOL0     C67701   0.368   5.980   7.903 -0.4349  0.6003 -0.8999
  502MOL0     C67702   0.515   6.004   7.940  0.4194  0.8864  0.2607
  502MOL0     H67703   0.406   5.428   7.697  2.2425 -2.1036 -0.5613
  502MOL0     H67704   0.521   5.293   7.550  1.2213  0.2308  0.6302
  502MOL0     H67705   0.674   5.451   7.147 -1.5448 -0.5873 -0.1360
  502MOL0     H67706   0.825   5.442   7.241  1.1261 -4.2920  0.5933
  502MOL0     H67707   0.663   5.193   7.164 -0.9602  1.1928 -1.6681
  502MOL0     H67708   0.815   5.194   7.250 -1.1620  0.2233  1.5390
  502MOL0     H67709   0.819   5.355   7.000 -0.0583  0.0156 -0.1606
  502MOL0     H67710   0.825   5.189   6.980 -1.9313  0.3639  0.2636
  502MOL0     H67711   1.028   5.321   7.167 -0.2652  1.0251  0.0488
  502MOL0     H67712   1.028   5.162   7.113  2.3458  0.1405 -0.7356
  502MOL0     H67713   1.069   5.241   6.872  0.1400 -0.0542 -0.3028
  502MOL0     H67714   1.073   5.411   6.933  0.1568  0.8691  3.1416
  502MOL0     H67715   1.239   5.221   7.073 -3.2906 -0.9410 -0.3664
  502MOL0     H67716   1.294   5.264   6.906  0.4025  1.8679 -1.0873
  502MOL0     H67717   1.383   5.416   7.102  1.0178 -2.5681 -1.8306
  502MOL0     H67718   1.220   5.479   7.109  1.8187  1.8722  1.0912
  502MOL0     H67719   1.259   5.496   6.845 -1.3873  0.9420 -0.5865
  502MOL0     H67720   1.327   5.630   6.950  1.5560 -0.4502  0.8246
  502MOL0     H67721   1.503   5.271   6.902 -0.8769  0.3642  0.3760
  502MOL0     H67722   1.693   5.180   6.712  3.5865 -1.4605  0.6066
  502MOL0     H67723   1.740   5.306   6.592  0.4026 -0.2613 -0.7355
  502MOL0     H67724   1.912   5.387   6.756  1.3145 -0.3626  0.6264
  502MOL0     H67725   1.838   5.294   6.882  3.5810  0.3265  0.9569
  502MOL0     H67726   1.970   5.164   6.636  1.5643  0.4280  0.3600
  502MOL0     H67727   1.912   5.088   6.791 -1.5795 -0.8743 -1.7772
  502MOL0     H67728   2.139   5.101   6.810 -1.6236 -1.0631 -1.7266
  502MOL0     H67729   2.091   5.245   6.906 -0.1791  0.0807  0.9322
  502MOL0     H67730   2.350   5.401   6.536  3.4513  0.6894 -1.4781
  502MOL0     H67731   2.580   5.426   6.566 -2.0376 -0.9171 -2.2669
  502MOL0     H67732   2.979   5.208   6.932 -1.7938  0.8485  0.6279
  502MOL0     H67733   3.231   5.269   6.937  1.7590  0.5496 -0.9878
  502MOL0     H67734   3.385   5.364   6.796 -0.7853  0.7641  1.1576
  502MOL0     H67735   3.513   5.479   6.801  2.2711 -2.7417  0.1748
  502MOL0     H67736   3.432   5.346   7.062 -2.7534  1.8804 -2.0728
  502MOL0     H67737   3.557   5.294   6.954 -2.2042 -1.1648 -0.5124
  502MOL0     H67738   3.678   5.500   6.962 -1.4469  3.1306 -0.4949
  502MOL0     H67739   3.548   5.580   7.062 -4.6789 -2.9902  1.9253
  502MOL0     H67740   3.776   5.389   7.119 -0.8901 -1.5796  1.3982
  502MOL0     H67741   3.629   5.379   7.225 -1.3188  2.6192  0.5612
  502MOL0     H67742   3.808   5.520   7.330  2.3646  3.8662 -0.2368
  502MOL0     H67743   3.667   5.614   7.302  1.3996  1.0839 -0.1859
  502MOL0     H67744   3.924   5.603   7.147  1.7771 -0.0033  1.2029
  502MOL0     H67745   3.784   5.705   7.103 -0.2397 -2.7674 -0.6499
  502MOL0     H67746   3.929   5.734   7.378 -1.0082 -1.4089 -0.8246
  502MOL0     H67747   3.819   5.846   7.300  0.0399  1.5176 -1.6992
  502MOL0     H67748   4.086   5.747   7.232 -1.9602 -1.9242  0.7847
  502MOL0     H67749   4.002   5.850   7.120 -3.1189 -2.4426  0.1268
  502MOL0     H67750   3.157   5.674   6.863  0.7997 -0.9369  1.3268
  502MOL0     H67751   2.900   5.623   6.883  0.1204  0.4684 -1.6431
  502MOL0     H67752   2.587   5.248   6.944 -3.2621  0.2306  1.7340
  502MOL0     H67753   2.353   5.171   6.915 -1.1035  1.2067 -0.3882
  502MOL0     H67754   0.582   5.628   7.267 -1.3911  2.1068 -0.5766
  502MOL0     H67755   0.451   5.762   7.402 -1.5120 -0.9337 -0.8175
  502MOL0     H67756   0.144   5.801   7.710  1.5660  0.0612 -0.5301
  502MOL0     H67757  -0.013   5.923   7.842  0.3580 -1.7951 -1.4937
  502MOL0     H67758  -0.098   6.021   8.097 -1.0886 -1.7411 -1.5110
  502MOL0     H67759  -0.122   6.091   7.934 -0.0966  1.7249 -0.1789
  502MOL0     H67760  -0.260   6.229   8.063  0.5128 -2.6536 -0.5667
  502MOL0     H67761  -0.114   6.317   8.050  1.4145 -1.1307 -0.9168
  502MOL0     H67762  -0.136   6.335   8.284  0.7617 -1.0218 -1.0302
  502MOL0     H67763  -0.086   6.163   8.297  1.9758  0.5453 -0.7004
  502MOL0     H67764  -0.311   6.216   8.414 -1.9387  0.1268  0.1316
  502MOL0     H67765  -0.362   6.274   8.255 -0.4029 -0.5869  0.7274
  502MOL0     H67766  -0.407   5.849   8.226 -0.3329  0.0724  1.9526
  502MOL0     H67767   0.297   6.144   8.038  0.0098  0.0236  1.1691
  502MOL0     H67768   0.569   5.920   7.984 -2.6572 -1.2077  0.2819
  502MOL0     H67769   0.560   6.040   7.847 -2.9708  2.9531 -0.7476
  502MOL0     H67770   0.532   6.087   8.010  3.5283  0.0880  0.6204
  503MOL0     O67771   8.755   5.534   3.074 -0.1450  0.0879 -0.0380
  503MOL0     C67772   8.741   5.550   3.194 -0.5809 -0.4091  0.0962
  503MOL0     O67773   8.842   5.534   3.293  0.1295 -0.6039  0.3181
  503MOL0     C67774   8.964   5.505   3.244  0.5093 -0.8938  0.0477
  503MOL0     C67775   9.035   5.601   3.175 -0.8195 -0.2745  0.4022
  503MOL0     C67776   9.165   5.575   3.146  0.4787  0.2572  0.5178
  503MOL0     C67777   9.228   5.458   3.183 -0.1287  0.7130 -0.7972
  503MOL0     O67778   9.363   5.450   3.163 -0.5396  0.0218 -0.5355
  503MOL0     C67779   9.437   5.358   3.250 -0.9814  0.9337  0.3084
  503MOL0     C67780   9.457   5.234   3.157 -0.1732 -0.1084  0.3698
  503MOL0     C67781   9.563   5.249   3.051 -0.5042 -0.2366  0.8592
  503MOL0     C67782   9.588   5.115   2.978 -0.7379  0.3530  0.6462
  503MOL0     C67783   9.678   5.155   2.848  0.4387  0.6501 -1.3593
  503MOL0     C67784   9.746   5.035   2.791  0.0254 -0.4379 -0.0436
  503MOL0     C67785   9.816   5.063   2.659 -0.2134 -0.3636 -0.4584
  503MOL0     C67786   9.953   5.118   2.683 -0.0702 -0.3613  0.7150
  503MOL0     N67787  10.017   5.162   2.556  0.5406  0.3169 -0.1827
  503MOL0     C67788  10.000   5.271   2.484 -0.0061 -0.4407 -0.0274
  503MOL0     C67789  10.113   5.274   2.407  0.3751  1.2459  0.0155
  503MOL0     C67790  10.136   5.381   2.311 -0.0932 -0.2912  0.3124
  503MOL0     C67791  10.240   5.353   2.205 -0.1761  1.0372 -0.2097
  503MOL0     C67792  10.251   5.470   2.119  0.3134  0.2444  0.4158
  503MOL0     C67793  10.353   5.444   2.000  0.7462  0.1321 -0.6570
  503MOL0     O67794  10.491   5.462   2.042 -0.3522  0.2383  0.0339
  503MOL0     C67795  10.587   5.472   1.950  0.0570 -0.1948  0.6055
  503MOL0     C67796  10.566   5.480   1.807  0.3109 -0.0887 -0.1319
  503MOL0     C67797  10.671   5.479   1.716  0.2202  0.5819 -0.1535
  503MOL0     C67798  10.806   5.465   1.767 -0.4483 -0.6377 -0.7563
  503MOL0     C67799  10.930   5.445   1.686 -0.2352 -0.2378  0.1740
  503MOL0     O67800  11.061   5.476   1.740 -0.0443 -0.2402  0.9249
  503MOL0     C67801  11.175   5.454   1.666  0.7694  0.3730  0.1771
  503MOL0     C67802  11.269   5.376   1.731 -0.1416 -0.1479  0.4886
  503MOL0     C67803  11.381   5.346   1.653 -0.1389 -0.1135  0.0965
  503MOL0     C67804  11.414   5.404   1.529  0.7299  0.1975  0.5029
  503MOL0     O67805  11.528   5.375   1.464 -0.1394 -0.8239  0.0209
  503MOL0     C67806  11.646   5.347   1.542  0.2776  0.8635  0.1149
  503MOL0     C67807  11.784   5.381   1.503  0.1286 -0.9073  0.0493
  503MOL0     C67808  11.814   5.306   1.376  0.8936  0.0840 -0.1086
  503MOL0     C67809  11.963   5.321   1.352  0.1513 -0.2497  0.6427
  503MOL0     C67810  11.995   5.375   1.215 -0.5344 -0.5622  0.3561
  503MOL0     C67811  12.130   5.343   1.164 -0.4111  0.5664 -0.6194
  503MOL0     C67812  12.190   5.441   1.057 -0.2924 -0.2773  1.4454
  503MOL0     C67813  12.114   5.443   0.926 -0.4663  0.6307 -0.1008
  503MOL0    Cl67814  12.217   5.547   0.805 -0.0370  0.3087 -0.1391
  503MOL0     C67815  11.316   5.496   1.472  0.4881  0.3588 -0.5279
  503MOL0     C67816  11.205   5.523   1.554  0.3942 -0.6183  1.2544
  503MOL0     O67817  10.909   5.404   1.569 -0.1476  0.2395  0.6442
  503MOL0     C67818  10.822   5.466   1.904  0.5582 -0.3462  0.0878
  503MOL0     C67819  10.717   5.480   1.997  0.3589 -0.0625  0.4265
  503MOL0     N67820  10.184   5.161   2.430  0.2634  0.2547 -0.8578
  503MOL0     N67821  10.130   5.097   2.523 -0.0519  0.4391 -0.4948
  503MOL0     C67822   9.145   5.359   3.240 -0.1238  0.0400 -0.2223
  503MOL0     C67823   9.013   5.384   3.277 -0.1916 -0.0582 -0.4953
  503MOL0     C67824   8.599   5.589   3.224 -0.8673 -0.7425  0.0126
  503MOL0     C67825   8.545   5.695   3.147 -0.3484  0.0313  1.0188
  503MOL0     C67826   8.422   5.755   3.171  0.1438  0.6899  0.0008
  503MOL0     C67827   8.347   5.708   3.284 -0.5823 -1.0750  0.0474
  503MOL0     O67828   8.231   5.768   3.341 -0.2986 -0.3192  0.5469
  503MOL0     C67829   8.169   5.848   3.243 -0.6876  0.0412 -0.1834
  503MOL0     C67830   8.048   5.912   3.303 -0.1120 -0.2791 -0.3297
  503MOL0     C67831   7.941   5.808   3.343 -0.3751 -0.4553  0.1610
  503MOL0     C67832   7.808   5.870   3.302 -0.0578  0.0216  0.2734
  503MOL0     C67833   7.768   5.983   3.382  0.1302 -0.3654 -1.3327
  503MOL0     C67834   7.718   6.084   3.433 -0.4274 -0.0500  0.2849
  503MOL0     C67835   8.405   5.607   3.363  0.2421  0.2044 -0.1504
  503MOL0     C67836   8.534   5.555   3.342  0.0120 -0.5941  0.7309
  503MOL0     C67837   8.585   5.453   3.438  0.3276  0.7751  0.4513
  503MOL0     H67838   8.994   5.697   3.148  4.2874  2.8071  2.1794
  503MOL0     H67839   9.221   5.651   3.092  0.1611 -0.2537 -0.5588
  503MOL0     H67840   9.534   5.405   3.268  0.3954 -1.0958 -1.2892
  503MOL0     H67841   9.377   5.337   3.339 -1.0141 -0.5268 -0.0279
  503MOL0     H67842   9.361   5.202   3.116 -1.5876  3.2565  0.7492
  503MOL0     H67843   9.494   5.150   3.216  1.1287  0.0160 -0.2229
  503MOL0     H67844   9.653   5.287   3.100 -1.2953 -0.3356  2.4502
  503MOL0     H67845   9.521   5.326   2.985  0.4763  0.4676  1.0257
  503MOL0     H67846   9.643   5.044   3.041  2.6184  0.9929 -1.2874
  503MOL0     H67847   9.500   5.063   2.939  1.4654 -3.2225 -0.0796
  503MOL0     H67848   9.610   5.192   2.771 -1.5064  0.1265  0.0145
  503MOL0     H67849   9.737   5.244   2.870 -1.5632  1.7302 -0.0132
  503MOL0     H67850   9.818   4.987   2.858 -0.5281 -0.5848  0.4452
  503MOL0     H67851   9.672   4.957   2.773  0.3007 -0.7736  0.2657
  503MOL0     H67852   9.759   5.134   2.599 -1.1170 -1.0612 -0.4532
  503MOL0     H67853   9.824   4.968   2.604 -2.7823 -0.8126 -0.2058
  503MOL0     H67854   9.949   5.210   2.742  1.2052  0.5015 -0.4842
  503MOL0     H67855  10.008   5.040   2.736  1.0373  0.9466  1.5594
  503MOL0     H67856   9.919   5.342   2.489 -0.0100 -0.5232  1.4389
  503MOL0     H67857  10.043   5.403   2.258  0.8241 -1.1966 -1.8419
  503MOL0     H67858  10.171   5.475   2.354  1.1044  0.7834 -2.7258
  503MOL0     H67859  10.321   5.327   2.274 -0.8083  2.1290  1.0031
  503MOL0     H67860  10.213   5.265   2.146  0.3948  2.3215 -2.5188
  503MOL0     H67861  10.272   5.559   2.179  1.0080  1.1836 -1.1447
  503MOL0     H67862  10.158   5.493   2.065  0.1099  1.1471  1.1214
  503MOL0     H67863  10.329   5.509   1.915 -0.3048  0.4834 -0.1090
  503MOL0     H67864  10.337   5.341   1.967 -2.6014 -0.1631  1.4401
  503MOL0     H67865  10.463   5.488   1.773  0.1622  2.8476  0.6802
  503MOL0     H67866  10.654   5.471   1.609 -0.0487  2.6738 -0.3160
  503MOL0     H67867  11.245   5.332   1.827 -1.1387 -1.5016 -0.3287
  503MOL0     H67868  11.459   5.289   1.704  2.4197  0.4432 -2.8986
  503MOL0     H67869  11.639   5.394   1.640 -0.3644  0.5242  0.2354
  503MOL0     H67870  11.634   5.239   1.549  2.4727  0.6888  2.4329
  503MOL0     H67871  11.786   5.486   1.473  0.7914 -0.4103  1.7217
  503MOL0     H67872  11.856   5.356   1.581  0.0220  0.6960  0.6971
  503MOL0     H67873  11.785   5.200   1.383  0.2568  0.2806  0.2524
  503MOL0     H67874  11.762   5.356   1.294  0.5410 -0.4468 -0.2126
  503MOL0     H67875  12.008   5.221   1.351 -2.1388 -1.3565  1.8210
  503MOL0     H67876  12.016   5.391   1.416  1.8675 -0.1124 -0.8377
  503MOL0     H67877  11.998   5.485   1.210 -0.6311 -0.6195 -2.3194
  503MOL0     H67878  11.929   5.337   1.137  2.8699 -0.5158 -2.8253
  503MOL0     H67879  12.202   5.351   1.246 -1.6641  1.3752  0.4279
  503MOL0     H67880  12.138   5.241   1.125  1.2931 -0.7426  2.7760
  503MOL0     H67881  12.283   5.399   1.016 -1.7746 -1.0366 -1.4010
  503MOL0     H67882  12.200   5.539   1.103  0.9627 -0.6337  1.9900
  503MOL0     H67883  12.109   5.339   0.893  0.5357  0.0635  1.4154
  503MOL0     H67884  12.015   5.490   0.934  0.8326  3.2203  2.0022
  503MOL0     H67885  11.336   5.548   1.379  0.7013  0.4769 -0.4194
  503MOL0     H67886  11.124   5.593   1.535 -0.9399 -2.0106  1.5263
  503MOL0     H67887  10.921   5.461   1.948 -0.0565 -1.9778  1.3935
  503MOL0     H67888  10.731   5.487   2.104 -1.1691 -1.4312  0.7600
  503MOL0     H67889   9.197   5.266   3.260  1.9247  0.8742 -1.4445
  503MOL0     H67890   8.945   5.316   3.327 -1.4295  1.6944  0.3265
  503MOL0     H67891   8.589   5.729   3.054  0.0898 -0.3154  1.0950
  503MOL0     H67892   8.384   5.829   3.102 -0.6569  1.3608  1.1404
  503MOL0     H67893   8.131   5.789   3.160  0.1555 -0.1640 -0.4330
  503MOL0     H67894   8.235   5.928   3.207  1.8432 -0.2579  3.2295
  503MOL0     H67895   8.015   5.977   3.222  2.2274  1.9056  0.3364
  503MOL0     H67896   8.074   5.974   3.390 -2.4525  1.0018 -0.4689
  503MOL0     H67897   7.940   5.778   3.449  0.9262  1.2443  0.7034
  503MOL0     H67898   7.952   5.715   3.286  4.0122 -0.1923  0.2583
  503MOL0     H67899   7.797   5.906   3.199 -1.2296 -1.4156 -0.1331
  503MOL0     H67900   7.739   5.788   3.323  0.6940 -0.4864  0.8084
  503MOL0     H67901   7.692   6.182   3.467  1.8314  0.8440 -0.3762
  503MOL0     H67902   8.354   5.568   3.450  0.4353 -0.9949 -0.5613
  503MOL0     H67903   8.635   5.365   3.397  2.2999  1.2162  1.7651
  503MOL0     H67904   8.650   5.513   3.502  2.4146  0.3904 -1.2220
  503MOL0     H67905   8.509   5.427   3.513  0.6233  1.1347  0.8816
  504MOL0     O67906   5.704   3.198   7.904  0.7409  0.5223 -0.2629
  504MOL0     C67907   5.586   3.215   7.872 -0.5915  0.3630 -0.6101
  504MOL0     O67908   5.531   3.331   7.839 -0.0530  0.2727 -0.8287
  504MOL0     C67909   5.608   3.444   7.859 -0.3726  0.5547  0.7362
  504MOL0     C67910   5.594   3.516   7.978 -0.6306 -0.1112  0.4490
  504MOL0     C67911   5.675   3.623   8.021 -0.2023 -0.4836 -0.2565
  504MOL0     C67912   5.780   3.649   7.927  0.0197  0.5057  0.3232
  504MOL0     O67913   5.869   3.759   7.952  0.3499 -0.7453 -0.8742
  504MOL0     C67914   6.008   3.747   7.934 -0.5523  0.0080  0.4848
  504MOL0     C67915   6.075   3.885   7.932  0.0405  0.4951  0.7925
  504MOL0     C67916   6.002   4.000   8.013 -0.1956  0.1641 -0.2271
  504MOL0     C67917   6.081   4.122   8.055  0.0761  0.0925 -0.2337
  504MOL0     C67918   6.150   4.203   7.951 -0.1170 -0.4633 -0.2779
  504MOL0     C67919   6.057   4.313   7.900 -0.3372 -0.7927  0.3062
  504MOL0     C67920   6.135   4.396   7.792  0.7748 -0.5603 -0.5644
  504MOL0     C67921   6.226   4.499   7.868 -0.0531 -0.0153 -0.2156
  504MOL0     N67922   6.354   4.530   7.803  0.5362 -0.6206  0.4292
  504MOL0     C67923   6.378   4.651   7.744  0.1102  0.1618 -0.5089
  504MOL0     C67924   6.511   4.671   7.759  0.1138  0.7524  0.7627
  504MOL0     C67925   6.566   4.791   7.686 -0.7163  0.5892 -0.8510
  504MOL0     C67926   6.576   4.912   7.777  0.8240  0.1566  0.0256
  504MOL0     C67927   6.639   4.886   7.921  0.1301  0.0696 -0.1818
  504MOL0     C67928   6.650   5.006   8.007  0.3096  0.9797  0.1224
  504MOL0     O67929   6.746   5.100   7.959  0.7024  0.2580  0.0517
  504MOL0     C67930   6.875   5.099   7.989  0.3917 -0.0108  0.0377
  504MOL0     C67931   6.942   4.998   8.069 -0.0901  0.0479 -0.6359
  504MOL0     C67932   7.074   5.018   8.095 -0.1396  0.9445 -0.2490
  504MOL0     C67933   7.150   5.128   8.058  0.6845  0.2362 -0.2853
  504MOL0     C67934   7.293   5.139   8.096 -0.1553  0.7469 -0.3990
  504MOL0     O67935   7.396   5.078   8.020 -0.1270  0.0892 -0.6404
  504MOL0     C67936   7.362   5.003   7.907  0.0810  0.8169  0.3153
  504MOL0     C67937   7.330   4.863   7.917 -0.3609  0.0021 -0.3583
  504MOL0     C67938   7.326   4.784   7.800 -0.3719  0.1996  0.3717
  504MOL0     C67939   7.349   4.839   7.671  0.2975  0.5133  0.1254
  504MOL0     O67940   7.345   4.756   7.560 -0.0185 -0.5849  0.0808
  504MOL0     C67941   7.249   4.799   7.458 -0.2786 -0.4546  0.0920
  504MOL0     C67942   7.333   4.839   7.342  0.7768 -0.2107  1.1003
  504MOL0     C67943   7.393   4.713   7.274  0.6901 -0.0262  0.5853
  504MOL0     C67944   7.465   4.743   7.138 -0.0943 -0.1301 -0.0813
  504MOL0     C67945   7.530   4.610   7.086  1.3258 -0.0990 -0.5299
  504MOL0     C67946   7.630   4.636   6.975 -0.8863 -0.0902  0.2721
  504MOL0     C67947   7.569   4.696   6.843 -0.5991 -0.3983 -0.7612
  504MOL0     C67948   7.683   4.709   6.741  0.3640  0.3660 -0.6116
  504MOL0    Cl67949   7.619   4.745   6.580  0.2843 -0.2298 -0.1594
  504MOL0     C67950   7.375   4.973   7.671  0.1116 -0.5776  0.7174
  504MOL0     C67951   7.373   5.058   7.778 -1.2690  0.2497 -0.2939
  504MOL0     O67952   7.312   5.221   8.186  0.2423 -0.3461 -0.4684
  504MOL0     C67953   7.088   5.229   7.985 -0.1850 -0.4417  0.9648
  504MOL0     C67954   6.956   5.211   7.947 -0.6062 -0.2342 -0.5684
  504MOL0     N67955   6.561   4.564   7.822 -0.3521 -0.4028 -0.7138
  504MOL0     N67956   6.472   4.484   7.852  0.2238 -0.2337  0.2010
  504MOL0     C67957   5.796   3.583   7.798 -0.4452  0.0508  0.0180
  504MOL0     C67958   5.701   3.482   7.764 -0.0185  0.9243  0.2632
  504MOL0     C67959   5.517   3.083   7.875 -0.2388 -0.0559  0.3164
  504MOL0     C67960   5.593   2.963   7.909  1.1428  0.5986  0.0678
  504MOL0     C67961   5.531   2.835   7.909  0.9814 -0.2288 -0.3027
  504MOL0     C67962   5.393   2.823   7.867  0.0897 -0.4091 -0.0049
  504MOL0     O67963   5.349   2.693   7.871 -0.5390  0.7106  0.4690
  504MOL0     C67964   5.208   2.670   7.874  0.9597  0.7701 -0.3158
  504MOL0     C67965   5.175   2.557   7.982  0.4971 -0.9762  0.1182
  504MOL0     C67966   5.028   2.504   7.964  0.4701  0.6015  0.9051
  504MOL0     C67967   4.974   2.403   8.066  0.5750 -0.3845 -0.4366
  504MOL0     C67968   5.044   2.279   8.048 -0.4714 -0.7171 -0.3960
  504MOL0     C67969   5.127   2.188   8.025  0.1509 -0.4497 -0.4764
  504MOL0     C67970   5.319   2.937   7.832  1.6230 -1.1944 -0.2106
  504MOL0     C67971   5.380   3.066   7.822  0.4944  0.0781 -0.0875
  504MOL0     C67972   5.291   3.189   7.793  0.8592 -0.8887 -0.1381
  504MOL0     H67973   5.510   3.486   8.040 -1.5964  0.5925 -0.4881
  504MOL0     H67974   5.676   3.680   8.113 -1.2451  0.6134 -0.8942
  504MOL0     H67975   6.048   3.685   8.014  1.7529  0.4358 -0.2542
  504MOL0     H67976   6.035   3.691   7.844 -1.0094 -0.8932  0.8996
  504MOL0     H67977   6.093   3.910   7.827 -0.8961  1.4868  0.8586
  504MOL0     H67978   6.173   3.864   7.977 -0.2827 -1.7511  0.5528
  504MOL0     H67979   5.974   3.952   8.107 -2.0571 -2.0013 -1.7614
  504MOL0     H67980   5.904   4.022   7.970  0.0044  0.3210 -0.6032
  504MOL0     H67981   6.017   4.188   8.113 -0.0651 -0.7090  0.5322
  504MOL0     H67982   6.156   4.085   8.125 -0.7566  0.0371  0.6493
  504MOL0     H67983   6.235   4.256   7.996 -2.2905  1.4638  1.8176
  504MOL0     H67984   6.175   4.147   7.860  1.7644  3.9214 -2.7721
  504MOL0     H67985   5.966   4.265   7.861 -0.5532 -0.9750  1.0148
  504MOL0     H67986   6.020   4.379   7.979 -1.2686  0.6375 -1.2503
  504MOL0     H67987   6.067   4.451   7.726 -0.1223 -1.5826 -0.5143
  504MOL0     H67988   6.191   4.319   7.739 -1.3128 -1.2110 -1.9345
  504MOL0     H67989   6.154   4.580   7.874 -2.9074 -2.3175 -0.9100
  504MOL0     H67990   6.236   4.466   7.972  1.4790 -1.4652 -0.7803
  504MOL0     H67991   6.308   4.719   7.698 -2.1697 -3.3113 -2.5604
  504MOL0     H67992   6.669   4.768   7.657 -0.8242  0.3796 -1.0762
  504MOL0     H67993   6.515   4.815   7.593  0.0453 -0.1376 -1.4743
  504MOL0     H67994   6.635   4.986   7.723  2.0784  0.3975  1.6196
  504MOL0     H67995   6.479   4.959   7.796  0.4782 -1.3188  2.4550
  504MOL0     H67996   6.741   4.855   7.897 -0.2835 -2.2952  0.9275
  504MOL0     H67997   6.593   4.798   7.966  1.3871 -0.0859  0.8430
  504MOL0     H67998   6.664   4.973   8.111 -0.5323 -0.8731 -0.3115
  504MOL0     H67999   6.549   5.048   8.011 -0.1898 -0.1176 -0.3565
  504MOL0     H68000   6.896   4.909   8.111  2.5398 -0.4933  1.3285
  504MOL0     H68001   7.129   4.941   8.149  0.5509  1.6004  0.0046
  504MOL0     H68002   7.328   4.818   8.016  3.5024  2.5625  1.1311
  504MOL0     H68003   7.311   4.679   7.822 -1.4900  0.7332  2.4348
  504MOL0     H68004   7.188   4.714   7.426  0.8524 -0.1392 -3.2881
  504MOL0     H68005   7.179   4.877   7.491 -0.0034  0.2513 -0.9530
  504MOL0     H68006   7.267   4.886   7.268  3.1696  1.4591 -0.0903
  504MOL0     H68007   7.402   4.916   7.376 -0.6055  0.4242  2.6304
  504MOL0     H68008   7.469   4.683   7.347  1.9989  0.4547 -0.5358
  504MOL0     H68009   7.315   4.643   7.243 -0.7961  1.8043  0.0125
  504MOL0     H68010   7.550   4.809   7.154  1.7242 -1.3324 -3.6879
  504MOL0     H68011   7.402   4.791   7.062 -0.2867  0.2010  0.2811
  504MOL0     H68012   7.458   4.536   7.048  0.6490  0.5322 -0.4844
  504MOL0     H68013   7.581   4.555   7.166 -0.8025  0.4391  1.2815
  504MOL0     H68014   7.708   4.704   7.010 -0.0594 -1.9634  2.3584
  504MOL0     H68015   7.689   4.545   6.961 -1.3885 -0.1025 -2.3564
  504MOL0     H68016   7.545   4.801   6.860 -2.4043 -0.5897 -1.7980
  504MOL0     H68017   7.475   4.644   6.820 -1.1197  1.3724 -3.0445
  504MOL0     H68018   7.752   4.783   6.782  0.6846 -2.0121  3.7089
  504MOL0     H68019   7.730   4.613   6.720 -0.0730  0.6068 -3.0106
  504MOL0     H68020   7.380   5.025   7.575 -1.1969  1.5723  1.7326
  504MOL0     H68021   7.406   5.159   7.759 -1.0713  0.0186 -1.2425
  504MOL0     H68022   7.147   5.315   7.954 -0.4387 -0.7632 -0.4774
  504MOL0     H68023   6.907   5.296   7.899 -3.0027 -2.0183 -1.5313
  504MOL0     H68024   5.883   3.608   7.739 -0.0255  0.5618  0.8418
  504MOL0     H68025   5.706   3.420   7.676 -1.0904 -0.9946  1.4911
  504MOL0     H68026   5.698   2.967   7.939  0.2570 -0.5440  3.9814
  504MOL0     H68027   5.588   2.747   7.936 -2.0274 -2.4522 -0.7427
  504MOL0     H68028   5.183   2.630   7.775 -0.3625 -0.2425  0.3967
  504MOL0     H68029   5.140   2.752   7.896  0.1143  0.5009 -1.8074
  504MOL0     H68030   5.194   2.592   8.083  1.8093 -0.4629 -0.2789
  504MOL0     H68031   5.248   2.475   7.971  0.0297 -1.4479  0.4986
  504MOL0     H68032   5.028   2.448   7.871  1.3214 -0.9180  1.7648
  504MOL0     H68033   4.969   2.596   7.959  0.5522  0.6368  0.5905
  504MOL0     H68034   4.977   2.438   8.170  0.3430  1.0287 -0.8820
  504MOL0     H68035   4.867   2.384   8.049  0.2758  1.7224 -1.2728
  504MOL0     H68036   5.206   2.120   8.002  1.4119  0.8356 -0.0784
  504MOL0     H68037   5.212   2.923   7.820  0.8326  1.9453  1.7824
  504MOL0     H68038   5.346   3.252   7.723  0.4460 -1.3429 -0.8786
  504MOL0     H68039   5.198   3.162   7.742  0.1161 -1.2134  1.3204
  504MOL0     H68040   5.268   3.242   7.886  3.5099 -1.7910  1.1467
  505MOL0     O68041   0.953  10.946   3.321  0.4047  0.1326  0.2604
  505MOL0     C68042   0.855  11.006   3.282  0.2077  0.0295  1.5670
  505MOL0     O68043   0.820  11.014   3.148 -0.2953 -0.7480 -0.0293
  505MOL0     C68044   0.916  11.030   3.048  0.5773 -0.4615  0.6127
  505MOL0     C68045   1.051  11.070   3.072 -0.1905 -0.0330  0.4636
  505MOL0     C68046   1.145  11.053   2.970 -1.0240  0.1312  0.2178
  505MOL0     C68047   1.099  11.034   2.836 -0.0439  0.2342 -1.0700
  505MOL0     O68048   1.193  11.053   2.731  0.2236 -0.2058 -0.3889
  505MOL0     C68049   1.158  11.000   2.600  0.1050  0.1278  0.3908
  505MOL0     C68050   1.271  11.026   2.510  0.0234  0.0003  0.5994
  505MOL0     C68051   1.385  10.935   2.538 -0.5484  0.6901  1.2245
  505MOL0     C68052   1.517  10.971   2.468 -0.1804  0.4330 -0.7050
  505MOL0     C68053   1.629  10.869   2.516  1.2985 -0.4164 -0.1607
  505MOL0     C68054   1.762  10.908   2.467  0.6260  0.3146  0.8728
  505MOL0     C68055   1.861  10.805   2.535  0.3593 -0.8876 -0.2830
  505MOL0     C68056   2.002  10.851   2.512 -0.8593  0.6347  0.7228
  505MOL0     N68057   2.095  10.770   2.582 -0.5826 -0.4507 -0.3504
  505MOL0     C68058   2.180  10.684   2.522 -0.1743  0.4724 -1.0503
  505MOL0     C68059   2.242  10.643   2.629  0.0846 -0.9060 -0.4864
  505MOL0     C68060   2.363  10.553   2.645  0.4835  0.4811 -0.0918
  505MOL0     C68061   2.368  10.453   2.539 -0.0729 -0.4033 -0.3240
  505MOL0     C68062   2.283  10.330   2.573 -0.2300  0.8359  0.7161
  505MOL0     C68063   2.258  10.236   2.454 -0.3869  0.5835  0.0527
  505MOL0     O68064   2.208  10.303   2.336  0.4914  0.2368 -0.1706
  505MOL0     C68065   2.078  10.352   2.335 -0.2381  0.7861  0.2016
  505MOL0     C68066   2.050  10.457   2.248  0.4324  1.0925 -0.1033
  505MOL0     C68067   1.922  10.527   2.254  0.1252  1.0202  0.2452
  505MOL0     C68068   1.824  10.467   2.343  0.2033  0.8334  0.5268
  505MOL0     C68069   1.686  10.528   2.343 -0.8236  0.3348  0.7305
  505MOL0     O68070   1.663  10.620   2.246  0.2875  0.1560 -0.7437
  505MOL0     C68071   1.532  10.675   2.219  0.1430 -0.5188  0.0090
  505MOL0     C68072   1.411  10.646   2.277 -0.5765 -0.1404 -0.6824
  505MOL0     C68073   1.298  10.717   2.239 -1.2353 -0.1113 -0.7627
  505MOL0     C68074   1.310  10.818   2.134  0.3578  0.2211 -0.3300
  505MOL0     O68075   1.188  10.873   2.095  0.4368  0.5562  0.1825
  505MOL0     C68076   1.194  11.003   2.045  0.0214 -0.1681  0.2175
  505MOL0     C68077   1.049  11.039   2.027  0.0203 -0.2272 -0.2624
  505MOL0     C68078   0.991  11.064   2.164 -0.5534 -0.0486 -0.3690
  505MOL0     C68079   0.839  11.036   2.160 -0.2088 -0.2163  0.6052
  505MOL0     C68080   0.773  11.101   2.281  0.5156  1.0807 -0.5787
  505MOL0     C68081   0.771  11.245   2.288 -0.4739 -0.7330 -0.5830
  505MOL0     C68082   0.665  11.298   2.389 -0.0718 -0.2863 -0.5152
  505MOL0     C68083   0.536  11.320   2.305  0.5088 -0.3573 -0.7179
  505MOL0    Cl68084   0.392  11.332   2.432 -0.0769 -0.2130  0.3586
  505MOL0     C68085   1.436  10.851   2.088 -0.0090 -0.0017 -0.1693
  505MOL0     C68086   1.544  10.786   2.134 -0.7905 -0.0205  0.2317
  505MOL0     O68087   1.604  10.474   2.412  0.5483 -0.5909 -0.1456
  505MOL0     C68088   1.855  10.350   2.408  0.3454  0.8085  0.6647
  505MOL0     C68089   1.982  10.289   2.407  0.2155 -0.5153 -0.3400
  505MOL0     N68090   2.201  10.703   2.746 -0.0776 -0.1838 -0.1247
  505MOL0     N68091   2.100  10.771   2.714  0.4962 -1.3776  0.1934
  505MOL0     C68092   0.966  10.989   2.811 -0.0651 -0.0354 -0.1231
  505MOL0     C68093   0.874  11.002   2.917 -0.2938  0.6296  0.1361
  505MOL0     C68094   0.737  11.028   3.370  0.5782  0.0005 -0.6000
  505MOL0     C68095   0.611  10.983   3.315 -0.2427  0.0612  0.0862
  505MOL0     C68096   0.494  10.990   3.385  0.0947 -0.3240  0.2597
  505MOL0     C68097   0.499  11.036   3.519  0.7412  0.1401  0.4122
  505MOL0     O68098   0.373  11.049   3.579 -0.3099  0.3853  0.1271
  505MOL0     C68099   0.355  11.078   3.718 -1.3965 -0.5534  0.0413
  505MOL0     C68100   0.287  11.210   3.724 -0.0132 -0.2820  0.6567
  505MOL0     C68101   0.357  11.313   3.636 -0.6068 -0.6404  0.0976
  505MOL0     C68102   0.298  11.456   3.656  0.1846  0.3513 -0.0934
  505MOL0     C68103   0.161  11.470   3.616  0.1403  0.0704  0.6753
  505MOL0     C68104   0.038  11.486   3.601 -1.4841 -0.5168 -0.0091
  505MOL0     C68105   0.623  11.073   3.575  0.8081  0.6446 -0.7054
  505MOL0     C68106   0.739  11.064   3.511 -0.2821  0.4190  0.4501
  505MOL0     C68107   0.867  11.117   3.577 -0.1104  0.3609 -0.5639
  505MOL0     H68108   1.080  11.103   3.171 -0.9158  1.8299  0.0978
  505MOL0     H68109   1.248  11.077   2.993 -0.2877  1.0598 -3.3809
  505MOL0     H68110   1.118  10.898   2.601  0.2398  0.0769  0.7524
  505MOL0     H68111   1.078  11.068   2.571  3.3228  3.7626 -0.9148
  505MOL0     H68112   1.304  11.128   2.532 -1.9879  0.5021  1.5196
  505MOL0     H68113   1.248  11.020   2.403 -1.9700  0.0700  0.9782
  505MOL0     H68114   1.362  10.830   2.515  0.2489  1.3112 -3.4217
  505MOL0     H68115   1.392  10.929   2.647 -3.5999 -1.4081  1.4328
  505MOL0     H68116   1.514  10.961   2.359  1.5929 -1.2673 -0.6654
  505MOL0     H68117   1.541  11.072   2.503  2.9935  0.0370 -1.4411
  505MOL0     H68118   1.615  10.860   2.624 -4.0156  0.7626 -0.4606
  505MOL0     H68119   1.594  10.776   2.469 -0.0843  1.0739 -2.2416
  505MOL0     H68120   1.771  10.907   2.358 -0.1932  2.2034  0.7390
  505MOL0     H68121   1.795  11.008   2.498  0.2054  0.4034  1.0512
  505MOL0     H68122   1.840  10.702   2.504  0.4670 -1.0322  0.1143
  505MOL0     H68123   1.848  10.809   2.644  1.8019  0.1302 -0.1179
  505MOL0     H68124   2.033  10.823   2.411  3.0595 -4.7122  2.9581
  505MOL0     H68125   2.008  10.956   2.544 -0.3315  1.3273 -1.4933
  505MOL0     H68126   2.202  10.650   2.422  0.7134 -1.2109 -0.3314
  505MOL0     H68127   2.453  10.615   2.646  0.3739  0.6401 -0.0845
  505MOL0     H68128   2.341  10.494   2.734 -1.8855  1.4590  0.0623
  505MOL0     H68129   2.327  10.499   2.449 -2.1904 -0.4012  0.5839
  505MOL0     H68130   2.471  10.421   2.519  0.6891  1.5054  0.2871
  505MOL0     H68131   2.183  10.357   2.609 -1.4584 -0.0730 -1.7786
  505MOL0     H68132   2.332  10.279   2.657  0.9746  1.9464  0.7083
  505MOL0     H68133   2.193  10.154   2.485  0.6752 -0.9539 -1.5320
  505MOL0     H68134   2.344  10.180   2.414 -2.3126 -1.4796 -1.4138
  505MOL0     H68135   2.138  10.481   2.189  1.2911  1.4750  1.2890
  505MOL0     H68136   1.909  10.609   2.184  0.8616  1.3517  0.4859
  505MOL0     H68137   1.404  10.577   2.361 -1.0235  2.5014  1.5717
  505MOL0     H68138   1.198  10.697   2.276 -2.0915  0.2440 -2.7547
  505MOL0     H68139   1.241  11.074   2.113 -0.0886  0.6710 -0.5612
  505MOL0     H68140   1.244  10.998   1.947  0.9207 -0.9803  0.6999
  505MOL0     H68141   1.034  11.132   1.973  1.2324 -0.2333 -0.6269
  505MOL0     H68142   0.995  10.962   1.971 -2.2705  0.7004  0.5392
  505MOL0     H68143   1.024  10.997   2.244 -1.2589 -2.3019 -1.8957
  505MOL0     H68144   1.007  11.169   2.192  0.0267  0.4257 -2.3286
  505MOL0     H68145   0.822  10.929   2.147  0.2192  0.0345 -2.7241
  505MOL0     H68146   0.798  11.085   2.071  0.7506  0.8006  0.6980
  505MOL0     H68147   0.811  11.076   2.381 -1.1728 -0.6055 -0.2963
  505MOL0     H68148   0.672  11.060   2.277  1.4860 -1.4485 -1.3799
  505MOL0     H68149   0.870  11.283   2.317 -1.1962  1.1339 -0.4015
  505MOL0     H68150   0.752  11.290   2.190  0.5784  0.2830 -0.3446
  505MOL0     H68151   0.692  11.398   2.423 -0.3663 -0.2863 -0.2874
  505MOL0     H68152   0.630  11.233   2.469 -3.7445  3.5595  1.3633
  505MOL0     H68153   0.538  11.411   2.245  0.9262  1.9486  2.5446
  505MOL0     H68154   0.510  11.229   2.250  0.2396 -0.0811 -1.0482
  505MOL0     H68155   1.458  10.937   2.026  2.4566  0.1405  0.7760
  505MOL0     H68156   1.638  10.827   2.101 -0.5030  1.2134  2.4545
  505MOL0     H68157   1.783  10.309   2.479  0.8315 -0.8912  0.2176
  505MOL0     H68158   1.988  10.195   2.461 -0.1816 -2.1078 -2.9423
  505MOL0     H68159   0.930  10.966   2.711 -1.7778  2.2569 -0.1007
  505MOL0     H68160   0.773  10.967   2.898  0.6351 -1.4598 -1.2854
  505MOL0     H68161   0.595  10.947   3.214 -0.5744 -1.6090  0.7119
  505MOL0     H68162   0.399  10.973   3.337  0.8958 -1.3282 -1.0342
  505MOL0     H68163   0.447  11.078   3.778 -1.7460  2.2277  0.7330
  505MOL0     H68164   0.295  11.005   3.772  1.6073 -2.1970  1.4316
  505MOL0     H68165   0.276  11.251   3.825 -1.8171  1.2015 -0.0864
  505MOL0     H68166   0.185  11.198   3.686  0.3167  1.8999 -1.0533
  505MOL0     H68167   0.378  11.276   3.536  0.2421 -1.8860  0.7083
  505MOL0     H68168   0.463  11.327   3.661  0.6598 -1.6254 -3.9494
  505MOL0     H68169   0.306  11.469   3.764 -2.8116  0.4486  0.2231
  505MOL0     H68170   0.358  11.536   3.612  0.2083 -0.6239 -1.9146
  505MOL0     H68171  -0.062  11.521   3.584  0.1391  4.1752 -1.5835
  505MOL0     H68172   0.628  11.119   3.673  0.1716  0.8286 -0.7574
  505MOL0     H68173   0.910  11.204   3.527  3.7260 -1.7338 -1.3035
  505MOL0     H68174   0.855  11.138   3.683 -0.2355  0.8405 -0.6708
  505MOL0     H68175   0.942  11.038   3.569 -1.1751 -0.7367  0.0166
  506MOL0     O68176   4.286   5.934   8.629 -0.7648  0.3376 -0.4580
  506MOL0     C68177   4.391   5.881   8.590 -0.0038 -0.4444  0.2020
  506MOL0     O68178   4.400   5.758   8.540 -0.1072  0.3415 -1.2737
  506MOL0     C68179   4.285   5.686   8.546  0.1548  0.2268 -0.8186
  506MOL0     C68180   4.266   5.580   8.643  0.8340 -0.3254 -0.0436
  506MOL0     C68181   4.157   5.490   8.653  0.3572 -1.4490 -0.6878
  506MOL0     C68182   4.065   5.506   8.544  0.5478  0.3194  0.1736
  506MOL0     O68183   3.957   5.426   8.532 -0.2700 -0.1154  0.3573
  506MOL0     C68184   3.960   5.301   8.589 -0.0978 -0.3340 -0.9409
  506MOL0     C68185   3.864   5.218   8.516 -0.6234  0.0023  0.8098
  506MOL0     C68186   3.719   5.253   8.553 -0.2916 -0.2648 -1.0975
  506MOL0     C68187   3.686   5.254   8.709  0.1628 -0.1293 -0.2946
  506MOL0     C68188   3.549   5.338   8.732 -0.5607  0.0414  0.1890
  506MOL0     C68189   3.418   5.265   8.739  0.1288  0.5290 -0.5992
  506MOL0     C68190   3.290   5.346   8.704 -0.2493  0.0114 -0.1349
  506MOL0     C68191   3.233   5.447   8.807  0.3604  0.2569  0.5359
  506MOL0     N68192   3.330   5.552   8.817  0.0468  0.0040 -0.1476
  506MOL0     C68193   3.399   5.581   8.939 -0.3036  0.0054  0.2758
  506MOL0     C68194   3.497   5.661   8.904  0.0116  0.7134  0.3991
  506MOL0     C68195   3.594   5.705   9.003  0.3203 -0.1101 -0.0468
  506MOL0     C68196   3.695   5.599   9.042 -0.5092  0.1981 -0.1528
  506MOL0     C68197   3.800   5.571   8.936  0.6405 -0.8376  0.5119
  506MOL0     C68198   3.915   5.669   8.945 -0.1369  0.3085  0.0231
  506MOL0     O68199   4.011   5.613   9.040  0.1321 -0.6485  0.1886
  506MOL0     C68200   4.136   5.673   9.047 -0.2933  0.1245 -0.1738
  506MOL0     C68201   4.207   5.669   9.169 -0.5032  0.8730 -0.0334
  506MOL0     C68202   4.343   5.714   9.176 -0.7018  0.0650 -0.3748
  506MOL0     C68203   4.413   5.768   9.062 -0.4703 -0.3609 -0.0745
  506MOL0     C68204   4.556   5.811   9.063 -0.4544  0.7233 -0.4339
  506MOL0     O68205   4.611   5.822   8.934  0.4036  0.0156 -0.3497
  506MOL0     C68206   4.743   5.845   8.908  0.0474  1.1542 -0.0762
  506MOL0     C68207   4.835   5.904   8.993  1.2169 -0.1831 -0.3794
  506MOL0     C68208   4.972   5.908   8.962 -1.4654 -0.2837 -0.0375
  506MOL0     C68209   5.012   5.856   8.835  0.2541  0.6735 -0.3229
  506MOL0     O68210   5.149   5.859   8.822 -0.2837  0.0417 -0.8680
  506MOL0     C68211   5.191   5.986   8.772  0.7562 -0.1659  0.8406
  506MOL0     C68212   5.344   5.970   8.787  0.0307 -0.8124  0.1762
  506MOL0     C68213   5.422   6.086   8.729  0.0467  0.2341  0.6437
  506MOL0     C68214   5.547   6.101   8.827  0.4613  0.1713 -0.7746
  506MOL0     C68215   5.608   6.243   8.823  1.1781  1.0287  0.1042
  506MOL0     C68216   5.705   6.262   8.711 -0.3232 -0.5268 -0.0211
  506MOL0     C68217   5.721   6.420   8.695  0.3697 -0.1118  0.0485
  506MOL0     C68218   5.850   6.451   8.638 -0.4335  0.2120 -0.0820
  506MOL0    Cl68219   5.854   6.612   8.566 -0.0550  0.1721  0.0880
  506MOL0     C68220   4.923   5.813   8.743  0.4514 -0.1950  0.1812
  506MOL0     C68221   4.788   5.799   8.783 -0.0648 -0.6452  1.1429
  506MOL0     O68222   4.617   5.814   9.167  0.3485 -0.2657  0.4775
  506MOL0     C68223   4.326   5.781   8.948  0.7429 -0.2296  0.4820
  506MOL0     C68224   4.200   5.730   8.932 -0.0133  1.0675  0.1545
  506MOL0     N68225   3.490   5.680   8.767 -0.1744 -0.2531  0.4079
  506MOL0     N68226   3.386   5.621   8.720 -0.8683 -0.5216  0.2082
  506MOL0     C68227   4.080   5.606   8.444 -0.1464 -0.0345  0.5493
  506MOL0     C68228   4.186   5.697   8.440  0.3198  0.6956 -0.2443
  506MOL0     C68229   4.517   5.954   8.593  0.5317  0.0872 -0.0732
  506MOL0     C68230   4.621   5.917   8.503  0.1917 -1.5892 -1.4366
  506MOL0     C68231   4.741   5.988   8.496 -0.4476  0.1612 -0.1896
  506MOL0     C68232   4.772   6.090   8.585 -0.1479 -0.1312  0.1362
  506MOL0     O68233   4.883   6.156   8.555 -0.8741  0.7454 -0.3487
  506MOL0     C68234   4.925   6.268   8.633  0.1915  0.2314 -0.2362
  506MOL0     C68235   5.050   6.345   8.598  0.0541 -0.5150 -0.0424
  506MOL0     C68236   5.076   6.390   8.450 -0.2198 -0.7961  0.8703
  506MOL0     C68237   5.185   6.487   8.437  0.7650  0.8023  0.0203
  506MOL0     C68238   5.314   6.415   8.449 -0.2323 -1.0941  0.1513
  506MOL0     C68239   5.428   6.374   8.438 -0.0577 -0.8599  0.9166
  506MOL0     C68240   4.671   6.123   8.680  0.6511  0.1847  0.4357
  506MOL0     C68241   4.540   6.058   8.679 -0.0807  0.5064 -0.3952
  506MOL0     C68242   4.442   6.115   8.773  1.1576 -0.0786 -0.0421
  506MOL0     H68243   4.330   5.542   8.722 -0.3943  0.1012  1.2063
  506MOL0     H68244   4.157   5.412   8.729  2.8879 -2.2084 -1.3516
  506MOL0     H68245   4.058   5.256   8.571  1.0149  0.2574  2.8771
  506MOL0     H68246   3.943   5.309   8.696  0.7719  1.1374 -0.8870
  506MOL0     H68247   3.870   5.111   8.538  2.3135  0.2729  1.7639
  506MOL0     H68248   3.878   5.237   8.409 -0.7342 -3.0447  0.1601
  506MOL0     H68249   3.648   5.188   8.502 -1.6643  0.2837  0.0545
  506MOL0     H68250   3.685   5.347   8.508 -0.4988  0.2288  0.0470
  506MOL0     H68251   3.665   5.154   8.747  2.6371  0.1237  2.0543
  506MOL0     H68252   3.769   5.288   8.772  2.0794 -0.6482 -2.4132
  506MOL0     H68253   3.553   5.378   8.834 -1.3009  1.0527 -0.1639
  506MOL0     H68254   3.549   5.424   8.664  0.9341 -0.7578 -0.8698
  506MOL0     H68255   3.426   5.188   8.661  1.0678 -0.0298  0.0185
  506MOL0     H68256   3.412   5.218   8.837 -2.5668  1.7519 -0.0945
  506MOL0     H68257   3.214   5.270   8.684  1.4061 -1.4825 -1.0118
  506MOL0     H68258   3.318   5.395   8.609 -0.1254 -1.6369 -0.9794
  506MOL0     H68259   3.144   5.484   8.757  1.1865 -2.0922 -3.0316
  506MOL0     H68260   3.215   5.385   8.896  0.1270  0.1304  0.4035
  506MOL0     H68261   3.374   5.554   9.040  0.4798 -0.9066  0.2430
  506MOL0     H68262   3.649   5.792   8.968 -1.9798  0.8035 -1.6016
  506MOL0     H68263   3.547   5.730   9.099 -1.1700  2.6256 -1.3748
  506MOL0     H68264   3.748   5.627   9.134  0.3187 -0.3332 -0.4549
  506MOL0     H68265   3.641   5.506   9.065 -0.5932  0.6760  1.7515
  506MOL0     H68266   3.757   5.582   8.836  0.5053 -1.5542  0.4908
  506MOL0     H68267   3.825   5.465   8.938  0.0750 -1.0832 -2.3190
  506MOL0     H68268   3.894   5.774   8.965  1.3328  0.7712 -0.7230
  506MOL0     H68269   3.949   5.671   8.841 -2.4323  2.8251 -0.7716
  506MOL0     H68270   4.170   5.630   9.263  3.5417 -0.4727  1.2050
  506MOL0     H68271   4.398   5.703   9.268 -0.4780  1.1393 -0.3655
  506MOL0     H68272   4.791   5.954   9.078  2.4221  1.4033 -0.6230
  506MOL0     H68273   5.044   5.945   9.034  2.5449 -3.0470 -2.2478
  506MOL0     H68274   5.144   6.002   8.675 -0.4467  2.0374  1.7077
  506MOL0     H68275   5.157   6.066   8.839  0.3523  1.7508 -1.5166
  506MOL0     H68276   5.364   5.961   8.895 -2.2257  1.9358  0.9323
  506MOL0     H68277   5.385   5.880   8.740 -0.0562 -0.1669 -1.1837
  506MOL0     H68278   5.454   6.075   8.625 -0.6867 -0.1102  0.4499
  506MOL0     H68279   5.366   6.180   8.736  0.6041  0.8175 -1.7902
  506MOL0     H68280   5.616   6.018   8.812  0.6400 -0.6418  3.4137
  506MOL0     H68281   5.507   6.090   8.928  2.2307  1.5878  0.1344
  506MOL0     H68282   5.672   6.246   8.912 -0.7221  0.6322  1.5551
  506MOL0     H68283   5.539   6.327   8.837  0.0451  0.0784  0.3796
  506MOL0     H68284   5.802   6.220   8.738 -1.4854 -2.0581  1.9555
  506MOL0     H68285   5.669   6.228   8.613  1.2272  1.4047 -1.3488
  506MOL0     H68286   5.706   6.482   8.784  0.2307  0.6675 -0.5072
  506MOL0     H68287   5.638   6.451   8.631  0.3148 -0.1798  0.0862
  506MOL0     H68288   5.927   6.453   8.715  0.7005 -0.6703 -1.1394
  506MOL0     H68289   5.877   6.381   8.557 -2.3737 -1.0081  0.2579
  506MOL0     H68290   4.960   5.778   8.647  1.5186  1.2954  0.0236
  506MOL0     H68291   4.722   5.776   8.700  1.1051 -1.6700  0.4726
  506MOL0     H68292   4.370   5.832   8.863  0.6947  0.5311  0.9010
  506MOL0     H68293   4.159   5.738   8.832  1.1484  4.7479 -0.1636
  506MOL0     H68294   4.013   5.615   8.360  0.3536 -0.3360  0.1185
  506MOL0     H68295   4.188   5.767   8.357  0.4834  0.8944 -0.0736
  506MOL0     H68296   4.615   5.849   8.420  0.7006 -0.3416 -2.5244
  506MOL0     H68297   4.806   5.963   8.413  0.1739  2.1055 -0.3322
  506MOL0     H68298   4.941   6.227   8.733  0.6191 -0.2885 -0.5184
  506MOL0     H68299   4.837   6.333   8.626  0.6485  1.0987  1.5065
  506MOL0     H68300   5.137   6.290   8.635  0.0462 -0.3070  0.2888
  506MOL0     H68301   5.038   6.434   8.660 -0.9670  0.0579 -1.0192
  506MOL0     H68302   4.987   6.448   8.425 -0.4194 -0.1682  2.9210
  506MOL0     H68303   5.091   6.301   8.387  2.3383 -1.0264  1.6809
  506MOL0     H68304   5.180   6.530   8.337 -1.0589  1.6830  0.4492
  506MOL0     H68305   5.167   6.559   8.517  2.0000  2.4692 -1.1355
  506MOL0     H68306   5.523   6.323   8.430  0.7269  0.3770  2.0368
  506MOL0     H68307   4.687   6.215   8.735  1.4155 -0.0854  0.6641
  506MOL0     H68308   4.394   6.038   8.834  3.9126 -2.1221 -0.2557
  506MOL0     H68309   4.471   6.199   8.837  1.3614  0.2078 -0.5050
  506MOL0     H68310   4.366   6.164   8.712 -0.2417  1.2163  2.5695
  507MOL0     O68311   3.809   7.711   5.994 -0.2975  0.0365  0.2954
  507MOL0     C68312   3.807   7.823   6.049  0.3855 -0.3315  1.1669
  507MOL0     O68313   3.916   7.904   6.057  0.1414  0.9073 -0.0846
  507MOL0     C68314   4.042   7.846   6.035 -0.3492  0.0538 -0.4827
  507MOL0     C68315   4.099   7.830   5.908 -0.0672  0.0055 -0.0630
  507MOL0     C68316   4.230   7.772   5.894  0.0508  0.0585 -0.3772
  507MOL0     C68317   4.288   7.713   6.005 -0.4225 -0.1449 -0.7012
  507MOL0     O68318   4.404   7.640   6.011 -0.1114 -0.5233 -0.4207
  507MOL0     C68319   4.471   7.611   5.893 -0.9730  0.2723 -0.4314
  507MOL0     C68320   4.580   7.515   5.928  0.2042  0.0953 -0.7236
  507MOL0     C68321   4.703   7.520   5.835  0.3239 -0.1510 -0.3679
  507MOL0     C68322   4.794   7.633   5.860  0.1513 -0.6922  0.7674
  507MOL0     C68323   4.933   7.605   5.813  0.6037  0.1504  0.0857
  507MOL0     C68324   5.015   7.529   5.913 -0.5860 -0.2975  0.4014
  507MOL0     C68325   5.167   7.527   5.886  0.3372 -0.3552  0.7448
  507MOL0     C68326   5.238   7.665   5.894 -0.8567 -0.4039  0.4644
  507MOL0     N68327   5.388   7.649   5.924  0.2321 -0.2453  0.2796
  507MOL0     C68328   5.449   7.582   6.031 -1.3360 -0.3854 -0.6826
  507MOL0     C68329   5.584   7.599   6.010 -0.0060 -0.6277  0.4048
  507MOL0     C68330   5.693   7.522   6.078 -0.3656  0.0971  0.3703
  507MOL0     C68331   5.829   7.538   6.010 -0.3247  0.4014 -0.1111
  507MOL0     C68332   5.939   7.467   6.091 -0.4447  0.1011 -0.7338
  507MOL0     C68333   6.019   7.559   6.179 -0.3843 -0.5046  0.7629
  507MOL0     O68334   6.103   7.641   6.085  0.0322 -0.4310  0.8103
  507MOL0     C68335   6.232   7.675   6.112 -0.2944 -0.4297  0.7941
  507MOL0     C68336   6.282   7.685   6.241 -0.0467  0.1936 -0.9768
  507MOL0     C68337   6.414   7.720   6.266 -0.0297 -0.3013 -0.4782
  507MOL0     C68338   6.500   7.770   6.163 -0.0157  0.7510 -0.4407
  507MOL0     C68339   6.643   7.813   6.193 -0.4664  0.5635  0.3321
  507MOL0     O68340   6.690   7.793   6.315  0.2841 -0.0902 -0.9971
  507MOL0     C68341   6.810   7.850   6.353  0.4589  0.9045  0.2428
  507MOL0     C68342   6.813   7.968   6.424 -0.7084 -0.1037  0.5953
  507MOL0     C68343   6.929   8.022   6.475 -0.9706  0.5898  0.5722
  507MOL0     C68344   7.049   7.954   6.458 -0.4634  0.2448  0.1967
  507MOL0     O68345   7.165   8.005   6.521  0.1959 -0.0208  0.0089
  507MOL0     C68346   7.158   8.026   6.660  0.7266  0.0315  0.3071
  507MOL0     C68347   7.290   7.979   6.730  0.3030 -0.0471  0.1265
  507MOL0     C68348   7.402   8.083   6.715 -0.1228  0.4170  0.2537
  507MOL0     C68349   7.545   8.035   6.679 -0.1459 -0.0847  0.1361
  507MOL0     C68350   7.593   7.952   6.790  0.3711 -0.7283 -0.5806
  507MOL0     C68351   7.741   7.916   6.756 -0.7893 -0.5849 -0.5711
  507MOL0     C68352   7.818   7.865   6.874 -0.6264  0.1108 -0.5127
  507MOL0     C68353   7.967   7.833   6.856 -0.0882 -0.7098  0.0911
  507MOL0    Cl68354   8.058   7.823   7.006 -0.1649 -0.2180  0.0280
  507MOL0     C68355   7.053   7.836   6.374 -0.3943  0.8139 -0.0642
  507MOL0     C68356   6.934   7.787   6.323  0.5968  0.7832  0.5963
  507MOL0     O68357   6.706   7.867   6.097  0.4895 -0.1962 -0.4887
  507MOL0     C68358   6.436   7.780   6.035 -0.3443 -0.1058  0.0406
  507MOL0     C68359   6.313   7.721   6.010 -0.1302 -0.7775  0.7283
  507MOL0     N68360   5.589   7.707   5.918  0.3982 -0.5701  0.6150
  507MOL0     N68361   5.475   7.731   5.856 -0.5284  0.4855 -0.2004
  507MOL0     C68362   4.229   7.724   6.132 -0.5710 -0.2504  0.1200
  507MOL0     C68363   4.109   7.785   6.138 -0.3188 -0.3184  0.1183
  507MOL0     C68364   3.676   7.878   6.097  0.0059 -0.3212  0.1143
  507MOL0     C68365   3.557   7.824   6.036  0.3144  0.0182 -0.4770
  507MOL0     C68366   3.427   7.866   6.076  0.7396 -0.3647  0.3667
  507MOL0     C68367   3.408   7.964   6.177 -0.0853  0.2594  0.4465
  507MOL0     O68368   3.286   8.012   6.227  0.4195  0.4528  0.1393
  507MOL0     C68369   3.162   7.984   6.157 -0.2708 -0.4359  0.7690
  507MOL0     C68370   3.063   7.873   6.207 -0.1807  0.3048  0.4773
  507MOL0     C68371   3.107   7.732   6.169 -0.0067 -0.3304 -0.2860
  507MOL0     C68372   3.022   7.616   6.216  0.2553  1.0476 -0.0973
  507MOL0     C68373   3.044   7.488   6.137  0.6580  0.4061  0.4845
  507MOL0     C68374   3.072   7.393   6.066 -0.4172 -0.4212  0.1518
  507MOL0     C68375   3.526   8.002   6.234  0.5181  0.5186  1.0053
  507MOL0     C68376   3.660   7.971   6.197 -0.0515 -0.7023  0.0309
  507MOL0     C68377   3.780   8.028   6.273  0.0819 -0.2839  0.0356
  507MOL0     H68378   4.063   7.881   5.819  0.2214 -1.6142 -1.1488
  507MOL0     H68379   4.277   7.774   5.796 -0.1882  0.9305 -0.4804
  507MOL0     H68380   4.408   7.566   5.816 -1.4696 -2.4598  1.4332
  507MOL0     H68381   4.507   7.706   5.852 -0.5392  0.0100 -0.6717
  507MOL0     H68382   4.535   7.416   5.919  0.3794  0.1774 -2.9278
  507MOL0     H68383   4.614   7.524   6.032 -1.1339 -0.4667 -0.2175
  507MOL0     H68384   4.682   7.529   5.728  1.6072  0.7992 -0.5589
  507MOL0     H68385   4.754   7.424   5.852 -0.8013 -1.2697 -2.8161
  507MOL0     H68386   4.750   7.714   5.801 -3.3787 -3.4824 -0.8830
  507MOL0     H68387   4.802   7.658   5.966  0.4242 -1.5143  0.9500
  507MOL0     H68388   4.920   7.549   5.719  0.6671  0.5166 -0.1428
  507MOL0     H68389   4.985   7.699   5.795 -1.2235  1.0037 -1.0174
  507MOL0     H68390   5.003   7.579   6.010  2.3369  2.5219 -0.5276
  507MOL0     H68391   4.976   7.427   5.912 -1.5885  0.0598 -1.6698
  507MOL0     H68392   5.181   7.492   5.783 -0.8485  1.0988  0.0496
  507MOL0     H68393   5.214   7.450   5.948 -1.0290 -0.6214  1.4829
  507MOL0     H68394   5.225   7.720   5.800  1.8104 -0.2396  0.1270
  507MOL0     H68395   5.185   7.716   5.976  0.0734 -0.2060  0.9555
  507MOL0     H68396   5.399   7.521   6.106 -0.4271 -1.0274 -0.5784
  507MOL0     H68397   5.704   7.552   6.183  0.7892 -1.7014  0.8096
  507MOL0     H68398   5.664   7.417   6.084  0.8756 -0.3441 -0.8091
  507MOL0     H68399   5.833   7.519   5.902 -1.0028  3.3809 -0.7415
  507MOL0     H68400   5.862   7.642   6.017  2.2639 -0.2251 -1.3913
  507MOL0     H68401   6.014   7.421   6.027  2.1805  3.1835 -0.1044
  507MOL0     H68402   5.897   7.377   6.136  1.4897 -1.1622 -1.3796
  507MOL0     H68403   6.083   7.503   6.249 -2.2313 -3.0770  0.5171
  507MOL0     H68404   5.952   7.622   6.238 -0.4339  0.3096 -0.1258
  507MOL0     H68405   6.221   7.654   6.325  0.1230 -1.5302 -1.4565
  507MOL0     H68406   6.441   7.723   6.371 -1.8810 -2.4413  0.1307
  507MOL0     H68407   6.718   8.019   6.440 -0.2135  0.6264  1.2480
  507MOL0     H68408   6.926   8.113   6.533 -1.4723  0.5873  0.5586
  507MOL0     H68409   7.139   8.132   6.675 -2.4488 -0.4518  0.3772
  507MOL0     H68410   7.078   7.963   6.701  0.5511 -1.5099 -2.1893
  507MOL0     H68411   7.264   7.957   6.834 -1.8718  2.5520  0.2614
  507MOL0     H68412   7.324   7.891   6.675  1.2134  1.2876 -1.5509
  507MOL0     H68413   7.377   8.163   6.644  0.9682  0.5380 -0.0042
  507MOL0     H68414   7.414   8.129   6.813  1.1066 -3.2773  2.0006
  507MOL0     H68415   7.614   8.119   6.668  1.1561 -1.0261  0.8141
  507MOL0     H68416   7.546   7.971   6.590 -0.0713 -2.2885  1.6230
  507MOL0     H68417   7.521   7.872   6.808 -1.5387  1.1349  0.4983
  507MOL0     H68418   7.590   8.009   6.883 -0.9793 -0.3580 -0.8304
  507MOL0     H68419   7.747   7.833   6.685 -0.6723 -1.5088  0.4978
  507MOL0     H68420   7.797   8.004   6.723 -1.0844 -0.8586 -1.8442
  507MOL0     H68421   7.770   7.772   6.907 -0.0344 -0.5491 -1.4767
  507MOL0     H68422   7.810   7.938   6.956 -1.1763  3.3593 -3.2648
  507MOL0     H68423   7.975   7.728   6.824  1.0224 -1.3262  2.1480
  507MOL0     H68424   8.013   7.892   6.776 -1.1815  0.1633  0.0835
  507MOL0     H68425   7.141   7.778   6.348 -0.4836  0.9697 -0.7490
  507MOL0     H68426   6.934   7.692   6.269 -0.5015  2.3324 -2.3528
  507MOL0     H68427   6.494   7.827   5.956  0.5099  0.5661  1.0378
  507MOL0     H68428   6.269   7.740   5.913 -0.2129  0.1871  0.9452
  507MOL0     H68429   4.265   7.664   6.215 -4.3502 -3.6976 -0.4502
  507MOL0     H68430   4.068   7.793   6.239 -2.9844  0.6746 -0.9513
  507MOL0     H68431   3.547   7.753   5.954 -2.3560  1.7316 -1.7743
  507MOL0     H68432   3.353   7.798   6.035 -1.1665  0.9730  1.4873
  507MOL0     H68433   3.180   7.953   6.053 -0.2411  0.9100  0.3532
  507MOL0     H68434   3.109   8.078   6.140  2.0012  0.5658 -1.3232
  507MOL0     H68435   2.961   7.885   6.171  0.1224 -1.0703 -0.9542
  507MOL0     H68436   3.057   7.861   6.315 -2.7407 -4.4050  0.0600
  507MOL0     H68437   3.204   7.712   6.214  1.2525  2.8442 -1.3134
  507MOL0     H68438   3.113   7.717   6.061  0.1201 -3.8893  0.1054
  507MOL0     H68439   3.047   7.587   6.319  1.0225  0.6418 -0.3905
  507MOL0     H68440   2.918   7.651   6.210 -0.7834 -1.6124  0.9955
  507MOL0     H68441   3.091   7.307   6.006 -0.1059  0.1211 -0.5427
  507MOL0     H68442   3.528   8.072   6.317  2.9526 -2.6544  3.9144
  507MOL0     H68443   3.842   7.959   6.332  1.2893  1.7750  1.2957
  507MOL0     H68444   3.831   8.086   6.196  0.5762  0.9358  1.2361
  507MOL0     H68445   3.752   8.103   6.348  0.6472 -1.4655  1.5054
  508MOL0     O68446   0.422   5.133   5.613  0.1343  0.3175 -0.0687
  508MOL0     C68447   0.343   5.118   5.707 -0.1894  0.5415  0.5303
  508MOL0     O68448   0.374   5.053   5.818 -0.1248  0.8785  0.1704
  508MOL0     C68449   0.506   5.053   5.859  0.0462 -0.0235  1.3875
  508MOL0     C68450   0.542   5.124   5.967  0.5544  0.1719  0.4216
  508MOL0     C68451   0.672   5.122   6.002 -0.5363 -0.9801 -0.7701
  508MOL0     C68452   0.770   5.059   5.924  0.0860  0.6073  0.1227
  508MOL0     O68453   0.898   5.060   5.971  0.0082  0.7984 -0.0748
  508MOL0     C68454   1.005   5.079   5.880  0.2441  0.4971 -0.2953
  508MOL0     C68455   1.124   4.995   5.933 -0.0758  0.0283  0.1336
  508MOL0     C68456   1.249   5.036   5.861  0.1036  0.9366 -0.5798
  508MOL0     C68457   1.369   4.951   5.902 -0.3031  0.0874 -0.3755
  508MOL0     C68458   1.500   4.990   5.842 -0.9497 -0.5558 -0.1684
  508MOL0     C68459   1.546   5.126   5.887  0.1823  0.0954  0.5092
  508MOL0     C68460   1.684   5.155   5.825  0.2057  0.4795 -0.6069
  508MOL0     C68461   1.743   5.289   5.880 -0.2077  0.7073  0.5461
  508MOL0     N68462   1.757   5.293   6.026  0.2411  0.5710  0.6691
  508MOL0     C68463   1.854   5.219   6.091  0.4642  0.2663 -0.0860
  508MOL0     C68464   1.859   5.272   6.215  0.0475  0.0745  0.5657
  508MOL0     C68465   1.962   5.233   6.317  0.4964 -0.4974  0.1203
  508MOL0     C68466   2.102   5.231   6.266  0.7275  0.1964  0.0773
  508MOL0     C68467   2.200   5.193   6.373 -0.6608  0.4064  0.3678
  508MOL0     C68468   2.335   5.209   6.325 -0.5510  0.1054 -0.8592
  508MOL0     O68469   2.368   5.338   6.276 -1.3022  0.1378  0.0028
  508MOL0     C68470   2.500   5.367   6.265  0.1878 -0.3848  0.2705
  508MOL0     C68471   2.526   5.495   6.220 -1.0546 -0.9164 -0.0368
  508MOL0     C68472   2.658   5.543   6.224 -0.3418  0.3588 -0.2622
  508MOL0     C68473   2.768   5.458   6.269 -0.2751  0.1266  0.6182
  508MOL0     C68474   2.911   5.520   6.276 -0.0724  0.3555 -0.2359
  508MOL0     O68475   3.022   5.438   6.289 -0.0032 -0.6897  0.9609
  508MOL0     C68476   3.134   5.505   6.341 -0.9917  0.9817  0.7081
  508MOL0     C68477   3.253   5.521   6.261  0.8422  1.2679  0.0886
  508MOL0     C68478   3.360   5.598   6.312 -1.4360  0.6015 -0.3741
  508MOL0     C68479   3.357   5.648   6.444  0.0872 -0.2294  0.6375
  508MOL0     O68480   3.461   5.736   6.473  0.2736  0.9710 -0.2951
  508MOL0     C68481   3.475   5.759   6.615 -0.3325  0.2270  1.1965
  508MOL0     C68482   3.622   5.788   6.647  0.0114 -0.1708  0.5335
  508MOL0     C68483   3.721   5.666   6.644  0.5086  0.3720  0.4555
  508MOL0     C68484   3.793   5.667   6.509 -0.6897  0.2703 -0.6087
  508MOL0     C68485   3.906   5.566   6.514 -0.7461 -0.2851 -0.8616
  508MOL0     C68486   4.027   5.622   6.438  0.7518 -0.3313 -0.3278
  508MOL0     C68487   4.146   5.556   6.503  0.0172 -0.6621 -0.0586
  508MOL0     C68488   4.282   5.612   6.453  0.1753  1.1294 -0.1199
  508MOL0    Cl68489   4.293   5.559   6.273 -0.0543  0.0359  0.2301
  508MOL0     C68490   3.240   5.636   6.520 -0.3818  0.0405 -0.7361
  508MOL0     C68491   3.130   5.565   6.471 -0.4445 -0.3791 -0.1954
  508MOL0     O68492   2.907   5.641   6.278 -0.3194 -0.7163 -0.1802
  508MOL0     C68493   2.738   5.332   6.302 -0.2252 -0.0049 -0.8357
  508MOL0     C68494   2.604   5.287   6.305  0.1477 -0.1804  0.0237
  508MOL0     N68495   1.757   5.362   6.223  0.3947  0.0555  0.8323
  508MOL0     N68496   1.691   5.378   6.111 -0.7777 -0.3049 -0.3370
  508MOL0     C68497   0.731   4.986   5.813 -0.0558  0.7246  0.5711
  508MOL0     C68498   0.596   4.981   5.784 -1.1160 -0.2668  0.1346
  508MOL0     C68499   0.203   5.168   5.687  0.5041 -0.7906  0.4649
  508MOL0     C68500   0.104   5.146   5.784 -0.4568 -0.5312 -0.9217
  508MOL0     C68501  -0.027   5.171   5.757  0.2810  0.1878  0.0009
  508MOL0     C68502  -0.071   5.229   5.642  0.5029 -0.2017 -0.1700
  508MOL0     O68503  -0.204   5.258   5.606  0.0955  0.2151  0.7062
  508MOL0     C68504  -0.309   5.230   5.703 -1.5636  0.0003  0.4056
  508MOL0     C68505  -0.445   5.239   5.640  0.3652 -1.2422 -0.3330
  508MOL0     C68506  -0.462   5.126   5.533 -0.0914  0.1478 -0.1077
  508MOL0     C68507  -0.597   5.139   5.459 -0.8903  0.2157  0.0696
  508MOL0     C68508  -0.699   5.147   5.558  0.2069 -0.0765 -1.2993
  508MOL0     C68509  -0.786   5.172   5.641 -0.4629  0.5537 -0.7789
  508MOL0     C68510   0.022   5.260   5.549  0.2536  0.3691 -0.5269
  508MOL0     C68511   0.157   5.235   5.558 -0.2549 -0.6485 -1.0003
  508MOL0     C68512   0.260   5.273   5.449  0.0721 -0.2924  0.2181
  508MOL0     H68513   0.468   5.181   6.024  1.9389  1.4385  1.0194
  508MOL0     H68514   0.704   5.161   6.098  1.5439  1.5305 -2.3344
  508MOL0     H68515   0.972   5.046   5.780  0.5803 -0.8441  0.0175
  508MOL0     H68516   1.020   5.187   5.876 -1.5690  0.7888 -0.1652
  508MOL0     H68517   1.105   4.890   5.910 -0.0946  0.5002 -2.2803
  508MOL0     H68518   1.132   5.007   6.041  2.0553 -1.5693  0.2142
  508MOL0     H68519   1.264   5.141   5.889  2.5349  0.5392 -0.1341
  508MOL0     H68520   1.224   5.030   5.755  1.6973  0.7454 -0.9753
  508MOL0     H68521   1.375   4.955   6.011 -0.0909 -1.5426 -0.3025
  508MOL0     H68522   1.344   4.846   5.883  2.2688 -1.3791  3.1624
  508MOL0     H68523   1.571   4.914   5.876 -1.2431  0.2618  2.4876
  508MOL0     H68524   1.505   4.986   5.733  2.3626  1.3045 -0.1975
  508MOL0     H68525   1.484   5.209   5.851 -0.3285 -0.8154 -0.7692
  508MOL0     H68526   1.546   5.124   5.996 -0.9447  2.2613  0.6088
  508MOL0     H68527   1.664   5.156   5.717 -2.0484 -3.3292 -0.3632
  508MOL0     H68528   1.751   5.071   5.846  0.2564  0.7286  0.2610
  508MOL0     H68529   1.841   5.311   5.837  0.0644 -2.6496 -0.8322
  508MOL0     H68530   1.676   5.371   5.854 -2.4187 -1.0881  0.2118
  508MOL0     H68531   1.922   5.143   6.055 -0.6115 -0.9309  0.3327
  508MOL0     H68532   1.965   5.309   6.396  0.2798 -0.0071 -0.3436
  508MOL0     H68533   1.934   5.133   6.352 -2.3697 -0.1957 -1.1063
  508MOL0     H68534   2.117   5.162   6.182  0.5839  2.3641 -1.8187
  508MOL0     H68535   2.130   5.328   6.224  2.1426 -1.1892 -2.4896
  508MOL0     H68536   2.181   5.086   6.388 -0.5240 -0.2302 -3.1012
  508MOL0     H68537   2.182   5.250   6.464  0.8031  1.6018 -0.0489
  508MOL0     H68538   2.364   5.126   6.260  0.2691 -0.4335  0.1582
  508MOL0     H68539   2.400   5.194   6.411  0.9375  0.2538 -1.9322
  508MOL0     H68540   2.459   5.562   6.168  2.0288  1.4090 -1.3773
  508MOL0     H68541   2.685   5.642   6.188  0.3764 -0.4279 -2.0211
  508MOL0     H68542   3.262   5.482   6.161  1.1364 -2.1734  1.3236
  508MOL0     H68543   3.449   5.609   6.250 -0.8081  2.0799  0.7314
  508MOL0     H68544   3.403   5.837   6.641  1.1552  1.9500  0.4057
  508MOL0     H68545   3.453   5.665   6.667  1.2205 -1.5770 -1.1820
  508MOL0     H68546   3.660   5.862   6.576  0.9708  1.2784  2.4554
  508MOL0     H68547   3.624   5.824   6.750 -1.7785 -0.7150  0.7900
  508MOL0     H68548   3.793   5.678   6.725  0.7128  1.8870  0.0955
  508MOL0     H68549   3.657   5.577   6.648 -0.8168  1.2395 -0.3494
  508MOL0     H68550   3.839   5.765   6.495  0.0579 -0.3502 -2.7657
  508MOL0     H68551   3.731   5.642   6.422  0.7578 -0.0300 -1.5923
  508MOL0     H68552   3.864   5.476   6.468 -2.4721  1.2986 -2.5697
  508MOL0     H68553   3.940   5.545   6.616  2.4358  1.3476 -1.4524
  508MOL0     H68554   4.030   5.614   6.329  0.8803 -0.8403 -0.2885
  508MOL0     H68555   4.038   5.725   6.475  0.3565 -0.2828 -0.3381
  508MOL0     H68556   4.136   5.449   6.484  1.6259 -1.4689  2.9989
  508MOL0     H68557   4.148   5.557   6.612  1.2916 -3.7172  0.0309
  508MOL0     H68558   4.295   5.721   6.458 -0.3787  1.4344 -3.2783
  508MOL0     H68559   4.368   5.565   6.502 -0.3896  0.3172  0.1150
  508MOL0     H68560   3.226   5.693   6.611 -1.2787 -1.1431 -0.1070
  508MOL0     H68561   3.044   5.544   6.534  0.4380 -0.1065  1.1542
  508MOL0     H68562   2.821   5.263   6.315  0.9120  0.6372 -3.8112
  508MOL0     H68563   2.588   5.179   6.308 -0.4177 -0.1086 -0.2819
  508MOL0     H68564   0.802   4.935   5.748  0.4006  1.5605  0.4037
  508MOL0     H68565   0.572   4.908   5.708 -0.3972  0.8342 -1.2010
  508MOL0     H68566   0.139   5.111   5.881 -0.5506  2.4762  0.3130
  508MOL0     H68567  -0.107   5.140   5.824 -0.9590  1.3868 -0.8761
  508MOL0     H68568  -0.297   5.312   5.774  0.5742  1.5862 -1.6234
  508MOL0     H68569  -0.297   5.130   5.745  1.8066  0.5104  0.9684
  508MOL0     H68570  -0.474   5.334   5.595  0.7832 -0.9955 -0.0937
  508MOL0     H68571  -0.512   5.208   5.720 -1.5886 -0.7325 -1.7067
  508MOL0     H68572  -0.451   5.023   5.569 -1.7496 -0.0093  0.0122
  508MOL0     H68573  -0.388   5.137   5.454 -0.1974 -1.3924 -0.4576
  508MOL0     H68574  -0.596   5.236   5.409  2.9029  0.5959  0.5466
  508MOL0     H68575  -0.626   5.060   5.389 -5.6327  0.0125  1.9084
  508MOL0     H68576  -0.870   5.187   5.707 -0.5551  0.3672 -0.8552
  508MOL0     H68577  -0.013   5.308   5.458  0.1267 -1.3409 -1.4201
  508MOL0     H68578   0.297   5.190   5.389 -1.1139 -0.5681 -0.1511
  508MOL0     H68579   0.212   5.342   5.380  2.3020  1.3865  0.2149
  508MOL0     H68580   0.337   5.339   5.491 -1.3282  1.6538 -0.0954
  509MOL0     O68581   4.930   1.748   3.223  0.2957 -0.9068 -0.2136
  509MOL0     C68582   4.866   1.704   3.131 -0.5239 -0.0670  0.2102
  509MOL0     O68583   4.919   1.630   3.031  0.7711  0.3466  0.0584
  509MOL0     C68584   5.051   1.625   3.018 -0.4022  0.4996  0.2954
  509MOL0     C68585   5.131   1.743   3.022 -1.1473  0.2157  0.1785
  509MOL0     C68586   5.267   1.739   2.994 -0.0180 -0.7578 -0.3198
  509MOL0     C68587   5.327   1.612   2.970  0.1844 -0.1075  0.4795
  509MOL0     O68588   5.462   1.617   2.942  0.4198 -0.5865  1.3970
  509MOL0     C68589   5.534   1.500   2.903 -0.2940  0.0968 -0.2193
  509MOL0     C68590   5.687   1.519   2.882 -0.1446  0.2944  0.1925
  509MOL0     C68591   5.719   1.604   2.760  0.8464 -0.0007 -0.2266
  509MOL0     C68592   5.852   1.678   2.760 -0.5102  0.0994 -0.0211
  509MOL0     C68593   5.882   1.758   2.627  0.2885  0.2712 -0.7416
  509MOL0     C68594   5.865   1.687   2.479  0.4253 -0.0505  0.4122
  509MOL0     C68595   5.911   1.538   2.457 -0.1679  0.0521  0.1677
  509MOL0     C68596   6.056   1.520   2.476 -0.0119  0.2854  0.3708
  509MOL0     N68597   6.114   1.391   2.431 -0.2036  0.7940 -0.1483
  509MOL0     C68598   6.099   1.269   2.505  0.2984 -0.5862 -0.2264
  509MOL0     C68599   6.198   1.189   2.442 -0.2364  0.5036 -0.3253
  509MOL0     C68600   6.241   1.050   2.466 -0.0951 -0.2573  0.2375
  509MOL0     C68601   6.129   0.964   2.421  0.1164 -0.2282 -0.1763
  509MOL0     C68602   6.151   0.819   2.465  0.1989  0.3746 -0.7207
  509MOL0     C68603   6.040   0.732   2.420 -0.6173 -0.7267  0.5479
  509MOL0     O68604   5.909   0.758   2.490  0.1639  0.4843 -0.0916
  509MOL0     C68605   5.796   0.803   2.423 -0.0762  0.3603 -0.1538
  509MOL0     C68606   5.805   0.883   2.310  0.0568  0.2794 -0.2620
  509MOL0     C68607   5.689   0.936   2.250  0.0664  0.0582  0.5098
  509MOL0     C68608   5.561   0.922   2.316 -1.2417  0.3356  0.1645
  509MOL0     C68609   5.441   0.972   2.247  0.0973  0.6460  0.3767
  509MOL0     O68610   5.320   0.965   2.302 -0.3553 -0.1477  0.3984
  509MOL0     C68611   5.207   1.009   2.233  0.8723  0.4046 -0.7971
  509MOL0     C68612   5.106   0.915   2.197  0.3182 -0.6679 -0.2724
  509MOL0     C68613   4.983   0.950   2.147 -0.4111 -0.7043 -0.2762
  509MOL0     C68614   4.954   1.089   2.136 -0.5710 -1.0944  0.3825
  509MOL0     O68615   4.833   1.154   2.111 -0.3178  0.6317 -0.1637
  509MOL0     C68616   4.715   1.067   2.127 -0.5728 -0.6112  0.1262
  509MOL0     C68617   4.588   1.132   2.080  0.4112  0.3978  1.0302
  509MOL0     C68618   4.548   1.247   2.180 -1.0733 -1.0403  0.0689
  509MOL0     C68619   4.432   1.328   2.117  0.4905  0.0371  0.1323
  509MOL0     C68620   4.376   1.434   2.218  0.0255  0.3316 -0.3260
  509MOL0     C68621   4.304   1.548   2.151 -0.8356  1.1966 -0.2363
  509MOL0     C68622   4.232   1.634   2.256 -0.0513  0.4673 -0.1096
  509MOL0     C68623   4.176   1.765   2.206 -0.2584  0.4770 -0.6970
  509MOL0    Cl68624   4.068   1.723   2.058 -0.0143 -0.4950  0.1010
  509MOL0     C68625   5.057   1.181   2.165  0.0455  0.1629  0.6130
  509MOL0     C68626   5.187   1.143   2.203  0.3499  0.1728  0.5605
  509MOL0     O68627   5.464   1.026   2.135 -0.2294  0.9454 -0.5706
  509MOL0     C68628   5.556   0.834   2.422 -0.4680  0.4054 -0.6600
  509MOL0     C68629   5.664   0.780   2.483 -0.3477 -0.2752  0.3634
  509MOL0     N68630   6.257   1.265   2.345  0.4196  0.5134 -0.6820
  509MOL0     N68631   6.210   1.385   2.348 -1.1359 -0.3096  0.3840
  509MOL0     C68632   5.255   1.496   2.968  0.3011 -0.0509  0.1158
  509MOL0     C68633   5.123   1.502   2.998  0.1578 -0.8259  0.5249
  509MOL0     C68634   4.718   1.702   3.117  0.1203  0.0386  0.0129
  509MOL0     C68635   4.654   1.580   3.085  0.6217 -1.6492  1.0900
  509MOL0     C68636   4.515   1.568   3.074  0.5152  0.2219  0.1820
  509MOL0     C68637   4.434   1.673   3.100 -0.2937  0.7011 -0.2900
  509MOL0     O68638   4.298   1.679   3.102 -0.4835 -0.1665 -0.5748
  509MOL0     C68639   4.221   1.560   3.066  0.3875  0.5982  0.1319
  509MOL0     C68640   4.083   1.593   3.044  0.0003  0.5703 -0.7249
  509MOL0     C68641   4.009   1.469   2.996  0.0245 -0.1156 -0.5796
  509MOL0     C68642   3.855   1.451   3.034 -0.2593 -0.8961 -0.0266
  509MOL0     C68643   3.841   1.403   3.173 -0.5884 -0.5634 -0.4683
  509MOL0     C68644   3.829   1.358   3.282 -0.0022  0.0700 -0.6416
  509MOL0     C68645   4.498   1.797   3.122 -0.2013 -0.4641 -0.0441
  509MOL0     C68646   4.639   1.815   3.128  0.2686  0.0907 -1.0988
  509MOL0     C68647   4.698   1.953   3.167  0.0678  0.5932  0.0266
  509MOL0     H68648   5.102   1.847   3.026 -0.1274  0.5114  0.1467
  509MOL0     H68649   5.329   1.827   2.999  0.3479 -1.0623  0.7057
  509MOL0     H68650   5.530   1.422   2.979 -0.8192 -2.0472 -2.2987
  509MOL0     H68651   5.497   1.461   2.807 -2.4022 -1.4380  1.1239
  509MOL0     H68652   5.734   1.422   2.864 -0.1991  0.1015  1.0427
  509MOL0     H68653   5.728   1.576   2.966  1.6974  0.6421 -0.8905
  509MOL0     H68654   5.644   1.684   2.755  0.4924 -0.2793  0.4828
  509MOL0     H68655   5.696   1.550   2.668 -1.8587  1.8567 -0.7941
  509MOL0     H68656   5.866   1.748   2.843  0.4874 -2.8389  2.4683
  509MOL0     H68657   5.926   1.598   2.772 -1.5329 -0.8994 -0.1982
  509MOL0     H68658   5.814   1.844   2.625 -0.3917 -0.2139  0.4620
  509MOL0     H68659   5.987   1.788   2.640  0.5262 -1.0016  0.6160
  509MOL0     H68660   5.762   1.698   2.445  1.0427  0.2346 -1.4383
  509MOL0     H68661   5.931   1.747   2.415  2.7508  0.9489  3.4674
  509MOL0     H68662   5.890   1.502   2.356  2.1538 -1.5853  0.1863
  509MOL0     H68663   5.851   1.474   2.522 -2.8540  3.0319  0.8865
  509MOL0     H68664   6.108   1.601   2.423 -2.2326  0.9375 -0.9579
  509MOL0     H68665   6.087   1.521   2.580  2.0962 -3.3852 -0.0552
  509MOL0     H68666   6.030   1.248   2.586 -0.3984  0.1584 -0.6103
  509MOL0     H68667   6.325   1.029   2.398 -2.0246  0.3669 -2.4619
  509MOL0     H68668   6.267   1.043   2.572 -0.3281  1.3960  0.4206
  509MOL0     H68669   6.040   1.012   2.464 -1.0160  0.4167 -3.0214
  509MOL0     H68670   6.117   0.970   2.313 -0.8284 -4.8786 -0.5546
  509MOL0     H68671   6.170   0.809   2.572 -1.8137 -3.3183 -0.5153
  509MOL0     H68672   6.240   0.783   2.413 -0.0942 -0.1182 -0.8935
  509MOL0     H68673   6.078   0.631   2.441  0.2737 -0.8533 -1.4473
  509MOL0     H68674   6.021   0.741   2.313 -1.0177  2.7739  0.8090
  509MOL0     H68675   5.903   0.905   2.269 -0.3855  2.5192 -0.2725
  509MOL0     H68676   5.702   0.989   2.157 -2.7596  2.8097  1.5104
  509MOL0     H68677   5.122   0.812   2.228  1.8265 -0.2816  0.3439
  509MOL0     H68678   4.909   0.871   2.132 -2.2347  0.9030 -0.2014
  509MOL0     H68679   4.735   0.974   2.072 -1.1165 -0.5173 -0.2385
  509MOL0     H68680   4.693   1.046   2.232  0.7003  2.7491  1.2004
  509MOL0     H68681   4.600   1.172   1.979  1.1683 -0.2102  0.8704
  509MOL0     H68682   4.503   1.064   2.069 -2.2365  3.6016 -0.1375
  509MOL0     H68683   4.508   1.215   2.277  0.3141 -0.2960  0.9239
  509MOL0     H68684   4.640   1.303   2.198  1.9342 -4.5291 -2.8386
  509MOL0     H68685   4.356   1.266   2.069  1.6332 -0.5957 -0.9137
  509MOL0     H68686   4.471   1.384   2.032 -0.4893 -2.0451 -1.7701
  509MOL0     H68687   4.463   1.480   2.265 -2.8871  5.5471  0.8188
  509MOL0     H68688   4.310   1.385   2.291 -0.2509 -0.5166 -1.1207
  509MOL0     H68689   4.373   1.604   2.087 -0.4724  0.1063 -0.8081
  509MOL0     H68690   4.232   1.516   2.076  0.2629  0.6374 -1.0806
  509MOL0     H68691   4.299   1.656   2.340 -0.1292 -0.5485  0.2401
  509MOL0     H68692   4.139   1.589   2.294 -1.5949  1.6720 -2.2320
  509MOL0     H68693   4.122   1.815   2.287 -2.5699 -0.7309 -1.4073
  509MOL0     H68694   4.265   1.824   2.178  2.4279 -3.3249 -0.9809
  509MOL0     H68695   5.038   1.286   2.146 -0.0273  0.0156 -0.2000
  509MOL0     H68696   5.266   1.215   2.222 -1.5226  2.6577 -0.5826
  509MOL0     H68697   5.464   0.813   2.475 -0.7807  3.6977  0.2673
  509MOL0     H68698   5.665   0.726   2.577  0.2562 -2.9535 -1.1136
  509MOL0     H68699   5.284   1.400   2.925 -3.2660 -1.0850 -0.3028
  509MOL0     H68700   5.060   1.416   3.019  0.1476 -0.5877  1.5213
  509MOL0     H68701   4.700   1.485   3.061 -3.2177 -3.9670  2.0500
  509MOL0     H68702   4.464   1.473   3.068  0.4921  0.0769  2.0131
  509MOL0     H68703   4.228   1.482   3.142 -3.0254  0.1407  0.1275
  509MOL0     H68704   4.254   1.525   2.968  0.0666  2.4070 -0.6780
  509MOL0     H68705   4.074   1.671   2.968 -0.1049  2.0160  0.7304
  509MOL0     H68706   4.036   1.635   3.133  0.3584  1.9483 -1.1589
  509MOL0     H68707   4.055   1.379   3.037  0.0232  1.1421  2.4131
  509MOL0     H68708   4.024   1.483   2.888 -2.3318  0.5114 -0.8814
  509MOL0     H68709   3.782   1.530   3.013 -1.2930 -1.7202  0.3716
  509MOL0     H68710   3.828   1.368   2.968  4.3699 -2.3111 -0.4827
  509MOL0     H68711   3.805   1.302   3.370  1.1966  0.6216  0.0655
  509MOL0     H68712   4.431   1.881   3.135  1.5732  0.6126  3.2276
  509MOL0     H68713   4.786   1.940   3.230  0.0467 -4.2165 -0.5949
  509MOL0     H68714   4.731   2.000   3.074  1.6874 -2.1544 -0.9168
  509MOL0     H68715   4.624   2.016   3.217 -0.7338 -2.4964  3.1394
  510MOL0     O68716   7.850   9.077   9.706 -0.3082  0.3998 -0.6171
  510MOL0     C68717   7.850   8.960   9.676  0.8922 -0.2326  0.3457
  510MOL0     O68718   7.962   8.873   9.650 -0.1240 -1.3295  0.4418
  510MOL0     C68719   8.086   8.942   9.634  0.2291 -0.7187 -0.2705
  510MOL0     C68720   8.180   8.950   9.733  0.0368  0.4028 -0.3302
  510MOL0     C68721   8.301   9.015   9.707  0.0343  0.0512  0.2653
  510MOL0     C68722   8.332   9.051   9.577  0.5662 -0.5746  0.4062
  510MOL0     O68723   8.447   9.122   9.558 -0.2552  0.2248  0.3458
  510MOL0     C68724   8.434   9.256   9.603  0.1887  0.1419  0.6464
  510MOL0     C68725   8.548   9.336   9.529 -0.5185 -0.2763  0.4712
  510MOL0     C68726   8.545   9.475   9.600  0.1792  0.5575  0.2380
  510MOL0     C68727   8.643   9.566   9.530  0.2223  0.3771 -0.3326
  510MOL0     C68728   8.631   9.709   9.583  0.2733  0.1538  0.6975
  510MOL0     C68729   8.719   9.805   9.495  0.0040 -0.6332  0.1058
  510MOL0     C68730   8.689   9.948   9.544  0.0460  0.2590 -0.0281
  510MOL0     C68731   8.745  10.058   9.453 -0.0917  0.1572 -0.5796
  510MOL0     N68732   8.632  10.103   9.370 -0.1107  0.5030 -0.1316
  510MOL0     C68733   8.565  10.228   9.357  0.2874  0.6017 -0.8466
  510MOL0     C68734   8.475  10.213   9.255  0.4539  0.0949 -0.5242
  510MOL0     C68735   8.382  10.308   9.185  0.1686 -0.7787 -0.2485
  510MOL0     C68736   8.244  10.236   9.155  0.6624  0.3250  0.2737
  510MOL0     C68737   8.140  10.308   9.072  0.4139 -0.4984  0.7260
  510MOL0     C68738   7.993  10.245   9.083 -0.9672 -0.2392 -0.6571
  510MOL0     O68739   7.906  10.306   8.989 -0.0153  0.5229  0.7364
  510MOL0     C68740   7.782  10.249   8.973 -0.2035 -0.4972  0.0736
  510MOL0     C68741   7.691  10.313   8.888  0.0925  0.1861  0.2804
  510MOL0     C68742   7.561  10.265   8.854  0.5994  0.1193  0.6137
  510MOL0     C68743   7.519  10.146   8.909  0.2456 -0.1626 -0.5009
  510MOL0     C68744   7.375  10.106   8.892  0.7340  0.0829 -0.2207
  510MOL0     O68745   7.294  10.190   8.815  0.2316  0.3101 -0.3287
  510MOL0     C68746   7.155  10.161   8.835  0.0221 -0.3293 -0.2937
  510MOL0     C68747   7.092  10.054   8.759 -0.4810 -0.3735 -0.1123
  510MOL0     C68748   6.955  10.025   8.768  0.1089 -0.1936 -0.6504
  510MOL0     C68749   6.869  10.090   8.866  0.2549  0.0379  0.9361
  510MOL0     O68750   6.736  10.073   8.892  0.1784  0.3675 -0.8789
  510MOL0     C68751   6.678   9.951   8.839  0.2823 -0.4990 -0.6177
  510MOL0     C68752   6.536   9.923   8.906 -0.2399  0.6287 -0.3391
  510MOL0     C68753   6.454  10.042   8.945  1.4386 -0.3926  0.2215
  510MOL0     C68754   6.316   9.996   8.975  0.3768  0.1227 -0.3946
  510MOL0     C68755   6.227  10.125   9.011  0.5348 -0.2717  0.2493
  510MOL0     C68756   6.096  10.065   9.056 -0.4295 -0.8272  0.0421
  510MOL0     C68757   5.984  10.177   9.056 -0.1374 -0.4305  0.4014
  510MOL0     C68758   6.028  10.282   9.165 -0.0977 -0.2994 -0.5488
  510MOL0    Cl68759   5.915  10.393   9.223  0.3558 -0.1602  0.0375
  510MOL0     C68760   6.929  10.201   8.929 -0.5543  0.0907  0.2447
  510MOL0     C68761   7.072  10.230   8.925 -0.6428 -0.1017  0.3023
  510MOL0     O68762   7.341  10.010   8.960 -0.1488  0.1167  1.1066
  510MOL0     C68763   7.604  10.090   9.008 -0.8843  1.5549 -0.6943
  510MOL0     C68764   7.735  10.132   9.032  0.4348 -0.3383 -0.3366
  510MOL0     N68765   8.482  10.082   9.210 -0.2835  0.4061  0.2207
  510MOL0     N68766   8.564  10.023   9.283 -0.3901 -0.1365  0.4890
  510MOL0     C68767   8.248   9.023   9.471  0.0475 -1.0710 -0.6394
  510MOL0     C68768   8.120   8.969   9.505  0.0666  0.9538 -0.8419
  510MOL0     C68769   7.728   8.884   9.686  0.6545  0.6914  0.7038
  510MOL0     C68770   7.741   8.755   9.749 -0.1910 -0.8178  0.9311
  510MOL0     C68771   7.643   8.663   9.737  0.2203 -0.2169  0.5050
  510MOL0     C68772   7.525   8.700   9.667  0.4140  0.5399 -1.1002
  510MOL0     O68773   7.405   8.626   9.653  0.3382 -0.2098  0.4437
  510MOL0     C68774   7.400   8.499   9.718 -0.0475  0.7566  0.1418
  510MOL0     C68775   7.264   8.440   9.699 -0.3950 -0.1689 -0.6572
  510MOL0     C68776   7.226   8.418   9.559 -1.0632 -0.1451 -0.2395
  510MOL0     C68777   7.076   8.406   9.553 -0.8509  0.3858  0.6709
  510MOL0     C68778   7.021   8.277   9.585  0.5066  0.6997  0.0815
  510MOL0     C68779   6.973   8.170   9.627 -0.0143 -0.3637 -0.1098
  510MOL0     C68780   7.506   8.821   9.609  0.1176 -0.9029 -0.0179
  510MOL0     C68781   7.604   8.920   9.621  1.1522 -0.5396 -0.1268
  510MOL0     C68782   7.567   9.054   9.558 -0.0684 -0.6515  0.7480
  510MOL0     H68783   8.143   8.917   9.830  1.2650 -2.1126 -0.6171
  510MOL0     H68784   8.371   9.028   9.790  2.5118 -2.3062 -1.2915
  510MOL0     H68785   8.337   9.298   9.573  0.8539  0.2051 -1.5828
  510MOL0     H68786   8.445   9.270   9.711  0.9891  0.9340  0.4716
  510MOL0     H68787   8.527   9.336   9.422 -2.8726 -0.1710  0.8622
  510MOL0     H68788   8.639   9.279   9.545 -0.7051 -0.6875  0.0733
  510MOL0     H68789   8.578   9.456   9.702 -1.8779 -2.3307  0.4560
  510MOL0     H68790   8.444   9.513   9.618 -0.1095  0.0190 -0.2112
  510MOL0     H68791   8.745   9.530   9.541 -0.3715 -1.1359  0.5445
  510MOL0     H68792   8.617   9.575   9.425  0.7738  3.3115 -0.2979
  510MOL0     H68793   8.526   9.739   9.580  0.5706  1.2846  1.2654
  510MOL0     H68794   8.683   9.716   9.678  3.5086  1.9199 -1.0279
  510MOL0     H68795   8.826   9.797   9.515  0.2348  4.3504  2.4807
  510MOL0     H68796   8.701   9.790   9.388  2.0510 -2.5923 -0.0198
  510MOL0     H68797   8.731   9.949   9.645 -1.1427 -5.2059  0.8414
  510MOL0     H68798   8.583   9.957   9.568  0.2849  2.5606  0.3893
  510MOL0     H68799   8.766  10.143   9.519 -2.5709 -0.0522  0.5713
  510MOL0     H68800   8.832  10.033   9.391  0.4331  2.5398 -0.8992
  510MOL0     H68801   8.584  10.316   9.418  0.8962  1.6843 -2.5198
  510MOL0     H68802   8.363  10.394   9.250 -0.0803  0.8408 -2.3500
  510MOL0     H68803   8.439  10.326   9.094  1.1682 -0.8375  0.3483
  510MOL0     H68804   8.270  10.148   9.095 -0.5059 -0.7349  1.2541
  510MOL0     H68805   8.200  10.207   9.251  0.7352 -0.7860 -0.0072
  510MOL0     H68806   8.169  10.306   8.966  1.7282 -0.3880  1.0668
  510MOL0     H68807   8.123  10.414   9.092  0.0395 -0.3147 -0.4843
  510MOL0     H68808   7.956  10.242   9.186 -0.0569 -0.5931 -0.3333
  510MOL0     H68809   8.012  10.139   9.060  0.9581 -0.4244  1.4626
  510MOL0     H68810   7.720  10.405   8.839 -0.5114 -0.3546 -1.1703
  510MOL0     H68811   7.502  10.331   8.792 -2.5662 -0.3074  2.9303
  510MOL0     H68812   7.154  10.000   8.687  0.0307  0.1385 -0.0610
  510MOL0     H68813   6.919   9.951   8.696  0.2194  0.0713 -0.9834
  510MOL0     H68814   6.672   9.964   8.731 -3.3146 -2.4147 -0.7835
  510MOL0     H68815   6.735   9.860   8.858 -1.2414 -1.0420  1.6781
  510MOL0     H68816   6.491   9.858   8.831  0.4481 -1.7224  1.1540
  510MOL0     H68817   6.544   9.853   8.990 -1.1670  0.9294  0.0122
  510MOL0     H68818   6.486  10.098   9.033  0.6658  1.3412 -0.5620
  510MOL0     H68819   6.455  10.110   8.860 -0.2795  0.3012  0.7003
  510MOL0     H68820   6.323   9.928   9.061 -0.2457 -2.8024 -2.4853
  510MOL0     H68821   6.280   9.942   8.887  0.9285 -1.5082  0.3458
  510MOL0     H68822   6.207  10.186   8.922  2.6209 -2.4100 -1.8283
  510MOL0     H68823   6.273  10.178   9.095  1.0301  0.6348 -0.5760
  510MOL0     H68824   6.068   9.992   8.980 -1.6708 -0.5099  0.1705
  510MOL0     H68825   6.093  10.015   9.153 -1.0560  4.2573  3.0474
  510MOL0     H68826   5.886  10.140   9.087 -0.0631  1.2731  3.0330
  510MOL0     H68827   5.975  10.227   8.959 -2.8715 -2.4305 -0.5095
  510MOL0     H68828   6.058  10.219   9.249  3.1929  2.2691  0.4326
  510MOL0     H68829   6.118  10.336   9.134 -1.8048  3.0122 -0.2777
  510MOL0     H68830   6.858  10.243   8.999 -2.0972  2.8883 -2.7590
  510MOL0     H68831   7.118  10.316   8.973 -1.6370  0.2380  0.6682
  510MOL0     H68832   7.577   9.999   9.060  1.9905  1.0414  0.0469
  510MOL0     H68833   7.798  10.080   9.104  1.5541  0.9241 -0.3753
  510MOL0     H68834   8.284   9.038   9.369 -1.7772  1.3441 -1.0215
  510MOL0     H68835   8.062   8.949   9.415 -1.5546  2.9157 -0.3275
  510MOL0     H68836   7.832   8.727   9.801  0.9260  3.1378  1.4438
  510MOL0     H68837   7.642   8.563   9.779 -1.0430  0.3790  1.9683
  510MOL0     H68838   7.422   8.508   9.825  2.9435 -0.0443 -0.3212
  510MOL0     H68839   7.478   8.432   9.680  1.3582  2.9910 -1.1723
  510MOL0     H68840   7.188   8.507   9.742  1.1065  2.1441 -1.4587
  510MOL0     H68841   7.252   8.346   9.753 -0.1407 -0.5753 -1.3042
  510MOL0     H68842   7.268   8.319   9.536  1.8738  1.2017 -1.1541
  510MOL0     H68843   7.267   8.495   9.493 -1.3891 -0.9624 -1.4342
  510MOL0     H68844   7.029   8.483   9.615  4.0210  3.0553  1.4935
  510MOL0     H68845   7.044   8.433   9.451 -1.1079  2.2255  1.1950
  510MOL0     H68846   6.925   8.085   9.672  0.3779  0.3761  1.8109
  510MOL0     H68847   7.410   8.842   9.562  0.3915  0.3364 -0.0674
  510MOL0     H68848   7.620   9.137   9.605 -0.2251  0.3903 -0.8380
  510MOL0     H68849   7.607   9.056   9.456  2.0666  0.9132  1.5551
  510MOL0     H68850   7.459   9.066   9.565 -0.2271 -2.5080  2.3632
  511MOL0     O68851   3.184   8.576   8.102  0.2961  0.3226  0.1606
  511MOL0     C68852   3.177   8.684   8.170  0.0198 -0.9213  0.1104
  511MOL0     O68853   3.283   8.729   8.258  0.0811  0.5911 -0.1297
  511MOL0     C68854   3.401   8.665   8.232  0.3536  0.6564 -0.6846
  511MOL0     C68855   3.444   8.558   8.309  0.5477 -0.4206  0.3020
  511MOL0     C68856   3.568   8.497   8.280  0.0281 -0.4997 -1.1115
  511MOL0     C68857   3.640   8.526   8.168  0.3726  0.0986  0.0680
  511MOL0     O68858   3.750   8.453   8.139  0.1204 -0.8452  0.4045
  511MOL0     C68859   3.744   8.373   8.027 -1.2782  0.2197 -0.0391
  511MOL0     C68860   3.882   8.342   7.957  0.2756 -0.3386 -0.5094
  511MOL0     C68861   3.878   8.225   7.853 -0.3125  1.1146 -0.5914
  511MOL0     C68862   4.018   8.147   7.838  0.2398 -0.3278  0.6908
  511MOL0     C68863   4.005   8.012   7.761 -0.5145 -0.1901 -0.1123
  511MOL0     C68864   3.988   8.024   7.610 -0.6759  0.8994  0.8490
  511MOL0     C68865   3.986   7.888   7.546 -0.2832  1.2737  1.1368
  511MOL0     C68866   4.010   7.898   7.390  0.1687 -0.4038 -0.5728
  511MOL0     N68867   4.150   7.883   7.354 -0.4072  0.0312  0.0328
  511MOL0     C68868   4.213   7.762   7.356 -0.1696 -0.5404  0.3345
  511MOL0     C68869   4.342   7.799   7.338 -1.1452 -0.2640 -0.4358
  511MOL0     C68870   4.449   7.699   7.310 -0.5486 -0.5765 -0.4901
  511MOL0     C68871   4.561   7.747   7.398 -0.5867  0.2727 -0.0046
  511MOL0     C68872   4.694   7.656   7.386 -0.3743 -0.2614 -0.9314
  511MOL0     C68873   4.806   7.703   7.479  0.5062  0.1539 -1.0559
  511MOL0     O68874   4.859   7.834   7.448  0.3871  0.2478 -0.2122
  511MOL0     C68875   4.986   7.838   7.394  0.2410 -0.1777 -0.9433
  511MOL0     C68876   5.023   7.756   7.285 -0.3613 -0.2731 -0.3696
  511MOL0     C68877   5.146   7.774   7.222 -0.0297  0.9295 -0.2045
  511MOL0     C68878   5.235   7.869   7.265  0.6373 -0.0060  0.7148
  511MOL0     C68879   5.361   7.881   7.189 -0.4048 -0.8203 -0.6198
  511MOL0     O68880   5.434   7.997   7.210  0.3909  0.6427  0.7562
  511MOL0     C68881   5.565   7.987   7.174  0.0963 -0.3780  0.4451
  511MOL0     C68882   5.606   8.089   7.094 -0.5409  0.0749 -0.6668
  511MOL0     C68883   5.744   8.092   7.052  0.1029 -0.5094 -0.3467
  511MOL0     C68884   5.837   7.987   7.081 -0.5433 -0.2444 -0.2937
  511MOL0     O68885   5.973   8.003   7.043  0.8331  0.9375 -0.4321
  511MOL0     C68886   6.046   8.097   7.124  0.9036  0.3959  0.1206
  511MOL0     C68887   6.195   8.074   7.106 -0.2388 -0.8806 -0.3564
  511MOL0     C68888   6.261   8.204   7.154 -0.2186  0.3419 -0.4542
  511MOL0     C68889   6.409   8.168   7.181 -0.3833 -0.5284 -0.1919
  511MOL0     C68890   6.489   8.296   7.198  0.2535 -0.5903  1.0580
  511MOL0     C68891   6.636   8.274   7.225  0.3833  0.2949  0.0319
  511MOL0     C68892   6.727   8.405   7.231 -1.3951  0.2504 -0.8308
  511MOL0     C68893   6.855   8.383   7.327  0.7583 -0.1833 -0.8111
  511MOL0    Cl68894   6.906   8.552   7.363 -0.1731 -0.3401 -0.5211
  511MOL0     C68895   5.789   7.881   7.158  0.7394 -0.3195  0.6087
  511MOL0     C68896   5.657   7.883   7.202  0.2457 -0.1489 -0.3674
  511MOL0     O68897   5.393   7.788   7.123  0.7230 -0.3796  0.4101
  511MOL0     C68898   5.199   7.948   7.373  0.6120 -0.8033 -0.2837
  511MOL0     C68899   5.072   7.940   7.435  0.1547  0.1632 -0.2750
  511MOL0     N68900   4.357   7.942   7.330 -0.1684  0.7163  0.1861
  511MOL0     N68901   4.239   7.987   7.339 -0.0012  0.4774 -0.0597
  511MOL0     C68902   3.595   8.630   8.084  0.8753 -0.0443 -0.4272
  511MOL0     C68903   3.479   8.701   8.119 -0.1185  0.1325  0.1864
  511MOL0     C68904   3.044   8.745   8.181  0.5339  0.1283  0.1221
  511MOL0     C68905   2.980   8.747   8.305 -0.4199  0.6559 -0.1396
  511MOL0     C68906   2.851   8.796   8.315  0.2693 -0.0030  0.1986
  511MOL0     C68907   2.779   8.842   8.203  0.3381  0.3968 -0.4316
  511MOL0     O68908   2.645   8.876   8.204 -0.4948  0.1761 -0.3114
  511MOL0     C68909   2.583   8.926   8.324  0.5657 -0.5144 -0.3028
  511MOL0     C68910   2.497   9.048   8.285  0.3599  0.1207  0.2170
  511MOL0     C68911   2.352   9.004   8.237 -0.7588  0.6860  0.3347
  511MOL0     C68912   2.280   8.925   8.339  0.6884  0.0083  0.1566
  511MOL0     C68913   2.213   9.017   8.437 -0.7484 -0.1538 -0.5466
  511MOL0     C68914   2.153   9.089   8.513 -0.1848  0.2838 -0.1142
  511MOL0     C68915   2.842   8.839   8.080 -0.2508  0.0227  0.0933
  511MOL0     C68916   2.972   8.796   8.066  0.1165 -0.3867 -0.4298
  511MOL0     C68917   3.029   8.808   7.929  0.1147  0.4823 -0.8872
  511MOL0     H68918   3.378   8.531   8.390  0.0783 -2.5654 -0.7208
  511MOL0     H68919   3.604   8.432   8.358  0.6210 -0.2502 -1.1738
  511MOL0     H68920   3.705   8.279   8.068 -1.2699  0.5196  0.6818
  511MOL0     H68921   3.667   8.405   7.957 -1.3797  5.3699  1.9855
  511MOL0     H68922   3.962   8.319   8.028  2.1282 -0.6073 -2.5767
  511MOL0     H68923   3.904   8.437   7.908 -0.5663  0.3840  0.4652
  511MOL0     H68924   3.845   8.260   7.755 -2.3131  0.7899 -0.0765
  511MOL0     H68925   3.806   8.153   7.891  1.1692 -0.3539 -0.4767
  511MOL0     H68926   4.075   8.219   7.780 -0.7843 -1.2028 -1.5303
  511MOL0     H68927   4.063   8.135   7.937  1.2775  1.3376  0.4447
  511MOL0     H68928   4.098   7.955   7.771  0.3076  1.3231  1.1428
  511MOL0     H68929   3.923   7.950   7.798 -1.5400  1.7709  1.0777
  511MOL0     H68930   3.897   8.082   7.592  0.5796  3.3166  1.9236
  511MOL0     H68931   4.070   8.081   7.565 -0.3024 -0.9502 -0.9586
  511MOL0     H68932   3.885   7.848   7.556  0.2851 -0.6372 -0.1842
  511MOL0     H68933   4.058   7.812   7.578  2.4562  2.3348 -1.9673
  511MOL0     H68934   3.946   7.824   7.342  0.7097  0.3684 -2.5579
  511MOL0     H68935   3.980   8.000   7.366 -0.2816 -0.9619 -2.5472
  511MOL0     H68936   4.172   7.661   7.355  1.6466 -1.3884  2.3057
  511MOL0     H68937   4.407   7.603   7.341 -0.4634 -0.1753  0.9531
  511MOL0     H68938   4.469   7.705   7.203  1.5697 -0.5594 -0.1498
  511MOL0     H68939   4.599   7.848   7.378  1.0408 -0.6431 -1.9585
  511MOL0     H68940   4.529   7.745   7.502  0.3231 -0.5081  0.2791
  511MOL0     H68941   4.744   7.646   7.289  1.9097 -0.5619  0.2201
  511MOL0     H68942   4.664   7.555   7.416  0.0838  0.6867  3.3009
  511MOL0     H68943   4.888   7.633   7.497  1.7618  1.8688  0.3371
  511MOL0     H68944   4.762   7.714   7.579  1.0244 -0.5896 -0.7411
  511MOL0     H68945   4.955   7.677   7.254  0.8057 -0.9664 -1.2289
  511MOL0     H68946   5.181   7.706   7.144  0.5845 -0.7155  1.4420
  511MOL0     H68947   5.539   8.172   7.077  2.6878  2.7978 -1.3253
  511MOL0     H68948   5.774   8.183   7.001 -1.5056  1.3847  1.8814
  511MOL0     H68949   6.018   8.195   7.084  1.8838  1.6927  2.4019
  511MOL0     H68950   6.017   8.100   7.229 -1.4330  5.3347 -0.3852
  511MOL0     H68951   6.223   7.986   7.166  0.5158 -0.3971  0.0161
  511MOL0     H68952   6.210   8.056   6.999 -1.0423  0.4757 -0.7051
  511MOL0     H68953   6.259   8.277   7.072 -1.7168 -1.2678 -1.9235
  511MOL0     H68954   6.215   8.243   7.245 -0.4557 -1.8976  0.4344
  511MOL0     H68955   6.451   8.120   7.092  0.7820 -0.4962  0.3200
  511MOL0     H68956   6.416   8.081   7.248  0.2104 -3.6764 -3.9778
  511MOL0     H68957   6.448   8.347   7.286  1.7787 -0.8432  1.9571
  511MOL0     H68958   6.490   8.347   7.101  1.0750 -1.3535  0.6526
  511MOL0     H68959   6.647   8.226   7.322 -3.2733 -0.5915  0.1551
  511MOL0     H68960   6.680   8.195   7.164 -0.7276 -2.3378  2.4102
  511MOL0     H68961   6.671   8.492   7.269  1.0818  1.0322  1.3286
  511MOL0     H68962   6.763   8.424   7.130 -3.3763  1.3557 -1.3967
  511MOL0     H68963   6.822   8.338   7.422  2.2836  0.8722  0.2511
  511MOL0     H68964   6.924   8.320   7.270 -0.4709 -0.0710 -2.5112
  511MOL0     H68965   5.843   7.787   7.160 -0.0534 -0.8063 -0.4664
  511MOL0     H68966   5.635   7.807   7.276 -0.7137 -0.6652 -1.1631
  511MOL0     H68967   5.264   8.024   7.415  0.2056 -0.5100 -0.1853
  511MOL0     H68968   5.042   8.006   7.515 -0.0385  0.8699 -0.9276
  511MOL0     H68969   3.651   8.659   7.996  0.5681  0.2138 -0.5384
  511MOL0     H68970   3.449   8.785   8.058  1.2578  2.0580  2.0109
  511MOL0     H68971   3.034   8.720   8.395  1.1031  3.0100 -0.2634
  511MOL0     H68972   2.814   8.806   8.417  2.6938 -0.5330  1.1975
  511MOL0     H68973   2.651   8.954   8.405 -0.7749  2.3448 -0.0138
  511MOL0     H68974   2.516   8.845   8.352 -0.1526  0.2482  0.2435
  511MOL0     H68975   2.542   9.111   8.208 -0.2883 -2.3271 -2.3104
  511MOL0     H68976   2.493   9.118   8.370  2.2071 -1.1678  1.4379
  511MOL0     H68977   2.360   8.962   8.137  0.4800 -0.2289  0.7933
  511MOL0     H68978   2.293   9.096   8.233 -1.2450  0.3400 -1.7406
  511MOL0     H68979   2.201   8.876   8.281  1.7011  0.3870 -1.6549
  511MOL0     H68980   2.329   8.844   8.394  2.5881 -0.7109 -2.3769
  511MOL0     H68981   2.097   9.154   8.578 -1.3426 -1.8216  1.1129
  511MOL0     H68982   2.801   8.882   7.990  1.5582  1.3210 -0.1543
  511MOL0     H68983   3.110   8.881   7.919  1.1946 -0.3865  0.9864
  511MOL0     H68984   3.071   8.716   7.887  0.0183 -0.6760  1.4189
  511MOL0     H68985   2.952   8.841   7.859  2.3597  1.3800 -3.1260
  512MOL0     O68986   3.203   3.200  10.764  0.0786 -0.1581  0.5524
  512MOL0     C68987   3.187   3.169  10.644 -0.7355  0.3745  0.0891
  512MOL0     O68988   3.284   3.121  10.565  0.1946  0.0936 -0.1556
  512MOL0     C68989   3.417   3.124  10.611  0.4022 -0.3005 -0.7511
  512MOL0     C68990   3.488   3.013  10.657 -0.0077  1.0934  0.9810
  512MOL0     C68991   3.620   3.034  10.703 -0.2561 -0.0623 -0.3955
  512MOL0     C68992   3.672   3.162  10.715 -0.6485  0.4769 -0.1353
  512MOL0     O68993   3.792   3.195  10.778  0.1865  1.2867  0.3204
  512MOL0     C68994   3.887   3.100  10.811  0.0710 -0.2437 -0.4378
  512MOL0     C68995   4.008   3.189  10.859  0.1090  0.3370  0.4861
  512MOL0     C68996   4.135   3.102  10.879  0.0026  0.6930  0.5881
  512MOL0     C68997   4.246   3.176  10.958  0.6178  0.2557  0.1171
  512MOL0     C68998   4.368   3.087  10.980  0.6612  0.1925  0.2039
  512MOL0     C68999   4.489   3.152  10.911 -0.2724  0.2356 -0.2824
  512MOL0     C69000   4.621   3.094  10.960  0.6022 -0.7185 -0.7602
  512MOL0     C69001   4.649   3.150  11.102 -0.1071  0.9688  0.2564
  512MOL0     N69002   4.784   3.116  11.131 -0.6794 -0.4877 -0.1321
  512MOL0     C69003   4.881   3.201  11.185 -0.1461 -0.4402 -0.6713
  512MOL0     C69004   4.992   3.129  11.192 -1.3766 -0.7258 -0.4429
  512MOL0     C69005   5.112   3.183  11.258  0.3279 -0.2742 -0.5248
  512MOL0     C69006   5.237   3.143  11.184  0.3983  0.0864 -0.5950
  512MOL0     C69007   5.356   3.198  11.265  0.8115  0.2986  0.5603
  512MOL0     C69008   5.491   3.170  11.206  0.6245 -0.3284  0.2222
  512MOL0     O69009   5.512   3.025  11.214 -0.3499  0.0980  0.2479
  512MOL0     C69010   5.636   2.976  11.185 -0.3437  0.4076 -0.5309
  512MOL0     C69011   5.757   3.052  11.169  0.0974  0.0013 -0.4913
  512MOL0     C69012   5.885   2.990  11.164 -0.0205 -0.4505  0.0524
  512MOL0     C69013   5.888   2.849  11.168  0.4690  0.1381 -0.3207
  512MOL0     C69014   6.025   2.787  11.169  0.3389 -0.1081  0.3073
  512MOL0     O69015   6.125   2.870  11.131 -0.7764 -0.9095  0.1961
  512MOL0     C69016   6.253   2.830  11.098 -0.0695  0.6900  0.2996
  512MOL0     C69017   6.319   2.920  11.015  0.6891  0.5053 -0.1215
  512MOL0     C69018   6.450   2.905  10.978 -1.1865  0.4577  0.3983
  512MOL0     C69019   6.511   2.787  11.013  0.5234 -0.0863  0.2335
  512MOL0     O69020   6.644   2.779  10.989 -0.3658 -0.2870 -0.2416
  512MOL0     C69021   6.675   2.665  10.911 -0.0606  0.3463  0.8002
  512MOL0     C69022   6.752   2.730  10.792 -0.3285  0.4974 -0.4299
  512MOL0     C69023   6.824   2.635  10.696  0.4601  0.5675  0.3616
  512MOL0     C69024   6.957   2.595  10.758  0.0373 -0.3940 -0.1906
  512MOL0     C69025   7.030   2.501  10.657  1.2839  0.1189  0.4927
  512MOL0     C69026   7.040   2.541  10.517 -0.3624 -0.6281 -0.5271
  512MOL0     C69027   7.098   2.683  10.494 -0.4572  0.0985 -1.1609
  512MOL0     C69028   7.160   2.705  10.354 -0.3286 -0.0170  0.1379
  512MOL0    Cl69029   7.057   2.679  10.220  0.4848  0.1357  0.5682
  512MOL0     C69030   6.453   2.687  11.085 -0.6787 -0.1944 -0.6714
  512MOL0     C69031   6.325   2.711  11.138  0.6289 -0.1997  0.2149
  512MOL0     O69032   6.032   2.661  11.170 -0.9298 -0.3029  0.0194
  512MOL0     C69033   5.768   2.773  11.165  0.1945  0.2227  0.6595
  512MOL0     C69034   5.640   2.839  11.176  0.3110  0.6826 -0.0247
  512MOL0     N69035   4.961   3.002  11.156  0.3341 -0.0113 -0.4499
  512MOL0     N69036   4.837   2.990  11.119  0.1344 -0.8688  1.1655
  512MOL0     C69037   3.601   3.272  10.675 -0.0404  0.1886  0.6245
  512MOL0     C69038   3.469   3.264  10.630  0.6494  0.5326 -0.2126
  512MOL0     C69039   3.048   3.154  10.579 -0.5626  0.1966 -0.1752
  512MOL0     C69040   3.034   3.074  10.464  0.2230  0.3897  0.5034
  512MOL0     C69041   2.915   3.069  10.401 -0.7426 -1.4377  0.2932
  512MOL0     C69042   2.799   3.132  10.445 -0.0136 -0.2650  0.1753
  512MOL0     O69043   2.683   3.107  10.379  0.9309 -0.3734  0.1899
  512MOL0     C69044   2.564   3.178  10.424 -0.7100 -0.1016  0.0226
  512MOL0     C69045   2.441   3.118  10.362 -0.6435  0.3881 -0.1619
  512MOL0     C69046   2.418   2.974  10.404 -0.8355  0.5953  1.0768
  512MOL0     C69047   2.311   2.916  10.300 -0.4559  1.2432  0.0900
  512MOL0     C69048   2.298   2.769  10.317 -0.3229  0.9679 -0.2410
  512MOL0     C69049   2.294   2.648  10.342  0.4435 -0.0321  0.6471
  512MOL0     C69050   2.823   3.211  10.551  0.3681  0.4830 -1.8491
  512MOL0     C69051   2.939   3.224  10.629  0.2734  0.0782 -0.0825
  512MOL0     C69052   2.935   3.330  10.744 -0.2797 -0.2261  0.2898
  512MOL0     H69053   3.452   2.910  10.654  2.2346  0.2701  0.8131
  512MOL0     H69054   3.653   2.939  10.743  0.7855 -0.4778 -2.1511
  512MOL0     H69055   3.834   3.040  10.884  1.9021 -1.6060 -0.1480
  512MOL0     H69056   3.908   3.043  10.720 -0.7063  1.2201 -1.5691
  512MOL0     H69057   3.984   3.243  10.951  2.2590 -0.5420  1.6389
  512MOL0     H69058   4.019   3.268  10.784 -0.4498 -0.1597 -0.1330
  512MOL0     H69059   4.162   3.065  10.780 -0.7335 -1.0432  1.0008
  512MOL0     H69060   4.106   3.007  10.926  1.4013 -0.4111 -0.6856
  512MOL0     H69061   4.281   3.264  10.904 -1.8177  0.2692 -1.5591
  512MOL0     H69062   4.217   3.204  11.060  1.6477  0.0026  0.4962
  512MOL0     H69063   4.391   3.080  11.087  0.3039  1.0121  0.3382
  512MOL0     H69064   4.353   2.983  10.948  0.9263  0.4039 -0.6290
  512MOL0     H69065   4.482   3.134  10.803 -0.1900  1.0326 -0.4252
  512MOL0     H69066   4.496   3.258  10.937 -3.7014  0.3263  0.8269
  512MOL0     H69067   4.705   3.123  10.896  0.3887  1.4046 -0.1280
  512MOL0     H69068   4.630   2.985  10.950  2.3330 -0.6062 -0.7515
  512MOL0     H69069   4.658   3.259  11.111  2.4469  0.8258  0.2215
  512MOL0     H69070   4.585   3.101  11.175  1.4806 -0.7477  0.5659
  512MOL0     H69071   4.867   3.302  11.223  0.2047  0.5355 -2.9670
  512MOL0     H69072   5.101   3.292  11.267 -2.6709 -0.3628 -1.9242
  512MOL0     H69073   5.112   3.143  11.360  0.0908 -1.8940 -1.1371
  512MOL0     H69074   5.250   3.035  11.180 -0.3030 -0.1671  2.3106
  512MOL0     H69075   5.229   3.191  11.085  1.0723  0.2360 -0.5819
  512MOL0     H69076   5.343   3.165  11.368 -1.6136 -1.6433 -0.2416
  512MOL0     H69077   5.343   3.306  11.260 -0.6664  0.1804  1.2514
  512MOL0     H69078   5.569   3.210  11.272  0.5295 -2.3093  1.6332
  512MOL0     H69079   5.503   3.209  11.105  0.0310 -1.0877 -0.1513
  512MOL0     H69080   5.761   3.160  11.173  3.2609  0.0011 -0.5574
  512MOL0     H69081   5.972   3.055  11.160 -0.3050 -0.1404 -3.0395
  512MOL0     H69082   6.262   3.007  10.986  0.8613  0.0895 -1.8410
  512MOL0     H69083   6.511   2.973  10.920 -1.2693 -1.8226 -2.6705
  512MOL0     H69084   6.731   2.577  10.946 -2.1707 -0.4146  2.4669
  512MOL0     H69085   6.586   2.618  10.869 -0.1102  2.6420 -1.9471
  512MOL0     H69086   6.689   2.806  10.744  0.3989  0.4883 -1.4301
  512MOL0     H69087   6.837   2.783  10.835 -0.3884 -0.5665  1.0683
  512MOL0     H69088   6.768   2.544  10.672  1.5333  0.1862 -0.7656
  512MOL0     H69089   6.828   2.708  10.615  0.6354  3.0638  2.4981
  512MOL0     H69090   6.943   2.547  10.855 -1.3691  0.4223  0.0485
  512MOL0     H69091   7.020   2.684  10.771 -1.2322  0.5247 -0.1445
  512MOL0     H69092   6.979   2.406  10.673  0.4658  1.0689  4.6141
  512MOL0     H69093   7.133   2.483  10.690  1.5346  1.1536  0.3211
  512MOL0     H69094   7.097   2.474  10.453 -1.9516 -3.6188  0.9595
  512MOL0     H69095   6.938   2.534  10.476 -1.2984 -2.9550  1.8693
  512MOL0     H69096   7.175   2.710  10.566 -0.9902 -2.2913  0.4284
  512MOL0     H69097   7.014   2.751  10.514 -0.6217 -0.6600  0.9987
  512MOL0     H69098   7.186   2.811  10.349 -1.8413  0.3150 -1.5472
  512MOL0     H69099   7.248   2.641  10.344 -2.8501 -3.4076 -3.4312
  512MOL0     H69100   6.511   2.598  11.108  0.5457  0.5867 -0.6272
  512MOL0     H69101   6.283   2.633  11.201  0.1661 -1.2444 -1.3471
  512MOL0     H69102   5.775   2.665  11.159 -0.1474  0.2146  0.3986
  512MOL0     H69103   5.544   2.788  11.179  1.1109 -0.8769  1.3310
  512MOL0     H69104   3.644   3.370  10.687  1.2748 -0.4172  1.0536
  512MOL0     H69105   3.404   3.348  10.606  0.8584  0.1810 -2.2355
  512MOL0     H69106   3.095   2.989  10.434 -0.1336 -0.9203  3.1344
  512MOL0     H69107   2.898   2.998  10.320 -2.5632 -1.0939  0.3424
  512MOL0     H69108   2.567   3.287  10.411  1.7027  0.0569  1.1847
  512MOL0     H69109   2.553   3.171  10.533  0.0902  2.7748  0.3932
  512MOL0     H69110   2.464   3.126  10.256  4.3207 -3.0044  0.3431
  512MOL0     H69111   2.353   3.170  10.402 -0.2874 -0.0506  1.2610
  512MOL0     H69112   2.382   2.973  10.507 -1.2287  0.4005  0.9406
  512MOL0     H69113   2.511   2.917  10.406  0.7346  3.0455  1.0331
  512MOL0     H69114   2.214   2.961  10.323 -2.1478 -1.0925 -1.9491
  512MOL0     H69115   2.340   2.947  10.199  1.5706  1.4451  0.7046
  512MOL0     H69116   2.296   2.543  10.365 -2.3450 -0.8014 -1.9125
  512MOL0     H69117   2.740   3.272  10.586 -0.3079 -1.6878  0.6643
  512MOL0     H69118   2.976   3.301  10.841  0.4531 -0.9078 -0.2172
  512MOL0     H69119   2.982   3.424  10.712  2.8868 -0.9500  2.3375
  512MOL0     H69120   2.829   3.345  10.764 -0.4966  0.3474 -1.1899
  513MOL0     O69121   5.157   3.501   8.895 -0.1531  0.7541  0.3441
  513MOL0     C69122   5.129   3.615   8.943 -0.0173 -0.1489  0.9076
  513MOL0     O69123   5.224   3.696   9.000  0.0370 -0.0589 -0.3243
  513MOL0     C69124   5.347   3.644   9.024 -0.6615 -0.4483  0.1645
  513MOL0     C69125   5.389   3.612   9.156  0.2400 -0.5219  0.0906
  513MOL0     C69126   5.514   3.572   9.184  0.5030 -0.0625 -0.2509
  513MOL0     C69127   5.606   3.559   9.073  0.2336 -0.6098 -0.4055
  513MOL0     O69128   5.741   3.529   9.071 -0.5505  0.4471  0.9985
  513MOL0     C69129   5.819   3.545   9.193  0.6185  0.3289 -0.1470
  513MOL0     C69130   5.955   3.489   9.161 -0.1911  0.7639  0.3450
  513MOL0     C69131   6.049   3.493   9.278 -0.3700  0.3334 -0.2606
  513MOL0     C69132   6.102   3.633   9.305  0.9510 -0.6092 -0.3213
  513MOL0     C69133   6.214   3.619   9.414 -0.8215  0.2102 -0.8266
  513MOL0     C69134   6.288   3.746   9.435  0.2395 -0.1562 -0.2798
  513MOL0     C69135   6.395   3.746   9.543  0.6876  0.7926 -1.0546
  513MOL0     C69136   6.479   3.879   9.548  0.5097  0.1671  0.0343
  513MOL0     N69137   6.598   3.856   9.629 -1.0717  0.4731  0.1697
  513MOL0     C69138   6.723   3.818   9.582  0.7246  0.9556  0.2086
  513MOL0     C69139   6.818   3.849   9.674 -0.1180 -0.1374 -0.6799
  513MOL0     C69140   6.970   3.845   9.653  0.0728  1.5613  0.2020
  513MOL0     C69141   7.038   3.943   9.741  0.1185  0.3544  0.8448
  513MOL0     C69142   7.183   3.975   9.716  0.1458  0.2344  0.4864
  513MOL0     C69143   7.285   3.866   9.749  0.3613 -0.8703 -0.0110
  513MOL0     O69144   7.419   3.912   9.718 -0.0124  0.3757  0.4702
  513MOL0     C69145   7.508   3.958   9.810 -0.5642 -0.0036 -0.5543
  513MOL0     C69146   7.487   3.987   9.950  1.3517  0.1346 -0.4228
  513MOL0     C69147   7.578   4.068  10.019 -0.3356 -0.0915 -0.3370
  513MOL0     C69148   7.709   4.065   9.979 -0.3795  0.7422 -1.1224
  513MOL0     C69149   7.816   4.108  10.070  0.6511 -0.1871  0.4186
  513MOL0     O69150   7.938   4.133  10.009 -0.2790  0.6290 -0.3259
  513MOL0     C69151   8.023   4.216  10.078  0.0908  0.5003 -0.1555
  513MOL0     C69152   8.137   4.151  10.132  0.2239  0.6367  0.0019
  513MOL0     C69153   8.240   4.229  10.192  1.4098  0.6348  0.0979
  513MOL0     C69154   8.230   4.371  10.207  0.2313  0.2587 -0.2048
  513MOL0     O69155   8.342   4.434  10.274  0.1091 -0.0926  0.0826
  513MOL0     C69156   8.332   4.572  10.299 -0.0112  0.1957 -0.3679
  513MOL0     C69157   8.453   4.638  10.371 -0.3615 -0.4759  0.2522
  513MOL0     C69158   8.574   4.661  10.279 -0.6814  1.2120 -1.0478
  513MOL0     C69159   8.704   4.695  10.360 -0.5821  0.8268 -0.1575
  513MOL0     C69160   8.823   4.764  10.287 -0.6385 -0.4403  0.1709
  513MOL0     C69161   8.796   4.917  10.263 -0.1476 -0.4307 -0.6385
  513MOL0     C69162   8.839   4.974  10.133 -0.9633 -0.8544 -0.2573
  513MOL0     C69163   8.853   5.135  10.151 -0.2357 -0.7458  1.2029
  513MOL0    Cl69164   9.006   5.200  10.228  0.3838 -0.1980  0.2387
  513MOL0     C69165   8.108   4.435  10.165 -0.2069  0.2401 -0.0466
  513MOL0     C69166   8.004   4.351  10.103 -0.5802  0.2336  0.3585
  513MOL0     O69167   7.780   4.128  10.182 -0.5724  0.3844 -0.3523
  513MOL0     C69168   7.741   4.021   9.849 -0.1811 -0.5359 -0.9059
  513MOL0     C69169   7.636   3.985   9.763 -0.7458  0.7285 -0.0887
  513MOL0     N69170   6.748   3.910   9.779  0.1727 -0.5132 -0.1528
  513MOL0     N69171   6.616   3.897   9.749 -0.2579  0.6335  0.2864
  513MOL0     C69172   5.557   3.594   8.947  0.1868 -0.0363  0.1872
  513MOL0     C69173   5.433   3.641   8.912 -0.3276  0.8000 -0.6555
  513MOL0     C69174   5.002   3.670   8.907  0.5215  0.2173  0.4701
  513MOL0     C69175   4.994   3.815   8.891 -0.1023  0.2108  0.4708
  513MOL0     C69176   4.866   3.869   8.870  0.2719 -0.3602  0.5046
  513MOL0     C69177   4.744   3.790   8.875  0.1142 -0.0952  0.4506
  513MOL0     O69178   4.623   3.848   8.874  0.5490  0.3995  0.0524
  513MOL0     C69179   4.509   3.766   8.920 -0.1442  0.3350 -0.5368
  513MOL0     C69180   4.395   3.865   8.973  0.2205 -0.1286 -0.0995
  513MOL0     C69181   4.278   3.857   8.878  0.5575  0.5802  0.5278
  513MOL0     C69182   4.178   3.977   8.882  0.4119 -0.3847 -0.6926
  513MOL0     C69183   4.058   3.978   8.793  0.2224  0.8130  0.1583
  513MOL0     C69184   3.967   3.985   8.714 -0.6461 -0.1016  0.1340
  513MOL0     C69185   4.754   3.647   8.876  0.5517  0.1107 -0.2504
  513MOL0     C69186   4.876   3.590   8.897  1.2391 -0.1526 -0.8982
  513MOL0     C69187   4.872   3.440   8.893 -1.3504  1.1309 -0.6098
  513MOL0     H69188   5.313   3.626   9.232 -0.3476 -1.0434 -0.3834
  513MOL0     H69189   5.545   3.540   9.283 -1.0324  0.9242  0.5851
  513MOL0     H69190   5.825   3.652   9.213 -1.0343  0.4993 -0.4222
  513MOL0     H69191   5.776   3.498   9.282 -1.4750  2.5241  0.1014
  513MOL0     H69192   5.992   3.542   9.073  0.1527 -0.7750 -0.4611
  513MOL0     H69193   5.952   3.388   9.120  2.2112  0.4913  0.7128
  513MOL0     H69194   6.127   3.418   9.264 -0.3429  0.5821 -1.5959
  513MOL0     H69195   5.991   3.462   9.366 -1.0545 -1.4719 -1.2882
  513MOL0     H69196   6.160   3.675   9.222  3.0507  1.1407  1.9034
  513MOL0     H69197   6.032   3.706   9.347  2.1041 -0.1848  0.9215
  513MOL0     H69198   6.169   3.594   9.511 -0.4894 -1.3496 -1.0413
  513MOL0     H69199   6.284   3.538   9.394  0.9095  2.1175 -3.0089
  513MOL0     H69200   6.346   3.745   9.342  1.5559 -2.0506  0.4913
  513MOL0     H69201   6.214   3.823   9.457  0.6007  0.5476 -1.4515
  513MOL0     H69202   6.458   3.657   9.535  1.8508  1.3129  1.4126
  513MOL0     H69203   6.342   3.742   9.638  1.3278 -2.4372 -0.7480
  513MOL0     H69204   6.507   3.904   9.445 -0.2683 -2.3714 -0.8750
  513MOL0     H69205   6.404   3.949   9.585 -1.3304 -1.1697 -1.0027
  513MOL0     H69206   6.725   3.764   9.488  1.5532  0.4174  0.5191
  513MOL0     H69207   7.005   3.746   9.683  1.5089  1.2552 -2.1850
  513MOL0     H69208   6.992   3.854   9.546  2.9458 -2.2060  0.2575
  513MOL0     H69209   6.983   4.036   9.757 -0.9317 -0.3253  1.3635
  513MOL0     H69210   7.032   3.901   9.842 -2.9165 -1.7527 -0.0587
  513MOL0     H69211   7.223   4.055   9.778  1.4692  0.3434 -0.4734
  513MOL0     H69212   7.190   3.992   9.608 -0.7126 -4.0858 -0.4648
  513MOL0     H69213   7.263   3.771   9.698  1.9254 -3.4111  3.6133
  513MOL0     H69214   7.265   3.853   9.856 -1.0078  0.9834  0.0064
  513MOL0     H69215   7.389   3.973   9.995  1.1975  3.0031  0.3273
  513MOL0     H69216   7.541   4.097  10.117  0.3897 -1.1508  0.2699
  513MOL0     H69217   8.150   4.044  10.119  0.7177  0.6820  0.0977
  513MOL0     H69218   8.325   4.178  10.235  0.1599  0.5944  2.7225
  513MOL0     H69219   8.302   4.632  10.212 -0.6488  3.1445  1.7362
  513MOL0     H69220   8.254   4.577  10.375  0.7054  1.9429  0.3110
  513MOL0     H69221   8.412   4.732  10.409  0.5120  0.0857 -0.1534
  513MOL0     H69222   8.486   4.573  10.453  0.3358  2.4211  2.4366
  513MOL0     H69223   8.591   4.579  10.208 -1.4005  0.4677 -0.3708
  513MOL0     H69224   8.549   4.744  10.211 -2.1950 -0.3331 -2.4771
  513MOL0     H69225   8.741   4.597  10.392 -0.6752  0.2498 -1.7283
  513MOL0     H69226   8.689   4.738  10.460 -2.8401 -1.9601  0.8139
  513MOL0     H69227   8.843   4.703  10.198  2.5972  1.3052 -0.4427
  513MOL0     H69228   8.917   4.757  10.342  0.7803  1.8804 -1.7320
  513MOL0     H69229   8.690   4.936  10.284  0.2289  0.7169  0.3043
  513MOL0     H69230   8.844   4.978  10.340 -1.3649  0.7870 -0.7942
  513MOL0     H69231   8.766   4.940  10.058 -0.7952  1.2300 -1.4203
  513MOL0     H69232   8.935   4.930  10.105 -0.9110 -0.0986 -1.3079
  513MOL0     H69233   8.863   5.175  10.050 -1.4452 -1.4022  0.8095
  513MOL0     H69234   8.766   5.175  10.203 -0.5977 -0.1431  0.1538
  513MOL0     H69235   8.094   4.538  10.197  1.6812 -0.0035  1.8316
  513MOL0     H69236   7.911   4.400  10.075 -0.7548  0.3791  1.1686
  513MOL0     H69237   7.839   4.033   9.806 -0.4081 -0.7358 -1.4906
  513MOL0     H69238   7.659   3.961   9.659 -3.8443 -2.1288 -0.2802
  513MOL0     H69239   5.615   3.583   8.856 -1.4777 -0.1387 -0.9103
  513MOL0     H69240   5.397   3.663   8.812  2.3750 -1.7555 -2.3503
  513MOL0     H69241   5.085   3.875   8.889 -1.6237  2.6176 -0.0344
  513MOL0     H69242   4.855   3.976   8.858  2.5144 -0.1136  0.2011
  513MOL0     H69243   4.541   3.698   8.999 -1.1672  0.8825  0.3783
  513MOL0     H69244   4.466   3.690   8.854 -2.0364 -0.4013  1.4260
  513MOL0     H69245   4.433   3.967   8.968  1.5637 -0.5718  0.5933
  513MOL0     H69246   4.360   3.847   9.075 -1.0235 -1.4446 -0.7220
  513MOL0     H69247   4.226   3.763   8.898 -1.4226  1.1872 -1.3809
  513MOL0     H69248   4.315   3.849   8.776  0.2323  0.5296  0.4164
  513MOL0     H69249   4.143   3.996   8.984 -3.0448 -3.6510 -1.0878
  513MOL0     H69250   4.229   4.067   8.846  0.0938  1.5990  3.2169
  513MOL0     H69251   3.881   3.995   8.652 -2.5793 -1.1114  2.5249
  513MOL0     H69252   4.667   3.583   8.863  1.7764 -2.2313  2.2132
  513MOL0     H69253   4.924   3.391   8.811 -3.0592 -0.8042 -0.6260
  513MOL0     H69254   4.924   3.411   8.985  0.1263  0.3953 -1.6313
  513MOL0     H69255   4.777   3.387   8.900 -0.1053 -1.1193  0.5112
  514MOL0     O69256   8.523   3.508   1.723  0.1793 -0.1318  0.2571
  514MOL0     C69257   8.430   3.434   1.686  0.3088  0.0406  0.3030
  514MOL0     O69258   8.404   3.397   1.552 -0.0810 -0.2689 -0.0653
  514MOL0     C69259   8.488   3.433   1.448 -0.8791 -0.4208 -0.6904
  514MOL0     C69260   8.627   3.443   1.464  0.2675 -0.5030  0.1484
  514MOL0     C69261   8.704   3.458   1.347  0.5795 -0.4542 -0.5333
  514MOL0     C69262   8.645   3.474   1.219  0.4018  0.9138 -0.0803
  514MOL0     O69263   8.722   3.490   1.112  0.7388 -0.5064  0.7574
  514MOL0     C69264   8.843   3.419   1.094  0.6199  0.4780 -0.4815
  514MOL0     C69265   8.950   3.529   1.086 -0.1785  0.2622  0.2320
  514MOL0     C69266   9.081   3.461   1.050 -0.3422  0.6043 -0.4859
  514MOL0     C69267   9.213   3.546   1.063 -0.3423 -0.9742 -0.4633
  514MOL0     C69268   9.340   3.499   0.994 -0.0125  0.8948 -0.0594
  514MOL0     C69269   9.358   3.347   1.018  0.0219  0.5333 -0.5371
  514MOL0     C69270   9.491   3.289   0.969 -0.0083  0.1955  0.3179
  514MOL0     C69271   9.478   3.225   0.832  0.0452  0.3211  0.6113
  514MOL0     N69272   9.608   3.176   0.783  0.0529 -0.2339 -0.7462
  514MOL0     C69273   9.687   3.238   0.684 -0.0147  0.7544 -0.4683
  514MOL0     C69274   9.788   3.148   0.669  0.4560 -0.9489  0.4544
  514MOL0     C69275   9.907   3.174   0.572 -0.3856  0.0213 -0.1089
  514MOL0     C69276   9.990   3.301   0.605  0.1854 -0.0130 -0.1018
  514MOL0     C69277  10.042   3.299   0.746 -0.4278 -0.0393  0.8242
  514MOL0     C69278  10.186   3.370   0.759  0.8275  0.8134 -1.0292
  514MOL0     O69279  10.281   3.310   0.679 -0.2579  0.4188 -0.4977
  514MOL0     C69280  10.405   3.372   0.675 -0.3877  0.2692  0.2431
  514MOL0     C69281  10.443   3.506   0.702 -0.8405  0.7084  0.9811
  514MOL0     C69282  10.569   3.562   0.684 -0.7246 -0.1434  0.0389
  514MOL0     C69283  10.679   3.479   0.639  0.5684  0.2566 -0.8871
  514MOL0     C69284  10.812   3.534   0.625  0.8162 -0.3796  0.0358
  514MOL0     O69285  10.912   3.439   0.623 -0.0328 -0.3896 -0.5719
  514MOL0     C69286  11.029   3.484   0.573  0.9424 -1.0174 -0.5489
  514MOL0     C69287  11.145   3.497   0.657  0.4472  0.0830  0.9715
  514MOL0     C69288  11.271   3.528   0.604 -0.6176 -0.6103  0.5728
  514MOL0     C69289  11.281   3.554   0.466  0.0921  0.4766 -0.5719
  514MOL0     O69290  11.395   3.594   0.404  0.2635 -0.9490 -0.7858
  514MOL0     C69291  11.510   3.517   0.429 -0.2770  0.4461  0.4297
  514MOL0     C69292  11.638   3.609   0.420 -0.1601 -0.5417  0.4098
  514MOL0     C69293  11.758   3.531   0.471  0.4942 -0.2333 -0.1511
  514MOL0     C69294  11.906   3.588   0.449  0.5039 -0.3493  0.2504
  514MOL0     C69295  11.963   3.593   0.307  1.4387 -0.5533  0.4566
  514MOL0     C69296  12.093   3.669   0.307  1.0468  0.1751 -0.1313
  514MOL0     C69297  12.139   3.678   0.163  0.7230 -0.4236 -0.4242
  514MOL0     C69298  12.280   3.735   0.153  0.4502  0.2912  0.3071
  514MOL0    Cl69299  12.294   3.891   0.238  0.0746 -0.1464 -0.0528
  514MOL0     C69300  11.169   3.540   0.390  0.5006  0.1962  0.6923
  514MOL0     C69301  11.046   3.506   0.442 -1.1806 -0.2967  0.2119
  514MOL0     O69302  10.826   3.655   0.588  0.6243  0.5688 -0.3473
  514MOL0     C69303  10.644   3.344   0.632  0.7310 -0.0911 -0.1108
  514MOL0     C69304  10.513   3.294   0.648  0.2852  0.8443 -0.4184
  514MOL0     N69305   9.774   3.041   0.752  0.6502 -0.2141 -0.0402
  514MOL0     N69306   9.671   3.064   0.819  0.2103  0.2809 -0.7153
  514MOL0     C69307   8.511   3.491   1.210 -0.4926 -0.2632  0.0688
  514MOL0     C69308   8.431   3.474   1.329 -0.2887  0.4918  0.5995
  514MOL0     C69309   8.313   3.393   1.774  0.2855  0.0843  0.7680
  514MOL0     C69310   8.192   3.348   1.714  0.6122  0.0677 -0.1816
  514MOL0     C69311   8.088   3.297   1.798 -0.7004  0.4855  0.5836
  514MOL0     C69312   8.108   3.305   1.942  0.6806  0.1499  0.4899
  514MOL0     O69313   8.009   3.262   2.025  0.6642 -0.5787 -0.3105
  514MOL0     C69314   8.018   3.269   2.168  0.4834  0.8712 -0.4790
  514MOL0     C69315   7.901   3.194   2.236 -0.2778  1.4438 -0.5009
  514MOL0     C69316   7.907   3.041   2.204 -0.9599  0.3476  0.5260
  514MOL0     C69317   7.776   2.974   2.240 -0.5303 -0.4549 -0.4260
  514MOL0     C69318   7.753   2.959   2.389 -0.5914 -0.0767 -0.1920
  514MOL0     C69319   7.727   2.945   2.508  0.2144 -0.1300 -0.5506
  514MOL0     C69320   8.224   3.353   1.997 -0.9092 -0.3896 -0.1806
  514MOL0     C69321   8.327   3.401   1.914  0.0619  0.2648 -0.0310
  514MOL0     C69322   8.456   3.461   1.981  1.4112  0.8259 -0.9858
  514MOL0     H69323   8.677   3.429   1.559 -0.1130 -0.4016  0.3668
  514MOL0     H69324   8.809   3.481   1.353  0.3937  0.2866  0.0204
  514MOL0     H69325   8.865   3.349   1.174 -0.7077 -0.8992 -1.2587
  514MOL0     H69326   8.840   3.361   1.002  1.3513 -1.8895  0.9148
  514MOL0     H69327   8.962   3.583   1.181 -0.9146  1.4068 -0.3002
  514MOL0     H69328   8.932   3.610   1.015 -0.2475  0.5735  0.5973
  514MOL0     H69329   9.076   3.428   0.946  2.4666  0.2303 -0.5892
  514MOL0     H69330   9.093   3.379   1.121  1.5071  2.5222  1.6082
  514MOL0     H69331   9.184   3.645   1.029  2.7690  0.7672  1.5091
  514MOL0     H69332   9.239   3.552   1.169  0.6446  1.7370 -0.7979
  514MOL0     H69333   9.323   3.510   0.886  0.2250  4.0245  0.1504
  514MOL0     H69334   9.426   3.560   1.023 -1.1469  2.4415  0.1380
  514MOL0     H69335   9.357   3.324   1.125 -0.3853  0.6595 -0.5132
  514MOL0     H69336   9.279   3.283   0.979 -0.7292 -1.1796  3.3554
  514MOL0     H69337   9.533   3.219   1.043  3.1419  2.1396  0.5574
  514MOL0     H69338   9.573   3.361   0.972  1.2249 -1.0481 -1.5061
  514MOL0     H69339   9.406   3.145   0.850  0.5402  0.0133  1.2557
  514MOL0     H69340   9.435   3.280   0.747  1.6266 -1.2866 -1.3294
  514MOL0     H69341   9.655   3.326   0.630 -3.6153  0.4404  0.8174
  514MOL0     H69342   9.976   3.090   0.560 -0.1211  0.3359 -0.8337
  514MOL0     H69343   9.853   3.199   0.480  0.5845  0.7341 -0.5018
  514MOL0     H69344  10.078   3.307   0.540  0.4683  1.3555  0.3847
  514MOL0     H69345   9.936   3.392   0.579  0.1872 -0.8531 -3.5337
  514MOL0     H69346  10.034   3.194   0.778  0.7976 -0.6787 -0.8533
  514MOL0     H69347   9.969   3.357   0.804 -0.5624  1.1161 -0.4567
  514MOL0     H69348  10.213   3.356   0.864 -3.4597 -0.1840  0.1418
  514MOL0     H69349  10.176   3.477   0.740  0.1268  0.6697 -1.4880
  514MOL0     H69350  10.374   3.585   0.733  0.7538  2.0794  1.2094
  514MOL0     H69351  10.590   3.665   0.709  1.2134 -0.6081  0.4770
  514MOL0     H69352  11.139   3.481   0.764 -0.6848 -2.7503  0.5568
  514MOL0     H69353  11.351   3.540   0.677 -2.0608  1.2870  1.9342
  514MOL0     H69354  11.516   3.467   0.527  2.3058 -2.6003 -1.1071
  514MOL0     H69355  11.514   3.435   0.357  1.3513 -0.2412  1.2534
  514MOL0     H69356  11.649   3.643   0.317 -2.2352  0.0252  0.3320
  514MOL0     H69357  11.613   3.697   0.480 -1.8747 -0.2065 -0.7118
  514MOL0     H69358  11.745   3.534   0.580 -0.9995  0.9810 -0.3248
  514MOL0     H69359  11.757   3.425   0.443  0.4957 -0.5569  0.9917
  514MOL0     H69360  11.975   3.530   0.512 -0.9875 -0.8856  1.4577
  514MOL0     H69361  11.906   3.691   0.485  1.9948 -0.1160 -0.3145
  514MOL0     H69362  11.887   3.645   0.247  0.9659 -1.1758  0.5063
  514MOL0     H69363  11.967   3.492   0.268 -1.6557 -0.3534 -0.6339
  514MOL0     H69364  12.085   3.767   0.355  0.4524 -0.7899  1.8407
  514MOL0     H69365  12.158   3.617   0.378 -0.8445  0.9833  2.3408
  514MOL0     H69366  12.070   3.736   0.100  1.5144 -2.0619 -2.9492
  514MOL0     H69367  12.147   3.575   0.127 -1.8457 -0.3362 -1.5121
  514MOL0     H69368  12.347   3.659   0.193  0.6102  0.2465 -0.0400
  514MOL0     H69369  12.298   3.754   0.046 -0.0940  2.3552  0.5424
  514MOL0     H69370  11.167   3.552   0.282 -0.7046  0.7647  0.7608
  514MOL0     H69371  10.965   3.495   0.372  1.6972 -0.7848 -3.3746
  514MOL0     H69372  10.726   3.274   0.621 -1.8534 -3.0427 -2.3016
  514MOL0     H69373  10.492   3.189   0.631  2.7589  0.1202  0.6340
  514MOL0     H69374   8.470   3.505   1.110 -0.5629 -0.1328  0.1148
  514MOL0     H69375   8.323   3.476   1.315 -0.0212  0.7677 -1.8499
  514MOL0     H69376   8.166   3.346   1.609 -2.1762 -0.5697  0.4557
  514MOL0     H69377   7.995   3.259   1.757 -0.0281 -0.2044 -0.3430
  514MOL0     H69378   8.013   3.373   2.201 -0.2581  1.6344 -2.8269
  514MOL0     H69379   8.114   3.224   2.197 -0.3980 -1.1246 -0.4807
  514MOL0     H69380   7.808   3.240   2.201 -0.7319 -0.0968 -1.3581
  514MOL0     H69381   7.908   3.207   2.345  0.3615 -1.5561 -0.1102
  514MOL0     H69382   7.977   2.999   2.277 -0.7547 -1.1159 -0.4656
  514MOL0     H69383   7.930   3.006   2.103  0.3424 -0.7806  1.1881
  514MOL0     H69384   7.692   3.021   2.189  0.0288  2.1494  0.8624
  514MOL0     H69385   7.776   2.871   2.203 -1.1671 -0.3975 -0.5927
  514MOL0     H69386   7.689   2.943   2.608  1.4168  2.5445  0.0492
  514MOL0     H69387   8.263   3.363   2.098  2.0570  3.7501 -1.4310
  514MOL0     H69388   8.456   3.570   1.974 -0.1266  0.8112 -1.7100
  514MOL0     H69389   8.466   3.440   2.088 -0.7192  1.3731 -0.6254
  514MOL0     H69390   8.546   3.415   1.939  2.2009  2.2621 -0.9264
  515MOL0     O69391   8.418  10.099   5.086  0.1213  0.2093 -0.2889
  515MOL0     C69392   8.480  10.178   5.013 -0.6145 -0.1581  0.7932
  515MOL0     O69393   8.617  10.195   5.025  0.5496  0.5854 -0.3409
  515MOL0     C69394   8.678  10.094   5.104 -0.2773 -0.0827  0.1049
  515MOL0     C69395   8.760  10.008   5.038  0.4073 -0.3025  0.0846
  515MOL0     C69396   8.842   9.915   5.101  0.3997 -0.2417  0.6677
  515MOL0     C69397   8.830   9.896   5.237  0.0623 -0.4496  0.1777
  515MOL0     O69398   8.915   9.813   5.298  0.6750 -0.6119 -0.0233
  515MOL0     C69399   8.925   9.811   5.438  0.3850 -0.0955 -0.3141
  515MOL0     C69400   9.017   9.922   5.472  0.0509 -0.0195  0.0063
  515MOL0     C69401   9.030   9.948   5.623  0.6145  0.0633 -0.0024
  515MOL0     C69402   9.087  10.093   5.646 -0.0719 -0.0930  0.6867
  515MOL0     C69403   9.229  10.110   5.601  1.0359 -0.0090  0.0089
  515MOL0     C69404   9.330  10.029   5.691 -0.2449 -0.1630 -0.4183
  515MOL0     C69405   9.471  10.031   5.643  1.1153  0.0915  0.4730
  515MOL0     C69406   9.582   9.965   5.719  0.0150 -0.0210  0.2808
  515MOL0     N69407   9.718  10.020   5.686  0.8509  0.5405 -0.2508
  515MOL0     C69408   9.835   9.959   5.713  0.1434  0.5509 -0.0652
  515MOL0     C69409   9.932  10.058   5.684  0.3912 -0.5905 -0.2115
  515MOL0     C69410  10.071  10.016   5.675 -0.5169  0.8852  0.3178
  515MOL0     C69411  10.164  10.106   5.745 -0.2816 -0.7497  0.6841
  515MOL0     C69412  10.171  10.253   5.704  0.5261  0.4546  0.3888
  515MOL0     C69413  10.294  10.330   5.768  0.7300  0.2658  0.7290
  515MOL0     O69414  10.427  10.287   5.726 -0.0349  0.1971 -0.0258
  515MOL0     C69415  10.524  10.368   5.772  0.5864 -0.4827 -0.5374
  515MOL0     C69416  10.587  10.358   5.900  0.0738 -0.5997 -0.7134
  515MOL0     C69417  10.676  10.465   5.946  0.1744  0.0964 -0.4167
  515MOL0     C69418  10.686  10.577   5.868 -0.7385  1.1052 -0.1511
  515MOL0     C69419  10.772  10.692   5.921  0.0896 -0.0576  0.2929
  515MOL0     O69420  10.867  10.668   6.015 -0.2557 -0.4508 -0.7034
  515MOL0     C69421  10.957  10.765   6.048 -0.0049 -0.2685 -0.2935
  515MOL0     C69422  11.032  10.832   5.947 -0.2705 -0.0038 -0.1325
  515MOL0     C69423  11.142  10.924   5.981  0.3161  0.8737  0.2501
  515MOL0     C69424  11.156  10.947   6.118  0.8774 -0.3136 -0.4450
  515MOL0     O69425  11.244  11.045   6.147 -0.3530 -0.1335 -0.4121
  515MOL0     C69426  11.176  11.170   6.140 -0.6188  0.5605  0.2438
  515MOL0     C69427  11.260  11.260   6.226  0.1429  0.6858 -0.1754
  515MOL0     C69428  11.195  11.284   6.361  0.2817 -0.8802  0.0204
  515MOL0     C69429  11.183  11.164   6.457 -0.2550  0.2126  0.0085
  515MOL0     C69430  11.038  11.105   6.486  0.4513  0.7481 -0.7075
  515MOL0     C69431  10.943  11.183   6.571  0.3636 -0.0120  0.0161
  515MOL0     C69432  10.812  11.101   6.595  0.0566 -0.8793 -0.5351
  515MOL0     C69433  10.691  11.177   6.645  0.2714  1.1342 -0.8140
  515MOL0    Cl69434  10.650  11.283   6.512 -0.1678 -0.1004 -0.3364
  515MOL0     C69435  11.077  10.881   6.214  0.8094 -0.3998  0.0493
  515MOL0     C69436  10.982  10.783   6.180  0.6775 -0.6541 -0.2497
  515MOL0     O69437  10.753  10.800   5.868  0.0484  0.3834  0.7399
  515MOL0     C69438  10.624  10.592   5.740  0.0299  0.5057 -0.6398
  515MOL0     C69439  10.548  10.489   5.697  0.0431 -0.8439  0.0721
  515MOL0     N69440   9.866  10.172   5.642 -0.5017 -0.4865 -0.4214
  515MOL0     N69441   9.738  10.147   5.648  0.6319 -0.1015 -0.6643
  515MOL0     C69442   8.738   9.983   5.308  0.0970 -0.3173 -0.1398
  515MOL0     C69443   8.670  10.083   5.247 -0.1404 -0.1700 -1.2437
  515MOL0     C69444   8.418  10.264   4.910  0.1288  0.1189 -0.1307
  515MOL0     C69445   8.474  10.391   4.896  0.0445 -0.3977 -0.6756
  515MOL0     C69446   8.406  10.486   4.813 -0.6267  0.0010  0.0411
  515MOL0     C69447   8.291  10.447   4.754  0.0482  0.3316  0.0113
  515MOL0     O69448   8.237  10.547   4.681 -0.2298 -0.0924 -0.2645
  515MOL0     C69449   8.100  10.540   4.635 -0.6699  0.0808  0.3713
  515MOL0     C69450   8.043  10.683   4.601  0.0876  0.1918  0.1475
  515MOL0     C69451   7.939  10.703   4.493 -0.0576 -0.5274 -0.0723
  515MOL0     C69452   7.810  10.629   4.537  0.1511 -0.4986 -0.3195
  515MOL0     C69453   7.741  10.697   4.647  0.5544  0.5434  0.1227
  515MOL0     C69454   7.687  10.747   4.748  0.4637 -0.3367 -0.6941
  515MOL0     C69455   8.233  10.320   4.773  1.0977  0.3075  0.3047
  515MOL0     C69456   8.294  10.228   4.856  0.1435  0.3452 -0.7166
  515MOL0     C69457   8.222  10.091   4.879 -0.3534 -0.2020  0.8477
  515MOL0     H69458   8.751  10.030   4.932 -0.7516 -2.4144 -0.3081
  515MOL0     H69459   8.898   9.851   5.033 -1.6255 -1.1346 -0.2382
  515MOL0     H69460   8.830   9.826   5.490 -0.2674 -3.1952 -0.4124
  515MOL0     H69461   8.955   9.713   5.476 -4.3909 -1.4949  0.4461
  515MOL0     H69462   8.982  10.017   5.430 -0.4564  0.5369  1.5953
  515MOL0     H69463   9.113   9.904   5.424 -0.6011  0.1641 -1.4096
  515MOL0     H69464   9.091   9.864   5.660 -1.1579 -0.9107  0.8665
  515MOL0     H69465   8.933   9.947   5.674  1.2588  1.5538  1.3530
  515MOL0     H69466   9.028  10.165   5.588  1.6514 -0.8468 -2.2459
  515MOL0     H69467   9.078  10.124   5.750 -0.5183  1.1285  0.3050
  515MOL0     H69468   9.238  10.082   5.496  1.9604 -0.2676  0.1545
  515MOL0     H69469   9.263  10.214   5.608  1.7355 -0.3350  1.8913
  515MOL0     H69470   9.321  10.079   5.788 -4.0516  0.8084 -1.1090
  515MOL0     H69471   9.297   9.927   5.713  1.1704  0.1862  4.2884
  515MOL0     H69472   9.501  10.136   5.640  1.2713  0.0371  0.0412
  515MOL0     H69473   9.450   9.990   5.544  0.6520 -1.3844  1.1563
  515MOL0     H69474   9.554   9.976   5.824  1.4365 -1.8394  0.8941
  515MOL0     H69475   9.594   9.859   5.696  0.9674 -0.1066  1.1010
  515MOL0     H69476   9.845   9.857   5.748 -2.6644  0.7343  1.4781
  515MOL0     H69477  10.083   9.919   5.723 -4.4906  0.7268  1.2645
  515MOL0     H69478  10.112  10.005   5.574 -0.2669 -0.8706  0.5782
  515MOL0     H69479  10.146  10.111   5.852 -1.4255  0.7929  0.4688
  515MOL0     H69480  10.267  10.072   5.731  0.3891  1.9480 -2.1283
  515MOL0     H69481  10.085  10.300   5.754  1.0385  0.9899  0.7768
  515MOL0     H69482  10.158  10.255   5.595 -0.3262 -0.7755  0.4451
  515MOL0     H69483  10.293  10.310   5.875 -1.8570 -0.1037  0.6834
  515MOL0     H69484  10.286  10.439   5.761  0.3491  0.2711  1.2027
  515MOL0     H69485  10.551  10.275   5.961 -0.9604 -1.3716 -2.3269
  515MOL0     H69486  10.732  10.446   6.038 -0.7833 -0.1023  0.1359
  515MOL0     H69487  11.008  10.823   5.842  0.4506  1.9460 -0.5041
  515MOL0     H69488  11.194  10.972   5.899 -0.6563  3.3125  0.9792
  515MOL0     H69489  11.167  11.203   6.036 -0.9388 -0.8181 -0.1932
  515MOL0     H69490  11.072  11.161   6.173  0.1940  0.3967  3.0136
  515MOL0     H69491  11.366  11.233   6.222  1.1038  4.1991 -1.4584
  515MOL0     H69492  11.261  11.350   6.164  3.2573 -0.9435 -2.8090
  515MOL0     H69493  11.241  11.371   6.408 -0.6576 -0.4561  0.1780
  515MOL0     H69494  11.095  11.324   6.341  0.5335 -0.1865  0.1248
  515MOL0     H69495  11.237  11.189   6.549  1.9535  0.7538 -1.3698
  515MOL0     H69496  11.241  11.085   6.409  0.9839  0.7831  0.5255
  515MOL0     H69497  11.055  11.005   6.527 -0.6491  0.4146 -1.0363
  515MOL0     H69498  10.992  11.085   6.389  0.2354 -3.1976  0.0385
  515MOL0     H69499  10.980  11.196   6.673 -1.8829 -4.0814  1.5877
  515MOL0     H69500  10.931  11.283   6.529  1.6282 -0.7587 -2.3269
  515MOL0     H69501  10.836  11.035   6.678 -2.4311 -0.2410  0.8047
  515MOL0     H69502  10.795  11.040   6.505  3.7039 -0.8955 -1.3656
  515MOL0     H69503  10.604  11.116   6.670  1.3924 -0.4666 -0.6697
  515MOL0     H69504  10.718  11.215   6.744  2.3666 -2.2184  0.0802
  515MOL0     H69505  11.108  10.905   6.316  0.8312  1.4365 -0.3503
  515MOL0     H69506  10.932  10.721   6.253  0.4311  0.2535  0.3748
  515MOL0     H69507  10.644  10.678   5.677 -2.3734  0.7876 -1.1113
  515MOL0     H69508  10.491  10.506   5.606 -2.4432 -2.3799  1.2296
  515MOL0     H69509   8.714   9.990   5.414  1.0041 -0.8386  0.1137
  515MOL0     H69510   8.611  10.152   5.306 -0.8480  0.9068 -3.1162
  515MOL0     H69511   8.560  10.428   4.949 -1.3684  1.8891  0.1620
  515MOL0     H69512   8.441  10.586   4.792  0.4831 -0.3738  0.0520
  515MOL0     H69513   8.035  10.486   4.704 -0.4123  2.1651  2.3471
  515MOL0     H69514   8.118  10.483   4.543  0.0390  2.0038 -0.7497
  515MOL0     H69515   8.126  10.741   4.561 -0.7609 -1.2850 -4.2843
  515MOL0     H69516   8.006  10.726   4.694 -1.1593  1.1002 -0.7520
  515MOL0     H69517   7.969  10.665   4.394 -0.5468 -2.7116  0.5535
  515MOL0     H69518   7.909  10.805   4.471 -2.0719 -1.3759 -1.5485
  515MOL0     H69519   7.731  10.622   4.462 -0.3941 -3.7093  0.4090
  515MOL0     H69520   7.825  10.523   4.560 -0.3861 -0.5323 -0.1287
  515MOL0     H69521   7.649  10.781   4.843  0.6023  1.0632 -1.1186
  515MOL0     H69522   8.139  10.286   4.731  0.5390 -0.4152  2.0548
  515MOL0     H69523   8.128  10.096   4.824  1.3728  1.6491 -2.2887
  515MOL0     H69524   8.280  10.005   4.845 -0.4823  0.0764 -0.1089
  515MOL0     H69525   8.198  10.073   4.984  1.3053 -0.5485  1.1961
  516MOL0     O69526   7.638   9.439   4.846  0.0967  0.1852 -0.5645
  516MOL0     C69527   7.584   9.533   4.905 -0.5197 -0.2826 -0.3747
  516MOL0     O69528   7.652   9.630   4.976  0.6194 -0.7801  0.2594
  516MOL0     C69529   7.788   9.648   4.964  0.2229 -0.9116 -0.2946
  516MOL0     C69530   7.854   9.715   5.068 -0.5407  0.4685 -0.7502
  516MOL0     C69531   7.992   9.738   5.075  0.4725  0.8469  0.6107
  516MOL0     C69532   8.072   9.700   4.967  0.4552 -0.6548 -0.4683
  516MOL0     O69533   8.208   9.740   4.976 -0.3929 -0.3195 -0.1200
  516MOL0     C69534   8.291   9.692   4.866  1.0212  0.0922 -0.4627
  516MOL0     C69535   8.429   9.737   4.854 -0.4884  0.1230  0.0518
  516MOL0     C69536   8.503   9.751   4.980  0.8210 -0.3171 -0.5033
  516MOL0     C69537   8.551   9.620   5.033  0.2440  0.8544 -0.3088
  516MOL0     C69538   8.629   9.624   5.167  0.1818  0.4137  0.7502
  516MOL0     C69539   8.669   9.483   5.204 -0.0346  0.3117  0.0049
  516MOL0     C69540   8.751   9.488   5.334  0.0377  0.1609  0.7168
  516MOL0     C69541   8.671   9.515   5.458  0.7030  0.4154 -0.1373
  516MOL0     N69542   8.630   9.389   5.526  0.1187 -0.2157  0.6732
  516MOL0     C69543   8.701   9.270   5.537  0.4445 -0.0524  0.8078
  516MOL0     C69544   8.609   9.176   5.553  0.7088 -0.4474 -0.2815
  516MOL0     C69545   8.644   9.034   5.560  0.5002  0.0901 -0.5152
  516MOL0     C69546   8.614   8.949   5.439 -0.6383  0.3538 -0.5272
  516MOL0     C69547   8.723   8.842   5.416  0.9122 -0.9767 -0.0983
  516MOL0     C69548   8.683   8.753   5.294 -0.3799  0.4800 -0.0646
  516MOL0     O69549   8.750   8.627   5.284  0.4308  0.0072 -0.4291
  516MOL0     C69550   8.877   8.619   5.233  0.3240  1.1910 -0.4052
  516MOL0     C69551   8.944   8.489   5.215  0.2807 -0.2816  0.0209
  516MOL0     C69552   9.080   8.487   5.162  0.2102 -1.4250  0.4011
  516MOL0     C69553   9.155   8.605   5.136  0.0706 -0.3507  0.2709
  516MOL0     C69554   9.299   8.607   5.083  0.3927 -0.0750  0.5095
  516MOL0     O69555   9.346   8.719   5.021  0.6449  0.0920 -0.0508
  516MOL0     C69556   9.480   8.731   4.999 -0.0457 -0.6459 -0.6998
  516MOL0     C69557   9.506   8.777   4.874  0.2359  0.7723  1.2059
  516MOL0     C69558   9.644   8.800   4.838  0.4952 -0.0244  0.6667
  516MOL0     C69559   9.743   8.781   4.931  0.1397 -0.0027  0.3370
  516MOL0     O69560   9.873   8.788   4.879 -0.3503 -0.4002  0.7119
  516MOL0     C69561   9.960   8.688   4.939  0.9000 -0.4089 -0.0968
  516MOL0     C69562  10.105   8.688   4.882  0.2418  1.0179 -0.0573
  516MOL0     C69563  10.095   8.650   4.734 -0.5253 -0.6507  0.4324
  516MOL0     C69564  10.222   8.676   4.649  0.8972  0.7185 -0.6520
  516MOL0     C69565  10.187   8.638   4.505 -0.2654  0.4936 -0.0696
  516MOL0     C69566  10.297   8.662   4.410 -0.4865  0.5795  0.5036
  516MOL0     C69567  10.407   8.548   4.416  0.2976  0.9923  0.0045
  516MOL0     C69568  10.515   8.556   4.301 -0.8481 -0.5304 -0.2719
  516MOL0    Cl69569  10.452   8.494   4.147  0.2384 -0.1298 -0.1881
  516MOL0     C69570   9.716   8.747   5.061 -0.1385 -0.0471 -0.6808
  516MOL0     C69571   9.585   8.724   5.098  0.7867 -0.2958  0.3506
  516MOL0     O69572   9.363   8.501   5.083  0.3515  0.3898 -0.1891
  516MOL0     C69573   9.079   8.725   5.150 -0.8121  0.0441  0.4647
  516MOL0     C69574   8.948   8.728   5.197 -0.0853  0.7041 -0.5535
  516MOL0     N69575   8.485   9.229   5.553  1.7842  0.4561 -0.4642
  516MOL0     N69576   8.498   9.362   5.535  1.3006 -0.6075  0.3238
  516MOL0     C69577   8.013   9.619   4.873 -0.3427 -0.3182  0.1557
  516MOL0     C69578   7.876   9.598   4.865  0.1263  0.3370 -0.9545
  516MOL0     C69579   7.437   9.529   4.905 -0.2807 -0.6156  0.6068
  516MOL0     C69580   7.375   9.474   4.791  0.1130  0.4341 -0.0543
  516MOL0     C69581   7.239   9.493   4.779  0.4968  0.4272 -0.8365
  516MOL0     C69582   7.159   9.544   4.869  0.7808 -0.9592  0.3215
  516MOL0     O69583   7.031   9.568   4.831 -0.2276  0.2734 -0.2862
  516MOL0     C69584   6.930   9.608   4.924 -0.5636 -0.9881  0.0709
  516MOL0     C69585   6.788   9.615   4.854  0.3888  0.3494 -0.4237
  516MOL0     C69586   6.748   9.746   4.786  1.2709 -0.0980  0.5743
  516MOL0     C69587   6.596   9.759   4.756  0.2316  0.5876  0.8326
  516MOL0     C69588   6.546   9.668   4.645  0.5244 -0.5593 -0.5524
  516MOL0     C69589   6.497   9.600   4.554 -0.0605  0.4618 -0.1538
  516MOL0     C69590   7.220   9.588   4.988  0.0741  0.5580 -0.3076
  516MOL0     C69591   7.352   9.578   5.008 -1.2341  0.3256 -0.2195
  516MOL0     C69592   7.403   9.637   5.139  0.0935  0.3658  0.1864
  516MOL0     H69593   7.800   9.733   5.160  1.6380 -0.1340  0.7097
  516MOL0     H69594   8.020   9.802   5.158 -0.8476  2.1719  0.0916
  516MOL0     H69595   8.296   9.584   4.879  0.9715  0.1103 -0.3050
  516MOL0     H69596   8.242   9.705   4.769 -1.0819  1.6877  0.7284
  516MOL0     H69597   8.431   9.831   4.797  0.3671 -0.7248 -1.3764
  516MOL0     H69598   8.480   9.672   4.783  2.1533 -0.5711  2.3801
  516MOL0     H69599   8.468   9.823   5.054 -1.1437 -0.3684 -1.3337
  516MOL0     H69600   8.594   9.804   4.948 -1.0060  1.9489 -2.3314
  516MOL0     H69601   8.460   9.561   5.049 -1.5228  3.6163  0.5079
  516MOL0     H69602   8.616   9.567   4.962  0.3607 -1.2678  1.2890
  516MOL0     H69603   8.721   9.682   5.150 -0.4336  1.5407  1.1658
  516MOL0     H69604   8.570   9.678   5.242  3.1688  2.4008  1.9013
  516MOL0     H69605   8.582   9.416   5.206  0.3265 -0.3167 -2.3016
  516MOL0     H69606   8.717   9.444   5.113 -3.7595  1.1194 -2.5246
  516MOL0     H69607   8.822   9.571   5.319  0.2283 -0.0337  0.5371
  516MOL0     H69608   8.818   9.402   5.349  1.1386  1.0376  1.0110
  516MOL0     H69609   8.728   9.576   5.529  2.6682  0.0006 -1.2770
  516MOL0     H69610   8.590   9.579   5.423 -0.9860 -0.4360  1.9756
  516MOL0     H69611   8.809   9.261   5.540  0.5148  0.8288  1.1538
  516MOL0     H69612   8.750   9.017   5.579 -0.0509 -1.8097  1.2795
  516MOL0     H69613   8.597   8.986   5.647  1.1840 -3.4045 -1.9088
  516MOL0     H69614   8.520   8.897   5.460 -0.5658  0.5521  0.3550
  516MOL0     H69615   8.589   9.008   5.350 -0.9579  2.0400  0.6232
  516MOL0     H69616   8.743   8.790   5.510  3.6278  0.9087  0.4851
  516MOL0     H69617   8.815   8.898   5.398 -1.5979  2.8465 -2.5754
  516MOL0     H69618   8.679   8.817   5.206 -0.3589  1.9518  0.9755
  516MOL0     H69619   8.580   8.724   5.317 -1.0720  1.5842 -1.5917
  516MOL0     H69620   8.884   8.403   5.244 -0.6712  0.5816  0.6973
  516MOL0     H69621   9.129   8.393   5.138  1.2620 -0.3966 -1.6424
  516MOL0     H69622   9.429   8.776   4.797  0.2248 -4.3594  0.9596
  516MOL0     H69623   9.663   8.831   4.735 -0.8536  2.2436  1.0400
  516MOL0     H69624   9.986   8.702   5.044  4.0871  0.4102 -0.8907
  516MOL0     H69625   9.916   8.588   4.932  2.1624 -1.1878  2.2373
  516MOL0     H69626  10.153   8.786   4.894  2.6657 -0.1021  0.1042
  516MOL0     H69627  10.170   8.615   4.933 -0.4887  0.3721 -0.0351
  516MOL0     H69628  10.071   8.544   4.733 -0.9096 -0.5989  1.7507
  516MOL0     H69629  10.010   8.701   4.686  2.3054  3.3323 -0.9334
  516MOL0     H69630  10.299   8.605   4.681  1.3545  0.8353 -1.4466
  516MOL0     H69631  10.243   8.782   4.659 -1.5239  1.1937  0.0596
  516MOL0     H69632  10.098   8.697   4.482 -2.1332 -3.1210 -3.4653
  516MOL0     H69633  10.154   8.534   4.507  0.6272  0.1919 -0.2939
  516MOL0     H69634  10.253   8.670   4.310  0.0230 -0.8251  0.1376
  516MOL0     H69635  10.355   8.754   4.418  0.6208 -0.2473  2.7975
  516MOL0     H69636  10.362   8.448   4.420  2.4892 -0.0199  2.6615
  516MOL0     H69637  10.451   8.567   4.514  0.5949  2.4979 -0.3996
  516MOL0     H69638  10.533   8.663   4.290 -2.7807 -0.1907 -0.4983
  516MOL0     H69639  10.612   8.520   4.336  0.2401  2.9357  0.7262
  516MOL0     H69640   9.795   8.732   5.133  0.2025 -0.7452 -1.1926
  516MOL0     H69641   9.570   8.707   5.204 -0.2225 -5.2264 -0.3576
  516MOL0     H69642   9.123   8.824   5.144 -0.7425  0.0762  1.3166
  516MOL0     H69643   8.898   8.824   5.206 -0.6168  0.3097  1.1070
  516MOL0     H69644   8.081   9.577   4.799  1.0714  1.6730  0.2752
  516MOL0     H69645   7.838   9.535   4.785 -1.5630 -2.4710  1.8210
  516MOL0     H69646   7.417   9.419   4.708 -1.6444 -1.2160  0.0812
  516MOL0     H69647   7.202   9.460   4.682  2.4811 -0.0467 -1.4739
  516MOL0     H69648   6.965   9.705   4.961  2.4748 -1.9853  0.0991
  516MOL0     H69649   6.931   9.532   5.003 -0.4782 -1.1665 -0.1017
  516MOL0     H69650   6.717   9.597   4.935  0.1499  3.1505  0.0650
  516MOL0     H69651   6.781   9.530   4.785  2.7492 -0.6906  0.4963
  516MOL0     H69652   6.802   9.761   4.692 -0.7400 -0.4760 -0.7082
  516MOL0     H69653   6.774   9.825   4.857  0.8449  0.3855  0.1981
  516MOL0     H69654   6.530   9.731   4.838  3.0390 -4.7064  1.7566
  516MOL0     H69655   6.579   9.867   4.747 -0.2704  0.3293 -2.3620
  516MOL0     H69656   6.454   9.539   4.478 -2.0846 -0.1030  1.3684
  516MOL0     H69657   7.163   9.631   5.069  1.7996 -2.5430  2.8016
  516MOL0     H69658   7.435   9.741   5.136  2.2155  0.1301  5.1723
  516MOL0     H69659   7.329   9.635   5.219  2.2154  2.3473  2.3541
  516MOL0     H69660   7.488   9.579   5.177 -0.5989  0.8617  2.6381
  517MOL0     O69661   4.749   5.428   9.505  0.2162 -0.1762  0.1936
  517MOL0     C69662   4.700   5.544   9.513 -1.1161  0.4541 -0.4699
  517MOL0     O69663   4.777   5.660   9.504  0.1830 -0.3689  0.0381
  517MOL0     C69664   4.895   5.661   9.431 -0.5732 -0.3874  0.5860
  517MOL0     C69665   4.902   5.678   9.292 -0.6032 -0.4049  0.1560
  517MOL0     C69666   5.024   5.680   9.220 -0.7768 -0.9042 -0.4144
  517MOL0     C69667   5.144   5.661   9.292 -0.0555  0.4522  0.9753
  517MOL0     O69668   5.269   5.669   9.241  0.2119  0.0707  1.5325
  517MOL0     C69669   5.288   5.714   9.105 -0.0276  0.0414 -0.4795
  517MOL0     C69670   5.432   5.702   9.061 -0.7508  0.5223 -0.2332
  517MOL0     C69671   5.537   5.790   9.137  0.1710 -0.7637 -0.5238
  517MOL0     C69672   5.671   5.807   9.084  0.0138  0.5540  0.0294
  517MOL0     C69673   5.760   5.890   9.180  0.5277  0.4204  0.3195
  517MOL0     C69674   5.862   5.790   9.252  0.0263 -0.3489 -0.9797
  517MOL0     C69675   5.942   5.847   9.367  0.1049 -1.1639  0.1983
  517MOL0     C69676   5.998   5.742   9.458  0.3229  0.5298  0.2371
  517MOL0     N69677   6.121   5.678   9.406 -1.4136 -0.2592 -0.3273
  517MOL0     C69678   6.250   5.717   9.438  0.0606 -0.5814  0.1830
  517MOL0     C69679   6.322   5.624   9.376  0.0177 -0.1995 -0.0824
  517MOL0     C69680   6.470   5.594   9.401  0.7457  0.4381 -0.0037
  517MOL0     C69681   6.565   5.627   9.283 -0.4101 -0.4737 -0.1440
  517MOL0     C69682   6.707   5.623   9.331 -1.2835  0.5293 -0.4231
  517MOL0     C69683   6.776   5.491   9.360 -0.0368  0.0164 -0.3651
  517MOL0     O69684   6.917   5.511   9.356  0.2326 -0.2125  0.4618
  517MOL0     C69685   6.987   5.549   9.468 -0.8341 -0.1298 -0.0048
  517MOL0     C69686   6.943   5.545   9.599 -0.6991 -0.0762 -0.5175
  517MOL0     C69687   7.021   5.595   9.702 -0.1304 -0.1899  0.6351
  517MOL0     C69688   7.154   5.647   9.673  0.5427 -0.1772  0.5720
  517MOL0     C69689   7.236   5.716   9.768  0.1165 -0.3386  0.3172
  517MOL0     O69690   7.174   5.750   9.885 -0.3716 -0.6597  1.0402
  517MOL0     C69691   7.251   5.806   9.985  0.2693 -0.5465  0.0427
  517MOL0     C69692   7.245   5.943  10.010 -0.4643 -0.2146 -0.0417
  517MOL0     C69693   7.308   5.995  10.121  0.0625 -0.4208 -0.4268
  517MOL0     C69694   7.387   5.915  10.208 -0.2394 -0.4116  0.5300
  517MOL0     O69695   7.462   5.969  10.308  0.2244 -0.5872  0.8487
  517MOL0     C69696   7.559   6.071  10.275  0.8142  0.9544  1.7595
  517MOL0     C69697   7.670   6.013  10.180 -0.6968  0.7481  0.5958
  517MOL0     C69698   7.758   5.908  10.262  0.3375  0.6171  0.9161
  517MOL0     C69699   7.856   5.986  10.341  0.8314 -0.1331  0.2853
  517MOL0     C69700   7.960   5.915  10.421  0.2698 -0.2867 -0.6673
  517MOL0     C69701   8.054   5.838  10.325 -0.0042 -0.5689 -0.7315
  517MOL0     C69702   8.196   5.827  10.391 -0.6635  0.6618 -0.3355
  517MOL0     C69703   8.295   5.730  10.310 -0.9218 -0.3338 -0.2253
  517MOL0    Cl69704   8.443   5.701  10.417  0.4037 -0.0259  0.1147
  517MOL0     C69705   7.392   5.781  10.189 -0.1664  0.1866  0.3451
  517MOL0     C69706   7.317   5.728  10.081 -0.7064  0.3851 -0.2128
  517MOL0     O69707   7.353   5.736   9.747 -0.2723 -0.2539 -0.0094
  517MOL0     C69708   7.188   5.658   9.531 -0.3968 -0.0967 -0.8581
  517MOL0     C69709   7.114   5.605   9.433  1.6398  0.1153  0.8358
  517MOL0     N69710   6.238   5.553   9.290  0.2174  0.0996 -0.4236
  517MOL0     N69711   6.118   5.574   9.325  0.4379  0.1342 -0.8238
  517MOL0     C69712   5.136   5.647   9.428  0.1972  0.3060  0.3742
  517MOL0     C69713   5.016   5.649   9.498 -0.4051  0.5369  0.5799
  517MOL0     C69714   4.554   5.560   9.539 -1.2023 -0.3824  0.4446
  517MOL0     C69715   4.504   5.691   9.562  0.2958  0.2826 -1.1918
  517MOL0     C69716   4.368   5.713   9.591 -0.7689 -0.1519  0.1968
  517MOL0     C69717   4.282   5.613   9.588 -0.0692  0.0568  0.3020
  517MOL0     O69718   4.149   5.640   9.607 -0.6615  0.0439 -0.3905
  517MOL0     C69719   4.059   5.531   9.585 -0.2041 -0.2760  0.1707
  517MOL0     C69720   3.917   5.585   9.597 -0.5713  0.2290  0.0728
  517MOL0     C69721   3.796   5.498   9.590 -0.3178 -1.0242 -0.7313
  517MOL0     C69722   3.665   5.578   9.592  0.0150  0.0938  0.5340
  517MOL0     C69723   3.547   5.505   9.622  1.3889 -0.5675  0.2346
  517MOL0     C69724   3.444   5.450   9.622 -0.9334  0.3717  0.3002
  517MOL0     C69725   4.328   5.484   9.562 -0.8930  1.2819  0.8416
  517MOL0     C69726   4.459   5.456   9.532  0.1741  0.4217  0.1643
  517MOL0     C69727   4.481   5.315   9.472 -0.6290 -0.6650  0.2499
  517MOL0     H69728   4.803   5.688   9.248  0.3875 -4.3280 -3.5938
  517MOL0     H69729   5.027   5.688   9.112  0.9105  3.5468 -0.2233
  517MOL0     H69730   5.231   5.648   9.039 -0.7100 -1.0205  1.1039
  517MOL0     H69731   5.263   5.819   9.088 -0.6373  0.2698  1.5635
  517MOL0     H69732   5.425   5.732   8.956  1.6264 -0.4720 -0.7459
  517MOL0     H69733   5.469   5.600   9.072 -2.0852  0.2006  1.8078
  517MOL0     H69734   5.547   5.743   9.235 -0.1137  0.8475  0.3244
  517MOL0     H69735   5.487   5.887   9.147 -1.0924 -1.3236 -1.1564
  517MOL0     H69736   5.727   5.717   9.059 -0.6891  0.7509 -2.5072
  517MOL0     H69737   5.661   5.863   8.991  1.7603 -3.0391 -2.5390
  517MOL0     H69738   5.821   5.957   9.119 -0.3769  1.6367  0.7211
  517MOL0     H69739   5.702   5.938   9.260 -0.5876 -3.2029  1.9405
  517MOL0     H69740   5.807   5.704   9.292 -0.3992  1.0570  1.6664
  517MOL0     H69741   5.933   5.747   9.181 -0.6431 -2.1404 -0.6164
  517MOL0     H69742   5.871   5.909   9.421  1.0984 -0.5771  0.8756
  517MOL0     H69743   6.035   5.893   9.331  0.5083 -0.6559  1.8250
  517MOL0     H69744   6.018   5.784   9.557  0.7915 -2.0305  1.2894
  517MOL0     H69745   5.913   5.673   9.460  0.8334 -0.1269 -0.3345
  517MOL0     H69746   6.276   5.789   9.515  1.5414 -0.9091  0.0036
  517MOL0     H69747   6.504   5.654   9.486  1.9007  0.1351 -0.2448
  517MOL0     H69748   6.479   5.489   9.430 -1.5305  0.1385 -0.1696
  517MOL0     H69749   6.539   5.562   9.199  0.6358 -2.9521  1.3562
  517MOL0     H69750   6.545   5.731   9.257  0.5753  0.8063  3.6489
  517MOL0     H69751   6.721   5.697   9.410 -0.2609 -2.4475  2.3918
  517MOL0     H69752   6.761   5.661   9.243 -0.9415 -0.8538 -0.8286
  517MOL0     H69753   6.756   5.426   9.275 -3.9482  2.4908 -1.6066
  517MOL0     H69754   6.750   5.442   9.454  0.8544 -0.0308 -0.1304
  517MOL0     H69755   6.844   5.506   9.621 -1.0793  1.1700  0.0484
  517MOL0     H69756   6.982   5.592   9.803  3.1124  0.6182  2.0252
  517MOL0     H69757   7.179   6.000   9.945 -1.2428 -1.5267 -0.4411
  517MOL0     H69758   7.295   6.102  10.133 -0.4915 -0.5639  0.3405
  517MOL0     H69759   7.506   6.152  10.225  1.5985  0.5570  0.2241
  517MOL0     H69760   7.610   6.117  10.360  1.4613  2.3287  0.6667
  517MOL0     H69761   7.625   5.961  10.094  0.3350  3.6254 -1.8556
  517MOL0     H69762   7.740   6.083  10.134  0.8125 -1.5701 -0.8882
  517MOL0     H69763   7.694   5.853  10.331 -0.2530  1.8147  1.3433
  517MOL0     H69764   7.813   5.835  10.202 -3.0061 -1.3073 -0.0680
  517MOL0     H69765   7.800   6.045  10.413 -2.8611  0.3588 -2.6414
  517MOL0     H69766   7.900   6.063  10.277 -0.1027 -0.7775 -1.1892
  517MOL0     H69767   7.911   5.838  10.481  1.1174 -1.5405 -1.5315
  517MOL0     H69768   8.022   5.983  10.480  2.3472 -1.6665 -1.1413
  517MOL0     H69769   8.004   5.744  10.300 -0.6527 -0.3111 -0.4401
  517MOL0     H69770   8.065   5.882  10.225  2.9773  0.5369 -0.0140
  517MOL0     H69771   8.191   5.785  10.492 -2.4527  0.0727 -0.6310
  517MOL0     H69772   8.244   5.924  10.400  1.7833 -0.6083  1.3754
  517MOL0     H69773   8.239   5.637  10.294 -1.0143 -0.1017 -1.3534
  517MOL0     H69774   8.321   5.767  10.210 -0.7872 -1.7685 -0.7470
  517MOL0     H69775   7.450   5.710  10.247  1.5425  1.8703  0.7648
  517MOL0     H69776   7.314   5.621  10.069  2.8552  0.4708 -3.8342
  517MOL0     H69777   7.276   5.710   9.496  1.0908 -1.7189  0.2833
  517MOL0     H69778   7.136   5.613   9.327 -0.9555 -0.4827  0.1839
  517MOL0     H69779   5.233   5.643   9.477  0.8832  0.1613 -0.9533
  517MOL0     H69780   5.005   5.624   9.603  0.2608  0.3863  0.6212
  517MOL0     H69781   4.562   5.782   9.578 -0.2340  0.2421  1.4244
  517MOL0     H69782   4.343   5.814   9.622  0.0935 -0.3194  1.5107
  517MOL0     H69783   4.082   5.453   9.658  2.4186 -0.4424 -0.6947
  517MOL0     H69784   4.076   5.497   9.482  3.0650  5.1680 -1.5281
  517MOL0     H69785   3.896   5.656   9.516  1.1235 -2.3044 -2.7935
  517MOL0     H69786   3.906   5.646   9.688 -0.9247 -0.1999  0.3191
  517MOL0     H69787   3.796   5.426   9.673  0.4559  0.0894  0.2808
  517MOL0     H69788   3.808   5.426   9.509  1.1079 -0.1537 -1.3349
  517MOL0     H69789   3.669   5.660   9.664  2.6323 -1.3327  2.1200
  517MOL0     H69790   3.668   5.616   9.489  0.8498  1.4516  1.0328
  517MOL0     H69791   3.352   5.395   9.628 -0.8549  0.3980  2.5686
  517MOL0     H69792   4.263   5.397   9.568 -0.0061  0.5768  0.4681
  517MOL0     H69793   4.390   5.258   9.452 -1.5045  0.1369  1.7759
  517MOL0     H69794   4.527   5.338   9.376  2.6515  1.3856  2.1115
  517MOL0     H69795   4.545   5.269   9.548  0.0375 -1.4131 -0.7564
  518MOL0     O69796   3.071   4.610   0.233  0.0035 -0.3331  0.9186
  518MOL0     C69797   2.956   4.654   0.250  0.7276  0.0797 -1.0284
  518MOL0     O69798   2.913   4.789   0.228  0.5583 -0.4031 -0.0517
  518MOL0     C69799   3.007   4.868   0.177  0.4855 -0.1362  0.0404
  518MOL0     C69800   2.976   4.942   0.059 -0.2358  0.2235 -0.0726
  518MOL0     C69801   3.070   5.022  -0.002  0.6780  0.5671  1.1684
  518MOL0     C69802   3.195   5.041   0.068  0.0913 -0.7150  0.7563
  518MOL0     O69803   3.298   5.106   0.005  0.4376 -0.7228 -0.3861
  518MOL0     C69804   3.329   5.054  -0.120  0.4681  0.0692 -0.4962
  518MOL0     C69805   3.462   5.129  -0.152  0.6855  0.6304  0.3892
  518MOL0     C69806   3.504   5.104  -0.299  0.6340 -0.4959  0.0392
  518MOL0     C69807   3.632   5.187  -0.329  0.3460 -0.2184 -0.5632
  518MOL0     C69808   3.701   5.147  -0.462  0.6280  0.9926 -0.3735
  518MOL0     C69809   3.828   5.222  -0.495  0.7720  0.0055 -0.2401
  518MOL0     C69810   3.867   5.148  -0.628 -1.9997 -0.2487  0.8113
  518MOL0     C69811   3.970   5.222  -0.712  0.5564 -0.1901  0.4702
  518MOL0     N69812   4.092   5.225  -0.640 -0.5099 -0.3835  0.0377
  518MOL0     C69813   4.189   5.126  -0.643  0.1535  0.0154  0.5283
  518MOL0     C69814   4.281   5.174  -0.555 -0.7041  0.8367 -0.5130
  518MOL0     C69815   4.416   5.113  -0.524  0.3937  0.5168  0.1546
  518MOL0     C69816   4.532   5.213  -0.524  0.1799 -0.3010 -0.8714
  518MOL0     C69817   4.557   5.288  -0.398  1.1192 -0.6214 -0.2192
  518MOL0     C69818   4.542   5.214  -0.261 -0.6532 -0.4573 -0.5529
  518MOL0     O69819   4.578   5.073  -0.256  0.5677  0.0492  0.1650
  518MOL0     C69820   4.706   5.032  -0.239 -0.2617  0.9932  0.1238
  518MOL0     C69821   4.723   4.914  -0.167  0.1901  0.4419  0.6813
  518MOL0     C69822   4.848   4.861  -0.149 -0.5223 -0.1234  0.8163
  518MOL0     C69823   4.968   4.931  -0.187 -0.4531  0.0538 -0.4284
  518MOL0     C69824   5.104   4.887  -0.138  0.5170 -0.6134 -1.0585
  518MOL0     O69825   5.201   4.984  -0.146  0.2753  0.1874 -0.1362
  518MOL0     C69826   5.318   4.961  -0.083 -0.4953 -0.3035 -0.0595
  518MOL0     C69827   5.329   4.923   0.054 -0.2755  0.4632  0.3617
  518MOL0     C69828   5.466   4.916   0.106  0.6346  0.0657  0.2082
  518MOL0     C69829   5.586   4.943   0.027 -0.6303  0.0196 -0.2321
  518MOL0     O69830   5.708   4.927   0.094  0.0409 -0.0629  0.5898
  518MOL0     C69831   5.826   4.952   0.012  0.6507  0.9435 -0.5092
  518MOL0     C69832   5.949   4.946   0.101  0.2716 -1.0923 -1.1304
  518MOL0     C69833   5.972   5.053   0.202 -0.6121 -0.3065  0.3662
  518MOL0     C69834   6.122   5.073   0.243 -0.0506  0.0528 -0.4179
  518MOL0     C69835   6.134   5.192   0.348 -0.0529 -0.1771 -0.0840
  518MOL0     C69836   6.274   5.226   0.366  0.0065  0.9004  0.4432
  518MOL0     C69837   6.306   5.329   0.472 -0.0894 -0.7099 -0.2628
  518MOL0     C69838   6.434   5.416   0.452 -0.1576  0.7188 -0.4803
  518MOL0    Cl69839   6.581   5.324   0.422  0.0801  0.0473  0.2062
  518MOL0     C69840   5.566   4.985  -0.103 -0.8553 -0.0122 -0.0608
  518MOL0     C69841   5.441   4.984  -0.163  0.5371  0.6921  0.4758
  518MOL0     O69842   5.116   4.772  -0.089 -0.1080 -0.8773 -0.1758
  518MOL0     C69843   4.957   5.055  -0.251 -0.5545 -0.8643  0.3174
  518MOL0     C69844   4.822   5.104  -0.273 -0.6846 -0.3950  0.5211
  518MOL0     N69845   4.262   5.309  -0.527  0.1837  0.4074 -0.7679
  518MOL0     N69846   4.140   5.334  -0.569  0.5063 -0.1344 -0.2165
  518MOL0     C69847   3.217   4.980   0.193 -0.1115 -0.6423  0.8629
  518MOL0     C69848   3.122   4.897   0.249  0.5788  0.6256  0.1332
  518MOL0     C69849   2.869   4.545   0.278  0.2968 -0.4530  0.0281
  518MOL0     C69850   2.833   4.525   0.419 -0.1442  0.2378 -0.2038
  518MOL0     C69851   2.756   4.415   0.442  0.6004  0.3841  1.0688
  518MOL0     C69852   2.702   4.339   0.341  0.4705  0.4139 -0.4032
  518MOL0     O69853   2.634   4.214   0.363 -0.2632  0.1232 -0.0834
  518MOL0     C69854   2.721   4.118   0.426 -0.4582  0.7002 -0.7412
  518MOL0     C69855   2.684   3.980   0.380 -0.1700  0.3459 -0.6392
  518MOL0     C69856   2.713   3.955   0.225 -0.5217 -0.4645 -0.7641
  518MOL0     C69857   2.669   3.817   0.201 -0.4798 -0.5069 -0.0924
  518MOL0     C69858   2.522   3.798   0.198 -0.1358 -0.4828  0.4292
  518MOL0     C69859   2.406   3.769   0.202  0.0599  0.0196 -0.2909
  518MOL0     C69860   2.728   4.363   0.210  0.0168 -0.1559  0.2641
  518MOL0     C69861   2.812   4.467   0.176 -1.3732  0.4959 -0.1004
  518MOL0     C69862   2.836   4.497   0.029  1.0715 -0.1536 -0.5891
  518MOL0     H69863   2.888   4.908   0.007 -1.1724 -2.1998  2.8356
  518MOL0     H69864   3.043   5.075  -0.092 -3.3485 -1.2594  1.1002
  518MOL0     H69865   3.344   4.946  -0.112 -2.7526 -0.5745 -1.6881
  518MOL0     H69866   3.248   5.072  -0.191 -3.4446 -3.3037  2.5475
  518MOL0     H69867   3.538   5.109  -0.077  2.4603 -1.3183 -1.7789
  518MOL0     H69868   3.452   5.238  -0.153  0.9383  0.8916 -5.1034
  518MOL0     H69869   3.421   5.122  -0.368 -1.1032  0.4710  2.2786
  518MOL0     H69870   3.522   4.997  -0.311  0.5953 -0.6887  1.5282
  518MOL0     H69871   3.590   5.288  -0.332  1.0371  0.2094  1.7854
  518MOL0     H69872   3.705   5.173  -0.248  0.8525  3.1186 -0.2961
  518MOL0     H69873   3.727   5.042  -0.444  2.1868  0.8949 -2.7468
  518MOL0     H69874   3.633   5.155  -0.548  1.6139  1.4489 -1.1346
  518MOL0     H69875   3.799   5.325  -0.519 -2.5318 -0.4617  1.1853
  518MOL0     H69876   3.908   5.224  -0.421  0.2400 -2.0779  0.4582
  518MOL0     H69877   3.793   5.117  -0.702 -0.7731  1.8183 -1.4480
  518MOL0     H69878   3.923   5.059  -0.597 -1.1481 -0.0889 -0.2219
  518MOL0     H69879   3.984   5.163  -0.804 -1.6329 -1.1530  0.6705
  518MOL0     H69880   3.927   5.318  -0.743  2.8556  0.5469 -0.6165
  518MOL0     H69881   4.189   5.034  -0.700 -4.3134  0.7975 -1.1278
  518MOL0     H69882   4.407   5.054  -0.432 -1.5356 -0.8121 -0.8183
  518MOL0     H69883   4.431   5.041  -0.605 -0.9977  0.6297 -0.2259
  518MOL0     H69884   4.619   5.147  -0.528  1.1683  0.8430  0.7073
  518MOL0     H69885   4.529   5.274  -0.615 -0.1068 -0.1882 -0.7884
  518MOL0     H69886   4.498   5.380  -0.396  4.2853  1.5944  2.7604
  518MOL0     H69887   4.663   5.315  -0.403  1.6116 -2.4801 -0.7391
  518MOL0     H69888   4.439   5.230  -0.230  0.0536  0.8819  1.3291
  518MOL0     H69889   4.602   5.258  -0.180 -0.3752 -1.1976 -0.3475
  518MOL0     H69890   4.639   4.860  -0.123  2.0751 -2.1900  1.2806
  518MOL0     H69891   4.861   4.772  -0.089 -2.1182 -0.5823  0.5141
  518MOL0     H69892   5.235   4.909   0.107 -1.9791 -0.9213 -2.7297
  518MOL0     H69893   5.472   4.897   0.212 -1.7368  3.6800  1.1828
  518MOL0     H69894   5.833   4.870  -0.060 -3.3174  0.0348 -0.1128
  518MOL0     H69895   5.829   5.036  -0.059 -2.3886 -0.7484 -2.8829
  518MOL0     H69896   5.972   4.850   0.149  0.9044 -0.3029  0.2276
  518MOL0     H69897   6.036   4.959   0.036  0.0644  0.7748 -1.0782
  518MOL0     H69898   5.950   5.153   0.163  0.6105  0.6415  1.9682
  518MOL0     H69899   5.906   5.040   0.289  1.5850  0.1718  2.1919
  518MOL0     H69900   6.168   5.102   0.147 -1.5487  2.0880 -0.5900
  518MOL0     H69901   6.167   4.979   0.274 -2.9287 -1.7246 -1.2657
  518MOL0     H69902   6.093   5.164   0.445 -1.0030 -0.6427 -0.6035
  518MOL0     H69903   6.085   5.283   0.312 -0.5201 -0.9717 -1.5272
  518MOL0     H69904   6.319   5.131   0.395 -0.7144 -0.2837 -2.0793
  518MOL0     H69905   6.319   5.255   0.271 -0.1548 -0.4425 -0.0597
  518MOL0     H69906   6.317   5.266   0.560  1.2101  0.9036  0.7973
  518MOL0     H69907   6.230   5.405   0.493  2.8561  2.7275 -0.9246
  518MOL0     H69908   6.415   5.467   0.357 -1.4665 -0.5786 -0.9627
  518MOL0     H69909   6.441   5.489   0.533  0.4251 -1.5527  1.6441
  518MOL0     H69910   5.651   5.017  -0.163 -1.2817  2.1684  0.4403
  518MOL0     H69911   5.434   5.018  -0.266  0.6510 -1.3060 -0.2352
  518MOL0     H69912   5.045   5.113  -0.277 -0.6122 -0.1999  1.5405
  518MOL0     H69913   4.807   5.201  -0.318 -1.5934 -1.2153 -1.0666
  518MOL0     H69914   3.313   4.989   0.244  2.5805 -2.7762 -3.2661
  518MOL0     H69915   3.139   4.853   0.347 -0.9925 -0.1615  0.0765
  518MOL0     H69916   2.863   4.594   0.498 -2.3853  1.8198 -0.6389
  518MOL0     H69917   2.736   4.387   0.545 -2.1546 -0.0046  0.4808
  518MOL0     H69918   2.716   4.122   0.535  2.1898 -0.3263 -0.4963
  518MOL0     H69919   2.827   4.128   0.404 -0.6934  2.6227 -1.1429
  518MOL0     H69920   2.576   3.972   0.393 -0.1292  2.6263  1.9414
  518MOL0     H69921   2.740   3.912   0.444 -2.6352 -0.6177  0.6483
  518MOL0     H69922   2.822   3.958   0.213 -0.0932 -1.1545  2.2039
  518MOL0     H69923   2.665   4.034   0.166  0.7370  1.1524  0.2837
  518MOL0     H69924   2.708   3.780   0.106 -1.3188  0.3583 -0.7993
  518MOL0     H69925   2.697   3.757   0.288  0.7256  5.6323  4.4812
  518MOL0     H69926   2.301   3.746   0.204 -0.0403  0.4657 -0.3835
  518MOL0     H69927   2.691   4.286   0.143  0.7815  0.0402 -0.4074
  518MOL0     H69928   2.767   4.431  -0.024 -3.0554  1.3952  2.2834
  518MOL0     H69929   2.819   4.604   0.010  1.4200 -0.6467 -4.2621
  518MOL0     H69930   2.939   4.490  -0.006  0.6983 -0.5585 -1.6402
  519MOL0     O69931   5.183   2.381   4.256  0.7772 -0.5656 -0.4136
  519MOL0     C69932   5.211   2.486   4.310  0.3373  0.0063 -0.6530
  519MOL0     O69933   5.123   2.555   4.378 -0.9824  0.5459  0.2327
  519MOL0     C69934   4.985   2.543   4.353 -0.9121 -1.3173 -0.0215
  519MOL0     C69935   4.926   2.672   4.370  1.4412  0.3207 -0.5534
  519MOL0     C69936   4.788   2.686   4.342 -0.4119  0.0107  0.0618
  519MOL0     C69937   4.710   2.580   4.306 -0.5506  0.0970  1.1569
  519MOL0     O69938   4.579   2.592   4.269 -0.5632 -0.3996 -0.0576
  519MOL0     C69939   4.516   2.721   4.255  0.5631  0.0397 -0.2519
  519MOL0     C69940   4.474   2.807   4.372  0.2512  0.7779  0.5688
  519MOL0     C69941   4.412   2.727   4.481  0.2373  0.8871  0.2478
  519MOL0     C69942   4.264   2.706   4.457  0.0706 -0.8688 -0.5640
  519MOL0     C69943   4.198   2.612   4.560  0.2988 -0.8720  0.5205
  519MOL0     C69944   4.058   2.564   4.510  0.0489  1.1188 -0.7487
  519MOL0     C69945   4.071   2.483   4.389  0.1931  0.0570 -0.5829
  519MOL0     C69946   3.931   2.424   4.350 -1.0830 -0.2657  0.0450
  519MOL0     N69947   3.946   2.318   4.252  0.0654 -0.1710 -0.5359
  519MOL0     C69948   4.031   2.321   4.142  0.3696 -0.1933 -0.1903
  519MOL0     C69949   4.005   2.211   4.072 -0.5974 -0.0955  0.3439
  519MOL0     C69950   4.080   2.159   3.946  0.0317 -1.0478 -0.4641
  519MOL0     C69951   4.126   2.014   3.965 -0.3672 -0.2552 -0.2028
  519MOL0     C69952   4.178   1.956   3.832 -0.7426  0.7717  0.5599
  519MOL0     C69953   4.218   1.804   3.865 -0.2173 -0.3268 -0.0383
  519MOL0     O69954   4.333   1.803   3.957  0.3716 -0.2415 -0.6096
  519MOL0     C69955   4.435   1.715   3.942 -0.0842  1.4034 -0.5938
  519MOL0     C69956   4.548   1.736   4.017  0.2952  0.4671 -0.6841
  519MOL0     C69957   4.665   1.671   3.990 -1.3554 -0.4821  0.2310
  519MOL0     C69958   4.674   1.576   3.884  0.1544  0.4793 -0.5500
  519MOL0     C69959   4.799   1.511   3.847 -0.1832  0.5832 -0.9680
  519MOL0     O69960   4.917   1.548   3.916  0.0567 -0.7452 -0.0237
  519MOL0     C69961   5.011   1.464   3.960  0.4142  0.4652 -0.1380
  519MOL0     C69962   5.131   1.521   3.990 -0.6249  0.2555 -1.0954
  519MOL0     C69963   5.243   1.439   4.019  0.3165 -0.6935 -0.6896
  519MOL0     C69964   5.227   1.302   4.027 -0.8625 -0.5687 -0.1517
  519MOL0     O69965   5.344   1.238   4.065  0.9491 -0.0879  0.5073
  519MOL0     C69966   5.334   1.150   4.175  0.3345 -0.3189 -0.4745
  519MOL0     C69967   5.301   1.227   4.306  0.3830 -0.6235 -0.7732
  519MOL0     C69968   5.310   1.136   4.428  0.7151 -0.6069 -0.2637
  519MOL0     C69969   5.452   1.102   4.480 -0.2917  0.0352 -0.8898
  519MOL0     C69970   5.425   1.017   4.609 -0.5325  0.2486 -0.0638
  519MOL0     C69971   5.552   0.972   4.684  0.0512 -0.2088  0.6875
  519MOL0     C69972   5.522   0.913   4.822  0.1772 -0.7194 -0.2504
  519MOL0     C69973   5.436   0.784   4.808  0.4415 -0.0948 -0.1714
  519MOL0    Cl69974   5.395   0.715   4.959 -0.3992  0.7144 -0.2624
  519MOL0     C69975   5.104   1.246   4.022 -0.3471 -0.3800 -0.6072
  519MOL0     C69976   4.989   1.324   3.988  0.2356  0.3252 -0.2355
  519MOL0     O69977   4.797   1.420   3.759  0.5453  0.3286 -0.2197
  519MOL0     C69978   4.559   1.540   3.807  0.2102 -0.5354  0.1427
  519MOL0     C69979   4.438   1.612   3.840 -0.3869  0.7518 -0.1283
  519MOL0     N69980   3.916   2.136   4.145 -1.0428 -0.1358 -0.6456
  519MOL0     N69981   3.880   2.203   4.250  0.4080  0.3751  0.3990
  519MOL0     C69982   4.772   2.454   4.308  0.6949 -0.2045 -1.0438
  519MOL0     C69983   4.908   2.431   4.331 -0.5642 -0.3786 -0.2560
  519MOL0     C69984   5.350   2.526   4.335 -0.0753 -0.8353  0.4569
  519MOL0     C69985   5.449   2.489   4.240  0.4038  0.4337  0.2341
  519MOL0     C69986   5.587   2.509   4.256  0.3257 -0.2592 -0.2699
  519MOL0     C69987   5.629   2.595   4.368  0.0925  0.3761  0.1198
  519MOL0     O69988   5.758   2.637   4.403 -0.4090  0.2698 -0.2051
  519MOL0     C69989   5.865   2.582   4.333 -0.7653 -0.1630  0.3914
  519MOL0     C69990   6.004   2.662   4.342  0.0687 -0.4138  0.0889
  519MOL0     C69991   5.981   2.818   4.328 -1.1426 -0.3074 -0.4697
  519MOL0     C69992   5.917   2.852   4.189 -0.6257  0.1602  0.3489
  519MOL0     C69993   5.969   2.983   4.151 -0.1688 -0.0470 -0.4430
  519MOL0     C69994   5.973   3.098   4.144 -0.1879  0.0363  0.2485
  519MOL0     C69995   5.533   2.646   4.451  1.0151 -0.0347 -0.5740
  519MOL0     C69996   5.392   2.614   4.438  0.5126  0.2364 -1.6206
  519MOL0     C69997   5.307   2.682   4.544  0.4178 -0.1426 -0.0304
  519MOL0     H69998   4.995   2.747   4.406 -1.6781  2.3384  1.7824
  519MOL0     H69999   4.764   2.791   4.342 -0.5119 -0.0024  1.1950
  519MOL0     H70000   4.574   2.794   4.198  0.3074 -0.6744 -1.4672
  519MOL0     H70001   4.427   2.705   4.193  2.0774  0.5423 -2.7138
  519MOL0     H70002   4.410   2.890   4.340 -1.3729 -1.8234 -3.7914
  519MOL0     H70003   4.567   2.855   4.404  0.3478 -0.7315  2.7690
  519MOL0     H70004   4.427   2.792   4.568  1.6467 -0.3208  0.9491
  519MOL0     H70005   4.473   2.637   4.492  0.4131  0.7004 -1.7810
  519MOL0     H70006   4.211   2.799   4.479 -0.2396 -1.7554  3.0716
  519MOL0     H70007   4.257   2.670   4.354  4.1889 -1.8655 -0.6499
  519MOL0     H70008   4.269   2.529   4.569  2.2471  0.1543 -3.2584
  519MOL0     H70009   4.176   2.659   4.656 -1.3749 -3.9633  1.8197
  519MOL0     H70010   4.015   2.507   4.593  0.9000  0.9426 -0.4123
  519MOL0     H70011   3.993   2.650   4.492 -1.1650  0.5771  0.8610
  519MOL0     H70012   4.137   2.398   4.412  0.4450  0.7062  1.2579
  519MOL0     H70013   4.102   2.542   4.302 -2.1628 -0.2514 -1.7204
  519MOL0     H70014   3.899   2.379   4.444 -1.1084  0.5514  0.4356
  519MOL0     H70015   3.868   2.506   4.312 -1.8746 -0.1546  1.5316
  519MOL0     H70016   4.119   2.384   4.135  0.2816  0.1250  1.2668
  519MOL0     H70017   4.011   2.156   3.861 -1.6735  1.7920  0.6999
  519MOL0     H70018   4.166   2.221   3.920 -0.6927  0.4381  0.5476
  519MOL0     H70019   4.205   1.997   4.039  1.1339 -1.2772 -1.9680
  519MOL0     H70020   4.039   1.960   4.005 -2.2929  1.2141 -2.2044
  519MOL0     H70021   4.265   2.014   3.801 -1.8952  1.4806 -1.5471
  519MOL0     H70022   4.107   1.968   3.750  0.6882  0.6389 -0.7307
  519MOL0     H70023   4.213   1.747   3.772 -1.4231 -0.2078 -0.0612
  519MOL0     H70024   4.136   1.759   3.921  0.4519 -0.3973  0.9126
  519MOL0     H70025   4.543   1.798   4.106 -1.3300 -2.5666  1.5588
  519MOL0     H70026   4.756   1.684   4.048 -2.4087 -0.8030  2.0177
  519MOL0     H70027   5.145   1.629   3.988  0.0816  0.2833  1.6274
  519MOL0     H70028   5.342   1.481   4.036  1.6241 -4.5961  3.0150
  519MOL0     H70029   5.266   1.064   4.174 -2.8046  1.9748 -0.0690
  519MOL0     H70030   5.438   1.116   4.186  0.1816 -0.3194  1.1130
  519MOL0     H70031   5.363   1.316   4.316  0.6547 -0.8364 -0.5449
  519MOL0     H70032   5.200   1.269   4.304  1.5133  2.8798  3.1136
  519MOL0     H70033   5.262   1.203   4.500 -0.5509 -0.0203 -1.6065
  519MOL0     H70034   5.252   1.044   4.415 -1.3631  0.4983  0.8247
  519MOL0     H70035   5.510   1.188   4.515  0.9480 -1.7936  1.9643
  519MOL0     H70036   5.509   1.054   4.399 -1.1838 -0.5674 -1.1793
  519MOL0     H70037   5.380   0.925   4.570 -0.2326 -0.0332  0.2533
  519MOL0     H70038   5.349   1.053   4.679 -3.3042 -3.7899 -0.6022
  519MOL0     H70039   5.611   0.901   4.625  2.0831  3.5698 -2.2791
  519MOL0     H70040   5.613   1.063   4.687 -1.8900  1.1353  2.3016
  519MOL0     H70041   5.462   0.984   4.880  2.8566  1.0228  0.5389
  519MOL0     H70042   5.618   0.895   4.871 -1.3635 -2.9807  2.2320
  519MOL0     H70043   5.344   0.802   4.752  0.2337 -0.6541 -0.0135
  519MOL0     H70044   5.488   0.712   4.744  0.8678  1.0293 -1.1479
  519MOL0     H70045   5.107   1.138   4.039  1.3560 -1.0057 -4.0169
  519MOL0     H70046   4.890   1.279   3.980  0.0909 -0.0014  2.3623
  519MOL0     H70047   4.573   1.474   3.723  3.7883 -2.3766  1.9184
  519MOL0     H70048   4.351   1.600   3.777 -0.9616  1.1265  0.5790
  519MOL0     H70049   4.709   2.374   4.271 -0.5673  0.6234 -0.7918
  519MOL0     H70050   4.954   2.332   4.326  0.3335  0.0351 -0.3914
  519MOL0     H70051   5.414   2.436   4.153 -0.8255 -0.0629  1.0054
  519MOL0     H70052   5.659   2.489   4.177  1.3611 -1.3980  0.9225
  519MOL0     H70053   5.851   2.570   4.225  2.8306  1.8878 -0.4764
  519MOL0     H70054   5.887   2.480   4.366  1.5731  0.6285  1.5382
  519MOL0     H70055   6.074   2.623   4.268 -1.2029 -4.1538  0.6297
  519MOL0     H70056   6.040   2.648   4.444 -1.3681  0.3530  0.7382
  519MOL0     H70057   6.081   2.861   4.340 -0.7608 -1.7977  3.2862
  519MOL0     H70058   5.907   2.856   4.399 -1.0369  0.1466 -0.5992
  519MOL0     H70059   5.955   2.792   4.106 -0.8218  0.0142  0.3631
  519MOL0     H70060   5.809   2.857   4.207 -0.2143 -0.3915  3.7467
  519MOL0     H70061   5.970   3.205   4.138  2.6835  0.1237 -1.1511
  519MOL0     H70062   5.563   2.707   4.535  0.6913  0.2972 -0.6958
  519MOL0     H70063   5.372   2.730   4.617 -2.4597  2.6771  0.8886
  519MOL0     H70064   5.247   2.762   4.501 -0.3209 -1.1321 -0.9150
  519MOL0     H70065   5.252   2.605   4.599 -0.4703 -0.1634 -0.9041
  520MOL0     O70066   5.871   3.404   7.403 -0.5535  0.6770  0.2180
  520MOL0     C70067   5.830   3.301   7.343 -0.0229 -0.1792  0.4038
  520MOL0     O70068   5.839   3.170   7.391 -0.9664  0.1806 -0.5598
  520MOL0     C70069   5.948   3.140   7.477 -0.2783  0.0830  0.1107
  520MOL0     C70070   6.082   3.121   7.436  0.3154 -0.1230 -0.5780
  520MOL0     C70071   6.169   3.073   7.531 -1.0076 -0.6854  0.2375
  520MOL0     C70072   6.137   3.074   7.670  0.5706  0.0348  0.1038
  520MOL0     O70073   6.235   3.046   7.766  0.6561 -0.2316  0.8549
  520MOL0     C70074   6.378   3.059   7.743  0.1734  0.5790  0.2941
  520MOL0     C70075   6.437   3.091   7.883 -0.0697  0.4410 -0.3185
  520MOL0     C70076   6.584   3.112   7.858 -0.2977  0.5657  0.1919
  520MOL0     C70077   6.658   3.177   7.972 -0.0185  0.0376 -0.1060
  520MOL0     C70078   6.812   3.197   7.962  0.5162  0.0988  0.1934
  520MOL0     C70079   6.874   3.275   8.074 -0.3016 -0.5850 -0.6281
  520MOL0     C70080   7.028   3.278   8.051  0.1961 -0.0639  0.0404
  520MOL0     C70081   7.103   3.377   8.132  0.0668  0.7014  0.0247
  520MOL0     N70082   7.078   3.517   8.086 -1.1294  0.8231  0.3083
  520MOL0     C70083   7.168   3.589   8.016 -0.1287  0.1345  0.9199
  520MOL0     C70084   7.106   3.709   7.990 -0.1996  0.2718  0.1659
  520MOL0     C70085   7.178   3.816   7.921  0.0580 -0.4599  0.4854
  520MOL0     C70086   7.294   3.880   7.999 -0.1322 -0.4006 -0.2642
  520MOL0     C70087   7.400   3.955   7.907  0.2023 -0.1734 -0.1370
  520MOL0     C70088   7.532   3.981   7.981  0.1031 -1.0662 -0.2353
  520MOL0     O70089   7.527   4.078   8.086 -0.2537 -0.5006  0.1650
  520MOL0     C70090   7.648   4.140   8.129  0.2927 -0.0885 -0.2855
  520MOL0     C70091   7.641   4.221   8.242  0.0051  0.2977 -0.4801
  520MOL0     C70092   7.745   4.281   8.312 -0.0749 -0.1766  1.0424
  520MOL0     C70093   7.880   4.241   8.273 -0.2148 -1.3283 -1.1978
  520MOL0     C70094   8.000   4.275   8.352 -0.2464 -0.5699  0.2850
  520MOL0     O70095   8.122   4.259   8.278  0.6968 -0.1243  0.5043
  520MOL0     C70096   8.239   4.272   8.345 -0.4612 -0.0791 -1.1262
  520MOL0     C70097   8.299   4.153   8.373  0.1488 -0.2282 -0.3139
  520MOL0     C70098   8.402   4.149   8.466 -0.0918  0.7451 -0.2200
  520MOL0     C70099   8.463   4.268   8.507 -0.4677 -0.0434 -0.1841
  520MOL0     O70100   8.573   4.279   8.582 -0.0265  0.3283 -0.4133
  520MOL0     C70101   8.695   4.220   8.531  0.2051  1.1387 -0.2600
  520MOL0     C70102   8.738   4.283   8.395  1.0078  0.9008  0.2726
  520MOL0     C70103   8.762   4.431   8.413 -0.8064 -0.1346 -0.6376
  520MOL0     C70104   8.812   4.498   8.281 -0.3258 -0.0859  0.0494
  520MOL0     C70105   8.795   4.657   8.290 -0.2472  0.5997  0.0479
  520MOL0     C70106   8.653   4.692   8.243  0.1486  0.4347 -0.0033
  520MOL0     C70107   8.620   4.843   8.277 -0.3801  0.7979 -0.7977
  520MOL0     C70108   8.484   4.878   8.237  1.2608 -0.2112 -0.2150
  520MOL0    Cl70109   8.353   4.778   8.305  0.1606  0.4344 -0.0726
  520MOL0     C70110   8.403   4.394   8.471  0.5655  0.9979 -0.7504
  520MOL0     C70111   8.299   4.396   8.384 -0.1447  0.3056 -1.0708
  520MOL0     O70112   7.988   4.330   8.457 -0.0413 -0.1739 -0.4879
  520MOL0     C70113   7.883   4.148   8.165  0.3815  0.0048 -0.1064
  520MOL0     C70114   7.779   4.103   8.092 -0.1159 -0.7304  0.6065
  520MOL0     N70115   6.986   3.707   8.042  0.0395 -0.0811  0.1721
  520MOL0     N70116   6.964   3.592   8.093 -0.5350 -0.4704 -0.2587
  520MOL0     C70117   6.007   3.086   7.706  0.3082 -0.2175 -0.0684
  520MOL0     C70118   5.914   3.116   7.612 -0.1886  0.7836 -0.6423
  520MOL0     C70119   5.769   3.318   7.205 -0.8533 -0.2086 -0.2368
  520MOL0     C70120   5.673   3.429   7.197 -0.7681  1.5550 -0.0954
  520MOL0     C70121   5.593   3.442   7.085 -0.3629 -0.2792  0.5009
  520MOL0     C70122   5.600   3.347   6.980  0.6004  0.1957 -0.6781
  520MOL0     O70123   5.498   3.358   6.895 -0.9305 -0.4703  0.3222
  520MOL0     C70124   5.494   3.273   6.776  0.1612  0.2269 -0.2636
  520MOL0     C70125   5.356   3.285   6.727  0.4108  0.3865 -0.2455
  520MOL0     C70126   5.321   3.187   6.618  0.7868  0.7023  0.7233
  520MOL0     C70127   5.182   3.216   6.542 -0.4546  0.0002  0.3283
  520MOL0     C70128   5.154   3.112   6.441  0.1082 -0.4292  0.9000
  520MOL0     C70129   5.125   3.039   6.352 -0.6611 -0.1186 -0.0174
  520MOL0     C70130   5.696   3.232   6.992 -0.2989 -1.0613  0.5587
  520MOL0     C70131   5.786   3.232   7.101 -0.0956  0.2126  0.5126
  520MOL0     C70132   5.891   3.116   7.107  0.0198  1.0417 -0.3612
  520MOL0     H70133   6.116   3.140   7.335  1.0054 -2.9418 -0.9833
  520MOL0     H70134   6.269   3.065   7.488 -1.3979  0.8359 -1.0461
  520MOL0     H70135   6.431   2.974   7.700  3.8245  3.2436 -0.9569
  520MOL0     H70136   6.388   3.133   7.663  0.4801 -0.0116 -0.2246
  520MOL0     H70137   6.407   3.010   7.950  0.1211 -0.9896 -1.8892
  520MOL0     H70138   6.401   3.186   7.924  1.3606  1.7720 -1.9811
  520MOL0     H70139   6.597   3.179   7.772 -0.4324 -0.2253 -0.4524
  520MOL0     H70140   6.627   3.017   7.827 -2.5486 -0.6730  0.6460
  520MOL0     H70141   6.620   3.279   7.986 -3.2861 -1.0968  0.1347
  520MOL0     H70142   6.630   3.134   8.069  5.1860 -0.8010  1.3442
  520MOL0     H70143   6.849   3.094   7.956  3.5711  1.1835 -2.1312
  520MOL0     H70144   6.834   3.240   7.864  2.6107 -3.0109 -0.8650
  520MOL0     H70145   6.840   3.379   8.080  0.0302 -0.5229  0.3049
  520MOL0     H70146   6.852   3.236   8.174  1.9891 -0.5186 -0.0283
  520MOL0     H70147   7.049   3.293   7.945  2.1071  2.3182  0.6387
  520MOL0     H70148   7.065   3.182   8.088  0.6506  0.3769  0.7597
  520MOL0     H70149   7.075   3.365   8.237  1.1214 -0.9994  0.1651
  520MOL0     H70150   7.210   3.353   8.131  0.0229  0.2935 -2.6795
  520MOL0     H70151   7.274   3.567   8.008 -0.1588 -0.1646  1.3254
  520MOL0     H70152   7.223   3.781   7.827 -1.0687  0.2052 -0.3259
  520MOL0     H70153   7.106   3.895   7.897  0.1613 -0.6964 -0.6884
  520MOL0     H70154   7.245   3.945   8.073  1.2507 -0.1117  0.4322
  520MOL0     H70155   7.355   3.806   8.051 -1.3581 -0.9844  0.3881
  520MOL0     H70156   7.348   4.037   7.857 -3.9882 -2.0044  0.7884
  520MOL0     H70157   7.432   3.893   7.823 -2.3860 -0.5331 -0.9489
  520MOL0     H70158   7.608   4.009   7.908  0.3391 -2.1978 -0.4397
  520MOL0     H70159   7.564   3.891   8.034  1.8490 -0.9432 -1.0044
  520MOL0     H70160   7.537   4.246   8.259  0.1271  1.2709 -1.0622
  520MOL0     H70161   7.720   4.355   8.387 -1.7463 -0.7228  1.0495
  520MOL0     H70162   8.260   4.059   8.336 -1.3365  0.5323 -0.7640
  520MOL0     H70163   8.443   4.054   8.497  4.6987  2.3185 -0.8353
  520MOL0     H70164   8.769   4.248   8.607 -1.1035  3.3544  0.3016
  520MOL0     H70165   8.692   4.110   8.535 -3.0225  1.0561 -1.8076
  520MOL0     H70166   8.829   4.230   8.365  0.9339  0.1421  1.3394
  520MOL0     H70167   8.661   4.250   8.325  0.8365 -5.4441  2.7934
  520MOL0     H70168   8.666   4.471   8.446  1.0386  2.2190  2.3525
  520MOL0     H70169   8.829   4.444   8.498 -3.4664  0.5158  1.5002
  520MOL0     H70170   8.746   4.470   8.199 -5.1303  3.5284  2.2443
  520MOL0     H70171   8.918   4.472   8.275 -0.0504  0.1778  2.4699
  520MOL0     H70172   8.865   4.702   8.219  2.0816 -1.2539  1.0456
  520MOL0     H70173   8.807   4.685   8.395  0.9578 -0.2414  0.1547
  520MOL0     H70174   8.639   4.671   8.136  1.8365  1.7440 -0.5362
  520MOL0     H70175   8.585   4.637   8.308  0.9069  1.0105  1.3210
  520MOL0     H70176   8.689   4.908   8.223  0.5599  2.9993  2.6918
  520MOL0     H70177   8.635   4.862   8.384 -3.0537  3.6951 -0.7822
  520MOL0     H70178   8.468   4.985   8.253 -2.0236 -0.5596 -0.4803
  520MOL0     H70179   8.475   4.860   8.129  2.0315 -3.2961  0.1156
  520MOL0     H70180   8.446   4.492   8.491 -2.8275  2.8085 -1.4616
  520MOL0     H70181   8.243   4.479   8.343 -0.4380  0.4137 -0.4648
  520MOL0     H70182   7.979   4.099   8.153  0.3677 -0.2356  0.6808
  520MOL0     H70183   7.795   4.025   8.019  2.7027  1.6973 -1.6126
  520MOL0     H70184   5.977   3.064   7.808  0.1280  1.8368  0.3675
  520MOL0     H70185   5.810   3.117   7.643  0.9225 -0.3457  3.8439
  520MOL0     H70186   5.671   3.491   7.286 -0.7608  1.1142  0.2121
  520MOL0     H70187   5.530   3.530   7.073  0.7468  0.4163 -0.4352
  520MOL0     H70188   5.513   3.176   6.822 -2.2835  2.1460  5.8387
  520MOL0     H70189   5.570   3.310   6.706 -0.4274  0.7876 -0.6265
  520MOL0     H70190   5.339   3.390   6.702 -2.7298 -0.3644 -1.7279
  520MOL0     H70191   5.289   3.264   6.811  1.4443 -4.5209 -0.3796
  520MOL0     H70192   5.318   3.087   6.660  2.8301  0.4537  0.3786
  520MOL0     H70193   5.404   3.185   6.547  1.6514  2.0234  1.6574
  520MOL0     H70194   5.103   3.221   6.618 -0.7687  2.9635 -0.0807
  520MOL0     H70195   5.190   3.318   6.504 -0.2536  0.6361  1.9719
  520MOL0     H70196   5.130   2.971   6.270  2.0369 -0.0517  0.0187
  520MOL0     H70197   5.701   3.156   6.915 -1.6768 -0.7759  0.1539
  520MOL0     H70198   5.872   3.025   7.165  0.8005  0.9925 -0.1686
  520MOL0     H70199   5.911   3.081   7.006 -1.0909 -1.7857  0.2860
  520MOL0     H70200   5.991   3.154   7.131 -0.2021  2.6722 -1.8793
  521MOL0     O70201  11.157   8.498   6.991  0.3238 -0.7166  0.0946
  521MOL0     C70202  11.091   8.395   7.005 -0.1044 -0.7426  0.7418
  521MOL0     O70203  11.153   8.275   7.023  0.8639  0.4740  0.0113
  521MOL0     C70204  11.287   8.270   7.040  0.9938 -0.1445  0.2493
  521MOL0     C70205  11.366   8.249   6.931  0.2043  0.2230 -0.4297
  521MOL0     C70206  11.506   8.264   6.948  0.7752 -0.3827 -0.7548
  521MOL0     C70207  11.564   8.293   7.072  0.3084  0.1576 -0.1914
  521MOL0     O70208  11.698   8.321   7.079  0.5353 -0.6074  0.0507
  521MOL0     C70209  11.769   8.293   7.197 -0.5568  0.2461  0.3006
  521MOL0     C70210  11.929   8.306   7.196  0.8741  0.0992 -0.6412
  521MOL0     C70211  11.994   8.259   7.333 -0.2986 -0.3712  0.7156
  521MOL0     C70212  12.144   8.237   7.333  0.5226 -0.9172  0.1088
  521MOL0     C70213  12.230   8.357   7.388 -0.3101  0.4057 -0.2738
  521MOL0     C70214  12.383   8.331   7.364  0.9430 -0.9198  0.5704
  521MOL0     C70215  12.470   8.439   7.437 -0.8588  0.0342 -0.4585
  521MOL0     C70216  12.612   8.385   7.457 -0.3221 -0.2930  0.5006
  521MOL0     N70217  12.689   8.341   7.338 -0.1722  0.1013  0.2759
  521MOL0     C70218  12.824   8.316   7.340 -0.6079  0.3718  0.0714
  521MOL0     C70219  12.868   8.292   7.207  0.1899 -0.0010  0.0706
  521MOL0     C70220  13.010   8.291   7.153 -0.0780  0.0790 -0.1173
  521MOL0     C70221  13.106   8.199   7.239  0.2614 -0.1159  0.2729
  521MOL0     C70222  13.246   8.210   7.181 -0.0448  0.4368 -0.0429
  521MOL0     C70223  13.342   8.108   7.252 -0.7770  0.4616  0.3442
  521MOL0     O70224  13.379   8.160   7.379  0.1568 -0.8873 -0.6338
  521MOL0     C70225  13.492   8.121   7.446  0.2888  1.1118 -0.0315
  521MOL0     C70226  13.541   8.186   7.563  0.0941 -0.7045  0.1452
  521MOL0     C70227  13.659   8.147   7.629 -0.0403  0.4876  0.5564
  521MOL0     C70228  13.732   8.035   7.586 -0.1625  0.3293 -0.2962
  521MOL0     C70229  13.847   7.980   7.655  0.3143 -0.0954 -0.9842
  521MOL0     O70230  13.907   7.870   7.602 -0.4751  0.2172 -0.1812
  521MOL0     C70231  13.981   7.796   7.694  0.9626 -0.3031  0.0970
  521MOL0     C70232  13.938   7.779   7.824 -0.1559  0.3511 -0.3494
  521MOL0     C70233  14.015   7.703   7.914 -0.5949  0.1918 -0.1224
  521MOL0     C70234  14.127   7.633   7.865 -0.6144 -0.2767 -0.4228
  521MOL0     O70235  14.215   7.561   7.948  0.2973  0.3730 -0.2091
  521MOL0     C70236  14.211   7.585   8.093  0.3665  0.4433 -0.4135
  521MOL0     C70237  14.098   7.511   8.171 -0.5336  0.0630 -0.3579
  521MOL0     C70238  14.166   7.410   8.268  0.0770  0.5250 -1.1641
  521MOL0     C70239  14.220   7.289   8.196  0.6051 -0.5274 -0.3659
  521MOL0     C70240  14.272   7.177   8.288 -0.2179 -0.0052  0.4869
  521MOL0     C70241  14.420   7.209   8.329  0.2956 -1.0982 -0.7782
  521MOL0     C70242  14.468   7.091   8.418 -0.5664  0.4530 -0.0869
  521MOL0     C70243  14.618   7.070   8.420 -0.0830  0.0753  0.3048
  521MOL0    Cl70244  14.710   7.223   8.403 -0.3556  0.1242 -0.0498
  521MOL0     C70245  14.156   7.639   7.734 -0.7653  0.1972  0.4549
  521MOL0     C70246  14.100   7.736   7.653  0.7243 -0.7748  0.1788
  521MOL0     O70247  13.887   8.049   7.754 -0.2359 -0.0776  0.3390
  521MOL0     C70248  13.688   7.975   7.461 -0.5387 -0.0998  0.3056
  521MOL0     C70249  13.575   8.024   7.393 -0.3715 -0.5266 -0.1291
  521MOL0     N70250  12.751   8.300   7.134 -0.2074  0.0769 -1.0367
  521MOL0     N70251  12.646   8.325   7.205 -0.7376 -0.5683 -0.3027
  521MOL0     C70252  11.477   8.311   7.179 -0.4991 -0.5665  0.0151
  521MOL0     C70253  11.335   8.303   7.157 -0.1670  0.1016 -0.5899
  521MOL0     C70254  10.945   8.397   7.000 -0.6134 -0.0990  0.4168
  521MOL0     C70255  10.875   8.271   7.023 -0.9665 -0.5724  0.0269
  521MOL0     C70256  10.735   8.276   7.045 -1.4378  0.0571  0.1560
  521MOL0     C70257  10.669   8.391   7.030  1.1282 -0.5762  0.1562
  521MOL0     O70258  10.534   8.369   7.030 -0.4035 -0.6591 -0.8100
  521MOL0     C70259  10.435   8.471   7.021  0.3297  0.0601 -0.1402
  521MOL0     C70260  10.303   8.409   7.061 -0.0260  0.0114 -0.3186
  521MOL0     C70261  10.227   8.365   6.934 -0.3628  0.2847  0.5442
  521MOL0     C70262  10.084   8.331   6.972  0.1751 -0.4639  0.4725
  521MOL0     C70263   9.999   8.445   6.997 -0.3370  0.7964 -0.1361
  521MOL0     C70264   9.937   8.545   7.025  0.8708  0.5204  0.1570
  521MOL0     C70265  10.720   8.509   6.987  0.3892  0.1859  0.6635
  521MOL0     C70266  10.860   8.514   6.972  1.0542 -1.3713 -0.5281
  521MOL0     C70267  10.921   8.641   6.913 -0.5030  0.0175 -0.5089
  521MOL0     H70268  11.332   8.206   6.837 -0.1459 -2.5706  0.8944
  521MOL0     H70269  11.575   8.252   6.865 -0.1525 -3.9615 -1.1846
  521MOL0     H70270  11.721   8.352   7.275 -2.9425 -0.9343 -0.1881
  521MOL0     H70271  11.755   8.185   7.205 -0.8624  0.3241  0.8187
  521MOL0     H70272  11.963   8.409   7.178  2.8958 -0.5862 -1.0261
  521MOL0     H70273  11.968   8.243   7.116 -2.5170 -3.4387  0.2187
  521MOL0     H70274  11.953   8.161   7.360  0.2589 -0.7345  0.2611
  521MOL0     H70275  11.967   8.336   7.406 -4.2599  0.0945 -0.9727
  521MOL0     H70276  12.161   8.153   7.400  4.6411 -0.0504  0.4223
  521MOL0     H70277  12.183   8.214   7.233 -0.4753  1.0719 -0.8141
  521MOL0     H70278  12.198   8.454   7.348 -0.9772  0.8754  1.3496
  521MOL0     H70279  12.211   8.355   7.495 -0.7752  0.8016 -0.3479
  521MOL0     H70280  12.407   8.228   7.393 -0.5838 -1.0960  1.2739
  521MOL0     H70281  12.391   8.346   7.256 -0.8655 -0.2597  0.4900
  521MOL0     H70282  12.419   8.458   7.531 -1.4971  4.4017 -1.4774
  521MOL0     H70283  12.483   8.531   7.378  0.5104 -0.5240 -1.0642
  521MOL0     H70284  12.677   8.463   7.496  0.1227 -0.0864 -0.6117
  521MOL0     H70285  12.610   8.294   7.519 -0.7497  0.2030  1.2273
  521MOL0     H70286  12.886   8.337   7.427 -0.2162 -1.9448  0.4223
  521MOL0     H70287  13.007   8.263   7.048  0.4001 -0.4234  0.0027
  521MOL0     H70288  13.062   8.387   7.166  1.4239 -0.9906  2.5589
  521MOL0     H70289  13.117   8.244   7.338  0.6758  0.4731 -0.0329
  521MOL0     H70290  13.081   8.094   7.251  0.3497 -0.0939  0.6693
  521MOL0     H70291  13.282   8.313   7.181 -1.8721  1.1280 -2.1946
  521MOL0     H70292  13.240   8.175   7.078 -1.4782 -0.2896  0.2689
  521MOL0     H70293  13.432   8.108   7.189 -0.3076  0.0392  1.0013
  521MOL0     H70294  13.295   8.011   7.265  1.6825 -0.9562 -0.5815
  521MOL0     H70295  13.477   8.267   7.598  0.2209  0.0374 -1.2451
  521MOL0     H70296  13.703   8.203   7.711 -1.0288  1.2208  0.5957
  521MOL0     H70297  13.848   7.818   7.870 -0.3653 -0.4123 -0.1104
  521MOL0     H70298  13.987   7.691   8.019 -0.6357 -0.5274 -0.2051
  521MOL0     H70299  14.312   7.554   8.121 -0.1298 -1.9535 -1.0439
  521MOL0     H70300  14.192   7.692   8.109 -0.9129  0.3023 -0.8236
  521MOL0     H70301  14.031   7.581   8.223 -2.5894 -2.6851  0.9759
  521MOL0     H70302  14.038   7.454   8.100 -1.2991  1.2557 -0.6954
  521MOL0     H70303  14.244   7.471   8.315 -0.3070 -0.8840  1.5164
  521MOL0     H70304  14.088   7.384   8.341  3.2575  0.5600  2.6005
  521MOL0     H70305  14.301   7.327   8.134  2.3393  3.1877  3.6574
  521MOL0     H70306  14.147   7.245   8.127  1.4853 -2.2464 -0.2401
  521MOL0     H70307  14.273   7.086   8.227  1.0620  0.2552  0.0936
  521MOL0     H70308  14.202   7.170   8.372  0.1233  1.0153  0.8680
  521MOL0     H70309  14.479   7.210   8.237 -0.8629  0.2113 -1.5383
  521MOL0     H70310  14.426   7.312   8.366 -0.2314  0.2153 -4.0525
  521MOL0     H70311  14.431   6.994   8.384 -2.1339  1.3621 -1.0461
  521MOL0     H70312  14.435   7.106   8.522 -4.9456  0.2383 -1.2580
  521MOL0     H70313  14.642   7.016   8.512 -3.0497 -0.4696  0.8564
  521MOL0     H70314  14.641   7.009   8.332 -3.1108  0.0158 -0.5741
  521MOL0     H70315  14.248   7.593   7.699 -1.0703 -0.3158  0.3245
  521MOL0     H70316  14.120   7.740   7.547  1.2534 -0.3301  0.2896
  521MOL0     H70317  13.746   7.894   7.417 -0.2070  0.7277 -0.8402
  521MOL0     H70318  13.546   7.966   7.306 -0.3174 -0.1052 -0.4295
  521MOL0     H70319  11.526   8.337   7.272  0.4638 -0.4211 -0.5192
  521MOL0     H70320  11.266   8.317   7.240  0.5116 -0.3282  0.0562
  521MOL0     H70321  10.930   8.178   7.032 -0.4938 -0.2441  0.5801
  521MOL0     H70322  10.693   8.184   7.085 -1.3937  0.4483  1.1311
  521MOL0     H70323  10.446   8.510   6.920  3.8121  2.3634  0.9394
  521MOL0     H70324  10.452   8.552   7.092  1.6784  0.8199 -1.2836
  521MOL0     H70325  10.242   8.485   7.109  0.0451  0.1770 -0.4903
  521MOL0     H70326  10.295   8.326   7.133 -2.9512  1.3505  1.0361
  521MOL0     H70327  10.266   8.274   6.886  1.8492  2.0336 -1.1854
  521MOL0     H70328  10.220   8.441   6.855 -0.3031  0.6751  0.9119
  521MOL0     H70329  10.037   8.294   6.881 -0.4331  1.2739  0.0315
  521MOL0     H70330  10.083   8.249   7.045  1.4560 -0.3454  0.6527
  521MOL0     H70331   9.884   8.635   7.050 -3.0138 -1.2159 -1.0589
  521MOL0     H70332  10.652   8.587   6.954  0.5505 -0.2298 -0.7069
  521MOL0     H70333  10.846   8.702   6.863 -1.3266 -1.8905 -1.7267
  521MOL0     H70334  10.965   8.699   6.995 -0.6616 -0.9573  0.2854
  521MOL0     H70335  10.999   8.608   6.843  0.9736 -3.8497  2.5508
  522MOL0     O70336  10.149   1.873   9.183 -0.1000  0.2803 -0.1913
  522MOL0     C70337  10.158   1.956   9.278 -0.8126 -0.6337  0.3383
  522MOL0     O70338  10.046   2.013   9.350 -0.1095 -0.0313 -0.3762
  522MOL0     C70339   9.915   1.970   9.319 -0.3344  0.4801  0.1958
  522MOL0     C70340   9.852   1.863   9.382  0.6794  0.5584  0.2947
  522MOL0     C70341   9.724   1.821   9.342 -0.0594  0.2169  0.0040
  522MOL0     C70342   9.663   1.896   9.237  0.5825  0.1846  0.1711
  522MOL0     O70343   9.539   1.857   9.190  0.4417 -0.3578 -0.0943
  522MOL0     C70344   9.496   1.892   9.059 -0.0783 -0.5104  0.0388
  522MOL0     C70345   9.354   1.844   9.042  0.0807 -0.8453 -0.5204
  522MOL0     C70346   9.357   1.697   9.024 -0.4583  0.1413  0.1708
  522MOL0     C70347   9.220   1.638   9.046  0.0271  0.3126 -0.9345
  522MOL0     C70348   9.139   1.651   8.923  0.0937  0.6735  0.3368
  522MOL0     C70349   8.982   1.631   8.949  0.4634 -0.2743 -0.3467
  522MOL0     C70350   8.918   1.645   8.809 -1.2274  0.2613  0.3880
  522MOL0     C70351   8.914   1.521   8.725 -0.0571  0.6336 -0.9869
  522MOL0     N70352   8.815   1.546   8.618  0.3794  0.4622 -0.6933
  522MOL0     C70353   8.815   1.635   8.516 -1.0001  0.6501 -0.6460
  522MOL0     C70354   8.710   1.601   8.443  0.9111 -0.3186  1.0649
  522MOL0     C70355   8.655   1.676   8.324  0.1976  1.9383 -0.8206
  522MOL0     C70356   8.614   1.827   8.340  0.0032  0.4940 -0.1875
  522MOL0     C70357   8.598   1.893   8.202  0.9766 -0.1021  0.0301
  522MOL0     C70358   8.729   1.948   8.142  0.5999  0.3283  0.0422
  522MOL0     O70359   8.783   2.043   8.234 -0.1228  0.0143 -0.5167
  522MOL0     C70360   8.916   2.073   8.230 -1.2391 -0.5942  0.4582
  522MOL0     C70361   9.007   2.025   8.135  0.5526  0.1899  0.0131
  522MOL0     C70362   9.136   2.071   8.131  0.8461 -1.2042  0.7199
  522MOL0     C70363   9.184   2.157   8.228 -0.2517 -0.1852  0.0636
  522MOL0     C70364   9.332   2.188   8.234  0.3143 -0.6462 -0.7616
  522MOL0     O70365   9.414   2.110   8.151 -0.2687  0.4802  1.2867
  522MOL0     C70366   9.540   2.163   8.123 -0.0055 -0.8392  0.3360
  522MOL0     C70367   9.569   2.226   7.995 -0.7881 -0.4723  1.1830
  522MOL0     C70368   9.706   2.243   7.967  0.0880 -0.2943  0.4574
  522MOL0     C70369   9.811   2.207   8.048 -0.4750  0.2544 -0.0362
  522MOL0     O70370   9.931   2.242   8.006  0.1775 -0.3418 -0.2566
  522MOL0     C70371  10.048   2.212   8.085 -0.0919 -0.0029  0.5230
  522MOL0     C70372  10.171   2.279   8.026  0.2421  0.5658  0.7222
  522MOL0     C70373  10.296   2.235   8.100  0.3508  0.3185 -1.0641
  522MOL0     C70374  10.421   2.281   8.014  0.6277  1.0939 -0.1661
  522MOL0     C70375  10.544   2.243   8.092  0.3499  0.8085  0.0109
  522MOL0     C70376  10.665   2.287   8.010  0.5900 -0.8003 -0.1667
  522MOL0     C70377  10.786   2.254   8.087  0.1742  0.0706  0.4408
  522MOL0     C70378  10.911   2.321   8.037 -0.5957 -0.2080  0.2094
  522MOL0    Cl70379  10.915   2.497   8.097  0.0524 -0.0522 -0.0879
  522MOL0     C70380   9.778   2.132   8.168 -0.2194  0.0560 -0.5712
  522MOL0     C70381   9.640   2.116   8.207  0.8112 -0.2766  0.4826
  522MOL0     O70382   9.366   2.295   8.288  0.0279 -0.1846 -0.0884
  522MOL0     C70383   9.101   2.204   8.333 -0.4869 -0.2055  0.7983
  522MOL0     C70384   8.968   2.161   8.328  0.1151  0.5879  0.0646
  522MOL0     N70385   8.629   1.511   8.513 -0.1596 -0.6639 -0.5682
  522MOL0     N70386   8.696   1.467   8.617 -0.5044 -0.0990  0.4212
  522MOL0     C70387   9.728   2.003   9.174  0.3673 -0.2232 -0.6232
  522MOL0     C70388   9.849   2.048   9.220 -0.5835 -0.1027 -0.4509
  522MOL0     C70389  10.293   1.988   9.337  1.0933  1.0964 -0.3972
  522MOL0     C70390  10.397   1.898   9.309 -0.0659  0.2197 -0.0146
  522MOL0     C70391  10.531   1.927   9.350  0.2043  0.0435 -0.6121
  522MOL0     C70392  10.562   2.043   9.427  0.5578  1.0367  0.8089
  522MOL0     O70393  10.683   2.089   9.480 -0.3331  0.3327 -0.4651
  522MOL0     C70394  10.779   1.981   9.477  0.1053 -0.4968  0.0667
  522MOL0     C70395  10.896   2.000   9.576  0.1112  0.0145  0.4265
  522MOL0     C70396  10.971   2.135   9.537  0.2311  0.6249 -0.1216
  522MOL0     C70397  11.071   2.178   9.648  0.9015 -0.0901  0.3530
  522MOL0     C70398  10.994   2.220   9.764  0.0189 -0.1734 -0.6866
  522MOL0     C70399  10.937   2.273   9.854  0.0452  0.4696 -0.0205
  522MOL0     C70400  10.449   2.121   9.463  0.0610 -0.3465 -0.3822
  522MOL0     C70401  10.319   2.103   9.412 -0.3637  0.7314  0.0221
  522MOL0     C70402  10.224   2.218   9.434 -0.2153  0.6288 -0.1327
  522MOL0     H70403   9.906   1.816   9.463  0.5915  0.3869  0.2555
  522MOL0     H70404   9.667   1.745   9.394 -0.0566  0.6561  0.6712
  522MOL0     H70405   9.493   1.998   9.035  0.1707 -1.4422 -5.3045
  522MOL0     H70406   9.559   1.850   8.980 -1.6103  0.2352 -1.6467
  522MOL0     H70407   9.296   1.887   8.959 -1.5698 -1.5131  0.2352
  522MOL0     H70408   9.297   1.871   9.131  0.6302  0.5367 -0.5543
  522MOL0     H70409   9.426   1.652   9.096  1.2159  1.0985 -0.7582
  522MOL0     H70410   9.384   1.674   8.920 -0.4176 -0.3728  0.2918
  522MOL0     H70411   9.210   1.535   9.080  0.8171  0.7721  0.8413
  522MOL0     H70412   9.178   1.693   9.132  1.0938  1.6999 -1.2513
  522MOL0     H70413   9.155   1.747   8.873 -1.1844  1.2678  1.0146
  522MOL0     H70414   9.176   1.580   8.849 -1.3447  1.2277 -1.0030
  522MOL0     H70415   8.953   1.528   8.973  1.9609 -1.6043 -3.6010
  522MOL0     H70416   8.960   1.703   9.028 -0.5709 -0.6221 -0.3044
  522MOL0     H70417   8.971   1.724   8.754 -0.2893  1.3925  2.7780
  522MOL0     H70418   8.821   1.686   8.841 -1.3728  0.3916 -0.2107
  522MOL0     H70419   9.011   1.504   8.678  1.1160 -1.2674  1.8562
  522MOL0     H70420   8.898   1.435   8.791  0.3361  1.3892  0.1270
  522MOL0     H70421   8.885   1.714   8.492  0.8956 -0.6091  0.4320
  522MOL0     H70422   8.737   1.656   8.255  0.0248 -4.3209  0.2234
  522MOL0     H70423   8.568   1.614   8.297  1.2885  1.8424 -4.7462
  522MOL0     H70424   8.515   1.845   8.382  0.4582 -0.3386  1.2874
  522MOL0     H70425   8.684   1.889   8.397 -0.1737  1.2810 -0.8157
  522MOL0     H70426   8.533   1.980   8.213  1.3082  0.7676 -3.6396
  522MOL0     H70427   8.555   1.829   8.123  4.4327  0.5716 -2.6671
  522MOL0     H70428   8.692   1.989   8.048  0.0268 -0.1767  0.0444
  522MOL0     H70429   8.795   1.862   8.124  0.0100 -0.0316 -0.4272
  522MOL0     H70430   8.972   1.964   8.053 -0.2678 -2.0486  1.9181
  522MOL0     H70431   9.208   2.045   8.054  0.8498 -2.0450  0.9985
  522MOL0     H70432   9.494   2.252   7.922  2.0114 -0.9510 -2.1054
  522MOL0     H70433   9.743   2.285   7.874  2.6633  0.9564  1.9331
  522MOL0     H70434  10.051   2.262   8.182  2.5241 -1.0139  1.0615
  522MOL0     H70435  10.060   2.103   8.089  3.6950  0.2806  0.1961
  522MOL0     H70436  10.185   2.257   7.920  3.2137 -0.4147  1.2099
  522MOL0     H70437  10.150   2.386   8.022 -2.2331  0.0859 -2.1230
  522MOL0     H70438  10.307   2.294   8.191  0.7712  0.6342 -1.3179
  522MOL0     H70439  10.293   2.127   8.118  1.1232 -0.6181 -5.3606
  522MOL0     H70440  10.435   2.389   8.001  0.8345  1.1982  0.8146
  522MOL0     H70441  10.427   2.229   7.918  1.3716 -0.9241  0.9215
  522MOL0     H70442  10.552   2.135   8.110  0.2744  0.9435  0.8956
  522MOL0     H70443  10.536   2.287   8.192  1.9531 -0.0356  0.5498
  522MOL0     H70444  10.666   2.243   7.910 -0.0972  1.6132 -1.3192
  522MOL0     H70445  10.658   2.395   7.993 -0.0833 -0.9204 -0.7333
  522MOL0     H70446  10.804   2.146   8.083 -1.8618 -0.2690 -1.6806
  522MOL0     H70447  10.772   2.279   8.193 -0.3969  0.1243  0.3572
  522MOL0     H70448  11.001   2.268   8.071  0.2719 -0.1828 -1.8684
  522MOL0     H70449  10.919   2.321   7.928 -2.4198 -1.2607  0.0473
  522MOL0     H70450   9.846   2.105   8.248 -0.3204 -2.0411 -1.1258
  522MOL0     H70451   9.626   2.067   8.303  3.5995 -0.5935  0.8301
  522MOL0     H70452   9.148   2.257   8.415 -0.9572 -1.1714  1.7206
  522MOL0     H70453   8.893   2.196   8.398  0.9507  2.3894  0.1131
  522MOL0     H70454   9.679   2.064   9.099 -0.2352  2.3562  1.7239
  522MOL0     H70455   9.901   2.131   9.173 -0.2686  0.0299  0.1278
  522MOL0     H70456  10.385   1.811   9.245  0.7866 -0.9545  1.3472
  522MOL0     H70457  10.608   1.860   9.314  2.4301  1.5599  1.0134
  522MOL0     H70458  10.803   1.966   9.371 -2.3335 -0.0833 -0.6133
  522MOL0     H70459  10.721   1.895   9.512 -0.5972  0.2806  0.8692
  522MOL0     H70460  10.970   1.920   9.575 -2.0541 -2.0874  1.3377
  522MOL0     H70461  10.854   2.008   9.676 -1.9498 -1.9701 -0.2078
  522MOL0     H70462  10.911   2.224   9.518  3.9505  3.3489 -0.2517
  522MOL0     H70463  11.016   2.123   9.438 -1.5759  0.6496 -0.9808
  522MOL0     H70464  11.145   2.105   9.680  0.1876  0.0476  2.4731
  522MOL0     H70465  11.132   2.264   9.615  0.1738  0.5569  0.6600
  522MOL0     H70466  10.902   2.333   9.936  2.7439 -0.3294  1.8497
  522MOL0     H70467  10.473   2.205   9.529 -1.9954 -0.2349  0.2864
  522MOL0     H70468  10.281   2.309   9.452  0.8611  0.3308 -1.7720
  522MOL0     H70469  10.168   2.239   9.342  1.6120  0.1875 -1.4126
  522MOL0     H70470  10.146   2.205   9.510 -0.9633  1.2744 -0.7686
  523MOL0     O70471   7.190   6.275   4.334 -0.0878 -0.4178 -0.8588
  523MOL0     C70472   7.079   6.328   4.322  0.2716 -0.1615  0.6404
  523MOL0     O70473   7.039   6.402   4.221  0.9649  0.1233  0.0633
  523MOL0     C70474   7.126   6.455   4.139 -0.5173  0.6189 -0.5722
  523MOL0     C70475   7.120   6.592   4.125  0.0988 -0.4962 -0.6151
  523MOL0     C70476   7.212   6.658   4.056 -0.6796 -0.3647  0.3504
  523MOL0     C70477   7.305   6.597   3.978 -0.1922  0.2328  0.0985
  523MOL0     O70478   7.393   6.676   3.909 -0.2843  0.0551 -0.3080
  523MOL0     C70479   7.523   6.620   3.881 -0.0451  0.8419  0.5331
  523MOL0     C70480   7.619   6.733   3.828 -0.0054 -0.1624 -0.0617
  523MOL0     C70481   7.753   6.653   3.805  0.6467  0.1753 -0.5165
  523MOL0     C70482   7.848   6.740   3.725 -0.7541 -0.2308  0.9885
  523MOL0     C70483   7.991   6.690   3.720  0.0511 -0.1016 -0.7990
  523MOL0     C70484   8.084   6.786   3.648 -0.0353 -0.1926  0.0364
  523MOL0     C70485   8.219   6.727   3.620  0.2321 -0.2612  0.1562
  523MOL0     C70486   8.298   6.819   3.520 -0.2746 -0.5117  0.3798
  523MOL0     N70487   8.439   6.791   3.514  0.8592  0.2342  0.1082
  523MOL0     C70488   8.531   6.847   3.594 -0.2817  0.2587 -0.6195
  523MOL0     C70489   8.652   6.808   3.550  0.6564  0.2733  0.1978
  523MOL0     C70490   8.790   6.867   3.585  0.6095  0.6119 -0.0210
  523MOL0     C70491   8.821   6.994   3.514  1.0726 -0.6361 -0.0614
  523MOL0     C70492   8.967   7.015   3.520 -0.8717  0.5591  0.5036
  523MOL0     C70493   9.003   7.162   3.538 -0.4004 -0.8977  0.1204
  523MOL0     O70494   8.972   7.227   3.414 -0.2412  0.0490 -0.3039
  523MOL0     C70495   8.930   7.358   3.414 -0.1789 -0.4518  0.0844
  523MOL0     C70496   9.025   7.459   3.425  0.0455 -0.0259  0.7927
  523MOL0     C70497   8.995   7.602   3.433  0.2164  0.0599 -0.1616
  523MOL0     C70498   8.860   7.640   3.450 -0.0432  0.3350  0.6897
  523MOL0     C70499   8.813   7.778   3.478 -0.4218 -0.1257 -0.1510
  523MOL0     O70500   8.679   7.802   3.483  0.3139 -0.1845 -0.3890
  523MOL0     C70501   8.648   7.924   3.425 -0.3157  0.1732 -0.0799
  523MOL0     C70502   8.545   7.998   3.490  0.2511  0.8297 -0.3080
  523MOL0     C70503   8.492   8.115   3.437 -0.4198  0.3494  0.0935
  523MOL0     C70504   8.536   8.173   3.321  0.2336 -0.8805 -0.4172
  523MOL0     O70505   8.477   8.281   3.270 -0.9523  0.4425  0.3447
  523MOL0     C70506   8.407   8.380   3.350 -0.0415  0.1311  0.8575
  523MOL0     C70507   8.311   8.452   3.253  0.2872  0.1229  0.1695
  523MOL0     C70508   8.259   8.597   3.299 -0.8632  0.0063 -0.1326
  523MOL0     C70509   8.159   8.640   3.191  0.1693  0.6885 -0.8051
  523MOL0     C70510   8.109   8.775   3.223  0.6124 -0.4456 -0.3704
  523MOL0     C70511   8.008   8.819   3.106 -0.3120 -0.5608  0.2507
  523MOL0     C70512   8.084   8.898   2.997  0.1202 -0.6795  0.1420
  523MOL0     C70513   7.973   8.962   2.913  0.7136  0.5459 -0.2226
  523MOL0    Cl70514   7.902   9.108   2.995  0.2515 -0.6677 -0.1088
  523MOL0     C70515   8.636   8.092   3.250  0.0274  0.0694 -0.4607
  523MOL0     C70516   8.697   7.972   3.297 -0.1275  0.3265 -0.0241
  523MOL0     O70517   8.905   7.862   3.481  0.1986 -0.4332 -0.7604
  523MOL0     C70518   8.765   7.537   3.452  0.8310 -0.0755 -0.1898
  523MOL0     C70519   8.795   7.400   3.434 -0.9547  0.2847 -0.2671
  523MOL0     N70520   8.631   6.708   3.456 -0.3386  0.2006 -0.0362
  523MOL0     N70521   8.504   6.707   3.426  0.1901 -0.7424  0.1019
  523MOL0     C70522   7.302   6.456   3.964 -0.0839 -0.2591 -0.2213
  523MOL0     C70523   7.214   6.387   4.051 -0.4270  0.5962  0.6733
  523MOL0     C70524   6.975   6.306   4.417  0.3857 -0.2739  0.1140
  523MOL0     C70525   6.839   6.341   4.390 -0.2955 -1.7113 -0.8865
  523MOL0     C70526   6.734   6.326   4.480 -0.5193 -0.0725  0.2651
  523MOL0     C70527   6.755   6.271   4.600  0.2093  0.5272 -0.3294
  523MOL0     O70528   6.660   6.254   4.702 -0.2919  0.3709  0.2957
  523MOL0     C70529   6.523   6.285   4.685  0.2594 -0.6405 -0.3392
  523MOL0     C70530   6.484   6.421   4.758  0.0223 -0.5051 -0.4025
  523MOL0     C70531   6.540   6.541   4.689  0.8568  0.2536 -0.2188
  523MOL0     C70532   6.503   6.679   4.739  1.0054 -0.9065 -0.2608
  523MOL0     C70533   6.570   6.788   4.659  0.4518  0.7018  1.0108
  523MOL0     C70534   6.612   6.875   4.591  0.8166  0.4405  0.0345
  523MOL0     C70535   6.880   6.228   4.631 -0.3067  0.6581  0.4831
  523MOL0     C70536   6.992   6.242   4.541 -0.4640 -0.4984 -0.0333
  523MOL0     C70537   7.119   6.182   4.591  0.2754 -0.9140 -0.1357
  523MOL0     H70538   7.056   6.657   4.183  2.9189  0.9372  1.1407
  523MOL0     H70539   7.213   6.767   4.055 -1.5130 -0.3090  2.0694
  523MOL0     H70540   7.563   6.568   3.968 -0.1195  0.3994  0.3063
  523MOL0     H70541   7.511   6.538   3.809 -1.5954  0.0422  1.6619
  523MOL0     H70542   7.635   6.805   3.909  0.7846 -1.2572  0.7962
  523MOL0     H70543   7.581   6.779   3.736 -0.2994  0.2512  0.2616
  523MOL0     H70544   7.734   6.569   3.739 -2.3607  0.4956 -0.1867
  523MOL0     H70545   7.788   6.623   3.905 -1.9651  0.6041  0.6136
  523MOL0     H70546   7.803   6.751   3.626  0.3011 -3.3586  0.0642
  523MOL0     H70547   7.851   6.840   3.768 -0.3729  0.7937 -1.2772
  523MOL0     H70548   8.024   6.669   3.822 -0.2000  0.9914 -0.4820
  523MOL0     H70549   7.993   6.593   3.668  0.3087  0.3663 -1.6709
  523MOL0     H70550   8.019   6.808   3.563 -1.5443 -0.2208  1.1582
  523MOL0     H70551   8.102   6.884   3.694  1.1665 -0.0892 -0.6168
  523MOL0     H70552   8.204   6.626   3.581 -0.1406 -0.9234  1.8980
  523MOL0     H70553   8.271   6.725   3.716 -1.9619 -1.0797  1.4137
  523MOL0     H70554   8.265   6.805   3.417  1.6121  1.2779 -0.5356
  523MOL0     H70555   8.285   6.925   3.545 -0.0828 -0.5851  0.8046
  523MOL0     H70556   8.509   6.925   3.667  0.4910 -0.3232  0.2505
  523MOL0     H70557   8.794   6.878   3.694 -0.5573 -1.5956  0.3013
  523MOL0     H70558   8.856   6.784   3.559  0.1247  0.5520 -1.1204
  523MOL0     H70559   8.781   6.983   3.412  1.5184 -1.4297 -0.1608
  523MOL0     H70560   8.775   7.080   3.562 -0.0135 -0.2579 -1.7014
  523MOL0     H70561   9.019   6.978   3.432 -0.0191  5.4584 -1.3378
  523MOL0     H70562   9.013   6.961   3.604  0.8893 -0.8577 -1.2644
  523MOL0     H70563   9.108   7.168   3.566 -0.9665  1.3465  1.9906
  523MOL0     H70564   8.945   7.194   3.625 -1.8280 -0.1817 -1.0409
  523MOL0     H70565   9.132   7.443   3.417 -0.1589 -0.5974 -1.7748
  523MOL0     H70566   9.066   7.683   3.418 -1.0860  1.0817 -1.0710
  523MOL0     H70567   8.503   7.967   3.585 -1.2916  0.7275 -0.9919
  523MOL0     H70568   8.402   8.151   3.485 -1.0009  1.1081 -1.4854
  523MOL0     H70569   8.339   8.339   3.426 -1.3795 -1.2435 -0.9954
  523MOL0     H70570   8.480   8.447   3.395  0.4125  0.2695 -0.0728
  523MOL0     H70571   8.381   8.472   3.171  2.0559  1.2910  1.8916
  523MOL0     H70572   8.231   8.386   3.218 -0.7629  1.6415 -0.3641
  523MOL0     H70573   8.208   8.583   3.395 -0.0920  2.4244  0.6954
  523MOL0     H70574   8.337   8.669   3.324 -1.7016  0.1808  2.2438
  523MOL0     H70575   8.077   8.569   3.176  1.4565 -1.3194  1.1568
  523MOL0     H70576   8.217   8.635   3.099  1.2733 -0.6719 -0.0698
  523MOL0     H70577   8.197   8.838   3.238  0.1911  0.5401 -1.7886
  523MOL0     H70578   8.067   8.765   3.323  1.8907 -0.7587  0.1562
  523MOL0     H70579   7.954   8.732   3.067  1.1982 -1.7207  0.6331
  523MOL0     H70580   7.941   8.889   3.156 -0.0671 -1.6133  2.1284
  523MOL0     H70581   8.131   8.820   2.935 -1.6887  0.0175 -2.2398
  523MOL0     H70582   8.153   8.966   3.047 -2.8203  0.1486  3.4397
  523MOL0     H70583   8.008   8.991   2.813 -2.5455  2.8230 -0.8710
  523MOL0     H70584   7.894   8.891   2.890  0.8925 -0.7593  2.7841
  523MOL0     H70585   8.668   8.133   3.155  1.0431 -2.5541 -1.3333
  523MOL0     H70586   8.776   7.931   3.235  2.3186  3.0132  1.1055
  523MOL0     H70587   8.659   7.558   3.463 -0.3258 -5.0610  0.8660
  523MOL0     H70588   8.706   7.339   3.424 -1.6144  0.4567  3.1924
  523MOL0     H70589   7.377   6.413   3.898  0.8642 -0.1204  0.7446
  523MOL0     H70590   7.220   6.279   4.053  1.0191  0.6510  2.5529
  523MOL0     H70591   6.815   6.383   4.293  0.1488  2.1658  0.5141
  523MOL0     H70592   6.633   6.350   4.449 -0.3183  2.3015  1.2313
  523MOL0     H70593   6.466   6.200   4.724 -1.8578 -0.9990 -3.7653
  523MOL0     H70594   6.504   6.293   4.577 -0.9537 -1.1873 -0.1804
  523MOL0     H70595   6.517   6.433   4.862  1.3845  0.2667 -0.8943
  523MOL0     H70596   6.375   6.424   4.754 -0.1503  2.7806  2.1706
  523MOL0     H70597   6.523   6.532   4.581  2.7974 -0.7707 -0.4813
  523MOL0     H70598   6.648   6.525   4.692  0.5236 -2.6034 -0.8829
  523MOL0     H70599   6.395   6.695   4.733  0.8218 -2.3736 -3.9074
  523MOL0     H70600   6.546   6.675   4.839  0.2679 -1.4533  0.0401
  523MOL0     H70601   6.633   6.964   4.535 -0.4835  0.0179 -1.1636
  523MOL0     H70602   6.890   6.181   4.728  1.1864  0.8399  0.4326
  523MOL0     H70603   7.147   6.093   4.534  0.5877 -0.8384 -0.1058
  523MOL0     H70604   7.203   6.253   4.593  1.3358 -2.1358  1.7783
  523MOL0     H70605   7.102   6.150   4.694  2.1136 -1.8352 -0.0714
  524MOL0     O70606   3.686   4.809   3.606 -0.6865 -0.2358  0.3930
  524MOL0     C70607   3.569   4.798   3.577  0.9464 -0.1090  0.0461
  524MOL0     O70608   3.517   4.779   3.444 -0.4455 -0.0226 -0.5939
  524MOL0     C70609   3.589   4.740   3.335 -0.7269  0.3008  0.0024
  524MOL0     C70610   3.732   4.731   3.319  0.3101 -1.0074  0.8138
  524MOL0     C70611   3.784   4.680   3.200 -0.0357 -0.0817  0.2547
  524MOL0     C70612   3.709   4.642   3.090 -0.5523  0.1706  0.8539
  524MOL0     O70613   3.781   4.577   2.986  0.0796  0.3519 -0.1647
  524MOL0     C70614   3.695   4.508   2.886  0.4129  0.1421  0.0524
  524MOL0     C70615   3.614   4.392   2.947  0.6431  0.2876 -0.0967
  524MOL0     C70616   3.707   4.298   3.017  0.0922 -0.2567  0.1796
  524MOL0     C70617   3.660   4.154   3.043  0.3925 -0.2208 -0.1928
  524MOL0     C70618   3.764   4.054   3.096 -0.0859 -0.4738 -0.6734
  524MOL0     C70619   3.840   4.090   3.234  0.0106  0.7630  0.5268
  524MOL0     C70620   3.919   3.969   3.297 -1.1709  0.4413  1.0205
  524MOL0     C70621   4.004   3.913   3.189  0.7439 -0.3585  0.1314
  524MOL0     N70622   4.102   3.818   3.244 -0.4686  0.4855  1.0095
  524MOL0     C70623   4.193   3.845   3.342  0.3783  0.9396 -0.2215
  524MOL0     C70624   4.272   3.734   3.356  0.5425 -0.1554  0.3640
  524MOL0     C70625   4.384   3.728   3.449  0.0120  0.8612  1.0031
  524MOL0     C70626   4.473   3.845   3.420  0.4034 -0.0042 -0.2903
  524MOL0     C70627   4.595   3.856   3.518  0.0732  0.7463 -0.2479
  524MOL0     C70628   4.707   3.941   3.468 -0.8324  0.3074 -1.0181
  524MOL0     O70629   4.806   3.965   3.568 -0.5168  0.4178 -0.4663
  524MOL0     C70630   4.935   3.916   3.556  0.7821 -0.0479  0.1246
  524MOL0     C70631   4.971   3.778   3.544  0.1067 -0.2591  0.5330
  524MOL0     C70632   5.102   3.734   3.539  0.7457 -0.2026  0.2045
  524MOL0     C70633   5.205   3.830   3.551  0.3707  0.6919 -0.5360
  524MOL0     C70634   5.350   3.779   3.571  0.3372 -0.7923 -0.6960
  524MOL0     O70635   5.432   3.870   3.612 -0.1236  0.4234  0.0397
  524MOL0     C70636   5.560   3.857   3.655 -0.0913  0.2680  0.3640
  524MOL0     C70637   5.619   3.737   3.696 -0.9573  0.1801  0.4452
  524MOL0     C70638   5.748   3.731   3.760 -0.1471 -1.0984  0.2068
  524MOL0     C70639   5.807   3.857   3.788 -0.3849  0.0125 -0.4607
  524MOL0     O70640   5.933   3.853   3.842  0.8836 -0.3023  0.6874
  524MOL0     C70641   5.953   3.927   3.960 -1.0566  0.8900 -0.4605
  524MOL0     C70642   5.871   3.868   4.078  0.0351  1.0646 -0.4126
  524MOL0     C70643   5.910   3.726   4.110  0.9466 -0.0858 -0.2873
  524MOL0     C70644   5.786   3.640   4.153 -0.2355 -0.2735 -0.8000
  524MOL0     C70645   5.818   3.493   4.182  0.0848  0.0678  0.4705
  524MOL0     C70646   5.918   3.444   4.298 -0.6422  0.4752  1.8419
  524MOL0     C70647   5.887   3.497   4.434 -0.7084  0.3037 -0.4419
  524MOL0     C70648   6.007   3.458   4.528  0.8465 -0.1829 -0.6530
  524MOL0    Cl70649   5.994   3.293   4.568  0.0757 -0.2306  0.0177
  524MOL0     C70650   5.744   3.974   3.754  0.4644  0.4161 -0.0566
  524MOL0     C70651   5.621   3.976   3.687 -0.4454  0.9612  0.7534
  524MOL0     O70652   5.367   3.663   3.550  0.4575 -0.1189  0.1451
  524MOL0     C70653   5.176   3.965   3.555 -0.0475  0.3876 -0.2575
  524MOL0     C70654   5.046   4.004   3.560  0.3340 -0.1828 -0.0864
  524MOL0     N70655   4.226   3.633   3.273  0.5358 -0.2075 -0.2391
  524MOL0     N70656   4.125   3.684   3.205 -0.5251 -0.3831 -0.2028
  524MOL0     C70657   3.573   4.673   3.100  0.2037 -0.5870 -0.3256
  524MOL0     C70658   3.513   4.719   3.226 -0.3065 -0.0450 -0.8918
  524MOL0     C70659   3.473   4.820   3.679  0.3446  0.7310  0.1692
  524MOL0     C70660   3.340   4.834   3.648  0.5700  0.1856  0.6715
  524MOL0     C70661   3.234   4.835   3.737  0.0985  0.3954 -0.5500
  524MOL0     C70662   3.266   4.827   3.869  0.1061  0.4325 -0.2516
  524MOL0     O70663   3.162   4.834   3.952  0.1438  0.1762 -0.2788
  524MOL0     C70664   3.191   4.821   4.088 -0.3600  0.2648 -0.0605
  524MOL0     C70665   3.173   4.680   4.128 -0.4538  0.0933 -0.7251
  524MOL0     C70666   3.292   4.636   4.225  0.4490 -0.1026  0.3261
  524MOL0     C70667   3.338   4.491   4.204  0.3021 -1.0824 -0.0620
  524MOL0     C70668   3.429   4.489   4.090 -0.1181  0.2650 -0.1081
  524MOL0     C70669   3.497   4.480   3.982 -0.5132 -0.5892 -0.8987
  524MOL0     C70670   3.397   4.805   3.906  0.0379  0.7335 -0.4133
  524MOL0     C70671   3.503   4.797   3.816  1.0587 -0.5347 -0.0110
  524MOL0     C70672   3.639   4.783   3.870 -0.1296  0.1938 -0.2951
  524MOL0     H70673   3.798   4.769   3.397  0.8109 -1.5711  0.6696
  524MOL0     H70674   3.891   4.663   3.190  0.2420  1.1938  0.8402
  524MOL0     H70675   3.619   4.578   2.849 -1.6461 -2.2826 -0.6164
  524MOL0     H70676   3.750   4.480   2.796  0.7257 -0.8890  0.5441
  524MOL0     H70677   3.569   4.340   2.862 -0.3710 -1.7485  1.5872
  524MOL0     H70678   3.532   4.421   3.013 -0.0217  2.8190 -1.8611
  524MOL0     H70679   3.725   4.343   3.115  1.1823 -1.2338  0.4539
  524MOL0     H70680   3.799   4.299   2.957  0.5957 -0.0430  0.9409
  524MOL0     H70681   3.572   4.149   3.109  0.8406 -1.6943  0.3308
  524MOL0     H70682   3.630   4.110   2.947 -0.3260 -1.0789  0.4033
  524MOL0     H70683   3.712   3.961   3.118 -0.1568  0.1617  2.3841
  524MOL0     H70684   3.834   4.038   3.014  1.3401 -1.7265  0.7193
  524MOL0     H70685   3.910   4.173   3.217  0.2463  0.7029  1.1754
  524MOL0     H70686   3.765   4.125   3.306 -0.3850  1.2377 -0.1128
  524MOL0     H70687   3.855   3.886   3.328 -0.7408 -0.2239  0.1753
  524MOL0     H70688   3.984   4.003   3.378  1.6449  0.1349 -0.9580
  524MOL0     H70689   3.940   3.860   3.118  0.0363  1.4287 -0.6265
  524MOL0     H70690   4.062   3.992   3.140  0.3161 -0.0490  0.1168
  524MOL0     H70691   4.205   3.931   3.406  0.8921 -1.0829  2.6037
  524MOL0     H70692   4.335   3.753   3.544 -3.1656  0.0989 -0.3136
  524MOL0     H70693   4.433   3.631   3.455 -1.1585  0.1910  0.1588
  524MOL0     H70694   4.501   3.825   3.316 -1.7017 -1.1036 -0.6995
  524MOL0     H70695   4.409   3.934   3.426 -2.3953 -1.6166 -3.0826
  524MOL0     H70696   4.648   3.762   3.531  3.0449  2.2114 -0.8571
  524MOL0     H70697   4.568   3.881   3.621  1.7924  2.1644 -0.0844
  524MOL0     H70698   4.666   4.039   3.443 -1.0695  0.9078  1.3867
  524MOL0     H70699   4.743   3.897   3.375 -0.2005  2.4919 -1.8733
  524MOL0     H70700   4.895   3.717   3.497  0.3222 -1.2921  1.4929
  524MOL0     H70701   5.123   3.630   3.516  1.6109 -0.0292  0.1493
  524MOL0     H70702   5.563   3.645   3.688  0.9987 -1.2063  1.8147
  524MOL0     H70703   5.789   3.635   3.789 -0.6093 -2.5007 -3.3110
  524MOL0     H70704   6.057   3.910   3.990 -0.7786  0.9304 -1.3800
  524MOL0     H70705   5.943   4.035   3.948  0.7914  1.1361 -0.0396
  524MOL0     H70706   5.881   3.936   4.164  0.2475  0.1022  0.3439
  524MOL0     H70707   5.764   3.866   4.056  0.4823 -3.2585 -3.3889
  524MOL0     H70708   5.953   3.669   4.027  0.0049 -0.5995 -0.4396
  524MOL0     H70709   5.980   3.725   4.195 -2.3631 -0.0374  2.6678
  524MOL0     H70710   5.707   3.647   4.078  0.2874  2.2714 -1.1938
  524MOL0     H70711   5.738   3.683   4.241  0.1959 -0.6361 -0.3792
  524MOL0     H70712   5.855   3.466   4.083  0.0207  3.2963 -0.5203
  524MOL0     H70713   5.724   3.443   4.208  0.0493 -1.9350 -2.8896
  524MOL0     H70714   5.926   3.335   4.298  0.0692  0.5243  1.8446
  524MOL0     H70715   6.015   3.485   4.269 -0.4167 -3.2368 -4.2250
  524MOL0     H70716   5.792   3.463   4.476  0.1751 -0.0423  1.3789
  524MOL0     H70717   5.875   3.606   4.433 -2.7872  0.1207 -0.8877
  524MOL0     H70718   6.106   3.480   4.487  0.4951 -0.6089 -1.7621
  524MOL0     H70719   6.007   3.513   4.623 -0.3220  1.1290 -1.3638
  524MOL0     H70720   5.791   4.067   3.782 -0.8811  0.9936  0.3690
  524MOL0     H70721   5.569   4.071   3.672  0.3222  0.9495 -3.1500
  524MOL0     H70722   5.253   4.041   3.556  1.3340 -0.9139 -1.5832
  524MOL0     H70723   5.025   4.108   3.582  0.9727 -0.1539  0.4023
  524MOL0     H70724   3.509   4.643   3.017 -0.2413 -0.5753  0.0113
  524MOL0     H70725   3.408   4.734   3.251  0.3547  0.7099  1.7550
  524MOL0     H70726   3.310   4.833   3.543  2.9298 -0.7944 -0.0596
  524MOL0     H70727   3.131   4.855   3.710  0.0086  1.4557  0.5183
  524MOL0     H70728   3.115   4.874   4.147 -1.0012 -0.7422  0.0568
  524MOL0     H70729   3.277   4.875   4.128 -0.3201 -0.3440  0.6908
  524MOL0     H70730   3.184   4.619   4.038 -1.3722 -1.0148 -0.0948
  524MOL0     H70731   3.083   4.656   4.183 -0.7545 -0.0985 -1.2928
  524MOL0     H70732   3.251   4.643   4.326 -2.5612 -1.2505 -0.7160
  524MOL0     H70733   3.376   4.704   4.207  1.1347 -1.9444 -5.0548
  524MOL0     H70734   3.398   4.469   4.292 -0.4116  0.6590  0.9012
  524MOL0     H70735   3.262   4.413   4.194 -1.7199  0.6769  0.9256
  524MOL0     H70736   3.559   4.470   3.896  1.4838 -0.4365  0.4649
  524MOL0     H70737   3.436   4.801   4.007  1.6541  0.7447 -1.0032
  524MOL0     H70738   3.673   4.685   3.835 -2.4283 -0.2161 -1.6269
  524MOL0     H70739   3.709   4.858   3.832  0.1910  0.8289  1.4488
  524MOL0     H70740   3.651   4.806   3.977 -0.3093  3.0967 -0.8356
  525MOL0     O70741   3.778   6.365   0.830 -0.7798 -0.9032  0.3351
  525MOL0     C70742   3.894   6.319   0.852 -0.1763  0.0420  0.1048
  525MOL0     O70743   4.006   6.381   0.811  0.0690  0.0054  0.2401
  525MOL0     C70744   4.005   6.499   0.734  0.7107 -0.3079 -0.1207
  525MOL0     C70745   3.939   6.508   0.611  0.8099 -0.5395 -0.4089
  525MOL0     C70746   3.962   6.616   0.527  0.9033 -0.3713  0.6986
  525MOL0     C70747   4.034   6.723   0.569 -0.3434  1.0320  0.3040
  525MOL0     O70748   4.046   6.830   0.489 -0.5694  0.2839 -0.7868
  525MOL0     C70749   4.064   6.808   0.349  0.3993  0.2737  0.3232
  525MOL0     C70750   4.123   6.924   0.274  0.1952 -0.4864 -0.4211
  525MOL0     C70751   4.266   6.936   0.320  0.2664 -0.2767 -1.3638
  525MOL0     C70752   4.345   7.055   0.264 -0.6603 -0.2061  0.2997
  525MOL0     C70753   4.493   7.028   0.313 -0.3792 -0.0116 -0.7868
  525MOL0     C70754   4.516   7.055   0.462  0.2184 -0.2420 -0.0310
  525MOL0     C70755   4.658   7.101   0.502 -0.9533 -0.3282 -1.4957
  525MOL0     C70756   4.764   6.996   0.473  0.0108  0.3187 -0.4499
  525MOL0     N70757   4.895   7.043   0.491  0.1441  0.7807 -0.3234
  525MOL0     C70758   4.962   7.072   0.604 -0.2651  0.0447  0.0424
  525MOL0     C70759   5.090   7.106   0.570  0.3948  0.1092  0.1993
  525MOL0     C70760   5.213   7.120   0.653 -0.6465  0.1201  0.1462
  525MOL0     C70761   5.227   7.000   0.751  0.5432 -0.4297 -0.2706
  525MOL0     C70762   5.323   7.031   0.858  0.3082 -0.1654 -0.1436
  525MOL0     C70763   5.462   7.037   0.807  0.9047  0.6135 -0.3569
  525MOL0     O70764   5.506   7.169   0.770 -0.2713  1.9484  0.6854
  525MOL0     C70765   5.647   7.177   0.751 -0.0899  0.5100 -0.3045
  525MOL0     C70766   5.691   7.308   0.738  0.6551  0.2477 -1.7015
  525MOL0     C70767   5.817   7.341   0.712 -0.0505  0.1092 -0.4774
  525MOL0     C70768   5.914   7.246   0.691 -0.0914 -0.2697  0.4208
  525MOL0     C70769   6.042   7.296   0.634  0.9436  0.4624  0.4371
  525MOL0     O70770   6.040   7.395   0.542 -0.5201  0.2025  0.2239
  525MOL0     C70771   6.149   7.433   0.464  0.0517  0.3019  0.2345
  525MOL0     C70772   6.275   7.459   0.513  0.0128 -0.6895 -0.9684
  525MOL0     C70773   6.376   7.510   0.435 -0.3273 -0.3852 -0.6473
  525MOL0     C70774   6.359   7.523   0.296  0.2279 -0.7170 -0.3707
  525MOL0     O70775   6.465   7.573   0.218  0.1481 -0.0645 -0.0973
  525MOL0     C70776   6.503   7.486   0.107  0.2889 -0.7137  0.7487
  525MOL0     C70777   6.624   7.538   0.031 -0.2564  0.3827  0.5582
  525MOL0     C70778   6.633   7.463  -0.100  0.1311 -0.2151 -0.7344
  525MOL0     C70779   6.757   7.523  -0.176 -0.1067  0.6160  0.3606
  525MOL0     C70780   6.788   7.424  -0.290 -0.9568 -0.9267 -0.2483
  525MOL0     C70781   6.669   7.379  -0.375 -0.3825 -0.6647 -0.8028
  525MOL0     C70782   6.712   7.336  -0.514 -0.4857  0.3773 -0.4856
  525MOL0     C70783   6.676   7.187  -0.530 -0.3294 -0.3425  0.2376
  525MOL0    Cl70784   6.723   7.134  -0.689 -0.2364 -0.3159  0.4116
  525MOL0     C70785   6.234   7.491   0.238  0.5499  0.3352 -0.2377
  525MOL0     C70786   6.126   7.458   0.325  0.0311 -0.5243 -0.5601
  525MOL0     O70787   6.140   7.235   0.664  0.1209 -0.1495 -0.6090
  525MOL0     C70788   5.880   7.114   0.714  0.9121  0.2239 -0.7890
  525MOL0     C70789   5.740   7.077   0.737 -0.4995 -0.4927  0.5462
  525MOL0     N70790   5.093   7.117   0.434 -0.0198  0.2252 -1.3163
  525MOL0     N70791   4.981   7.082   0.388 -0.4611 -0.7408 -1.3057
  525MOL0     C70792   4.083   6.725   0.697 -0.4499  0.3460  0.1339
  525MOL0     C70793   4.073   6.611   0.779 -0.0989  0.0071 -0.2240
  525MOL0     C70794   3.903   6.185   0.916 -0.3405 -0.1392  0.0596
  525MOL0     C70795   4.028   6.128   0.939  0.4989 -0.1845  0.4063
  525MOL0     C70796   4.062   6.012   1.003 -0.3134  0.4998 -0.9481
  525MOL0     C70797   3.960   5.940   1.069  0.0430 -0.3650  0.0839
  525MOL0     O70798   3.967   5.820   1.133 -0.7105 -0.2044 -0.7094
  525MOL0     C70799   4.088   5.770   1.191  0.3502  0.2546  0.2021
  525MOL0     C70800   4.153   5.865   1.288  0.1203 -0.4018 -0.1286
  525MOL0     C70801   4.047   5.917   1.389 -0.2329  0.6301  0.0580
  525MOL0     C70802   4.124   6.013   1.480 -0.4122 -0.0329 -0.5744
  525MOL0     C70803   4.026   6.077   1.564  0.1928  0.8305 -0.2475
  525MOL0     C70804   3.939   6.154   1.596  0.9773  0.4599  1.4918
  525MOL0     C70805   3.833   5.992   1.054  0.4943  0.1533  0.0962
  525MOL0     C70806   3.803   6.109   0.981 -0.2668 -0.1311 -0.6538
  525MOL0     C70807   3.662   6.170   1.005 -0.2449  0.5163 -0.3381
  525MOL0     H70808   3.868   6.431   0.581 -0.6671 -0.6449  2.9657
  525MOL0     H70809   3.902   6.605   0.437  2.1656 -3.1256  0.0535
  525MOL0     H70810   4.113   6.712   0.331 -0.7735 -0.6464  1.7881
  525MOL0     H70811   3.964   6.790   0.308  0.0386 -1.0237  1.6728
  525MOL0     H70812   4.064   7.012   0.300 -1.9349 -1.6412 -1.1329
  525MOL0     H70813   4.126   6.908   0.165 -1.5928 -2.0291 -0.2874
  525MOL0     H70814   4.312   6.839   0.299 -1.0478 -0.9309 -1.3472
  525MOL0     H70815   4.261   6.961   0.426  0.0011  4.7044 -2.3048
  525MOL0     H70816   4.331   7.042   0.156 -0.1523 -0.3905  0.2535
  525MOL0     H70817   4.313   7.155   0.292 -1.6673 -0.0426 -1.2650
  525MOL0     H70818   4.515   6.922   0.296 -0.8068 -0.2288 -0.0502
  525MOL0     H70819   4.558   7.089   0.250  2.0616  0.0399  1.6131
  525MOL0     H70820   4.450   7.133   0.500 -0.4338 -0.6994 -0.2132
  525MOL0     H70821   4.487   6.962   0.511  3.0052 -1.7840 -1.0553
  525MOL0     H70822   4.665   7.115   0.610  1.0167  1.5474 -1.7959
  525MOL0     H70823   4.680   7.190   0.443  2.6095 -0.8506 -1.1818
  525MOL0     H70824   4.741   6.920   0.549 -0.9964  1.8236  0.8014
  525MOL0     H70825   4.755   6.962   0.370  0.1085 -2.3568  0.3460
  525MOL0     H70826   4.932   7.057   0.707  0.4519  3.3462  0.8313
  525MOL0     H70827   5.304   7.123   0.593  0.1698 -1.7587  1.1864
  525MOL0     H70828   5.200   7.213   0.709 -0.4602 -0.6254  1.4739
  525MOL0     H70829   5.131   6.974   0.798 -0.1867  0.3505 -1.2762
  525MOL0     H70830   5.258   6.909   0.699  1.0749 -0.5582  0.2609
  525MOL0     H70831   5.314   6.960   0.941 -1.8825  0.7172  0.4574
  525MOL0     H70832   5.300   7.126   0.907  0.6091 -0.9882  1.6973
  525MOL0     H70833   5.466   6.961   0.729 -1.1625 -0.1116  0.1916
  525MOL0     H70834   5.523   6.996   0.888 -1.4175 -3.6592 -0.5199
  525MOL0     H70835   5.622   7.391   0.747 -2.1558 -1.9964 -0.9532
  525MOL0     H70836   5.848   7.445   0.710  3.1713 -0.7312 -0.4169
  525MOL0     H70837   6.289   7.447   0.620 -0.3405 -0.9076 -0.9466
  525MOL0     H70838   6.471   7.533   0.483  0.0549 -0.0304 -1.5361
  525MOL0     H70839   6.518   7.383   0.139  0.3583 -1.4501 -1.5374
  525MOL0     H70840   6.415   7.477   0.043 -0.9345  1.5698  1.9722
  525MOL0     H70841   6.615   7.645   0.009 -2.2125  0.1491 -0.0261
  525MOL0     H70842   6.706   7.513   0.099 -0.2625  2.8809  1.6117
  525MOL0     H70843   6.640   7.359  -0.068  0.8762  0.5848  1.9751
  525MOL0     H70844   6.543   7.462  -0.161 -0.6417 -2.8896  0.3380
  525MOL0     H70845   6.847   7.533  -0.115  0.0140 -0.6241  0.3908
  525MOL0     H70846   6.728   7.622  -0.215 -0.2102  0.3587 -0.2236
  525MOL0     H70847   6.819   7.326  -0.255 -2.0849 -0.9078  0.8562
  525MOL0     H70848   6.858   7.477  -0.356 -1.9796  4.6225  2.5407
  525MOL0     H70849   6.618   7.300  -0.320 -0.3251 -1.4704 -1.8764
  525MOL0     H70850   6.594   7.458  -0.389 -2.6537 -1.9331  2.8541
  525MOL0     H70851   6.817   7.353  -0.539 -0.1944 -0.6133 -0.0021
  525MOL0     H70852   6.659   7.394  -0.591 -0.6399 -1.4055 -1.8076
  525MOL0     H70853   6.726   7.121  -0.458  1.7403  1.5308  0.6046
  525MOL0     H70854   6.568   7.175  -0.516 -0.3447 -1.3335 -0.5431
  525MOL0     H70855   6.197   7.498   0.136 -2.3417  3.1318  0.8130
  525MOL0     H70856   6.027   7.431   0.291 -0.0015 -3.2704  1.4309
  525MOL0     H70857   5.960   7.045   0.690  1.2212  0.9922 -2.0618
  525MOL0     H70858   5.704   6.974   0.736 -1.1248 -0.2772 -0.6695
  525MOL0     H70859   4.150   6.803   0.731 -0.7082 -0.2693  2.1541
  525MOL0     H70860   4.130   6.614   0.871  0.7719  1.6809 -0.7616
  525MOL0     H70861   4.107   6.184   0.889  0.0556 -1.1656 -1.4813
  525MOL0     H70862   4.167   5.985   0.999  0.3701  2.4244  1.6785
  525MOL0     H70863   4.151   5.759   1.103 -1.9727  1.1007 -1.6826
  525MOL0     H70864   4.076   5.669   1.230  0.7086  0.0456 -0.2217
  525MOL0     H70865   4.190   5.944   1.222 -1.6533  1.9746  1.5233
  525MOL0     H70866   4.227   5.809   1.345 -3.2011 -0.1128  5.1811
  525MOL0     H70867   4.016   5.831   1.448 -0.5188  0.3613 -0.4725
  525MOL0     H70868   3.962   5.967   1.341  0.3721  2.5443  0.8856
  525MOL0     H70869   4.199   5.947   1.525 -0.1363 -0.3607 -1.4869
  525MOL0     H70870   4.177   6.096   1.432 -2.3642  2.3267  1.0943
  525MOL0     H70871   3.858   6.221   1.612  0.9339  0.7773  0.1273
  525MOL0     H70872   3.749   5.947   1.106  0.4066  0.4579  0.2181
  525MOL0     H70873   3.675   6.262   1.062  0.4987  0.6582 -0.7299
  525MOL0     H70874   3.614   6.190   0.908  0.3225  0.2303 -0.6789
  525MOL0     H70875   3.608   6.097   1.066  0.9523  0.1197  0.2585
  526MOL0     O70876   9.274   8.358   9.620  0.4790  0.1554  0.0472
  526MOL0     C70877   9.190   8.271   9.601 -0.7875 -0.6040  0.0918
  526MOL0     O70878   9.214   8.138   9.579 -0.4130 -0.2711  0.1581
  526MOL0     C70879   9.341   8.108   9.569 -0.6996  0.0427  0.3920
  526MOL0     C70880   9.430   8.114   9.671 -0.0614  0.3199  0.2842
  526MOL0     C70881   9.565   8.083   9.658 -0.2371 -0.0432 -0.3495
  526MOL0     C70882   9.615   8.053   9.536  0.0029  0.5058  0.1088
  526MOL0     O70883   9.750   8.028   9.501  0.3121  0.3101 -0.0849
  526MOL0     C70884   9.816   7.943   9.597  0.5665 -0.3800 -0.3894
  526MOL0     C70885   9.950   7.907   9.534 -0.0863 -0.4186 -0.6456
  526MOL0     C70886  10.034   7.819   9.624  0.6590  0.4200 -0.5685
  526MOL0     C70887  10.185   7.802   9.587  0.2080  0.4297  0.3530
  526MOL0     C70888  10.258   7.722   9.690  0.8109  0.1541 -0.5521
  526MOL0     C70889  10.400   7.694   9.642 -0.1398 -0.0470 -0.2087
  526MOL0     C70890  10.484   7.629   9.755 -0.1507 -0.9197 -0.1110
  526MOL0     C70891  10.635   7.636   9.713 -0.6519  0.2146  0.5128
  526MOL0     N70892  10.721   7.581   9.807  0.4982  0.2257  0.3368
  526MOL0     C70893  10.725   7.622   9.939  0.4718  0.1030  0.5077
  526MOL0     C70894  10.790   7.526   9.994 -0.6635 -0.5243 -0.2814
  526MOL0     C70895  10.806   7.518  10.148 -0.0456  0.8434  0.8521
  526MOL0     C70896  10.946   7.546  10.197 -0.0249 -0.6996 -0.6645
  526MOL0     C70897  10.961   7.552  10.353 -0.6618  0.1878 -0.1654
  526MOL0     C70898  11.100   7.587  10.399 -0.0784 -0.2153  0.0585
  526MOL0     O70899  11.190   7.486  10.366  0.3689  0.2860  0.0775
  526MOL0     C70900  11.316   7.478  10.412  0.4110 -0.4875 -0.8154
  526MOL0     C70901  11.390   7.592  10.451  0.0237 -0.3059  0.4427
  526MOL0     C70902  11.529   7.584  10.470 -0.2466  0.1572  0.2875
  526MOL0     C70903  11.594   7.466  10.461  0.6065  0.0872 -0.5091
  526MOL0     C70904  11.737   7.468  10.484 -0.1691  0.4874 -0.7588
  526MOL0     O70905  11.793   7.347  10.524  0.9683 -0.0859 -0.0632
  526MOL0     C70906  11.927   7.345  10.541 -0.6674 -0.7139 -0.2681
  526MOL0     C70907  11.977   7.301  10.661 -0.2347  0.2769 -0.1790
  526MOL0     C70908  12.112   7.271  10.678  0.1061 -0.4935 -0.2025
  526MOL0     C70909  12.200   7.296  10.563 -1.1629 -0.9196  0.1800
  526MOL0     O70910  12.338   7.294  10.578 -0.0965  0.3311 -0.3918
  526MOL0     C70911  12.402   7.321  10.708 -0.6966 -0.2208 -0.4746
  526MOL0     C70912  12.395   7.466  10.743  0.5524  0.0008 -0.5116
  526MOL0     C70913  12.427   7.549  10.623  0.1016  0.1091  0.4800
  526MOL0     C70914  12.425   7.689  10.671 -0.0646 -0.2103 -0.0105
  526MOL0     C70915  12.399   7.795  10.561  0.5685  0.6227  0.4665
  526MOL0     C70916  12.442   7.939  10.600 -0.6095  0.2832  0.8518
  526MOL0     C70917  12.331   8.003  10.678 -0.4696 -0.1173 -0.2279
  526MOL0     C70918  12.385   8.127  10.754 -0.7917 -0.2089  0.3944
  526MOL0    Cl70919  12.243   8.179  10.845 -0.1417  0.3116  0.1479
  526MOL0     C70920  12.153   7.345  10.442  0.3648 -0.2711  0.9126
  526MOL0     C70921  12.013   7.359  10.425 -0.6291 -0.4277  0.1060
  526MOL0     O70922  11.804   7.575  10.464  0.1541  0.3476 -0.1713
  526MOL0     C70923  11.515   7.352  10.437  0.1756  0.9989 -0.7516
  526MOL0     C70924  11.382   7.355  10.418  0.4462  1.1885 -0.2441
  526MOL0     N70925  10.828   7.434   9.894 -0.7663  0.5236  0.4492
  526MOL0     N70926  10.797   7.472   9.777 -0.0718 -0.3548 -0.3542
  526MOL0     C70927   9.523   8.045   9.427 -0.8750 -0.0078  0.5319
  526MOL0     C70928   9.389   8.066   9.444 -0.2807  0.0520 -0.2560
  526MOL0     C70929   9.053   8.304   9.586  0.0187 -0.5512  0.6365
  526MOL0     C70930   8.980   8.253   9.474 -0.8180  0.3745 -0.0491
  526MOL0     C70931   8.847   8.276   9.447  0.2943 -0.0657 -0.3413
  526MOL0     C70932   8.785   8.348   9.539 -0.0318 -0.0650  0.1751
  526MOL0     O70933   8.649   8.388   9.504  0.6691  0.4146 -0.3532
  526MOL0     C70934   8.550   8.398   9.611 -0.3624 -0.4498 -1.0337
  526MOL0     C70935   8.519   8.276   9.695 -0.4873 -0.3214  0.6037
  526MOL0     C70936   8.453   8.176   9.595  0.1472 -0.0452 -0.2629
  526MOL0     C70937   8.398   8.045   9.647 -0.8085  0.6672 -0.2228
  526MOL0     C70938   8.504   7.956   9.688  1.5433  0.4369 -0.0373
  526MOL0     C70939   8.590   7.881   9.722  0.4179  0.1287 -0.5042
  526MOL0     C70940   8.845   8.393   9.663  0.5857 -0.2405 -0.0006
  526MOL0     C70941   8.979   8.378   9.684  0.1858 -0.0388 -0.7495
  526MOL0     C70942   9.040   8.411   9.815  0.0527  0.4211  0.1309
  526MOL0     H70943   9.390   8.139   9.769 -1.7481  0.1194 -0.3368
  526MOL0     H70944   9.622   8.081   9.750 -2.9390 -0.8738  1.4320
  526MOL0     H70945   9.832   7.991   9.694 -3.8995  3.6167 -1.2576
  526MOL0     H70946   9.757   7.853   9.616  1.2838 -0.4686  1.7236
  526MOL0     H70947  10.006   7.992   9.495 -0.6098  0.3025  0.1447
  526MOL0     H70948   9.930   7.841   9.449 -2.1271 -0.3578 -0.2597
  526MOL0     H70949   9.988   7.720   9.618 -0.8197  1.0855 -0.6141
  526MOL0     H70950  10.036   7.853   9.728  0.5042 -1.1304 -0.0409
  526MOL0     H70951  10.190   7.759   9.486 -1.2745  0.8685  0.0656
  526MOL0     H70952  10.239   7.896   9.572  2.5881 -1.3227 -3.7515
  526MOL0     H70953  10.268   7.774   9.785  1.3781 -3.2515  1.4133
  526MOL0     H70954  10.203   7.631   9.710 -1.9543  1.2770 -2.4317
  526MOL0     H70955  10.389   7.620   9.562  3.0426  0.2931 -1.0806
  526MOL0     H70956  10.449   7.783   9.600 -2.5746  1.0060 -1.0011
  526MOL0     H70957  10.448   7.530   9.784  1.0963 -1.1881  0.5958
  526MOL0     H70958  10.474   7.688   9.846  1.9941  0.5157 -0.7215
  526MOL0     H70959  10.646   7.592   9.613 -3.5936 -1.5699  0.8404
  526MOL0     H70960  10.661   7.742   9.710  1.7181 -0.3245 -0.7454
  526MOL0     H70961  10.667   7.695   9.994 -1.1118 -1.4657  1.0106
  526MOL0     H70962  10.719   7.558  10.201  0.7359  1.5367  1.6286
  526MOL0     H70963  10.798   7.410  10.165 -0.2597  0.9808  1.6235
  526MOL0     H70964  11.019   7.474  10.159  1.1340  1.2107 -2.2540
  526MOL0     H70965  10.971   7.643  10.153  2.3934  0.2082  2.3943
  526MOL0     H70966  10.941   7.451  10.388 -1.8771  0.5795  0.3294
  526MOL0     H70967  10.893   7.618  10.408  0.0219  0.0174  0.9174
  526MOL0     H70968  11.087   7.604  10.506 -2.1536 -0.3188 -0.1283
  526MOL0     H70969  11.140   7.680  10.359  4.2910 -2.8978 -2.6807
  526MOL0     H70970  11.348   7.692  10.447  0.3026 -0.1760  0.6762
  526MOL0     H70971  11.591   7.672  10.485 -0.6166  0.3410  0.7702
  526MOL0     H70972  11.920   7.277  10.750 -2.1847 -1.7483 -1.8561
  526MOL0     H70973  12.142   7.231  10.774 -1.2999  1.0158  0.9377
  526MOL0     H70974  12.360   7.259  10.789 -2.0721  0.0257 -0.9722
  526MOL0     H70975  12.504   7.292  10.682 -0.4194  0.5214 -0.2369
  526MOL0     H70976  12.303   7.490  10.797 -0.0650  0.1978 -1.6126
  526MOL0     H70977  12.471   7.490  10.818  0.1223 -0.1252 -0.0363
  526MOL0     H70978  12.524   7.529  10.578 -0.0986  2.1994 -1.0195
  526MOL0     H70979  12.345   7.545  10.550  1.2150 -1.8810 -0.7377
  526MOL0     H70980  12.517   7.708  10.727  0.9009 -0.8204 -1.3224
  526MOL0     H70981  12.337   7.705  10.733  1.5876  2.6699  1.7938
  526MOL0     H70982  12.294   7.796  10.531  1.1761  1.5828 -1.9235
  526MOL0     H70983  12.447   7.768  10.466  1.0296  3.2284 -0.1178
  526MOL0     H70984  12.528   7.918  10.665  0.2531  0.1432 -0.3044
  526MOL0     H70985  12.473   7.994  10.511 -2.1177  0.4115  0.3965
  526MOL0     H70986  12.283   7.930  10.744 -2.1511  0.8779 -0.3019
  526MOL0     H70987  12.252   8.047  10.618  1.5428  2.9783 -0.8503
  526MOL0     H70988  12.463   8.097  10.825 -2.3772  1.3036  2.9698
  526MOL0     H70989  12.430   8.199  10.686 -0.1102  0.1498  1.2082
  526MOL0     H70990  12.215   7.344  10.353  0.6205 -0.5241  1.0896
  526MOL0     H70991  11.977   7.374  10.324  0.1964 -0.0333 -0.1317
  526MOL0     H70992  11.574   7.261  10.432  1.2199  1.7256 -3.1170
  526MOL0     H70993  11.313   7.272  10.408 -2.9036  3.7284 -0.0185
  526MOL0     H70994   9.569   8.015   9.334 -1.9520 -1.3571  0.3987
  526MOL0     H70995   9.327   8.070   9.355 -1.1812  2.1390  0.3906
  526MOL0     H70996   9.031   8.187   9.405 -2.8441 -2.8455  1.2921
  526MOL0     H70997   8.790   8.237   9.363  1.4295 -1.4418 -0.5117
  526MOL0     H70998   8.456   8.441   9.574 -2.0217 -2.0133  1.1104
  526MOL0     H70999   8.582   8.476   9.681 -0.3826 -0.9079 -0.5102
  526MOL0     H71000   8.460   8.292   9.786 -1.3324  0.0617  0.0032
  526MOL0     H71001   8.614   8.231   9.726  0.1936  0.1769 -0.7031
  526MOL0     H71002   8.515   8.152   9.508  1.7025 -1.3462  1.1511
  526MOL0     H71003   8.363   8.219   9.549  0.3364 -1.4480 -2.0653
  526MOL0     H71004   8.327   8.056   9.729 -0.4844  0.5151  0.0747
  526MOL0     H71005   8.350   7.983   9.570  2.3746 -1.2497 -0.8474
  526MOL0     H71006   8.652   7.802   9.759  0.3742  2.3432  5.3243
  526MOL0     H71007   8.793   8.462   9.729 -0.0274 -0.3420 -0.3669
  526MOL0     H71008   8.958   8.422   9.886  0.9822  1.0450  1.1340
  526MOL0     H71009   9.102   8.326   9.845 -1.6728 -0.4112  1.5668
  526MOL0     H71010   9.096   8.505   9.807  1.2952 -0.3313 -0.3152
  527MOL0     O71011   5.712  11.115   4.660  0.3897  0.7790  0.8132
  527MOL0     C71012   5.703  11.109   4.778  0.0687 -0.0183 -0.3649
  527MOL0     O71013   5.800  11.079   4.869  0.0550 -0.9450 -0.0443
  527MOL0     C71014   5.935  11.085   4.835 -0.8544 -0.9738 -0.4637
  527MOL0     C71015   6.010  11.017   4.935 -0.1495 -0.2308  0.5810
  527MOL0     C71016   6.149  11.016   4.931 -0.3428  0.5880 -0.3155
  527MOL0     C71017   6.212  11.079   4.817 -0.4363  0.0015  1.0297
  527MOL0     O71018   6.350  11.091   4.789 -0.0765  0.3131 -0.3167
  527MOL0     C71019   6.423  10.991   4.860 -0.4901  0.4002 -0.4894
  527MOL0     C71020   6.571  10.974   4.807 -0.2529  0.0868  0.1499
  527MOL0     C71021   6.641  10.862   4.889  0.0910  0.6297  0.0586
  527MOL0     C71022   6.793  10.874   4.897 -0.3143  0.0828 -0.1236
  527MOL0     C71023   6.890  10.754   4.921  1.3795 -0.0918 -0.6872
  527MOL0     C71024   7.032  10.796   4.891 -0.7992  0.1001 -0.3799
  527MOL0     C71025   7.132  10.670   4.885 -0.1788 -1.2528  0.0693
  527MOL0     C71026   7.136  10.622   4.747  0.6389  0.8595 -0.1153
  527MOL0     N71027   7.208  10.487   4.753 -0.1167  0.5839 -0.3843
  527MOL0     C71028   7.344  10.479   4.737 -0.4761  0.4318 -0.6374
  527MOL0     C71029   7.364  10.347   4.764 -0.0265  0.3897 -0.4365
  527MOL0     C71030   7.494  10.278   4.764 -0.1189  0.3922  0.1495
  527MOL0     C71031   7.543  10.273   4.623  0.3869  0.4745 -0.1332
  527MOL0     C71032   7.664  10.173   4.598 -0.9490 -0.5651  0.7430
  527MOL0     C71033   7.775  10.200   4.695 -0.1850 -0.5022  0.4249
  527MOL0     O71034   7.900  10.192   4.618 -0.0762  0.0912 -0.1891
  527MOL0     C71035   7.948  10.061   4.593  0.9046  1.1298  0.9005
  527MOL0     C71036   7.896   9.944   4.641  0.0823  0.8523  0.1986
  527MOL0     C71037   7.960   9.821   4.606  0.9105 -0.0034 -0.3198
  527MOL0     C71038   8.077   9.814   4.533  1.1706  0.3649  0.2404
  527MOL0     C71039   8.142   9.677   4.500  0.4396 -0.4834 -1.1091
  527MOL0     O71040   8.259   9.677   4.441 -0.5054  0.4189  0.3794
  527MOL0     C71041   8.296   9.562   4.374  0.4571  0.1248 -0.1379
  527MOL0     C71042   8.425   9.512   4.373 -0.8906  1.5302  0.2159
  527MOL0     C71043   8.457   9.392   4.306 -0.1612  0.0045  0.6539
  527MOL0     C71044   8.360   9.317   4.245  0.1520 -0.1995  0.2898
  527MOL0     O71045   8.395   9.199   4.183 -0.2207 -0.3728  0.1982
  527MOL0     C71046   8.280   9.123   4.136  0.5995  0.9042 -0.3980
  527MOL0     C71047   8.338   9.021   4.040 -0.2145  0.1282  0.4099
  527MOL0     C71048   8.238   8.935   3.956 -0.5174  0.5113 -0.3833
  527MOL0     C71049   8.285   8.797   3.919  0.2066  0.3659 -0.4616
  527MOL0     C71050   8.207   8.717   3.804  0.4675  0.7027  0.3793
  527MOL0     C71051   8.061   8.670   3.830 -0.0903  0.5466 -0.9594
  527MOL0     C71052   7.961   8.763   3.763  0.1059 -0.3203  0.1337
  527MOL0     C71053   7.817   8.743   3.797  0.6271 -0.0855  0.6734
  527MOL0    Cl71054   7.759   8.574   3.756  0.1181 -0.3121 -0.1732
  527MOL0     C71055   8.229   9.374   4.230 -0.8940  0.7812  0.0402
  527MOL0     C71056   8.195   9.485   4.295  0.4052 -0.4855 -0.3719
  527MOL0     O71057   8.088   9.583   4.565  0.2561 -0.2105 -0.1534
  527MOL0     C71058   8.126   9.933   4.474  0.7763  0.2225 -0.3438
  527MOL0     C71059   8.065  10.058   4.507 -0.2122  0.1445 -0.2700
  527MOL0     N71060   7.242  10.279   4.803  1.0661 -0.3474  0.5391
  527MOL0     N71061   7.157  10.365   4.793 -0.6919 -0.5627 -0.9843
  527MOL0     C71062   6.136  11.143   4.721  0.2194  0.1770 -1.0258
  527MOL0     C71063   5.998  11.149   4.727  0.3197  0.7207 -0.8882
  527MOL0     C71064   5.554  11.130   4.827 -0.3024  0.2831  0.3810
  527MOL0     C71065   5.475  11.202   4.735  0.0265  1.0616 -0.4886
  527MOL0     C71066   5.338  11.216   4.744  0.2783 -0.6321 -1.1926
  527MOL0     C71067   5.280  11.180   4.865  0.3101  1.1790 -0.7826
  527MOL0     O71068   5.148  11.201   4.907  0.8683  0.6165  0.1534
  527MOL0     C71069   5.042  11.256   4.823 -0.2410 -0.2688  0.8703
  527MOL0     C71070   4.981  11.398   4.876  0.3495  0.2658  0.0474
  527MOL0     C71071   4.878  11.455   4.778  0.7421  0.4344  0.8563
  527MOL0     C71072   4.853  11.599   4.799  0.1565  0.3605  0.0259
  527MOL0     C71073   4.748  11.654   4.715  0.3320  0.0468  0.2431
  527MOL0     C71074   4.661  11.703   4.642  0.1356  0.2371  0.0701
  527MOL0     C71075   5.361  11.122   4.963  0.5123  0.2553  0.0535
  527MOL0     C71076   5.494  11.098   4.946 -0.4093 -0.1908  0.0739
  527MOL0     C71077   5.568  11.032   5.054  0.3589  0.1616 -0.6555
  527MOL0     H71078   5.955  10.976   5.019  1.4597 -1.3173  1.1504
  527MOL0     H71079   6.207  10.975   5.013  1.8246  4.2295  0.1905
  527MOL0     H71080   6.433  11.015   4.967  1.5762  2.4930 -1.0678
  527MOL0     H71081   6.368  10.897   4.851  0.0600 -0.3092  2.3818
  527MOL0     H71082   6.630  11.066   4.813  0.3529 -0.3502  1.2165
  527MOL0     H71083   6.567  10.947   4.701 -2.4655  0.9153 -0.0351
  527MOL0     H71084   6.618  10.771   4.832 -0.3564  1.4592 -1.1295
  527MOL0     H71085   6.602  10.848   4.991  2.6045 -2.6146  0.7432
  527MOL0     H71086   6.818  10.902   4.794  2.2822  1.5718  0.8052
  527MOL0     H71087   6.817  10.954   4.968 -1.1554 -0.9956  1.4558
  527MOL0     H71088   6.870  10.719   5.023 -0.6028  0.2125 -0.9325
  527MOL0     H71089   6.865  10.670   4.856  0.0840 -0.6796  0.5056
  527MOL0     H71090   7.040  10.870   4.811  0.3778  2.2085  1.5851
  527MOL0     H71091   7.065  10.850   4.980 -0.2982 -2.1851  0.9000
  527MOL0     H71092   7.101  10.604   4.967  1.2014  1.1413  2.6964
  527MOL0     H71093   7.234  10.696   4.913 -0.1989 -1.1583  0.0548
  527MOL0     H71094   7.035  10.614   4.705  0.4856  2.7335 -0.1874
  527MOL0     H71095   7.185  10.692   4.679 -1.1385 -0.5064 -2.9967
  527MOL0     H71096   7.414  10.553   4.699  0.4561 -0.0563  0.1026
  527MOL0     H71097   7.567  10.319   4.834  0.7471  0.0791 -0.5410
  527MOL0     H71098   7.468  10.175   4.790  0.5170 -0.6285 -2.8085
  527MOL0     H71099   7.459  10.248   4.558 -2.3490  1.6399  2.7187
  527MOL0     H71100   7.574  10.371   4.587  1.9673 -0.7659 -2.3718
  527MOL0     H71101   7.699  10.190   4.496 -0.4626  0.5431  1.0864
  527MOL0     H71102   7.637  10.067   4.605 -2.0450 -0.6822 -3.1421
  527MOL0     H71103   7.786  10.128   4.776  1.5158 -0.6962  0.0725
  527MOL0     H71104   7.761  10.293   4.750  0.8882 -1.7754  2.9910
  527MOL0     H71105   7.810   9.937   4.707  0.1118  1.4378  0.3034
  527MOL0     H71106   7.907   9.730   4.634  1.0328  0.4403  1.5190
  527MOL0     H71107   8.510   9.542   4.434  0.9909  0.8416 -1.8869
  527MOL0     H71108   8.557   9.352   4.317 -0.3406 -0.6853 -0.1459
  527MOL0     H71109   8.223   9.071   4.214  2.8420 -1.7825 -0.4229
  527MOL0     H71110   8.203   9.177   4.080  0.2551  1.1037  0.2534
  527MOL0     H71111   8.405   9.079   3.976  0.3908  0.0671  0.9771
  527MOL0     H71112   8.399   8.959   4.107 -1.2752 -0.9954  0.3831
  527MOL0     H71113   8.142   8.931   4.007 -0.9130 -0.4594 -1.1622
  527MOL0     H71114   8.222   8.987   3.860  0.6956 -0.8984 -1.3967
  527MOL0     H71115   8.265   8.732   4.005 -3.4084 -0.1710 -1.5595
  527MOL0     H71116   8.394   8.796   3.904  0.5871  2.2645  1.7080
  527MOL0     H71117   8.261   8.626   3.775  2.2883  1.3895  1.4049
  527MOL0     H71118   8.202   8.777   3.712  2.7251  1.2230  0.5224
  527MOL0     H71119   8.052   8.573   3.780 -0.2067 -0.0470  0.1718
  527MOL0     H71120   8.057   8.645   3.936  3.3160 -1.0112 -1.0499
  527MOL0     H71121   7.978   8.763   3.655 -2.4936 -0.1658 -0.3363
  527MOL0     H71122   7.984   8.865   3.797 -0.7254  0.7894 -2.4119
  527MOL0     H71123   7.810   8.761   3.905  0.6952  1.8976  0.3816
  527MOL0     H71124   7.746   8.810   3.748  3.0424  1.2813 -1.1483
  527MOL0     H71125   8.146   9.308   4.208 -1.4572  0.7448  2.0853
  527MOL0     H71126   8.090   9.511   4.304  0.7189  1.0008 -0.6321
  527MOL0     H71127   8.202   9.923   4.397  0.1777 -1.1383 -0.7931
  527MOL0     H71128   8.096  10.154   4.467 -1.8445  0.0847 -1.8545
  527MOL0     H71129   6.179  11.212   4.650  2.3058 -0.5441 -0.5308
  527MOL0     H71130   5.948  11.212   4.653 -2.5581 -0.8241 -0.3925
  527MOL0     H71131   5.521  11.235   4.642 -0.9267 -1.8479 -2.1439
  527MOL0     H71132   5.279  11.258   4.664 -0.6493 -0.6798 -0.5511
  527MOL0     H71133   4.960  11.183   4.825 -0.3605 -0.2010 -0.6388
  527MOL0     H71134   5.081  11.268   4.722 -2.0801  0.1932  0.1685
  527MOL0     H71135   5.065  11.468   4.886 -1.8502  3.1677 -0.6249
  527MOL0     H71136   4.943  11.377   4.976 -2.3230  0.3266 -0.8840
  527MOL0     H71137   4.781  11.410   4.796  0.5417  0.2529 -0.5210
  527MOL0     H71138   4.906  11.444   4.672  0.9232 -0.1904  0.9660
  527MOL0     H71139   4.827  11.610   4.905 -0.3912  2.1874 -0.2732
  527MOL0     H71140   4.937  11.667   4.782  0.2697  0.7540  1.9413
  527MOL0     H71141   4.591  11.734   4.567 -2.3126 -2.6584  0.9455
  527MOL0     H71142   5.313  11.100   5.058 -0.0115  3.7664  0.7254
  527MOL0     H71143   5.506  11.054   5.141  0.5780 -0.4242 -0.3487
  527MOL0     H71144   5.565  10.925   5.033 -1.5054 -0.3564  1.7932
  527MOL0     H71145   5.670  11.069   5.070 -0.7538  3.2704 -0.0287
  528MOL0     O71146   8.792   4.525   0.767 -0.8436  0.2237  0.3041
  528MOL0     C71147   8.747   4.469   0.867 -0.0454  1.3436 -0.3439
  528MOL0     O71148   8.824   4.389   0.955  0.0226 -0.1397 -0.1374
  528MOL0     C71149   8.958   4.391   0.935  0.2053 -0.5860 -0.3295
  528MOL0     C71150   9.043   4.514   0.929 -0.8346  0.3805 -0.8306
  528MOL0     C71151   9.177   4.510   0.938  0.1226 -0.3581  0.5288
  528MOL0     C71152   9.239   4.385   0.949  0.4730 -0.1555 -0.8455
  528MOL0     O71153   9.375   4.393   0.974 -0.3204 -0.1161  0.2938
  528MOL0     C71154   9.461   4.281   0.985  0.3530  0.3446 -0.4541
  528MOL0     C71155   9.601   4.324   0.977 -1.2723 -0.1113  0.1205
  528MOL0     C71156   9.702   4.204   1.002 -0.6322  0.7204  0.4433
  528MOL0     C71157   9.799   4.194   0.880  0.3251 -0.0714 -0.3343
  528MOL0     C71158   9.883   4.063   0.902  0.1422 -0.7124  0.7569
  528MOL0     C71159   9.997   4.055   0.797 -0.4992  0.2137  0.7756
  528MOL0     C71160  10.117   4.148   0.844  1.6245 -0.7427  0.5740
  528MOL0     C71161  10.238   4.135   0.747 -0.3973 -0.1573 -0.6757
  528MOL0     N71162  10.331   4.025   0.792 -0.3952 -0.0680  0.0417
  528MOL0     C71163  10.431   4.048   0.885 -0.7175  0.3749 -0.1051
  528MOL0     C71164  10.491   3.933   0.898 -0.6018 -0.6306 -0.1129
  528MOL0     C71165  10.612   3.909   0.988 -0.6687  0.3616  0.0112
  528MOL0     C71166  10.748   3.905   0.910  0.3292  0.0104 -0.7289
  528MOL0     C71167  10.859   3.883   1.010 -0.0066  0.2957 -0.1621
  528MOL0     C71168  10.989   3.849   0.946 -0.0475  0.5907  1.0254
  528MOL0     O71169  11.083   3.835   1.053 -0.0409 -1.0304 -0.2361
  528MOL0     C71170  11.219   3.836   1.027  0.3061 -0.0220  0.0127
  528MOL0     C71171  11.305   3.823   1.136 -0.0690  0.1251  0.2796
  528MOL0     C71172  11.449   3.817   1.121 -0.6148 -0.5726 -0.1226
  528MOL0     C71173  11.503   3.814   0.991 -0.3145 -0.2974 -0.2868
  528MOL0     C71174  11.651   3.796   0.974  1.0453  0.0031 -0.2160
  528MOL0     O71175  11.712   3.816   0.859 -0.1112  0.2523 -0.2243
  528MOL0     C71176  11.845   3.787   0.838 -0.1073 -0.5912 -1.5895
  528MOL0     C71177  11.894   3.662   0.862  0.0791  0.5089  0.1071
  528MOL0     C71178  12.029   3.634   0.813 -0.1189  0.0480  0.0225
  528MOL0     C71179  12.109   3.735   0.754 -0.3133 -0.1260 -0.9898
  528MOL0     O71180  12.239   3.703   0.716  0.1684 -0.2016 -0.0667
  528MOL0     C71181  12.315   3.800   0.646 -0.4772  0.6770 -0.0386
  528MOL0     C71182  12.459   3.743   0.650  0.6869  0.2346 -0.3703
  528MOL0     C71183  12.564   3.842   0.599  0.0020  0.1622 -0.5510
  528MOL0     C71184  12.571   3.870   0.448 -0.4974  0.1622  0.5923
  528MOL0     C71185  12.701   3.918   0.388  0.0759 -0.1955 -0.0427
  528MOL0     C71186  12.692   3.936   0.235  0.2349 -0.4909  0.0489
  528MOL0     C71187  12.681   4.078   0.182 -0.3559 -0.2963 -0.9196
  528MOL0     C71188  12.628   4.089   0.041 -0.3030 -0.0406  0.3331
  528MOL0    Cl71189  12.689   3.954  -0.060  0.1132 -0.0361  0.1684
  528MOL0     C71190  12.053   3.866   0.749  0.3450  0.2219  0.0870
  528MOL0     C71191  11.920   3.888   0.786  0.2763  0.1264 -0.8107
  528MOL0     O71192  11.709   3.762   1.077 -0.5762 -0.1093  1.0600
  528MOL0     C71193  11.421   3.826   0.877 -0.1348 -0.1264 -0.4711
  528MOL0     C71194  11.280   3.841   0.902 -0.8981 -0.2548 -0.1282
  528MOL0     N71195  10.421   3.843   0.824  0.5102  0.9282  0.3707
  528MOL0     N71196  10.339   3.895   0.752  0.6710 -0.8742 -0.0156
  528MOL0     C71197   9.164   4.265   0.946  0.2672 -0.3719 -0.8912
  528MOL0     C71198   9.023   4.267   0.947  0.8268 -0.4776  0.9165
  528MOL0     C71199   8.603   4.491   0.904  0.2475 -0.7404  0.1922
  528MOL0     C71200   8.551   4.414   1.013 -0.7900 -0.4030  0.9468
  528MOL0     C71201   8.430   4.443   1.067  0.2965 -0.8886 -0.1686
  528MOL0     C71202   8.339   4.535   1.022  0.2666 -0.1203  0.3705
  528MOL0     O71203   8.218   4.565   1.083  0.2471  0.3758  0.1586
  528MOL0     C71204   8.185   4.501   1.205  0.3035  0.4625  0.4830
  528MOL0     C71205   8.134   4.352   1.174 -0.4049 -0.7454  0.1519
  528MOL0     C71206   7.989   4.356   1.125 -0.2534  0.3441 -0.6592
  528MOL0     C71207   7.938   4.218   1.093 -0.3870  0.2250  0.1051
  528MOL0     C71208   7.795   4.239   1.060 -0.5293  0.7139 -0.0177
  528MOL0     C71209   7.682   4.249   1.043 -0.6527 -0.2738  0.1437
  528MOL0     C71210   8.376   4.607   0.908 -0.5069  0.6042 -0.8501
  528MOL0     C71211   8.512   4.586   0.844  0.4246  0.0351 -0.7544
  528MOL0     C71212   8.543   4.682   0.731  0.1851  0.3859  0.7111
  528MOL0     H71213   8.996   4.611   0.937 -0.4386  0.5963 -1.1253
  528MOL0     H71214   9.246   4.591   0.919  2.1240 -2.1550 -0.4368
  528MOL0     H71215   9.431   4.228   1.077  2.8272 -0.8649 -0.2771
  528MOL0     H71216   9.448   4.220   0.895 -0.0092  1.2988 -1.0630
  528MOL0     H71217   9.622   4.405   1.047 -1.3581 -1.4060  1.7035
  528MOL0     H71218   9.635   4.360   0.880  1.3747 -2.5254  0.0380
  528MOL0     H71219   9.649   4.108   1.004 -1.4839  1.1021 -1.7253
  528MOL0     H71220   9.759   4.233   1.091  0.8529  0.1410 -0.2843
  528MOL0     H71221   9.738   4.190   0.789 -1.9284 -1.0974  1.1387
  528MOL0     H71222   9.858   4.286   0.877  1.1122 -0.5323  0.4880
  528MOL0     H71223   9.921   4.064   1.005  3.0939 -3.5889 -0.1167
  528MOL0     H71224   9.823   3.975   0.879  0.2820 -0.2444 -1.5836
  528MOL0     H71225  10.032   3.952   0.804  2.4670  0.9576 -1.1523
  528MOL0     H71226   9.962   4.069   0.694  1.8588 -0.0246 -0.1282
  528MOL0     H71227  10.152   4.122   0.945 -0.3592  2.0013  2.1211
  528MOL0     H71228  10.085   4.251   0.825  1.5450 -0.9765 -0.6172
  528MOL0     H71229  10.205   4.114   0.645 -1.7632  0.4505 -0.3749
  528MOL0     H71230  10.293   4.229   0.752 -3.4369  1.7539 -0.7305
  528MOL0     H71231  10.452   4.141   0.937 -1.8738  0.6105 -0.0235
  528MOL0     H71232  10.614   3.996   1.054 -3.0022  0.3532  0.1520
  528MOL0     H71233  10.607   3.819   1.050  1.8293  2.3963  3.4711
  528MOL0     H71234  10.757   3.831   0.830  0.0398  0.1402 -0.8881
  528MOL0     H71235  10.752   4.006   0.867 -2.7063 -0.2941 -2.0603
  528MOL0     H71236  10.840   3.803   1.082  0.2603  1.8107  1.6996
  528MOL0     H71237  10.869   3.971   1.075  1.2931 -1.7285  2.6207
  528MOL0     H71238  11.025   3.929   0.880 -0.0969  0.4795  0.8643
  528MOL0     H71239  10.979   3.763   0.880  0.7081  1.3350 -0.0804
  528MOL0     H71240  11.261   3.835   1.235 -1.8146  4.1652 -0.7570
  528MOL0     H71241  11.515   3.826   1.207  0.9558  3.4486 -1.4762
  528MOL0     H71242  11.829   3.594   0.917 -0.3520  0.6114 -0.2695
  528MOL0     H71243  12.069   3.534   0.827 -0.2194 -0.0525 -0.4098
  528MOL0     H71244  12.288   3.826   0.543 -1.3538  2.1169  0.5199
  528MOL0     H71245  12.308   3.890   0.708 -2.4367  0.7304 -0.2568
  528MOL0     H71246  12.481   3.709   0.751 -3.2459  1.4756  1.1141
  528MOL0     H71247  12.463   3.652   0.590  2.5839 -0.7639  1.1865
  528MOL0     H71248  12.550   3.935   0.655 -0.9592 -0.2032 -0.1601
  528MOL0     H71249  12.664   3.802   0.619  0.6163  1.3908 -1.0473
  528MOL0     H71250  12.485   3.935   0.429 -0.4458 -0.4186 -2.0197
  528MOL0     H71251  12.554   3.777   0.394  1.0668  0.3514 -0.2849
  528MOL0     H71252  12.780   3.844   0.405 -0.1796 -0.2707  0.8499
  528MOL0     H71253  12.731   4.013   0.432  0.5337 -0.8496  1.1115
  528MOL0     H71254  12.771   3.882   0.182  0.1136 -0.0912 -0.5442
  528MOL0     H71255  12.597   3.894   0.202 -0.5955 -0.0378  1.7324
  528MOL0     H71256  12.779   4.123   0.198  0.2890 -2.7612  3.4837
  528MOL0     H71257  12.620   4.131   0.256  2.9071 -0.5880  2.2157
  528MOL0     H71258  12.520   4.073   0.051 -0.3102  0.2714  0.7492
  528MOL0     H71259  12.653   4.185  -0.006  4.7892 -0.9161  0.7078
  528MOL0     H71260  12.111   3.944   0.700  2.2412 -0.8995  0.4246
  528MOL0     H71261  11.887   3.988   0.760 -1.1493 -0.5119 -1.5643
  528MOL0     H71262  11.460   3.810   0.778  0.8694  2.4843 -0.5783
  528MOL0     H71263  11.219   3.856   0.813  0.5938 -0.1810 -1.1780
  528MOL0     H71264   9.208   4.166   0.945  1.7000  0.2349 -2.6963
  528MOL0     H71265   8.970   4.174   0.964  1.3185 -0.4760  2.7531
  528MOL0     H71266   8.613   4.331   1.043  0.0391 -0.1561 -0.0032
  528MOL0     H71267   8.408   4.373   1.148  1.8339  0.3584  1.4247
  528MOL0     H71268   8.116   4.561   1.265  0.8497 -0.8943  2.6069
  528MOL0     H71269   8.270   4.495   1.274 -2.0883 -1.5046  3.5363
  528MOL0     H71270   8.156   4.304   1.270 -1.0496  1.5169  1.4958
  528MOL0     H71271   8.193   4.290   1.105  1.3368  0.5308  0.4262
  528MOL0     H71272   7.978   4.422   1.039  4.3771 -1.1619 -2.7206
  528MOL0     H71273   7.925   4.399   1.203  2.7035  1.1007  1.5356
  528MOL0     H71274   7.995   4.176   1.010  2.2498 -1.7260  2.6894
  528MOL0     H71275   7.947   4.143   1.172  0.0700  1.4057  1.2085
  528MOL0     H71276   7.582   4.263   1.008 -1.0017 -0.1684  1.1621
  528MOL0     H71277   8.299   4.672   0.868 -2.4147 -0.1686  1.2969
  528MOL0     H71278   8.588   4.626   0.649 -0.9903  3.2963 -2.1385
  528MOL0     H71279   8.450   4.729   0.696  1.6419  2.4113 -0.6683
  528MOL0     H71280   8.600   4.768   0.767 -1.0284  1.0797  1.0542
  529MOL0     O71281   6.297   6.610   2.866 -0.0012 -0.0315  0.3213
  529MOL0     C71282   6.248   6.496   2.831 -0.7580  0.0321 -0.4602
  529MOL0     O71283   6.319   6.405   2.754  0.1691  0.0232 -0.0352
  529MOL0     C71284   6.450   6.437   2.738  0.9003  0.9833  0.2683
  529MOL0     C71285   6.479   6.432   2.603 -0.5487 -0.2652 -0.4324
  529MOL0     C71286   6.611   6.449   2.561  0.1177  0.3131  0.2078
  529MOL0     C71287   6.713   6.472   2.655  0.5010 -0.0732 -1.1814
  529MOL0     O71288   6.841   6.472   2.617 -0.6261 -0.5054 -0.3517
  529MOL0     C71289   6.941   6.543   2.700  0.3696  0.8769  0.2483
  529MOL0     C71290   7.064   6.553   2.622  0.2786 -0.1747 -0.2548
  529MOL0     C71291   7.123   6.418   2.583 -0.0659 -0.1150 -0.6950
  529MOL0     C71292   7.232   6.452   2.484 -0.1616 -0.1280  0.5541
  529MOL0     C71293   7.319   6.348   2.426 -0.2748  0.3151 -0.2102
  529MOL0     C71294   7.433   6.308   2.523  0.3114  0.2146 -0.8843
  529MOL0     C71295   7.506   6.184   2.469  0.6489  0.5150 -0.5378
  529MOL0     C71296   7.630   6.149   2.563  0.0872  0.4269 -0.0223
  529MOL0     N71297   7.736   6.094   2.477 -0.3187 -0.4454  0.4031
  529MOL0     C71298   7.797   6.173   2.385 -0.6553  0.0569 -0.8404
  529MOL0     C71299   7.901   6.100   2.345 -0.2631 -0.2738  0.7024
  529MOL0     C71300   8.006   6.132   2.248 -0.4698 -0.2301 -0.2751
  529MOL0     C71301   8.055   6.283   2.254 -0.0328  0.1620 -0.1734
  529MOL0     C71302   8.101   6.315   2.398  0.8059 -0.1231 -0.3037
  529MOL0     C71303   8.159   6.457   2.409 -0.3373  0.1495  0.3023
  529MOL0     O71304   8.165   6.498   2.544  0.1389 -0.0492 -0.0420
  529MOL0     C71305   8.266   6.454   2.625  0.1829  0.3417 -0.1442
  529MOL0     C71306   8.384   6.379   2.580  0.3788 -0.1201 -0.1248
  529MOL0     C71307   8.480   6.329   2.668  0.6206  0.0248 -0.2044
  529MOL0     C71308   8.467   6.358   2.803 -0.0592  0.2583  0.0246
  529MOL0     C71309   8.564   6.307   2.902  0.4587  0.0136 -0.4296
  529MOL0     O71310   8.535   6.321   3.039  0.5702 -0.0680  0.0276
  529MOL0     C71311   8.606   6.251   3.128  0.8075  0.3530 -0.2768
  529MOL0     C71312   8.635   6.115   3.119  0.0487 -1.1698  0.0998
  529MOL0     C71313   8.718   6.042   3.201 -0.1998  0.6890 -0.5662
  529MOL0     C71314   8.771   6.106   3.320  0.0944  0.1281  0.4452
  529MOL0     O71315   8.837   6.044   3.419 -0.1504  0.4988 -0.7498
  529MOL0     C71316   8.897   5.909   3.397  0.7183 -0.3106  0.3603
  529MOL0     C71317   8.946   5.863   3.533 -0.5395 -0.3038  0.4913
  529MOL0     C71318   9.026   5.738   3.506 -0.5237 -1.1246 -0.7048
  529MOL0     C71319   9.116   5.704   3.634  0.0673  0.2357  0.3947
  529MOL0     C71320   9.198   5.571   3.615 -0.3923  0.0605 -0.1247
  529MOL0     C71321   9.293   5.547   3.728  0.0032  0.5270  0.5297
  529MOL0     C71322   9.392   5.438   3.691  0.1230  0.1340 -0.1662
  529MOL0     C71323   9.344   5.297   3.703 -0.7259 -0.0498  0.6229
  529MOL0    Cl71324   9.468   5.184   3.645  0.5139 -0.1124  0.3120
  529MOL0     C71325   8.735   6.241   3.340 -0.3412 -0.0980 -0.6955
  529MOL0     C71326   8.654   6.313   3.249  0.6351  0.0034  0.0318
  529MOL0     O71327   8.662   6.254   2.860 -0.3945  0.0054  0.1865
  529MOL0     C71328   8.365   6.445   2.847  0.6280  0.3627 -0.2223
  529MOL0     C71329   8.263   6.484   2.759 -0.1888 -0.2860 -0.3835
  529MOL0     N71330   7.907   5.979   2.414  0.8160 -0.5058  0.3782
  529MOL0     N71331   7.802   5.980   2.491 -0.1340 -0.5088 -0.0421
  529MOL0     C71332   6.679   6.485   2.794  0.8262  0.4789  0.7716
  529MOL0     C71333   6.546   6.455   2.834 -0.0700  0.0990  0.2494
  529MOL0     C71334   6.110   6.464   2.877 -0.6209  0.5431  0.2809
  529MOL0     C71335   6.026   6.397   2.776  0.9374 -0.3450 -0.7489
  529MOL0     C71336   5.898   6.359   2.821 -0.1526 -0.0790  0.0332
  529MOL0     C71337   5.853   6.387   2.946  0.0062 -0.1135  0.4516
  529MOL0     O71338   5.729   6.348   2.994  0.1661 -0.4538  0.7321
  529MOL0     C71339   5.621   6.317   2.902 -0.6829 -0.3227 -0.9250
  529MOL0     C71340   5.602   6.166   2.865 -0.2348 -0.2438 -0.1977
  529MOL0     C71341   5.630   6.045   2.962 -0.6246 -0.0431  0.0184
  529MOL0     C71342   5.584   6.066   3.109  0.6206  0.5125 -0.6169
  529MOL0     C71343   5.656   5.977   3.205  0.2754 -0.3625 -1.0746
  529MOL0     C71344   5.719   5.905   3.285 -0.3649 -0.7012  0.8299
  529MOL0     C71345   5.937   6.459   3.035 -0.2792  0.4775  1.0173
  529MOL0     C71346   6.063   6.493   3.006 -0.0397 -0.1298 -0.0215
  529MOL0     C71347   6.150   6.524   3.130 -0.5151  0.1837 -0.4693
  529MOL0     H71348   6.402   6.406   2.530 -1.0568 -4.1532  1.2016
  529MOL0     H71349   6.637   6.439   2.456 -1.4502  1.9496 -0.3984
  529MOL0     H71350   6.907   6.638   2.744 -0.4738  0.3740  0.7019
  529MOL0     H71351   6.945   6.478   2.788 -1.9049 -0.4189 -0.5155
  529MOL0     H71352   7.137   6.607   2.683 -0.9657 -1.6578  2.7981
  529MOL0     H71353   7.050   6.614   2.532  1.6863 -2.7011 -2.3281
  529MOL0     H71354   7.049   6.351   2.539  1.3599  0.4603 -4.3078
  529MOL0     H71355   7.163   6.373   2.675  1.5398  1.6891 -0.4409
  529MOL0     H71356   7.187   6.504   2.398  0.1982  0.9186  0.9864
  529MOL0     H71357   7.300   6.527   2.525 -0.3908  0.1605  0.4055
  529MOL0     H71358   7.253   6.263   2.409  0.6625 -0.8719  1.7727
  529MOL0     H71359   7.366   6.365   2.328 -1.4694  0.2002 -0.8166
  529MOL0     H71360   7.504   6.391   2.531 -0.8933  1.1851  0.2064
  529MOL0     H71361   7.392   6.290   2.623 -0.7756  0.5617 -1.2510
  529MOL0     H71362   7.530   6.200   2.363  0.0391 -3.3976 -1.4588
  529MOL0     H71363   7.435   6.100   2.466  0.1812  0.8867 -3.9487
  529MOL0     H71364   7.666   6.239   2.614 -0.0729  0.1205  0.6471
  529MOL0     H71365   7.595   6.083   2.643 -0.2441 -1.6617 -1.7990
  529MOL0     H71366   7.765   6.272   2.356  2.1376  0.6449 -2.2964
  529MOL0     H71367   8.090   6.063   2.265 -0.6683 -0.6581 -0.9902
  529MOL0     H71368   7.977   6.112   2.145 -1.6122  2.0197 -0.4536
  529MOL0     H71369   8.132   6.287   2.177  0.1573  0.2847  0.0200
  529MOL0     H71370   7.971   6.350   2.233 -1.1919  0.1412  3.5967
  529MOL0     H71371   8.173   6.242   2.434  2.8526  0.6670 -2.5586
  529MOL0     H71372   8.014   6.305   2.464  0.1219 -1.5013 -1.3439
  529MOL0     H71373   8.089   6.532   2.370  1.0835  1.2824 -0.1569
  529MOL0     H71374   8.252   6.473   2.354  0.3130  0.6798  1.5223
  529MOL0     H71375   8.391   6.349   2.476 -0.2231  1.8427 -0.7882
  529MOL0     H71376   8.572   6.276   2.643  0.7136 -0.9964  2.0027
  529MOL0     H71377   8.589   6.051   3.044  1.5288 -0.6045 -1.3429
  529MOL0     H71378   8.725   5.936   3.178  0.0280  0.3849  0.7778
  529MOL0     H71379   8.833   5.833   3.351  1.2409  0.2501 -1.3638
  529MOL0     H71380   8.989   5.921   3.338 -0.1412 -2.3902 -1.5516
  529MOL0     H71381   9.001   5.949   3.573 -1.7152  1.4917 -1.5213
  529MOL0     H71382   8.866   5.837   3.604 -1.5066 -2.5999 -1.3312
  529MOL0     H71383   8.964   5.651   3.485  2.3849 -3.4150 -0.4568
  529MOL0     H71384   9.093   5.756   3.422  0.7329  2.5187  0.8329
  529MOL0     H71385   9.056   5.687   3.724  0.5669  1.0943  0.9031
  529MOL0     H71386   9.181   5.787   3.663 -2.6338  2.3073  0.8694
  529MOL0     H71387   9.256   5.572   3.522 -0.6129  5.3563 -0.5054
  529MOL0     H71388   9.129   5.487   3.616  0.2593 -0.4825  0.1412
  529MOL0     H71389   9.356   5.634   3.751 -0.3064  1.8579 -3.0567
  529MOL0     H71390   9.242   5.515   3.820 -1.1455  0.0002 -0.2765
  529MOL0     H71391   9.478   5.440   3.759  0.7445 -0.9945 -0.8986
  529MOL0     H71392   9.429   5.457   3.590 -0.1297  1.2947 -0.0655
  529MOL0     H71393   9.317   5.273   3.806 -0.4612 -0.3834  0.6174
  529MOL0     H71394   9.253   5.278   3.645  0.3781 -3.1319 -0.3123
  529MOL0     H71395   8.764   6.290   3.432 -2.2599 -0.0731 -0.0434
  529MOL0     H71396   8.632   6.417   3.269  1.8593  0.2575  0.1791
  529MOL0     H71397   8.346   6.490   2.943 -1.6626  1.5743 -1.1708
  529MOL0     H71398   8.172   6.528   2.798  1.1132  1.3334  1.0104
  529MOL0     H71399   6.753   6.517   2.866 -0.5611  2.6196  1.3375
  529MOL0     H71400   6.514   6.449   2.937 -0.4801  2.0965  0.2797
  529MOL0     H71401   6.054   6.379   2.672 -0.4591 -0.2535 -1.1582
  529MOL0     H71402   5.834   6.304   2.752 -0.5665 -2.1654  1.9473
  529MOL0     H71403   5.636   6.373   2.810  0.2328  3.9120  1.5122
  529MOL0     H71404   5.534   6.365   2.948  0.0857 -0.7744  1.1476
  529MOL0     H71405   5.660   6.156   2.773 -1.5033 -0.4079 -1.0112
  529MOL0     H71406   5.495   6.155   2.845 -0.5573 -0.4358  1.4532
  529MOL0     H71407   5.737   6.025   2.959 -0.6961 -0.3857 -0.3758
  529MOL0     H71408   5.569   5.964   2.922 -1.8633  1.1624 -0.6486
  529MOL0     H71409   5.610   6.171   3.129  3.2215  0.5680 -3.4420
  529MOL0     H71410   5.479   6.038   3.118  0.9647 -0.6517 -0.1228
  529MOL0     H71411   5.789   5.852   3.346  0.6786  0.7073  0.8755
  529MOL0     H71412   5.901   6.464   3.137 -1.4992 -2.7021  0.8537
  529MOL0     H71413   6.216   6.440   3.152 -1.4836 -0.0519  1.7363
  529MOL0     H71414   6.216   6.610   3.114 -0.2933  0.0077 -0.4985
  529MOL0     H71415   6.094   6.538   3.223  0.3868 -2.3105  0.5463
  530MOL0     O71416   2.670   8.348   4.027  0.5737 -0.2421  0.0774
  530MOL0     C71417   2.602   8.268   3.957  0.2588 -0.4194  0.1042
  530MOL0     O71418   2.654   8.165   3.890  0.0980  0.1993 -0.7496
  530MOL0     C71419   2.783   8.136   3.871 -0.2043 -0.5483 -0.4054
  530MOL0     C71420   2.871   8.199   3.775 -1.0435  0.0905 -0.2260
  530MOL0     C71421   3.010   8.162   3.770  0.6612 -0.0214 -1.1650
  530MOL0     C71422   3.054   8.050   3.852  0.3493  0.1753  0.2915
  530MOL0     O71423   3.175   7.991   3.837  1.2391 -0.5650 -0.1138
  530MOL0     C71424   3.280   8.064   3.778  0.1232  0.3062 -0.8635
  530MOL0     C71425   3.289   8.018   3.632 -0.4959  0.3274  0.9935
  530MOL0     C71426   3.311   7.874   3.620 -0.5773  0.2004  0.0282
  530MOL0     C71427   3.292   7.824   3.477  0.8014 -0.1820  0.0661
  530MOL0     C71428   3.328   7.680   3.455  0.5963  0.4911  0.2175
  530MOL0     C71429   3.478   7.661   3.430  0.0768  0.6021 -0.0212
  530MOL0     C71430   3.533   7.744   3.310  0.9864  0.9115  0.1489
  530MOL0     C71431   3.672   7.687   3.277  0.0926 -0.7443  0.6989
  530MOL0     N71432   3.717   7.761   3.156  0.3981 -0.2726 -0.0395
  530MOL0     C71433   3.814   7.856   3.162 -0.7619  0.5605 -0.0108
  530MOL0     C71434   3.833   7.886   3.028  0.9590 -0.2715  0.0479
  530MOL0     C71435   3.937   7.986   2.976  1.0133 -0.2059  0.1376
  530MOL0     C71436   4.083   7.950   3.000 -0.5399 -0.3566 -0.9440
  530MOL0     C71437   4.103   7.795   2.985 -0.5059  0.0606  0.3057
  530MOL0     C71438   4.253   7.764   2.987 -1.0078  0.3686 -0.3550
  530MOL0     O71439   4.301   7.778   3.117 -0.3826  0.2747  0.4529
  530MOL0     C71440   4.430   7.733   3.146  0.4822  0.2284 -0.4675
  530MOL0     C71441   4.522   7.680   3.051  0.7941  1.3657 -0.0829
  530MOL0     C71442   4.646   7.632   3.089 -0.6748  0.1226 -0.0499
  530MOL0     C71443   4.687   7.642   3.219 -0.4599 -1.3618 -1.2864
  530MOL0     C71444   4.821   7.593   3.263 -1.1200 -0.1598  0.3957
  530MOL0     O71445   4.917   7.582   3.165 -0.3905 -0.3895  0.1148
  530MOL0     C71446   5.038   7.512   3.187 -0.3926  0.3735  0.6309
  530MOL0     C71447   5.116   7.492   3.074  0.6441  0.0483  0.4862
  530MOL0     C71448   5.228   7.412   3.064  0.2835 -0.7340 -0.3536
  530MOL0     C71449   5.287   7.364   3.179 -0.7131 -0.0831  0.0314
  530MOL0     O71450   5.412   7.309   3.186 -0.5666 -0.0969 -0.1393
  530MOL0     C71451   5.510   7.336   3.088 -0.8115  1.0653  0.0418
  530MOL0     C71452   5.644   7.279   3.125 -0.0634 -0.6593  0.7358
  530MOL0     C71453   5.747   7.308   3.008  0.0395 -0.1086  0.8269
  530MOL0     C71454   5.898   7.279   3.046 -0.1596 -0.2063  1.0607
  530MOL0     C71455   5.974   7.393   2.978  0.0918 -0.2201 -0.0331
  530MOL0     C71456   6.116   7.372   3.024 -0.2326  0.6864 -1.4015
  530MOL0     C71457   6.224   7.472   2.969  1.7801  0.2416 -0.6747
  530MOL0     C71458   6.368   7.429   2.990 -0.5379  0.7849  0.0181
  530MOL0    Cl71459   6.418   7.419   3.165 -0.3540  0.0291 -0.3102
  530MOL0     C71460   5.228   7.396   3.305  0.0898  0.9138  0.0667
  530MOL0     C71461   5.097   7.449   3.304  0.5879  0.3479  0.1730
  530MOL0     O71462   4.837   7.557   3.383  0.2006 -0.1764  0.3468
  530MOL0     C71463   4.599   7.692   3.322 -0.5825  0.2830 -0.3792
  530MOL0     C71464   4.483   7.744   3.282  0.0935  0.6160 -0.6376
  530MOL0     N71465   3.754   7.807   2.949 -0.4812 -0.4361  0.1988
  530MOL0     N71466   3.685   7.735   3.030  0.7761  0.6349  0.5196
  530MOL0     C71467   2.958   7.985   3.935  0.3057  0.8088  0.4791
  530MOL0     C71468   2.827   8.028   3.950  0.0252  0.1809  0.1277
  530MOL0     C71469   2.456   8.277   3.952 -0.3946 -0.5381  0.1064
  530MOL0     C71470   2.391   8.180   3.878 -0.5935  0.1003  0.3662
  530MOL0     C71471   2.255   8.172   3.882  0.2990 -0.1575 -0.0003
  530MOL0     C71472   2.178   8.258   3.957  0.3068 -1.2082  0.1781
  530MOL0     O71473   2.041   8.241   3.947 -0.0930 -0.3523 -0.7476
  530MOL0     C71474   1.949   8.305   4.038 -0.3449 -0.2069  0.4941
  530MOL0     C71475   1.936   8.235   4.168 -0.1497 -0.6503 -0.9491
  530MOL0     C71476   1.862   8.100   4.169  0.1831  1.0467 -0.7035
  530MOL0     C71477   1.847   8.052   4.314 -0.7117 -0.3160  1.3941
  530MOL0     C71478   1.785   7.917   4.309  0.4635 -0.2867 -0.4050
  530MOL0     C71479   1.741   7.804   4.317 -0.4302  0.8600  0.1680
  530MOL0     C71480   2.239   8.366   4.025  0.2181 -0.1004 -0.3032
  530MOL0     C71481   2.380   8.378   4.024 -0.1797 -0.4350  0.2422
  530MOL0     C71482   2.444   8.495   4.101  0.0305  0.3899  0.4781
  530MOL0     H71483   2.825   8.276   3.714  1.8737  1.4493 -0.8919
  530MOL0     H71484   3.075   8.211   3.699 -0.2636  0.0171 -2.0072
  530MOL0     H71485   3.259   8.171   3.785 -2.7703 -0.3070  1.7608
  530MOL0     H71486   3.375   8.044   3.830 -1.4753 -1.7351  1.5281
  530MOL0     H71487   3.370   8.071   3.580 -1.5142  0.4927 -0.4979
  530MOL0     H71488   3.191   8.041   3.589 -0.1517 -0.8525 -0.5272
  530MOL0     H71489   3.245   7.815   3.685  0.4543  0.4483  1.3510
  530MOL0     H71490   3.410   7.852   3.660 -1.2822 -0.4122  1.5616
  530MOL0     H71491   3.184   7.831   3.465  0.8113 -2.9650 -2.9664
  530MOL0     H71492   3.342   7.883   3.400  0.5922 -0.7480 -0.5133
  530MOL0     H71493   3.302   7.620   3.543  2.5538  0.6775  0.9915
  530MOL0     H71494   3.267   7.630   3.380  1.6140  0.7318 -0.7964
  530MOL0     H71495   3.528   7.679   3.525 -2.1278  3.7826  0.7145
  530MOL0     H71496   3.491   7.552   3.420  0.9363  0.4700  2.0109
  530MOL0     H71497   3.538   7.851   3.328  1.0701  0.6170  2.0493
  530MOL0     H71498   3.465   7.731   3.225 -0.6984  2.4561  1.2029
  530MOL0     H71499   3.733   7.711   3.364  0.4422  0.6277  0.1021
  530MOL0     H71500   3.666   7.580   3.256  3.1586 -0.5956 -1.5331
  530MOL0     H71501   3.873   7.894   3.245  0.6533  0.2393 -0.8455
  530MOL0     H71502   3.924   7.993   2.868  1.8619 -3.7075 -0.3204
  530MOL0     H71503   3.910   8.083   3.019  3.3661  1.8642 -2.6544
  530MOL0     H71504   4.153   8.009   2.941 -0.4055 -0.6078 -1.0400
  530MOL0     H71505   4.108   7.983   3.101  0.5464  1.4351 -1.7410
  530MOL0     H71506   4.056   7.755   2.895 -0.7524  0.5559  0.2071
  530MOL0     H71507   4.067   7.743   3.075  0.0352 -0.3696  0.2747
  530MOL0     H71508   4.310   7.831   2.923  0.2244 -1.9684 -1.8269
  530MOL0     H71509   4.261   7.660   2.954 -3.0082 -0.0201  0.2554
  530MOL0     H71510   4.494   7.661   2.948  1.3223 -0.2762  0.0449
  530MOL0     H71511   4.704   7.591   3.007 -0.1241  1.2838 -0.2677
  530MOL0     H71512   5.077   7.539   2.985 -2.6505 -1.8403  0.7874
  530MOL0     H71513   5.254   7.381   2.963 -3.3781 -2.0047 -1.0831
  530MOL0     H71514   5.483   7.289   2.992 -0.8879  2.0151 -0.4099
  530MOL0     H71515   5.514   7.440   3.055  2.0533  0.0594 -3.4774
  530MOL0     H71516   5.679   7.334   3.212 -0.7466 -0.1215  0.6810
  530MOL0     H71517   5.638   7.171   3.144 -2.1643 -0.9242 -0.9901
  530MOL0     H71518   5.731   7.246   2.920  2.9900  1.4764 -0.9695
  530MOL0     H71519   5.734   7.409   2.969  1.8034 -0.5688 -1.1362
  530MOL0     H71520   5.934   7.188   2.997  3.4109  2.4818 -1.9808
  530MOL0     H71521   5.915   7.275   3.154  1.5328 -1.0357  0.7971
  530MOL0     H71522   5.936   7.491   3.009  1.1092  0.4223 -0.7311
  530MOL0     H71523   5.977   7.393   2.868 -0.9725  0.1717 -0.0666
  530MOL0     H71524   6.115   7.365   3.133 -1.0486 -1.1732 -1.4913
  530MOL0     H71525   6.144   7.271   2.992 -1.1078  0.1756 -0.5888
  530MOL0     H71526   6.202   7.573   3.003  2.4750  0.2505 -0.2294
  530MOL0     H71527   6.204   7.471   2.862 -0.1833  2.0508 -0.3990
  530MOL0     H71528   6.389   7.336   2.936  0.1938 -0.2550  2.0139
  530MOL0     H71529   6.431   7.503   2.938  0.7788 -0.7159 -0.6303
  530MOL0     H71530   5.275   7.346   3.390  0.1718 -2.1914 -1.6329
  530MOL0     H71531   5.042   7.448   3.397 -3.3485  3.0902 -1.8591
  530MOL0     H71532   4.633   7.706   3.424 -0.4653  0.5161 -0.4502
  530MOL0     H71533   4.424   7.791   3.360  0.6036 -0.1730  0.2464
  530MOL0     H71534   3.000   7.911   4.002  2.0874  3.0333  1.9811
  530MOL0     H71535   2.763   7.970   4.016 -0.0858 -2.2878 -1.9927
  530MOL0     H71536   2.446   8.117   3.810 -0.7194  0.5380 -0.1518
  530MOL0     H71537   2.201   8.094   3.829  1.2952  0.3257 -1.8023
  530MOL0     H71538   1.856   8.315   3.981  2.2267  0.6722 -4.0416
  530MOL0     H71539   1.993   8.404   4.047  0.9289 -0.6976 -0.0808
  530MOL0     H71540   1.873   8.293   4.236  1.6731 -1.3791  1.5513
  530MOL0     H71541   2.036   8.233   4.213 -0.8697  1.1961  0.8963
  530MOL0     H71542   1.921   8.029   4.110  0.8723  1.1920 -0.1855
  530MOL0     H71543   1.762   8.113   4.124 -0.3583  0.4819  0.3178
  530MOL0     H71544   1.942   8.056   4.367 -0.0589  0.2136  0.2193
  530MOL0     H71545   1.766   8.113   4.356 -1.3374  0.1801 -0.4120
  530MOL0     H71546   1.705   7.703   4.326 -0.6397  1.0029  1.0298
  530MOL0     H71547   2.189   8.434   4.092 -0.6819 -0.3870 -0.6714
  530MOL0     H71548   2.483   8.448   4.191 -1.9150  3.6327  3.2603
  530MOL0     H71549   2.534   8.539   4.057  1.5455 -3.1404 -0.3321
  530MOL0     H71550   2.377   8.576   4.131  0.9866  1.2928  0.2367
  531MOL0     O71551   6.990   4.506   9.035 -0.1364 -0.7700 -0.7048
  531MOL0     C71552   6.955   4.618   8.986 -0.1732 -0.1237 -1.6359
  531MOL0     O71553   7.038   4.727   8.962  0.4405 -0.8236 -0.1488
  531MOL0     C71554   7.178   4.722   8.974 -0.1816  0.7841 -0.5014
  531MOL0     C71555   7.238   4.843   8.944  0.2659 -0.6022  0.8347
  531MOL0     C71556   7.365   4.869   8.993 -0.0830 -1.5211  0.7870
  531MOL0     C71557   7.450   4.765   9.042  0.3655  1.1557  0.0009
  531MOL0     O71558   7.582   4.770   9.085  0.0323 -1.0564  0.2394
  531MOL0     C71559   7.616   4.902   9.140 -0.4487  0.9498  0.7036
  531MOL0     C71560   7.751   4.904   9.217 -0.0217 -0.0896  0.0442
  531MOL0     C71561   7.757   4.772   9.304  1.7153  0.0455  0.5397
  531MOL0     C71562   7.835   4.793   9.428 -0.0050  1.1481  0.2139
  531MOL0     C71563   7.976   4.840   9.403  0.3169  0.5980  0.2118
  531MOL0     C71564   8.042   4.888   9.535  0.3093 -0.6860 -0.4211
  531MOL0     C71565   8.181   4.935   9.494 -0.8273  0.1899 -0.1869
  531MOL0     C71566   8.262   4.960   9.608  0.1705  0.6535 -0.5147
  531MOL0     N71567   8.383   5.037   9.579 -0.6799 -0.3799  0.1274
  531MOL0     C71568   8.510   5.002   9.619  0.1691  0.5586  0.1796
  531MOL0     C71569   8.602   5.086   9.555  0.1027 -0.1682 -0.5871
  531MOL0     C71570   8.747   5.084   9.537 -0.3907 -0.0060  0.3675
  531MOL0     C71571   8.814   5.212   9.592 -0.0697  0.0860  0.9250
  531MOL0     C71572   8.952   5.209   9.530  0.0121 -0.2316  0.0394
  531MOL0     C71573   9.033   5.314   9.591 -0.6789  0.2597 -0.7815
  531MOL0     O71574   9.039   5.301   9.740 -0.4196 -0.4628  0.6193
  531MOL0     C71575   9.162   5.310   9.802 -0.1537 -1.2025 -0.9988
  531MOL0     C71576   9.261   5.400   9.759  0.2040 -0.0500  0.3327
  531MOL0     C71577   9.374   5.421   9.832  1.2332  0.6602 -0.3369
  531MOL0     C71578   9.385   5.357   9.952 -0.4887 -0.1079 -0.9028
  531MOL0     C71579   9.502   5.379  10.032 -0.5523 -0.3772 -0.9279
  531MOL0     O71580   9.579   5.493  10.023 -0.5365 -0.1375  0.5001
  531MOL0     C71581   9.655   5.544  10.128  0.8079  0.5108  0.3948
  531MOL0     C71582   9.660   5.684  10.144  0.2476  0.9602 -0.5472
  531MOL0     C71583   9.748   5.744  10.237 -0.7946 -0.0462  0.4197
  531MOL0     C71584   9.817   5.664  10.332  0.2276  0.1280  0.3259
  531MOL0     O71585   9.886   5.709  10.442 -0.4070 -0.1997 -0.2559
  531MOL0     C71586   9.846   5.835  10.496  0.5892 -0.4172  0.1705
  531MOL0     C71587   9.937   5.953  10.447  0.0519 -0.3333 -0.4485
  531MOL0     C71588  10.097   5.933  10.459  0.1740 -0.5690 -0.7030
  531MOL0     C71589  10.148   5.982  10.590  0.2698 -0.5754  0.8516
  531MOL0     C71590  10.304   5.981  10.584 -0.5995 -0.2550  0.2926
  531MOL0     C71591  10.372   6.102  10.527 -0.0295  0.7778  0.1922
  531MOL0     C71592  10.389   6.088  10.375  0.2456  0.0414 -0.3466
  531MOL0     C71593  10.477   6.194  10.317 -0.0764  0.6103  0.0517
  531MOL0    Cl71594  10.651   6.193  10.383 -0.2519 -0.0424  0.2515
  531MOL0     C71595   9.810   5.523  10.311  0.0027  0.4788 -0.3635
  531MOL0     C71596   9.731   5.475  10.213  0.8598 -0.0979  0.0868
  531MOL0     O71597   9.517   5.294  10.116  0.1811  0.1965  0.0501
  531MOL0     C71598   9.293   5.257   9.991  0.1091  0.1126 -0.2635
  531MOL0     C71599   9.177   5.238   9.917 -0.8984  0.1394  0.3075
  531MOL0     N71600   8.517   5.170   9.480 -0.2535 -1.0429  0.6955
  531MOL0     N71601   8.393   5.153   9.506 -0.4894 -0.1081  0.1184
  531MOL0     C71602   7.391   4.637   9.054 -0.0457  0.4363  1.0120
  531MOL0     C71603   7.260   4.614   9.018  0.3037 -0.2779  0.8682
  531MOL0     C71604   6.815   4.632   8.932 -1.2433 -0.5144  0.3421
  531MOL0     C71605   6.805   4.680   8.791 -0.1763  0.2286 -0.3375
  531MOL0     C71606   6.677   4.698   8.735  0.3746 -0.2403 -0.4114
  531MOL0     C71607   6.560   4.680   8.810 -0.3088  0.1677 -0.1222
  531MOL0     O71608   6.445   4.735   8.764  0.5997  0.9895 -0.2786
  531MOL0     C71609   6.326   4.684   8.817  0.5258 -0.9012 -0.5089
  531MOL0     C71610   6.217   4.701   8.710 -0.4736  0.0792  1.0404
  531MOL0     C71611   6.227   4.837   8.647 -0.0350 -0.2648 -0.2508
  531MOL0     C71612   6.105   4.914   8.672  0.5328 -0.0253 -0.2835
  531MOL0     C71613   5.996   4.869   8.583 -1.1532  1.4690  0.9339
  531MOL0     C71614   5.906   4.836   8.505  0.3201  0.0192  0.2687
  531MOL0     C71615   6.575   4.624   8.940 -0.2286 -0.9310  0.0842
  531MOL0     C71616   6.701   4.592   9.000  0.8418 -0.0719  0.5185
  531MOL0     C71617   6.707   4.539   9.141 -0.3585  0.1701  0.0160
  531MOL0     H71618   7.188   4.924   8.890  2.6199  0.3712 -0.0194
  531MOL0     H71619   7.399   4.971   8.977 -1.4545 -0.9039  1.6483
  531MOL0     H71620   7.631   4.963   9.050 -2.9440 -1.0447 -1.1901
  531MOL0     H71621   7.544   4.942   9.212  0.9920  0.8017  2.3185
  531MOL0     H71622   7.762   4.992   9.282  1.6205  0.1140 -0.4598
  531MOL0     H71623   7.835   4.893   9.147 -0.4925  1.4271 -0.8199
  531MOL0     H71624   7.796   4.698   9.233 -3.0251 -0.7556 -1.6192
  531MOL0     H71625   7.662   4.719   9.315  0.8015  1.7776  1.5035
  531MOL0     H71626   7.786   4.873   9.485  2.6437  3.2554 -0.2802
  531MOL0     H71627   7.839   4.706   9.494 -0.6721  2.7223  2.4659
  531MOL0     H71628   8.031   4.768   9.342 -1.5068  0.7271 -1.7137
  531MOL0     H71629   7.986   4.928   9.339  2.8876  2.3456  2.7639
  531MOL0     H71630   7.986   4.967   9.585  0.0345 -2.2093  1.8049
  531MOL0     H71631   8.057   4.800   9.599  0.4156 -0.5017 -0.1945
  531MOL0     H71632   8.179   5.021   9.426 -0.3634 -0.0096 -0.4573
  531MOL0     H71633   8.225   4.854   9.435  1.1189 -0.5850  2.1508
  531MOL0     H71634   8.202   5.028   9.669 -3.2457 -1.9819 -0.6159
  531MOL0     H71635   8.277   4.868   9.666 -0.4302  0.7366 -0.2212
  531MOL0     H71636   8.537   4.930   9.695  0.5171  3.6329  3.2508
  531MOL0     H71637   8.809   5.002   9.576  0.2083  0.4171  0.3154
  531MOL0     H71638   8.757   5.095   9.429 -1.1402  5.5761  0.5773
  531MOL0     H71639   8.762   5.295   9.542  0.0967 -1.0058 -1.1875
  531MOL0     H71640   8.811   5.227   9.700 -1.2975 -0.1463  0.9401
  531MOL0     H71641   8.941   5.234   9.423  0.9523  1.6716  0.3437
  531MOL0     H71642   9.009   5.116   9.531  1.5089  0.6246 -1.3607
  531MOL0     H71643   8.996   5.412   9.559  1.0634  2.0619  2.2003
  531MOL0     H71644   9.137   5.308   9.556 -0.8098 -1.3220 -0.9820
  531MOL0     H71645   9.251   5.459   9.669  0.9287 -0.3659  0.0363
  531MOL0     H71646   9.464   5.469   9.797  2.9735 -1.3480  1.1552
  531MOL0     H71647   9.584   5.740  10.089 -2.0347  0.1190  1.5715
  531MOL0     H71648   9.754   5.853  10.242 -1.9562  0.0458  0.0684
  531MOL0     H71649   9.743   5.857  10.469  0.2194 -0.7939  1.2545
  531MOL0     H71650   9.847   5.826  10.605 -1.5971  1.5180  0.3987
  531MOL0     H71651   9.920   5.965  10.339  4.2280 -1.8095 -1.4752
  531MOL0     H71652   9.924   6.048  10.500  1.9565 -1.0311  1.4298
  531MOL0     H71653  10.124   5.827  10.459  0.3002 -0.6420  2.4622
  531MOL0     H71654  10.139   5.984  10.372  0.3546 -2.0675 -1.5211
  531MOL0     H71655  10.122   5.912  10.669 -0.6616 -2.5335 -1.0868
  531MOL0     H71656  10.110   6.080  10.622  1.6739  0.3816 -0.2415
  531MOL0     H71657  10.349   5.895  10.536  2.7346  1.1893  0.6012
  531MOL0     H71658  10.334   5.978  10.689 -3.9215 -2.3810  1.3512
  531MOL0     H71659  10.321   6.198  10.540 -1.0467  0.5790 -1.8076
  531MOL0     H71660  10.472   6.113  10.568  2.2470 -0.0589 -4.4058
  531MOL0     H71661  10.293   6.101  10.323 -1.4955 -2.0744  2.0874
  531MOL0     H71662  10.437   5.993  10.351  4.4151  1.9476 -0.4310
  531MOL0     H71663  10.484   6.180  10.209 -0.2566  0.7619  0.0211
  531MOL0     H71664  10.442   6.297  10.329  1.2952  1.2075 -0.7541
  531MOL0     H71665   9.871   5.463  10.377  0.6079  0.4678 -0.9209
  531MOL0     H71666   9.738   5.369  10.190  0.8978 -0.4581  1.6903
  531MOL0     H71667   9.304   5.204  10.085  1.6014 -0.7690 -0.8883
  531MOL0     H71668   9.111   5.159   9.951  2.8081 -2.4323  2.1819
  531MOL0     H71669   7.455   4.558   9.092 -1.1642 -1.0257 -0.0308
  531MOL0     H71670   7.220   4.514   9.035 -2.2333  0.8009  1.6150
  531MOL0     H71671   6.893   4.714   8.738 -0.8630  1.4383 -0.7452
  531MOL0     H71672   6.655   4.739   8.637 -0.2707 -0.8161 -0.5078
  531MOL0     H71673   6.300   4.737   8.909  2.0810 -0.9817 -0.0025
  531MOL0     H71674   6.338   4.577   8.837  3.4295  0.0209  3.9714
  531MOL0     H71675   6.121   4.684   8.759 -1.8205  0.1157 -1.4491
  531MOL0     H71676   6.231   4.627   8.631 -0.7908  1.9677 -0.8732
  531MOL0     H71677   6.245   4.831   8.540 -0.1337 -0.4392 -0.2577
  531MOL0     H71678   6.308   4.894   8.694  0.8684 -2.1215  0.5404
  531MOL0     H71679   6.075   4.904   8.776 -0.1458  3.5427 -0.0118
  531MOL0     H71680   6.123   5.019   8.648 -1.2430  0.5856  0.8375
  531MOL0     H71681   5.809   4.816   8.465 -0.0995  1.3952  0.5721
  531MOL0     H71682   6.489   4.588   8.995  0.8338 -0.9108  1.8408
  531MOL0     H71683   6.782   4.575   9.213 -1.6958 -0.1669  1.6531
  531MOL0     H71684   6.608   4.556   9.183 -0.0445  2.2051  0.0369
  531MOL0     H71685   6.728   4.432   9.136  1.2229  0.4268  0.5219
  532MOL0     O71686   6.707   6.810   2.566  0.1401 -0.2393  0.8089
  532MOL0     C71687   6.655   6.874   2.472  1.0326  0.6503  0.4679
  532MOL0     O71688   6.714   6.965   2.391 -0.6440  0.6315 -0.5345
  532MOL0     C71689   6.851   6.988   2.409 -0.0782 -0.6392  0.5452
  532MOL0     C71690   6.881   7.116   2.444 -0.0801 -0.2190 -0.1707
  532MOL0     C71691   7.010   7.155   2.477  0.1959  0.4117 -0.3103
  532MOL0     C71692   7.117   7.064   2.451  0.6338  0.5369 -0.3928
  532MOL0     O71693   7.246   7.107   2.483 -0.1716  0.7580 -0.2871
  532MOL0     C71694   7.363   7.027   2.464  0.9220 -0.0837  0.2475
  532MOL0     C71695   7.496   7.107   2.483 -0.9905 -0.9184  0.1629
  532MOL0     C71696   7.612   7.024   2.424  0.4865  0.5282  0.0200
  532MOL0     C71697   7.759   7.052   2.474 -0.9488 -0.5339  0.3744
  532MOL0     C71698   7.842   7.117   2.365  0.1769  0.6258  0.1407
  532MOL0     C71699   7.990   7.131   2.416 -1.2344 -0.1974  1.1939
  532MOL0     C71700   8.088   7.208   2.319  0.4773 -0.3867 -0.3403
  532MOL0     C71701   8.234   7.193   2.356  0.3817 -0.2611 -0.4206
  532MOL0     N71702   8.325   7.225   2.242  0.0594 -0.3314 -0.1295
  532MOL0     C71703   8.314   7.347   2.174 -0.2679 -0.1214 -0.0887
  532MOL0     C71704   8.410   7.336   2.076  0.0215  0.0655  0.0235
  532MOL0     C71705   8.446   7.444   1.981  0.7653 -0.3380  0.6290
  532MOL0     C71706   8.574   7.522   2.024 -0.6645  0.1527  0.3974
  532MOL0     C71707   8.579   7.650   1.954  0.3585 -0.3584  0.8401
  532MOL0     C71708   8.696   7.745   2.004 -0.5241 -0.3352  0.0609
  532MOL0     O71709   8.822   7.682   1.998  0.1109 -0.2033 -0.8774
  532MOL0     C71710   8.926   7.719   2.083 -0.2224  0.1946 -0.9264
  532MOL0     C71711   8.933   7.833   2.151 -0.0762  0.4466 -0.5320
  532MOL0     C71712   9.038   7.868   2.234 -0.2903 -0.3440  0.4183
  532MOL0     C71713   9.148   7.780   2.238  0.3827  0.0678  0.1073
  532MOL0     C71714   9.272   7.820   2.308  0.8381 -0.3757  1.3119
  532MOL0     O71715   9.386   7.748   2.271 -0.5566 -0.5240 -0.4564
  532MOL0     C71716   9.510   7.788   2.316  0.3661 -0.3440 -0.2456
  532MOL0     C71717   9.613   7.692   2.302  0.4425  0.7601 -0.1825
  532MOL0     C71718   9.744   7.704   2.340 -0.4992  0.1370  0.8144
  532MOL0     C71719   9.790   7.829   2.387 -0.0149  0.0059 -0.2274
  532MOL0     O71720   9.920   7.868   2.419 -0.0848 -0.5043 -0.3952
  532MOL0     C71721  10.012   7.756   2.446  0.9547  1.0542  0.5419
  532MOL0     C71722  10.148   7.805   2.488  0.7862  0.0584  0.8503
  532MOL0     C71723  10.247   7.688   2.471 -0.0258  0.4434 -0.7086
  532MOL0     C71724  10.392   7.734   2.502  0.0940 -0.0914  0.1031
  532MOL0     C71725  10.412   7.755   2.657  0.1810 -0.1085 -0.6385
  532MOL0     C71726  10.437   7.627   2.731 -0.7566  1.0565 -0.2869
  532MOL0     C71727  10.581   7.585   2.719  0.0718 -0.3823 -1.3524
  532MOL0     C71728  10.602   7.447   2.780  0.1025 -0.6235 -0.1748
  532MOL0    Cl71729  10.759   7.393   2.772 -0.2834  0.0282  0.2627
  532MOL0     C71730   9.690   7.929   2.411 -0.2262  0.4724 -0.4721
  532MOL0     C71731   9.556   7.914   2.361  0.2066  0.5200  0.3017
  532MOL0     O71732   9.272   7.909   2.394  0.1134 -0.4180  0.0682
  532MOL0     C71733   9.135   7.651   2.191  0.3921 -0.1300  0.0053
  532MOL0     C71734   9.026   7.622   2.107  0.0354 -0.0782 -1.0048
  532MOL0     N71735   8.471   7.213   2.083 -0.9870 -0.3700 -0.3936
  532MOL0     N71736   8.419   7.136   2.177  0.2906 -0.2051  0.2533
  532MOL0     C71737   7.088   6.939   2.401 -0.1127 -0.5661 -0.3472
  532MOL0     C71738   6.954   6.897   2.385 -0.4089 -0.0633  0.3686
  532MOL0     C71739   6.506   6.859   2.445  0.4475  0.1904 -0.2603
  532MOL0     C71740   6.431   6.814   2.554  0.1656 -0.8040 -0.3438
  532MOL0     C71741   6.290   6.797   2.556 -0.6631  0.3405 -0.1528
  532MOL0     C71742   6.221   6.800   2.433  0.0553 -0.1458 -0.3240
  532MOL0     O71743   6.087   6.769   2.425 -0.7285 -0.5888 -0.2589
  532MOL0     C71744   6.013   6.735   2.542  0.5582  0.1937 -0.4262
  532MOL0     C71745   5.866   6.741   2.514  0.0255  0.2309 -0.3415
  532MOL0     C71746   5.783   6.696   2.640 -0.2924  0.6107 -0.3889
  532MOL0     C71747   5.646   6.698   2.601  1.0738 -0.1102 -0.5920
  532MOL0     C71748   5.559   6.665   2.717 -0.0355  0.1636  0.2601
  532MOL0     C71749   5.466   6.635   2.786  0.1333  1.0464  0.7372
  532MOL0     C71750   6.294   6.838   2.319 -0.3181 -0.1314  0.1533
  532MOL0     C71751   6.433   6.866   2.327  0.2112  0.1900  0.0530
  532MOL0     C71752   6.508   6.902   2.201 -0.2559  1.0326  0.0435
  532MOL0     H71753   6.807   7.193   2.460  0.5324 -0.0704  2.3415
  532MOL0     H71754   7.034   7.250   2.524  0.4054  0.0958  0.2303
  532MOL0     H71755   7.352   6.953   2.544 -1.4600 -3.1298 -2.5925
  532MOL0     H71756   7.363   6.984   2.363  1.5298  2.4833 -0.9198
  532MOL0     H71757   7.505   7.107   2.592 -1.8058 -2.2621  0.2573
  532MOL0     H71758   7.483   7.204   2.436 -0.9011 -1.2806 -0.6190
  532MOL0     H71759   7.604   7.032   2.315 -1.2707 -0.2083  0.0708
  532MOL0     H71760   7.589   6.921   2.453  0.0216  1.3587  2.9503
  532MOL0     H71761   7.761   7.117   2.561  1.4803 -0.1584  0.1043
  532MOL0     H71762   7.815   6.963   2.505  0.8465  0.5327  0.3279
  532MOL0     H71763   7.847   7.054   2.276  0.5458 -0.1067  0.6713
  532MOL0     H71764   7.806   7.218   2.343  0.8370  0.9676  0.6271
  532MOL0     H71765   7.995   7.168   2.519  2.1196 -0.7052  1.3238
  532MOL0     H71766   8.022   7.026   2.423 -2.2064 -0.8399 -2.1337
  532MOL0     H71767   8.066   7.315   2.322  0.9194 -0.2826 -0.6426
  532MOL0     H71768   8.061   7.169   2.221  2.8889 -0.8332 -0.8994
  532MOL0     H71769   8.248   7.252   2.447  1.7582 -3.2565  1.4808
  532MOL0     H71770   8.257   7.091   2.387  1.5334  0.6757  2.0938
  532MOL0     H71771   8.233   7.416   2.195 -0.5338 -1.0998  2.3769
  532MOL0     H71772   8.472   7.399   1.885  0.9011 -0.3669  0.6779
  532MOL0     H71773   8.359   7.509   1.972  1.9090  1.2364  0.3495
  532MOL0     H71774   8.575   7.545   2.131  0.7541  4.6550 -0.3675
  532MOL0     H71775   8.662   7.465   1.993  0.0251  2.3600 -2.0336
  532MOL0     H71776   8.479   7.692   1.966 -0.7239 -2.6856  0.5020
  532MOL0     H71777   8.581   7.619   1.850  3.0876 -1.1534  1.0538
  532MOL0     H71778   8.668   7.785   2.102 -0.9134  5.2261 -1.9727
  532MOL0     H71779   8.703   7.829   1.934  3.0370  1.1425  1.9371
  532MOL0     H71780   8.860   7.912   2.145 -0.4292  0.0745 -1.2042
  532MOL0     H71781   9.043   7.975   2.255 -2.1718  0.1010 -1.1210
  532MOL0     H71782   9.578   7.596   2.265  2.1875 -0.2276  0.6042
  532MOL0     H71783   9.806   7.617   2.324 -1.2095 -0.2242 -0.0263
  532MOL0     H71784   9.975   7.690   2.525  1.9538  1.1451  1.0996
  532MOL0     H71785  10.028   7.699   2.354  0.8040  0.6813  0.7485
  532MOL0     H71786  10.176   7.884   2.418  0.1157 -0.8133 -0.4390
  532MOL0     H71787  10.152   7.843   2.591  4.1094  0.2087  0.7934
  532MOL0     H71788  10.227   7.599   2.531 -3.5676  1.9134  0.5287
  532MOL0     H71789  10.252   7.648   2.369  1.1077 -1.7997  0.1670
  532MOL0     H71790  10.412   7.827   2.448  2.0532 -2.8904 -4.6258
  532MOL0     H71791  10.464   7.658   2.471 -0.6468 -0.3585 -1.0222
  532MOL0     H71792  10.326   7.809   2.697 -2.4262 -2.2730 -2.9222
  532MOL0     H71793  10.502   7.817   2.665  0.1307  0.5515 -3.8227
  532MOL0     H71794  10.402   7.636   2.834 -2.7235  2.4446 -1.0204
  532MOL0     H71795  10.376   7.551   2.681  1.1865  0.4500 -1.8437
  532MOL0     H71796  10.648   7.657   2.767 -1.8293  0.4758  0.1822
  532MOL0     H71797  10.608   7.574   2.614  1.0000 -0.4650 -1.1134
  532MOL0     H71798  10.579   7.445   2.887  1.7787 -2.4573  0.1939
  532MOL0     H71799  10.541   7.373   2.726 -0.3900 -0.5047  0.2121
  532MOL0     H71800   9.725   8.021   2.456  0.6106  0.2002 -0.5448
  532MOL0     H71801   9.481   7.991   2.349 -1.9532 -1.6701 -1.1636
  532MOL0     H71802   9.209   7.575   2.217  0.9348  0.3513 -0.1243
  532MOL0     H71803   9.019   7.520   2.069 -1.5897  0.7914 -3.2786
  532MOL0     H71804   7.168   6.866   2.390 -0.0653 -0.5313 -0.2263
  532MOL0     H71805   6.940   6.800   2.338  0.1270  0.7465 -1.5490
  532MOL0     H71806   6.471   6.811   2.655 -2.0522  2.1851  0.7640
  532MOL0     H71807   6.235   6.783   2.649  0.5985  2.1878  0.9441
  532MOL0     H71808   6.037   6.809   2.619  0.2764 -0.4533  0.2903
  532MOL0     H71809   6.044   6.639   2.585 -3.2838 -0.2815  1.7186
  532MOL0     H71810   5.838   6.673   2.433 -1.4371  0.0353  0.2897
  532MOL0     H71811   5.839   6.841   2.478  1.3705  1.5025  1.9776
  532MOL0     H71812   5.806   6.765   2.722  1.7533  1.5857 -1.6867
  532MOL0     H71813   5.822   6.599   2.671  1.9132  2.0850  1.8931
  532MOL0     H71814   5.625   6.801   2.571  0.6817 -0.0665 -0.1805
  532MOL0     H71815   5.618   6.641   2.513 -1.8213  3.9881 -2.6444
  532MOL0     H71816   5.382   6.617   2.849  0.0834 -1.1493  0.1400
  532MOL0     H71817   6.235   6.843   2.228 -0.0033 -0.3133 -0.0627
  532MOL0     H71818   6.449   6.864   2.116 -0.8693 -2.4764  1.8269
  532MOL0     H71819   6.515   7.010   2.190  1.3398  1.3780  3.2811
  532MOL0     H71820   6.608   6.860   2.189  0.8595  3.4432  0.5617
  533MOL0     O71821   3.332  10.446  10.386  0.5582 -0.1792 -0.2046
  533MOL0     C71822   3.399  10.408  10.476  0.2596  0.9343 -0.5205
  533MOL0     O71823   3.513  10.351  10.466  0.1257  0.6914  0.1936
  533MOL0     C71824   3.570  10.334  10.340  0.0952 -0.0173  0.0284
  533MOL0     C71825   3.565  10.417  10.226 -0.8287  0.1182  0.9194
  533MOL0     C71826   3.649  10.389  10.108 -0.2367 -0.3653 -0.3133
  533MOL0     C71827   3.738  10.285  10.117  0.5941  0.1720  0.5134
  533MOL0     O71828   3.825  10.273  10.012  0.0465 -0.1471 -0.0704
  533MOL0     C71829   3.946  10.339  10.044 -0.9230  0.4472  0.1032
  533MOL0     C71830   4.055  10.293   9.937 -1.3786 -0.6520 -0.3214
  533MOL0     C71831   4.186  10.361   9.984  0.4854 -0.3986 -0.1190
  533MOL0     C71832   4.184  10.519   9.963 -0.3071  0.4704  0.8448
  533MOL0     C71833   4.315  10.574  10.022 -0.2629  0.8340  0.8754
  533MOL0     C71834   4.324  10.720   9.984 -0.1193 -0.6978  0.6156
  533MOL0     C71835   4.468  10.772  10.003 -0.2010 -0.8203  0.1309
  533MOL0     C71836   4.509  10.764  10.144  0.0931 -0.4932 -0.3205
  533MOL0     N71837   4.642  10.819  10.166  0.0512 -0.8047  0.5007
  533MOL0     C71838   4.761  10.747  10.166  0.6863 -0.2266  0.2967
  533MOL0     C71839   4.835  10.844  10.227  0.0637  0.1420 -0.8389
  533MOL0     C71840   4.986  10.831  10.258  0.2387 -0.6974 -0.8535
  533MOL0     C71841   5.074  10.753  10.159  0.1522  0.6532 -0.4965
  533MOL0     C71842   5.098  10.817  10.019  0.4399  0.2041 -0.8301
  533MOL0     C71843   5.167  10.948  10.012  0.1590 -0.3886 -0.9618
  533MOL0     O71844   5.290  10.938  10.084  0.4930 -0.5673  0.7194
  533MOL0     C71845   5.410  10.969  10.022 -0.4302  0.3744 -0.0153
  533MOL0     C71846   5.507  11.017  10.109 -0.0366  0.3406  0.0487
  533MOL0     C71847   5.634  11.059  10.060  0.4492 -0.5530  0.3242
  533MOL0     C71848   5.663  11.052   9.923 -0.5681  0.1299  0.5174
  533MOL0     C71849   5.799  11.093   9.857  0.4586 -0.3254  0.0240
  533MOL0     O71850   5.812  11.066   9.718 -0.1312 -0.2027 -0.0271
  533MOL0     C71851   5.936  11.078   9.660 -0.3888 -0.0971  0.1694
  533MOL0     C71852   5.941  11.105   9.525 -0.0920 -0.5455 -0.0849
  533MOL0     C71853   6.067  11.102   9.455 -0.5422 -1.0689  0.0071
  533MOL0     C71854   6.183  11.080   9.527  0.7741  0.8702  1.0775
  533MOL0     O71855   6.303  11.064   9.471 -0.0142  0.2195  0.2725
  533MOL0     C71856   6.313  11.050   9.328  0.6928 -0.4800  0.6267
  533MOL0     C71857   6.457  11.014   9.292 -0.4168 -0.3819 -0.3250
  533MOL0     C71858   6.549  11.130   9.320 -0.1440  0.2555 -0.2021
  533MOL0     C71859   6.568  11.212   9.189  0.0117 -0.7810  0.9317
  533MOL0     C71860   6.652  11.337   9.227 -0.4854 -0.2446 -0.4531
  533MOL0     C71861   6.796  11.285   9.259  0.0750 -0.6149 -0.2346
  533MOL0     C71862   6.892  11.414   9.263 -0.0804  0.3154 -0.3079
  533MOL0     C71863   6.863  11.498   9.388 -0.4476  0.5549  0.2419
  533MOL0    Cl71864   6.882  11.396   9.538  0.1038 -0.1165  0.1399
  533MOL0     C71865   6.175  11.045   9.659 -0.3936  0.5458  0.5416
  533MOL0     C71866   6.055  11.036   9.725 -0.2808 -0.3897  0.9340
  533MOL0     O71867   5.875  11.155   9.931  0.1752  0.5158 -0.8985
  533MOL0     C71868   5.557  11.013   9.843 -0.3173  0.4790  0.7716
  533MOL0     C71869   5.434  10.963   9.890 -1.1742 -0.5297  1.1062
  533MOL0     N71870   4.770  10.962  10.250  0.7890  0.3457 -0.5528
  533MOL0     N71871   4.646  10.943  10.213 -0.1746  0.3937  0.4655
  533MOL0     C71872   3.750  10.201  10.228 -0.5076 -0.4658  0.1461
  533MOL0     C71873   3.662  10.226  10.334 -0.0996 -1.4237 -0.4759
  533MOL0     C71874   3.333  10.416  10.609 -0.2672  0.0747 -0.5146
  533MOL0     C71875   3.402  10.354  10.723  0.2274  0.0775  0.1352
  533MOL0     C71876   3.359  10.362  10.850  0.9342  0.0640  0.3976
  533MOL0     C71877   3.228  10.411  10.878  0.4022 -0.1668  0.7458
  533MOL0     O71878   3.186  10.407  11.011 -0.0245  0.1254 -0.2494
  533MOL0     C71879   3.064  10.479  11.051 -0.3543  0.5947  0.3408
  533MOL0     C71880   2.934  10.404  11.039  1.1570  0.2480 -0.7342
  533MOL0     C71881   2.805  10.463  11.114 -0.0516 -0.5472 -0.4867
  533MOL0     C71882   2.676  10.394  11.079 -0.4149 -0.0934  1.5846
  533MOL0     C71883   2.554  10.461  11.125  0.0492 -0.5047  0.0146
  533MOL0     C71884   2.453  10.513  11.163  0.8673  0.3871 -0.1534
  533MOL0     C71885   3.147  10.449  10.765  0.6688 -0.8841 -0.8523
  533MOL0     C71886   3.199  10.458  10.636 -0.3644 -0.0324 -0.6842
  533MOL0     C71887   3.115  10.520  10.524  0.3731  0.3540 -0.2585
  533MOL0     H71888   3.490  10.492  10.207 -0.5682  0.7551  2.3366
  533MOL0     H71889   3.646  10.445  10.015 -0.4810 -2.8525 -1.9010
  533MOL0     H71890   3.933  10.447  10.042  0.8008  0.6677 -0.4191
  533MOL0     H71891   3.995  10.321  10.140 -2.3566  3.0498  1.4393
  533MOL0     H71892   4.033  10.321   9.834 -1.0713 -1.0725 -0.4997
  533MOL0     H71893   4.084  10.189   9.953  2.2341  0.1456 -0.9899
  533MOL0     H71894   4.269  10.325   9.922 -1.2550 -4.2414 -0.4705
  533MOL0     H71895   4.204  10.340  10.089 -1.9442  3.4332  1.2905
  533MOL0     H71896   4.174  10.557   9.861  3.8525  3.4273  1.3073
  533MOL0     H71897   4.094  10.558  10.013 -0.9600  0.4119 -0.2580
  533MOL0     H71898   4.316  10.576  10.132  1.1659 -1.0656  0.9471
  533MOL0     H71899   4.398  10.515   9.983 -0.4156  1.0629  0.1944
  533MOL0     H71900   4.298  10.725   9.878  0.1788 -1.0469  0.5227
  533MOL0     H71901   4.253  10.778  10.043 -0.0202 -0.2127  0.2619
  533MOL0     H71902   4.469  10.879   9.980  0.2584 -0.1873  2.7702
  533MOL0     H71903   4.543  10.722   9.940  2.5731 -0.9125  3.2511
  533MOL0     H71904   4.434  10.810  10.210 -1.2955  1.4264 -3.0248
  533MOL0     H71905   4.523  10.658  10.167 -0.5870 -0.1863  1.6945
  533MOL0     H71906   4.792  10.646  10.139 -1.6906 -2.3198  4.3150
  533MOL0     H71907   5.044  10.922  10.272 -0.1288 -0.4797 -0.7417
  533MOL0     H71908   4.995  10.784  10.356  1.5749  0.5807 -0.3228
  533MOL0     H71909   5.171  10.744  10.210 -1.4761  0.2624  2.7850
  533MOL0     H71910   5.033  10.652  10.146 -1.5536  1.2588 -0.0437
  533MOL0     H71911   4.999  10.822   9.974  0.3463 -3.7624 -1.4638
  533MOL0     H71912   5.159  10.748   9.959  1.7607  0.4541  0.1701
  533MOL0     H71913   5.107  11.027  10.059  2.5325  1.0121 -0.0735
  533MOL0     H71914   5.184  10.970   9.906 -2.3603  0.1549 -1.3092
  533MOL0     H71915   5.501  11.020  10.217  0.2424  2.1029  0.0389
  533MOL0     H71916   5.713  11.085  10.130  0.3548  0.4317  0.0835
  533MOL0     H71917   5.849  11.105   9.468 -0.1854  3.7207 -0.2526
  533MOL0     H71918   6.074  11.121   9.348 -4.0129  1.0394  0.0244
  533MOL0     H71919   6.250  10.979   9.273  1.9542 -0.6097 -0.7435
  533MOL0     H71920   6.301  11.145   9.275  0.1771 -1.1957 -0.5880
  533MOL0     H71921   6.485  10.929   9.355 -0.7689  0.8121  1.5327
  533MOL0     H71922   6.466  10.991   9.186 -1.0596 -0.7024 -0.3145
  533MOL0     H71923   6.522  11.189   9.408 -1.6799  0.1187 -0.5600
  533MOL0     H71924   6.643  11.083   9.354 -0.3827 -0.8925 -1.0567
  533MOL0     H71925   6.475  11.251   9.147  0.7840  1.2229  0.9957
  533MOL0     H71926   6.626  11.153   9.118  2.1133  1.0238  1.0842
  533MOL0     H71927   6.622  11.403   9.309  2.5830  1.1809 -0.3403
  533MOL0     H71928   6.652  11.400   9.138 -0.8742  2.2288  1.1938
  533MOL0     H71929   6.803  11.228   9.352  0.5628 -0.3193 -0.0849
  533MOL0     H71930   6.825  11.216   9.180 -0.2812 -2.2075  0.9816
  533MOL0     H71931   6.872  11.478   9.177 -0.9643  0.8182  0.2617
  533MOL0     H71932   6.997  11.382   9.264 -0.7232 -2.0616  1.0919
  533MOL0     H71933   6.932  11.582   9.384  0.5469 -0.2810 -2.8712
  533MOL0     H71934   6.764  11.544   9.392 -1.4188 -1.1735 -1.6986
  533MOL0     H71935   6.265  11.023   9.716  0.2619 -1.9914 -1.2828
  533MOL0     H71936   6.059  11.011   9.830  0.7084  0.4551  1.1022
  533MOL0     H71937   5.566  11.016   9.735  0.9845  3.3978  0.8659
  533MOL0     H71938   5.364  10.928   9.814 -0.5136 -0.5465  0.4955
  533MOL0     H71939   3.819  10.117  10.224  1.5011  1.1079 -0.1525
  533MOL0     H71940   3.657  10.162  10.422  0.8555 -1.8197 -0.7054
  533MOL0     H71941   3.498  10.305  10.721 -0.3938 -1.1734 -0.4396
  533MOL0     H71942   3.431  10.334  10.926  0.4456 -3.4509 -0.2739
  533MOL0     H71943   3.056  10.579  11.007  1.5555 -0.0515 -1.6407
  533MOL0     H71944   3.082  10.506  11.156 -0.1826 -0.0050  0.4679
  533MOL0     H71945   2.952  10.309  11.091  1.7016  1.8709  2.2591
  533MOL0     H71946   2.904  10.377  10.937 -0.7620 -2.9807  0.5320
  533MOL0     H71947   2.786  10.570  11.104 -0.8662 -0.3854  2.1645
  533MOL0     H71948   2.820  10.457  11.222  1.6351  1.1424 -0.5911
  533MOL0     H71949   2.675  10.383  10.970  0.2805  3.1598  1.1608
  533MOL0     H71950   2.670  10.294  11.124 -1.5263 -0.7024  0.1986
  533MOL0     H71951   2.357  10.552  11.189  0.2882 -0.6413 -0.6775
  533MOL0     H71952   3.043  10.473  10.783  0.4031 -2.0098 -0.8440
  533MOL0     H71953   3.089  10.440  10.454 -0.8138 -1.7958  2.4556
  533MOL0     H71954   3.026  10.571  10.563 -0.5463 -0.7427 -0.8523
  533MOL0     H71955   3.168  10.599  10.471  1.7959  0.1052  0.7547
  534MOL0     O71956   5.383   3.306   1.156 -0.3193  0.1977  0.2077
  534MOL0     C71957   5.338   3.398   1.221 -0.1621  0.2691 -0.1054
  534MOL0     O71958   5.364   3.428   1.356  0.6011  0.6335 -0.0919
  534MOL0     C71959   5.483   3.376   1.399 -0.7807 -0.0514  0.2843
  534MOL0     C71960   5.603   3.436   1.361 -0.1686 -0.5060  0.2292
  534MOL0     C71961   5.732   3.399   1.416 -0.0490  0.4507  0.0824
  534MOL0     C71962   5.741   3.294   1.507  0.2837  0.2778  0.7220
  534MOL0     O71963   5.851   3.258   1.580 -0.2371 -0.4874  0.0836
  534MOL0     C71964   5.976   3.322   1.577  0.1790 -0.4480 -0.2327
  534MOL0     C71965   6.037   3.276   1.448  0.2964 -0.3371  0.5589
  534MOL0     C71966   6.178   3.355   1.438 -1.0915  0.3800  0.0190
  534MOL0     C71967   6.296   3.251   1.472  0.0727 -0.4538 -0.2436
  534MOL0     C71968   6.397   3.336   1.551 -0.6218 -0.1242  0.2824
  534MOL0     C71969   6.514   3.249   1.604 -0.6265  0.6459  0.1068
  534MOL0     C71970   6.610   3.168   1.509 -0.3786 -0.5522 -0.3791
  534MOL0     C71971   6.651   3.043   1.575 -0.1786  0.0801  0.7260
  534MOL0     N71972   6.751   2.981   1.497 -0.8711 -0.1581 -0.0067
  534MOL0     C71973   6.738   2.886   1.392 -0.3863 -0.3489 -0.6921
  534MOL0     C71974   6.861   2.841   1.351 -0.0871  0.3349 -0.2651
  534MOL0     C71975   6.908   2.735   1.250  0.2178 -0.2580  0.5823
  534MOL0     C71976   6.951   2.615   1.309 -0.0561 -0.8881 -0.2572
  534MOL0     C71977   7.102   2.616   1.347  0.0714 -0.7036 -0.0838
  534MOL0     C71978   7.193   2.657   1.235 -0.3739  0.1398  0.1139
  534MOL0     O71979   7.332   2.603   1.245 -0.2974  0.0063  0.0578
  534MOL0     C71980   7.416   2.607   1.137 -0.6689  0.4246 -0.0051
  534MOL0     C71981   7.375   2.631   1.004  0.1428 -0.1509  0.0594
  534MOL0     C71982   7.472   2.634   0.903 -0.0058 -0.6983  0.4834
  534MOL0     C71983   7.608   2.620   0.923  0.4149  0.0978  0.3536
  534MOL0     C71984   7.698   2.614   0.802  0.7842 -0.0654 -0.8823
  534MOL0     O71985   7.641   2.635   0.676 -0.5358  0.4565  0.1486
  534MOL0     C71986   7.709   2.609   0.566  0.2148 -0.6934  0.3896
  534MOL0     C71987   7.756   2.482   0.537  0.2529 -0.5171 -0.1760
  534MOL0     C71988   7.810   2.451   0.416  0.6238  0.2365  0.6906
  534MOL0     C71989   7.825   2.552   0.320 -0.6135  0.0795 -0.3246
  534MOL0     O71990   7.865   2.533   0.192  0.3428  0.5468 -0.3095
  534MOL0     C71991   7.896   2.400   0.153 -0.2898  0.0379 -0.0041
  534MOL0     C71992   7.953   2.401   0.014 -0.0740 -0.0998  1.5972
  534MOL0     C71993   7.854   2.431  -0.103  0.0460  0.0682 -0.3139
  534MOL0     C71994   7.920   2.456  -0.241 -0.6867  1.0703 -0.4504
  534MOL0     C71995   7.822   2.455  -0.359 -0.9883  0.7566  0.1067
  534MOL0     C71996   7.885   2.466  -0.493 -0.9495  0.0469  0.1885
  534MOL0     C71997   7.982   2.589  -0.514  0.4888  0.3561  0.0939
  534MOL0     C71998   8.015   2.617  -0.660  1.3088  0.0915 -0.1352
  534MOL0    Cl71999   8.106   2.482  -0.720 -0.3428  0.6190  0.1426
  534MOL0     C72000   7.771   2.684   0.347 -0.3858  0.0583 -0.2127
  534MOL0     C72001   7.721   2.710   0.470  0.7970  0.4227 -0.5714
  534MOL0     O72002   7.815   2.596   0.830  1.0367  0.3090  0.3396
  534MOL0     C72003   7.645   2.599   1.059  1.1066  0.3819 -0.1061
  534MOL0     C72004   7.553   2.598   1.157  0.6448 -0.1372 -0.5486
  534MOL0     N72005   6.960   2.908   1.424  0.5974 -0.2918 -0.0047
  534MOL0     N72006   6.893   2.988   1.514 -0.4747 -0.2784  0.1240
  534MOL0     C72007   5.619   3.234   1.545 -0.1430  0.4174  0.4516
  534MOL0     C72008   5.490   3.273   1.492  0.3042  0.6623  0.9053
  534MOL0     C72009   5.226   3.466   1.163  0.4942 -0.0087 -0.0411
  534MOL0     C72010   5.149   3.546   1.250 -0.8627 -0.6762  0.1127
  534MOL0     C72011   5.038   3.609   1.201  0.7347 -0.4154 -0.4170
  534MOL0     C72012   4.992   3.595   1.074 -1.1816  0.1936 -0.2876
  534MOL0     O72013   4.886   3.670   1.035  0.6016  0.6128  0.2942
  534MOL0     C72014   4.755   3.614   1.046 -0.2747  0.6695  0.6031
  534MOL0     C72015   4.698   3.631   1.191 -0.6865  0.2157  0.5824
  534MOL0     C72016   4.693   3.775   1.247  0.7465 -0.2150 -0.3380
  534MOL0     C72017   4.559   3.796   1.321  0.4445  0.0855  0.1037
  534MOL0     C72018   4.447   3.827   1.231  0.2175 -0.1341 -0.4905
  534MOL0     C72019   4.349   3.862   1.168  0.0556 -0.6503 -0.6270
  534MOL0     C72020   5.056   3.508   0.988  1.1330  0.6706 -0.9801
  534MOL0     C72021   5.172   3.450   1.030 -0.0159  0.1730  0.3381
  534MOL0     C72022   5.250   3.381   0.918  0.0810 -0.3283 -0.3623
  534MOL0     H72023   5.592   3.517   1.289  0.9409 -0.0821  0.5145
  534MOL0     H72024   5.816   3.461   1.387  1.0656 -0.8579  0.4302
  534MOL0     H72025   5.970   3.431   1.584 -0.9609 -0.4492 -0.9944
  534MOL0     H72026   6.042   3.288   1.658 -1.9707  0.0792  1.8507
  534MOL0     H72027   5.975   3.296   1.360 -0.1317 -1.6153  0.5579
  534MOL0     H72028   6.052   3.168   1.439  1.2900 -0.0527 -4.1084
  534MOL0     H72029   6.175   3.435   1.511  1.4962 -1.9849  2.9773
  534MOL0     H72030   6.204   3.392   1.338 -3.9937 -0.6365 -1.2176
  534MOL0     H72031   6.257   3.164   1.525 -1.2272  0.2235 -0.0315
  534MOL0     H72032   6.326   3.212   1.374 -1.1890  1.2372 -1.3753
  534MOL0     H72033   6.424   3.425   1.493 -0.7983  1.1726  2.1251
  534MOL0     H72034   6.337   3.370   1.636 -0.5184 -0.6778  0.5830
  534MOL0     H72035   6.579   3.324   1.651  2.9389 -1.9983 -0.1219
  534MOL0     H72036   6.466   3.179   1.674 -0.1731  0.4399  0.2177
  534MOL0     H72037   6.694   3.232   1.481 -2.2011  0.1384 -5.3302
  534MOL0     H72038   6.554   3.143   1.418  0.7378 -1.2607 -0.8958
  534MOL0     H72039   6.689   3.065   1.676 -2.2625  0.0470  1.5661
  534MOL0     H72040   6.562   2.980   1.575 -0.7027  0.7658 -0.7413
  534MOL0     H72041   6.636   2.867   1.361 -0.3767 -1.0800 -0.2974
  534MOL0     H72042   6.830   2.722   1.174  1.4708  0.4913 -0.8757
  534MOL0     H72043   6.990   2.793   1.208 -0.2383  0.8061  1.0988
  534MOL0     H72044   6.890   2.585   1.395  1.0842  0.1962  0.9650
  534MOL0     H72045   6.922   2.533   1.242 -1.5663 -0.5286 -0.0901
  534MOL0     H72046   7.123   2.512   1.374  0.5643 -0.3157  1.1469
  534MOL0     H72047   7.126   2.676   1.436  1.9390 -1.0045 -0.3300
  534MOL0     H72048   7.195   2.764   1.215  0.7072  0.0582 -0.2495
  534MOL0     H72049   7.155   2.616   1.141  0.1974 -0.9225  0.3338
  534MOL0     H72050   7.269   2.631   0.981  0.0100  1.4208  0.5861
  534MOL0     H72051   7.441   2.654   0.801 -0.9175 -2.1072  0.4603
  534MOL0     H72052   7.734   2.405   0.610 -1.0107  0.8213  0.9274
  534MOL0     H72053   7.835   2.348   0.391  1.1565 -0.0305  2.1779
  534MOL0     H72054   7.976   2.361   0.217  0.8963 -0.5393 -1.7693
  534MOL0     H72055   7.810   2.333   0.141  0.3997 -0.4043 -3.8607
  534MOL0     H72056   8.032   2.476   0.004 -0.1846 -0.1708 -0.0802
  534MOL0     H72057   8.001   2.309  -0.021  1.1825  0.5139  1.6812
  534MOL0     H72058   7.783   2.350  -0.121 -0.5878  0.9464 -2.0505
  534MOL0     H72059   7.797   2.519  -0.071  0.1022 -0.2285  0.6162
  534MOL0     H72060   7.989   2.372  -0.258 -2.9425 -1.7958  2.8534
  534MOL0     H72061   7.977   2.549  -0.238 -3.9860  3.2385  0.5491
  534MOL0     H72062   7.760   2.543  -0.338 -3.2720 -0.5724 -0.6758
  534MOL0     H72063   7.758   2.367  -0.348 -0.1369  0.2206  0.9104
  534MOL0     H72064   7.938   2.372  -0.508  1.1974  0.8387  2.1168
  534MOL0     H72065   7.806   2.466  -0.568  0.3740  1.1005 -1.2708
  534MOL0     H72066   8.077   2.582  -0.460  0.3921  1.2135  0.4012
  534MOL0     H72067   7.932   2.676  -0.469 -2.4241 -2.1400  2.1800
  534MOL0     H72068   7.920   2.630  -0.713  1.4567  4.0280  0.2255
  534MOL0     H72069   8.065   2.714  -0.670 -2.8098  2.2112 -3.2594
  534MOL0     H72070   7.784   2.765   0.276  1.3877 -0.5240 -0.6039
  534MOL0     H72071   7.690   2.811   0.499 -0.1475 -0.1459  0.4857
  534MOL0     H72072   7.751   2.578   1.072  1.7720  1.3889 -3.1670
  534MOL0     H72073   7.594   2.570   1.254  0.0841  1.2736  0.1144
  534MOL0     H72074   5.627   3.159   1.623 -0.3643  0.2172  0.2829
  534MOL0     H72075   5.392   3.233   1.516 -0.5655  1.6905 -0.7145
  534MOL0     H72076   5.175   3.560   1.355 -2.1739  0.1270  0.3543
  534MOL0     H72077   4.992   3.684   1.265  1.9467  0.9743 -1.1092
  534MOL0     H72078   4.761   3.506   1.026  1.2732  0.8348 -0.0268
  534MOL0     H72079   4.693   3.667   0.974  0.1007  0.9301  0.4645
  534MOL0     H72080   4.759   3.572   1.260  2.3574  2.7860  0.3220
  534MOL0     H72081   4.599   3.585   1.185  0.6971 -2.8533 -1.3487
  534MOL0     H72082   4.690   3.841   1.160 -1.7588  0.0463 -0.1198
  534MOL0     H72083   4.778   3.790   1.315 -0.4036 -4.3663  2.4630
  534MOL0     H72084   4.534   3.701   1.369  2.1494 -0.8214 -0.6972
  534MOL0     H72085   4.572   3.875   1.394  0.1627  1.9031 -1.7162
  534MOL0     H72086   4.257   3.888   1.118  0.5494  0.3777 -1.0190
  534MOL0     H72087   5.024   3.474   0.890  0.0588  0.6680 -0.6347
  534MOL0     H72088   5.358   3.378   0.930 -0.1098 -3.2990  1.4312
  534MOL0     H72089   5.214   3.278   0.922  0.9451 -0.5844  2.6775
  534MOL0     H72090   5.225   3.432   0.823  1.1244  2.3916  0.7126
  535MOL0     O72091   9.556   7.239   1.304  0.5911  0.1530  0.1670
  535MOL0     C72092   9.485   7.230   1.398  0.5111  0.4597 -0.3108
  535MOL0     O72093   9.528   7.206   1.529  0.0923  1.1509  0.8989
  535MOL0     C72094   9.652   7.155   1.541 -0.1796 -0.6388 -0.2111
  535MOL0     C72095   9.758   7.242   1.582 -0.0832 -0.3295  0.7579
  535MOL0     C72096   9.881   7.188   1.598 -0.0410  0.4772  0.3075
  535MOL0     C72097   9.906   7.053   1.560  0.0769  0.3768 -0.5619
  535MOL0     O72098  10.039   7.016   1.557 -0.6130 -0.0632 -0.2083
  535MOL0     C72099  10.145   7.110   1.504  0.0308  0.0743 -0.1933
  535MOL0     C72100  10.275   7.092   1.588 -0.6146  1.1856  0.4924
  535MOL0     C72101  10.249   7.079   1.738 -0.8206 -1.4381 -1.0753
  535MOL0     C72102  10.375   7.113   1.822 -0.0221 -0.7628 -0.8061
  535MOL0     C72103  10.400   7.261   1.825 -0.0344 -0.4001  0.2420
  535MOL0     C72104  10.546   7.295   1.869 -0.1724 -0.7950  0.6732
  535MOL0     C72105  10.654   7.261   1.754 -0.3103  0.3364  0.9155
  535MOL0     C72106  10.782   7.342   1.769  0.1175  0.1305  0.0343
  535MOL0     N72107  10.768   7.481   1.720 -0.4406 -0.4826 -0.7804
  535MOL0     C72108  10.774   7.504   1.585 -0.6554  0.2520 -0.0069
  535MOL0     C72109  10.751   7.636   1.570  0.0298 -0.3532 -0.0478
  535MOL0     C72110  10.783   7.723   1.455 -0.0955  0.2905 -0.2190
  535MOL0     C72111  10.645   7.776   1.393  0.1860  0.3564 -0.1513
  535MOL0     C72112  10.653   7.869   1.277  0.0089  0.4219 -0.4726
  535MOL0     C72113  10.714   7.808   1.152 -0.2293  0.3700  0.0792
  535MOL0     O72114  10.636   7.684   1.114 -0.2372 -0.5220  0.0565
  535MOL0     C72115  10.584   7.702   0.990  0.1994  0.5125 -0.5091
  535MOL0     C72116  10.448   7.720   0.972 -0.2226 -0.2303 -0.7641
  535MOL0     C72117  10.392   7.706   0.846  0.0003 -0.0513  0.9331
  535MOL0     C72118  10.465   7.697   0.726  0.2681 -0.0859  0.6216
  535MOL0     C72119  10.402   7.670   0.603 -0.2481 -0.2079 -0.2619
  535MOL0     O72120  10.262   7.659   0.608  0.1150  0.8133 -0.3493
  535MOL0     C72121  10.191   7.646   0.490  0.1727 -0.5111  0.2454
  535MOL0     C72122  10.055   7.688   0.490  0.6169 -0.2641  1.4784
  535MOL0     C72123   9.969   7.666   0.375  0.0743  0.2175 -0.2433
  535MOL0     C72124  10.008   7.602   0.264 -0.9932 -0.2333 -0.3986
  535MOL0     O72125   9.938   7.551   0.162  0.3576 -0.7549  0.1450
  535MOL0     C72126   9.822   7.624   0.125 -0.5039 -0.1374 -0.6285
  535MOL0     C72127   9.745   7.543   0.030  0.1074 -0.4602 -0.3664
  535MOL0     C72128   9.602   7.602   0.039  0.1019  0.2942 -0.3842
  535MOL0     C72129   9.510   7.545  -0.072  0.0784  0.5144  0.2555
  535MOL0     C72130   9.399   7.647  -0.096  0.6594 -0.6785 -0.5584
  535MOL0     C72131   9.288   7.602  -0.191  0.7154 -0.0076 -0.8561
  535MOL0     C72132   9.173   7.710  -0.192  0.0503  0.0814 -0.0873
  535MOL0     C72133   9.094   7.710  -0.314 -0.0657  0.5012  0.6058
  535MOL0    Cl72134   9.017   7.547  -0.338 -0.8529 -0.0068  0.1489
  535MOL0     C72135  10.138   7.554   0.269 -0.2944  0.9718  0.4818
  535MOL0     C72136  10.232   7.581   0.378 -0.3732  0.5295 -0.0885
  535MOL0     O72137  10.477   7.656   0.505 -0.0754  0.2509  0.5525
  535MOL0     C72138  10.603   7.702   0.746 -0.1447  0.3383 -0.0272
  535MOL0     C72139  10.661   7.689   0.876 -0.1180 -0.3904  1.0649
  535MOL0     N72140  10.725   7.693   1.696 -0.1046  0.4673  0.6112
  535MOL0     N72141  10.728   7.592   1.784  0.2244 -0.5021  0.4781
  535MOL0     C72142   9.800   6.973   1.527 -0.2394 -0.2646 -0.1446
  535MOL0     C72143   9.673   7.023   1.506 -0.0439  0.0678  0.1989
  535MOL0     C72144   9.339   7.240   1.375 -0.0199 -0.1360  0.5154
  535MOL0     C72145   9.251   7.165   1.451  0.0200  0.7952  0.0556
  535MOL0     C72146   9.108   7.165   1.418  0.2396 -0.7309  0.4820
  535MOL0     C72147   9.058   7.245   1.318  0.7167 -0.1160 -0.2084
  535MOL0     O72148   8.926   7.248   1.280 -0.7248  0.2993  0.4123
  535MOL0     C72149   8.914   7.228   1.139 -0.4941 -0.3401 -1.3065
  535MOL0     C72150   8.786   7.162   1.090  0.5473 -1.0475  0.2086
  535MOL0     C72151   8.658   7.238   1.143  0.6488  0.3511 -0.7370
  535MOL0     C72152   8.673   7.389   1.123  0.3674  0.2396  0.2548
  535MOL0     C72153   8.560   7.456   1.193  0.0907  0.5258 -0.3419
  535MOL0     C72154   8.470   7.509   1.256  0.2004 -0.0249  0.1451
  535MOL0     C72155   9.150   7.322   1.243  0.3286 -0.3200 -0.7648
  535MOL0     C72156   9.293   7.327   1.271  0.1953  0.5756  0.2097
  535MOL0     C72157   9.370   7.422   1.183  1.3443 -0.0043  0.1536
  535MOL0     H72158   9.757   7.350   1.597  0.1037  0.3160 -2.8571
  535MOL0     H72159   9.959   7.254   1.635 -0.6092  1.8752 -0.9076
  535MOL0     H72160  10.168   7.088   1.400 -2.9044 -1.0851 -0.7050
  535MOL0     H72161  10.110   7.214   1.507  2.0295  0.7871 -0.3417
  535MOL0     H72162  10.344   7.172   1.560 -0.4766  0.9620  0.1861
  535MOL0     H72163  10.325   6.998   1.565  0.2527  2.3691 -3.1233
  535MOL0     H72164  10.229   6.972   1.752 -0.5925 -1.4598 -0.9129
  535MOL0     H72165  10.168   7.149   1.761 -0.3422 -1.3068  0.3128
  535MOL0     H72166  10.353   7.084   1.925  2.1031  0.3563  0.0328
  535MOL0     H72167  10.465   7.055   1.801 -0.0188 -0.8721 -0.4966
  535MOL0     H72168  10.383   7.303   1.725  1.0928 -2.1693 -0.7604
  535MOL0     H72169  10.327   7.311   1.889  1.7309  1.4080  0.9283
  535MOL0     H72170  10.539   7.399   1.899  0.2362 -0.9705  1.4048
  535MOL0     H72171  10.569   7.235   1.958 -1.1298  0.6986  1.9658
  535MOL0     H72172  10.618   7.286   1.654 -1.8272  2.6625  1.9586
  535MOL0     H72173  10.687   7.156   1.758 -1.0877  0.0741  0.5288
  535MOL0     H72174  10.795   7.346   1.878 -0.4790  1.1241  0.0853
  535MOL0     H72175  10.867   7.291   1.723 -1.4537 -0.5775 -2.2474
  535MOL0     H72176  10.812   7.437   1.508 -0.6252 -0.6371  0.7635
  535MOL0     H72177  10.845   7.809   1.481 -0.6519 -0.1284  2.7786
  535MOL0     H72178  10.852   7.669   1.389  2.8898  2.0230  1.2575
  535MOL0     H72179  10.577   7.693   1.371  0.0347  0.2610  0.6463
  535MOL0     H72180  10.604   7.832   1.478  1.6495 -1.1185  1.6143
  535MOL0     H72181  10.699   7.962   1.311 -0.8281  0.3019  1.1008
  535MOL0     H72182  10.549   7.893   1.253 -0.3353 -0.1060  0.4067
  535MOL0     H72183  10.816   7.779   1.179 -0.8392 -0.4252  1.5995
  535MOL0     H72184  10.730   7.880   1.071  0.4943 -0.2119 -0.3155
  535MOL0     H72185  10.392   7.714   1.065  0.5940 -0.4019 -0.2722
  535MOL0     H72186  10.284   7.695   0.843 -0.1688  1.5383 -1.4270
  535MOL0     H72187  10.011   7.728   0.580 -0.7059  1.9656 -0.0778
  535MOL0     H72188   9.869   7.704   0.395  0.2864 -0.6647  3.0062
  535MOL0     H72189   9.758   7.631   0.214  0.1947 -2.3381  0.0942
  535MOL0     H72190   9.851   7.725   0.094 -0.6151 -0.0447 -0.4306
  535MOL0     H72191   9.784   7.553  -0.072  0.6456  1.6976 -0.0079
  535MOL0     H72192   9.750   7.441   0.067 -0.4730 -0.1034  0.7519
  535MOL0     H72193   9.553   7.578   0.134 -1.2423  2.1228 -0.5560
  535MOL0     H72194   9.605   7.711   0.040  0.2296  0.2898 -0.1527
  535MOL0     H72195   9.468   7.447  -0.048  2.1630 -0.2948  0.8484
  535MOL0     H72196   9.563   7.544  -0.168 -0.9472 -1.1332 -0.3372
  535MOL0     H72197   9.446   7.733  -0.145  2.9973 -2.6186 -1.9605
  535MOL0     H72198   9.360   7.673   0.003 -0.0515  1.4086 -1.3490
  535MOL0     H72199   9.325   7.574  -0.290  0.2796 -2.2190 -0.4537
  535MOL0     H72200   9.245   7.507  -0.159  1.6034  0.1850  1.0980
  535MOL0     H72201   9.211   7.812  -0.181 -0.2923  0.0482  1.5338
  535MOL0     H72202   9.102   7.687  -0.113  2.1323 -1.9026  1.3454
  535MOL0     H72203   9.017   7.788  -0.306  1.7296  2.1814  3.0928
  535MOL0     H72204   9.154   7.747  -0.397 -0.8638 -0.7077 -0.5454
  535MOL0     H72205  10.171   7.494   0.184 -0.4739  1.8285 -0.1991
  535MOL0     H72206  10.331   7.542   0.354 -0.4956  1.4305 -2.2710
  535MOL0     H72207  10.675   7.695   0.665  2.0266 -2.3592  1.9439
  535MOL0     H72208  10.769   7.686   0.893  0.5316  1.9912 -1.8114
  535MOL0     H72209   9.819   6.878   1.478 -1.8214 -0.0119 -1.2974
  535MOL0     H72210   9.586   6.965   1.477 -0.4521  0.8031 -0.0796
  535MOL0     H72211   9.278   7.103   1.535 -1.2851 -0.0407 -0.1033
  535MOL0     H72212   9.043   7.108   1.483  0.7298  1.4706  3.0665
  535MOL0     H72213   8.990   7.161   1.099  0.4950  0.5608 -0.9748
  535MOL0     H72214   8.935   7.321   1.084  3.1188 -0.7939 -0.9135
  535MOL0     H72215   8.774   7.059   1.124  1.1772 -0.8417  1.0980
  535MOL0     H72216   8.787   7.163   0.981 -1.8898  1.7363  0.0967
  535MOL0     H72217   8.648   7.211   1.249 -1.1610  2.9157 -0.1775
  535MOL0     H72218   8.566   7.210   1.092 -1.1340  1.1099  1.8757
  535MOL0     H72219   8.757   7.427   1.183 -0.3548  0.6090  1.0692
  535MOL0     H72220   8.682   7.435   1.024 -0.1345 -0.8285 -0.2970
  535MOL0     H72221   8.395   7.545   1.324 -2.2248 -2.1988 -1.2464
  535MOL0     H72222   9.123   7.371   1.150  1.0908  0.5925 -0.5266
  535MOL0     H72223   9.306   7.451   1.099 -1.5235 -4.0582  0.6336
  535MOL0     H72224   9.406   7.506   1.244 -0.8289  0.3498  1.0431
  535MOL0     H72225   9.459   7.373   1.142  0.0284  1.4043 -5.1414
  536MOL0     O72226   2.666   9.032   2.821 -0.1807  0.1822  0.7907
  536MOL0     C72227   2.618   9.095   2.910 -0.7411  0.2884 -0.5756
  536MOL0     O72228   2.689   9.150   3.015 -0.2974  0.4496  0.0212
  536MOL0     C72229   2.821   9.125   3.039  0.6259 -0.2813 -0.4754
  536MOL0     C72230   2.869   8.992   3.043 -0.4254 -0.0549 -0.5310
  536MOL0     C72231   3.002   8.964   3.063 -0.3059  0.6142  1.1493
  536MOL0     C72232   3.096   9.064   3.082 -0.2356 -0.5229  0.0204
  536MOL0     O72233   3.223   9.015   3.112 -0.3804  0.1607  0.3420
  536MOL0     C72234   3.330   9.111   3.099 -0.4853 -0.3353 -0.4513
  536MOL0     C72235   3.466   9.048   3.109  0.1354 -0.4599 -0.2704
  536MOL0     C72236   3.570   9.155   3.140 -0.0767 -0.3174  1.1723
  536MOL0     C72237   3.713   9.090   3.155 -0.3495  0.4609 -0.4949
  536MOL0     C72238   3.815   9.207   3.166  0.9109 -0.0493  0.6368
  536MOL0     C72239   3.958   9.158   3.199  0.4822  0.0310 -0.4086
  536MOL0     C72240   4.054   9.273   3.236  0.5882  0.0058 -0.7575
  536MOL0     C72241   4.178   9.209   3.318 -0.2428  0.0090 -0.3531
  536MOL0     N72242   4.268   9.311   3.384  0.5998  0.0038  0.1250
  536MOL0     C72243   4.326   9.421   3.319 -1.2550  0.3838  0.0380
  536MOL0     C72244   4.386   9.490   3.428 -0.0361  0.5375 -0.2532
  536MOL0     C72245   4.472   9.617   3.402  0.7519  0.0098 -0.4106
  536MOL0     C72246   4.616   9.603   3.447 -0.3256 -0.5439 -1.1530
  536MOL0     C72247   4.691   9.741   3.439 -1.1928 -0.0665  1.1405
  536MOL0     C72248   4.835   9.723   3.488  0.2324  0.4113  0.8631
  536MOL0     O72249   4.893   9.857   3.490  0.9042  0.0174 -1.1435
  536MOL0     C72250   5.008   9.861   3.560  0.1281  0.9369 -0.3375
  536MOL0     C72251   5.095   9.755   3.594  0.0260 -0.0175  0.1292
  536MOL0     C72252   5.214   9.781   3.670 -0.2789 -0.5013  0.2101
  536MOL0     C72253   5.236   9.907   3.722  0.1706 -1.3602  0.0835
  536MOL0     C72254   5.353   9.939   3.810 -0.2059  0.0375  0.9487
  536MOL0     O72255   5.394  10.066   3.836  0.5263 -0.4910 -0.3123
  536MOL0     C72256   5.508  10.094   3.914  0.5667  0.0236  0.0320
  536MOL0     C72257   5.609  10.183   3.870  0.3813 -0.7803  0.6101
  536MOL0     C72258   5.722  10.201   3.961 -0.2260 -0.0839  0.7617
  536MOL0     C72259   5.736  10.144   4.091  0.6886  0.3213 -0.2933
  536MOL0     O72260   5.831  10.156   4.194 -0.5528  0.1418  0.6819
  536MOL0     C72261   5.890  10.290   4.173  0.2033 -0.7252 -1.0943
  536MOL0     C72262   5.925  10.347   4.312  0.0767 -0.0472 -0.4681
  536MOL0     C72263   6.043  10.272   4.382  0.5222  0.3003  0.6124
  536MOL0     C72264   6.001  10.139   4.446  0.0517  0.2655 -0.0092
  536MOL0     C72265   6.106  10.097   4.557 -0.3023  0.6767 -0.0512
  536MOL0     C72266   6.091   9.948   4.602 -0.6396  0.6919  0.4615
  536MOL0     C72267   6.133   9.832   4.500 -0.7632 -0.9918  0.7081
  536MOL0     C72268   6.113   9.691   4.528  0.1760 -0.3047  0.1503
  536MOL0    Cl72269   5.934   9.649   4.527 -0.2213 -0.1463 -0.0711
  536MOL0     C72270   5.623  10.062   4.131 -0.4771 -0.0713  0.6009
  536MOL0     C72271   5.518  10.048   4.046 -0.6650  0.4856  0.3534
  536MOL0     O72272   5.411   9.840   3.848  0.2344  0.2164 -0.3020
  536MOL0     C72273   5.151  10.008   3.682  0.6759  0.3205 -0.2154
  536MOL0     C72274   5.036   9.986   3.606  0.5834  0.3668 -1.2213
  536MOL0     N72275   4.366   9.416   3.543 -0.3722 -0.7455  0.5095
  536MOL0     N72276   4.291   9.316   3.519 -0.7675  0.0846  0.0624
  536MOL0     C72277   3.046   9.201   3.077 -0.3927 -0.0609 -0.0469
  536MOL0     C72278   2.909   9.227   3.053  0.3006  0.9985  0.7541
  536MOL0     C72279   2.471   9.110   2.913  0.8696  0.5690 -0.4387
  536MOL0     C72280   2.403   9.125   3.039 -1.2193 -0.0649 -0.1619
  536MOL0     C72281   2.265   9.136   3.045 -0.0490  0.1454 -0.3500
  536MOL0     C72282   2.192   9.114   2.935 -0.2367  1.0077  0.5286
  536MOL0     O72283   2.057   9.114   2.915  0.2608 -0.1703 -0.1925
  536MOL0     C72284   1.979   9.141   3.033 -0.2177  0.4402  0.1293
  536MOL0     C72285   1.830   9.119   2.998  0.4413  0.0918 -0.9516
  536MOL0     C72286   1.742   9.150   3.118  0.1737 -0.0806  0.7334
  536MOL0     C72287   1.590   9.156   3.089  0.2810  0.3375 -0.0376
  536MOL0     C72288   1.544   9.037   3.014  0.1758 -0.5274 -0.6699
  536MOL0     C72289   1.504   8.941   2.959 -0.0378 -0.0353  0.2037
  536MOL0     C72290   2.260   9.086   2.810  1.2220 -0.1285 -0.3186
  536MOL0     C72291   2.396   9.089   2.797  0.9549 -0.0335  0.5737
  536MOL0     C72292   2.437   9.078   2.654 -0.6992 -0.4642  0.4993
  536MOL0     H72293   2.796   8.917   3.012  0.9755 -1.8645  0.3374
  536MOL0     H72294   3.041   8.864   3.073 -1.2029  0.1203  0.0039
  536MOL0     H72295   3.317   9.178   3.013 -0.5821  2.2600  1.4514
  536MOL0     H72296   3.327   9.181   3.183 -2.1464 -1.7005  0.6936
  536MOL0     H72297   3.484   9.008   3.008  2.8243 -2.6108  0.9241
  536MOL0     H72298   3.472   8.974   3.189 -1.1336 -1.2431 -0.8582
  536MOL0     H72299   3.545   9.205   3.234 -2.8374  0.5725  0.0661
  536MOL0     H72300   3.579   9.232   3.064 -1.5640  1.4266  2.6695
  536MOL0     H72301   3.709   9.029   3.246  0.7139  1.3038  0.1435
  536MOL0     H72302   3.750   9.029   3.072  3.2869  1.5916  0.1398
  536MOL0     H72303   3.815   9.252   3.066  0.6082  1.3239  1.2263
  536MOL0     H72304   3.769   9.282   3.231 -1.9797  0.9710 -2.2365
  536MOL0     H72305   3.954   9.086   3.281  0.1161 -0.8969 -1.2154
  536MOL0     H72306   4.002   9.118   3.106 -0.7660 -0.0783 -0.9823
  536MOL0     H72307   4.003   9.333   3.312  2.2388 -2.1821  2.3052
  536MOL0     H72308   4.086   9.334   3.151  1.6036 -0.8726 -1.0264
  536MOL0     H72309   4.137   9.144   3.396 -1.3535 -0.6785 -1.4705
  536MOL0     H72310   4.234   9.139   3.256 -1.2894 -2.6461  1.5051
  536MOL0     H72311   4.315   9.447   3.214 -0.0131  3.0263  0.4870
  536MOL0     H72312   4.478   9.637   3.295 -0.9164  1.0801 -0.3560
  536MOL0     H72313   4.435   9.698   3.466 -0.4988 -1.6628  1.0917
  536MOL0     H72314   4.606   9.578   3.553  2.5254  1.2916 -0.3490
  536MOL0     H72315   4.661   9.526   3.383  1.6630  1.0798 -1.7999
  536MOL0     H72316   4.645   9.820   3.499 -1.3830  0.6945  0.0233
  536MOL0     H72317   4.690   9.786   3.339 -0.0354  1.9407  1.9707
  536MOL0     H72318   4.890   9.661   3.416  1.5948  2.4103  0.1066
  536MOL0     H72319   4.835   9.686   3.591 -0.1962  2.7151  1.7573
  536MOL0     H72320   5.078   9.671   3.528 -0.9992  1.8515 -2.0870
  536MOL0     H72321   5.293   9.710   3.692  0.1739  0.2601  1.1153
  536MOL0     H72322   5.612  10.220   3.768  1.7952 -2.7877 -0.1417
  536MOL0     H72323   5.800  10.267   3.923 -2.1307  1.6364 -0.3862
  536MOL0     H72324   5.982  10.297   4.115  1.0544 -1.1227  0.1624
  536MOL0     H72325   5.817  10.357   4.127  1.2141 -0.8505 -2.9514
  536MOL0     H72326   5.955  10.451   4.298  1.4054 -0.1374  1.3334
  536MOL0     H72327   5.841  10.355   4.382  1.4140  2.9075  0.9865
  536MOL0     H72328   6.126  10.268   4.311 -1.2456  1.6263 -1.6773
  536MOL0     H72329   6.068  10.336   4.467  3.9807  0.7369 -0.5807
  536MOL0     H72330   5.987  10.065   4.367  0.7356  2.5332 -2.3816
  536MOL0     H72331   5.901  10.149   4.490 -0.8761  0.2193 -2.0278
  536MOL0     H72332   6.111  10.168   4.640  2.2435 -0.8400  1.2311
  536MOL0     H72333   6.206  10.108   4.515  0.1933  1.7655  1.3430
  536MOL0     H72334   6.159   9.938   4.687 -2.1778 -0.3671  1.6262
  536MOL0     H72335   5.992   9.922   4.639 -0.5611 -3.2083 -1.5149
  536MOL0     H72336   6.235   9.856   4.470 -1.2311 -0.1490 -0.2778
  536MOL0     H72337   6.066   9.842   4.414  0.8136  1.5169 -0.3439
  536MOL0     H72338   6.153   9.635   4.443  1.0363  1.0431 -0.3627
  536MOL0     H72339   6.158   9.653   4.621  0.3733  0.5030  0.3924
  536MOL0     H72340   5.616  10.010   4.226 -1.3370 -2.5951 -0.7562
  536MOL0     H72341   5.431   9.992   4.082 -0.3286 -1.4450 -1.5883
  536MOL0     H72342   5.174  10.109   3.714 -0.5032  0.6038 -0.1871
  536MOL0     H72343   4.959  10.059   3.585 -0.8692 -0.2903  1.3435
  536MOL0     H72344   3.116   9.283   3.092 -1.6969  1.4703 -1.9254
  536MOL0     H72345   2.870   9.328   3.045 -0.2919  0.6266 -1.7896
  536MOL0     H72346   2.459   9.118   3.132 -2.3205 -1.8108  0.4314
  536MOL0     H72347   2.216   9.159   3.140 -0.4596  3.4673 -1.2536
  536MOL0     H72348   2.003   9.243   3.063  1.2681  0.4090 -0.8445
  536MOL0     H72349   2.016   9.077   3.114  1.1117  0.5627 -0.3480
  536MOL0     H72350   1.811   9.017   2.962 -2.3941  0.2026  0.0518
  536MOL0     H72351   1.819   9.191   2.916  0.1481  1.3466  0.1604
  536MOL0     H72352   1.775   9.243   3.165  1.1061  1.1815 -2.1652
  536MOL0     H72353   1.758   9.064   3.184  1.6045 -0.9120 -0.6347
  536MOL0     H72354   1.542   9.174   3.185 -0.0790  1.4416 -0.4170
  536MOL0     H72355   1.571   9.243   3.027  0.7235 -0.3480 -1.1735
  536MOL0     H72356   1.487   8.856   2.896  0.1975 -0.8324  1.1913
  536MOL0     H72357   2.200   9.064   2.722 -0.4953  1.4034  0.4321
  536MOL0     H72358   2.454   8.973   2.627  0.5898 -0.2310  0.3873
  536MOL0     H72359   2.366   9.117   2.581  0.8845  1.2495 -0.2019
  536MOL0     H72360   2.528   9.136   2.641  0.2705 -1.8357  0.8905
  537MOL0     O72361   5.791   8.281   4.523  0.2673 -0.0504 -0.2668
  537MOL0     C72362   5.727   8.285   4.627 -0.8561 -0.6046  0.8600
  537MOL0     O72363   5.771   8.288   4.755  0.6747  0.4005 -0.1368
  537MOL0     C72364   5.906   8.304   4.771 -0.4537 -1.0972  1.0262
  537MOL0     C72365   5.988   8.197   4.783 -0.1162  0.7113  0.0569
  537MOL0     C72366   6.131   8.227   4.792  0.3226 -0.0608 -0.1060
  537MOL0     C72367   6.184   8.359   4.790  0.5604  0.1010  0.1380
  537MOL0     O72368   6.318   8.391   4.804 -0.2008  0.8404 -0.3372
  537MOL0     C72369   6.417   8.297   4.840 -0.4797 -0.0649  0.0574
  537MOL0     C72370   6.546   8.381   4.875 -0.6308  0.3923 -0.3908
  537MOL0     C72371   6.629   8.424   4.755  0.3481 -0.2220 -0.1333
  537MOL0     C72372   6.727   8.310   4.708 -0.0103 -0.4369  0.2410
  537MOL0     C72373   6.862   8.335   4.784 -0.3514  0.3049  0.1326
  537MOL0     C72374   6.958   8.225   4.761 -0.9640 -0.6112  0.9536
  537MOL0     C72375   7.096   8.261   4.837  0.4125  0.4536 -1.0389
  537MOL0     C72376   7.187   8.154   4.794 -0.1935 -0.1256  0.7147
  537MOL0     N72377   7.330   8.167   4.848  0.2636 -0.4531 -0.1683
  537MOL0     C72378   7.405   8.067   4.913  0.0848 -0.0470 -1.0636
  537MOL0     C72379   7.522   8.132   4.942 -0.2353  0.0072  0.1092
  537MOL0     C72380   7.629   8.076   5.027  0.8119  0.9205  0.1326
  537MOL0     C72381   7.708   8.189   5.097 -0.0532  0.2903  0.2430
  537MOL0     C72382   7.805   8.151   5.216  0.5403 -0.2965  0.4668
  537MOL0     C72383   7.892   8.028   5.179  0.7130 -0.0237  0.1619
  537MOL0     O72384   7.975   8.043   5.063  0.2913 -0.8072  0.6990
  537MOL0     C72385   8.111   8.065   5.074  0.5674 -0.5714  0.8162
  537MOL0     C72386   8.173   8.156   5.158 -0.4648 -0.1261 -0.5447
  537MOL0     C72387   8.309   8.160   5.171  0.3418 -0.3134 -0.3368
  537MOL0     C72388   8.390   8.086   5.085 -0.5968  0.0262 -0.1723
  537MOL0     C72389   8.536   8.093   5.082  0.0550  0.3025  0.0248
  537MOL0     O72390   8.607   8.054   4.968 -0.1378  0.0836 -0.1091
  537MOL0     C72391   8.737   8.085   4.933  0.5411  1.0189 -1.1320
  537MOL0     C72392   8.842   8.111   5.025  1.1327  0.3650  0.3274
  537MOL0     C72393   8.970   8.132   4.984  0.2898  0.2699 -0.0802
  537MOL0     C72394   9.007   8.121   4.846 -0.2349  0.5048  0.0410
  537MOL0     O72395   9.134   8.128   4.794  1.1252  0.1021  0.0735
  537MOL0     C72396   9.236   8.177   4.877 -0.3929  0.8692  0.4339
  537MOL0     C72397   9.296   8.072   4.962 -0.4979  0.5626 -0.5025
  537MOL0     C72398   9.422   8.121   5.032  0.3969  0.5082  0.6869
  537MOL0     C72399   9.542   8.042   5.007 -0.0674 -0.7262  0.2577
  537MOL0     C72400   9.652   8.102   5.077 -1.3328 -0.6285 -0.9202
  537MOL0     C72401   9.772   8.022   5.051  0.3402  0.6868  0.2087
  537MOL0     C72402   9.904   8.063   5.119 -0.4577  0.6499  0.3731
  537MOL0     C72403  10.029   7.994   5.058  0.0326  0.6137 -0.3440
  537MOL0    Cl72404  10.036   7.820   5.131  0.0040  0.7993  0.1348
  537MOL0     C72405   8.903   8.105   4.752 -0.0372 -0.3323 -0.6725
  537MOL0     C72406   8.778   8.078   4.800 -0.0619 -0.1481  0.2251
  537MOL0     O72407   8.585   8.124   5.190  0.3748 -0.2607  0.3205
  537MOL0     C72408   8.327   8.001   4.992 -0.4463 -0.4158 -0.7330
  537MOL0     C72409   8.190   8.000   4.984  0.0443  0.1745  0.3748
  537MOL0     N72410   7.527   8.252   4.877  0.0587 -0.1174  0.1031
  537MOL0     N72411   7.414   8.269   4.824  0.2179  0.3306  0.8917
  537MOL0     C72412   6.097   8.459   4.763  0.0165 -0.4710  0.4390
  537MOL0     C72413   5.957   8.436   4.744 -0.7558  0.1979  0.2410
  537MOL0     C72414   5.585   8.262   4.621  0.5854  0.7514  0.0283
  537MOL0     C72415   5.535   8.167   4.535 -0.5750  0.1908 -0.5938
  537MOL0     C72416   5.398   8.123   4.550 -0.2786 -0.2915  0.3887
  537MOL0     C72417   5.308   8.195   4.624 -0.2344 -0.4639  0.1397
  537MOL0     O72418   5.172   8.166   4.602  0.4517 -0.0866  0.0434
  537MOL0     C72419   5.144   8.032   4.636  0.3892 -0.6357 -0.2764
  537MOL0     C72420   4.992   8.024   4.671  0.5320  0.6095  0.6352
  537MOL0     C72421   4.935   8.134   4.763 -0.0013 -0.1756 -0.4675
  537MOL0     C72422   4.782   8.139   4.765 -0.1791 -0.0358  0.3784
  537MOL0     C72423   4.732   8.032   4.849 -0.1808  0.0210  0.4031
  537MOL0     C72424   4.679   7.948   4.917 -0.2040 -0.6226  0.2199
  537MOL0     C72425   5.356   8.297   4.708 -0.6427 -0.9602  0.3454
  537MOL0     C72426   5.497   8.329   4.709 -0.0318 -0.1571  0.2000
  537MOL0     C72427   5.535   8.460   4.778  0.0821  0.4079  0.6348
  537MOL0     H72428   5.946   8.097   4.778  0.0620  0.6667 -0.7308
  537MOL0     H72429   6.188   8.137   4.810  1.1453  0.3147 -0.7547
  537MOL0     H72430   6.383   8.243   4.928 -0.7637  0.1318  0.0696
  537MOL0     H72431   6.435   8.224   4.761  0.7072 -1.4550  1.5400
  537MOL0     H72432   6.610   8.309   4.927  1.2107  0.3041 -2.6148
  537MOL0     H72433   6.526   8.464   4.943  1.3205  0.3516  0.3093
  537MOL0     H72434   6.679   8.519   4.778 -0.6833  1.2201 -3.2298
  537MOL0     H72435   6.543   8.451   4.692  0.5532  0.9457  0.0587
  537MOL0     H72436   6.688   8.209   4.726  1.3363 -0.9715  0.2118
  537MOL0     H72437   6.743   8.323   4.601  3.9193 -0.2303  0.6997
  537MOL0     H72438   6.899   8.430   4.745  1.6635 -1.1214 -1.7068
  537MOL0     H72439   6.855   8.337   4.893 -1.0551 -3.9685  0.3617
  537MOL0     H72440   6.911   8.131   4.793 -1.1460 -1.4036 -1.4227
  537MOL0     H72441   6.971   8.221   4.652 -0.0669 -0.9048  1.0636
  537MOL0     H72442   7.080   8.263   4.945  0.1529  1.2811 -1.0833
  537MOL0     H72443   7.139   8.358   4.810 -0.7571  1.4925  0.6707
  537MOL0     H72444   7.150   8.054   4.817 -3.1604  1.1831  2.2216
  537MOL0     H72445   7.191   8.159   4.684  1.0526 -0.8390  0.7058
  537MOL0     H72446   7.375   7.973   4.957  1.0045  0.9785  1.9704
  537MOL0     H72447   7.586   8.012   5.105 -0.8710  1.4556 -0.3066
  537MOL0     H72448   7.697   8.020   4.962  0.3547 -1.3549  1.4949
  537MOL0     H72449   7.776   8.224   5.019 -0.8184  1.6062  0.1339
  537MOL0     H72450   7.642   8.274   5.115 -0.7949 -0.4969  1.4098
  537MOL0     H72451   7.744   8.109   5.297  2.1383 -0.9941  1.3526
  537MOL0     H72452   7.862   8.240   5.242  0.1355  0.9588 -2.5723
  537MOL0     H72453   7.821   7.946   5.161 -0.1751  0.6688  0.3869
  537MOL0     H72454   7.961   8.010   5.262 -1.0035 -1.0793  1.4289
  537MOL0     H72455   8.117   8.231   5.212 -1.9683  0.8184 -3.2486
  537MOL0     H72456   8.363   8.218   5.246 -1.4457 -1.2562  1.8130
  537MOL0     H72457   8.822   8.098   5.131  1.0139 -1.3719  0.1203
  537MOL0     H72458   9.052   8.144   5.055 -0.1567  1.2165  0.2839
  537MOL0     H72459   9.316   8.222   4.818  1.4978 -0.4146  1.8898
  537MOL0     H72460   9.189   8.264   4.924  0.0498  2.6175 -2.1491
  537MOL0     H72461   9.231   8.015   5.029 -0.2866 -2.8762 -2.9695
  537MOL0     H72462   9.324   7.992   4.892 -0.8788 -0.3478  0.3665
  537MOL0     H72463   9.441   8.226   5.009  0.4087  0.6980  1.5418
  537MOL0     H72464   9.408   8.115   5.140  1.1919 -2.6562  0.7345
  537MOL0     H72465   9.574   8.059   4.904 -1.0363  1.6702  0.2958
  537MOL0     H72466   9.527   7.935   5.023 -0.2800 -0.9040 -1.0007
  537MOL0     H72467   9.629   8.109   5.184 -0.6384  0.6803 -0.8354
  537MOL0     H72468   9.674   8.205   5.046 -1.9065  0.4497  1.9498
  537MOL0     H72469   9.741   7.927   5.097  0.1893 -0.1247 -1.4807
  537MOL0     H72470   9.800   8.003   4.947  0.6214  1.1190  0.2028
  537MOL0     H72471   9.906   8.039   5.225  2.1628  0.2602  0.2939
  537MOL0     H72472   9.917   8.171   5.104  2.4626  0.7655  2.8433
  537MOL0     H72473  10.032   7.990   4.949  0.1969 -0.5192 -0.3172
  537MOL0     H72474  10.116   8.048   5.097  0.9495 -0.0778 -1.3914
  537MOL0     H72475   8.925   8.111   4.646  1.2965  0.0547 -0.3960
  537MOL0     H72476   8.689   8.052   4.742 -1.8909 -0.2936  2.9081
  537MOL0     H72477   8.392   7.938   4.932  0.0778  0.4177 -1.0559
  537MOL0     H72478   8.155   7.929   4.909  3.8424  0.6660 -2.1314
  537MOL0     H72479   6.135   8.560   4.746 -0.3646 -0.3643  0.2173
  537MOL0     H72480   5.900   8.523   4.713  1.0298  1.6345  0.8110
  537MOL0     H72481   5.597   8.117   4.462 -0.6649 -2.9961  1.3252
  537MOL0     H72482   5.363   8.034   4.498 -0.3334  1.9629 -3.9126
  537MOL0     H72483   5.197   8.007   4.728 -1.3794  1.4550  1.4375
  537MOL0     H72484   5.165   7.964   4.553  0.8030  1.3949 -1.9127
  537MOL0     H72485   4.991   7.927   4.721 -0.3000 -0.0083 -0.5547
  537MOL0     H72486   4.937   8.018   4.577  1.8757 -2.7409 -0.0765
  537MOL0     H72487   4.966   8.236   4.736 -2.1663  1.1029  1.5033
  537MOL0     H72488   4.970   8.127   4.866 -0.7564 -1.3855 -0.2799
  537MOL0     H72489   4.758   8.235   4.810 -2.0652 -1.9458  3.8223
  537MOL0     H72490   4.750   8.125   4.661 -0.1531 -1.5715  0.5417
  537MOL0     H72491   4.634   7.874   4.979 -1.2204 -0.9705 -0.8989
  537MOL0     H72492   5.295   8.370   4.760  2.6473  2.5935 -0.3694
  537MOL0     H72493   5.537   8.527   4.692 -0.2393 -1.4994 -0.9259
  537MOL0     H72494   5.458   8.490   4.850  0.0157 -0.4384  0.9249
  537MOL0     H72495   5.638   8.460   4.815  0.7161  0.6720 -1.0470
  538MOL0     O72496   8.016   1.820   5.855 -0.0479 -0.4920  0.4353
  538MOL0     C72497   8.020   1.779   5.972  0.3576  0.2428 -0.8456
  538MOL0     O72498   8.126   1.752   6.043  0.0881 -0.4292  0.0725
  538MOL0     C72499   8.249   1.738   5.983 -0.1148  1.1397  0.2081
  538MOL0     C72500   8.359   1.814   6.029  0.0337  0.4698 -0.2417
  538MOL0     C72501   8.482   1.807   5.960 -0.4229 -0.4895  0.1440
  538MOL0     C72502   8.495   1.743   5.833  0.3185 -0.8156 -0.5335
  538MOL0     O72503   8.603   1.736   5.759 -0.2101 -0.1896  0.7231
  538MOL0     C72504   8.709   1.817   5.804  0.9034 -0.4350  0.0235
  538MOL0     C72505   8.833   1.812   5.712 -0.6235  0.5077 -0.3805
  538MOL0     C72506   8.962   1.869   5.778 -0.1840 -0.4223  0.1962
  538MOL0     C72507   9.073   1.885   5.675  0.0148 -0.3153  0.1182
  538MOL0     C72508   9.195   1.938   5.747 -0.5453 -0.0916  0.3976
  538MOL0     C72509   9.315   1.972   5.653  0.0686 -0.4203 -0.2073
  538MOL0     C72510   9.445   2.002   5.730  0.0743 -0.2014 -0.2622
  538MOL0     C72511   9.528   1.879   5.754 -0.1079  0.0896  0.5826
  538MOL0     N72512   9.632   1.906   5.847 -0.5123  0.3979 -0.3802
  538MOL0     C72513   9.729   2.009   5.840 -0.0782  0.3220  0.0822
  538MOL0     C72514   9.812   1.976   5.936 -0.3414 -0.9289  0.7360
  538MOL0     C72515   9.947   2.041   5.952  0.2679  0.2213 -0.2346
  538MOL0     C72516   9.946   2.148   6.061 -0.7790 -0.3904  0.1315
  538MOL0     C72517  10.097   2.186   6.089 -0.5358 -0.4502 -0.1220
  538MOL0     C72518  10.110   2.296   6.190 -0.2929  0.3628 -0.1725
  538MOL0     O72519  10.229   2.374   6.171 -0.0432 -0.3310 -0.3449
  538MOL0     C72520  10.255   2.470   6.269 -0.1607 -0.2610  0.3914
  538MOL0     C72521  10.392   2.511   6.286  0.3703  0.4713  0.0389
  538MOL0     C72522  10.425   2.606   6.381 -1.0656 -1.1540 -0.2872
  538MOL0     C72523  10.327   2.658   6.463 -0.4679  0.0402 -0.6427
  538MOL0     C72524  10.352   2.747   6.577 -0.2166 -0.2928  0.0374
  538MOL0     O72525  10.469   2.798   6.567 -0.4483 -0.5714 -0.4731
  538MOL0     C72526  10.531   2.876   6.657 -0.2817 -0.1018  0.3499
  538MOL0     C72527  10.473   2.991   6.723  0.1832 -0.1842 -0.1129
  538MOL0     C72528  10.552   3.068   6.812 -0.6834 -0.2190  0.0632
  538MOL0     C72529  10.683   3.029   6.836  0.4228  0.3532 -0.6646
  538MOL0     O72530  10.754   3.093   6.931 -0.0445  0.0306  0.3513
  538MOL0     C72531  10.770   3.007   7.046  0.8914  0.0788  0.0187
  538MOL0     C72532  10.876   3.085   7.130 -0.6474 -0.4031 -0.7339
  538MOL0     C72533  10.815   3.213   7.187  0.6358 -0.4461  0.2271
  538MOL0     C72534  10.936   3.307   7.229  0.2508  0.7271 -0.8260
  538MOL0     C72535  10.888   3.455   7.235  0.1032  1.2170 -1.0332
  538MOL0     C72536  11.001   3.556   7.266  0.1486  0.9598  0.5738
  538MOL0     C72537  10.955   3.697   7.293  0.6744  0.2665 -0.0929
  538MOL0     C72538  10.936   3.794   7.168 -0.4915 -0.8142  0.5873
  538MOL0    Cl72539  11.077   3.780   7.051 -0.3478 -0.3591  0.0757
  538MOL0     C72540  10.741   2.931   6.765 -0.1164 -0.5532 -0.7437
  538MOL0     C72541  10.668   2.844   6.683 -0.1415 -0.3187  0.4302
  538MOL0     O72542  10.279   2.758   6.675  0.0570  0.0661  0.5890
  538MOL0     C72543  10.193   2.619   6.455  0.1595 -0.6252 -0.4093
  538MOL0     C72544  10.157   2.523   6.361  0.5781  0.3590 -0.4988
  538MOL0     N72545   9.761   1.874   6.016 -0.1426 -1.1403  0.2390
  538MOL0     N72546   9.644   1.841   5.960 -1.0441  0.1792 -0.7864
  538MOL0     C72547   8.382   1.671   5.786  0.3466 -0.2614  0.6039
  538MOL0     C72548   8.262   1.667   5.866 -0.2867  0.6211  0.1444
  538MOL0     C72549   7.882   1.733   6.025 -0.5801  0.4218  0.3710
  538MOL0     C72550   7.766   1.796   5.979  0.6887 -0.2158  0.5808
  538MOL0     C72551   7.641   1.748   6.014 -0.0838  0.1493  0.0731
  538MOL0     C72552   7.626   1.655   6.119 -0.3945  0.0607 -0.2185
  538MOL0     O72553   7.509   1.622   6.176  0.2349 -0.2093 -0.4116
  538MOL0     C72554   7.394   1.714   6.146 -0.0196 -0.2352  0.1559
  538MOL0     C72555   7.279   1.682   6.241 -0.3465 -0.2224  0.3675
  538MOL0     C72556   7.280   1.757   6.369 -0.6768 -0.2633 -1.1521
  538MOL0     C72557   7.168   1.715   6.467  0.5695 -0.0815  0.2315
  538MOL0     C72558   7.177   1.575   6.507 -0.1707 -0.2244 -0.9410
  538MOL0     C72559   7.194   1.456   6.540 -0.6627  0.4924 -0.0524
  538MOL0     C72560   7.735   1.603   6.175 -0.4382  0.3302 -0.1774
  538MOL0     C72561   7.866   1.633   6.127 -0.3011  0.0339  0.9379
  538MOL0     C72562   7.986   1.560   6.188 -0.8607 -0.2320 -0.2575
  538MOL0     H72563   8.348   1.866   6.123  1.0779 -1.8087  1.2339
  538MOL0     H72564   8.556   1.879   5.994 -0.7271  1.3655 -2.7438
  538MOL0     H72565   8.689   1.920   5.835 -1.0916 -1.0404  0.9756
  538MOL0     H72566   8.735   1.782   5.904 -3.3104  1.0478  1.8625
  538MOL0     H72567   8.811   1.866   5.620  0.1199  1.1596 -0.1857
  538MOL0     H72568   8.856   1.707   5.689  2.3083  0.9862 -0.0888
  538MOL0     H72569   8.995   1.799   5.856  2.1700  0.5749  0.1998
  538MOL0     H72570   8.945   1.957   5.841  0.4646  0.6690 -1.1058
  538MOL0     H72571   9.085   1.788   5.625 -2.4099 -1.6576  1.9368
  538MOL0     H72572   9.036   1.954   5.599 -4.2677 -0.1365  2.0876
  538MOL0     H72573   9.162   2.032   5.792 -0.5186  0.7267 -1.2074
  538MOL0     H72574   9.231   1.865   5.820 -0.8053 -0.4589  0.1602
  538MOL0     H72575   9.339   1.897   5.578  1.3885 -0.5712  0.3404
  538MOL0     H72576   9.289   2.061   5.594 -4.1824  1.3480  3.7509
  538MOL0     H72577   9.420   2.048   5.826  2.4441 -1.1489  0.8720
  538MOL0     H72578   9.499   2.077   5.672 -1.0146  1.3134  0.5935
  538MOL0     H72579   9.464   1.802   5.797 -0.1619 -1.0218 -1.3883
  538MOL0     H72580   9.572   1.841   5.661  1.3004 -0.7850  1.5698
  538MOL0     H72581   9.747   2.081   5.762  0.4796  1.3493  1.1319
  538MOL0     H72582  10.018   1.962   5.977 -0.1893 -0.9839 -2.4614
  538MOL0     H72583   9.985   2.090   5.862  2.0711  3.1148  1.9202
  538MOL0     H72584   9.884   2.233   6.031 -1.9670 -1.5149 -0.7368
  538MOL0     H72585   9.898   2.113   6.153 -2.7834  1.3014 -0.2139
  538MOL0     H72586  10.136   2.232   5.998 -0.5644 -1.7502 -0.8293
  538MOL0     H72587  10.162   2.102   6.115 -1.0997 -0.5071  1.2093
  538MOL0     H72588  10.116   2.249   6.289  1.4236  0.2816 -0.2806
  538MOL0     H72589  10.019   2.357   6.190  0.4911  1.6653  1.9331
  538MOL0     H72590  10.473   2.467   6.228  0.6720  0.1309  0.7177
  538MOL0     H72591  10.530   2.608   6.409 -0.8682 -2.8508 -0.7990
  538MOL0     H72592  10.372   3.020   6.696 -0.5721 -2.4093  0.1237
  538MOL0     H72593  10.526   3.158   6.865 -0.7465 -0.6902  0.8457
  538MOL0     H72594  10.679   3.000   7.105  0.6838  0.5716 -0.2357
  538MOL0     H72595  10.802   2.903   7.033 -2.3266 -0.9459 -0.4624
  538MOL0     H72596  10.897   3.026   7.220 -4.8969  0.1859  0.9051
  538MOL0     H72597  10.962   3.097   7.064 -1.2559 -0.9531 -1.6625
  538MOL0     H72598  10.748   3.250   7.110  0.6459  2.1979  1.4116
  538MOL0     H72599  10.755   3.197   7.277  1.4254 -1.8996  0.5342
  538MOL0     H72600  11.012   3.304   7.150  0.9773  0.2742 -0.1331
  538MOL0     H72601  10.976   3.275   7.326  0.1073 -1.0049 -1.2879
  538MOL0     H72602  10.806   3.460   7.308  0.1001 -1.4699 -0.7561
  538MOL0     H72603  10.854   3.482   7.135 -2.6380 -0.0126 -0.5230
  538MOL0     H72604  11.047   3.525   7.361 -0.4676  0.0176  0.5841
  538MOL0     H72605  11.072   3.560   7.183 -1.0827  0.1123 -0.5613
  538MOL0     H72606  11.029   3.747   7.357  1.9587  0.4862 -1.6679
  538MOL0     H72607  10.860   3.697   7.347 -0.1982  3.4404 -1.3939
  538MOL0     H72608  10.844   3.765   7.116 -0.9448  1.5389 -0.0408
  538MOL0     H72609  10.911   3.895   7.200 -0.5236 -1.0418  1.3126
  538MOL0     H72610  10.844   2.898   6.773  0.2711  0.1452 -2.3641
  538MOL0     H72611  10.718   2.764   6.629  2.7599  0.6180  1.5397
  538MOL0     H72612  10.110   2.655   6.516 -0.1716 -0.4354 -0.9697
  538MOL0     H72613  10.055   2.486   6.354  1.4194 -1.8609 -2.5931
  538MOL0     H72614   8.384   1.621   5.689  2.0397 -0.5439  0.7554
  538MOL0     H72615   8.182   1.613   5.817  0.5844  1.2660 -2.1260
  538MOL0     H72616   7.774   1.876   5.906 -0.1013 -0.7835 -0.1478
  538MOL0     H72617   7.560   1.803   5.967 -0.5523  0.6480  1.4126
  538MOL0     H72618   7.358   1.679   6.049  1.2635 -2.7019  0.5015
  538MOL0     H72619   7.425   1.818   6.157 -1.2804 -0.0008  1.9852
  538MOL0     H72620   7.285   1.574   6.257  0.2348 -0.3761 -0.7689
  538MOL0     H72621   7.191   1.701   6.178  0.9804 -1.3402 -1.9821
  538MOL0     H72622   7.271   1.863   6.343  1.8150  0.1689 -0.4956
  538MOL0     H72623   7.373   1.751   6.427  0.4795  1.0152 -2.7564
  538MOL0     H72624   7.172   1.779   6.556 -0.2629  2.1541 -1.2455
  538MOL0     H72625   7.064   1.724   6.432  1.0691  0.6468 -1.1281
  538MOL0     H72626   7.209   1.356   6.577 -0.0348  0.1750 -1.1377
  538MOL0     H72627   7.716   1.524   6.246 -1.5086 -0.8225 -1.6673
  538MOL0     H72628   8.056   1.621   6.245  0.2518 -1.5327 -0.1863
  538MOL0     H72629   7.955   1.489   6.265 -0.6602  1.7220  1.7359
  538MOL0     H72630   8.047   1.518   6.107 -1.9390 -1.0378 -0.6903
  539MOL0     O72631   1.748   2.867   2.319  0.2815  0.4836 -0.7579
  539MOL0     C72632   1.674   2.927   2.249  0.1147 -0.9178 -0.1768
  539MOL0     O72633   1.716   2.981   2.131 -0.5958  0.2312  0.8185
  539MOL0     C72634   1.841   2.944   2.077  0.0574 -0.4030  0.4115
  539MOL0     C72635   1.966   2.993   2.123 -0.0592  0.4326 -0.7314
  539MOL0     C72636   2.086   2.945   2.064  0.9170  1.0144 -0.1153
  539MOL0     C72637   2.081   2.871   1.947 -0.0470  0.4463 -0.0129
  539MOL0     O72638   2.190   2.816   1.893  0.0395  0.2442  0.3300
  539MOL0     C72639   2.202   2.780   1.752 -0.1384 -0.9022 -1.2059
  539MOL0     C72640   2.346   2.742   1.734  0.3865  0.6134  0.2062
  539MOL0     C72641   2.380   2.617   1.807  0.3823 -0.4458  0.4165
  539MOL0     C72642   2.517   2.558   1.772 -0.6574  0.6683  0.4707
  539MOL0     C72643   2.623   2.663   1.792 -1.1227 -0.4453 -0.7004
  539MOL0     C72644   2.767   2.597   1.805  0.2085  0.1378 -0.0740
  539MOL0     C72645   2.801   2.545   1.940 -0.1268  0.2280  0.3131
  539MOL0     C72646   2.938   2.483   1.968  0.5091 -0.0564  0.2505
  539MOL0     N72647   2.965   2.356   1.899 -0.2720 -0.3928 -0.6153
  539MOL0     C72648   2.966   2.228   1.959 -0.2606  0.8614  0.2977
  539MOL0     C72649   3.037   2.154   1.875 -0.7060 -0.2455 -0.3099
  539MOL0     C72650   3.068   2.004   1.890 -0.1581  0.0616 -0.5984
  539MOL0     C72651   3.219   1.971   1.873  1.2706  0.8464  0.0327
  539MOL0     C72652   3.284   2.020   1.747  0.4899 -1.0289  0.1764
  539MOL0     C72653   3.412   1.953   1.709 -0.1210  0.0642  0.0355
  539MOL0     O72654   3.529   1.987   1.791  0.1579 -0.4766  0.3726
  539MOL0     C72655   3.651   1.929   1.757 -0.0788 -0.0070 -0.1716
  539MOL0     C72656   3.758   1.957   1.837  0.2045  0.8075  0.2915
  539MOL0     C72657   3.879   1.909   1.808 -0.6544 -0.4286  0.0292
  539MOL0     C72658   3.904   1.825   1.697  0.7417  0.4375 -0.9238
  539MOL0     C72659   4.041   1.785   1.653 -0.3135 -0.1487  0.8030
  539MOL0     O72660   4.144   1.838   1.723  0.3541 -0.5599 -0.8397
  539MOL0     C72661   4.269   1.842   1.669  0.5526 -0.3034  0.0928
  539MOL0     C72662   4.320   1.964   1.626  0.7393 -0.4146 -0.2237
  539MOL0     C72663   4.431   1.969   1.543  0.0868 -0.0571 -0.1859
  539MOL0     C72664   4.499   1.855   1.511  0.4322 -0.6511 -0.0409
  539MOL0     O72665   4.593   1.874   1.411  0.4228  0.6024 -0.0904
  539MOL0     C72666   4.706   1.793   1.454 -1.0303 -0.1517  0.5470
  539MOL0     C72667   4.823   1.829   1.365 -0.5336 -0.5600 -0.3485
  539MOL0     C72668   4.943   1.743   1.399  0.0134 -0.2581  0.2560
  539MOL0     C72669   5.056   1.755   1.297 -1.2746  0.4145  0.1595
  539MOL0     C72670   5.182   1.685   1.333  0.4665  0.3146 -0.9593
  539MOL0     C72671   5.311   1.700   1.248  0.3030 -0.4331  0.3674
  539MOL0     C72672   5.423   1.609   1.307  0.2241 -0.7299  0.4110
  539MOL0     C72673   5.542   1.614   1.212  0.3843  0.8863  0.4409
  539MOL0    Cl72674   5.650   1.472   1.241 -0.2498  0.3522 -0.1672
  539MOL0     C72675   4.450   1.732   1.558 -0.1584  0.0028  0.2899
  539MOL0     C72676   4.334   1.720   1.637  0.6081 -0.1635 -0.6382
  539MOL0     O72677   4.058   1.722   1.552  0.5454  0.0769  0.7131
  539MOL0     C72678   3.797   1.796   1.618 -0.6573 -0.3523 -0.4725
  539MOL0     C72679   3.669   1.850   1.643  0.4164  0.7492  0.5713
  539MOL0     N72680   3.082   2.235   1.773 -0.1454  0.0624  0.3835
  539MOL0     N72681   3.035   2.355   1.784  0.2189 -0.3876  0.1615
  539MOL0     C72682   1.952   2.827   1.904  0.6572 -0.8624  0.2216
  539MOL0     C72683   1.832   2.869   1.964  0.4736 -0.2278  0.0826
  539MOL0     C72684   1.541   2.947   2.312  0.6158  0.6020 -0.1957
  539MOL0     C72685   1.530   2.938   2.456  0.4337  0.5469  0.2684
  539MOL0     C72686   1.404   2.973   2.506  0.0401 -0.1000 -0.1426
  539MOL0     C72687   1.296   3.004   2.432 -0.0274  0.7788 -0.4366
  539MOL0     O72688   1.183   3.032   2.500  0.1880  0.1879 -0.3559
  539MOL0     C72689   1.101   3.143   2.456 -0.6057  0.2182  0.0473
  539MOL0     C72690   0.955   3.089   2.451  0.0335 -0.1175 -0.1364
  539MOL0     C72691   0.850   3.201   2.446 -0.4218  0.1378  0.1406
  539MOL0     C72692   0.705   3.145   2.444 -0.1545 -0.7679  0.1326
  539MOL0     C72693   0.668   3.029   2.361  0.0638  0.5991  0.0368
  539MOL0     C72694   0.639   2.940   2.285 -0.1189  0.2486 -0.1038
  539MOL0     C72695   1.303   2.996   2.290 -0.6612  0.3543 -0.0360
  539MOL0     C72696   1.425   2.967   2.231  0.7558 -0.4814 -0.7024
  539MOL0     C72697   1.432   2.971   2.079 -0.2165  0.2854 -0.0102
  539MOL0     H72698   1.974   3.063   2.205 -0.9264 -2.6961  2.2453
  539MOL0     H72699   2.187   2.968   2.096  1.0373  0.0191  0.2481
  539MOL0     H72700   2.139   2.692   1.736  0.0673 -1.0979 -0.9673
  539MOL0     H72701   2.198   2.868   1.688  0.9953  1.6932  2.0142
  539MOL0     H72702   2.402   2.825   1.777 -0.8249  2.0269 -0.8653
  539MOL0     H72703   2.367   2.731   1.628  1.7327  0.6202  0.4518
  539MOL0     H72704   2.306   2.539   1.786 -0.9723  0.4990  1.4825
  539MOL0     H72705   2.374   2.649   1.911 -3.4543  1.8316 -0.3076
  539MOL0     H72706   2.534   2.480   1.847 -2.9669 -3.0535 -2.5107
  539MOL0     H72707   2.531   2.515   1.673  1.2945  3.1195 -0.4412
  539MOL0     H72708   2.620   2.738   1.713 -0.8739  1.0097  0.6306
  539MOL0     H72709   2.602   2.710   1.889 -1.5545 -1.8134 -0.0958
  539MOL0     H72710   2.776   2.508   1.742  2.6338  1.2050 -1.3687
  539MOL0     H72711   2.843   2.668   1.773 -2.0709  2.5484 -0.4404
  539MOL0     H72712   2.719   2.479   1.972 -1.8142  2.7600  1.6249
  539MOL0     H72713   2.783   2.629   2.008 -0.7316  0.5309 -0.2117
  539MOL0     H72714   3.016   2.550   1.930  0.5372  0.0910  0.5616
  539MOL0     H72715   2.943   2.457   2.075 -0.4629  1.2126  0.6280
  539MOL0     H72716   2.927   2.194   2.054 -0.8935 -0.0629 -0.2841
  539MOL0     H72717   3.024   1.973   1.985  0.9853  0.7209  0.1741
  539MOL0     H72718   3.011   1.956   1.810 -1.1569 -0.3999  0.3787
  539MOL0     H72719   3.264   2.010   1.965 -0.1182 -2.5913  2.3478
  539MOL0     H72720   3.239   1.864   1.879  0.9696  0.4894 -3.4606
  539MOL0     H72721   3.312   2.126   1.753  1.1692 -1.2171  0.4433
  539MOL0     H72722   3.215   2.005   1.664  1.9785 -1.5755 -1.0121
  539MOL0     H72723   3.429   1.982   1.605 -0.3474  0.7767  0.1901
  539MOL0     H72724   3.390   1.846   1.712  0.3307 -0.3340 -4.5933
  539MOL0     H72725   3.745   2.037   1.910  2.9352  0.2706  1.4864
  539MOL0     H72726   3.953   1.939   1.881  0.0928 -2.1216  0.0272
  539MOL0     H72727   4.261   2.051   1.653  1.2042 -0.2382  0.2146
  539MOL0     H72728   4.450   2.062   1.491 -1.2560  1.1512  1.3899
  539MOL0     H72729   4.739   1.808   1.557  1.8849  0.3302 -0.3527
  539MOL0     H72730   4.686   1.687   1.437  0.9898 -0.8632  2.1316
  539MOL0     H72731   4.804   1.816   1.258  0.2234 -0.1395 -0.5399
  539MOL0     H72732   4.856   1.933   1.376 -0.3898 -0.5666 -0.7147
  539MOL0     H72733   4.981   1.768   1.499 -0.1285 -1.2161  0.5616
  539MOL0     H72734   4.905   1.640   1.400  0.2425 -0.4231 -2.4127
  539MOL0     H72735   5.094   1.858   1.296  1.1072 -0.3750 -1.3094
  539MOL0     H72736   5.026   1.728   1.195  2.9482 -0.5831 -1.0603
  539MOL0     H72737   5.161   1.578   1.338 -1.1563  0.6771  2.1521
  539MOL0     H72738   5.209   1.725   1.431 -0.5667 -0.5207 -0.3062
  539MOL0     H72739   5.294   1.670   1.144 -0.6680  2.3959 -0.3776
  539MOL0     H72740   5.342   1.804   1.241  0.8945 -0.6802 -1.0331
  539MOL0     H72741   5.384   1.507   1.316  1.3798 -1.3387 -1.1966
  539MOL0     H72742   5.454   1.643   1.407 -1.4099  0.1221  0.6683
  539MOL0     H72743   5.504   1.605   1.109 -2.6447 -1.2464  1.5819
  539MOL0     H72744   5.595   1.708   1.228  1.5380  0.0691  1.6918
  539MOL0     H72745   4.496   1.642   1.519  1.8857  0.7338  0.8729
  539MOL0     H72746   4.290   1.626   1.668 -0.0611  0.2927 -0.1945
  539MOL0     H72747   3.816   1.748   1.523 -3.9745  1.1325 -2.0576
  539MOL0     H72748   3.584   1.823   1.581  1.1856 -0.2396 -0.0797
  539MOL0     H72749   1.938   2.758   1.821  0.1107  1.5882 -1.8731
  539MOL0     H72750   1.734   2.847   1.923  1.3007  0.1809 -2.2815
  539MOL0     H72751   1.612   2.915   2.523  1.1187  1.1062 -0.3718
  539MOL0     H72752   1.399   2.978   2.615 -1.9353 -2.1191 -0.0717
  539MOL0     H72753   1.147   3.184   2.366 -1.0783  4.7836  1.6198
  539MOL0     H72754   1.110   3.229   2.523 -2.2843  1.0712 -0.7509
  539MOL0     H72755   0.948   3.025   2.539  2.9743 -3.8808 -2.3249
  539MOL0     H72756   0.957   3.019   2.367  3.1113 -0.9909  0.5351
  539MOL0     H72757   0.860   3.267   2.359  0.0069  2.5198  1.9034
  539MOL0     H72758   0.870   3.269   2.529  1.2055  2.0503 -1.7077
  539MOL0     H72759   0.671   3.134   2.548 -1.6204 -3.5056 -0.5423
  539MOL0     H72760   0.639   3.222   2.403 -3.0378 -3.1193  0.0364
  539MOL0     H72761   0.624   2.859   2.216 -0.7305 -0.5325  0.9099
  539MOL0     H72762   1.209   3.011   2.237 -0.4402 -4.2566 -2.1660
  539MOL0     H72763   1.464   2.872   2.043 -0.1537  0.2282  0.2016
  539MOL0     H72764   1.338   2.997   2.029 -1.5548 -2.2246  1.0002
  539MOL0     H72765   1.509   3.037   2.039 -1.0847  0.9438 -0.6346
  540MOL0     O72766  10.353  10.522   9.824 -0.9622 -0.0358 -0.1759
  540MOL0     C72767  10.338  10.644   9.838 -0.7923 -0.6175 -0.3078
  540MOL0     O72768  10.429  10.732   9.799  0.1427  0.9791  0.3254
  540MOL0     C72769  10.527  10.684   9.714 -0.5648 -0.3993 -0.4337
  540MOL0     C72770  10.506  10.625   9.589  0.8799  0.1930  0.6939
  540MOL0     C72771  10.602  10.554   9.520 -0.4268 -0.5466 -0.2334
  540MOL0     C72772  10.732  10.554   9.573 -0.6363 -0.1886 -0.1962
  540MOL0     O72773  10.821  10.469   9.506  0.4475 -0.1220 -1.3537
  540MOL0     C72774  10.800  10.324   9.541  0.3604 -0.9114 -0.1460
  540MOL0     C72775  10.923  10.252   9.490  0.4447  0.2732  0.2382
  540MOL0     C72776  11.052  10.297   9.548  0.6361  0.2286 -0.5663
  540MOL0     C72777  11.172  10.229   9.486 -0.0252  0.0866 -0.3938
  540MOL0     C72778  11.269  10.198   9.602  0.2808 -0.1842 -0.7492
  540MOL0     C72779  11.338  10.324   9.648  0.2196 -0.1068 -0.0227
  540MOL0     C72780  11.465  10.296   9.727  0.2837 -0.0253  0.5169
  540MOL0     C72781  11.418  10.245   9.866 -0.8482 -0.5337 -0.3182
  540MOL0     N72782  11.541  10.188   9.930  0.1884 -0.5740 -0.3188
  540MOL0     C72783  11.673  10.210   9.897 -0.2457  1.1953  0.5354
  540MOL0     C72784  11.743  10.120   9.965 -0.2780  0.0118  0.5540
  540MOL0     C72785  11.886  10.117   9.969 -0.7597 -0.5574 -0.9277
  540MOL0     C72786  11.957  10.251  10.007 -0.4475  0.3350  0.8878
  540MOL0     C72787  12.100  10.214  10.024 -0.1956 -0.3287 -0.1293
  540MOL0     C72788  12.187  10.334  10.070  1.0985  0.0880  0.4915
  540MOL0     O72789  12.150  10.457  10.006 -0.5502 -0.0109 -0.1134
  540MOL0     C72790  12.239  10.570  10.022  0.6257 -0.3495  1.2063
  540MOL0     C72791  12.199  10.675   9.940 -0.3498  0.2898 -0.5328
  540MOL0     C72792  12.274  10.792   9.935 -0.6109  0.5894 -0.0974
  540MOL0     C72793  12.399  10.795  10.005 -0.0162  0.3277  0.3488
  540MOL0     C72794  12.499  10.901   9.985  0.4190 -0.0411  0.3069
  540MOL0     O72795  12.610  10.904  10.069 -0.5051  0.4526 -0.0102
  540MOL0     C72796  12.707  11.000  10.062 -0.1432  0.3507 -0.5107
  540MOL0     C72797  12.685  11.123  10.016 -0.3967  0.3396 -0.3987
  540MOL0     C72798  12.800  11.213   9.991 -0.0944  0.1324  0.0972
  540MOL0     C72799  12.930  11.175  10.009 -0.1459 -0.4631 -0.8554
  540MOL0     O72800  13.039  11.243   9.966  0.5022  0.1913  0.6035
  540MOL0     C72801  13.169  11.211  10.007 -0.6228 -0.4367 -0.3854
  540MOL0     C72802  13.278  11.291   9.936 -0.6568  0.2512  0.3395
  540MOL0     C72803  13.417  11.234   9.981  0.0146 -0.2423 -0.7821
  540MOL0     C72804  13.541  11.314   9.936  0.0251  0.5056  0.0515
  540MOL0     C72805  13.660  11.250  10.009  0.0007 -0.1398  0.0658
  540MOL0     C72806  13.788  11.304   9.938 -0.3116  0.0721 -0.7348
  540MOL0     C72807  13.827  11.453   9.954  0.0293 -0.8930  0.7448
  540MOL0     C72808  13.920  11.501   9.838  0.6883 -0.8566  0.0166
  540MOL0    Cl72809  14.070  11.403   9.822 -0.5130  0.0450  0.1707
  540MOL0     C72810  12.947  11.059  10.077 -0.4075  0.3431  0.1407
  540MOL0     C72811  12.839  10.965  10.107  0.1695 -1.3628  0.5485
  540MOL0     O72812  12.478  10.973   9.885  0.0123 -0.4203 -0.9464
  540MOL0     C72813  12.430  10.686  10.092 -0.2145 -0.5695  0.1000
  540MOL0     C72814  12.349  10.577  10.112 -0.4164 -0.0649 -0.0564
  540MOL0     N72815  11.663  10.051  10.048  0.2855 -0.0583 -0.3222
  540MOL0     N72816  11.536  10.086  10.021 -0.0263 -0.4905  0.3617
  540MOL0     C72817  10.757  10.614   9.695  0.0877  0.8866  0.0673
  540MOL0     C72818  10.656  10.680   9.770  0.1165  0.2029  0.0259
  540MOL0     C72819  10.212  10.694   9.909 -0.6583 -0.1132  1.2423
  540MOL0     C72820  10.153  10.806   9.858  0.3885 -0.6340 -0.3741
  540MOL0     C72821  10.033  10.862   9.906 -0.1749  0.2325 -0.6595
  540MOL0     C72822   9.970  10.809  10.014 -0.1182 -0.0870  0.4453
  540MOL0     O72823   9.869  10.900  10.069 -0.6347 -0.3261  0.6750
  540MOL0     C72824   9.814  10.868  10.193  0.4160  0.0715 -0.6048
  540MOL0     C72825   9.740  10.990  10.233 -0.3087  0.3340 -0.1276
  540MOL0     C72826   9.620  11.010  10.144  0.3042 -0.1270  0.3974
  540MOL0     C72827   9.536  11.137  10.174  0.5066  0.0051  0.7055
  540MOL0     C72828   9.425  11.106  10.264  0.3997  0.0979 -0.8031
  540MOL0     C72829   9.333  11.049  10.321 -0.3574  0.1011  0.3482
  540MOL0     C72830  10.026  10.688  10.064  0.1395  0.7390  0.0728
  540MOL0     C72831  10.144  10.622  10.012  0.8052  1.0816  0.1433
  540MOL0     C72832  10.210  10.504  10.087  0.0236  0.6352  0.4139
  540MOL0     H72833  10.408  10.622   9.542  0.6945  2.3963  0.8168
  540MOL0     H72834  10.596  10.499   9.426  0.7272 -0.0511 -0.6138
  540MOL0     H72835  10.785  10.308   9.648  0.0634  0.9887  0.1291
  540MOL0     H72836  10.717  10.281   9.485 -0.3235 -0.5119  0.5327
  540MOL0     H72837  10.931  10.266   9.382 -2.0544  3.4613  0.3250
  540MOL0     H72838  10.910  10.145   9.509 -0.8411 -0.0006 -1.8830
  540MOL0     H72839  11.048  10.283   9.656 -0.0459 -1.8328 -0.8285
  540MOL0     H72840  11.074  10.404   9.543  2.6541 -0.0352  1.2093
  540MOL0     H72841  11.145  10.136   9.435 -0.8548 -0.5937  1.2364
  540MOL0     H72842  11.218  10.288   9.406  1.8013 -0.9684 -0.1865
  540MOL0     H72843  11.217  10.146   9.683  1.7652 -0.4406  0.0661
  540MOL0     H72844  11.350  10.129   9.582 -0.0833 -1.3933  1.5411
  540MOL0     H72845  11.377  10.372   9.558  2.7534 -2.6852 -0.4464
  540MOL0     H72846  11.264  10.383   9.703 -0.0847  1.3516 -1.8935
  540MOL0     H72847  11.522  10.388   9.738  3.5660 -1.6091 -1.5831
  540MOL0     H72848  11.534  10.229   9.675 -1.7555 -1.8334 -0.0474
  540MOL0     H72849  11.383  10.336   9.914  0.8970  0.5528 -1.0107
  540MOL0     H72850  11.330  10.181   9.871 -1.0290 -0.2359  0.3288
  540MOL0     H72851  11.712  10.288   9.832  1.2708  0.4620  0.5147
  540MOL0     H72852  11.919  10.036  10.034 -1.8148 -0.7858 -0.6611
  540MOL0     H72853  11.922  10.079   9.873  0.6711  1.1573 -1.1346
  540MOL0     H72854  11.921  10.335   9.946 -0.1158  1.6258  2.4063
  540MOL0     H72855  11.923  10.268  10.109 -0.3582 -3.1056  1.6202
  540MOL0     H72856  12.149  10.190   9.929  0.4991 -1.3483  0.4628
  540MOL0     H72857  12.118  10.128  10.090  1.8018 -1.2510 -1.7462
  540MOL0     H72858  12.292  10.310  10.050  0.6031 -1.0715 -0.9070
  540MOL0     H72859  12.176  10.339  10.178  2.4114  0.3567  0.6323
  540MOL0     H72860  12.105  10.685   9.885 -2.2421 -1.0099  2.2374
  540MOL0     H72861  12.233  10.873   9.876 -0.9553 -0.2510 -1.0525
  540MOL0     H72862  12.584  11.163  10.009 -1.1622 -1.6298 -1.4053
  540MOL0     H72863  12.784  11.314   9.954 -0.0794 -0.8364 -2.8534
  540MOL0     H72864  13.186  11.230  10.113  1.6734 -0.1458 -0.7562
  540MOL0     H72865  13.195  11.107   9.983 -1.4283 -0.6254 -0.4687
  540MOL0     H72866  13.274  11.286   9.827  1.2249  1.1230  0.1997
  540MOL0     H72867  13.266  11.396   9.964  1.5541  0.6389  0.0572
  540MOL0     H72868  13.422  11.222  10.090  0.7350  0.1538 -0.7622
  540MOL0     H72869  13.434  11.134   9.940  1.4736 -0.2996 -0.1331
  540MOL0     H72870  13.537  11.421   9.958 -0.7830  0.4790  0.0733
  540MOL0     H72871  13.556  11.301   9.828  1.8478 -0.0209  0.3347
  540MOL0     H72872  13.658  11.141  10.014  0.1760 -0.2608 -1.7925
  540MOL0     H72873  13.651  11.292  10.109  0.0841 -2.0070  0.8787
  540MOL0     H72874  13.872  11.245   9.977 -0.4133  0.4772  0.1123
  540MOL0     H72875  13.774  11.287   9.831 -0.7423  0.0543 -0.6771
  540MOL0     H72876  13.877  11.471  10.050 -0.1350 -0.5555  0.7667
  540MOL0     H72877  13.734  11.510   9.948  0.1869 -0.6767  0.2989
  540MOL0     H72878  13.870  11.508   9.741  0.0464  3.6899  0.4751
  540MOL0     H72879  13.940  11.604   9.868  0.6260 -1.7126  3.4155
  540MOL0     H72880  13.045  11.017  10.099  0.3950  0.9350 -2.0061
  540MOL0     H72881  12.857  10.867  10.150  2.6051 -1.6593 -0.9189
  540MOL0     H72882  12.521  10.702  10.149 -1.0545 -1.0070  1.6325
  540MOL0     H72883  12.367  10.506  10.193  0.9232 -0.6320 -0.8123
  540MOL0     H72884  10.861  10.622   9.727 -0.7309  4.2582  2.4051
  540MOL0     H72885  10.697  10.738   9.852  0.0852  0.7306 -0.3207
  540MOL0     H72886  10.205  10.857   9.779  2.1953 -1.4007  0.2656
  540MOL0     H72887   9.998  10.959   9.872 -0.6143  0.6429  0.8687
  540MOL0     H72888   9.895  10.847  10.264 -0.9362 -0.5687  0.7920
  540MOL0     H72889   9.740  10.788  10.200  0.6887 -0.0811  1.0805
  540MOL0     H72890   9.803  11.079  10.215  0.6318 -0.4846 -1.0292
  540MOL0     H72891   9.701  10.978  10.334  0.4802 -0.3782  0.0982
  540MOL0     H72892   9.554  10.922  10.140  1.0397 -0.6707 -3.1226
  540MOL0     H72893   9.653  11.021  10.041 -1.4056  1.6870 -0.0331
  540MOL0     H72894   9.595  11.213  10.225  1.2549  0.2382 -0.4519
  540MOL0     H72895   9.499  11.184  10.082  2.3727 -1.7263 -1.0409
  540MOL0     H72896   9.274  10.997  10.394  1.0891 -1.7780  0.2737
  540MOL0     H72897   9.977  10.636  10.146 -3.6521 -2.2371 -3.7116
  540MOL0     H72898  10.268  10.544  10.171  4.5235  1.3732 -2.6504
  540MOL0     H72899  10.134  10.436  10.126  1.1721  0.0467  1.7042
  540MOL0     H72900  10.283  10.451  10.025 -1.5289  1.8341 -2.6643
  541MOL0     O72901   8.255  10.515   9.971  0.2518  0.1987 -0.2886
  541MOL0     C72902   8.215  10.563  10.074  0.0916  0.1908 -0.3501
  541MOL0     O72903   8.285  10.590  10.178  0.2834 -0.3356  0.1970
  541MOL0     C72904   8.415  10.554  10.189 -0.2819  0.3003 -0.6945
  541MOL0     C72905   8.453  10.414  10.181  1.1576 -0.4625  0.4776
  541MOL0     C72906   8.593  10.380  10.191  0.7587  0.1697  0.3149
  541MOL0     C72907   8.695  10.475  10.205  1.0528  1.9693 -0.7208
  541MOL0     O72908   8.820  10.438  10.247  0.5168  0.5358  0.8109
  541MOL0     C72909   8.898  10.352  10.162 -0.0570 -0.9975  0.3041
  541MOL0     C72910   8.968  10.254  10.250  0.7745 -0.3469 -0.4836
  541MOL0     C72911   9.067  10.316  10.357 -0.4760 -0.0463  0.1534
  541MOL0     C72912   9.046  10.275  10.509  0.5178 -1.3949  0.0069
  541MOL0     C72913   9.162  10.330  10.591 -0.2762 -0.4092  0.3620
  541MOL0     C72914   9.135  10.360  10.740  0.1657 -0.4381  0.1341
  541MOL0     C72915   9.256  10.427  10.813 -0.1673  0.7523  0.0893
  541MOL0     C72916   9.346  10.319  10.872 -0.4636 -0.3487 -0.2705
  541MOL0     N72917   9.440  10.376  10.974 -1.6930  0.4474 -0.4373
  541MOL0     C72918   9.474  10.509  11.000 -0.5548  0.2839  1.0058
  541MOL0     C72919   9.583  10.500  11.079 -0.1798  0.0017 -0.5746
  541MOL0     C72920   9.673  10.613  11.132 -0.0998 -0.5590 -0.3718
  541MOL0     C72921   9.774  10.658  11.032  0.1397 -0.0350 -0.3773
  541MOL0     C72922   9.879  10.553  11.002 -0.9651  0.9618  0.1193
  541MOL0     C72923  10.006  10.610  10.940  0.7507 -0.2464  0.2966
  541MOL0     O72924  10.081  10.499  10.886 -0.2428 -0.4934 -0.3290
  541MOL0     C72925  10.216  10.503  10.891  0.3055  1.1312  0.1395
  541MOL0     C72926  10.284  10.381  10.919 -0.2786 -0.4029  0.1289
  541MOL0     C72927  10.427  10.384  10.917  0.5196 -0.2179  0.5726
  541MOL0     C72928  10.504  10.502  10.905 -0.4238 -0.0224  0.2421
  541MOL0     C72929  10.656  10.496  10.891 -1.2526  0.2909  0.1957
  541MOL0     O72930  10.712  10.375  10.916 -0.7258 -0.0334 -0.1019
  541MOL0     C72931  10.852  10.344  10.886  0.2490  0.0745 -0.0617
  541MOL0     C72932  10.950  10.399  10.793 -0.4434  0.3209 -0.4605
  541MOL0     C72933  11.086  10.355  10.794  0.6925 -0.7962  0.3269
  541MOL0     C72934  11.132  10.259  10.888  0.7823  0.6504  0.2019
  541MOL0     O72935  11.262  10.211  10.889  0.2103  0.1162 -0.0123
  541MOL0     C72936  11.365  10.308  10.889 -0.3395 -0.1392  0.2657
  541MOL0     C72937  11.500  10.244  10.870  0.0350  0.5324  0.5665
  541MOL0     C72938  11.603  10.351  10.912  0.4717 -0.2880  0.5959
  541MOL0     C72939  11.742  10.284  10.886  0.0974  0.0040  0.3157
  541MOL0     C72940  11.852  10.331  10.973  0.3891 -0.5899  0.2711
  541MOL0     C72941  11.988  10.273  10.932 -0.4383 -0.0709  0.0350
  541MOL0     C72942  12.096  10.290  11.042  0.2917  0.0346  0.1826
  541MOL0     C72943  12.228  10.243  10.978 -0.1941 -0.2356 -0.0805
  541MOL0    Cl72944  12.345  10.249  11.106 -0.0012 -0.4886 -0.3925
  541MOL0     C72945  11.037  10.209  10.983 -0.7853 -0.1731  0.6497
  541MOL0     C72946  10.903  10.246  10.976 -0.4194  1.0760 -0.6540
  541MOL0     O72947  10.714  10.596  10.852  0.1901 -0.2788 -0.7239
  541MOL0     C72948  10.432  10.620  10.895  0.1004  0.2607  0.3790
  541MOL0     C72949  10.291  10.620  10.878 -0.3711  0.4899 -0.0685
  541MOL0     N72950   9.608  10.372  11.104 -0.1795 -0.0436 -0.0043
  541MOL0     N72951   9.536  10.300  11.032  0.9423  0.7361 -0.4985
  541MOL0     C72952   8.655  10.612  10.217  0.1465  0.9297  0.5098
  541MOL0     C72953   8.518  10.651  10.201  0.1945  1.0730 -0.5110
  541MOL0     C72954   8.062  10.580  10.089 -0.0416  0.3724  0.5626
  541MOL0     C72955   8.015  10.671  10.179  0.1613 -0.1344 -0.1564
  541MOL0     C72956   7.877  10.695  10.203  0.2464  0.6497  0.0365
  541MOL0     C72957   7.786  10.608  10.136 -0.3296 -0.7214 -0.6076
  541MOL0     O72958   7.649  10.598  10.146  0.1227  0.0256 -0.6632
  541MOL0     C72959   7.592  10.622  10.283 -0.5278  0.0546  0.2715
  541MOL0     C72960   7.440  10.615  10.268  0.8230 -0.9463 -0.7116
  541MOL0     C72961   7.374  10.757  10.255  0.1173  0.3735  0.2723
  541MOL0     C72962   7.225  10.759  10.239  0.2587 -0.4100 -0.5695
  541MOL0     C72963   7.176  10.901  10.279  1.7492  0.1048  0.3239
  541MOL0     C72964   7.132  11.013  10.322  0.5943  0.2821 -0.0902
  541MOL0     C72965   7.831  10.523  10.038  0.0007  0.2243 -1.2004
  541MOL0     C72966   7.965  10.504  10.016 -0.2716 -0.0244  0.0855
  541MOL0     C72967   7.999  10.402   9.899  0.1401  0.5252 -0.5278
  541MOL0     H72968   8.371  10.343  10.180 -0.3581  1.1417  2.1728
  541MOL0     H72969   8.626  10.276  10.195  2.3775  0.6707  1.0181
  541MOL0     H72970   8.839  10.305  10.082  0.8464 -0.5881 -0.6309
  541MOL0     H72971   8.971  10.414  10.110  3.3289 -1.7497  3.7677
  541MOL0     H72972   9.026  10.184  10.189 -1.8239 -2.6216 -0.5536
  541MOL0     H72973   8.891  10.202  10.309 -0.2675  0.4303 -1.1231
  541MOL0     H72974   9.073  10.425  10.345 -2.3514 -0.0876 -1.9521
  541MOL0     H72975   9.165  10.273  10.334 -1.2216 -0.4410 -2.7779
  541MOL0     H72976   8.949  10.320  10.533  1.5672  2.7836 -2.5072
  541MOL0     H72977   9.036  10.166  10.521  3.2948 -1.6240  0.8883
  541MOL0     H72978   9.252  10.271  10.573 -0.2422  0.0786 -1.3051
  541MOL0     H72979   9.171  10.427  10.541 -2.3310 -0.1334  0.4244
  541MOL0     H72980   9.056  10.436  10.749  0.6106 -0.0727  1.0673
  541MOL0     H72981   9.091  10.278  10.796 -0.7878 -1.0857 -1.5007
  541MOL0     H72982   9.227  10.489  10.899  0.6409 -1.8757  2.3815
  541MOL0     H72983   9.307  10.489  10.738  0.0483  1.0210  0.4525
  541MOL0     H72984   9.285  10.239  10.916  0.3344 -1.1342 -0.5754
  541MOL0     H72985   9.408  10.285  10.789  0.1585  1.1551 -0.4486
  541MOL0     H72986   9.427  10.603  10.972 -0.0851  0.5370  1.0521
  541MOL0     H72987   9.602  10.691  11.160 -0.7735 -0.4660 -2.1609
  541MOL0     H72988   9.722  10.585  11.225 -2.8758  0.0784  1.4036
  541MOL0     H72989   9.728  10.696  10.941 -2.3861  0.1336  0.8855
  541MOL0     H72990   9.828  10.740  11.080 -0.2791  1.0178 -1.6606
  541MOL0     H72991   9.833  10.470  10.947 -0.8879 -0.0178  1.4756
  541MOL0     H72992   9.909  10.499  11.092 -2.3923 -0.7849 -0.3934
  541MOL0     H72993  10.057  10.658  11.024 -4.3785  2.5188  2.2674
  541MOL0     H72994   9.980  10.672  10.853 -0.4443 -0.8500  0.2086
  541MOL0     H72995  10.228  10.292  10.946  0.0444 -1.1349 -1.5294
  541MOL0     H72996  10.469  10.285  10.925  1.7218  0.1839 -0.3391
  541MOL0     H72997  10.899  10.478  10.740 -0.5026  1.1294  0.7768
  541MOL0     H72998  11.150  10.395  10.716  1.1477 -0.6887  0.7475
  541MOL0     H72999  11.360  10.390  10.818  0.3041  0.3080  0.7260
  541MOL0     H73000  11.361  10.354  10.988  0.8808  0.1302  0.2099
  541MOL0     H73001  11.516  10.146  10.915 -1.5981 -1.6209 -3.0685
  541MOL0     H73002  11.515  10.233  10.762  0.3350 -1.0846  0.7397
  541MOL0     H73003  11.598  10.436  10.843  0.0737 -0.7266  0.0807
  541MOL0     H73004  11.599  10.370  11.020 -3.0574 -1.5251  0.7940
  541MOL0     H73005  11.760  10.309  10.781 -0.6528  1.6570  0.5469
  541MOL0     H73006  11.748  10.176  10.900  0.5040  0.1138  1.0162
  541MOL0     H73007  11.835  10.313  11.079  0.5071  0.6088  0.5148
  541MOL0     H73008  11.850  10.441  10.981  0.0499 -0.3637 -2.1927
  541MOL0     H73009  11.976  10.168  10.905  0.5665 -0.0877 -0.3771
  541MOL0     H73010  12.021  10.336  10.849 -0.3890 -0.8270 -0.5312
  541MOL0     H73011  12.052  10.233  11.124 -2.8137  2.7508  0.6247
  541MOL0     H73012  12.097  10.397  11.063 -2.3795  0.5962 -1.9396
  541MOL0     H73013  12.218  10.145  10.930 -0.8766 -0.1240 -0.1692
  541MOL0     H73014  12.257  10.308  10.895  2.0010 -0.8767  0.1122
  541MOL0     H73015  11.072  10.140  11.059 -1.5836 -2.3693 -0.8879
  541MOL0     H73016  10.835  10.197  11.045 -0.7074  1.2703 -0.7959
  541MOL0     H73017  10.491  10.710  10.881  0.1975 -0.2388 -3.8147
  541MOL0     H73018  10.243  10.716  10.862 -0.6861  0.4553  0.6414
  541MOL0     H73019   8.733  10.684  10.238  0.3247  0.4355  1.5980
  541MOL0     H73020   8.498  10.754  10.225  1.8251  1.2392  0.3042
  541MOL0     H73021   8.079  10.731  10.242 -1.7156  1.2012  0.5580
  541MOL0     H73022   7.838  10.762  10.279 -2.5571  1.2614 -1.7861
  541MOL0     H73023   7.618  10.720  10.325  0.7616  0.4755 -1.4394
  541MOL0     H73024   7.630  10.547  10.353  0.5700 -0.5627 -0.9519
  541MOL0     H73025   7.401  10.567  10.357 -0.6580  0.0126 -0.8104
  541MOL0     H73026   7.403  10.566  10.177 -3.1690  0.7374 -0.1946
  541MOL0     H73027   7.422  10.810  10.172  0.9593  2.4813  2.0085
  541MOL0     H73028   7.404  10.807  10.348 -2.2339  0.1972  1.1822
  541MOL0     H73029   7.195  10.741  10.135  0.5683  1.0853 -0.9411
  541MOL0     H73030   7.190  10.682  10.308 -0.6642 -0.7317 -1.3818
  541MOL0     H73031   7.089  11.091  10.381 -1.5605 -2.9927  3.1121
  541MOL0     H73032   7.764  10.465   9.976  1.1479 -2.1039 -0.3895
  541MOL0     H73033   8.022  10.459   9.808  0.6020  1.2399  0.0197
  541MOL0     H73034   8.089  10.344   9.921  0.5038  1.2729  0.0269
  541MOL0     H73035   7.926  10.322   9.888  0.7708 -0.4083  1.6166
  542MOL0     O73036   4.900  11.314  10.638  0.4163  0.9807  0.4023
  542MOL0     C73037   4.930  11.294  10.754  0.1107 -0.2844 -0.7095
  542MOL0     O73038   5.014  11.383  10.828 -0.1501 -0.6236  0.1216
  542MOL0     C73039   5.085  11.477  10.763  0.2529 -0.1762  0.1415
  542MOL0     C73040   5.092  11.606  10.810 -0.1226  0.2841 -0.4742
  542MOL0     C73041   5.177  11.699  10.738 -0.4120  0.1827  0.5894
  542MOL0     C73042   5.258  11.662  10.630 -0.1341 -0.4149  0.1265
  542MOL0     O73043   5.341  11.756  10.567  0.2122 -0.3689 -0.5002
  542MOL0     C73044   5.360  11.760  10.425 -0.1215 -0.5840 -0.1341
  542MOL0     C73045   5.467  11.878  10.395  0.7029  0.1810 -0.1410
  542MOL0     C73046   5.605  11.823  10.410  0.3102 -0.2168  0.3736
  542MOL0     C73047   5.705  11.934  10.376  0.0377 -0.5846  0.9597
  542MOL0     C73048   5.745  11.936  10.224  0.2596  0.8541  0.1930
  542MOL0     C73049   5.866  12.026  10.206  0.1388 -0.1578 -0.8528
  542MOL0     C73050   5.934  12.029  10.066  0.2109  0.2385  0.3548
  542MOL0     C73051   6.052  12.126  10.076 -0.1754  0.5894 -0.0421
  542MOL0     N73052   6.130  12.140   9.948 -0.6702  0.5792 -0.0458
  542MOL0     C73053   6.080  12.142   9.823 -0.5478 -0.6995 -0.4130
  542MOL0     C73054   6.180  12.117   9.742 -0.8750 -0.1599 -0.5016
  542MOL0     C73055   6.186  12.130   9.591 -0.7738 -0.3070  0.5928
  542MOL0     C73056   6.218  12.271   9.539 -0.4846 -0.8169 -0.2952
  542MOL0     C73057   6.199  12.277   9.387  0.4545 -0.8044  0.1696
  542MOL0     C73058   6.229  12.418   9.337 -0.7235  0.0008  0.1220
  542MOL0     O73059   6.124  12.505   9.334 -0.1296 -0.1686  0.7998
  542MOL0     C73060   6.021  12.505   9.245  0.3500  0.0902 -0.4338
  542MOL0     C73061   5.903  12.568   9.301  0.2032  1.5514  0.3638
  542MOL0     C73062   5.785  12.569   9.233  0.4022 -0.7409 -0.3512
  542MOL0     C73063   5.774  12.499   9.111 -0.8247 -0.2633  0.7619
  542MOL0     C73064   5.652  12.503   9.025 -0.1986  0.6202  0.1380
  542MOL0     O73065   5.683  12.496   8.888  0.1264 -0.1255  0.0280
  542MOL0     C73066   5.588  12.512   8.794  0.0722  0.0709 -0.0911
  542MOL0     C73067   5.641  12.550   8.673  0.3802 -0.7659  1.0179
  542MOL0     C73068   5.557  12.588   8.561 -0.8717  0.5501  0.2458
  542MOL0     C73069   5.417  12.600   8.578  0.8015 -0.5120 -0.4980
  542MOL0     O73070   5.342  12.629   8.461  0.2239 -0.2453 -0.6688
  542MOL0     C73071   5.247  12.733   8.474 -0.6939 -0.1163  0.4971
  542MOL0     C73072   5.281  12.829   8.358  0.1749 -0.6142 -0.1692
  542MOL0     C73073   5.193  12.951   8.374  0.2145  0.4903  0.0567
  542MOL0     C73074   5.216  13.054   8.267 -0.5368 -0.3762 -0.4192
  542MOL0     C73075   5.176  13.024   8.125 -0.1008 -0.6115  0.3000
  542MOL0     C73076   5.201  13.147   8.025 -0.2784 -0.2239 -0.2584
  542MOL0     C73077   5.167  13.100   7.885  0.2125 -0.6512  0.2776
  542MOL0     C73078   5.238  13.173   7.776  0.6015 -0.2641  0.2118
  542MOL0    Cl73079   5.151  13.330   7.777 -0.3284 -0.1829  0.3020
  542MOL0     C73080   5.358  12.555   8.696  0.2855  1.4373 -0.2202
  542MOL0     C73081   5.441  12.518   8.799 -0.6353  0.3918  0.3329
  542MOL0     O73082   5.538  12.511   9.076  0.1338  0.4699 -0.4805
  542MOL0     C73083   5.885  12.426   9.062 -0.1349 -0.0047 -0.3817
  542MOL0     C73084   6.009  12.434   9.124  0.2371  0.1136 -0.0699
  542MOL0     N73085   6.298  12.108   9.814 -0.2568 -0.6546  0.4389
  542MOL0     N73086   6.270  12.126   9.938  0.6321 -0.6178 -0.8572
  542MOL0     C73087   5.251  11.534  10.588 -0.2424 -0.0190  0.0260
  542MOL0     C73088   5.167  11.438  10.653 -0.3726 -0.4586  0.6771
  542MOL0     C73089   4.870  11.183  10.835  0.6335 -0.6568 -0.3381
  542MOL0     C73090   4.879  11.200  10.980 -0.1005  0.0725 -1.2006
  542MOL0     C73091   4.841  11.094  11.062  0.4487  0.3837  0.5769
  542MOL0     C73092   4.787  10.980  11.008  0.8119  0.8227  0.8723
  542MOL0     O73093   4.790  10.868  11.092  0.2880  0.6339  0.5997
  542MOL0     C73094   4.759  10.737  11.041 -0.0535  0.2107  0.3589
  542MOL0     C73095   4.779  10.646  11.163  0.0349 -0.3109 -0.3100
  542MOL0     C73096   4.920  10.647  11.222  1.1013  0.1680 -0.5630
  542MOL0     C73097   4.945  10.562  11.338 -0.3985  0.4018 -0.1164
  542MOL0     C73098   4.933  10.417  11.319  0.6208  0.2795 -0.4676
  542MOL0     C73099   4.911  10.298  11.291 -0.0022 -0.6354 -0.2558
  542MOL0     C73100   4.749  10.979  10.876 -1.2430  0.5339  0.5618
  542MOL0     C73101   4.791  11.076  10.784 -0.4550  0.1173 -0.4017
  542MOL0     C73102   4.746  11.051  10.640  0.2898 -0.4153  0.3746
  542MOL0     H73103   5.031  11.632  10.896 -1.1419 -1.8791 -0.4651
  542MOL0     H73104   5.181  11.797  10.786 -1.2123  1.0708 -1.0536
  542MOL0     H73105   5.411  11.669  10.391 -0.8046 -0.7008 -0.8609
  542MOL0     H73106   5.262  11.784  10.383 -0.2159 -0.3223  0.2240
  542MOL0     H73107   5.443  11.955  10.470 -1.6250 -0.7771  0.1879
  542MOL0     H73108   5.446  11.921  10.296 -0.3486 -0.1496 -0.0767
  542MOL0     H73109   5.615  11.737  10.343 -1.3493 -0.1349 -0.0005
  542MOL0     H73110   5.623  11.780  10.509  0.8703 -1.2658 -0.1594
  542MOL0     H73111   5.648  12.026  10.398 -1.6504 -0.9147 -1.5327
  542MOL0     H73112   5.793  11.918  10.438  1.1524 -1.2851 -0.7329
  542MOL0     H73113   5.772  11.832  10.201 -0.9855 -0.2373  3.2123
  542MOL0     H73114   5.661  11.972  10.163  0.0402 -2.4330 -1.7141
  542MOL0     H73115   5.818  12.121  10.230 -2.1342 -1.7741  1.7013
  542MOL0     H73116   5.936  11.998  10.285 -0.1063 -0.6959 -0.8171
  542MOL0     H73117   5.874  12.067   9.982  1.7020  2.2173  0.1124
  542MOL0     H73118   5.980  11.931  10.049  1.0875  1.0578 -2.5676
  542MOL0     H73119   6.019  12.227  10.103 -0.9279  0.1358  0.8318
  542MOL0     H73120   6.114  12.093  10.160  0.2302  1.4809  0.0251
  542MOL0     H73121   5.989  12.182   9.781 -1.2520 -2.3869 -0.5297
  542MOL0     H73122   6.272  12.072   9.555 -0.6903  1.5954 -2.6726
  542MOL0     H73123   6.097  12.093   9.538 -0.2576  1.3489 -1.5864
  542MOL0     H73124   6.143  12.335   9.588  2.9533  1.8296  2.0417
  542MOL0     H73125   6.315  12.305   9.575 -0.8890 -1.9473  2.1256
  542MOL0     H73126   6.099  12.258   9.347  0.3860  2.5112 -1.5678
  542MOL0     H73127   6.264  12.208   9.333  0.2523 -0.8290 -0.0459
  542MOL0     H73128   6.277  12.404   9.240 -2.3594 -0.7295 -0.6285
  542MOL0     H73129   6.303  12.459   9.406 -0.9879 -1.4735  1.3243
  542MOL0     H73130   5.902  12.610   9.401  1.7239  3.1632 -0.2512
  542MOL0     H73131   5.691  12.609   9.270 -0.9633 -1.5788 -2.6791
  542MOL0     H73132   5.749  12.546   8.665  0.4571  0.5171  1.2233
  542MOL0     H73133   5.600  12.608   8.464  0.5217  1.4985  1.0266
  542MOL0     H73134   5.152  12.686   8.447  0.1153 -0.6725 -1.4865
  542MOL0     H73135   5.233  12.778   8.574  0.5387  0.0909  0.5897
  542MOL0     H73136   5.389  12.850   8.360 -0.0653  1.1166  3.2565
  542MOL0     H73137   5.241  12.777   8.271 -1.3914 -1.5182  1.0340
  542MOL0     H73138   5.090  12.920   8.359 -0.1960  2.4399 -1.5800
  542MOL0     H73139   5.203  12.984   8.478  1.6895 -0.7167  0.3370
  542MOL0     H73140   5.323  13.074   8.260 -0.7880  1.2199 -0.0982
  542MOL0     H73141   5.165  13.146   8.300  1.2282 -0.6068  3.3682
  542MOL0     H73142   5.068  13.006   8.125 -0.2596  0.1924 -1.0521
  542MOL0     H73143   5.234  12.936   8.096  0.2909 -0.5525  0.8803
  542MOL0     H73144   5.139  13.233   8.052 -0.6131 -0.8053  0.8799
  542MOL0     H73145   5.305  13.182   8.029 -0.6457  1.1837 -1.9356
  542MOL0     H73146   5.059  13.102   7.870  0.1601 -0.0664  0.7147
  542MOL0     H73147   5.204  12.997   7.873  1.8480 -0.6255  3.7185
  542MOL0     H73148   5.346  13.177   7.796  1.4141 -3.8060 -2.3325
  542MOL0     H73149   5.219  13.113   7.686  2.3203 -1.6722  0.7338
  542MOL0     H73150   5.251  12.541   8.707  0.6987 -0.4833  2.0226
  542MOL0     H73151   5.391  12.482   8.888 -0.0309  0.2333  0.6073
  542MOL0     H73152   5.883  12.363   8.974  1.6917  1.4350 -1.5108
  542MOL0     H73153   6.099  12.383   9.092  1.6650  1.9032  0.8947
  542MOL0     H73154   5.302  11.508  10.496 -0.9118  0.9906 -0.6444
  542MOL0     H73155   5.167  11.336  10.614  1.7521 -0.6937  1.1595
  542MOL0     H73156   4.944  11.270  11.031 -0.0390 -1.1088  0.4349
  542MOL0     H73157   4.864  11.095  11.168 -1.1582  2.5272  0.9667
  542MOL0     H73158   4.836  10.704  10.970  0.1451 -2.0852  1.5589
  542MOL0     H73159   4.658  10.729  10.999  0.6743 -0.0450 -1.4288
  542MOL0     H73160   4.733  10.555  11.123 -0.7686  0.1504 -0.4731
  542MOL0     H73161   4.713  10.672  11.247  0.0355 -2.8859  0.5770
  542MOL0     H73162   4.941  10.751  11.246  0.4585  0.2000 -0.1260
  542MOL0     H73163   4.987  10.629  11.137  0.0152 -2.4003 -0.9943
  542MOL0     H73164   5.048  10.584  11.369  0.0726  0.0902 -1.3670
  542MOL0     H73165   4.879  10.590  11.420  0.1277 -1.6190  1.0649
  542MOL0     H73166   4.895  10.196  11.260  3.7125 -1.4049 -0.1744
  542MOL0     H73167   4.696  10.888  10.851  1.5695 -0.4596 -2.5374
  542MOL0     H73168   4.741  10.946  10.611  2.2529 -0.5415  0.3341
  542MOL0     H73169   4.651  11.100  10.618  0.4772  0.5224  1.5215
  542MOL0     H73170   4.827  11.089  10.577  1.8043  0.0180  2.4353
  543MOL0     O73171   5.549   5.002   7.737 -0.1608  0.6150  0.0731
  543MOL0     C73172   5.507   4.959   7.632 -0.6104 -1.1536  0.0462
  543MOL0     O73173   5.574   4.912   7.526 -0.5246 -0.5317  0.1075
  543MOL0     C73174   5.706   4.866   7.541  0.4462 -0.0067 -0.3484
  543MOL0     C73175   5.767   4.820   7.662  0.3292  0.2559 -0.4157
  543MOL0     C73176   5.904   4.783   7.657 -0.2579 -0.9276  0.5053
  543MOL0     C73177   5.978   4.783   7.539 -0.1187 -0.4846  0.4965
  543MOL0     O73178   6.114   4.757   7.567 -0.6870 -0.4353  0.2963
  543MOL0     C73179   6.206   4.782   7.449  0.2714  0.5213 -0.4169
  543MOL0     C73180   6.182   4.677   7.345 -0.2823  0.3497  0.1983
  543MOL0     C73181   6.261   4.546   7.369  0.6343 -0.3592 -0.6007
  543MOL0     C73182   6.250   4.441   7.254 -0.0511  0.0788 -0.0356
  543MOL0     C73183   6.344   4.327   7.291 -1.3667  0.0477 -0.6944
  543MOL0     C73184   6.360   4.233   7.172  0.3465  0.3731 -0.1059
  543MOL0     C73185   6.468   4.127   7.200  0.9828 -0.3742  0.1437
  543MOL0     C73186   6.610   4.161   7.159 -0.2092 -0.0874 -0.1459
  543MOL0     N73187   6.692   4.053   7.191 -0.6392  0.7353  0.9130
  543MOL0     C73188   6.704   3.936   7.113 -0.2246 -0.6116  0.1423
  543MOL0     C73189   6.809   3.870   7.169 -0.5207  0.4756  0.3058
  543MOL0     C73190   6.868   3.738   7.127 -0.0629  0.0262  0.1955
  543MOL0     C73191   6.941   3.765   6.986 -0.6947 -0.5238  0.0035
  543MOL0     C73192   7.005   3.635   6.940 -0.1445  0.0457  0.2818
  543MOL0     C73193   7.108   3.643   6.822  0.7690  0.3632 -0.3133
  543MOL0     O73194   7.070   3.747   6.728 -0.0267 -0.3362  0.3336
  543MOL0     C73195   7.163   3.782   6.631  0.7233 -0.0305 -0.2239
  543MOL0     C73196   7.102   3.850   6.528 -0.7748 -0.6132 -0.1563
  543MOL0     C73197   7.185   3.900   6.426 -0.7369 -0.9653  0.2568
  543MOL0     C73198   7.319   3.879   6.424 -1.2125 -0.2619 -0.8193
  543MOL0     C73199   7.418   3.930   6.330 -0.2974 -0.1094  0.5571
  543MOL0     O73200   7.551   3.894   6.343  0.1141 -0.8892 -0.1142
  543MOL0     C73201   7.635   3.935   6.246  0.1046  0.2049  0.4981
  543MOL0     C73202   7.730   4.034   6.270 -0.8503  0.9269  0.1776
  543MOL0     C73203   7.818   4.077   6.158 -0.5602  0.2176  0.1934
  543MOL0     C73204   7.817   4.024   6.034  0.2859  0.3836 -0.3322
  543MOL0     O73205   7.900   4.093   5.950 -0.1969  0.2826  0.1468
  543MOL0     C73206   7.918   4.044   5.822 -0.0311  0.3290  0.1752
  543MOL0     C73207   8.031   4.131   5.763  0.1077  0.7133  0.1961
  543MOL0     C73208   8.086   4.087   5.632  0.4105  0.0759  0.6228
  543MOL0     C73209   8.138   3.942   5.635  0.1332 -0.1003 -0.0413
  543MOL0     C73210   8.191   3.895   5.494 -0.1988  0.4513  0.2851
  543MOL0     C73211   8.321   3.953   5.438 -0.1148  0.2995 -0.3907
  543MOL0     C73212   8.340   3.905   5.298  0.4370 -0.7953  0.7355
  543MOL0     C73213   8.456   3.986   5.233  0.7865  0.4645 -1.2536
  543MOL0    Cl73214   8.481   3.917   5.066  0.0092 -0.2686  0.0467
  543MOL0     C73215   7.717   3.926   6.011  0.5733  0.8406  0.0613
  543MOL0     C73216   7.629   3.872   6.116 -0.0836 -0.5155  0.6115
  543MOL0     O73217   7.374   4.014   6.247 -0.2515  0.0293  0.0433
  543MOL0     C73218   7.378   3.803   6.525  1.6446  0.5838 -0.0932
  543MOL0     C73219   7.298   3.746   6.623  0.2367 -0.8418 -0.2950
  543MOL0     N73220   6.840   3.935   7.287  0.2104  1.0082  0.4620
  543MOL0     N73221   6.776   4.041   7.295  0.2303 -0.8645  0.1121
  543MOL0     C73222   5.914   4.828   7.422  0.3675 -0.4037 -0.7177
  543MOL0     C73223   5.783   4.881   7.431 -0.3810 -0.1683  0.5783
  543MOL0     C73224   5.361   4.963   7.634 -0.3621  0.0824 -0.2837
  543MOL0     C73225   5.306   5.087   7.687 -0.5748  0.2791 -1.5455
  543MOL0     C73226   5.169   5.105   7.700 -0.5711 -0.5060  0.5611
  543MOL0     C73227   5.080   5.005   7.656 -0.8171 -0.6178 -0.1619
  543MOL0     O73228   4.945   4.998   7.679  0.0971 -0.3515  0.3173
  543MOL0     C73229   4.882   5.128   7.696 -0.2888  0.4471 -0.1890
  543MOL0     C73230   4.741   5.087   7.723  0.3286  0.8867 -0.4172
  543MOL0     C73231   4.636   5.185   7.734 -0.0895 -0.0390  0.7069
  543MOL0     C73232   4.502   5.132   7.676  0.3384  0.6874 -0.1208
  543MOL0     C73233   4.378   5.158   7.751  0.6648 -0.8509  0.0735
  543MOL0     C73234   4.260   5.186   7.776 -0.4268  0.1811 -0.3143
  543MOL0     C73235   5.134   4.882   7.610  0.6302  0.4088 -0.0777
  543MOL0     C73236   5.274   4.855   7.596 -1.0602  0.0867 -0.6436
  543MOL0     C73237   5.328   4.716   7.586 -0.2742 -0.0083  1.0389
  543MOL0     H73238   5.712   4.805   7.755 -1.1601  1.2164 -1.1089
  543MOL0     H73239   5.947   4.767   7.755 -0.6999  1.5565  1.1879
  543MOL0     H73240   6.185   4.887   7.423 -0.6753  0.8273  1.4016
  543MOL0     H73241   6.311   4.791   7.479 -0.3229  2.4107  1.3649
  543MOL0     H73242   6.214   4.723   7.251  3.4469 -3.3541 -0.6673
  543MOL0     H73243   6.077   4.648   7.340  0.0455 -2.2746  4.0587
  543MOL0     H73244   6.222   4.506   7.464 -3.3957  0.8982 -1.5389
  543MOL0     H73245   6.362   4.587   7.374  0.4679  0.6200 -3.6466
  543MOL0     H73246   6.149   4.399   7.254 -1.4175  2.8873 -3.2004
  543MOL0     H73247   6.280   4.487   7.160  2.9758 -2.6095 -0.5581
  543MOL0     H73248   6.437   4.378   7.314 -1.2164  1.1214 -3.3076
  543MOL0     H73249   6.307   4.275   7.380 -5.5692 -0.0286 -2.2245
  543MOL0     H73250   6.266   4.178   7.158 -0.4197  1.5880  0.1754
  543MOL0     H73251   6.384   4.299   7.087  0.4793 -0.4648 -0.7384
  543MOL0     H73252   6.439   4.044   7.136  0.6714  1.0007 -1.5781
  543MOL0     H73253   6.458   4.097   7.305 -2.9941 -1.3862 -0.3754
  543MOL0     H73254   6.609   4.182   7.051  0.7957 -2.0380 -0.5856
  543MOL0     H73255   6.654   4.245   7.213 -1.0000 -0.3121  0.8582
  543MOL0     H73256   6.644   3.914   7.025 -1.5475 -1.9711  1.3329
  543MOL0     H73257   6.936   3.701   7.204 -0.7876  1.5373  1.6179
  543MOL0     H73258   6.790   3.661   7.118 -3.4068  2.9101  1.9357
  543MOL0     H73259   6.868   3.805   6.916 -0.5223  1.5370  0.9239
  543MOL0     H73260   7.021   3.839   6.999 -1.4915  1.0514 -3.1146
  543MOL0     H73261   6.932   3.558   6.915  3.1608 -2.8458 -1.2834
  543MOL0     H73262   7.054   3.589   7.026  2.7544  1.7035 -0.3227
  543MOL0     H73263   7.115   3.551   6.764  1.1795  1.3567 -1.8766
  543MOL0     H73264   7.200   3.667   6.876 -0.2554  0.8440  1.3205
  543MOL0     H73265   6.998   3.876   6.515 -0.8675 -2.0081 -2.9083
  543MOL0     H73266   7.140   3.954   6.343 -0.8268  0.4530  1.2131
  543MOL0     H73267   7.758   4.077   6.366  3.4318 -0.2462 -0.3756
  543MOL0     H73268   7.888   4.155   6.186 -3.0007  1.9954  1.6462
  543MOL0     H73269   7.949   3.939   5.820 -0.6581  0.1575 -1.2033
  543MOL0     H73270   7.835   4.061   5.754 -2.1854 -1.7319  2.1162
  543MOL0     H73271   7.997   4.233   5.746 -0.5169  0.6788  1.1853
  543MOL0     H73272   8.120   4.136   5.827  1.6178  1.5993 -1.8622
  543MOL0     H73273   8.016   4.094   5.548  3.4874  0.6762 -2.1089
  543MOL0     H73274   8.175   4.142   5.601  1.2753 -1.5910 -0.0015
  543MOL0     H73275   8.060   3.870   5.662  0.6509 -0.0157  1.7847
  543MOL0     H73276   8.211   3.933   5.716 -0.7571  0.3463  0.8260
  543MOL0     H73277   8.110   3.916   5.423 -0.4791  0.2397  0.5413
  543MOL0     H73278   8.210   3.787   5.499 -2.6819 -0.0452  0.0581
  543MOL0     H73279   8.302   4.061   5.432 -0.4240  0.4737  2.3390
  543MOL0     H73280   8.410   3.924   5.495  0.3936  0.5193 -1.0634
  543MOL0     H73281   8.242   3.921   5.252 -0.2792 -1.0445  2.1400
  543MOL0     H73282   8.354   3.797   5.300 -0.9170 -1.1169 -2.1093
  543MOL0     H73283   8.430   4.092   5.231 -1.2488  0.0252 -0.4843
  543MOL0     H73284   8.551   3.984   5.288  0.5516  3.2862 -0.5778
  543MOL0     H73285   7.704   3.906   5.905 -0.2296 -2.0742  0.6298
  543MOL0     H73286   7.554   3.797   6.093  0.3064 -1.2578  1.6635
  543MOL0     H73287   7.486   3.805   6.541  1.5746  2.4976  0.4304
  543MOL0     H73288   7.353   3.691   6.699 -2.1149 -0.5061  1.7535
  543MOL0     H73289   5.965   4.826   7.327 -1.2603 -0.9918 -1.6232
  543MOL0     H73290   5.729   4.926   7.348 -0.6002 -1.7567 -0.1623
  543MOL0     H73291   5.367   5.172   7.712  2.0287 -1.2232 -2.3890
  543MOL0     H73292   5.157   5.203   7.743  0.0302 -0.4227  0.5547
  543MOL0     H73293   4.894   5.180   7.601  3.9120  3.3543  1.6587
  543MOL0     H73294   4.929   5.185   7.777  1.1865 -1.8903  0.7265
  543MOL0     H73295   4.735   5.023   7.812 -2.4828  1.2520 -0.2478
  543MOL0     H73296   4.717   5.014   7.646  3.0267 -3.0843  2.1199
  543MOL0     H73297   4.669   5.269   7.672  1.6330 -0.9208  0.3792
  543MOL0     H73298   4.624   5.233   7.831 -0.7007  2.5523 -0.5578
  543MOL0     H73299   4.489   5.181   7.579  1.8179  0.7183 -0.3304
  543MOL0     H73300   4.511   5.024   7.664 -2.0604  0.1947  1.7797
  543MOL0     H73301   4.162   5.230   7.782  0.5713  2.3215  2.4627
  543MOL0     H73302   5.064   4.807   7.576 -0.0537  2.3678 -3.4684
  543MOL0     H73303   5.422   4.711   7.642  0.0265 -0.9728  0.4683
  543MOL0     H73304   5.266   4.640   7.634  1.0687 -0.9253  1.3644
  543MOL0     H73305   5.340   4.686   7.482 -1.5459 -0.5113  1.0264
  544MOL0     O73306  10.413   8.304   4.697  0.5421 -0.7991  0.1005
  544MOL0     C73307  10.315   8.243   4.651 -0.8860 -0.0717  0.0056
  544MOL0     O73308  10.318   8.163   4.541 -0.1910  0.3864 -0.2969
  544MOL0     C73309  10.445   8.148   4.480  0.8053 -0.3484 -0.1715
  544MOL0     C73310  10.544   8.084   4.557  0.8633  0.3413  0.6037
  544MOL0     C73311  10.666   8.068   4.504 -0.1041 -0.2135  0.4799
  544MOL0     C73312  10.698   8.113   4.377 -0.4280  0.7082  0.6940
  544MOL0     O73313  10.826   8.088   4.326  0.2123  0.1137  0.2179
  544MOL0     C73314  10.912   8.204   4.301  0.3652 -0.1125 -0.8811
  544MOL0     C73315  10.991   8.165   4.184  0.8871  0.1804  0.2744
  544MOL0     C73316  11.092   8.266   4.128  0.4239  0.5170  0.4863
  544MOL0     C73317  11.187   8.200   4.024 -0.0214  0.7037 -0.8114
  544MOL0     C73318  11.271   8.319   3.962 -0.5260 -0.0923 -0.2146
  544MOL0     C73319  11.380   8.260   3.875  0.3798 -0.3466  0.2519
  544MOL0     C73320  11.447   8.370   3.795  0.1461 -0.2879  0.2466
  544MOL0     C73321  11.535   8.321   3.677  0.4239  0.8084  0.0204
  544MOL0     N73322  11.586   8.439   3.596  0.3120  0.2670  0.5613
  544MOL0     C73323  11.684   8.423   3.505 -0.6611  0.3487  0.2331
  544MOL0     C73324  11.697   8.538   3.440 -0.6818  0.5141 -0.4798
  544MOL0     C73325  11.781   8.552   3.314  0.0080 -0.6941 -0.6245
  544MOL0     C73326  11.852   8.690   3.326  0.3199 -0.1042 -0.2121
  544MOL0     C73327  11.955   8.695   3.210 -0.0643 -0.2938  0.5145
  544MOL0     C73328  12.050   8.813   3.216  0.3476 -0.5176  0.3813
  544MOL0     O73329  12.108   8.843   3.082 -0.1391 -0.0548  0.0382
  544MOL0     C73330  12.220   8.782   3.040 -0.4271  0.8853 -0.1594
  544MOL0     C73331  12.280   8.836   2.929  0.6046  0.2601 -0.3698
  544MOL0     C73332  12.400   8.794   2.871 -0.2186 -0.9324  0.6898
  544MOL0     C73333  12.461   8.678   2.917  0.1425 -0.6693  0.1996
  544MOL0     C73334  12.590   8.632   2.868  0.6958  0.4007  0.4061
  544MOL0     O73335  12.637   8.516   2.928 -0.0238  0.9670  0.1530
  544MOL0     C73336  12.769   8.487   2.899  0.7749  0.4818  0.4041
  544MOL0     C73337  12.877   8.552   2.962 -0.1873  0.4851 -0.1701
  544MOL0     C73338  13.012   8.523   2.929 -0.2726  0.1764 -0.2293
  544MOL0     C73339  13.043   8.426   2.838 -0.8484  0.3709  1.5780
  544MOL0     O73340  13.177   8.398   2.806  0.6173  0.2404 -0.4725
  544MOL0     C73341  13.210   8.280   2.746  0.2335  0.2793 -1.2619
  544MOL0     C73342  13.362   8.263   2.733  0.5650  0.5365 -0.8606
  544MOL0     C73343  13.407   8.241   2.881  0.1681 -0.4516 -0.3906
  544MOL0     C73344  13.552   8.252   2.885  0.1791 -0.0316 -0.2600
  544MOL0     C73345  13.615   8.226   3.026 -0.2291 -0.2997 -0.1786
  544MOL0     C73346  13.758   8.264   3.041  0.7426 -0.5436  0.8166
  544MOL0     C73347  13.855   8.177   2.965  0.5739 -0.1028 -0.7275
  544MOL0     C73348  14.002   8.217   2.968  0.8240 -0.7988  0.5326
  544MOL0    Cl73349  14.066   8.232   3.128 -0.1789 -0.2450  0.2536
  544MOL0     C73350  12.938   8.376   2.756  0.0689 -0.0833 -0.1614
  544MOL0     C73351  12.800   8.402   2.788 -0.1360 -0.1000  0.3873
  544MOL0     O73352  12.653   8.707   2.795  0.6080 -0.4798  0.2301
  544MOL0     C73353  12.407   8.621   3.030 -0.1100 -0.5802 -0.4391
  544MOL0     C73354  12.282   8.663   3.092 -0.0459 -0.0288  0.0170
  544MOL0     N73355  11.597   8.617   3.492  0.1019 -0.1069  0.7607
  544MOL0     N73356  11.528   8.561   3.587 -0.5904  0.3677 -0.6360
  544MOL0     C73357  10.601   8.172   4.297 -0.6278  1.1009  0.3381
  544MOL0     C73358  10.476   8.187   4.350  1.0792  0.3667  0.2397
  544MOL0     C73359  10.191   8.263   4.732 -0.8053 -0.5579  0.3324
  544MOL0     C73360  10.074   8.240   4.663  0.4390  0.4816 -0.0766
  544MOL0     C73361   9.949   8.262   4.715 -0.2690 -0.9748 -0.4948
  544MOL0     C73362   9.932   8.310   4.843  0.1718 -0.8617 -0.4807
  544MOL0     O73363   9.819   8.345   4.903  0.1965 -0.0621 -0.4545
  544MOL0     C73364   9.691   8.339   4.833  0.1751  1.0849  0.2916
  544MOL0     C73365   9.665   8.440   4.723  0.2155  0.0034 -0.8834
  544MOL0     C73366   9.544   8.389   4.636  0.2681  0.3823 -0.0356
  544MOL0     C73367   9.512   8.476   4.509 -0.9411 -0.9588 -0.6237
  544MOL0     C73368   9.481   8.616   4.539 -0.3311 -0.8905 -0.2692
  544MOL0     C73369   9.453   8.740   4.533 -0.6007 -0.2119  0.4746
  544MOL0     C73370  10.045   8.325   4.918 -0.0504  0.9907 -0.0080
  544MOL0     C73371  10.174   8.304   4.872  0.4889 -0.2398 -0.1676
  544MOL0     C73372  10.288   8.328   4.963 -0.2599 -0.5439 -0.3228
  544MOL0     H73373  10.513   8.047   4.655  0.4191  1.2864  0.8392
  544MOL0     H73374  10.737   8.018   4.570 -0.5944  2.0263  2.8824
  544MOL0     H73375  10.858   8.296   4.276 -0.6979  0.3628  2.6181
  544MOL0     H73376  10.981   8.217   4.385  3.2616  1.5164 -3.2913
  544MOL0     H73377  10.915   8.155   4.105 -0.4425  0.2644  1.4948
  544MOL0     H73378  11.042   8.070   4.201 -0.1662 -0.7922 -1.5774
  544MOL0     H73379  11.147   8.305   4.214 -0.9384  0.5013  1.4135
  544MOL0     H73380  11.037   8.351   4.087  0.6989  0.3972 -0.1370
  544MOL0     H73381  11.250   8.121   4.065 -0.8799 -0.3631 -1.4963
  544MOL0     H73382  11.125   8.151   3.948  1.7166  0.3664 -2.0487
  544MOL0     H73383  11.206   8.382   3.901 -1.4945 -1.3242 -0.4956
  544MOL0     H73384  11.316   8.387   4.035  1.0223  0.5611 -1.6811
  544MOL0     H73385  11.448   8.190   3.926 -0.3312 -0.5252  0.9766
  544MOL0     H73386  11.320   8.205   3.802 -0.4818  1.1573 -0.1956
  544MOL0     H73387  11.495   8.433   3.870  0.6444  1.1661 -1.2271
  544MOL0     H73388  11.365   8.425   3.748 -0.0747 -1.1488 -0.4057
  544MOL0     H73389  11.621   8.266   3.714  0.7463  0.6769 -0.9106
  544MOL0     H73390  11.482   8.245   3.617  2.6176 -0.0654 -0.8995
  544MOL0     H73391  11.737   8.332   3.480  0.3050  0.8397  0.4418
  544MOL0     H73392  11.850   8.467   3.315 -0.8068 -1.3924 -1.4971
  544MOL0     H73393  11.713   8.549   3.227  2.0192 -1.1164 -2.2545
  544MOL0     H73394  11.773   8.764   3.313  2.5333  2.5290  0.1693
  544MOL0     H73395  11.888   8.705   3.429  0.8967  1.1598 -0.5704
  544MOL0     H73396  11.917   8.667   3.111  3.4642 -0.0692 -1.0537
  544MOL0     H73397  12.013   8.604   3.227 -1.7853 -1.0632  2.6673
  544MOL0     H73398  12.119   8.810   3.301 -1.2702  2.7661  1.9876
  544MOL0     H73399  11.996   8.905   3.241 -1.5559 -0.7414 -2.4256
  544MOL0     H73400  12.230   8.917   2.877  2.0707  1.7759  0.4798
  544MOL0     H73401  12.419   8.838   2.774 -5.0573 -1.8557 -0.9219
  544MOL0     H73402  12.856   8.629   3.035 -1.4639  0.6831 -0.7286
  544MOL0     H73403  13.095   8.569   2.980 -0.7786  0.4663  0.3478
  544MOL0     H73404  13.158   8.202   2.801 -2.4620  1.2332 -2.3224
  544MOL0     H73405  13.170   8.270   2.645 -0.9778  0.6425 -0.8410
  544MOL0     H73406  13.399   8.190   2.661 -2.0105 -2.8294  0.9431
  544MOL0     H73407  13.397   8.361   2.699 -0.2530  1.1543  0.0142
  544MOL0     H73408  13.366   8.315   2.950 -0.4089  0.4812 -1.6898
  544MOL0     H73409  13.371   8.144   2.916 -0.1243  0.5473  2.2456
  544MOL0     H73410  13.584   8.354   2.859 -1.0093  0.4555  0.1301
  544MOL0     H73411  13.599   8.190   2.808  1.1976  3.0883 -2.3580
  544MOL0     H73412  13.617   8.120   3.053 -0.8876 -0.0631  0.8756
  544MOL0     H73413  13.560   8.289   3.097  0.8143 -0.7634  1.0836
  544MOL0     H73414  13.764   8.362   2.994  0.1065 -0.7686  0.2465
  544MOL0     H73415  13.784   8.283   3.145 -0.7665 -0.0219  1.1146
  544MOL0     H73416  13.826   8.168   2.860 -2.9353  0.3032  0.0824
  544MOL0     H73417  13.864   8.078   3.010  2.9489 -0.1422 -1.1574
  544MOL0     H73418  14.060   8.139   2.917 -2.0977 -2.3130 -0.6729
  544MOL0     H73419  14.018   8.301   2.901 -1.4985 -1.1278 -0.5311
  544MOL0     H73420  12.961   8.310   2.672  1.9791 -1.1300  1.0972
  544MOL0     H73421  12.725   8.358   2.722  1.0093  0.2929 -1.2477
  544MOL0     H73422  12.470   8.538   3.061  1.6356  0.3690 -1.2830
  544MOL0     H73423  12.240   8.610   3.177  0.0731 -1.0112 -0.5165
  544MOL0     H73424  10.618   8.193   4.192  1.0173  1.2985  0.6115
  544MOL0     H73425  10.396   8.226   4.288 -0.9758  0.4430  2.7777
  544MOL0     H73426  10.075   8.218   4.556  1.9414  1.7796 -0.3717
  544MOL0     H73427   9.864   8.228   4.657  1.2025 -1.4119 -2.5390
  544MOL0     H73428   9.620   8.366   4.912  0.8407  2.7769  0.3720
  544MOL0     H73429   9.676   8.236   4.802  1.5274  1.1255 -0.5809
  544MOL0     H73430   9.756   8.451   4.663  0.0153 -2.0264 -1.6320
  544MOL0     H73431   9.632   8.535   4.766 -2.6477  0.3318 -3.4790
  544MOL0     H73432   9.464   8.380   4.709  0.8578 -2.4018  0.3565
  544MOL0     H73433   9.567   8.291   4.594 -4.2957  0.4036 -3.3129
  544MOL0     H73434   9.602   8.476   4.446  0.0005  1.5850  0.5940
  544MOL0     H73435   9.428   8.442   4.449 -0.3214 -0.0694 -2.0465
  544MOL0     H73436   9.418   8.840   4.521  1.1420  0.3345 -0.3086
  544MOL0     H73437  10.036   8.353   5.023  0.6314  0.3086  0.2364
  544MOL0     H73438  10.251   8.315   5.065  1.4227  1.3376  0.6063
  544MOL0     H73439  10.365   8.251   4.962  0.2149 -0.0793 -0.3537
  544MOL0     H73440  10.347   8.419   4.947  1.1153 -1.3696 -0.1413
  545MOL0     O73441   2.964   1.455  10.765 -0.4099  0.4984 -0.4639
  545MOL0     C73442   2.910   1.345  10.755 -0.0822  1.4374 -0.4534
  545MOL0     O73443   2.923   1.253  10.652 -0.2028 -0.0191 -0.2920
  545MOL0     C73444   2.998   1.281  10.541 -0.0027  0.6957  0.5186
  545MOL0     C73445   3.113   1.209  10.535 -0.5081  0.6146  0.0067
  545MOL0     C73446   3.205   1.232  10.430  0.6698 -0.0079  0.1858
  545MOL0     C73447   3.170   1.313  10.321  0.4231 -0.2572 -0.0220
  545MOL0     O73448   3.249   1.345  10.216  0.7719  1.0100 -0.6922
  545MOL0     C73449   3.390   1.327  10.238 -0.0763 -0.4929  0.1110
  545MOL0     C73450   3.456   1.407  10.130  0.7864 -0.0329  0.6548
  545MOL0     C73451   3.608   1.411  10.140  0.1848 -0.4324 -0.0057
  545MOL0     C73452   3.657   1.543  10.080 -0.9795  0.7020  0.0184
  545MOL0     C73453   3.812   1.563  10.063  0.6651 -0.4309 -0.2445
  545MOL0     C73454   3.844   1.715  10.087  0.1341  0.1353 -0.3997
  545MOL0     C73455   3.978   1.764  10.057 -0.1080  0.4536  0.0199
  545MOL0     C73456   4.093   1.695  10.128 -0.2599 -0.0212 -0.2154
  545MOL0     N73457   4.222   1.761  10.109  0.1446  0.7313  0.3291
  545MOL0     C73458   4.265   1.871  10.173 -0.0983  0.0082 -1.6179
  545MOL0     C73459   4.398   1.875  10.156  0.3413 -0.2677 -0.0477
  545MOL0     C73460   4.502   1.972  10.213 -0.9863  0.0739 -0.4155
  545MOL0     C73461   4.526   1.951  10.364  0.1484 -0.4827 -0.0059
  545MOL0     C73462   4.627   2.053  10.414  0.0876  0.2848  0.4351
  545MOL0     C73463   4.669   2.037  10.556 -0.2607  0.4434 -0.8377
  545MOL0     O73464   4.772   2.137  10.582 -0.5706 -0.1157 -0.6665
  545MOL0     C73465   4.788   2.173  10.709 -0.3136  0.0717  0.9200
  545MOL0     C73466   4.711   2.142  10.820 -0.8043  0.8647  0.3019
  545MOL0     C73467   4.762   2.167  10.952 -0.4022 -0.1734  0.0233
  545MOL0     C73468   4.868   2.260  10.966 -0.0374  0.0939 -1.0566
  545MOL0     C73469   4.926   2.299  11.109 -0.2651  0.6019  0.0485
  545MOL0     O73470   5.023   2.392  11.106 -0.5333  0.1492 -0.1158
  545MOL0     C73471   5.068   2.445  11.231 -0.8880  0.0173  1.5527
  545MOL0     C73472   5.102   2.374  11.345  1.1154  1.2552 -0.2861
  545MOL0     C73473   5.147   2.443  11.461  0.1913 -0.0282  0.5235
  545MOL0     C73474   5.148   2.578  11.466  0.6690  0.4339  0.1609
  545MOL0     O73475   5.167   2.633  11.587 -0.0673 -0.0685 -0.0801
  545MOL0     C73476   5.215   2.772  11.596  0.5672 -0.2317  1.2445
  545MOL0     C73477   5.353   2.804  11.527 -0.1415  0.0703  0.6185
  545MOL0     C73478   5.463   2.720  11.595 -0.1983  0.1095 -1.0804
  545MOL0     C73479   5.611   2.739  11.535  0.6856  0.1764 -1.0986
  545MOL0     C73480   5.709   2.678  11.646  0.0633 -0.0735 -0.5974
  545MOL0     C73481   5.848   2.665  11.585 -0.4678 -1.1804 -0.0456
  545MOL0     C73482   5.950   2.604  11.677 -0.4752 -0.1401  0.5705
  545MOL0     C73483   6.081   2.681  11.691 -0.8631  0.2004  0.2246
  545MOL0    Cl73484   6.145   2.678  11.516  0.3708  0.4113 -0.0541
  545MOL0     C73485   5.118   2.647  11.350 -0.2451 -0.0416 -0.1659
  545MOL0     C73486   5.080   2.583  11.236  0.6389  0.1243  0.0703
  545MOL0     O73487   4.872   2.252  11.217  0.7078 -0.0873 -0.1099
  545MOL0     C73488   4.930   2.317  10.853 -0.3980  1.0060  1.3283
  545MOL0     C73489   4.890   2.277  10.724  0.2132 -0.1155  0.1509
  545MOL0     N73490   4.427   1.771  10.063 -0.1878 -0.8400 -0.3804
  545MOL0     N73491   4.321   1.709  10.035 -0.0711  0.2599  0.3865
  545MOL0     C73492   3.051   1.381  10.328 -0.7622 -0.1625  0.8209
  545MOL0     C73493   2.964   1.371  10.430 -0.4008 -1.0054  0.2599
  545MOL0     C73494   2.813   1.319  10.864 -0.3391  0.2555 -0.1219
  545MOL0     C73495   2.817   1.406  10.975  1.0865  0.0403  0.1475
  545MOL0     C73496   2.729   1.388  11.083 -0.5359 -0.8490 -0.2469
  545MOL0     C73497   2.635   1.284  11.095 -0.1621  0.3131 -0.0944
  545MOL0     O73498   2.553   1.272  11.206  0.2157 -0.3991  0.2042
  545MOL0     C73499   2.537   1.382  11.298 -0.6857  0.1383 -0.2723
  545MOL0     C73500   2.432   1.366  11.399 -0.4035 -0.4336  0.1873
  545MOL0     C73501   2.304   1.427  11.347  0.4038 -1.1521 -0.6191
  545MOL0     C73502   2.176   1.395  11.439 -0.5655 -0.1349  0.4678
  545MOL0     C73503   2.064   1.413  11.352 -0.6411  0.0116  0.4806
  545MOL0     C73504   1.964   1.433  11.284  0.1363  0.4264 -0.5722
  545MOL0     C73505   2.622   1.197  10.989  0.6802 -0.8370  0.2133
  545MOL0     C73506   2.703   1.214  10.872  0.8915 -0.6907 -0.1847
  545MOL0     C73507   2.678   1.115  10.751  0.3574 -0.5847 -0.0199
  545MOL0     H73508   3.138   1.129  10.604 -2.5770 -0.8649 -0.8836
  545MOL0     H73509   3.305   1.189  10.431  1.3309  1.4337 -0.4518
  545MOL0     H73510   3.436   1.354  10.334 -0.2967 -4.0734  1.3937
  545MOL0     H73511   3.418   1.222  10.227 -2.9636 -1.3361 -0.1085
  545MOL0     H73512   3.413   1.508  10.137  2.0445  0.3781  5.1262
  545MOL0     H73513   3.425   1.364  10.034  1.1230  0.0889  0.4893
  545MOL0     H73514   3.649   1.329  10.080 -0.4927 -1.5306  0.9960
  545MOL0     H73515   3.645   1.395  10.241  4.0456  0.4712 -1.1208
  545MOL0     H73516   3.609   1.551   9.982 -0.5713 -1.9850 -0.4836
  545MOL0     H73517   3.629   1.628  10.142  2.1195  2.2834 -0.5376
  545MOL0     H73518   3.857   1.506  10.145  1.6352  0.3433 -0.2320
  545MOL0     H73519   3.850   1.531   9.965 -2.5155  2.9330 -2.8630
  545MOL0     H73520   3.776   1.777  10.027  0.9187  0.5941 -0.8277
  545MOL0     H73521   3.819   1.739  10.191  0.3410  1.6170 -0.6612
  545MOL0     H73522   3.982   1.872  10.075  1.6106  0.7308 -1.7287
  545MOL0     H73523   3.972   1.759   9.948 -2.2716  2.8186 -0.0994
  545MOL0     H73524   4.073   1.693  10.235  2.4356 -1.3305  0.3345
  545MOL0     H73525   4.102   1.598  10.078 -0.1893  0.8197 -1.8936
  545MOL0     H73526   4.201   1.933  10.234 -1.6765 -1.8713 -1.2483
  545MOL0     H73527   4.599   1.969  10.161 -1.4320 -0.2101 -1.2587
  545MOL0     H73528   4.467   2.075  10.205  3.1488  1.7000 -0.1122
  545MOL0     H73529   4.430   1.972  10.414  0.3248 -1.9495  1.0059
  545MOL0     H73530   4.563   1.849  10.372  0.5372 -0.4152 -0.8962
  545MOL0     H73531   4.579   2.151  10.403 -2.9002 -1.3513 -3.9683
  545MOL0     H73532   4.720   2.040  10.358 -0.3600 -2.3214  0.1380
  545MOL0     H73533   4.709   1.941  10.589 -2.6785  0.5097  2.8195
  545MOL0     H73534   4.577   2.056  10.613  1.5371  0.4352  2.2694
  545MOL0     H73535   4.623   2.078  10.815  0.5517 -0.9880 -1.9472
  545MOL0     H73536   4.722   2.129  11.046 -0.7140  1.2324  0.4874
  545MOL0     H73537   5.084   2.269  11.327 -2.7101  1.9771 -1.4037
  545MOL0     H73538   5.161   2.392  11.556  0.8434  1.4246  1.2326
  545MOL0     H73539   5.146   2.832  11.536  1.2114  0.5048  1.2292
  545MOL0     H73540   5.205   2.805  11.700 -0.1184 -0.7481  1.3495
  545MOL0     H73541   5.347   2.769  11.424 -0.2893  0.1860  0.5873
  545MOL0     H73542   5.372   2.911  11.540 -0.2984  0.3488 -1.2134
  545MOL0     H73543   5.470   2.760  11.696  1.6220 -2.7201  0.0273
  545MOL0     H73544   5.432   2.615  11.594  1.6494 -0.5220  0.8693
  545MOL0     H73545   5.637   2.843  11.516 -1.2868  0.9857  0.2422
  545MOL0     H73546   5.626   2.682  11.443 -1.8131 -2.7749  0.1009
  545MOL0     H73547   5.689   2.573  11.668  6.2519 -1.8972 -1.8867
  545MOL0     H73548   5.692   2.747  11.730 -2.4771 -0.8211 -0.4050
  545MOL0     H73549   5.851   2.601  11.496 -0.8208 -1.2976  0.0228
  545MOL0     H73550   5.887   2.763  11.555 -1.7388 -0.5196  0.3890
  545MOL0     H73551   5.972   2.501  11.646  0.7856  0.5830 -1.1260
  545MOL0     H73552   5.917   2.602  11.781 -0.8580 -1.1308  0.4427
  545MOL0     H73553   6.072   2.772  11.751 -1.4424 -0.6122  1.4169
  545MOL0     H73554   6.157   2.623  11.746  0.1281  0.8219 -0.4578
  545MOL0     H73555   5.128   2.754  11.341 -0.2316 -0.0263  0.0207
  545MOL0     H73556   5.064   2.636  11.143  1.4795  0.3284  0.0372
  545MOL0     H73557   5.013   2.386  10.847 -0.1900  0.6566 -0.5198
  545MOL0     H73558   4.932   2.299  10.627 -1.6327 -0.8450 -0.8723
  545MOL0     H73559   3.055   1.464  10.258  0.1605 -0.4090  0.5746
  545MOL0     H73560   2.873   1.429  10.433 -0.5924 -1.2183 -0.9422
  545MOL0     H73561   2.889   1.486  10.986  2.3236 -1.1367  0.9193
  545MOL0     H73562   2.742   1.459  11.164  1.6344  0.1869 -1.4294
  545MOL0     H73563   2.512   1.478  11.251  0.9747  0.4630 -0.5796
  545MOL0     H73564   2.633   1.397  11.349  0.1328  0.5700 -1.8589
  545MOL0     H73565   2.445   1.432  11.485 -3.0076 -1.1814  1.2395
  545MOL0     H73566   2.426   1.264  11.438 -1.3024  0.3606  2.2682
  545MOL0     H73567   2.278   1.391  11.247 -1.5537 -1.8964  0.1136
  545MOL0     H73568   2.315   1.534  11.327  0.3199 -1.3550 -1.8547
  545MOL0     H73569   2.177   1.288  11.464  0.1096  0.1827  1.8933
  545MOL0     H73570   2.154   1.446  11.533  1.6006  2.9606 -0.5472
  545MOL0     H73571   1.871   1.438  11.231  0.1838  0.1501 -0.6822
  545MOL0     H73572   2.537   1.130  10.981 -1.7459  2.2064 -2.2113
  545MOL0     H73573   2.670   1.173  10.658  1.3973 -1.6218 -0.7913
  545MOL0     H73574   2.763   1.049  10.732  1.4862  1.8320 -5.4552
  545MOL0     H73575   2.586   1.058  10.762  0.5958 -1.7083 -2.9059
  546MOL0     O73576   9.271   7.691   3.721 -0.0440  0.2374 -0.3731
  546MOL0     C73577   9.218   7.590   3.771 -0.5911  0.0104  0.2274
  546MOL0     O73578   9.283   7.476   3.777 -0.1850  0.2539  0.2042
  546MOL0     C73579   9.418   7.461   3.760  1.2999  0.4062 -0.5288
  546MOL0     C73580   9.505   7.482   3.863  0.0222  0.0032 -0.0219
  546MOL0     C73581   9.636   7.467   3.842  0.2765 -0.0239 -0.9452
  546MOL0     C73582   9.691   7.441   3.718  0.5978  0.8572 -0.1580
  546MOL0     O73583   9.825   7.421   3.707  0.5887 -0.2311 -0.5142
  546MOL0     C73584   9.873   7.372   3.579 -0.1231 -0.0064  0.2893
  546MOL0     C73585  10.026   7.343   3.585 -0.0312  0.3692  0.4898
  546MOL0     C73586  10.104   7.475   3.576  0.5094 -0.6092  0.4808
  546MOL0     C73587  10.253   7.456   3.595 -0.1099  0.5307 -0.2020
  546MOL0     C73588  10.335   7.576   3.540  0.8693  0.5162 -0.5507
  546MOL0     C73589  10.486   7.573   3.595  1.0348 -0.2986  0.8223
  546MOL0     C73590  10.559   7.440   3.628  0.2027 -0.0939 -0.2213
  546MOL0     C73591  10.591   7.357   3.502  0.0473 -0.7564 -0.1857
  546MOL0     N73592  10.693   7.252   3.516  0.3588  0.3448  0.0311
  546MOL0     C73593  10.672   7.118   3.533 -0.5380 -0.7939  0.2724
  546MOL0     C73594  10.798   7.073   3.537 -0.2717  0.1192  0.4713
  546MOL0     C73595  10.836   6.931   3.565 -0.2881 -0.3529  0.9899
  546MOL0     C73596  10.856   6.860   3.424 -0.7835 -0.0911  0.2420
  546MOL0     C73597  10.969   6.752   3.424 -0.5135 -0.5851  0.4048
  546MOL0     C73598  11.107   6.827   3.419  0.2282 -0.1014  0.3512
  546MOL0     O73599  11.205   6.784   3.519 -0.6951  0.8090 -0.0681
  546MOL0     C73600  11.338   6.754   3.496 -0.6105 -0.5289  0.6674
  546MOL0     C73601  11.399   6.663   3.578  0.5958 -0.1703 -0.1742
  546MOL0     C73602  11.529   6.631   3.563  0.2077 -0.2595 -0.7066
  546MOL0     C73603  11.606   6.701   3.471 -0.5429 -0.9633  0.3817
  546MOL0     C73604  11.752   6.672   3.460  0.2564 -0.6362  0.9925
  546MOL0     O73605  11.826   6.757   3.375 -0.4998 -0.3830 -0.4343
  546MOL0     C73606  11.947   6.714   3.331 -0.4730  0.7074  0.4740
  546MOL0     C73607  11.980   6.575   3.295  0.2379 -0.9969  0.5293
  546MOL0     C73608  12.106   6.540   3.259 -0.2719 -0.4884 -0.0564
  546MOL0     C73609  12.209   6.645   3.258 -0.4970 -0.3378  0.4008
  546MOL0     O73610  12.341   6.613   3.243 -0.0680 -0.2094  0.3955
  546MOL0     C73611  12.359   6.479   3.212 -0.1545 -0.2043 -0.6022
  546MOL0     C73612  12.514   6.457   3.208  0.2651  0.1991 -0.4719
  546MOL0     C73613  12.554   6.312   3.212  0.3175  0.3607  0.0155
  546MOL0     C73614  12.698   6.306   3.234 -0.3178 -0.0663  0.4478
  546MOL0     C73615  12.783   6.376   3.118 -0.1477 -0.5238 -0.1368
  546MOL0     C73616  12.771   6.295   2.990  0.1804 -0.3657 -0.2289
  546MOL0     C73617  12.845   6.362   2.872 -0.6085  0.4182  0.8093
  546MOL0     C73618  12.822   6.277   2.740 -1.2769  0.4348 -1.0679
  546MOL0    Cl73619  12.649   6.268   2.697  0.0614 -0.0253 -0.1435
  546MOL0     C73620  12.174   6.776   3.281  0.1733 -1.5787  0.0149
  546MOL0     C73621  12.046   6.811   3.314 -0.1621  0.2261  1.3628
  546MOL0     O73622  11.795   6.580   3.528  0.3368  0.1304  0.0127
  546MOL0     C73623  11.549   6.801   3.393 -0.1369  0.1077  0.1796
  546MOL0     C73624  11.411   6.826   3.405  0.0328  0.1262 -0.3807
  546MOL0     N73625  10.893   7.165   3.510  0.2800 -0.1182  0.2095
  546MOL0     N73626  10.827   7.279   3.497  0.0185  0.3651 -0.2092
  546MOL0     C73627   9.603   7.420   3.618  0.2539 -0.9116  0.3490
  546MOL0     C73628   9.465   7.432   3.632  0.6724  0.1812 -0.2706
  546MOL0     C73629   9.070   7.595   3.771  0.8616  0.0645  0.2297
  546MOL0     C73630   8.996   7.473   3.767 -0.3320 -0.8218 -0.0407
  546MOL0     C73631   8.860   7.474   3.791  0.3731  0.7406 -0.2586
  546MOL0     C73632   8.789   7.583   3.814  0.5248 -0.1827 -0.1895
  546MOL0     O73633   8.656   7.581   3.856 -0.0538 -0.7876  0.0434
  546MOL0     C73634   8.583   7.707   3.862  0.5803 -0.6853 -0.3076
  546MOL0     C73635   8.454   7.675   3.935  0.0117  0.3839  0.8006
  546MOL0     C73636   8.363   7.571   3.868 -0.7322  0.7202 -0.5649
  546MOL0     C73637   8.208   7.584   3.905 -0.4045  0.1136 -0.6791
  546MOL0     C73638   8.165   7.707   3.855  0.4233  0.2009 -0.4371
  546MOL0     C73639   8.143   7.817   3.810 -0.8279  0.2381 -0.6050
  546MOL0     C73640   8.854   7.705   3.794 -0.0633  0.2773 -0.1584
  546MOL0     C73641   8.995   7.714   3.787 -0.3503 -0.8432 -0.0282
  546MOL0     C73642   9.040   7.855   3.779 -0.9165 -0.7036  0.3030
  546MOL0     H73643   9.465   7.512   3.959 -0.6951 -1.0566  0.0371
  546MOL0     H73644   9.703   7.490   3.925 -2.7356 -1.4816  2.0976
  546MOL0     H73645   9.833   7.272   3.562 -1.0762  0.5650 -0.9357
  546MOL0     H73646   9.855   7.441   3.496  1.6587  1.9281  1.4057
  546MOL0     H73647  10.057   7.269   3.511  2.6543  2.9654 -1.1810
  546MOL0     H73648  10.045   7.294   3.681 -2.8629  0.0559  0.9886
  546MOL0     H73649  10.072   7.558   3.640  0.8983  0.5940 -0.8188
  546MOL0     H73650  10.076   7.515   3.478 -0.1748  0.3094  1.0296
  546MOL0     H73651  10.260   7.446   3.704 -0.8753 -0.4328 -0.2314
  546MOL0     H73652  10.279   7.361   3.548 -5.1343 -0.0923 -2.2694
  546MOL0     H73653  10.343   7.559   3.432  0.9728 -0.3452 -0.4120
  546MOL0     H73654  10.285   7.671   3.562  2.2281  1.9097 -2.9723
  546MOL0     H73655  10.552   7.624   3.524  0.6895 -0.3954  0.4315
  546MOL0     H73656  10.476   7.626   3.690 -0.7023 -0.6474  0.8608
  546MOL0     H73657  10.496   7.390   3.702 -2.1071  1.7891 -0.7955
  546MOL0     H73658  10.655   7.470   3.672 -0.0725 -1.5416  1.4968
  546MOL0     H73659  10.494   7.310   3.482 -0.7383 -1.1615  3.7710
  546MOL0     H73660  10.632   7.421   3.424  1.0448 -0.1196  0.8222
  546MOL0     H73661  10.581   7.060   3.537 -2.0620  1.5578  1.9409
  546MOL0     H73662  10.926   6.918   3.627 -1.0235 -2.2388  1.7643
  546MOL0     H73663  10.755   6.878   3.616 -1.3404 -1.2522 -1.4940
  546MOL0     H73664  10.766   6.807   3.392 -1.1380  1.5435 -1.7247
  546MOL0     H73665  10.865   6.932   3.342 -1.0980 -0.4610 -0.1216
  546MOL0     H73666  10.956   6.689   3.336 -0.4911 -0.1268  0.0730
  546MOL0     H73667  10.960   6.688   3.513  2.7497  0.0591  1.3373
  546MOL0     H73668  11.092   6.934   3.436 -1.0244 -0.1801 -0.1703
  546MOL0     H73669  11.149   6.813   3.319 -0.1958  0.7996  0.0359
  546MOL0     H73670  11.342   6.617   3.658  2.9833  0.8534  2.2701
  546MOL0     H73671  11.556   6.548   3.627  0.1873  1.5182  1.7475
  546MOL0     H73672  11.904   6.498   3.300 -0.7929  0.0591  2.8414
  546MOL0     H73673  12.115   6.433   3.242 -2.0008 -0.6591 -0.0449
  546MOL0     H73674  12.325   6.409   3.289  3.0442 -1.3272 -0.0625
  546MOL0     H73675  12.310   6.450   3.118  0.8204 -1.8344 -0.6538
  546MOL0     H73676  12.542   6.517   3.120 -0.0837  0.7333 -0.2245
  546MOL0     H73677  12.559   6.514   3.291 -2.4178  0.6005  0.7967
  546MOL0     H73678  12.499   6.250   3.283 -0.0766 -1.0899 -1.4820
  546MOL0     H73679  12.520   6.267   3.118 -0.6761  0.0093  0.5244
  546MOL0     H73680  12.731   6.201   3.234  2.0739  0.6307 -0.5230
  546MOL0     H73681  12.710   6.347   3.335 -3.0900  0.0328  0.8309
  546MOL0     H73682  12.886   6.395   3.149  0.0823 -2.6307  0.5836
  546MOL0     H73683  12.745   6.475   3.094  0.0910 -0.4682 -0.2909
  546MOL0     H73684  12.806   6.194   3.009 -2.9002 -1.4115  0.4384
  546MOL0     H73685  12.669   6.287   2.951  1.1043 -0.0608 -2.8621
  546MOL0     H73686  12.952   6.368   2.891 -0.6638  0.4998  1.1007
  546MOL0     H73687  12.813   6.465   2.857  0.4222  0.4907 -1.2975
  546MOL0     H73688  12.876   6.318   2.654  0.0213  0.2960 -0.3319
  546MOL0     H73689  12.871   6.180   2.752  1.3163  1.6860 -1.0158
  546MOL0     H73690  12.252   6.851   3.284 -0.9198 -0.4141 -0.0063
  546MOL0     H73691  12.024   6.916   3.329 -0.6502  0.2221  0.7275
  546MOL0     H73692  11.597   6.871   3.326  0.1850 -0.0933  0.2005
  546MOL0     H73693  11.360   6.908   3.355  0.3302 -0.1333 -1.1210
  546MOL0     H73694   9.633   7.402   3.515 -1.1737 -1.5721  0.0183
  546MOL0     H73695   9.393   7.407   3.555  0.8421 -1.2141 -0.0069
  546MOL0     H73696   9.056   7.388   3.734  3.4762  2.0084 -1.0674
  546MOL0     H73697   8.810   7.377   3.795  2.4837 -0.4439 -1.0210
  546MOL0     H73698   8.573   7.746   3.761  0.1110  1.8171  0.6494
  546MOL0     H73699   8.639   7.783   3.917  0.6536 -0.2204 -1.0135
  546MOL0     H73700   8.404   7.769   3.957  0.6808  1.0112 -0.2746
  546MOL0     H73701   8.476   7.637   4.036 -0.9385 -3.0630 -0.1464
  546MOL0     H73702   8.403   7.472   3.892 -0.0563  1.1647  0.2209
  546MOL0     H73703   8.367   7.582   3.759 -0.9323 -1.2329 -0.7986
  546MOL0     H73704   8.151   7.498   3.871 -0.1296 -1.5274  2.6461
  546MOL0     H73705   8.192   7.590   4.013  4.1455  2.4116  0.1232
  546MOL0     H73706   8.132   7.921   3.786  0.4772  0.4986 -0.1396
  546MOL0     H73707   8.801   7.799   3.806  1.0503  0.6629  2.6014
  546MOL0     H73708   9.116   7.872   3.857  0.2038  2.1789 -1.2527
  546MOL0     H73709   9.090   7.875   3.684 -1.3923 -0.4970  0.0915
  546MOL0     H73710   8.959   7.924   3.805  1.1893  1.3164  2.0127
  547MOL0     O73711   7.493   0.613   4.068 -0.0285 -0.3189  0.1280
  547MOL0     C73712   7.487   0.535   3.980 -0.7200 -0.3411 -0.6616
  547MOL0     O73713   7.599   0.486   3.915  0.3944 -0.1536 -0.5110
  547MOL0     C73714   7.724   0.508   3.970  0.2363  0.7752  0.8721
  547MOL0     C73715   7.810   0.602   3.912 -0.2109  0.2812 -0.1301
  547MOL0     C73716   7.941   0.614   3.955 -0.3939  0.1654 -0.4679
  547MOL0     C73717   7.992   0.533   4.060  0.3434 -1.0913  0.3368
  547MOL0     O73718   8.131   0.551   4.081 -0.0940 -0.8638 -0.1596
  547MOL0     C73719   8.185   0.474   4.184 -0.4936  0.7187 -0.4910
  547MOL0     C73720   8.331   0.460   4.168 -0.1806  0.9878  0.0075
  547MOL0     C73721   8.395   0.601   4.181  0.5336  0.8640  0.5246
  547MOL0     C73722   8.548   0.579   4.194  0.6908 -0.3211  0.0228
  547MOL0     C73723   8.621   0.693   4.120  0.0343 -0.0802 -0.0543
  547MOL0     C73724   8.777   0.694   4.134  0.5431 -0.2652  0.3391
  547MOL0     C73725   8.856   0.788   4.058 -0.0547  0.4082 -0.1249
  547MOL0     C73726   8.998   0.776   4.080 -1.3514 -1.3451 -0.7700
  547MOL0     N73727   9.093   0.848   3.994  0.1047  0.1926  0.8164
  547MOL0     C73728   9.133   0.788   3.879 -0.2275  0.2430  0.1702
  547MOL0     C73729   9.170   0.891   3.802  0.1569  0.1934 -0.1990
  547MOL0     C73730   9.236   0.871   3.666 -0.4647 -0.2789 -0.6432
  547MOL0     C73731   9.389   0.845   3.679  0.7844  0.0877  0.8281
  547MOL0     C73732   9.422   0.704   3.701  0.3461  0.2760  0.6071
  547MOL0     C73733   9.569   0.680   3.687  0.1110  0.2335 -0.7853
  547MOL0     O73734   9.594   0.645   3.551 -0.9390  0.0653  0.1739
  547MOL0     C73735   9.725   0.624   3.501  0.1976  0.9012 -0.3927
  547MOL0     C73736   9.831   0.620   3.588  0.2429 -0.0538 -0.3004
  547MOL0     C73737   9.953   0.589   3.546  0.0629  0.2636  0.7257
  547MOL0     C73738   9.976   0.561   3.410 -0.1105 -0.3148 -0.5096
  547MOL0     C73739  10.092   0.483   3.369  0.1110  0.1449 -0.0760
  547MOL0     O73740  10.087   0.406   3.263  0.4860 -0.2036  0.1508
  547MOL0     C73741  10.198   0.340   3.229 -0.7623  0.5470  0.3684
  547MOL0     C73742  10.281   0.380   3.128  0.5696 -0.1599 -0.0005
  547MOL0     C73743  10.401   0.304   3.095  0.2646  0.2139 -0.7631
  547MOL0     C73744  10.429   0.186   3.171  0.4199 -0.7683 -0.4727
  547MOL0     O73745  10.546   0.118   3.142  0.6650  0.6870 -0.5750
  547MOL0     C73746  10.598   0.032   3.253 -0.0727 -0.2739 -0.3934
  547MOL0     C73747  10.707  -0.049   3.187 -0.8470 -0.8366 -0.9796
  547MOL0     C73748  10.825   0.053   3.154 -0.3349  0.0247  0.7667
  547MOL0     C73749  10.936  -0.002   3.073  0.3362  0.4624 -0.0915
  547MOL0     C73750  11.061   0.085   3.066  0.4356  0.3172  0.4497
  547MOL0     C73751  11.151   0.055   3.187 -0.3589  0.1104  0.5739
  547MOL0     C73752  11.304   0.082   3.151  0.9221  0.9913  1.1816
  547MOL0     C73753  11.334   0.221   3.128  0.1730 -0.1786 -0.8106
  547MOL0    Cl73754  11.310   0.311   3.283 -0.4540  0.2217 -0.2369
  547MOL0     C73755  10.340   0.145   3.272 -0.0677 -0.3710 -0.2033
  547MOL0     C73756  10.225   0.223   3.300 -0.1852  0.2168 -0.3264
  547MOL0     O73757  10.188   0.510   3.436  0.2600 -0.3458 -0.5732
  547MOL0     C73758   9.874   0.570   3.315 -0.4644  0.3916 -0.5821
  547MOL0     C73759   9.745   0.584   3.370 -0.5089 -0.0662  0.2727
  547MOL0     N73760   9.171   1.010   3.873  0.1728 -0.1233  0.6484
  547MOL0     N73761   9.111   0.983   3.987 -0.1471 -0.3916  0.4872
  547MOL0     C73762   7.902   0.454   4.124  0.5335  0.0876  0.2347
  547MOL0     C73763   7.770   0.437   4.081 -0.2736 -0.2297  0.8364
  547MOL0     C73764   7.359   0.477   3.940  0.4420  0.3474  1.1728
  547MOL0     C73765   7.375   0.375   3.839  0.2555 -0.0058 -0.1286
  547MOL0     C73766   7.265   0.301   3.792  0.1755  0.0875  0.7245
  547MOL0     C73767   7.135   0.323   3.845 -0.1900  0.5972  0.3713
  547MOL0     O73768   7.018   0.263   3.808 -0.3413 -0.6686  0.2371
  547MOL0     C73769   6.950   0.310   3.691  0.0049  0.5533  0.1948
  547MOL0     C73770   6.819   0.242   3.692  0.7898  0.2434  0.4543
  547MOL0     C73771   6.760   0.250   3.551 -0.2088 -0.3686 -0.3389
  547MOL0     C73772   6.617   0.188   3.530 -0.1980 -0.7863  0.2122
  547MOL0     C73773   6.509   0.269   3.580 -0.0794 -0.5723  0.0373
  547MOL0     C73774   6.431   0.351   3.632  0.6725  0.0295  0.8884
  547MOL0     C73775   7.117   0.421   3.942  0.5328 -0.0083 -0.5390
  547MOL0     C73776   7.228   0.498   3.990  0.5199 -0.0816 -0.1138
  547MOL0     C73777   7.199   0.600   4.093  0.4125 -0.2828  0.1284
  547MOL0     H73778   7.771   0.669   3.836  0.6672  0.2701 -0.6035
  547MOL0     H73779   8.013   0.685   3.915 -3.1098  3.7943  0.6077
  547MOL0     H73780   8.162   0.517   4.282 -0.2339  0.8976 -0.5069
  547MOL0     H73781   8.151   0.371   4.171 -0.6336  0.7151 -0.0909
  547MOL0     H73782   8.340   0.413   4.070 -2.5019  0.0397  0.1868
  547MOL0     H73783   8.369   0.397   4.249 -0.1753  1.2486  0.2096
  547MOL0     H73784   8.346   0.654   4.263 -2.1010 -0.3460 -0.1495
  547MOL0     H73785   8.372   0.650   4.087 -2.5157  1.4635  1.4668
  547MOL0     H73786   8.578   0.581   4.299 -1.0057 -0.0847  0.5429
  547MOL0     H73787   8.582   0.487   4.145 -1.3066  0.6470 -3.5548
  547MOL0     H73788   8.592   0.692   4.014  0.5925 -0.9575 -0.2100
  547MOL0     H73789   8.593   0.791   4.160  0.0617  0.3691 -1.1039
  547MOL0     H73790   8.795   0.699   4.242 -0.1867  3.9820  0.4418
  547MOL0     H73791   8.810   0.595   4.102 -1.4006 -0.6867 -0.5036
  547MOL0     H73792   8.839   0.894   4.075  1.9505  0.5659  1.2127
  547MOL0     H73793   8.845   0.766   3.951 -0.8608 -1.4321  0.2991
  547MOL0     H73794   9.016   0.810   4.183  2.3190  1.9872 -2.2803
  547MOL0     H73795   9.024   0.670   4.074 -2.0506 -1.4797 -1.7085
  547MOL0     H73796   9.126   0.684   3.850 -0.4532  0.1395  0.5798
  547MOL0     H73797   9.195   0.796   3.599 -0.4135 -1.2296  0.3694
  547MOL0     H73798   9.231   0.961   3.604 -3.7862  0.9200  1.1258
  547MOL0     H73799   9.439   0.886   3.591 -1.1604  2.8946  0.8861
  547MOL0     H73800   9.422   0.906   3.764  1.4166 -0.3989  0.9383
  547MOL0     H73801   9.356   0.648   3.635 -1.9888  3.3153  0.1793
  547MOL0     H73802   9.396   0.672   3.803 -2.1502 -0.9739 -0.3388
  547MOL0     H73803   9.594   0.590   3.743 -1.8220  1.4125  2.1615
  547MOL0     H73804   9.631   0.765   3.716  2.2282 -1.0442 -1.2806
  547MOL0     H73805   9.826   0.640   3.695  2.1591  2.7216 -0.6194
  547MOL0     H73806  10.028   0.570   3.622  0.9109  1.0938  0.1211
  547MOL0     H73807  10.247   0.469   3.075 -2.6885 -1.3337 -0.1088
  547MOL0     H73808  10.456   0.338   3.008  1.6909  0.3083  0.1492
  547MOL0     H73809  10.629   0.083   3.345 -2.1046 -0.0676  0.2334
  547MOL0     H73810  10.528  -0.045   3.287  1.0136 -0.9124  0.4569
  547MOL0     H73811  10.747  -0.119   3.261 -0.1093  1.4044  0.8739
  547MOL0     H73812  10.663  -0.096   3.099 -0.5244 -0.0764 -1.5588
  547MOL0     H73813  10.790   0.144   3.102  1.9681  0.9552  0.7362
  547MOL0     H73814  10.875   0.092   3.243  0.8172  0.2044  0.0583
  547MOL0     H73815  10.885  -0.005   2.976  0.2415  2.1435 -0.1142
  547MOL0     H73816  10.967  -0.102   3.104 -0.0829  0.7307  1.2544
  547MOL0     H73817  11.037   0.191   3.054  1.8648  1.2555  4.4146
  547MOL0     H73818  11.104   0.046   2.974 -2.3623  0.0647 -0.8625
  547MOL0     H73819  11.116   0.120   3.268  1.3708  1.7212  0.0841
  547MOL0     H73820  11.144  -0.049   3.222 -0.4809  0.6720  2.3327
  547MOL0     H73821  11.335   0.023   3.064 -1.5461  1.2042  0.0669
  547MOL0     H73822  11.360   0.050   3.240 -0.2978 -1.7299  1.0665
  547MOL0     H73823  11.433   0.242   3.088 -0.2587  1.0535 -1.2722
  547MOL0     H73824  11.265   0.263   3.054  0.4393 -0.6611 -1.3456
  547MOL0     H73825  10.343   0.049   3.323 -0.3007 -0.3289 -0.1037
  547MOL0     H73826  10.160   0.188   3.379 -1.1144 -2.6730 -2.2149
  547MOL0     H73827   9.882   0.524   3.218  1.2899 -0.6824  0.0222
  547MOL0     H73828   9.665   0.573   3.298 -0.1742 -1.0305  0.0370
  547MOL0     H73829   7.942   0.383   4.196  4.1232 -1.5373 -3.0327
  547MOL0     H73830   7.709   0.363   4.132 -3.7313  0.7942 -1.4478
  547MOL0     H73831   7.466   0.338   3.793  0.1399  0.4476 -0.7407
  547MOL0     H73832   7.278   0.222   3.718 -0.4842  1.8226 -1.3625
  547MOL0     H73833   6.996   0.280   3.596 -1.2537 -1.5597  0.1865
  547MOL0     H73834   6.943   0.419   3.690  1.3599  0.6541 -0.1919
  547MOL0     H73835   6.755   0.278   3.773 -0.4131  1.8856 -1.1306
  547MOL0     H73836   6.827   0.134   3.707  1.2171  0.3730  1.1932
  547MOL0     H73837   6.838   0.193   3.497  1.4332  0.2728  1.2559
  547MOL0     H73838   6.771   0.354   3.519  1.0869  0.1544  1.6372
  547MOL0     H73839   6.602   0.175   3.423 -1.7993 -1.2313  0.4606
  547MOL0     H73840   6.607   0.091   3.579 -0.6234 -0.8954 -0.0842
  547MOL0     H73841   6.376   0.427   3.684  1.1160  1.0467 -0.0917
  547MOL0     H73842   7.017   0.441   3.979  1.9160  0.1895  3.5248
  547MOL0     H73843   7.094   0.631   4.081  0.2289 -0.7139  0.5716
  547MOL0     H73844   7.214   0.566   4.196 -1.9876  1.4795  1.1807
  547MOL0     H73845   7.252   0.693   4.072  1.0269 -0.6522  0.0268
  548MOL0     O73846   3.714   0.558   2.509 -0.3049 -0.0686 -0.3361
  548MOL0     C73847   3.745   0.552   2.390 -1.0726 -0.1817 -0.2091
  548MOL0     O73848   3.649   0.561   2.281 -0.4446  0.0882  0.2644
  548MOL0     C73849   3.520   0.588   2.312  0.4717  0.2856 -0.1005
  548MOL0     C73850   3.450   0.513   2.403 -0.2894  0.3285  0.5980
  548MOL0     C73851   3.309   0.532   2.429 -0.7706 -0.4791 -1.0289
  548MOL0     C73852   3.240   0.626   2.349 -0.1539 -0.2790  0.4530
  548MOL0     O73853   3.106   0.646   2.366 -0.2128 -0.5069 -0.4585
  548MOL0     C73854   3.031   0.586   2.261 -1.7315  0.3132 -0.5139
  548MOL0     C73855   2.878   0.621   2.279  0.8855 -0.5225  1.0650
  548MOL0     C73856   2.812   0.536   2.384 -0.0805  0.7833  0.1908
  548MOL0     C73857   2.781   0.395   2.333 -0.8143  0.8022 -0.8414
  548MOL0     C73858   2.740   0.305   2.447 -0.5942 -0.1128  0.7095
  548MOL0     C73859   2.603   0.334   2.501 -0.2501  0.0718  0.4931
  548MOL0     C73860   2.562   0.234   2.610  0.3791  0.8580  0.0132
  548MOL0     C73861   2.465   0.130   2.550 -0.1497 -0.2681  0.0603
  548MOL0     N73862   2.320   0.172   2.544  0.2063  0.1886  0.1643
  548MOL0     C73863   2.242   0.220   2.645 -0.4276  0.7717 -0.1981
  548MOL0     C73864   2.120   0.223   2.585  0.4389 -0.4250  0.1011
  548MOL0     C73865   1.985   0.265   2.657 -0.2096  0.4152  0.4622
  548MOL0     C73866   1.965   0.422   2.670 -0.0211 -0.4293  0.2578
  548MOL0     C73867   1.972   0.479   2.520  1.0391  0.8072 -1.2007
  548MOL0     C73868   1.890   0.613   2.503  0.1050 -0.4937  0.1473
  548MOL0     O73869   1.845   0.667   2.626 -0.3284  0.0737  0.8813
  548MOL0     C73870   1.923   0.750   2.700 -0.5006  0.7682 -0.0223
  548MOL0     C73871   2.060   0.778   2.681 -0.6870  0.1775  0.5393
  548MOL0     C73872   2.143   0.867   2.747 -0.2092 -0.1399  0.4688
  548MOL0     C73873   2.081   0.922   2.862  0.1456 -1.0130  0.4965
  548MOL0     C73874   2.152   1.020   2.940 -1.1468 -0.1954 -0.4663
  548MOL0     O73875   2.274   1.065   2.888 -0.4782 -0.2002  0.3618
  548MOL0     C73876   2.348   1.168   2.944  0.0012 -0.2937  0.6863
  548MOL0     C73877   2.469   1.173   2.876  0.4582  0.3599 -0.4260
  548MOL0     C73878   2.565   1.276   2.909 -0.2520  0.6165  0.3530
  548MOL0     C73879   2.538   1.363   3.015  0.9084  0.1666 -0.6036
  548MOL0     O73880   2.638   1.441   3.057 -0.4260  0.8990  0.3266
  548MOL0     C73881   2.627   1.526   3.173  0.0764  0.5107  0.7082
  548MOL0     C73882   2.744   1.629   3.186 -0.3210 -0.0332  0.9419
  548MOL0     C73883   2.880   1.559   3.208 -0.0967 -0.0910 -0.1727
  548MOL0     C73884   2.982   1.673   3.245  0.8195  0.0419  0.4050
  548MOL0     C73885   3.120   1.630   3.260  0.3425  1.1426  0.2811
  548MOL0     C73886   3.184   1.631   3.120 -0.0125  0.7681  0.7070
  548MOL0     C73887   3.317   1.556   3.147  0.2841  0.7226  0.1824
  548MOL0     C73888   3.394   1.539   3.007  0.4652 -0.2908 -0.1903
  548MOL0    Cl73889   3.512   1.415   3.046 -0.1895 -0.1138  0.1717
  548MOL0     C73890   2.420   1.341   3.088  0.3507  0.0429 -0.5700
  548MOL0     C73891   2.323   1.246   3.055  0.6056  0.0236  0.7105
  548MOL0     O73892   2.111   1.046   3.052 -0.1803 -0.1402 -0.7805
  548MOL0     C73893   1.941   0.900   2.891 -0.2452 -0.8060 -0.2271
  548MOL0     C73894   1.870   0.810   2.810  1.0639 -0.3419 -0.0772
  548MOL0     N73895   2.131   0.210   2.448 -0.8682 -0.4385 -0.2876
  548MOL0     N73896   2.248   0.158   2.428 -0.4531 -0.3079 -0.4682
  548MOL0     C73897   3.311   0.689   2.246 -0.5470 -0.0844  0.1283
  548MOL0     C73898   3.451   0.678   2.234  0.4420  0.1646 -0.0757
  548MOL0     C73899   3.886   0.514   2.367 -0.7232 -0.2947  0.3475
  548MOL0     C73900   3.961   0.466   2.478  0.7055 -0.7499 -0.7002
  548MOL0     C73901   4.099   0.446   2.471  0.0466 -1.0105  0.3788
  548MOL0     C73902   4.159   0.440   2.337 -0.3855  0.0698 -0.0987
  548MOL0     O73903   4.295   0.405   2.331 -0.8009 -0.4435  0.2886
  548MOL0     C73904   4.357   0.401   2.191 -0.4565 -0.0238  0.1830
  548MOL0     C73905   4.505   0.354   2.198  0.5124  0.2404 -0.1696
  548MOL0     C73906   4.520   0.202   2.210 -1.1927  0.0346  0.8911
  548MOL0     C73907   4.672   0.163   2.204 -0.1951  0.5124  0.5279
  548MOL0     C73908   4.719   0.140   2.065 -0.4958 -0.3098  0.2372
  548MOL0     C73909   4.772   0.130   1.957 -0.6857 -0.4214 -0.9315
  548MOL0     C73910   4.080   0.482   2.225  0.2422  0.4622  0.3740
  548MOL0     C73911   3.951   0.525   2.238  0.7245 -1.1466  0.3658
  548MOL0     C73912   3.872   0.575   2.121  0.8034 -0.5251 -0.1266
  548MOL0     H73913   3.504   0.439   2.461 -2.5511 -1.6996  0.3064
  548MOL0     H73914   3.254   0.472   2.502 -0.3169  0.0090 -0.2689
  548MOL0     H73915   3.064   0.614   2.161  1.4446 -2.7356 -0.5264
  548MOL0     H73916   3.053   0.480   2.250 -2.4743  0.3489 -2.7952
  548MOL0     H73917   2.831   0.607   2.181 -0.0706  1.1902  1.2427
  548MOL0     H73918   2.870   0.728   2.301  1.4709 -0.3508  0.4624
  548MOL0     H73919   2.722   0.595   2.405 -2.1916 -1.5045 -1.8188
  548MOL0     H73920   2.867   0.534   2.479  0.6877  2.9992 -0.1488
  548MOL0     H73921   2.699   0.399   2.261  1.9774 -0.8762 -4.4158
  548MOL0     H73922   2.870   0.350   2.288 -2.1265  0.5503 -3.3497
  548MOL0     H73923   2.750   0.199   2.422 -2.1191 -0.6631  2.1639
  548MOL0     H73924   2.806   0.321   2.533 -1.9011  2.3693  1.3475
  548MOL0     H73925   2.610   0.429   2.554 -2.5034 -0.3191  1.6507
  548MOL0     H73926   2.519   0.339   2.430  0.6881 -0.1327 -0.6618
  548MOL0     H73927   2.524   0.286   2.698  0.8421 -0.0374  0.7462
  548MOL0     H73928   2.654   0.181   2.637 -0.9086 -1.3000  0.3763
  548MOL0     H73929   2.513   0.104   2.455  1.5585 -3.7009  1.6678
  548MOL0     H73930   2.483   0.050   2.622  1.2315 -0.0882 -0.0574
  548MOL0     H73931   2.270   0.252   2.745 -2.1582  0.8142  0.2931
  548MOL0     H73932   1.896   0.223   2.608  0.6187 -0.5102 -0.2917
  548MOL0     H73933   1.983   0.237   2.762 -1.6120  2.9286  1.1821
  548MOL0     H73934   1.861   0.441   2.700 -1.2514 -0.5462 -3.4430
  548MOL0     H73935   2.037   0.469   2.738 -1.2510  0.7826  0.7907
  548MOL0     H73936   1.908   0.413   2.460 -1.7067  0.1325  2.1229
  548MOL0     H73937   2.072   0.503   2.483  2.3830  3.1434  3.1933
  548MOL0     H73938   1.802   0.603   2.439 -0.3985 -0.0932  0.7747
  548MOL0     H73939   1.959   0.685   2.457 -1.8668  1.5644  0.2707
  548MOL0     H73940   2.106   0.732   2.594 -2.1701 -4.0548  1.7342
  548MOL0     H73941   2.245   0.886   2.714  1.4145 -3.9746  2.6329
  548MOL0     H73942   2.487   1.095   2.803  0.4696  1.0970 -1.2260
  548MOL0     H73943   2.657   1.282   2.852 -0.4139  0.3560  0.0558
  548MOL0     H73944   2.531   1.576   3.152 -2.0402 -2.8593  1.5790
  548MOL0     H73945   2.627   1.468   3.266 -1.8791  0.2188  0.5822
  548MOL0     H73946   2.752   1.688   3.094 -1.3497  0.5132  1.1917
  548MOL0     H73947   2.728   1.689   3.275 -0.8021 -1.3710  1.7896
  548MOL0     H73948   2.882   1.490   3.293 -1.1107  3.1987  2.7966
  548MOL0     H73949   2.906   1.492   3.126 -1.3550 -3.5537  2.0457
  548MOL0     H73950   2.947   1.715   3.340  0.2581  1.9663 -0.6108
  548MOL0     H73951   2.978   1.754   3.171  0.0846  1.0282  1.4865
  548MOL0     H73952   3.129   1.536   3.315  2.1890  0.9393 -0.2852
  548MOL0     H73953   3.176   1.706   3.316  0.0143  1.1118  0.6557
  548MOL0     H73954   3.118   1.572   3.056 -1.1222 -3.0851  4.9336
  548MOL0     H73955   3.179   1.736   3.088 -1.1879  1.1817  2.1798
  548MOL0     H73956   3.294   1.451   3.169  1.0922  0.9975  2.6490
  548MOL0     H73957   3.379   1.601   3.224  1.8239  2.8558 -2.1583
  548MOL0     H73958   3.325   1.504   2.929 -0.1801 -3.5920  1.6523
  548MOL0     H73959   3.442   1.634   2.981  1.0356 -0.6090 -0.3285
  548MOL0     H73960   2.397   1.404   3.174 -1.6286 -3.8562  2.0895
  548MOL0     H73961   2.233   1.242   3.115  1.2625  1.2804  1.8462
  548MOL0     H73962   1.887   0.950   2.971 -1.1974  0.0720 -1.3775
  548MOL0     H73963   1.765   0.808   2.836  0.4559  1.1042 -2.1558
  548MOL0     H73964   3.258   0.764   2.188 -1.9469  0.1909  1.6779
  548MOL0     H73965   3.499   0.718   2.146 -1.4542 -0.5148 -1.4986
  548MOL0     H73966   3.905   0.447   2.569  1.2196 -0.4142 -0.3047
  548MOL0     H73967   4.159   0.405   2.551  0.4512  0.9413  1.1346
  548MOL0     H73968   4.340   0.505   2.160 -0.2096 -0.3628 -1.1809
  548MOL0     H73969   4.307   0.338   2.116 -2.3705 -1.4057  2.5024
  548MOL0     H73970   4.545   0.395   2.291  0.5267  1.1104 -0.5573
  548MOL0     H73971   4.556   0.397   2.112 -1.4719 -0.4692 -1.7926
  548MOL0     H73972   4.456   0.147   2.141 -0.2300  0.2925 -0.2324
  548MOL0     H73973   4.500   0.188   2.317  0.6249 -0.9944  1.1299
  548MOL0     H73974   4.728   0.247   2.245 -1.4198  1.8888 -0.4927
  548MOL0     H73975   4.687   0.074   2.265 -2.9619 -0.6270 -0.2526
  548MOL0     H73976   4.811   0.117   1.858 -2.5815 -0.6478 -1.6794
  548MOL0     H73977   4.136   0.476   2.132  0.1126  2.3658  0.1338
  548MOL0     H73978   3.812   0.664   2.141  0.6901 -0.5204 -0.4789
  548MOL0     H73979   3.948   0.616   2.054  1.2945 -1.2454 -0.0248
  548MOL0     H73980   3.821   0.495   2.065 -1.5851  0.5422  0.4067
  549MOL0     O73981  10.144   1.922   7.513  0.5456 -0.5910 -0.0414
  549MOL0     C73982  10.177   1.807   7.542 -0.1371  0.1210  0.2112
  549MOL0     O73983  10.097   1.695   7.511  0.3951  0.0124  0.4540
  549MOL0     C73984   9.989   1.712   7.429 -0.4804  0.7081 -0.1632
  549MOL0     C73985   9.868   1.684   7.471  0.1346  0.3688 -0.5496
  549MOL0     C73986   9.751   1.689   7.392 -0.1424  0.0686  0.8467
  549MOL0     C73987   9.766   1.717   7.259  0.2425  0.2612 -0.1366
  549MOL0     O73988   9.646   1.724   7.190 -0.2694 -0.3514 -0.4316
  549MOL0     C73989   9.658   1.747   7.043  0.3231  0.1913 -0.3405
  549MOL0     C73990   9.706   1.627   6.965  0.0140 -0.1977 -0.6499
  549MOL0     C73991   9.749   1.655   6.822  0.2915 -0.2464  0.4410
  549MOL0     C73992   9.650   1.746   6.740  0.3049 -0.1181  0.0079
  549MOL0     C73993   9.680   1.764   6.596 -0.3283 -0.9953 -1.2730
  549MOL0     C73994   9.700   1.642   6.522 -0.4165 -0.3480  0.8202
  549MOL0     C73995   9.710   1.670   6.373  0.5925 -0.2694  0.7390
  549MOL0     C73996   9.718   1.545   6.287  1.0239  0.0687  0.8543
  549MOL0     N73997   9.577   1.489   6.269 -0.1322  0.0152  0.3943
  549MOL0     C73998   9.482   1.539   6.182 -0.1503  0.7780 -0.0194
  549MOL0     C73999   9.384   1.447   6.189  0.1839 -0.8376  0.0134
  549MOL0     C74000   9.266   1.464   6.104 -0.2778 -0.4784 -0.0013
  549MOL0     C74001   9.280   1.418   5.965  0.1754  0.2229  0.1664
  549MOL0     C74002   9.325   1.531   5.866  0.1999 -0.8775 -0.2492
  549MOL0     C74003   9.346   1.470   5.728 -0.4058 -0.7138  0.8827
  549MOL0     O74004   9.386   1.580   5.639  0.3742 -0.1906  0.0422
  549MOL0     C74005   9.446   1.547   5.519  0.0267 -0.7631  0.2218
  549MOL0     C74006   9.427   1.646   5.418 -0.2915 -0.4105 -0.0696
  549MOL0     C74007   9.483   1.630   5.281 -0.1225  0.0849  0.3698
  549MOL0     C74008   9.556   1.513   5.262  0.1658  0.3883  0.2848
  549MOL0     C74009   9.614   1.489   5.126  0.2158 -0.4662  1.0418
  549MOL0     O74010   9.605   1.590   5.034  0.0809 -0.1943 -1.0510
  549MOL0     C74011   9.660   1.556   4.914  0.4214  0.1864  0.5497
  549MOL0     C74012   9.582   1.567   4.801 -0.1645  1.3998 -0.2362
  549MOL0     C74013   9.633   1.546   4.674 -1.0285 -0.0910  1.0033
  549MOL0     C74014   9.764   1.518   4.643  0.1974 -0.0251 -0.2174
  549MOL0     O74015   9.814   1.505   4.518  0.4136 -0.3578  0.5262
  549MOL0     C74016   9.897   1.623   4.482  0.8308  0.0741  0.6445
  549MOL0     C74017   9.924   1.633   4.331  0.1154  0.3758 -1.8524
  549MOL0     C74018  10.031   1.529   4.285  0.4733 -0.5084  0.2838
  549MOL0     C74019  10.170   1.596   4.296  0.7386  0.2407 -0.9511
  549MOL0     C74020  10.268   1.513   4.224  1.1061  0.3494  0.3764
  549MOL0     C74021  10.403   1.585   4.206 -0.5034 -0.6045  0.7204
  549MOL0     C74022  10.492   1.633   4.319 -0.1877  0.2791 -0.4912
  549MOL0     C74023  10.610   1.706   4.263  0.1871 -0.2950  0.1270
  549MOL0    Cl74024  10.748   1.688   4.383  0.2851 -0.0794  0.0453
  549MOL0     C74025   9.847   1.505   4.759 -0.1026 -0.4608  0.5889
  549MOL0     C74026   9.796   1.521   4.894 -1.6306 -0.3562 -0.3334
  549MOL0     O74027   9.675   1.383   5.115 -0.1947 -0.4707  0.2297
  549MOL0     C74028   9.587   1.425   5.367 -0.3958  0.6479 -0.4716
  549MOL0     C74029   9.515   1.434   5.489 -0.1603 -0.9994 -0.0831
  549MOL0     N74030   9.415   1.346   6.280  0.7244 -0.7131 -0.3049
  549MOL0     N74031   9.534   1.375   6.331  0.6839 -0.5567  0.3428
  549MOL0     C74032   9.900   1.746   7.214 -0.5591 -0.4447  0.1874
  549MOL0     C74033  10.006   1.744   7.300  0.1006 -0.0422  0.6516
  549MOL0     C74034  10.297   1.783   7.634 -0.2137 -0.0134 -0.6549
  549MOL0     C74035  10.334   1.650   7.661 -0.1028 -0.3321 -0.4841
  549MOL0     C74036  10.430   1.618   7.757 -0.6512 -0.7321 -0.5817
  549MOL0     C74037  10.491   1.725   7.831  0.5504 -0.6963 -0.8533
  549MOL0     O74038  10.592   1.704   7.925 -0.5738  0.2067  0.5486
  549MOL0     C74039  10.572   1.603   8.024  0.6992 -0.3437  0.3464
  549MOL0     C74040  10.669   1.621   8.139  0.8936 -0.1425 -0.4784
  549MOL0     C74041  10.681   1.486   8.216  0.8085 -0.1667 -0.1567
  549MOL0     C74042  10.766   1.511   8.337 -0.1305  0.5752 -0.4638
  549MOL0     C74043  10.893   1.559   8.313 -0.2236  0.5360 -0.0481
  549MOL0     C74044  11.002   1.597   8.291 -0.7296 -0.2015 -0.2340
  549MOL0     C74045  10.460   1.859   7.797  0.6817 -0.9539  0.1143
  549MOL0     C74046  10.372   1.892   7.700 -0.0395  0.5269  0.8910
  549MOL0     C74047  10.356   2.042   7.677  0.3020 -0.9134 -0.0559
  549MOL0     H74048   9.852   1.661   7.576 -1.9754 -0.0022 -0.9139
  549MOL0     H74049   9.652   1.666   7.428 -0.1234  0.6258  1.2545
  549MOL0     H74050   9.560   1.772   7.000  1.2010  2.5034 -1.1925
  549MOL0     H74051   9.710   1.841   7.023 -2.2142  1.4247 -1.6485
  549MOL0     H74052   9.625   1.554   6.953 -0.6914  0.6384 -1.1271
  549MOL0     H74053   9.801   1.601   7.012  1.2719  1.2688 -2.2408
  549MOL0     H74054   9.752   1.559   6.770  0.3886 -0.3005  0.5456
  549MOL0     H74055   9.851   1.695   6.828  0.9142 -1.8185  0.8651
  549MOL0     H74056   9.554   1.694   6.747  1.4956 -2.2454  1.4895
  549MOL0     H74057   9.638   1.844   6.787 -0.2305 -0.1427 -0.0745
  549MOL0     H74058   9.604   1.821   6.543 -0.2037 -2.4051 -3.0553
  549MOL0     H74059   9.774   1.820   6.591  0.3883 -1.7813  1.5126
  549MOL0     H74060   9.791   1.593   6.557 -0.1629 -2.0154 -1.8726
  549MOL0     H74061   9.619   1.570   6.540 -1.7539  1.3293  1.7729
  549MOL0     H74062   9.797   1.736   6.360  0.1923  0.5104  1.8530
  549MOL0     H74063   9.623   1.731   6.347  2.0183  0.5766 -2.5475
  549MOL0     H74064   9.754   1.579   6.189 -0.0566 -0.7615  0.1427
  549MOL0     H74065   9.778   1.467   6.335  1.2880  0.7779  1.6885
  549MOL0     H74066   9.482   1.630   6.124 -2.0254  0.1210 -1.1147
  549MOL0     H74067   9.191   1.402   6.154  0.1033 -0.4816  0.5704
  549MOL0     H74068   9.229   1.567   6.107 -0.0711 -0.4237  0.8654
  549MOL0     H74069   9.345   1.331   5.978  0.0663 -0.2151 -1.9014
  549MOL0     H74070   9.188   1.385   5.917  1.1822  0.5244 -2.1176
  549MOL0     H74071   9.414   1.578   5.909 -0.4064 -0.7991  0.9945
  549MOL0     H74072   9.252   1.612   5.857  0.6011 -0.5337 -0.4143
  549MOL0     H74073   9.252   1.425   5.695 -0.8613  2.3414 -2.6298
  549MOL0     H74074   9.424   1.395   5.740  1.5516  1.1606  0.6462
  549MOL0     H74075   9.360   1.727   5.446 -2.0829 -2.2050  1.1630
  549MOL0     H74076   9.481   1.707   5.206 -3.2848 -0.5434 -0.3123
  549MOL0     H74077   9.482   1.608   4.816 -0.6480  0.5449 -0.9954
  549MOL0     H74078   9.570   1.565   4.588 -4.1651 -2.4630  2.5670
  549MOL0     H74079   9.843   1.709   4.523 -0.7439 -0.7341  0.3287
  549MOL0     H74080   9.993   1.612   4.534  1.2634  2.0948  0.3291
  549MOL0     H74081   9.827   1.620   4.282 -0.5329 -2.7351 -0.0178
  549MOL0     H74082   9.957   1.733   4.303  1.7394  0.4268  0.0742
  549MOL0     H74083  10.031   1.437   4.344  1.0595 -0.3896  0.4712
  549MOL0     H74084  10.004   1.494   4.184 -0.9373 -0.5497  0.6523
  549MOL0     H74085  10.200   1.613   4.400 -0.0711 -1.6058 -0.3724
  549MOL0     H74086  10.168   1.698   4.256  3.1511  0.8933  0.4099
  549MOL0     H74087  10.235   1.491   4.122  4.7852  0.2275 -0.9215
  549MOL0     H74088  10.282   1.430   4.294  0.5561 -0.0817 -0.0229
  549MOL0     H74089  10.470   1.519   4.151  0.3910  1.7627 -1.2039
  549MOL0     H74090  10.380   1.665   4.134 -1.0633 -0.4634  1.0433
  549MOL0     H74091  10.531   1.554   4.385  4.3876  3.2175  0.8086
  549MOL0     H74092  10.440   1.702   4.386  1.3718  0.2518  0.8225
  549MOL0     H74093  10.648   1.677   4.165  1.1954  2.6820 -0.4876
  549MOL0     H74094  10.590   1.813   4.248  0.2807 -0.1088  1.2438
  549MOL0     H74095   9.946   1.464   4.743  0.9830  1.5131  1.8343
  549MOL0     H74096   9.871   1.516   4.972  0.9709 -0.6553 -2.7222
  549MOL0     H74097   9.640   1.334   5.343 -2.8236 -0.9554 -0.1399
  549MOL0     H74098   9.532   1.360   5.567 -0.0092 -1.7006 -0.7720
  549MOL0     H74099   9.914   1.769   7.109 -0.7285 -0.6662  0.1156
  549MOL0     H74100  10.109   1.750   7.267  0.5372 -3.8614  0.9039
  549MOL0     H74101  10.287   1.571   7.605 -3.1988  0.0475  1.3258
  549MOL0     H74102  10.468   1.517   7.769  0.8284 -0.2314 -0.8590
  549MOL0     H74103  10.581   1.504   7.978  0.2740  0.3900 -1.3848
  549MOL0     H74104  10.472   1.621   8.064  0.3608 -3.4668  1.1660
  549MOL0     H74105  10.634   1.706   8.198  1.9057  0.2416 -0.4117
  549MOL0     H74106  10.771   1.647   8.109  0.8464 -2.1109 -2.6036
  549MOL0     H74107  10.728   1.403   8.163 -0.3775 -1.6206  1.0091
  549MOL0     H74108  10.584   1.450   8.250  0.3330  1.0671 -0.1530
  549MOL0     H74109  10.721   1.575   8.413  1.0235 -0.1667  0.9035
  549MOL0     H74110  10.773   1.415   8.389 -2.3569  0.5415 -0.1394
  549MOL0     H74111  11.093   1.640   8.255 -0.0258 -0.2716  1.3827
  549MOL0     H74112  10.495   1.935   7.865 -1.5409  1.4156 -1.2309
  549MOL0     H74113  10.438   2.096   7.725 -0.4005  0.2490 -0.1141
  549MOL0     H74114  10.365   2.080   7.574  1.0704 -0.9343 -0.0004
  549MOL0     H74115  10.258   2.081   7.708  0.4572 -0.1516 -0.4965
  550MOL0     O74116   3.014   2.896   1.835  0.3965 -0.1636 -0.1553
  550MOL0     C74117   3.093   2.991   1.844  0.3965 -0.4967 -0.3366
  550MOL0     O74118   3.067   3.111   1.790  0.2707 -0.3404 -0.4398
  550MOL0     C74119   2.940   3.134   1.741  0.1292 -0.1041  0.2183
  550MOL0     C74120   2.930   3.189   1.615  0.0482 -0.1384 -0.0991
  550MOL0     C74121   2.810   3.225   1.563  0.1317  0.6589 -0.2233
  550MOL0     C74122   2.690   3.200   1.634  0.7988 -0.1683 -0.7873
  550MOL0     O74123   2.562   3.239   1.593 -1.1585 -0.5608  0.2416
  550MOL0     C74124   2.546   3.334   1.485 -0.4959 -1.2120  0.3135
  550MOL0     C74125   2.415   3.414   1.489 -0.8803 -0.2190 -1.3489
  550MOL0     C74126   2.422   3.533   1.586  0.2660  0.2570 -0.1896
  550MOL0     C74127   2.291   3.614   1.581 -0.2951 -0.0109  0.8743
  550MOL0     C74128   2.306   3.751   1.650  0.1117  0.2525  0.0044
  550MOL0     C74129   2.334   3.869   1.559 -0.0356  0.1847  0.4379
  550MOL0     C74130   2.341   4.002   1.617 -0.3258  0.1365 -0.2629
  550MOL0     C74131   2.468   4.030   1.705 -0.9253 -0.0020  0.5997
  550MOL0     N74132   2.590   4.058   1.625  0.1908  0.1397 -0.1308
  550MOL0     C74133   2.685   3.955   1.604 -0.5781  0.4220 -0.6325
  550MOL0     C74134   2.788   4.033   1.554  0.0310 -0.3775  0.4057
  550MOL0     C74135   2.919   3.978   1.529 -0.4770  0.8941  0.4658
  550MOL0     C74136   3.032   4.076   1.577  0.1373 -0.1079  0.8112
  550MOL0     C74137   3.074   4.184   1.481 -0.4295 -0.4724  0.7588
  550MOL0     C74138   3.198   4.261   1.550  0.7771  0.5260 -0.3430
  550MOL0     O74139   3.310   4.185   1.573 -0.3512  0.3208 -0.1346
  550MOL0     C74140   3.421   4.194   1.494  0.6717 -0.2179  0.9310
  550MOL0     C74141   3.537   4.150   1.556 -0.3084 -0.5834  0.2826
  550MOL0     C74142   3.660   4.158   1.482  0.1698  0.1748  0.1398
  550MOL0     C74143   3.666   4.211   1.355 -0.7421 -0.1863  1.0801
  550MOL0     C74144   3.800   4.223   1.278 -0.9151  0.3369 -0.5750
  550MOL0     O74145   3.926   4.248   1.333  0.3849  0.2135  0.1280
  550MOL0     C74146   4.019   4.294   1.241  0.0876 -0.1520 -0.6518
  550MOL0     C74147   4.125   4.209   1.239 -0.3301  0.3058  0.3534
  550MOL0     C74148   4.238   4.239   1.163 -0.3361  0.2737 -0.4912
  550MOL0     C74149   4.239   4.357   1.084  0.3687  0.5945 -0.8584
  550MOL0     O74150   4.356   4.377   1.019 -0.2649 -0.1301  0.3238
  550MOL0     C74151   4.357   4.450   0.897 -1.1562 -0.2208 -1.0409
  550MOL0     C74152   4.510   4.452   0.867 -0.5542 -0.0289  0.0417
  550MOL0     C74153   4.533   4.523   0.735 -0.8024 -0.1803  0.3535
  550MOL0     C74154   4.682   4.555   0.716  0.7213  0.3562  0.8498
  550MOL0     C74155   4.723   4.679   0.798  0.1174 -0.1243 -0.0911
  550MOL0     C74156   4.875   4.694   0.790 -0.7771 -0.6041 -0.0947
  550MOL0     C74157   4.927   4.826   0.848 -0.2695 -0.0604  0.1489
  550MOL0     C74158   5.078   4.852   0.824 -0.4803 -0.4555 -0.4187
  550MOL0    Cl74159   5.127   5.014   0.898  0.4391  0.4349 -0.0515
  550MOL0     C74160   4.124   4.443   1.088  0.9428  0.5317 -0.2598
  550MOL0     C74161   4.008   4.410   1.168  0.2249  0.0400 -0.3185
  550MOL0     O74162   3.779   4.199   1.161 -0.8438  0.5853  0.0910
  550MOL0     C74163   3.541   4.253   1.299 -0.1938  0.0255  0.0713
  550MOL0     C74164   3.421   4.245   1.360  0.8589 -1.2954  0.1347
  550MOL0     N74165   2.743   4.162   1.532 -0.6202  0.6182 -0.1412
  550MOL0     N74166   2.631   4.178   1.590  0.1155 -0.8584 -0.1696
  550MOL0     C74167   2.694   3.155   1.764  0.0770 -0.2161  0.5708
  550MOL0     C74168   2.822   3.126   1.819  0.2926  0.4838 -0.1481
  550MOL0     C74169   3.223   2.971   1.906 -0.0019 -0.4022  0.4301
  550MOL0     C74170   3.287   3.083   1.967 -0.8759 -0.2391  0.6153
  550MOL0     C74171   3.415   3.077   2.028  0.0983 -0.1870  0.2291
  550MOL0     C74172   3.477   2.953   2.046  0.1885 -0.3996  0.8374
  550MOL0     O74173   3.594   2.918   2.104 -0.3279  0.0821  0.7917
  550MOL0     C74174   3.664   3.015   2.159  0.1413 -0.3059 -0.2504
  550MOL0     C74175   3.781   2.976   2.237 -0.3084 -0.0243 -0.5586
  550MOL0     C74176   3.899   2.933   2.160  0.0377  0.1220  0.2090
  550MOL0     C74177   3.878   2.809   2.073  0.3446 -0.3756  0.6117
  550MOL0     C74178   4.001   2.741   2.039 -0.2181 -0.0268  0.2311
  550MOL0     C74179   4.093   2.676   2.009 -0.0248  0.0446 -0.6782
  550MOL0     C74180   3.414   2.836   1.998 -0.0673 -0.0565  0.2335
  550MOL0     C74181   3.295   2.845   1.909 -0.0816  0.1193 -1.2879
  550MOL0     C74182   3.258   2.718   1.840  0.0153  0.2256  0.2725
  550MOL0     H74183   3.013   3.214   1.550 -1.4139  0.9174 -1.6356
  550MOL0     H74184   2.812   3.272   1.465 -1.8316  0.1553 -0.5418
  550MOL0     H74185   2.635   3.398   1.487 -2.0553  1.2940 -2.3577
  550MOL0     H74186   2.545   3.277   1.391 -1.9912 -0.0378 -0.4222
  550MOL0     H74187   2.341   3.339   1.520  3.1768 -3.7154  0.9548
  550MOL0     H74188   2.402   3.461   1.391  2.0843  0.5395 -1.4713
  550MOL0     H74189   2.500   3.602   1.552  0.3282  0.4850  0.4029
  550MOL0     H74190   2.442   3.497   1.687  0.8660 -3.4356 -1.4782
  550MOL0     H74191   2.259   3.630   1.477  3.3726  2.3524 -0.1082
  550MOL0     H74192   2.219   3.551   1.633  1.1517 -0.4830  2.3724
  550MOL0     H74193   2.210   3.773   1.697 -1.4949  0.0443 -2.9273
  550MOL0     H74194   2.387   3.740   1.722  0.5138  0.1147 -0.4605
  550MOL0     H74195   2.413   3.846   1.486 -0.2543  1.8131 -0.3641
  550MOL0     H74196   2.241   3.884   1.503  1.0073  1.4748 -1.0500
  550MOL0     H74197   2.255   4.016   1.683 -0.8692  0.8690 -1.1030
  550MOL0     H74198   2.320   4.071   1.535 -0.6219  1.7313  1.0924
  550MOL0     H74199   2.446   4.121   1.760 -0.4065  2.1485 -2.4989
  550MOL0     H74200   2.489   3.942   1.767 -0.5003  0.3254  0.9232
  550MOL0     H74201   2.690   3.849   1.630 -1.9455  1.1350  3.1404
  550MOL0     H74202   2.935   3.882   1.579  2.6306  0.7259 -0.6313
  550MOL0     H74203   2.923   3.962   1.421  0.5658  0.4432  0.5488
  550MOL0     H74204   3.008   4.122   1.673  0.1903  0.3379  0.6119
  550MOL0     H74205   3.119   4.009   1.584  1.2191  1.1732  0.1353
  550MOL0     H74206   2.984   4.243   1.463 -2.1611 -3.3042 -0.4993
  550MOL0     H74207   3.112   4.144   1.386  1.2386 -1.0889  1.6402
  550MOL0     H74208   3.164   4.287   1.650  1.1819  0.3514 -0.1620
  550MOL0     H74209   3.229   4.349   1.493  0.5527  1.3175  0.7198
  550MOL0     H74210   3.543   4.111   1.657 -1.8416  0.9706  1.0343
  550MOL0     H74211   3.755   4.119   1.516 -0.1054 -0.3419  0.3195
  550MOL0     H74212   4.120   4.115   1.293  0.0317  0.9568  1.5593
  550MOL0     H74213   4.325   4.174   1.171 -0.0146  0.5956 -1.2620
  550MOL0     H74214   4.302   4.406   0.814 -0.8305  0.8917 -1.8665
  550MOL0     H74215   4.319   4.551   0.916  0.9855  0.2862  1.0074
  550MOL0     H74216   4.563   4.500   0.950 -0.9175 -1.3598  1.0802
  550MOL0     H74217   4.546   4.349   0.852  2.4988  1.0683 -0.9406
  550MOL0     H74218   4.498   4.463   0.650 -0.8045  1.7943 -1.1014
  550MOL0     H74219   4.484   4.621   0.733 -2.2498 -0.8668  0.3768
  550MOL0     H74220   4.690   4.572   0.608 -0.7374 -0.0313  0.6546
  550MOL0     H74221   4.738   4.466   0.743  2.2770  1.2388  0.6132
  550MOL0     H74222   4.707   4.653   0.903  3.6538 -3.1725 -0.0734
  550MOL0     H74223   4.677   4.771   0.763  2.6489  1.0461 -0.5591
  550MOL0     H74224   4.927   4.612   0.841  0.8753  1.1135  1.1148
  550MOL0     H74225   4.908   4.687   0.686  0.4759  0.6715  0.1921
  550MOL0     H74226   4.912   4.827   0.957 -0.9803 -2.2533  0.1079
  550MOL0     H74227   4.874   4.908   0.799  1.8149 -0.1967 -2.5547
  550MOL0     H74228   5.130   4.772   0.877 -0.3462 -0.6897 -0.8928
  550MOL0     H74229   5.111   4.844   0.720  1.3586  1.6441 -0.0836
  550MOL0     H74230   4.122   4.540   1.041 -0.6478 -1.0816 -3.8394
  550MOL0     H74231   3.927   4.481   1.183 -0.3092 -0.6830  0.3222
  550MOL0     H74232   3.542   4.282   1.194  1.2329  4.3684  1.0954
  550MOL0     H74233   3.325   4.269   1.316  0.7209  1.0110  1.5085
  550MOL0     H74234   2.602   3.143   1.819 -1.9413 -1.0177 -2.7165
  550MOL0     H74235   2.826   3.094   1.923  0.5017  1.5682  0.1917
  550MOL0     H74236   3.243   3.180   1.950  0.4498  0.2796  0.0202
  550MOL0     H74237   3.470   3.165   2.058 -0.7200  0.7962 -1.0267
  550MOL0     H74238   3.599   3.077   2.222 -1.6803 -2.3206 -0.0470
  550MOL0     H74239   3.708   3.075   2.079 -1.9414 -0.6795 -1.7404
  550MOL0     H74240   3.758   2.897   2.309 -1.9590 -0.5644 -1.6230
  550MOL0     H74241   3.815   3.062   2.296  2.0714 -3.4671  3.7056
  550MOL0     H74242   3.980   2.910   2.230 -0.5154 -3.6457 -0.1871
  550MOL0     H74243   3.934   3.024   2.112  0.6410  0.2456  0.8607
  550MOL0     H74244   3.804   2.743   2.119 -1.3519  1.1006  0.1249
  550MOL0     H74245   3.836   2.846   1.979  0.3566 -0.0996  0.7123
  550MOL0     H74246   4.180   2.626   1.972 -0.7430 -0.6791 -1.4213
  550MOL0     H74247   3.464   2.740   2.010  1.9611  0.7305 -1.3137
  550MOL0     H74248   3.313   2.715   1.746  2.1874 -0.9629  1.5288
  550MOL0     H74249   3.292   2.634   1.901  3.1089  0.8702 -0.4183
  550MOL0     H74250   3.149   2.703   1.838 -0.3439  2.3860  0.5188
  551MOL0     O74251  10.313   2.970   7.606 -0.8611  0.5184  0.1905
  551MOL0     C74252  10.400   3.059   7.585  0.5475 -0.9407 -0.2318
  551MOL0     O74253  10.416   3.124   7.462  0.7508  0.0900  0.1768
  551MOL0     C74254  10.318   3.098   7.361 -0.0023 -0.2287 -0.0792
  551MOL0     C74255  10.365   3.085   7.231 -0.4396  1.0425  0.8698
  551MOL0     C74256  10.286   3.037   7.129 -0.6222 -0.2341  0.0367
  551MOL0     C74257  10.152   3.016   7.141 -0.2692  0.6530 -0.1441
  551MOL0     O74258  10.065   2.970   7.046  0.0247 -0.3722  0.1217
  551MOL0     C74259  10.127   2.952   6.923 -0.5127  0.4020  0.7661
  551MOL0     C74260  10.026   2.919   6.807  0.1536 -0.2050  0.0308
  551MOL0     C74261   9.970   2.785   6.820  0.5371  0.5391  0.4681
  551MOL0     C74262   9.860   2.767   6.712 -0.1709  0.3214  0.3756
  551MOL0     C74263   9.795   2.632   6.693  0.4753 -0.4051  0.6633
  551MOL0     C74264   9.748   2.578   6.827 -0.4555  0.6226 -0.2975
  551MOL0     C74265   9.663   2.452   6.815  1.0748  0.4887  1.2516
  551MOL0     C74266   9.522   2.512   6.791  0.1705  0.5663  0.1450
  551MOL0     N74267   9.418   2.409   6.774 -0.1391  0.3916  0.0958
  551MOL0     C74268   9.382   2.324   6.872 -0.3333  0.1771 -0.5806
  551MOL0     C74269   9.285   2.244   6.813  0.1155  0.1227  0.5066
  551MOL0     C74270   9.203   2.145   6.885 -0.0572 -0.6678 -0.2473
  551MOL0     C74271   9.265   2.007   6.859 -0.4309 -0.6860 -0.4003
  551MOL0     C74272   9.307   1.946   6.993 -0.3493  0.5248  0.1067
  551MOL0     C74273   9.430   2.001   7.061  0.6315 -1.3642 -0.1724
  551MOL0     O74274   9.525   2.041   6.966  0.1513  0.6217  0.2000
  551MOL0     C74275   9.634   2.117   7.012  0.3887 -0.2973  0.4755
  551MOL0     C74276   9.637   2.187   7.131  0.2622  0.3093 -0.4578
  551MOL0     C74277   9.763   2.251   7.164 -0.3522  0.2486  0.2342
  551MOL0     C74278   9.871   2.246   7.065 -0.7664  0.2441 -0.6505
  551MOL0     C74279  10.012   2.303   7.096  0.4422 -0.5736  1.0256
  551MOL0     O74280  10.014   2.379   7.212  0.2108 -0.4331 -0.1018
  551MOL0     C74281  10.136   2.434   7.240 -0.1747 -0.3284  0.6240
  551MOL0     C74282  10.156   2.576   7.247 -0.3020  0.8767  0.2465
  551MOL0     C74283  10.278   2.633   7.277 -0.3723 -0.0263 -0.4547
  551MOL0     C74284  10.386   2.547   7.306  0.1851 -0.3928 -0.9453
  551MOL0     O74285  10.512   2.592   7.349 -0.1376  0.1559 -0.1879
  551MOL0     C74286  10.536   2.733   7.369 -0.1889 -0.0931  0.4590
  551MOL0     C74287  10.674   2.750   7.422 -0.7934  0.2326 -0.1066
  551MOL0     C74288  10.704   2.889   7.459  0.5664 -0.3423 -0.2507
  551MOL0     C74289  10.820   2.902   7.549 -0.0076 -0.1915 -0.5676
  551MOL0     C74290  10.789   2.856   7.693  0.0670  0.2893 -0.0599
  551MOL0     C74291  10.900   2.890   7.797 -0.1927 -0.0271  0.2407
  551MOL0     C74292  10.863   2.834   7.938  0.2739 -0.1437  0.0533
  551MOL0     C74293  10.960   2.879   8.038 -0.6237 -0.4858  0.3331
  551MOL0    Cl74294  11.104   2.775   8.002 -0.1129 -0.1564 -0.1044
  551MOL0     C74295  10.372   2.409   7.302  0.0746 -0.3187  0.3634
  551MOL0     C74296  10.245   2.355   7.269 -0.3520  0.5137  0.1268
  551MOL0     O74297  10.100   2.288   7.016  0.2177 -0.0229 -0.0159
  551MOL0     C74298   9.849   2.192   6.944 -0.5287  0.0054  0.3297
  551MOL0     C74299   9.737   2.122   6.920  0.1172  0.1046  0.3687
  551MOL0     N74300   9.270   2.283   6.680  0.2533 -0.2528 -0.1319
  551MOL0     N74301   9.351   2.379   6.655  0.2560 -0.4702 -0.1735
  551MOL0     C74302  10.103   3.034   7.266  0.0465 -0.2010  0.6779
  551MOL0     C74303  10.182   3.076   7.375 -0.3691  0.5015 -0.1777
  551MOL0     C74304  10.489   3.111   7.694 -0.3617 -0.2873  0.1417
  551MOL0     C74305  10.476   3.050   7.817 -0.0290  0.3708 -0.1657
  551MOL0     C74306  10.540   3.094   7.934  0.6057  0.2087  0.5089
  551MOL0     C74307  10.642   3.186   7.934 -0.0960 -0.3329 -0.1221
  551MOL0     O74308  10.719   3.188   8.049 -0.0849  0.1876  0.2230
  551MOL0     C74309  10.794   3.313   8.068 -0.1259  0.5854  1.1389
  551MOL0     C74310  10.776   3.335   8.213 -0.7952 -0.5095 -0.4222
  551MOL0     C74311  10.841   3.458   8.260 -0.5172 -0.1012  0.5924
  551MOL0     C74312  10.731   3.564   8.288 -0.7668  0.8256 -0.0663
  551MOL0     C74313  10.799   3.686   8.321  0.6675  0.1440  0.3321
  551MOL0     C74314  10.837   3.796   8.366  0.1553 -0.1950 -0.1132
  551MOL0     C74315  10.671   3.245   7.810  0.1645 -0.8322 -0.1637
  551MOL0     C74316  10.594   3.215   7.693  0.9583  0.4268 -0.7640
  551MOL0     C74317  10.624   3.309   7.574 -0.6520  0.5671  0.3430
  551MOL0     H74318  10.469   3.102   7.205  0.4280 -1.9086  2.0144
  551MOL0     H74319  10.351   3.017   7.044  0.0026  3.2630 -0.4675
  551MOL0     H74320  10.184   3.044   6.905  1.9049 -1.0653  0.5296
  551MOL0     H74321  10.199   2.870   6.917 -2.2389 -1.0673 -1.1366
  551MOL0     H74322  10.092   2.930   6.720  2.3718  3.1430  1.9273
  551MOL0     H74323   9.950   2.997   6.811 -2.9767 -3.0137  0.1340
  551MOL0     H74324   9.925   2.775   6.920 -1.7565  2.7140 -0.2302
  551MOL0     H74325  10.044   2.705   6.812 -0.6735 -0.5561 -0.1291
  551MOL0     H74326   9.778   2.839   6.719  1.1355  1.9449 -0.3286
  551MOL0     H74327   9.904   2.797   6.616 -1.1753 -0.5613 -0.3943
  551MOL0     H74328   9.712   2.644   6.623 -0.9833 -1.2172  2.1820
  551MOL0     H74329   9.864   2.569   6.637  0.3436 -0.6358  0.7601
  551MOL0     H74330   9.834   2.547   6.886 -1.0135 -2.5717 -0.9736
  551MOL0     H74331   9.702   2.656   6.888 -1.5535 -0.9883  1.0531
  551MOL0     H74332   9.665   2.391   6.906 -0.9195  1.7073  2.1915
  551MOL0     H74333   9.696   2.388   6.733 -0.9092  0.6156  0.2958
  551MOL0     H74334   9.500   2.564   6.885  0.0133 -0.2956  0.5981
  551MOL0     H74335   9.517   2.579   6.705 -3.4019  0.1950 -0.0812
  551MOL0     H74336   9.413   2.331   6.976 -2.3264 -0.4012  0.0970
  551MOL0     H74337   9.179   2.174   6.988 -0.8751 -0.9096 -0.3625
  551MOL0     H74338   9.105   2.149   6.838  0.1833 -1.9352 -0.8997
  551MOL0     H74339   9.196   1.946   6.799 -3.0285  1.6785  0.0080
  551MOL0     H74340   9.354   2.017   6.795  0.1208 -0.7589  0.3469
  551MOL0     H74341   9.325   1.841   6.970 -4.6514  0.1950 -2.9355
  551MOL0     H74342   9.219   1.944   7.058 -1.4718  2.1972 -1.2629
  551MOL0     H74343   9.479   1.940   7.137  1.7799 -0.8567 -0.4832
  551MOL0     H74344   9.396   2.097   7.099  1.9591 -0.7774 -0.4030
  551MOL0     H74345   9.561   2.190   7.208  4.2024  1.5451  3.8340
  551MOL0     H74346   9.778   2.291   7.264  0.0498  1.7114 -0.3889
  551MOL0     H74347  10.067   2.632   7.224 -0.6312 -0.2257 -1.3555
  551MOL0     H74348  10.289   2.741   7.278  0.1335 -0.0552 -1.4439
  551MOL0     H74349  10.549   2.782   7.273 -0.6466 -1.7139 -0.4755
  551MOL0     H74350  10.462   2.782   7.433  0.3676  1.8057 -0.2971
  551MOL0     H74351  10.698   2.691   7.511  4.4904 -0.7517 -1.8401
  551MOL0     H74352  10.745   2.718   7.346 -0.0546  1.1483  0.1798
  551MOL0     H74353  10.731   2.943   7.368  0.1467 -0.3480 -0.3771
  551MOL0     H74354  10.615   2.927   7.511 -2.0583 -2.4135 -2.9451
  551MOL0     H74355  10.841   3.009   7.551 -0.3991 -0.1045 -0.9347
  551MOL0     H74356  10.908   2.855   7.506  1.3806 -0.0266  1.9445
  551MOL0     H74357  10.783   2.747   7.695  0.8150  0.2274 -0.7999
  551MOL0     H74358  10.692   2.895   7.728 -0.7208 -0.8797 -0.8893
  551MOL0     H74359  10.995   2.850   7.761  0.0647  0.6475  0.1708
  551MOL0     H74360  10.921   2.997   7.806  3.3271 -0.5546 -0.1866
  551MOL0     H74361  10.844   2.727   7.929 -1.2891  0.0349  0.9646
  551MOL0     H74362  10.769   2.872   7.978 -0.4899  0.1272 -1.8930
  551MOL0     H74363  10.977   2.986   8.023 -3.2602 -0.0535  0.1000
  551MOL0     H74364  10.927   2.861   8.140 -0.4858  0.4632  0.5502
  551MOL0     H74365  10.457   2.344   7.323 -0.6893 -1.3927  0.2087
  551MOL0     H74366  10.228   2.248   7.275  0.1799  0.3867 -0.4839
  551MOL0     H74367   9.933   2.183   6.875 -0.2700 -4.1135  0.9080
  551MOL0     H74368   9.727   2.058   6.833  1.8137  1.6913 -1.0713
  551MOL0     H74369  10.000   3.011   7.292 -0.2385  2.2449  2.0577
  551MOL0     H74370  10.137   3.078   7.474  3.0223 -1.8336  1.6173
  551MOL0     H74371  10.406   2.968   7.828 -0.8344  0.5994 -2.7909
  551MOL0     H74372  10.510   3.045   8.026 -1.1377 -1.1424 -0.7066
  551MOL0     H74373  10.745   3.385   8.001 -1.2860 -1.3899 -0.2642
  551MOL0     H74374  10.898   3.300   8.039  0.2470  2.8302  1.2891
  551MOL0     H74375  10.818   3.254   8.273 -0.3726  0.8030  1.1517
  551MOL0     H74376  10.669   3.336   8.239 -1.3789  0.2090 -2.6148
  551MOL0     H74377  10.914   3.489   8.185  1.6483 -2.3779  1.6153
  551MOL0     H74378  10.910   3.444   8.344  2.5901 -1.8323 -1.9994
  551MOL0     H74379  10.661   3.573   8.204 -0.4712 -2.1111 -0.7435
  551MOL0     H74380  10.680   3.524   8.376 -0.2676 -2.3855 -1.1085
  551MOL0     H74381  10.866   3.896   8.389 -2.8081  1.6615 -3.2634
  551MOL0     H74382  10.738   3.330   7.807  1.2628 -1.6749 -0.0293
  551MOL0     H74383  10.660   3.407   7.605 -1.7459  0.9606  0.4204
  551MOL0     H74384  10.698   3.266   7.507 -0.5168  1.1862  0.0876
  551MOL0     H74385  10.537   3.329   7.512 -1.5123  0.9578  1.6220
  552MOL0     O74386   7.818   4.184   4.356 -0.0578  0.5773 -0.2943
  552MOL0     C74387   7.787   4.272   4.282 -0.5749  0.3868 -0.2219
  552MOL0     O74388   7.751   4.256   4.153 -0.5893  0.2069  1.2861
  552MOL0     C74389   7.832   4.175   4.073 -1.1693  0.0962 -0.5512
  552MOL0     C74390   7.884   4.218   3.950 -1.2023 -0.0064 -0.5515
  552MOL0     C74391   7.943   4.126   3.864 -0.5309 -0.0813 -0.8759
  552MOL0     C74392   7.949   3.991   3.885  0.1250  0.6779  0.2453
  552MOL0     O74393   8.017   3.913   3.796  0.1845 -0.2996 -0.2844
  552MOL0     C74394   8.030   3.774   3.833  0.2239  0.9045 -0.1594
  552MOL0     C74395   8.122   3.695   3.739 -0.0851  0.0301  0.3664
  552MOL0     C74396   8.255   3.754   3.715 -0.4535 -0.4050  0.5719
  552MOL0     C74397   8.339   3.692   3.603  0.1891  0.4021 -0.2687
  552MOL0     C74398   8.430   3.783   3.526  0.1603 -0.3729  0.1376
  552MOL0     C74399   8.515   3.703   3.419 -0.3949  0.1494 -0.4249
  552MOL0     C74400   8.599   3.797   3.338  0.4004  0.5536  0.4360
  552MOL0     C74401   8.720   3.860   3.406  1.6215  0.2955  0.1704
  552MOL0     N74402   8.804   3.901   3.297  0.8019  0.1954 -0.0305
  552MOL0     C74403   8.919   3.839   3.270  0.9786 -0.2241  0.9744
  552MOL0     C74404   8.957   3.896   3.153 -0.3491 -0.0014 -0.6529
  552MOL0     C74405   9.068   3.858   3.063 -0.4694  0.8439  0.1343
  552MOL0     C74406   9.186   3.786   3.134 -0.3287 -0.9699  0.0597
  552MOL0     C74407   9.261   3.862   3.255 -0.3635 -0.4046 -0.6368
  552MOL0     C74408   9.395   3.783   3.305  0.8274 -0.0032  0.8805
  552MOL0     O74409   9.471   3.887   3.361 -0.1264 -0.2475 -0.0314
  552MOL0     C74410   9.587   3.854   3.422 -0.6553  0.3187 -0.7811
  552MOL0     C74411   9.663   3.961   3.471 -0.2073  0.9343  0.8813
  552MOL0     C74412   9.794   3.945   3.518 -0.0056 -0.0202  0.5723
  552MOL0     C74413   9.850   3.819   3.528  1.4254 -0.1068 -0.7231
  552MOL0     C74414   9.986   3.787   3.581  0.5399  0.0395 -0.1430
  552MOL0     O74415  10.029   3.657   3.578 -0.2425  0.3976  0.4760
  552MOL0     C74416  10.163   3.651   3.593 -0.2373  1.2085 -0.5921
  552MOL0     C74417  10.210   3.607   3.721  0.2312  0.5261 -0.0470
  552MOL0     C74418  10.345   3.587   3.748 -0.8905  0.4213  0.2454
  552MOL0     C74419  10.436   3.615   3.649 -0.6919 -0.7931  0.3041
  552MOL0     O74420  10.570   3.611   3.671  0.5094  0.7619  0.0592
  552MOL0     C74421  10.667   3.651   3.570  0.5064 -0.4534 -0.2550
  552MOL0     C74422  10.801   3.640   3.630  0.1724  0.4978  0.2694
  552MOL0     C74423  10.863   3.507   3.596 -0.0526 -0.5815 -0.4243
  552MOL0     C74424  10.922   3.494   3.456  0.3276  0.1797  0.0481
  552MOL0     C74425  11.032   3.389   3.459 -0.6507  0.3310  0.0306
  552MOL0     C74426  11.100   3.382   3.318  0.3367 -0.2577  0.7839
  552MOL0     C74427  11.164   3.508   3.253 -0.2003  0.8970  0.0107
  552MOL0     C74428  11.282   3.565   3.334 -0.5455  0.2694  0.1899
  552MOL0    Cl74429  11.388   3.660   3.228 -0.2596  0.2346 -0.2945
  552MOL0     C74430  10.388   3.650   3.517  0.4433 -0.0264 -0.1946
  552MOL0     C74431  10.257   3.661   3.490  0.1893 -0.4814  0.0773
  552MOL0     O74432  10.057   3.884   3.604  0.8788 -0.4277 -0.1164
  552MOL0     C74433   9.780   3.708   3.475 -0.3842 -0.5336  0.0830
  552MOL0     C74434   9.652   3.723   3.427  0.1608 -0.1242 -0.2734
  552MOL0     N74435   8.869   3.998   3.125 -0.4761 -0.3027 -0.0355
  552MOL0     N74436   8.775   4.004   3.206 -0.2781 -0.3961 -0.3476
  552MOL0     C74437   7.874   3.939   3.997  0.3824 -0.1565  0.7526
  552MOL0     C74438   7.823   4.038   4.093  0.6040 -0.6216 -0.1115
  552MOL0     C74439   7.765   4.403   4.345 -0.2859  0.1465 -0.5380
  552MOL0     C74440   7.684   4.494   4.278 -0.1557  0.3838  0.2320
  552MOL0     C74441   7.653   4.618   4.331  0.0740 -0.5675  0.0874
  552MOL0     C74442   7.708   4.661   4.455  0.7357 -0.7986  0.7178
  552MOL0     O74443   7.671   4.783   4.513  0.0629 -0.3359  0.0028
  552MOL0     C74444   7.760   4.834   4.608 -0.0378  0.5962 -0.1058
  552MOL0     C74445   7.711   4.956   4.671  0.3132 -0.3073 -0.6520
  552MOL0     C74446   7.592   4.924   4.772 -0.5833 -0.1638  0.3409
  552MOL0     C74447   7.524   5.052   4.790  0.2276  0.2420 -0.2732
  552MOL0     C74448   7.409   5.030   4.874  0.3336 -0.3673 -0.0968
  552MOL0     C74449   7.320   5.013   4.957  0.0517  0.4703  0.6958
  552MOL0     C74450   7.794   4.572   4.522 -0.5341  0.4535 -0.1084
  552MOL0     C74451   7.827   4.443   4.471 -0.7586  0.7077 -0.0046
  552MOL0     C74452   7.923   4.365   4.553 -0.0850 -0.9829  0.0607
  552MOL0     H74453   7.883   4.319   3.912  2.0940  0.3540  0.0845
  552MOL0     H74454   7.985   4.172   3.776 -0.7139 -0.5797 -1.2297
  552MOL0     H74455   8.063   3.759   3.937  0.5826 -1.1453 -0.5352
  552MOL0     H74456   7.935   3.721   3.827 -0.1065  1.4762  0.0007
  552MOL0     H74457   8.072   3.681   3.642  4.6138  1.8269 -2.6596
  552MOL0     H74458   8.137   3.600   3.790  0.1364  0.2436  0.7010
  552MOL0     H74459   8.304   3.762   3.812 -0.0863 -1.0861  0.4434
  552MOL0     H74460   8.241   3.856   3.678 -2.5260 -1.0472 -0.5731
  552MOL0     H74461   8.393   3.608   3.647 -2.0308 -1.0472 -0.1776
  552MOL0     H74462   8.268   3.666   3.524  0.9394  1.3856 -1.3146
  552MOL0     H74463   8.373   3.850   3.461  0.1492  0.8601  1.3778
  552MOL0     H74464   8.508   3.832   3.585 -1.0134  2.0657 -0.2306
  552MOL0     H74465   8.589   3.634   3.460  1.9412  3.1543  0.7519
  552MOL0     H74466   8.446   3.649   3.353 -1.7626  0.7664  0.4657
  552MOL0     H74467   8.537   3.880   3.304 -0.0823  1.1964  2.7147
  552MOL0     H74468   8.645   3.751   3.250  1.5606 -0.2927  1.4481
  552MOL0     H74469   8.688   3.937   3.476  2.9310  0.6906  0.3631
  552MOL0     H74470   8.766   3.781   3.466  0.3254  0.8904  2.0345
  552MOL0     H74471   8.965   3.749   3.311  1.0590 -1.3310 -1.4071
  552MOL0     H74472   9.031   3.784   2.992 -0.7124  0.0656  1.0512
  552MOL0     H74473   9.100   3.943   3.002  1.5432  0.4677  0.5984
  552MOL0     H74474   9.137   3.694   3.167 -1.5955 -1.4588 -2.8580
  552MOL0     H74475   9.268   3.766   3.064 -0.1576  1.7200 -0.6127
  552MOL0     H74476   9.190   3.893   3.332  0.6129  3.4207 -1.0656
  552MOL0     H74477   9.303   3.955   3.213 -1.7238  1.0178  1.0009
  552MOL0     H74478   9.446   3.734   3.223 -1.2791 -1.9474  0.6128
  552MOL0     H74479   9.363   3.709   3.379  0.9265 -0.6241  0.3079
  552MOL0     H74480   9.612   4.057   3.466 -2.3690 -0.1338  1.2515
  552MOL0     H74481   9.848   4.034   3.547 -0.6445 -0.7598  4.4910
  552MOL0     H74482  10.155   3.575   3.809 -2.3401 -1.4170 -2.1888
  552MOL0     H74483  10.384   3.553   3.843 -1.9733  0.9735  0.9117
  552MOL0     H74484  10.654   3.584   3.485  0.4004 -0.2682 -0.3856
  552MOL0     H74485  10.652   3.753   3.534 -1.8203  0.1968  2.2130
  552MOL0     H74486  10.865   3.722   3.596 -0.3663  0.0949 -1.8596
  552MOL0     H74487  10.790   3.659   3.737 -0.1302  0.6702  0.2105
  552MOL0     H74488  10.943   3.492   3.669 -1.1904 -1.7608  0.6612
  552MOL0     H74489  10.794   3.423   3.608  0.4222 -0.8702  0.3768
  552MOL0     H74490  10.946   3.595   3.422 -2.1626  0.5006 -1.0232
  552MOL0     H74491  10.834   3.462   3.398  0.7201  0.0711 -0.4951
  552MOL0     H74492  10.996   3.288   3.482  0.1804 -0.5258 -2.1582
  552MOL0     H74493  11.098   3.419   3.541  0.7591  2.8430 -1.8905
  552MOL0     H74494  11.169   3.297   3.319  0.6660  0.0041  1.9856
  552MOL0     H74495  11.031   3.360   3.235  0.7592  2.3746 -0.3742
  552MOL0     H74496  11.087   3.582   3.229 -0.9719 -0.2322 -1.1591
  552MOL0     H74497  11.193   3.486   3.150  0.3962  2.2982 -0.1497
  552MOL0     H74498  11.225   3.636   3.395 -0.6017  1.7987 -1.5451
  552MOL0     H74499  11.333   3.487   3.391 -2.3472 -1.2786 -0.2120
  552MOL0     H74500  10.454   3.654   3.431  0.2278 -2.2821 -0.5111
  552MOL0     H74501  10.217   3.702   3.397  0.7760  3.0138  1.1985
  552MOL0     H74502   9.832   3.613   3.463  1.8878  0.4472  1.4505
  552MOL0     H74503   9.606   3.634   3.385 -1.7750 -0.8041  3.0066
  552MOL0     H74504   7.871   3.832   4.016  2.4025 -0.4628 -0.4090
  552MOL0     H74505   7.772   3.999   4.181  0.6454  0.3108  0.3343
  552MOL0     H74506   7.652   4.479   4.176  0.7760  1.0917 -0.1818
  552MOL0     H74507   7.597   4.692   4.275 -2.5705 -0.7823  2.2180
  552MOL0     H74508   7.861   4.847   4.568  0.7907 -2.1333  0.8382
  552MOL0     H74509   7.777   4.761   4.688 -1.1395 -1.0320 -1.2672
  552MOL0     H74510   7.673   5.031   4.601 -3.5044  0.2863  1.7714
  552MOL0     H74511   7.795   5.005   4.722  0.8207  0.2351 -1.9503
  552MOL0     H74512   7.625   4.880   4.867  2.0724 -1.9028 -1.2395
  552MOL0     H74513   7.523   4.856   4.721  0.1080 -1.7175  1.3772
  552MOL0     H74514   7.583   5.131   4.838 -1.3923  0.1534  2.0326
  552MOL0     H74515   7.490   5.087   4.692 -0.2208  0.8650  0.0927
  552MOL0     H74516   7.241   5.003   5.029 -1.6879  1.8139 -0.9325
  552MOL0     H74517   7.842   4.598   4.616 -0.2964  1.3131 -0.4539
  552MOL0     H74518   7.986   4.419   4.624  1.3557 -0.7070 -1.3662
  552MOL0     H74519   7.859   4.289   4.600  3.4936 -3.4550  1.3114
  552MOL0     H74520   7.991   4.318   4.483  1.1060  1.9907 -0.9487
  553MOL0     O74521   7.677   8.788   2.237 -0.0713  0.2502  0.6774
  553MOL0     C74522   7.712   8.731   2.137  0.4465  0.4114  0.5382
  553MOL0     O74523   7.832   8.740   2.074 -0.2457  0.0331 -0.1686
  553MOL0     C74524   7.952   8.797   2.124  0.4498 -0.3318  0.1528
  553MOL0     C74525   8.047   8.816   2.026 -0.1637  0.3415 -0.4204
  553MOL0     C74526   8.164   8.878   2.037  0.3551  0.5907  0.1968
  553MOL0     C74527   8.211   8.908   2.168 -0.6681  0.2856 -0.7097
  553MOL0     O74528   8.329   8.957   2.185 -0.3300 -0.0455  0.0099
  553MOL0     C74529   8.377   9.007   2.310 -0.1478 -0.8010 -0.6601
  553MOL0     C74530   8.502   9.101   2.287 -0.0347  0.1728  0.3371
  553MOL0     C74531   8.596   9.110   2.403  0.0595 -0.1133  0.8593
  553MOL0     C74532   8.723   9.193   2.362  0.6868  1.1539 -0.1584
  553MOL0     C74533   8.791   9.241   2.488 -0.2973 -0.4055  0.8208
  553MOL0     C74534   8.891   9.362   2.457 -0.3306 -0.2285 -0.6551
  553MOL0     C74535   8.967   9.393   2.581 -0.2480  0.1514 -0.2068
  553MOL0     C74536   9.067   9.507   2.549  0.4517  0.5032 -0.5556
  553MOL0     N74537   9.152   9.532   2.665  0.0920 -0.5112 -0.8138
  553MOL0     C74538   9.271   9.468   2.702 -0.3695  0.5655 -0.6091
  553MOL0     C74539   9.313   9.536   2.813 -0.1929  0.2121 -0.7308
  553MOL0     C74540   9.431   9.497   2.891 -0.2430 -0.7430  0.3167
  553MOL0     C74541   9.520   9.624   2.922 -0.3065  0.2673  0.3952
  553MOL0     C74542   9.644   9.591   3.017 -0.5769  0.2759  0.2240
  553MOL0     C74543   9.762   9.687   2.990 -0.2118  0.1728  0.0639
  553MOL0     O74544   9.862   9.671   3.091 -0.1131 -0.4403 -0.3617
  553MOL0     C74545   9.983   9.742   3.075 -0.1398  0.6519  0.0190
  553MOL0     C74546  10.088   9.714   3.168  0.6634  0.6982  0.1665
  553MOL0     C74547  10.198   9.803   3.169  0.7987  0.7006 -1.1910
  553MOL0     C74548  10.213   9.899   3.075 -0.7833 -0.5980  0.3978
  553MOL0     C74549  10.337   9.984   3.077 -0.2737 -0.0671  0.0328
  553MOL0     O74550  10.429   9.970   3.180  0.0407  0.6111  0.5539
  553MOL0     C74551  10.570   9.988   3.168  0.3572  0.3026 -0.0741
  553MOL0     C74552  10.634   9.996   3.289  0.3210 -0.3957 -0.2511
  553MOL0     C74553  10.774  10.008   3.298  0.4940 -0.7527 -0.0481
  553MOL0     C74554  10.850  10.014   3.180  0.2192  0.5532 -0.2608
  553MOL0     O74555  10.992  10.011   3.181 -0.3343 -0.1812 -0.0496
  553MOL0     C74556  11.065   9.949   3.294  0.2743  0.6776 -0.9706
  553MOL0     C74557  11.120  10.058   3.380 -0.0160 -0.1450  0.0346
  553MOL0     C74558  11.203  10.010   3.497 -0.7142  0.1099 -0.8448
  553MOL0     C74559  11.290   9.880   3.468  0.2292 -0.3105  0.7892
  553MOL0     C74560  11.402   9.843   3.572 -0.9676 -0.1332  0.7473
  553MOL0     C74561  11.505   9.740   3.519  1.0830  0.1722  0.2428
  553MOL0     C74562  11.593   9.704   3.640 -0.6868  0.9093 -1.0146
  553MOL0     C74563  11.715   9.623   3.602 -0.2684  0.1900 -0.1294
  553MOL0    Cl74564  11.680   9.454   3.556 -0.3615  0.2134  0.4492
  553MOL0     C74565  10.781  10.020   3.059  0.4580  0.4198 -0.1203
  553MOL0     C74566  10.646  10.008   3.056 -0.3914 -0.7948  0.1329
  553MOL0     O74567  10.360  10.060   2.981 -0.3287  0.3472 -0.2425
  553MOL0     C74568  10.116   9.921   2.982  0.4366  0.2329 -0.1235
  553MOL0     C74569   9.996   9.853   2.992  0.2253  0.7792 -0.6593
  553MOL0     N74570   9.231   9.641   2.829  0.8205 -1.3112 -0.7563
  553MOL0     N74571   9.137   9.641   2.741  0.6780 -0.2538  0.0982
  553MOL0     C74572   8.122   8.891   2.275  0.6910 -0.4851  0.0659
  553MOL0     C74573   7.991   8.839   2.252  0.0726  0.6396 -0.6504
  553MOL0     C74574   7.601   8.642   2.070  0.0902 -0.0732  0.5681
  553MOL0     C74575   7.637   8.569   1.952 -1.0866  0.0182  0.3033
  553MOL0     C74576   7.558   8.480   1.886  0.2169  0.5957 -0.4892
  553MOL0     C74577   7.430   8.468   1.931  0.2969 -0.8338 -0.5282
  553MOL0     O74578   7.348   8.384   1.858  0.0957  0.2069 -0.1669
  553MOL0     C74579   7.210   8.374   1.887  0.5127 -0.2941  1.2259
  553MOL0     C74580   7.141   8.511   1.848  0.0135  0.1900  0.1725
  553MOL0     C74581   7.133   8.520   1.696 -0.1820  0.1990  0.0119
  553MOL0     C74582   7.064   8.649   1.655 -0.0174  0.3012 -0.4075
  553MOL0     C74583   6.921   8.632   1.662 -0.5266  0.7077 -0.0668
  553MOL0     C74584   6.800   8.625   1.678  0.6599 -0.0950 -0.6501
  553MOL0     C74585   7.391   8.526   2.049  0.1039 -0.1764  0.5592
  553MOL0     C74586   7.463   8.628   2.111 -0.4713  0.1508 -0.9935
  553MOL0     C74587   7.412   8.677   2.247  0.8097  0.3118 -0.2991
  553MOL0     H74588   8.016   8.788   1.926 -2.7019 -0.6752  0.5703
  553MOL0     H74589   8.234   8.893   1.955 -0.8594  2.5813 -0.5761
  553MOL0     H74590   8.308   9.082   2.350  0.8209 -0.5010  0.5200
  553MOL0     H74591   8.394   8.932   2.388  0.1274  0.4346  0.5167
  553MOL0     H74592   8.475   9.204   2.264  0.7251  0.3004  0.0089
  553MOL0     H74593   8.549   9.049   2.204 -1.0412 -1.4867  0.7437
  553MOL0     H74594   8.637   9.012   2.429  0.0096 -0.1593  0.7670
  553MOL0     H74595   8.532   9.150   2.482 -0.7294  0.9732 -0.2862
  553MOL0     H74596   8.786   9.126   2.304 -0.4066  0.2439 -0.3372
  553MOL0     H74597   8.701   9.283   2.303  2.2116  1.4096 -0.3670
  553MOL0     H74598   8.723   9.252   2.573 -0.6820  1.4253  0.3183
  553MOL0     H74599   8.851   9.155   2.517 -0.9813 -1.1152  0.1752
  553MOL0     H74600   8.957   9.349   2.371 -1.1685  1.6669 -1.6395
  553MOL0     H74601   8.843   9.456   2.430  1.6482  1.2174  0.5407
  553MOL0     H74602   9.015   9.303   2.621  0.3069 -1.2124 -3.5638
  553MOL0     H74603   8.901   9.432   2.659  2.8212  1.6221  1.8389
  553MOL0     H74604   9.135   9.491   2.464  1.2443  4.2693 -0.8090
  553MOL0     H74605   9.015   9.601   2.525  1.7104  2.1964  2.7142
  553MOL0     H74606   9.315   9.376   2.665  1.1003  1.2140 -0.5176
  553MOL0     H74607   9.399   9.457   2.987 -0.4153  0.7908  0.9335
  553MOL0     H74608   9.492   9.430   2.830  0.5060  1.2844 -1.2599
  553MOL0     H74609   9.557   9.666   2.828 -1.7397 -1.2456 -0.8980
  553MOL0     H74610   9.450   9.692   2.973 -1.7632 -0.3501 -0.7061
  553MOL0     H74611   9.680   9.491   2.995 -1.4530  0.4757 -2.4352
  553MOL0     H74612   9.604   9.596   3.119 -0.2321 -0.6852  0.4177
  553MOL0     H74613   9.717   9.786   2.985 -0.5133  0.0083 -3.3298
  553MOL0     H74614   9.790   9.675   2.885  0.1980  0.7896  0.0968
  553MOL0     H74615  10.072   9.629   3.233 -2.5646  0.6436 -0.5123
  553MOL0     H74616  10.276   9.779   3.241 -0.3266 -1.0352 -0.4960
  553MOL0     H74617  10.569   9.991   3.376  0.5821  0.2484 -0.0116
  553MOL0     H74618  10.810  10.012   3.400 -1.2897 -0.4230  0.6030
  553MOL0     H74619  10.991   9.892   3.352  0.0024  2.2211  0.2660
  553MOL0     H74620  11.154   9.891   3.267  1.9823  1.6657  2.0975
  553MOL0     H74621  11.189  10.111   3.314  0.3218  0.2838  0.7178
  553MOL0     H74622  11.039  10.122   3.417 -1.7441 -0.8038 -2.3777
  553MOL0     H74623  11.260  10.090   3.544  0.6729 -0.1322 -2.0255
  553MOL0     H74624  11.128   9.976   3.569 -0.3045  0.9027 -0.0314
  553MOL0     H74625  11.332   9.872   3.367  1.1776 -0.4581  1.1794
  553MOL0     H74626  11.224   9.793   3.460 -2.3240  1.5602  0.5524
  553MOL0     H74627  11.341   9.810   3.656 -0.1719 -2.2477  0.5760
  553MOL0     H74628  11.460   9.930   3.604 -0.0566 -0.6634  0.5768
  553MOL0     H74629  11.444   9.655   3.485 -4.2071  3.7040 -0.2732
  553MOL0     H74630  11.566   9.785   3.441  0.2765 -1.4000 -1.3566
  553MOL0     H74631  11.533   9.644   3.709  0.5831 -0.0794 -0.7422
  553MOL0     H74632  11.622   9.796   3.692 -2.4678 -0.6672  3.2077
  553MOL0     H74633  11.772   9.675   3.525  0.7013 -0.4817  0.1141
  553MOL0     H74634  11.779   9.624   3.691 -1.5071 -1.7625  0.8736
  553MOL0     H74635  10.840  10.037   2.970 -2.3240  1.0848 -1.9757
  553MOL0     H74636  10.597  10.018   2.960 -1.0298 -1.1929  0.4098
  553MOL0     H74637  10.130   9.996   2.905 -0.3013  0.9312  0.4132
  553MOL0     H74638   9.929   9.893   2.917  0.3988  3.7784  0.6756
  553MOL0     H74639   8.152   8.922   2.374  0.6979  0.7626 -0.3075
  553MOL0     H74640   7.927   8.817   2.336  0.8225 -0.7668 -0.4066
  553MOL0     H74641   7.737   8.573   1.909 -1.2992  2.0396 -0.0986
  553MOL0     H74642   7.594   8.437   1.793  2.8957  1.1532  0.1795
  553MOL0     H74643   7.187   8.363   1.994 -0.3160 -0.0047  1.0871
  553MOL0     H74644   7.170   8.290   1.830  2.2777 -0.3966  0.0668
  553MOL0     H74645   7.207   8.589   1.885 -1.3331  0.7372  1.5361
  553MOL0     H74646   7.041   8.529   1.889  0.3654  0.7229  0.8142
  553MOL0     H74647   7.095   8.428   1.652  0.0594 -0.8128  1.7976
  553MOL0     H74648   7.237   8.537   1.665  0.0274 -0.8403  0.1192
  553MOL0     H74649   7.107   8.722   1.724  1.0154 -0.9621  0.3318
  553MOL0     H74650   7.084   8.676   1.551 -3.0572  0.7975 -0.9534
  553MOL0     H74651   6.696   8.623   1.704  0.4122  1.4963 -1.4064
  553MOL0     H74652   7.286   8.512   2.075 -0.3043 -1.1885 -1.4012
  553MOL0     H74653   7.426   8.785   2.250  2.2033  0.1584 -0.6231
  553MOL0     H74654   7.304   8.660   2.258  0.2363  2.2044 -2.3509
  553MOL0     H74655   7.451   8.623   2.333 -0.1997 -2.4283 -1.4203
  554MOL0     O74656   0.883   1.120   8.176  0.2515 -0.3243  0.4250
  554MOL0     C74657   0.770   1.166   8.151  0.1243 -0.0090  0.2392
  554MOL0     O74658   0.732   1.244   8.045 -0.7431 -1.1999  0.0892
  554MOL0     C74659   0.819   1.288   7.945  0.2566  0.2228  0.3176
  554MOL0     C74660   0.875   1.426   7.946  0.4661  0.2748 -0.2934
  554MOL0     C74661   0.982   1.457   7.860 -0.5441  0.3157  0.4911
  554MOL0     C74662   1.021   1.372   7.754  0.0854  0.0783 -0.4493
  554MOL0     O74663   1.130   1.402   7.689  0.0144  0.1334  0.0843
  554MOL0     C74664   1.129   1.538   7.631 -0.3977  1.1947  0.1921
  554MOL0     C74665   1.270   1.552   7.578  0.3920 -0.2651  0.4243
  554MOL0     C74666   1.294   1.693   7.523  0.3425  0.6368 -0.0946
  554MOL0     C74667   1.433   1.738   7.576  0.3660 -0.5977 -0.0739
  554MOL0     C74668   1.543   1.645   7.519  0.1368 -0.9758  0.9196
  554MOL0     C74669   1.684   1.694   7.556  0.4662  0.4627  0.2831
  554MOL0     C74670   1.795   1.614   7.482 -0.0288  0.1479  0.6141
  554MOL0     C74671   1.866   1.691   7.368  0.1878  0.2560  0.2397
  554MOL0     N74672   1.959   1.601   7.301  0.8898  0.1336  0.2820
  554MOL0     C74673   2.089   1.596   7.328  0.1325 -0.1814 -0.1369
  554MOL0     C74674   2.137   1.506   7.239  0.8439  0.1199  0.4369
  554MOL0     C74675   2.282   1.485   7.200  0.1178  0.2190 -0.0999
  554MOL0     C74676   2.367   1.399   7.307  0.4401 -0.7058 -0.8056
  554MOL0     C74677   2.487   1.329   7.246 -0.3694 -0.5559  0.2272
  554MOL0     C74678   2.575   1.412   7.168 -0.4980 -0.1381 -0.8931
  554MOL0     O74679   2.693   1.333   7.147 -0.0230  0.8543  0.6257
  554MOL0     C74680   2.804   1.391   7.101 -0.5980  0.6869 -0.1963
  554MOL0     C74681   2.910   1.307   7.056  0.5630 -1.3887 -0.9818
  554MOL0     C74682   3.040   1.352   7.029 -0.3001 -0.2201  0.0599
  554MOL0     C74683   3.072   1.488   7.033  0.4468  0.6346  0.1702
  554MOL0     C74684   3.204   1.548   7.010 -0.6050  0.3528  0.9947
  554MOL0     O74685   3.304   1.456   6.978 -0.0207 -0.1500  0.1538
  554MOL0     C74686   3.437   1.484   6.941 -0.9707 -0.4375  1.0557
  554MOL0     C74687   3.520   1.586   6.977 -0.0647 -1.0720 -0.1543
  554MOL0     C74688   3.651   1.589   6.934 -0.6746  0.1332 -0.6470
  554MOL0     C74689   3.709   1.481   6.863 -0.0665 -0.5378 -0.3988
  554MOL0     O74690   3.835   1.493   6.826 -0.4498 -0.6535 -0.7430
  554MOL0     C74691   3.895   1.374   6.771  0.3281  0.2339  0.3833
  554MOL0     C74692   4.037   1.409   6.732 -0.0087  0.8104 -0.0609
  554MOL0     C74693   4.047   1.511   6.622 -0.0610 -0.2249  0.2003
  554MOL0     C74694   4.162   1.475   6.522  0.3129  0.2986 -0.7432
  554MOL0     C74695   4.183   1.578   6.419  0.3025 -0.6325  0.0771
  554MOL0     C74696   4.287   1.527   6.325  0.5754 -0.1718 -1.0517
  554MOL0     C74697   4.342   1.630   6.213  0.4345 -0.1164 -0.9070
  554MOL0     C74698   4.435   1.557   6.123 -0.1274  0.4945  0.5079
  554MOL0    Cl74699   4.559   1.453   6.201  0.2317 -0.5312  0.2113
  554MOL0     C74700   3.628   1.370   6.831 -0.4195  1.0923 -0.8289
  554MOL0     C74701   3.496   1.369   6.878 -0.3534 -0.0170 -0.2250
  554MOL0     O74702   3.217   1.672   7.016  0.0177  0.7641  0.7054
  554MOL0     C74703   2.960   1.575   7.064  0.2154  1.3513 -0.3698
  554MOL0     C74704   2.832   1.531   7.091 -0.1893 -0.3805 -0.1573
  554MOL0     N74705   2.026   1.452   7.167 -0.3058  0.0010  0.0958
  554MOL0     N74706   1.925   1.515   7.205 -0.1328 -0.4260  0.4031
  554MOL0     C74707   0.957   1.246   7.745 -0.1962  0.0244 -0.2010
  554MOL0     C74708   0.867   1.202   7.845 -0.9727 -0.7696 -0.3482
  554MOL0     C74709   0.661   1.116   8.245 -0.1903  0.2008  0.5638
  554MOL0     C74710   0.536   1.177   8.235 -0.6378  0.6637  0.2407
  554MOL0     C74711   0.428   1.149   8.317 -0.0561 -0.0280 -0.4604
  554MOL0     C74712   0.446   1.054   8.416 -0.5013  0.3405 -0.6198
  554MOL0     O74713   0.331   1.036   8.494 -1.1745 -0.0042  0.0094
  554MOL0     C74714   0.340   0.916   8.581 -0.2816 -0.7693  0.2138
  554MOL0     C74715   0.208   0.868   8.623  0.5032 -1.1959 -0.3367
  554MOL0     C74716   0.132   0.974   8.702  0.3478 -1.3582 -0.2187
  554MOL0     C74717  -0.013   0.919   8.736 -0.5692  1.6872 -0.4210
  554MOL0     C74718  -0.096   1.028   8.798  0.2793  0.3077  0.2634
  554MOL0     C74719  -0.135   1.129   8.847  0.1198 -0.1172 -0.4206
  554MOL0     C74720   0.572   0.987   8.427  0.0116  0.0367  0.7580
  554MOL0     C74721   0.679   1.014   8.341 -0.3609 -0.2360 -1.1891
  554MOL0     C74722   0.807   0.939   8.363  0.4240  0.1321 -0.4285
  554MOL0     H74723   0.849   1.498   8.024 -0.8738 -0.6099  0.1025
  554MOL0     H74724   1.039   1.543   7.891  0.0916 -0.5898  1.9302
  554MOL0     H74725   1.048   1.528   7.559 -1.2423  0.1983  1.2372
  554MOL0     H74726   1.106   1.615   7.706  0.0689  0.3404  1.2359
  554MOL0     H74727   1.290   1.485   7.494 -0.4809 -1.4430  1.1089
  554MOL0     H74728   1.334   1.530   7.664  0.0123  0.0012  0.7824
  554MOL0     H74729   1.226   1.771   7.559 -0.4465 -0.5795  1.1687
  554MOL0     H74730   1.294   1.680   7.415  0.8151 -2.4003  0.1836
  554MOL0     H74731   1.445   1.843   7.548 -1.3962 -0.5303 -0.6553
  554MOL0     H74732   1.437   1.728   7.685  2.4186 -0.0914 -0.0458
  554MOL0     H74733   1.536   1.549   7.570 -3.9687 -2.3215 -1.6395
  554MOL0     H74734   1.520   1.638   7.412 -2.9976  1.0115  1.3273
  554MOL0     H74735   1.700   1.800   7.536  2.6535  0.3460  1.1609
  554MOL0     H74736   1.701   1.681   7.663  2.1692 -2.6504 -0.2391
  554MOL0     H74737   1.763   1.515   7.448 -1.6404  1.5088 -2.0852
  554MOL0     H74738   1.878   1.601   7.553  0.3797 -2.0981 -0.1983
  554MOL0     H74739   1.793   1.713   7.289  1.9724 -3.8277 -2.8769
  554MOL0     H74740   1.914   1.780   7.410  0.4543 -0.8824  2.5102
  554MOL0     H74741   2.145   1.658   7.398  1.5446  0.8995 -2.1202
  554MOL0     H74742   2.275   1.435   7.103 -0.0410 -1.8205  0.9074
  554MOL0     H74743   2.337   1.580   7.191  1.7196 -0.5165  1.3759
  554MOL0     H74744   2.388   1.466   7.391 -1.8550 -0.0295 -0.7183
  554MOL0     H74745   2.293   1.330   7.348 -3.3398  1.8354 -2.7580
  554MOL0     H74746   2.445   1.241   7.196 -2.0819 -0.0079  0.6323
  554MOL0     H74747   2.542   1.286   7.331 -1.9820 -1.9217  0.6524
  554MOL0     H74748   2.600   1.501   7.226 -0.1927  1.4236 -3.2590
  554MOL0     H74749   2.533   1.441   7.071 -0.4868  2.8082 -0.1188
  554MOL0     H74750   2.888   1.202   7.072 -5.5587 -0.7283 -2.6079
  554MOL0     H74751   3.121   1.281   7.041 -1.3986 -1.6548 -0.5915
  554MOL0     H74752   3.483   1.671   7.034 -2.1810 -0.4051 -2.3712
  554MOL0     H74753   3.710   1.679   6.952  2.7022 -2.1670  1.0330
  554MOL0     H74754   3.894   1.299   6.850  2.5536 -0.0996  0.1586
  554MOL0     H74755   3.848   1.338   6.679 -2.5880  0.9188  1.5037
  554MOL0     H74756   4.090   1.439   6.823  0.1443  1.2682 -0.2982
  554MOL0     H74757   4.089   1.318   6.701 -1.4383  0.7021 -2.3366
  554MOL0     H74758   3.957   1.512   6.560  0.9623 -1.0944 -1.3371
  554MOL0     H74759   4.061   1.611   6.665  0.8687 -0.8642  1.4391
  554MOL0     H74760   4.145   1.376   6.480 -0.0478 -1.4758  3.1063
  554MOL0     H74761   4.259   1.458   6.571  2.2293 -0.9278 -4.5562
  554MOL0     H74762   4.229   1.668   6.461  1.6556 -1.6037  0.7093
  554MOL0     H74763   4.088   1.608   6.373  1.5151 -0.6745 -2.6354
  554MOL0     H74764   4.376   1.501   6.383 -0.2971  1.8114  1.3467
  554MOL0     H74765   4.251   1.434   6.279 -1.6072  0.5195 -0.8476
  554MOL0     H74766   4.392   1.715   6.260 -1.0272  1.1272 -1.4995
  554MOL0     H74767   4.252   1.664   6.160 -1.1985  0.4321  2.0141
  554MOL0     H74768   4.381   1.484   6.062  1.8613 -2.5947  2.1951
  554MOL0     H74769   4.485   1.633   6.062  0.8247  1.5387  2.4705
  554MOL0     H74770   3.657   1.285   6.770  0.2151  1.1256 -0.5731
  554MOL0     H74771   3.434   1.282   6.860 -1.6554  0.4327  1.7553
  554MOL0     H74772   2.970   1.683   7.078 -1.0408  1.2069  2.1465
  554MOL0     H74773   2.753   1.605   7.091 -2.8003 -2.9798 -1.3965
  554MOL0     H74774   0.984   1.174   7.668 -1.5318  0.4305 -1.0691
  554MOL0     H74775   0.853   1.094   7.852  3.5888 -1.4639  0.9848
  554MOL0     H74776   0.524   1.242   8.149 -0.3891 -2.5481 -2.4299
  554MOL0     H74777   0.328   1.190   8.310  0.3581  1.1364  0.1759
  554MOL0     H74778   0.401   0.956   8.663  1.6866 -0.4907 -1.2902
  554MOL0     H74779   0.386   0.835   8.525  0.6399 -1.2826  1.6456
  554MOL0     H74780   0.223   0.773   8.674 -4.1638 -1.8202  0.2757
  554MOL0     H74781   0.159   0.843   8.529  2.1333  0.7789 -1.8229
  554MOL0     H74782   0.126   1.061   8.636  2.5125 -0.1099  1.1087
  554MOL0     H74783   0.182   1.015   8.790  0.4318 -0.4687 -0.6729
  554MOL0     H74784  -0.058   0.879   8.645 -0.0180 -5.5175  1.7682
  554MOL0     H74785  -0.019   0.827   8.796 -1.3490  0.8636 -1.6953
  554MOL0     H74786  -0.178   1.225   8.864 -2.1352 -0.4434 -3.4155
  554MOL0     H74787   0.580   0.907   8.500 -2.5281 -1.2284 -0.2011
  554MOL0     H74788   0.879   1.002   8.415  0.1296  0.7409 -0.7469
  554MOL0     H74789   0.785   0.846   8.418 -0.5621 -0.1200 -1.2150
  554MOL0     H74790   0.860   0.904   8.275  2.7423  2.3611 -0.0423
  555MOL0     O74791   7.197  10.171   2.080  0.5163  0.1647 -0.0385
  555MOL0     C74792   7.264  10.146   1.983  0.7636  0.0592  0.1712
  555MOL0     O74793   7.396  10.180   1.962  0.1501 -0.1794  0.4241
  555MOL0     C74794   7.444  10.296   2.028  0.1822  0.2983 -0.4954
  555MOL0     C74795   7.575  10.300   2.031 -0.8447 -1.2202 -0.2518
  555MOL0     C74796   7.654  10.398   2.108  0.8752  0.3408  0.6398
  555MOL0     C74797   7.588  10.502   2.162 -0.0552 -0.0419 -0.2397
  555MOL0     O74798   7.667  10.590   2.232 -0.1396 -0.7515 -0.0383
  555MOL0     C74799   7.661  10.730   2.198 -0.3330  0.1967 -0.1588
  555MOL0     C74800   7.733  10.819   2.298  0.3828 -0.2750 -0.1023
  555MOL0     C74801   7.642  10.857   2.414  0.6292  0.0821 -0.0752
  555MOL0     C74802   7.718  10.949   2.512  0.6763  0.0552 -0.9884
  555MOL0     C74803   7.627  10.994   2.623  0.7937 -0.4426 -0.6291
  555MOL0     C74804   7.636  10.892   2.743 -0.9083 -0.6721  0.6236
  555MOL0     C74805   7.565  10.947   2.875 -0.2062 -1.3340  0.3877
  555MOL0     C74806   7.426  10.893   2.911 -0.9269  0.3018 -0.5819
  555MOL0     N74807   7.380  10.927   3.044  0.1496 -0.5383  1.0562
  555MOL0     C74808   7.405  11.044   3.115 -0.1296  0.0900  0.6796
  555MOL0     C74809   7.346  11.027   3.237 -0.2528  0.4690  0.6248
  555MOL0     C74810   7.338  11.118   3.358 -0.0778  0.3177 -0.2841
  555MOL0     C74811   7.444  11.091   3.465 -0.2797  0.0380  0.6887
  555MOL0     C74812   7.415  11.171   3.590  0.4913 -0.4245  0.5874
  555MOL0     C74813   7.486  11.112   3.708  0.6052  0.2401  0.3499
  555MOL0     O74814   7.625  11.095   3.693  0.1595  0.8309  0.2849
  555MOL0     C74815   7.689  11.049   3.805  0.6783  0.2895  0.1882
  555MOL0     C74816   7.828  11.083   3.815  0.9019 -0.1439 -1.2426
  555MOL0     C74817   7.903  11.038   3.921 -0.1933 -0.2322  0.5188
  555MOL0     C74818   7.851  10.958   4.020  0.5629 -0.1793 -0.5998
  555MOL0     C74819   7.933  10.912   4.132  0.0185  1.2277  0.6560
  555MOL0     O74820   8.034  10.992   4.173 -0.2728  0.1562 -0.1774
  555MOL0     C74821   8.147  10.947   4.241 -0.6614 -0.7947  0.4892
  555MOL0     C74822   8.186  10.814   4.242  0.0335 -0.0662 -0.0526
  555MOL0     C74823   8.302  10.780   4.321  0.3467  0.4628 -0.3176
  555MOL0     C74824   8.377  10.886   4.384  0.4300  0.9491 -0.7604
  555MOL0     O74825   8.482  10.860   4.470 -0.0481  0.3668 -0.4859
  555MOL0     C74826   8.532  10.727   4.491  0.1867  0.3531 -1.1058
  555MOL0     C74827   8.619  10.690   4.370 -0.1365 -0.3235 -0.3076
  555MOL0     C74828   8.678  10.549   4.395  0.8378  0.0901  0.4825
  555MOL0     C74829   8.829  10.553   4.378 -0.9151  0.7020 -0.0278
  555MOL0     C74830   8.884  10.418   4.402 -1.1256 -0.5866  0.3385
  555MOL0     C74831   9.034  10.417   4.373  0.1819 -0.2183 -1.2389
  555MOL0     C74832   9.095  10.272   4.373 -1.0302  0.1359 -0.7297
  555MOL0     C74833   9.245  10.262   4.384  0.0289  0.5580 -0.1125
  555MOL0    Cl74834   9.316  10.342   4.235  0.2873  0.1288  0.2778
  555MOL0     C74835   8.334  11.015   4.386 -0.7540 -0.1122  0.0517
  555MOL0     C74836   8.215  11.049   4.311 -0.2568 -0.6613  0.9837
  555MOL0     O74837   7.895  10.808   4.188  0.4757 -0.2531 -0.1946
  555MOL0     C74838   7.707  10.921   4.013 -0.7210 -0.0789  0.6309
  555MOL0     C74839   7.627  10.971   3.906 -0.2756 -0.4131 -0.5309
  555MOL0     N74840   7.282  10.898   3.240 -0.6544  0.0800  0.3227
  555MOL0     N74841   7.313  10.843   3.124  0.4165 -0.1219 -1.0268
  555MOL0     C74842   7.454  10.510   2.145  0.9119 -0.8543 -0.2596
  555MOL0     C74843   7.373  10.409   2.076  0.3071 -0.0476  1.4015
  555MOL0     C74844   7.192  10.070   1.872 -0.3158 -0.3471 -0.3033
  555MOL0     C74845   7.263  10.057   1.755  0.8723  0.8380 -0.6991
  555MOL0     C74846   7.199   9.994   1.645 -0.2369  0.0377 -0.8654
  555MOL0     C74847   7.078   9.931   1.651  0.6120 -0.2176  0.0220
  555MOL0     O74848   7.028   9.853   1.549 -0.4013 -0.1228 -0.4441
  555MOL0     C74849   7.089   9.722   1.537  0.2522 -1.2329 -0.4594
  555MOL0     C74850   7.168   9.706   1.409 -0.2388  0.5522  0.1193
  555MOL0     C74851   7.240   9.568   1.403  0.9532 -0.0827 -0.2504
  555MOL0     C74852   7.142   9.455   1.378  0.2017  0.5394  0.0978
  555MOL0     C74853   7.097   9.458   1.242 -0.3778 -0.9064  0.5679
  555MOL0     C74854   7.045   9.479   1.130 -0.5977 -0.5729 -0.1592
  555MOL0     C74855   7.006   9.931   1.770  0.0172 -0.5975  0.0398
  555MOL0     C74856   7.066   9.999   1.883 -0.2379 -0.5186 -0.0342
  555MOL0     C74857   7.014   9.951   2.012  0.3248 -0.4330  0.0696
  555MOL0     H74858   7.632  10.216   1.991  2.5776  0.4907  0.6462
  555MOL0     H74859   7.759  10.382   2.132  1.0943  1.8290  0.8130
  555MOL0     H74860   7.688  10.748   2.093  0.2631  0.7625  0.0794
  555MOL0     H74861   7.558  10.766   2.200 -0.2846  0.4617 -1.2940
  555MOL0     H74862   7.778  10.907   2.251  1.6408  0.5110  2.3525
  555MOL0     H74863   7.818  10.766   2.342  0.8931  0.5603 -0.0437
  555MOL0     H74864   7.608  10.767   2.465  1.2519 -1.8029 -2.7580
  555MOL0     H74865   7.551  10.908   2.383 -1.7247 -3.2586  0.8829
  555MOL0     H74866   7.809  10.897   2.547 -0.9030 -1.2326  1.5029
  555MOL0     H74867   7.737  11.038   2.452 -4.1167 -0.0760 -3.1229
  555MOL0     H74868   7.649  11.092   2.666  0.0871 -0.7895  0.5606
  555MOL0     H74869   7.523  10.985   2.591  0.7454 -5.2740  0.1505
  555MOL0     H74870   7.598  10.793   2.717 -2.0853  0.3662 -1.9854
  555MOL0     H74871   7.743  10.889   2.767  0.0288 -1.0956 -2.9682
  555MOL0     H74872   7.554  11.055   2.862 -1.6371 -1.6272 -1.1463
  555MOL0     H74873   7.635  10.923   2.956  0.6048  2.1983  0.9125
  555MOL0     H74874   7.351  10.941   2.848 -2.8624  0.1733  1.5339
  555MOL0     H74875   7.426  10.786   2.890  0.2918  0.6995 -3.1207
  555MOL0     H74876   7.453  11.132   3.073  0.7994  0.8830  3.1983
  555MOL0     H74877   7.360  11.219   3.322 -0.1513  1.1285  1.7662
  555MOL0     H74878   7.236  11.120   3.397 -1.1257 -1.4880 -2.7195
  555MOL0     H74879   7.444  10.984   3.490 -2.0785 -0.0699  0.3717
  555MOL0     H74880   7.545  11.121   3.434 -0.4872 -0.3816 -0.4329
  555MOL0     H74881   7.307  11.161   3.608  0.1273  2.5372  0.4620
  555MOL0     H74882   7.439  11.276   3.573 -1.0413 -0.2550 -0.8606
  555MOL0     H74883   7.441  11.013   3.721  1.6743 -0.5657 -1.6601
  555MOL0     H74884   7.466  11.178   3.793  0.3822 -0.3668  0.7731
  555MOL0     H74885   7.870  11.149   3.740  0.8938  3.1027  1.3911
  555MOL0     H74886   8.007  11.069   3.933 -0.3316  0.1423  0.7609
  555MOL0     H74887   8.125  10.740   4.191 -1.4255  2.7241 -2.6454
  555MOL0     H74888   8.340  10.679   4.316 -0.9155 -0.0075 -0.7164
  555MOL0     H74889   8.596  10.721   4.579 -2.1957 -0.0610  0.6743
  555MOL0     H74890   8.450  10.660   4.518 -2.6424  3.8720 -0.2293
  555MOL0     H74891   8.572  10.695   4.271  3.6009  1.5488 -2.1917
  555MOL0     H74892   8.697  10.765   4.358 -2.0100  1.5501 -1.6392
  555MOL0     H74893   8.659  10.526   4.500 -2.1844  1.4766  0.3408
  555MOL0     H74894   8.626  10.469   4.341 -0.5176  0.7462  0.7764
  555MOL0     H74895   8.870  10.621   4.453 -0.5957 -2.5733  3.0459
  555MOL0     H74896   8.862  10.594   4.283  3.3065 -2.5246 -0.2466
  555MOL0     H74897   8.848  10.355   4.319 -0.6984  1.0474 -1.1544
  555MOL0     H74898   8.872  10.383   4.505  2.7738 -0.5303  0.9694
  555MOL0     H74899   9.060  10.463   4.276 -1.0768  1.1715 -0.9585
  555MOL0     H74900   9.077  10.484   4.448 -4.1195  1.7086 -0.2283
  555MOL0     H74901   9.059  10.214   4.288 -1.8221 -0.0591 -0.2683
  555MOL0     H74902   9.049  10.232   4.464 -0.1305 -0.0754 -0.3582
  555MOL0     H74903   9.275  10.302   4.481 -0.9264 -1.6171  1.1347
  555MOL0     H74904   9.279  10.158   4.386  0.5487  0.6724 -1.6380
  555MOL0     H74905   8.388  11.091   4.441 -3.5905  2.4207 -0.3954
  555MOL0     H74906   8.170  11.147   4.317  3.6950  1.5753 -1.5287
  555MOL0     H74907   7.656  10.853   4.080 -3.1292 -0.0357 -1.0387
  555MOL0     H74908   7.521  10.948   3.908 -0.5270  0.7517  0.3761
  555MOL0     H74909   7.396  10.593   2.184 -0.5032 -2.2223  0.6782
  555MOL0     H74910   7.266  10.428   2.065  0.6259  0.0487 -3.3108
  555MOL0     H74911   7.365  10.090   1.736  1.7228 -0.5333  1.1916
  555MOL0     H74912   7.257   9.986   1.554 -0.6681 -0.2005 -1.1258
  555MOL0     H74913   7.010   9.648   1.547  0.0009 -0.6864  4.0801
  555MOL0     H74914   7.154   9.697   1.622 -0.0278  0.6010  0.3670
  555MOL0     H74915   7.241   9.787   1.407 -0.3906  0.6864 -0.1172
  555MOL0     H74916   7.104   9.718   1.320  1.1258  1.5268 -0.7810
  555MOL0     H74917   7.306   9.560   1.490  1.3935  0.8916 -0.4762
  555MOL0     H74918   7.312   9.574   1.321  0.5509 -0.8772 -0.6635
  555MOL0     H74919   7.181   9.353   1.386  0.0114  0.5035  0.5863
  555MOL0     H74920   7.056   9.460   1.445 -1.5215  0.1424 -1.9519
  555MOL0     H74921   6.986   9.503   1.044 -1.2296  1.7036  0.8481
  555MOL0     H74922   6.912   9.879   1.783 -0.5431  0.2612 -0.4714
  555MOL0     H74923   6.923   9.890   2.006  0.4129 -0.7766  1.6525
  555MOL0     H74924   7.092   9.898   2.068  0.4110 -0.7073 -0.3106
  555MOL0     H74925   6.978  10.041   2.063  2.1483 -0.7538  2.0515
  556MOL0     O74926   5.118   1.625   0.951 -0.0681 -0.3707 -0.6808
  556MOL0     C74927   5.104   1.503   0.932  0.4084 -0.7466 -0.5254
  556MOL0     O74928   4.993   1.424   0.971 -0.3587 -0.1728  0.8067
  556MOL0     C74929   4.879   1.486   1.016  0.9883  0.2525  1.2618
  556MOL0     C74930   4.833   1.610   0.992  0.4946 -0.2581  0.5714
  556MOL0     C74931   4.703   1.638   1.021  0.6181 -0.8840  1.0497
  556MOL0     C74932   4.611   1.551   1.086 -0.8794  1.1985 -0.8935
  556MOL0     O74933   4.481   1.584   1.107  0.4283  0.9389  0.4506
  556MOL0     C74934   4.423   1.571   1.238 -0.3947 -0.2454  0.6392
  556MOL0     C74935   4.287   1.641   1.243  0.7616 -0.1270 -0.3004
  556MOL0     C74936   4.191   1.612   1.124 -0.1227 -1.2043  0.4141
  556MOL0     C74937   4.138   1.470   1.140  1.3671  0.4942 -0.1724
  556MOL0     C74938   4.051   1.428   1.015 -0.3686 -0.8821 -0.6151
  556MOL0     C74939   4.128   1.404   0.884 -0.0248 -0.9709 -0.0778
  556MOL0     C74940   4.042   1.334   0.782 -0.0454  0.3281 -0.4078
  556MOL0     C74941   4.116   1.310   0.648 -0.1256 -0.8867  0.6062
  556MOL0     N74942   4.251   1.251   0.663  0.4957 -0.5676  0.0395
  556MOL0     C74943   4.372   1.316   0.686 -0.0652  0.0268  0.8795
  556MOL0     C74944   4.464   1.220   0.683  0.5619 -0.7340  0.0841
  556MOL0     C74945   4.611   1.226   0.726 -0.2388 -0.2791 -0.0674
  556MOL0     C74946   4.699   1.298   0.611  0.2350  0.2569  0.4426
  556MOL0     C74947   4.833   1.359   0.655 -0.6040  0.0702 -0.1212
  556MOL0     C74948   4.948   1.251   0.676  0.1740 -0.4073 -0.0429
  556MOL0     O74949   4.964   1.187   0.556 -0.1283  0.2170  0.2375
  556MOL0     C74950   5.088   1.117   0.529  1.0031 -0.5041  0.3452
  556MOL0     C74951   5.199   1.120   0.612  0.1983  0.5047 -0.9615
  556MOL0     C74952   5.308   1.042   0.586  0.0723  0.6037 -0.0358
  556MOL0     C74953   5.320   0.950   0.474  0.8194 -0.2075 -0.0701
  556MOL0     C74954   5.444   0.866   0.439  0.7837 -1.6301  0.1293
  556MOL0     O74955   5.555   0.879   0.513  0.3313 -0.8011  0.3202
  556MOL0     C74956   5.658   0.793   0.491  0.1877 -0.0678  0.0900
  556MOL0     C74957   5.780   0.851   0.469 -0.1482  0.5081  0.0927
  556MOL0     C74958   5.887   0.764   0.437  0.0319  0.4308  0.3425
  556MOL0     C74959   5.880   0.628   0.450  0.3813 -0.0966  0.4067
  556MOL0     O74960   5.980   0.537   0.443  0.1270 -0.6324 -0.0215
  556MOL0     C74961   6.103   0.589   0.393  0.0010 -0.0762 -1.2432
  556MOL0     C74962   6.231   0.498   0.419  0.2831  0.3001 -0.2531
  556MOL0     C74963   6.247   0.444   0.560 -0.2889  0.7689 -0.8949
  556MOL0     C74964   6.370   0.356   0.569  0.2593 -0.4874 -0.4683
  556MOL0     C74965   6.378   0.305   0.715 -0.0167  0.0550 -0.0607
  556MOL0     C74966   6.472   0.193   0.729 -0.2899 -0.2591  0.5198
  556MOL0     C74967   6.449   0.108   0.847 -0.7658 -0.4266  0.0563
  556MOL0     C74968   6.476   0.181   0.985  0.5752  0.3340 -0.3557
  556MOL0    Cl74969   6.653   0.197   1.009 -0.2963 -0.1289 -0.1668
  556MOL0     C74970   5.754   0.580   0.490 -0.2981  0.9534 -0.0989
  556MOL0     C74971   5.645   0.655   0.502  0.1880  0.1238  0.1193
  556MOL0     O74972   5.435   0.793   0.343 -0.1830 -0.2305  0.3558
  556MOL0     C74973   5.196   0.939   0.402 -0.0048 -0.0573  0.6409
  556MOL0     C74974   5.089   1.028   0.422  0.0472 -0.3606  0.2405
  556MOL0     N74975   4.404   1.098   0.666 -0.0365  0.3312 -0.2945
  556MOL0     N74976   4.277   1.115   0.648  0.2083  0.5575 -0.8736
  556MOL0     C74977   4.663   1.418   1.117 -0.0014  0.1802  1.0203
  556MOL0     C74978   4.793   1.390   1.071 -0.1386 -0.1507 -0.9920
  556MOL0     C74979   5.233   1.439   0.902  0.3577 -0.0825 -0.3632
  556MOL0     C74980   5.284   1.357   1.000 -0.5497  0.5794  0.3740
  556MOL0     C74981   5.401   1.278   0.967 -1.1897  1.0182 -0.1835
  556MOL0     C74982   5.476   1.305   0.857  0.1280 -1.0314  0.0588
  556MOL0     O74983   5.599   1.243   0.831 -0.4373  0.5211 -0.1264
  556MOL0     C74984   5.678   1.284   0.716 -0.2505  0.8847  0.2499
  556MOL0     C74985   5.767   1.403   0.763 -0.4249  0.0797  0.6261
  556MOL0     C74986   5.867   1.376   0.886 -0.7426 -0.1099 -0.1090
  556MOL0     C74987   6.005   1.429   0.854  0.8570  0.0549 -0.3544
  556MOL0     C74988   6.081   1.346   0.770 -0.4719 -0.3685 -0.2234
  556MOL0     C74989   6.153   1.278   0.702 -0.3347 -0.2443 -0.5367
  556MOL0     C74990   5.426   1.400   0.765  0.0176  1.3899  0.1963
  556MOL0     C74991   5.305   1.461   0.783 -0.3757  0.0202 -0.3463
  556MOL0     C74992   5.233   1.540   0.676  0.0261  1.0462 -0.2693
  556MOL0     H74993   4.879   1.688   0.932 -0.0088  1.9740  2.9266
  556MOL0     H74994   4.656   1.733   0.998  0.0803 -1.0700  1.3565
  556MOL0     H74995   4.431   1.467   1.270  1.6316  0.3903  2.4259
  556MOL0     H74996   4.492   1.630   1.298 -0.4722 -0.4015  0.8809
  556MOL0     H74997   4.300   1.750   1.244 -1.5697  0.2142  1.0550
  556MOL0     H74998   4.234   1.622   1.337 -1.9531 -0.2479 -1.7366
  556MOL0     H74999   4.233   1.623   1.023 -0.1339 -0.0773  0.5263
  556MOL0     H75000   4.107   1.681   1.127  1.1756  0.4039  1.7873
  556MOL0     H75001   4.215   1.393   1.132  0.8656 -0.3391  2.2539
  556MOL0     H75002   4.086   1.461   1.236  1.1445 -1.2358 -0.4268
  556MOL0     H75003   4.003   1.332   1.039  0.9330 -1.9279 -1.9770
  556MOL0     H75004   3.966   1.494   1.000  0.1044 -0.5774 -2.0989
  556MOL0     H75005   4.167   1.499   0.847  0.5460 -0.8973  0.6811
  556MOL0     H75006   4.216   1.344   0.910  0.5205 -1.3742 -2.6071
  556MOL0     H75007   3.944   1.379   0.762  0.0250  0.3535 -0.6958
  556MOL0     H75008   4.018   1.236   0.824  2.2254 -1.2195 -2.4347
  556MOL0     H75009   4.050   1.251   0.584 -0.5821 -0.4393  0.6565
  556MOL0     H75010   4.119   1.403   0.590  4.3769 -1.0277  0.2440
  556MOL0     H75011   4.393   1.419   0.713  3.6550 -0.1947 -0.5613
  556MOL0     H75012   4.621   1.278   0.822 -1.2279  0.6607 -0.4520
  556MOL0     H75013   4.655   1.129   0.749  0.0152 -0.1059  0.1875
  556MOL0     H75014   4.704   1.226   0.528 -1.0371 -0.6743  1.1321
  556MOL0     H75015   4.624   1.363   0.565  1.5416  0.0420 -2.1883
  556MOL0     H75016   4.832   1.421   0.746  0.7841  0.1787 -0.1444
  556MOL0     H75017   4.858   1.428   0.574 -0.8680 -0.3011 -0.5202
  556MOL0     H75018   4.931   1.181   0.758  2.0752  0.2572  0.9664
  556MOL0     H75019   5.035   1.311   0.705  0.7560 -1.8257  1.2552
  556MOL0     H75020   5.207   1.185   0.699 -1.3962  1.3299 -1.3765
  556MOL0     H75021   5.387   1.057   0.659 -0.8290 -2.5385  1.7857
  556MOL0     H75022   5.809   0.955   0.461  0.2665  0.4375  0.6520
  556MOL0     H75023   5.982   0.814   0.418  0.7039 -1.0760 -0.3870
  556MOL0     H75024   6.103   0.615   0.287  0.5630 -1.3417 -1.5755
  556MOL0     H75025   6.122   0.679   0.452 -0.8380  0.7090 -2.1463
  556MOL0     H75026   6.223   0.413   0.351  1.2210  0.8184 -1.0527
  556MOL0     H75027   6.323   0.555   0.402 -1.3421  3.2250  0.0885
  556MOL0     H75028   6.249   0.527   0.631 -2.3203 -0.8969  1.2569
  556MOL0     H75029   6.157   0.383   0.575  0.0031  0.3900 -0.6582
  556MOL0     H75030   6.461   0.403   0.531 -0.5885 -0.2940 -2.4071
  556MOL0     H75031   6.342   0.273   0.503 -2.0247  0.2951 -0.5827
  556MOL0     H75032   6.285   0.262   0.754  0.2381 -1.1254 -0.7085
  556MOL0     H75033   6.398   0.386   0.786  0.4313 -0.9792  1.0453
  556MOL0     H75034   6.449   0.135   0.638  0.3247  0.3374 -0.0302
  556MOL0     H75035   6.577   0.224   0.722 -0.0472 -1.2552 -0.8135
  556MOL0     H75036   6.523   0.028   0.852 -0.6680 -0.4641 -1.5916
  556MOL0     H75037   6.347   0.068   0.853 -0.3077 -1.5186  0.9433
  556MOL0     H75038   6.415   0.269   1.007  0.6763 -0.3994  3.6536
  556MOL0     H75039   6.441   0.106   1.057 -0.3528  0.1467 -0.9880
  556MOL0     H75040   5.766   0.475   0.517  2.0328  1.5935  1.7236
  556MOL0     H75041   5.549   0.624   0.541 -0.1520 -3.0633 -2.7875
  556MOL0     H75042   5.201   0.883   0.309  2.1363  2.4108 -0.8759
  556MOL0     H75043   4.998   1.008   0.366  1.2512 -0.0938 -1.9044
  556MOL0     H75044   4.598   1.340   1.153 -4.1479  2.3338 -1.0731
  556MOL0     H75045   4.835   1.294   1.099 -1.7663 -0.4270  0.7051
  556MOL0     H75046   5.239   1.339   1.096 -0.9217 -0.7408 -0.0355
  556MOL0     H75047   5.436   1.214   1.047 -2.0320  0.5240 -0.2050
  556MOL0     H75048   5.626   1.292   0.620  2.7972  0.0085 -1.5858
  556MOL0     H75049   5.740   1.198   0.692  0.8819  2.5054 -3.1681
  556MOL0     H75050   5.700   1.472   0.814 -0.3216  0.1132  0.7180
  556MOL0     H75051   5.816   1.453   0.679 -1.0809 -0.5754 -0.1655
  556MOL0     H75052   5.859   1.271   0.913 -2.7021  0.0327 -0.0110
  556MOL0     H75053   5.836   1.428   0.977 -2.3681 -0.9217 -0.1665
  556MOL0     H75054   5.999   1.527   0.806 -0.6504  2.5031  4.3018
  556MOL0     H75055   6.063   1.442   0.945  3.7603 -1.5082 -1.8533
  556MOL0     H75056   6.219   1.217   0.643 -2.9524 -2.0191 -1.8496
  556MOL0     H75057   5.482   1.434   0.678 -0.9424  3.1138  0.2146
  556MOL0     H75058   5.311   1.561   0.601  1.6127 -4.1432 -0.4344
  556MOL0     H75059   5.156   1.493   0.615  0.9368  1.1486 -1.5527
  556MOL0     H75060   5.178   1.626   0.716 -1.2519  0.5085 -0.8446
  557MOL0     O75061   5.861   0.374   1.687  0.5531  0.3196 -0.5470
  557MOL0     C75062   5.857   0.334   1.571  0.1311 -0.6905 -0.4747
  557MOL0     O75063   5.963   0.282   1.509 -0.6001 -0.0300 -0.1292
  557MOL0     C75064   6.084   0.259   1.569  0.4483 -0.3834  0.0431
  557MOL0     C75065   6.142   0.354   1.644 -0.9407 -0.1136  0.4661
  557MOL0     C75066   6.255   0.339   1.721  0.0952 -0.6199 -0.5421
  557MOL0     C75067   6.319   0.215   1.715  0.0460 -0.5556  0.5188
  557MOL0     O75068   6.432   0.209   1.788  0.5138  0.1643  0.0666
  557MOL0     C75069   6.536   0.117   1.763 -0.5188 -0.3454 -0.3223
  557MOL0     C75070   6.667   0.164   1.836  0.2339  0.0103  0.6286
  557MOL0     C75071   6.761   0.048   1.874 -0.1676 -1.1238 -0.0299
  557MOL0     C75072   6.868   0.103   1.967 -0.0235  0.0726 -1.2787
  557MOL0     C75073   6.984   0.006   1.997  0.5439 -0.0236 -0.2109
  557MOL0     C75074   7.085  -0.021   1.877  0.4579  0.1620 -0.3015
  557MOL0     C75075   7.218  -0.095   1.925  0.5770 -0.4430  1.3017
  557MOL0     C75076   7.183  -0.249   1.936 -0.3201 -0.3284 -0.4818
  557MOL0     N75077   7.300  -0.341   1.935 -0.3392 -0.4153  1.2326
  557MOL0     C75078   7.399  -0.355   1.837  0.9613  0.5730 -0.0989
  557MOL0     C75079   7.479  -0.452   1.886  0.1142  0.0205  0.8996
  557MOL0     C75080   7.603  -0.488   1.812  0.3496 -0.1894 -1.0238
  557MOL0     C75081   7.712  -0.389   1.852 -0.8902  0.3256 -0.8267
  557MOL0     C75082   7.832  -0.414   1.750 -0.0172 -0.1311 -0.5730
  557MOL0     C75083   7.960  -0.354   1.801 -0.1129  0.1103  0.3830
  557MOL0     O75084   8.062  -0.349   1.688  0.1904 -0.1399  0.1962
  557MOL0     C75085   8.188  -0.305   1.735  0.3469 -0.3414 -0.0070
  557MOL0     C75086   8.253  -0.204   1.665  0.4270 -0.9065 -0.4551
  557MOL0     C75087   8.379  -0.154   1.708 -0.3364 -0.5671  0.0847
  557MOL0     C75088   8.436  -0.202   1.826  0.5448 -1.0381  0.3193
  557MOL0     C75089   8.554  -0.139   1.882  0.7633  0.5983 -0.2406
  557MOL0     O75090   8.621  -0.055   1.800 -0.3942  0.9938  0.1500
  557MOL0     C75091   8.751  -0.041   1.814  1.2444  0.2649  0.4849
  557MOL0     C75092   8.814   0.016   1.924 -0.4207 -0.9722 -1.3168
  557MOL0     C75093   8.958   0.031   1.928  0.1726 -0.1444 -0.6182
  557MOL0     C75094   9.035   0.005   1.819 -0.4878 -0.2809 -0.1242
  557MOL0     O75095   9.173   0.023   1.818 -0.3562 -0.4608  0.4446
  557MOL0     C75096   9.240   0.066   1.937 -0.6178 -0.2743 -0.5728
  557MOL0     C75097   9.386   0.023   1.934 -0.3174  0.6649  0.2985
  557MOL0     C75098   9.459   0.114   2.031 -0.1190  0.4419  0.2048
  557MOL0     C75099   9.601   0.074   2.029  0.0523 -0.3763  0.1056
  557MOL0     C75100   9.684   0.161   2.127 -0.1360 -0.4802 -0.5734
  557MOL0     C75101   9.816   0.076   2.148  0.5111 -0.2920  0.7945
  557MOL0     C75102   9.906   0.156   2.244  0.5508  0.3381  0.5042
  557MOL0     C75103  10.015   0.055   2.295  0.4642  0.6079  1.6965
  557MOL0    Cl75104   9.962  -0.081   2.388 -0.0850  0.0502 -0.2076
  557MOL0     C75105   8.970  -0.042   1.705 -0.2556  0.0436  0.3565
  557MOL0     C75106   8.828  -0.065   1.704 -0.1552 -0.6180 -0.2942
  557MOL0     O75107   8.588  -0.162   2.000 -0.2127  0.1590 -0.3456
  557MOL0     C75108   8.379  -0.305   1.893 -0.5864  0.3113  0.0158
  557MOL0     C75109   8.262  -0.361   1.844  0.1512 -0.3417  0.1299
  557MOL0     N75110   7.428  -0.503   2.008 -0.7980  0.2994  0.5866
  557MOL0     N75111   7.329  -0.429   2.038  0.6946  0.3392  0.7908
  557MOL0     C75112   6.251   0.108   1.646 -0.2873 -0.1539 -0.6440
  557MOL0     C75113   6.139   0.128   1.558 -0.0533 -0.2623 -0.3736
  557MOL0     C75114   5.740   0.348   1.485 -0.0280 -0.2206 -0.2744
  557MOL0     C75115   5.754   0.339   1.344  0.8356 -1.1021  0.1266
  557MOL0     C75116   5.638   0.365   1.258 -1.1272 -0.4307 -0.5437
  557MOL0     C75117   5.514   0.408   1.309  0.1448 -0.3027 -0.0550
  557MOL0     O75118   5.424   0.460   1.220  0.1834 -0.1065  0.2666
  557MOL0     C75119   5.299   0.519   1.264 -0.3654 -0.3111 -0.1682
  557MOL0     C75120   5.259   0.625   1.164 -0.5626 -0.3829  0.2129
  557MOL0     C75121   5.131   0.694   1.200 -0.0035  0.6921 -0.9568
  557MOL0     C75122   5.008   0.615   1.175  0.3133 -0.3051 -0.2980
  557MOL0     C75123   4.895   0.666   1.257 -0.0991 -0.0251 -0.0836
  557MOL0     C75124   4.807   0.675   1.350  0.1315 -0.1684 -0.2609
  557MOL0     C75125   5.501   0.386   1.448  0.5708 -0.1263  0.2749
  557MOL0     C75126   5.612   0.357   1.538  0.3318  0.8621 -0.7336
  557MOL0     C75127   5.573   0.336   1.686 -0.0883 -0.8087 -0.5540
  557MOL0     H75128   6.100   0.453   1.651 -2.4184 -0.3183 -3.2976
  557MOL0     H75129   6.297   0.406   1.795 -1.3684 -0.5007  0.2337
  557MOL0     H75130   6.513   0.014   1.789 -0.8986 -1.1053 -3.2596
  557MOL0     H75131   6.559   0.109   1.656  1.5728 -1.3466  0.1443
  557MOL0     H75132   6.629   0.218   1.923  0.5242  3.6424 -1.3049
  557MOL0     H75133   6.724   0.230   1.770 -0.2520 -1.8557 -1.8035
  557MOL0     H75134   6.807   0.009   1.783  3.3505 -0.0558  1.1379
  557MOL0     H75135   6.708  -0.039   1.916 -1.6736  0.4469  1.5268
  557MOL0     H75136   6.917   0.185   1.913  0.6328  0.7144  0.2471
  557MOL0     H75137   6.816   0.131   2.059 -1.5586  0.4135 -2.2190
  557MOL0     H75138   7.032   0.043   2.089 -2.5420  0.7945  1.2137
  557MOL0     H75139   6.939  -0.087   2.033  4.1156 -2.0083 -0.4477
  557MOL0     H75140   7.027  -0.079   1.804  1.8748 -1.3222 -0.3076
  557MOL0     H75141   7.120   0.070   1.828 -0.6865 -0.3714 -2.2397
  557MOL0     H75142   7.252  -0.039   2.013  3.0885  0.6135 -0.2204
  557MOL0     H75143   7.300  -0.083   1.853  0.1546 -0.4853  0.8056
  557MOL0     H75144   7.118  -0.255   2.024 -1.4198  1.8325 -1.0876
  557MOL0     H75145   7.128  -0.287   1.850  2.0315 -2.9954 -0.9459
  557MOL0     H75146   7.409  -0.296   1.746 -2.5143  0.6780 -0.5506
  557MOL0     H75147   7.634  -0.588   1.844  0.2533 -0.3311 -1.3781
  557MOL0     H75148   7.588  -0.494   1.704  0.7355  2.3070 -1.2691
  557MOL0     H75149   7.667  -0.293   1.827 -0.4049  1.0346  0.8400
  557MOL0     H75150   7.745  -0.412   1.954 -1.5977  0.9507 -0.4485
  557MOL0     H75151   7.810  -0.382   1.648 -2.6072  1.3823  0.3507
  557MOL0     H75152   7.855  -0.520   1.740  0.8182  0.1851 -2.4557
  557MOL0     H75153   7.995  -0.407   1.891  0.8838 -3.0730 -1.6950
  557MOL0     H75154   7.950  -0.252   1.837  1.1532  0.6773 -0.7823
  557MOL0     H75155   8.200  -0.178   1.573 -0.8195 -2.8935 -0.3616
  557MOL0     H75156   8.418  -0.070   1.653 -2.0845  0.0932 -0.2281
  557MOL0     H75157   8.757   0.052   2.009 -0.4987  2.5637 -2.6937
  557MOL0     H75158   8.997   0.065   2.024 -1.4854  1.0017 -0.3118
  557MOL0     H75159   9.237   0.175   1.945  2.8602 -0.0893 -0.6543
  557MOL0     H75160   9.190   0.021   2.024 -2.9292  1.8827 -0.6788
  557MOL0     H75161   9.402  -0.084   1.956 -2.4550  0.6861  2.4293
  557MOL0     H75162   9.419   0.042   1.832 -4.8912  2.8779 -1.0474
  557MOL0     H75163   9.439   0.217   2.003 -2.1110 -0.5446 -2.4266
  557MOL0     H75164   9.420   0.091   2.131  0.6667  1.1907  0.6963
  557MOL0     H75165   9.628   0.088   1.924 -0.7824 -1.4051 -0.2678
  557MOL0     H75166   9.595  -0.033   2.055  1.0604 -0.4324  0.1578
  557MOL0     H75167   9.629   0.175   2.221 -1.6437  0.0561 -1.4919
  557MOL0     H75168   9.703   0.255   2.074  3.0146 -0.2383  0.8002
  557MOL0     H75169   9.803  -0.026   2.185 -0.6557 -0.0904  0.9949
  557MOL0     H75170   9.868   0.053   2.055 -1.4410  0.0391 -0.4361
  557MOL0     H75171   9.850   0.205   2.324 -2.2469 -3.0857  0.9201
  557MOL0     H75172   9.955   0.240   2.194  0.8447 -0.2674 -0.2557
  557MOL0     H75173  10.076   0.019   2.211 -0.3387 -0.1949  1.4453
  557MOL0     H75174  10.080   0.113   2.362  0.6544 -0.8464  2.8371
  557MOL0     H75175   9.026  -0.072   1.617 -1.1394  0.9498 -0.5434
  557MOL0     H75176   8.772  -0.085   1.613 -3.9296  3.7130  0.6309
  557MOL0     H75177   8.423  -0.342   1.985 -1.7834 -0.7848  0.1811
  557MOL0     H75178   8.215  -0.444   1.895 -2.2726  2.3628  2.6621
  557MOL0     H75179   6.284   0.006   1.663 -1.5869 -0.2232  1.8088
  557MOL0     H75180   6.100   0.044   1.501 -2.4517  1.3197 -1.2705
  557MOL0     H75181   5.846   0.336   1.287 -1.3926 -1.7068 -3.8319
  557MOL0     H75182   5.649   0.383   1.152  0.4131 -1.8231 -0.6749
  557MOL0     H75183   5.318   0.550   1.367  2.7914  1.4230 -1.1618
  557MOL0     H75184   5.219   0.446   1.279 -1.1410  0.7470  0.9939
  557MOL0     H75185   5.241   0.564   1.075  0.3153 -1.0739  0.4984
  557MOL0     H75186   5.345   0.691   1.146  0.5406 -1.9973 -0.6169
  557MOL0     H75187   5.105   0.793   1.161 -2.4872  1.9937  3.2351
  557MOL0     H75188   5.129   0.707   1.309 -3.1471  1.4230 -0.9932
  557MOL0     H75189   4.986   0.616   1.068  0.4869  0.4970 -0.3303
  557MOL0     H75190   5.013   0.510   1.207 -0.7599  0.0512  1.1644
  557MOL0     H75191   4.731   0.686   1.425 -2.3478 -0.4076 -2.5568
  557MOL0     H75192   5.398   0.394   1.481 -0.0963 -0.4421 -1.5923
  557MOL0     H75193   5.469   0.332   1.718  0.3767 -1.1565  0.9991
  557MOL0     H75194   5.616   0.242   1.722  0.3935 -0.0330  0.9888
  557MOL0     H75195   5.611   0.419   1.746 -0.6646 -1.3945  0.6462
  558MOL0     O75196  10.525   4.735   6.827  0.2948  0.5290 -0.8918
  558MOL0     C75197  10.527   4.618   6.850  0.9535  0.6362 -0.3619
  558MOL0     O75198  10.631   4.546   6.910  0.2251  0.2729 -0.1528
  558MOL0     C75199  10.759   4.589   6.882 -0.3270  0.4341 -1.1839
  558MOL0     C75200  10.807   4.719   6.909  0.3101  0.5462  0.1253
  558MOL0     C75201  10.939   4.760   6.877  0.2287  0.4420 -0.4462
  558MOL0     C75202  11.033   4.669   6.835  0.0286  0.1659  0.2838
  558MOL0     O75203  11.154   4.725   6.795  0.5770  0.1433  0.5019
  558MOL0     C75204  11.270   4.648   6.815  0.0179 -0.1730  0.5754
  558MOL0     C75205  11.394   4.717   6.762 -0.6565 -0.1260 -0.2757
  558MOL0     C75206  11.522   4.647   6.794  0.3503  0.2306 -0.8217
  558MOL0     C75207  11.643   4.710   6.735  0.0088 -0.5766 -0.6990
  558MOL0     C75208  11.767   4.625   6.748  0.7324  0.1247  0.8115
  558MOL0     C75209  11.888   4.678   6.674 -0.3446  0.1686 -0.2171
  558MOL0     C75210  11.944   4.814   6.727  0.3382 -0.3559 -0.5479
  558MOL0     C75211  12.065   4.852   6.632 -0.2052 -0.3172  1.2266
  558MOL0     N75212  12.199   4.829   6.700  0.2459  0.0276 -0.4120
  558MOL0     C75213  12.277   4.929   6.756 -0.5339  0.0003  0.2890
  558MOL0     C75214  12.375   4.863   6.831  1.3460 -0.3205  1.0288
  558MOL0     C75215  12.474   4.919   6.918  0.3829 -0.4933 -0.7674
  558MOL0     C75216  12.609   4.952   6.853 -0.2481 -0.2252  0.4840
  558MOL0     C75217  12.674   4.817   6.822  1.1875 -0.3722  0.2261
  558MOL0     C75218  12.801   4.847   6.738 -0.8417  0.2970  0.0899
  558MOL0     O75219  12.902   4.918   6.812  0.1229 -0.0067 -0.5426
  558MOL0     C75220  12.992   4.856   6.895  0.1432  0.1904 -0.0763
  558MOL0     C75221  13.080   4.948   6.958 -0.5224  0.3113  0.8289
  558MOL0     C75222  13.182   4.902   7.039 -1.1030 -0.0607  0.8730
  558MOL0     C75223  13.194   4.764   7.072  0.2446  0.1322 -1.1357
  558MOL0     C75224  13.295   4.709   7.162 -0.1604  0.3804  1.0063
  558MOL0     O75225  13.329   4.573   7.154 -0.2154 -0.1693 -0.2417
  558MOL0     C75226  13.411   4.526   7.255  0.9898  0.3113 -0.3281
  558MOL0     C75227  13.364   4.422   7.337  0.4059 -1.2743 -1.0497
  558MOL0     C75228  13.452   4.335   7.405  0.0243  0.4768  0.3519
  558MOL0     C75229  13.594   4.356   7.409 -0.1224  0.0051 -0.1038
  558MOL0     O75230  13.670   4.265   7.490 -0.3659 -0.0360 -0.8784
  558MOL0     C75231  13.813   4.294   7.501 -0.8022 -1.0802 -0.6158
  558MOL0     C75232  13.876   4.218   7.613 -0.1233  0.3177 -0.2778
  558MOL0     C75233  14.033   4.215   7.616  0.3540 -0.2988  0.0287
  558MOL0     C75234  14.099   4.148   7.498  0.7786 -0.1630  0.2931
  558MOL0     C75235  14.244   4.185   7.494 -1.1631 -0.4964  0.2566
  558MOL0     C75236  14.324   4.114   7.378 -0.1918  0.2586 -0.6141
  558MOL0     C75237  14.472   4.144   7.367  0.5378  0.6978 -0.6154
  558MOL0     C75238  14.499   4.287   7.333  0.2463 -0.0235  0.2266
  558MOL0    Cl75239  14.673   4.293   7.284  0.2702  0.0357 -0.0471
  558MOL0     C75240  13.635   4.473   7.338  0.7473  0.3229  0.6095
  558MOL0     C75241  13.546   4.551   7.255  0.5918 -0.2833  0.2157
  558MOL0     O75242  13.356   4.786   7.233  0.8058 -0.6931 -1.0462
  558MOL0     C75243  13.095   4.677   7.017 -0.5967  0.6849 -0.1294
  558MOL0     C75244  13.002   4.716   6.917 -1.0975  0.1079  0.0742
  558MOL0     N75245  12.351   4.727   6.823  0.7578 -0.5661 -0.1786
  558MOL0     N75246  12.252   4.714   6.736 -0.1226  0.9185 -0.1255
  558MOL0     C75247  10.988   4.534   6.816 -0.4932 -0.0022 -0.1418
  558MOL0     C75248  10.852   4.495   6.821  0.2775 -0.3252 -0.8072
  558MOL0     C75249  10.395   4.549   6.851 -0.1329 -0.6251 -0.4847
  558MOL0     C75250  10.371   4.460   6.744 -0.3385 -0.0094  0.7426
  558MOL0     C75251  10.247   4.403   6.730  0.5482  0.8458  0.1996
  558MOL0     C75252  10.145   4.418   6.827  0.5399 -0.2253 -0.0195
  558MOL0     O75253  10.017   4.376   6.814 -0.5103 -0.1723  0.0961
  558MOL0     C75254   9.985   4.283   6.710 -0.0482 -0.5210  0.4026
  558MOL0     C75255   9.853   4.207   6.741 -0.3866 -0.4233  0.4651
  558MOL0     C75256   9.833   4.202   6.891 -0.4513  0.3253 -0.1710
  558MOL0     C75257   9.732   4.105   6.953  0.3167 -0.3167 -0.4078
  558MOL0     C75258   9.605   4.128   6.895  0.3141  0.4236  0.2394
  558MOL0     C75259   9.500   4.156   6.840  0.1328  0.3948 -0.0724
  558MOL0     C75260  10.174   4.501   6.941 -0.0245 -0.8194  0.6101
  558MOL0     C75261  10.292   4.571   6.949 -0.7940  0.5778 -0.0111
  558MOL0     C75262  10.297   4.679   7.049  0.6354  1.0017  0.2761
  558MOL0     H75263  10.753   4.802   6.953  3.6462  1.5348  2.7811
  558MOL0     H75264  10.989   4.856   6.891  2.0181 -0.5951  0.6136
  558MOL0     H75265  11.279   4.625   6.921 -0.1332  0.5130  0.7390
  558MOL0     H75266  11.274   4.555   6.757  0.4001  1.0377 -1.4644
  558MOL0     H75267  11.408   4.816   6.807 -0.6236  1.2626 -3.0981
  558MOL0     H75268  11.384   4.735   6.654  1.1155  1.7617 -0.1973
  558MOL0     H75269  11.519   4.543   6.760 -3.5071  0.6026 -2.1271
  558MOL0     H75270  11.533   4.648   6.903 -2.4959 -0.2849 -0.4368
  558MOL0     H75271  11.631   4.731   6.628 -0.2483  1.5561 -0.2869
  558MOL0     H75272  11.667   4.807   6.779 -0.0083 -0.1731 -1.5568
  558MOL0     H75273  11.799   4.617   6.852  3.2182 -0.8300  0.0454
  558MOL0     H75274  11.752   4.518   6.731  1.6157  0.4652 -3.1360
  558MOL0     H75275  11.956   4.593   6.689 -1.5805 -0.7621  0.3579
  558MOL0     H75276  11.867   4.694   6.567 -1.5519 -1.3199 -0.2488
  558MOL0     H75277  11.984   4.819   6.828  4.3619  3.5799 -1.9894
  558MOL0     H75278  11.869   4.893   6.723  0.5023  0.1120  2.8366
  558MOL0     H75279  12.069   4.795   6.538  0.6374 -0.5135  1.3737
  558MOL0     H75280  12.057   4.960   6.618 -2.6923 -0.5500  0.2634
  558MOL0     H75281  12.266   5.037   6.759  2.0983  0.4615 -2.3058
  558MOL0     H75282  12.429   5.003   6.971 -1.1822 -1.6684 -0.1569
  558MOL0     H75283  12.508   4.854   6.999  4.1713  2.1284  0.0451
  558MOL0     H75284  12.592   5.017   6.767 -0.3685  1.2087  1.5565
  558MOL0     H75285  12.680   5.004   6.918  1.5309 -1.8139 -0.0933
  558MOL0     H75286  12.607   4.759   6.758  2.5798  0.4140 -2.1046
  558MOL0     H75287  12.704   4.769   6.915 -0.0913  0.5574  1.1550
  558MOL0     H75288  12.780   4.917   6.656 -1.2003 -2.3018 -2.1850
  558MOL0     H75289  12.844   4.759   6.690 -1.6547  0.3238 -0.7072
  558MOL0     H75290  13.071   5.053   6.932  1.8495  0.7809  1.6047
  558MOL0     H75291  13.245   4.968   7.097  1.9976 -2.9023  1.0263
  558MOL0     H75292  13.255   4.418   7.341  0.1280  2.1664 -1.5283
  558MOL0     H75293  13.407   4.265   7.474 -1.6909  2.1725  1.0612
  558MOL0     H75294  13.858   4.264   7.405 -1.8443 -0.0350 -1.4658
  558MOL0     H75295  13.841   4.398   7.522 -0.3765 -0.5359 -3.4392
  558MOL0     H75296  13.834   4.252   7.708  0.6538 -1.1928  0.6414
  558MOL0     H75297  13.844   4.118   7.584 -1.6360  0.6683  0.0953
  558MOL0     H75298  14.058   4.322   7.616 -3.2342  0.6784  0.2874
  558MOL0     H75299  14.084   4.174   7.704  0.4876  1.8189  1.0175
  558MOL0     H75300  14.044   4.177   7.408 -2.0050 -0.2914  1.8428
  558MOL0     H75301  14.082   4.040   7.512 -3.3848 -0.1338 -2.6930
  558MOL0     H75302  14.273   4.163   7.596  0.4055  3.3390  0.8263
  558MOL0     H75303  14.257   4.294   7.489  1.5027 -0.6015  2.6835
  558MOL0     H75304  14.307   4.008   7.394  0.5409  0.2449  0.1487
  558MOL0     H75305  14.280   4.140   7.281  1.0365  1.6249 -0.8365
  558MOL0     H75306  14.505   4.084   7.282  0.2204  2.9783 -2.4567
  558MOL0     H75307  14.520   4.111   7.460  0.2248  2.3973  0.1979
  558MOL0     H75308  14.435   4.324   7.253  1.6469 -0.0330 -0.9324
  558MOL0     H75309  14.485   4.358   7.415 -0.3770  1.2596 -0.9726
  558MOL0     H75310  13.739   4.497   7.318  0.3217  0.2507 -1.9596
  558MOL0     H75311  13.585   4.629   7.190 -2.2884 -1.7391 -3.5963
  558MOL0     H75312  13.090   4.573   7.048 -0.3651  0.5485 -0.5451
  558MOL0     H75313  12.932   4.653   6.863 -2.4113  3.4511 -2.4746
  558MOL0     H75314  11.053   4.463   6.764 -1.1575  0.4520 -1.6265
  558MOL0     H75315  10.822   4.394   6.793 -0.5234 -0.2739 -0.1661
  558MOL0     H75316  10.446   4.430   6.672 -2.0815 -0.5026 -0.9685
  558MOL0     H75317  10.222   4.349   6.638 -3.3059  2.0765  0.3609
  558MOL0     H75318  10.061   4.204   6.704  1.1509  0.5627  0.9222
  558MOL0     H75319   9.974   4.337   6.616 -0.9557  1.4774  1.6017
  558MOL0     H75320   9.867   4.113   6.687  0.0893  1.5886 -3.2473
  558MOL0     H75321   9.767   4.259   6.696 -1.4817 -0.4980  2.3865
  558MOL0     H75322   9.796   4.297   6.931 -0.5631  0.3682 -0.3741
  558MOL0     H75323   9.927   4.190   6.946  0.0610  2.3950 -0.5309
  558MOL0     H75324   9.766   4.004   6.927  0.7490 -1.2181  3.0976
  558MOL0     H75325   9.728   4.121   7.061 -2.3791 -1.2565 -0.3062
  558MOL0     H75326   9.409   4.194   6.800  0.3491  1.1706  0.1609
  558MOL0     H75327  10.089   4.531   7.001  1.7089  2.4777  1.7246
  558MOL0     H75328  10.401   4.714   7.050  1.3384 -0.9798  1.0469
  558MOL0     H75329  10.241   4.770   7.026 -1.8456 -0.1807  1.2775
  558MOL0     H75330  10.270   4.641   7.147 -0.1561  0.3644 -0.1797
  559MOL0     O75331   8.454  11.012   2.424  0.0600 -0.0764 -0.1758
  559MOL0     C75332   8.441  11.085   2.333  0.5191 -0.4427  0.0676
  559MOL0     O75333   8.535  11.181   2.294  0.2956 -0.2815  0.1796
  559MOL0     C75334   8.668  11.178   2.340  0.1246  0.6153  0.4890
  559MOL0     C75335   8.735  11.297   2.324  0.5999 -0.4672 -0.3584
  559MOL0     C75336   8.862  11.318   2.360  0.6043 -0.3223  0.8200
  559MOL0     C75337   8.939  11.205   2.411  0.2418  0.1030  0.2225
  559MOL0     O75338   9.071  11.208   2.437  0.0050  0.2703 -0.3990
  559MOL0     C75339   9.147  11.314   2.369 -0.5394  0.4405 -0.0339
  559MOL0     C75340   9.297  11.286   2.399 -0.5143  1.4734 -0.2157
  559MOL0     C75341   9.368  11.206   2.288 -0.9116 -0.1012 -1.0292
  559MOL0     C75342   9.522  11.201   2.298 -0.2429  0.4344 -0.2517
  559MOL0     C75343   9.573  11.126   2.425 -0.5280  0.2446 -0.3147
  559MOL0     C75344   9.591  10.975   2.388 -0.6235  1.1700  0.9568
  559MOL0     C75345   9.684  10.889   2.485 -0.5023  0.2563  0.0071
  559MOL0     C75346   9.831  10.945   2.504  0.3583  0.0641  0.5450
  559MOL0     N75347   9.919  10.847   2.561 -0.0006  0.7392  0.0661
  559MOL0     C75348   9.884  10.736   2.645 -0.9800 -1.6692  1.1270
  559MOL0     C75349   9.998  10.700   2.695 -0.2055 -0.2488 -0.6525
  559MOL0     C75350  10.010  10.601   2.801 -0.2101 -0.6634  0.7016
  559MOL0     C75351  10.150  10.538   2.811  0.1355 -0.4967 -0.2638
  559MOL0     C75352  10.246  10.641   2.882 -1.0326 -0.6558  0.8272
  559MOL0     C75353  10.393  10.642   2.825 -0.2799  0.7643  0.3674
  559MOL0     O75354  10.427  10.503   2.804  0.0455 -0.1944  0.3440
  559MOL0     C75355  10.552  10.470   2.762 -0.6116 -0.2214 -0.4854
  559MOL0     C75356  10.659  10.563   2.739 -0.8476 -1.0298  0.3754
  559MOL0     C75357  10.782  10.513   2.700 -0.2531 -0.7093  0.6923
  559MOL0     C75358  10.809  10.378   2.700  0.8919  0.1115 -0.4427
  559MOL0     C75359  10.948  10.333   2.665  0.1484  0.0004 -0.8286
  559MOL0     O75360  10.977  10.205   2.700  0.2229  0.6761 -0.6101
  559MOL0     C75361  11.111  10.156   2.687 -0.2947  0.0486  0.3558
  559MOL0     C75362  11.211  10.218   2.766  0.2748 -0.0143  0.2358
  559MOL0     C75363  11.338  10.169   2.772  1.6513 -0.7294  1.0651
  559MOL0     C75364  11.370  10.045   2.716 -0.0459  0.5599  0.0160
  559MOL0     O75365  11.501   9.999   2.719  0.1312  0.1145  0.1365
  559MOL0     C75366  11.535   9.882   2.643 -0.7486  0.2860  0.4426
  559MOL0     C75367  11.687   9.884   2.645 -1.2264 -0.3272  0.2006
  559MOL0     C75368  11.747   9.765   2.567  0.4443  0.7450  0.5526
  559MOL0     C75369  11.893   9.785   2.555 -0.4966 -0.2222 -0.4264
  559MOL0     C75370  11.979   9.678   2.484  0.5851  0.9656  0.1876
  559MOL0     C75371  12.128   9.701   2.500 -0.1857  0.6928 -0.5122
  559MOL0     C75372  12.195   9.580   2.429  0.6537  0.6635 -0.3150
  559MOL0     C75373  12.352   9.585   2.419 -0.3455  0.1946 -0.2722
  559MOL0    Cl75374  12.416   9.533   2.574  0.1773 -0.0901 -0.5083
  559MOL0     C75375  11.269   9.973   2.640 -0.4533 -0.6605 -0.1483
  559MOL0     C75376  11.142  10.034   2.628  0.6430  0.4076  0.1610
  559MOL0     O75377  11.021  10.402   2.600 -0.3887  0.3127 -0.3744
  559MOL0     C75378  10.707  10.285   2.734 -0.9839 -0.9890 -0.4118
  559MOL0     C75379  10.583  10.335   2.772 -0.3368  0.5877 -0.6112
  559MOL0     N75380  10.103  10.770   2.644 -0.6241 -0.4183  0.0254
  559MOL0     N75381  10.052  10.859   2.568  0.2254  0.6783 -0.1778
  559MOL0     C75382   8.876  11.083   2.430 -0.5736 -0.1636  0.9475
  559MOL0     C75383   8.742  11.067   2.394 -0.4903  0.0639 -0.9367
  559MOL0     C75384   8.306  11.091   2.260  0.2662  0.0345  0.2626
  559MOL0     C75385   8.295  11.186   2.161 -0.2336 -0.2817 -0.2054
  559MOL0     C75386   8.179  11.212   2.089  0.2775  0.9273  0.5440
  559MOL0     C75387   8.061  11.143   2.129  0.0761 -0.5642  0.3833
  559MOL0     O75388   7.932  11.175   2.076  0.2902 -0.1810  0.8564
  559MOL0     C75389   7.889  11.304   2.100  0.1317 -0.6338  0.3554
  559MOL0     C75390   7.736  11.312   2.096  0.6596  0.3028  1.2002
  559MOL0     C75391   7.675  11.221   2.195 -0.0354 -0.4297  0.5590
  559MOL0     C75392   7.526  11.222   2.193 -0.2622  0.8237 -0.5313
  559MOL0     C75393   7.469  11.354   2.209  0.9202  1.1978 -0.9983
  559MOL0     C75394   7.399  11.457   2.213 -0.6261  0.5389 -0.9268
  559MOL0     C75395   8.067  11.046   2.232  0.0126  0.7898  0.3761
  559MOL0     C75396   8.191  11.021   2.299 -0.6890 -0.0641 -0.0179
  559MOL0     C75397   8.187  10.910   2.398 -0.1947  0.2870  0.2455
  559MOL0     H75398   8.670  11.377   2.289 -0.6645 -0.8895  0.9151
  559MOL0     H75399   8.891  11.422   2.347 -0.0023 -0.0684  1.3976
  559MOL0     H75400   9.136  11.324   2.261  1.2782  0.4948 -0.2410
  559MOL0     H75401   9.111  11.409   2.411  0.9414  0.4926  1.2275
  559MOL0     H75402   9.321  11.239   2.495  1.0884  1.2005 -0.7224
  559MOL0     H75403   9.344  11.385   2.409 -1.4738  1.9914 -0.6331
  559MOL0     H75404   9.354  11.257   2.192 -1.7561  2.0899  0.1833
  559MOL0     H75405   9.323  11.106   2.285 -1.8660  0.3261 -1.2376
  559MOL0     H75406   9.576  11.163   2.211 -2.3611 -1.2383 -0.9277
  559MOL0     H75407   9.553  11.304   2.318 -3.3247  1.2528  0.9430
  559MOL0     H75408   9.671  11.169   2.448 -0.4491  1.8765 -3.1940
  559MOL0     H75409   9.506  11.134   2.511  1.1950 -3.8449  1.7076
  559MOL0     H75410   9.494  10.932   2.359  0.6230 -0.0574 -1.7820
  559MOL0     H75411   9.647  10.982   2.294  1.6518 -0.1654  2.1368
  559MOL0     H75412   9.686  10.788   2.443  0.2621  1.7141 -3.7976
  559MOL0     H75413   9.637  10.899   2.584  0.5782  2.1579  0.3789
  559MOL0     H75414   9.862  10.971   2.402 -0.5196  0.4747  0.3646
  559MOL0     H75415   9.822  11.042   2.555  0.5617  0.4356 -0.1139
  559MOL0     H75416   9.779  10.714   2.660 -1.6896  1.0658  0.7759
  559MOL0     H75417   9.995  10.659   2.893 -0.6316  2.8350 -1.3816
  559MOL0     H75418   9.930  10.531   2.775  1.5258 -2.4965  0.0903
  559MOL0     H75419  10.149  10.449   2.875 -1.1696 -0.7104 -0.5564
  559MOL0     H75420  10.192  10.504   2.716 -1.6427  0.8097 -1.5733
  559MOL0     H75421  10.252  10.611   2.987 -0.8141  0.3884  1.1224
  559MOL0     H75422  10.201  10.741   2.882 -0.4365 -0.3850  0.8701
  559MOL0     H75423  10.456  10.690   2.901  1.0282 -0.4515  0.0815
  559MOL0     H75424  10.408  10.705   2.737 -0.8288 -0.5427 -0.7001
  559MOL0     H75425  10.648  10.671   2.741 -2.4556 -1.1555 -0.0586
  559MOL0     H75426  10.862  10.586   2.693  0.8235 -1.8878  0.2062
  559MOL0     H75427  11.184  10.313   2.810  0.7998  0.3133 -0.1474
  559MOL0     H75428  11.417  10.231   2.813  2.0432 -0.4256 -0.1085
  559MOL0     H75429  11.503   9.785   2.682  3.5301 -1.9165 -0.8251
  559MOL0     H75430  11.502   9.879   2.539 -0.4630 -2.9164  0.3475
  559MOL0     H75431  11.711   9.982   2.602  3.9503 -1.1440  0.5493
  559MOL0     H75432  11.729   9.889   2.746  0.4139  0.8105 -0.4880
  559MOL0     H75433  11.724   9.668   2.611 -1.0987  0.3807 -0.9079
  559MOL0     H75434  11.710   9.763   2.464  0.0682 -0.0042  0.6953
  559MOL0     H75435  11.934   9.791   2.656 -1.8247 -3.5539  0.4616
  559MOL0     H75436  11.916   9.883   2.513  0.5107  0.6878  2.0658
  559MOL0     H75437  11.957   9.665   2.378 -1.6391 -1.3298  0.8220
  559MOL0     H75438  11.946   9.580   2.520  2.4388 -0.0401 -0.7553
  559MOL0     H75439  12.160   9.797   2.459 -0.0245  0.3967 -1.1022
  559MOL0     H75440  12.161   9.704   2.604  1.1096 -2.7119 -0.6978
  559MOL0     H75441  12.154   9.563   2.329  0.1430  0.7709 -0.1288
  559MOL0     H75442  12.170   9.488   2.482 -1.4776  0.7400 -1.0671
  559MOL0     H75443  12.386   9.511   2.346 -2.9478  0.0529 -1.4326
  559MOL0     H75444  12.390   9.687   2.405  0.3930 -0.1025 -0.5116
  559MOL0     H75445  11.283   9.873   2.599  0.9248  0.9610 -4.1784
  559MOL0     H75446  11.064   9.972   2.585  1.8252  0.1826 -1.7697
  559MOL0     H75447  10.724  10.178   2.728 -0.5050 -0.8850 -1.0434
  559MOL0     H75448  10.505  10.264   2.799  0.8782 -0.2936  0.7355
  559MOL0     H75449   8.928  11.000   2.477  0.2183 -0.9125 -1.1325
  559MOL0     H75450   8.698  10.968   2.406  0.8226 -0.2914  2.0539
  559MOL0     H75451   8.379  11.240   2.120  0.1798 -0.0600  0.9081
  559MOL0     H75452   8.185  11.282   2.006  1.3718  0.3988  0.1644
  559MOL0     H75453   7.933  11.374   2.028  1.2704  1.4640  2.8965
  559MOL0     H75454   7.920  11.347   2.196 -1.7485  2.3475 -0.2446
  559MOL0     H75455   7.700  11.282   1.997  3.8749 -1.2115  0.3672
  559MOL0     H75456   7.718  11.420   2.099  1.1905  0.6357 -2.3990
  559MOL0     H75457   7.720  11.243   2.292 -0.9416  1.7028  0.5505
  559MOL0     H75458   7.709  11.120   2.169 -2.5182 -1.0120 -0.7102
  559MOL0     H75459   7.485  11.181   2.100 -1.0065  0.3309 -0.0011
  559MOL0     H75460   7.491  11.157   2.274 -0.6831  1.4896 -0.1683
  559MOL0     H75461   7.318  11.528   2.214 -0.4056  0.8045 -1.9316
  559MOL0     H75462   7.981  10.980   2.244  0.7288 -0.0220  1.1943
  559MOL0     H75463   8.093  10.854   2.403  1.6053 -3.0213  0.0970
  559MOL0     H75464   8.262  10.833   2.377 -0.6481 -0.1584  0.2363
  559MOL0     H75465   8.204  10.943   2.500 -3.2683 -1.6054  1.5300
  560MOL0     O75466   3.292   3.615   0.357  0.0377 -0.2602  0.8738
  560MOL0     C75467   3.263   3.499   0.390 -0.3592 -0.0931  0.6806
  560MOL0     O75468   3.163   3.431   0.340  0.0827 -0.3848 -0.2495
  560MOL0     C75469   3.103   3.472   0.224  0.9073 -0.4621  0.5106
  560MOL0     C75470   2.967   3.493   0.218 -0.3216  1.1424 -0.4308
  560MOL0     C75471   2.900   3.533   0.107  0.4985  0.3681  0.6079
  560MOL0     C75472   2.973   3.553  -0.015  0.0278 -0.0535 -0.1753
  560MOL0     O75473   2.892   3.607  -0.118 -0.5130 -0.3388  0.1724
  560MOL0     C75474   2.971   3.653  -0.224 -0.2305 -1.2679 -0.1049
  560MOL0     C75475   2.860   3.710  -0.320 -0.4376  0.0298 -0.1739
  560MOL0     C75476   2.924   3.781  -0.430 -0.4066  0.0485 -0.1830
  560MOL0     C75477   2.815   3.860  -0.522 -0.1649 -0.4218 -0.1484
  560MOL0     C75478   2.893   3.945  -0.624 -0.9346 -0.1301  0.2077
  560MOL0     C75479   2.817   3.956  -0.749 -0.0269  0.3592 -0.0972
  560MOL0     C75480   2.697   4.049  -0.723 -0.0853 -0.2296 -0.3365
  560MOL0     C75481   2.593   4.055  -0.842  0.2136 -0.2015 -0.6101
  560MOL0     N75482   2.661   4.087  -0.969  0.1667 -0.2578 -0.6800
  560MOL0     C75483   2.676   4.003  -1.074 -0.0967  0.0477  0.1290
  560MOL0     C75484   2.768   4.057  -1.147 -0.6633  2.3252  0.2696
  560MOL0     C75485   2.819   3.998  -1.280  0.2017  0.0263 -0.0047
  560MOL0     C75486   2.927   3.901  -1.245 -0.2147 -0.6158 -0.1180
  560MOL0     C75487   3.049   3.974  -1.177  0.9439  0.5081 -0.1259
  560MOL0     C75488   3.109   4.084  -1.267 -1.1709 -0.2725 -0.4378
  560MOL0     O75489   3.210   4.144  -1.179  0.2564  0.1615 -0.8505
  560MOL0     C75490   3.339   4.092  -1.178  0.6564  0.3124 -0.5940
  560MOL0     C75491   3.416   4.138  -1.075  0.5902 -0.0414 -0.0882
  560MOL0     C75492   3.540   4.079  -1.046 -0.1227 -0.4698 -0.1394
  560MOL0     C75493   3.597   3.982  -1.124 -0.1597 -0.2740  0.5423
  560MOL0     C75494   3.729   3.920  -1.081 -0.5932 -0.0924 -0.7177
  560MOL0     O75495   3.792   3.862  -1.183 -0.6978 -0.2353  0.0082
  560MOL0     C75496   3.919   3.817  -1.167 -0.8717 -0.7581  0.3207
  560MOL0     C75497   3.965   3.726  -1.265 -0.0119  0.1443 -0.3222
  560MOL0     C75498   4.100   3.675  -1.264  1.0363 -0.6894 -0.3069
  560MOL0     C75499   4.187   3.726  -1.169 -0.2994  0.4220 -0.9984
  560MOL0     O75500   4.312   3.671  -1.177 -0.2813 -0.7205 -0.5681
  560MOL0     C75501   4.371   3.694  -1.303 -0.9608 -0.5783  0.3118
  560MOL0     C75502   4.367   3.851  -1.346  1.1724 -0.4044 -0.6239
  560MOL0     C75503   4.463   3.878  -1.460  0.1340  0.1163 -0.7870
  560MOL0     C75504   4.446   4.003  -1.555 -0.2647  0.9063  0.0088
  560MOL0     C75505   4.468   4.131  -1.476 -0.6099 -0.4524  0.2566
  560MOL0     C75506   4.468   4.256  -1.560  0.9179  0.1273 -0.1321
  560MOL0     C75507   4.493   4.387  -1.499  0.7993 -0.4491  0.2874
  560MOL0     C75508   4.632   4.419  -1.437 -0.4405  0.4257  0.9432
  560MOL0    Cl75509   4.646   4.376  -1.265  0.1918  0.0017  0.0687
  560MOL0     C75510   4.149   3.829  -1.074 -0.0036 -0.5405 -0.0408
  560MOL0     C75511   4.011   3.870  -1.071 -0.4342  0.4174 -0.2150
  560MOL0     O75512   3.760   3.910  -0.965  1.1105 -0.2769  0.5454
  560MOL0     C75513   3.511   3.923  -1.225 -0.0704 -0.8687  0.2317
  560MOL0     C75514   3.380   3.976  -1.251  0.4966 -0.3984 -0.2218
  560MOL0     N75515   2.816   4.172  -1.090 -0.1027  0.5713 -0.4539
  560MOL0     N75516   2.734   4.199  -0.993 -0.4603  0.5159  0.3716
  560MOL0     C75517   3.111   3.540  -0.018 -1.0817 -0.4330  0.2884
  560MOL0     C75518   3.174   3.488   0.097  0.2640  0.2011  1.0649
  560MOL0     C75519   3.351   3.452   0.501  0.0526 -0.6217  0.1776
  560MOL0     C75520   3.408   3.554   0.581 -0.8398 -0.2526 -0.2926
  560MOL0     C75521   3.511   3.527   0.670 -0.9557  0.4486  0.6745
  560MOL0     C75522   3.549   3.393   0.698 -0.3404 -0.0898 -0.7488
  560MOL0     O75523   3.639   3.353   0.797 -0.1445  0.7874  0.3573
  560MOL0     C75524   3.679   3.446   0.894 -1.1653  0.0905  0.1876
  560MOL0     C75525   3.820   3.517   0.863  0.4109  0.2320 -0.1355
  560MOL0     C75526   3.834   3.640   0.951  0.3884 -0.5156  0.0482
  560MOL0     C75527   3.960   3.722   0.911  0.3127  0.6031 -0.0506
  560MOL0     C75528   3.965   3.844   0.990 -0.2139 -0.4115 -0.2641
  560MOL0     C75529   3.965   3.946   1.053 -1.0750 -1.1411  0.4464
  560MOL0     C75530   3.469   3.294   0.633 -0.3248 -0.3391 -0.1579
  560MOL0     C75531   3.366   3.320   0.539 -0.5306  0.5725  0.5123
  560MOL0     C75532   3.292   3.210   0.482  0.5753  0.2609  0.2872
  560MOL0     H75533   2.914   3.464   0.308 -1.7084 -0.8904 -1.8219
  560MOL0     H75534   2.793   3.553   0.113  0.6338  1.2257  0.3650
  560MOL0     H75535   3.034   3.737  -0.191 -1.3014  0.1284 -1.4727
  560MOL0     H75536   3.024   3.570  -0.272 -0.2826 -0.6927 -1.1953
  560MOL0     H75537   2.797   3.778  -0.262  0.0062 -0.7959  1.3207
  560MOL0     H75538   2.791   3.630  -0.351 -1.2073 -0.2452  2.0657
  560MOL0     H75539   2.985   3.722  -0.499 -1.9821 -0.2256 -1.3907
  560MOL0     H75540   2.978   3.859  -0.375 -2.1561  1.8893 -0.9280
  560MOL0     H75541   2.752   3.793  -0.581 -1.9692  0.2698  0.9145
  560MOL0     H75542   2.737   3.921  -0.474 -0.3283 -0.5766 -0.2139
  560MOL0     H75543   2.911   4.039  -0.572  2.3306 -0.4512 -0.1147
  560MOL0     H75544   2.992   3.903  -0.644 -1.3771 -1.1659  0.1063
  560MOL0     H75545   2.884   4.001  -0.822  0.5326  1.8456  1.2603
  560MOL0     H75546   2.804   3.851  -0.777  2.4813 -0.5862  1.8394
  560MOL0     H75547   2.733   4.149  -0.695 -0.5420 -1.2877  5.0551
  560MOL0     H75548   2.637   4.016  -0.638 -0.0592  0.0718 -0.1985
  560MOL0     H75549   2.539   3.961  -0.854 -1.8748  0.7105  1.0320
  560MOL0     H75550   2.512   4.123  -0.815  1.0183  0.2530  0.8012
  560MOL0     H75551   2.624   3.909  -1.091  1.2187 -0.3358 -2.0440
  560MOL0     H75552   2.737   3.940  -1.322 -0.3918 -0.9182  2.3031
  560MOL0     H75553   2.847   4.078  -1.350  1.4453 -0.6378 -0.2870
  560MOL0     H75554   2.883   3.832  -1.172  2.2914  0.1231  2.2549
  560MOL0     H75555   2.961   3.850  -1.335 -1.9553  2.4119 -2.6986
  560MOL0     H75556   3.114   3.890  -1.150 -0.9409 -0.9459  0.0860
  560MOL0     H75557   3.019   4.023  -1.084  0.7043  2.7368 -1.3206
  560MOL0     H75558   3.042   4.168  -1.289 -0.7458  0.5277  1.1412
  560MOL0     H75559   3.158   4.050  -1.359  1.0987 -2.1173  1.3284
  560MOL0     H75560   3.374   4.220  -1.017  0.3422  0.8458 -1.4671
  560MOL0     H75561   3.592   4.108  -0.955  0.9646 -2.5734 -0.0189
  560MOL0     H75562   3.887   3.697  -1.335 -0.3745  0.3661 -0.0168
  560MOL0     H75563   4.135   3.589  -1.321  1.9046 -0.6654  0.1607
  560MOL0     H75564   4.478   3.679  -1.288  0.2649  3.8255 -2.0774
  560MOL0     H75565   4.346   3.628  -1.387  4.0918  0.7492 -2.6713
  560MOL0     H75566   4.267   3.871  -1.385  0.3874 -0.2649  1.3495
  560MOL0     H75567   4.394   3.904  -1.254  0.0200 -3.4910  1.6627
  560MOL0     H75568   4.567   3.871  -1.428 -0.0418  0.3568 -0.1488
  560MOL0     H75569   4.449   3.801  -1.536 -1.6795 -0.1371 -0.2565
  560MOL0     H75570   4.352   3.997  -1.610 -1.2680  2.7980  1.3987
  560MOL0     H75571   4.520   3.996  -1.635  0.1753 -0.0431  0.4719
  560MOL0     H75572   4.565   4.120  -1.426  0.1896  0.4216 -1.0339
  560MOL0     H75573   4.388   4.146  -1.403 -0.7668  2.5923 -0.4033
  560MOL0     H75574   4.537   4.246  -1.644 -2.1670  1.1105 -2.9966
  560MOL0     H75575   4.374   4.268  -1.615  0.2348 -1.1696  0.6998
  560MOL0     H75576   4.412   4.417  -1.432 -0.2197  0.8872 -1.4530
  560MOL0     H75577   4.482   4.461  -1.578  0.5502  0.7722  1.4205
  560MOL0     H75578   4.706   4.365  -1.496 -1.0212  0.8405 -0.1837
  560MOL0     H75579   4.661   4.524  -1.438 -1.7405  0.8675 -2.2271
  560MOL0     H75580   4.226   3.857  -1.002 -1.8916  2.4028  1.0076
  560MOL0     H75581   3.985   3.949  -1.002  3.0591  1.9818 -0.4461
  560MOL0     H75582   3.545   3.841  -1.286 -3.8340 -2.5352  0.0708
  560MOL0     H75583   3.316   3.932  -1.328  0.0722 -0.0349 -0.0851
  560MOL0     H75584   3.175   3.551  -0.104 -1.7069  0.7424 -0.0431
  560MOL0     H75585   3.281   3.481   0.087  0.4844  3.0899  0.3071
  560MOL0     H75586   3.383   3.658   0.564 -2.5528 -0.4896  0.5771
  560MOL0     H75587   3.561   3.609   0.720  2.4817 -0.2767 -1.2901
  560MOL0     H75588   3.693   3.403   0.994 -1.8824  1.4550  0.9120
  560MOL0     H75589   3.600   3.516   0.921 -1.4154 -0.5431  1.1779
  560MOL0     H75590   3.820   3.556   0.761 -1.5174 -1.1308 -0.7074
  560MOL0     H75591   3.904   3.449   0.881  0.3588 -0.8859 -3.3308
  560MOL0     H75592   3.842   3.624   1.059 -2.8259 -0.3379  0.4055
  560MOL0     H75593   3.740   3.695   0.937  1.2517  0.8645 -0.5158
  560MOL0     H75594   4.049   3.663   0.934  0.5982  0.7197 -0.8457
  560MOL0     H75595   3.978   3.744   0.806  1.8307  1.4837  0.3665
  560MOL0     H75596   3.968   4.044   1.097  0.3236 -0.0954 -1.7675
  560MOL0     H75597   3.468   3.196   0.680  0.1068 -0.0603  0.4566
  560MOL0     H75598   3.184   3.221   0.495  0.3115  1.6267 -2.3886
  560MOL0     H75599   3.309   3.196   0.374 -0.0870  0.6181  0.1322
  560MOL0     H75600   3.315   3.111   0.524 -0.8848 -0.4780 -0.5455
  561MOL0     O75601  10.673   2.449   5.418  0.3594  0.5716 -0.8571
  561MOL0     C75602  10.587   2.534   5.421 -0.2628 -0.2403  0.4171
  561MOL0     O75603  10.606   2.653   5.488  0.2523 -0.5397 -0.0115
  561MOL0     C75604  10.731   2.707   5.496  0.4811 -0.4983 -0.2443
  561MOL0     C75605  10.816   2.754   5.388  0.4965  0.9705 -0.6528
  561MOL0     C75606  10.951   2.784   5.406 -0.2024 -0.1006 -0.9798
  561MOL0     C75607  10.997   2.804   5.538 -0.2920 -0.4944  0.4310
  561MOL0     O75608  11.110   2.868   5.578 -0.7615  0.6574 -0.2562
  561MOL0     C75609  11.214   2.884   5.481  0.0715  0.1400 -0.0013
  561MOL0     C75610  11.348   2.937   5.537  0.5619  0.8422 -0.5607
  561MOL0     C75611  11.390   2.861   5.667  0.7398  0.2406  0.1696
  561MOL0     C75612  11.464   2.724   5.636 -0.2097  0.8020  0.4494
  561MOL0     C75613  11.619   2.731   5.669 -0.2481 -0.0455 -0.3869
  561MOL0     C75614  11.644   2.716   5.821 -0.0556 -0.3706  0.5425
  561MOL0     C75615  11.780   2.687   5.870 -0.2352  0.4679  0.4220
  561MOL0     C75616  11.792   2.623   6.011 -0.0643 -0.8125 -0.1643
  561MOL0     N75617  11.924   2.563   6.046  0.2479 -0.3434  0.9185
  561MOL0     C75618  11.948   2.468   6.135  0.6731 -0.2202  0.1462
  561MOL0     C75619  12.083   2.446   6.136 -0.0456 -0.3489  0.3731
  561MOL0     C75620  12.153   2.358   6.223  0.1276  0.1845 -0.1734
  561MOL0     C75621  12.301   2.375   6.220  0.0970 -0.4343  0.2632
  561MOL0     C75622  12.372   2.269   6.310 -0.2641 -0.6975  0.6250
  561MOL0     C75623  12.366   2.126   6.257  0.4854 -0.7974  0.3428
  561MOL0     O75624  12.475   2.055   6.322 -0.0158 -0.0103 -0.0923
  561MOL0     C75625  12.586   2.027   6.251 -0.0104  0.1514  0.8298
  561MOL0     C75626  12.645   2.110   6.159 -0.2028  0.6269  0.5526
  561MOL0     C75627  12.757   2.070   6.090  0.2966  0.1142  0.5550
  561MOL0     C75628  12.813   1.943   6.111 -0.1127  0.4872 -0.0548
  561MOL0     C75629  12.915   1.896   6.012  0.1927 -0.3305 -0.9439
  561MOL0     O75630  12.966   1.776   6.040 -0.1138  0.3936 -0.1777
  561MOL0     C75631  13.073   1.726   5.974  0.9338 -0.4908 -0.7461
  561MOL0     C75632  13.074   1.584   5.974 -0.5685  0.4295  0.1950
  561MOL0     C75633  13.187   1.512   5.940  0.5526  0.3262  0.3381
  561MOL0     C75634  13.298   1.583   5.888 -0.2452 -0.1399 -0.4361
  561MOL0     O75635  13.410   1.515   5.847  0.2423  0.1666 -0.9151
  561MOL0     C75636  13.536   1.583   5.887 -0.1285  1.0830 -0.6905
  561MOL0     C75637  13.651   1.488   5.858 -0.8341 -0.3583  0.0756
  561MOL0     C75638  13.713   1.441   5.983  0.4612 -0.2601  0.0942
  561MOL0     C75639  13.836   1.358   5.954 -0.6343  0.1471 -0.1523
  561MOL0     C75640  13.816   1.212   5.923 -0.2205  0.6564  0.1145
  561MOL0     C75641  13.950   1.134   5.914  0.1756 -0.9276  0.2176
  561MOL0     C75642  14.004   1.114   6.058 -0.2378  0.1514 -0.2952
  561MOL0     C75643  14.103   0.989   6.056  0.6032 -0.5979  0.6951
  561MOL0    Cl75644  14.166   0.933   6.218  0.1873  0.0564 -0.3941
  561MOL0     C75645  13.281   1.724   5.864 -0.6732 -0.2314 -0.3654
  561MOL0     C75646  13.173   1.792   5.911 -0.0857 -0.1883 -0.3953
  561MOL0     O75647  12.943   1.968   5.915 -0.1979 -0.5921 -0.5251
  561MOL0     C75648  12.776   1.871   6.222  0.4162  0.2523 -1.2560
  561MOL0     C75649  12.659   1.909   6.286  0.5292 -0.5892 -0.3552
  561MOL0     N75650  12.136   2.527   6.040 -0.0236 -0.6709  0.8531
  561MOL0     N75651  12.038   2.595   5.975 -0.3627 -0.8596  0.5192
  561MOL0     C75652  10.919   2.753   5.646  0.0310 -0.2052  0.8824
  561MOL0     C75653  10.787   2.702   5.625 -0.6773  0.6333  0.1316
  561MOL0     C75654  10.457   2.514   5.356 -0.5214  0.8273 -0.3152
  561MOL0     C75655  10.371   2.627   5.347 -1.3840 -0.7268 -1.2006
  561MOL0     C75656  10.246   2.625   5.284 -0.5374  0.4545 -0.2970
  561MOL0     C75657  10.204   2.509   5.219 -0.6703 -0.4961 -0.2217
  561MOL0     O75658  10.096   2.523   5.139  1.0133 -1.3927 -0.3975
  561MOL0     C75659  10.036   2.408   5.079 -0.3895  0.7773 -0.2188
  561MOL0     C75660   9.960   2.313   5.179  0.0818  0.3236 -0.2084
  561MOL0     C75661   9.887   2.200   5.102 -0.0471 -0.2475  0.1530
  561MOL0     C75662   9.977   2.077   5.082  0.2134  0.0355  0.0753
  561MOL0     C75663  10.070   2.023   5.190  0.9538 -0.2942  0.4537
  561MOL0     C75664  10.156   1.967   5.255  0.2554 -0.3637 -1.3318
  561MOL0     C75665  10.280   2.393   5.228 -0.0838 -0.7102 -0.3139
  561MOL0     C75666  10.405   2.394   5.298 -0.3265  0.1003  0.0193
  561MOL0     C75667  10.480   2.261   5.324  0.6591 -0.8901 -0.2803
  561MOL0     H75668  10.780   2.729   5.288  1.3189 -0.0840 -0.7000
  561MOL0     H75669  11.009   2.815   5.320  0.9703 -0.3830 -0.3105
  561MOL0     H75670  11.234   2.790   5.429  4.9620  0.8275  0.1375
  561MOL0     H75671  11.173   2.963   5.417  0.6591  0.4874  0.0389
  561MOL0     H75672  11.327   3.042   5.559  0.3455  0.8287 -0.6990
  561MOL0     H75673  11.429   2.939   5.463  1.1456  0.0778  0.0478
  561MOL0     H75674  11.300   2.843   5.726  1.0611  3.3522  1.7926
  561MOL0     H75675  11.455   2.928   5.724  0.7110  1.1542 -0.8303
  561MOL0     H75676  11.418   2.637   5.684  0.8224 -0.0355 -0.0226
  561MOL0     H75677  11.449   2.700   5.531  2.4930 -0.4685  0.2605
  561MOL0     H75678  11.675   2.652   5.618  1.2251  0.4047  0.4860
  561MOL0     H75679  11.655   2.832   5.647  1.1168 -0.0843  1.4298
  561MOL0     H75680  11.597   2.794   5.881 -1.1834 -0.0136 -0.7701
  561MOL0     H75681  11.588   2.624   5.840 -1.1832  0.0676 -0.5120
  561MOL0     H75682  11.840   2.779   5.859 -1.9723  1.3704 -2.5014
  561MOL0     H75683  11.819   2.610   5.804  1.2248  0.5080  1.1809
  561MOL0     H75684  11.771   2.705   6.080 -1.6679 -1.6982  0.4623
  561MOL0     H75685  11.716   2.544   6.021 -0.0879 -0.8923 -0.8867
  561MOL0     H75686  11.875   2.404   6.183  0.9623 -0.2055  0.6078
  561MOL0     H75687  12.111   2.396   6.317 -1.1649  1.3490 -1.1880
  561MOL0     H75688  12.117   2.256   6.206 -0.8805  0.4863  0.1114
  561MOL0     H75689  12.332   2.356   6.117  1.1951  1.0750  0.2902
  561MOL0     H75690  12.328   2.476   6.252 -0.8151 -0.6903  1.9401
  561MOL0     H75691  12.323   2.269   6.408 -2.1660 -0.5992 -0.2710
  561MOL0     H75692  12.468   2.320   6.312 -1.9659  2.9083 -0.0077
  561MOL0     H75693  12.378   2.125   6.148 -0.6596 -0.3732  0.2019
  561MOL0     H75694  12.264   2.094   6.278  0.1720  0.3358  0.5608
  561MOL0     H75695  12.597   2.204   6.133  0.3192  0.4355 -1.3036
  561MOL0     H75696  12.792   2.132   6.008 -1.7360 -1.2786 -1.4739
  561MOL0     H75697  12.989   1.528   6.011 -0.5400 -0.6181 -1.2515
  561MOL0     H75698  13.201   1.405   5.952  1.0912  0.1307 -1.5909
  561MOL0     H75699  13.547   1.663   5.813 -0.3056  0.0705 -1.8371
  561MOL0     H75700  13.548   1.618   5.990 -0.2537  1.6878 -0.8734
  561MOL0     H75701  13.616   1.397   5.808  1.1890 -1.4375  0.5093
  561MOL0     H75702  13.734   1.527   5.799  0.1023  1.3349  2.3603
  561MOL0     H75703  13.744   1.534   6.032 -1.3896  1.7139 -2.2190
  561MOL0     H75704  13.638   1.381   6.035 -0.0338  1.5991  1.6599
  561MOL0     H75705  13.891   1.362   6.049 -0.6380 -0.2782 -0.1270
  561MOL0     H75706  13.900   1.407   5.880  0.8056  2.6816  2.5782
  561MOL0     H75707  13.762   1.200   5.829  1.3776 -1.1865 -0.6379
  561MOL0     H75708  13.757   1.167   6.004 -0.2837 -0.6263 -0.6186
  561MOL0     H75709  13.927   1.041   5.860 -1.8708 -0.4176  0.1284
  561MOL0     H75710  14.023   1.186   5.851 -0.9064 -1.2861 -1.3873
  561MOL0     H75711  13.921   1.106   6.129  0.2054  1.3771  0.4015
  561MOL0     H75712  14.066   1.201   6.085 -0.3272 -0.2441  1.2781
  561MOL0     H75713  14.050   0.900   6.018 -3.4444  1.2492  1.4773
  561MOL0     H75714  14.187   0.995   5.987  0.0256 -0.8585 -0.0511
  561MOL0     H75715  13.372   1.773   5.830  1.1004 -2.2290  1.1939
  561MOL0     H75716  13.184   1.900   5.908  2.5615 -0.4148 -1.9843
  561MOL0     H75717  12.820   1.776   6.249 -0.8827  0.4280  1.9793
  561MOL0     H75718  12.604   1.849   6.359 -5.6496  2.4791 -1.7583
  561MOL0     H75719  10.964   2.759   5.744  0.3020  2.0848  0.6684
  561MOL0     H75720  10.715   2.657   5.692 -2.3191 -1.3806 -2.7641
  561MOL0     H75721  10.410   2.719   5.388 -0.1547 -1.8091  0.1850
  561MOL0     H75722  10.181   2.712   5.284 -0.3030  0.6343  0.6889
  561MOL0     H75723  10.114   2.349   5.029 -2.0304 -1.1800 -0.5781
  561MOL0     H75724   9.970   2.438   4.997 -0.7604  0.6758  0.0419
  561MOL0     H75725   9.885   2.372   5.232 -0.1761  0.7751 -1.0467
  561MOL0     H75726  10.026   2.280   5.259 -2.2666 -1.3445  1.1432
  561MOL0     H75727   9.849   2.226   5.003  2.0093 -1.1967 -0.9481
  561MOL0     H75728   9.810   2.169   5.174  0.5930  0.9339  1.4077
  561MOL0     H75729   9.915   1.998   5.040  2.5615 -1.3239 -1.0018
  561MOL0     H75730  10.039   2.099   4.995 -2.4328  0.6661 -1.7871
  561MOL0     H75731  10.233   1.932   5.320  1.1439  1.2154 -1.4786
  561MOL0     H75732  10.247   2.300   5.185 -0.4827  1.0393 -4.2293
  561MOL0     H75733  10.490   2.234   5.429 -0.2313 -1.0809 -0.2356
  561MOL0     H75734  10.420   2.179   5.283 -1.3014  1.1552 -1.7759
  561MOL0     H75735  10.579   2.272   5.278  0.5629 -0.8819 -0.4871
  562MOL0     O75736   1.475  10.292   9.926 -0.1667  0.3715  0.0231
  562MOL0     C75737   1.479  10.250   9.818  0.4331 -0.5284  0.3610
  562MOL0     O75738   1.595  10.257   9.740  0.4076  0.3538 -0.7091
  562MOL0     C75739   1.718  10.275   9.798 -0.1809 -0.2287 -0.4583
  562MOL0     C75740   1.795  10.164   9.837  0.0605 -0.3508  0.7058
  562MOL0     C75741   1.922  10.192   9.883  0.5429  0.5684 -0.0733
  562MOL0     C75742   1.962  10.319   9.926  0.3745  0.4835 -0.1207
  562MOL0     O75743   2.078  10.359   9.986  0.0242  0.3849  0.2679
  562MOL0     C75744   2.182  10.266  10.019 -0.2658  0.7570  0.4554
  562MOL0     C75745   2.193  10.283  10.174 -0.3165 -0.0270  0.4958
  562MOL0     C75746   2.315  10.200  10.234  0.1464 -1.0146 -0.6753
  562MOL0     C75747   2.311  10.231  10.386  0.3475 -0.3494  0.3033
  562MOL0     C75748   2.361  10.370  10.428 -0.1656 -0.5984 -0.1991
  562MOL0     C75749   2.501  10.428  10.394  0.1831 -0.0973  0.4084
  562MOL0     C75750   2.614  10.330  10.441 -0.7538  0.4021 -0.1608
  562MOL0     C75751   2.754  10.391  10.432  0.1292 -0.3951 -0.1023
  562MOL0     N75752   2.843  10.304  10.516 -0.0746 -0.2290  0.5647
  562MOL0     C75753   2.928  10.213  10.471 -0.6031 -0.4827  0.1970
  562MOL0     C75754   2.964  10.150  10.577  0.2216  0.7597  0.8409
  562MOL0     C75755   3.058  10.031  10.578 -0.3611  0.2385  0.3382
  562MOL0     C75756   3.203  10.077  10.585  0.2798 -0.2973 -0.0302
  562MOL0     C75757   3.293   9.951  10.579 -0.0042  0.1712  0.0527
  562MOL0     C75758   3.438   9.967  10.574 -0.3798 -0.8415  0.0779
  562MOL0     O75759   3.507   9.843  10.579  0.0599 -0.5506  0.5560
  562MOL0     C75760   3.640   9.854  10.535 -0.0932  0.0110 -0.2070
  562MOL0     C75761   3.735   9.942  10.589 -0.7359 -0.0338 -0.3525
  562MOL0     C75762   3.865   9.946  10.522  0.2328  0.0195  0.4323
  562MOL0     C75763   3.891   9.872  10.400 -0.3797  0.2418  0.0661
  562MOL0     C75764   4.025   9.890  10.338  0.7061 -0.1869 -0.4715
  562MOL0     O75765   4.057   9.795  10.247 -0.4534  0.4526 -0.0665
  562MOL0     C75766   4.186   9.805  10.197 -0.0437  0.3901 -0.3777
  562MOL0     C75767   4.201   9.842  10.059 -0.1283 -0.5716  0.3019
  562MOL0     C75768   4.328   9.849   9.998 -0.0070 -0.0427 -0.3825
  562MOL0     C75769   4.447   9.825  10.070  0.7170  0.1645 -0.0317
  562MOL0     O75770   4.564   9.828   9.993  0.1198 -0.3336  0.6188
  562MOL0     C75771   4.663   9.734  10.023 -0.1513 -0.2719  0.7158
  562MOL0     C75772   4.787   9.814  10.067  0.2484  0.4527  0.1074
  562MOL0     C75773   4.862   9.903   9.966  0.1265 -0.6417 -0.7404
  562MOL0     C75774   4.965   9.984  10.058 -0.1562 -0.6042 -0.1474
  562MOL0     C75775   5.043  10.079   9.977  0.4796 -0.2030  0.6984
  562MOL0     C75776   5.154  10.020   9.890  0.2688  0.4349 -0.8786
  562MOL0     C75777   5.285   9.992   9.969  0.1750 -0.5376  0.8114
  562MOL0     C75778   5.398   9.958   9.877 -0.7891  0.3515  0.0386
  562MOL0    Cl75779   5.353   9.814   9.773  0.3236 -0.1715 -0.2597
  562MOL0     C75780   4.433   9.799  10.207 -0.1148  0.7747 -0.3935
  562MOL0     C75781   4.309   9.786  10.262 -0.1593  0.4944  0.2766
  562MOL0     O75782   4.099   9.967  10.391 -0.5557 -0.5127 -0.3913
  562MOL0     C75783   3.779   9.808  10.346  0.3337  0.1991  0.4254
  562MOL0     C75784   3.661   9.793  10.419 -0.9808 -1.0956  0.6755
  562MOL0     N75785   2.893  10.188  10.689  0.1093 -0.0009 -0.4914
  562MOL0     N75786   2.831  10.299  10.654 -0.7884 -0.5356  0.3251
  562MOL0     C75787   1.880  10.427   9.894  0.1871  0.0600 -0.1150
  562MOL0     C75788   1.756  10.409   9.832  0.9664  0.1649 -0.3139
  562MOL0     C75789   1.362  10.173   9.781  0.9053  0.3412 -0.3198
  562MOL0     C75790   1.247  10.207   9.856 -0.0640  0.3542 -0.3261
  562MOL0     C75791   1.127  10.145   9.816 -0.1918  0.6693 -0.6086
  562MOL0     C75792   1.125  10.032   9.731  0.0763  0.2945  0.0122
  562MOL0     O75793   1.019   9.941   9.718  0.0109 -0.2802  0.3802
  562MOL0     C75794   0.895   9.950   9.792 -0.9054 -0.5590 -0.2777
  562MOL0     C75795   0.785   9.856   9.730 -0.2657  0.0934 -0.4845
  562MOL0     C75796   0.741   9.893   9.589 -0.0382  0.2845 -0.0992
  562MOL0     C75797   0.606   9.830   9.543  0.2551  0.2695 -0.2317
  562MOL0     C75798   0.485   9.900   9.583 -0.1541 -0.3946  0.2176
  562MOL0     C75799   0.392   9.967   9.611  0.0157  0.2887  0.0772
  562MOL0     C75800   1.239  10.005   9.665 -0.1205  0.4579 -1.1116
  562MOL0     C75801   1.358  10.074   9.677 -0.8927  0.7387 -0.1142
  562MOL0     C75802   1.474  10.032   9.587 -0.7032 -0.6891  0.2950
  562MOL0     H75803   1.769  10.058   9.829 -0.2615 -0.3715  1.9276
  562MOL0     H75804   1.988  10.106   9.889  0.5521  0.4692 -1.3878
  562MOL0     H75805   2.168  10.160   9.999 -0.7583  0.9342 -0.1474
  562MOL0     H75806   2.272  10.303   9.968  0.3913 -0.8105  0.4237
  562MOL0     H75807   2.096  10.261  10.218 -0.6358  0.4412  0.0353
  562MOL0     H75808   2.214  10.390  10.183 -0.6343  0.1509 -0.6468
  562MOL0     H75809   2.412  10.237  10.200  1.2662  0.9423  3.9662
  562MOL0     H75810   2.302  10.094  10.208 -1.0473 -0.5483 -2.1766
  562MOL0     H75811   2.207  10.215  10.416 -0.0479 -2.0240 -1.7306
  562MOL0     H75812   2.383  10.163  10.431  1.5330  1.8606  1.9329
  562MOL0     H75813   2.295  10.451  10.398  0.6217  0.9503  2.0140
  562MOL0     H75814   2.350  10.365  10.537 -1.9949  0.1423 -0.3252
  562MOL0     H75815   2.505  10.445  10.286  0.9384 -0.7812  0.3213
  562MOL0     H75816   2.507  10.524  10.447 -5.5780  0.0155  1.4968
  562MOL0     H75817   2.612  10.237  10.385 -1.7719  1.0142 -1.1804
  562MOL0     H75818   2.595  10.313  10.548 -0.1306 -2.3644 -0.4270
  562MOL0     H75819   2.805  10.388  10.335  2.4456 -1.5528  1.0581
  562MOL0     H75820   2.742  10.490  10.476 -1.3869  1.1710 -3.5999
  562MOL0     H75821   2.967  10.190  10.372  3.1064  1.6904  0.9908
  562MOL0     H75822   3.041   9.955  10.654  2.7924 -0.2461  0.7122
  562MOL0     H75823   3.051   9.971  10.487  0.5937 -0.2505  0.5749
  562MOL0     H75824   3.227  10.138  10.498  1.3390 -2.0297 -1.0009
  562MOL0     H75825   3.211  10.129  10.681 -1.7580  0.2004 -0.0765
  562MOL0     H75826   3.276   9.895  10.486  0.3701 -1.5098  0.9530
  562MOL0     H75827   3.267   9.876  10.654  0.8811 -1.6077 -1.3303
  562MOL0     H75828   3.473  10.023  10.662  1.7786 -1.8025 -0.1045
  562MOL0     H75829   3.459  10.037  10.492  2.3884 -0.7810  0.7354
  562MOL0     H75830   3.697   9.984  10.681 -1.6363  0.9772 -1.1577
  562MOL0     H75831   3.938  10.009  10.571  2.4837 -2.6408  0.7530
  562MOL0     H75832   4.114   9.867  10.000  0.3402  2.1156  0.6373
  562MOL0     H75833   4.331   9.885   9.896 -1.4057  1.3356  0.0251
  562MOL0     H75834   4.644   9.665  10.106  0.1068 -1.4457 -0.1742
  562MOL0     H75835   4.679   9.666   9.938  2.4878 -1.2880  1.9114
  562MOL0     H75836   4.774   9.866  10.163  1.8456  0.3517  0.3977
  562MOL0     H75837   4.859   9.735  10.086 -0.4062 -0.8617 -2.4264
  562MOL0     H75838   4.915   9.835   9.899 -0.1400 -2.5667  0.9123
  562MOL0     H75839   4.790   9.972   9.921 -0.2396 -1.6453 -1.7458
  562MOL0     H75840   5.035   9.920  10.111  1.0913  0.7631 -0.0680
  562MOL0     H75841   4.910  10.041  10.134  1.0630  0.7629 -0.2285
  562MOL0     H75842   5.093  10.156  10.037 -1.1400  1.6147 -0.1537
  562MOL0     H75843   4.975  10.124   9.904  2.2209  1.5900  0.0728
  562MOL0     H75844   5.126   9.927   9.840 -1.3204  0.5945 -0.3443
  562MOL0     H75845   5.177  10.092   9.811 -1.9418  1.8071 -0.3399
  562MOL0     H75846   5.265   9.899  10.022  0.2588 -2.4056 -2.2269
  562MOL0     H75847   5.315  10.074  10.036 -0.8615  0.5015  0.0428
  562MOL0     H75848   5.402  10.039   9.804 -2.2412 -0.6584 -1.2444
  562MOL0     H75849   5.488   9.943   9.937 -1.6788 -1.8393  0.9688
  562MOL0     H75850   4.517   9.779  10.274 -2.1477  1.8497  2.7176
  562MOL0     H75851   4.314   9.786  10.371  1.4048  0.5652  0.2237
  562MOL0     H75852   3.798   9.772  10.246 -0.8765 -2.2535  1.0011
  562MOL0     H75853   3.579   9.731  10.382 -1.5292  0.5602 -1.0599
  562MOL0     H75854   1.912  10.527   9.920 -1.2372  0.7507 -0.9189
  562MOL0     H75855   1.702  10.502   9.819  2.4646  0.7727 -2.9670
  562MOL0     H75856   1.247  10.285   9.932  3.1198  0.5726 -0.4213
  562MOL0     H75857   1.038  10.185   9.864 -0.7428 -1.6324  0.4383
  562MOL0     H75858   0.855  10.051   9.776 -0.8242 -0.1428  1.8445
  562MOL0     H75859   0.908   9.932   9.899  1.2282  1.1200 -0.1688
  562MOL0     H75860   0.698   9.866   9.795  1.0026 -2.2822  1.7683
  562MOL0     H75861   0.819   9.753   9.738 -1.6335 -0.3824 -0.5578
  562MOL0     H75862   0.808   9.867   9.507 -3.0619 -1.8521 -2.1116
  562MOL0     H75863   0.748  10.001   9.605 -0.2303  0.7092 -2.5735
  562MOL0     H75864   0.597   9.824   9.435 -0.0762 -0.5159 -0.1682
  562MOL0     H75865   0.602   9.728   9.582  0.1979  0.2410 -0.3135
  562MOL0     H75866   0.301  10.020   9.630 -0.9875 -1.5772  0.8238
  562MOL0     H75867   1.226   9.913   9.609 -0.3828  1.1022 -2.1214
  562MOL0     H75868   1.543   9.964   9.637 -1.6626 -2.4261 -0.6194
  562MOL0     H75869   1.440   9.979   9.497  5.2518 -0.7459 -2.3636
  562MOL0     H75870   1.538  10.115   9.557  0.9537 -1.5449  1.3158
  563MOL0     O75871   2.386   8.645   0.265 -0.2090 -0.1249  0.2078
  563MOL0     C75872   2.502   8.682   0.255  0.2284  0.3611  0.0153
  563MOL0     O75873   2.598   8.629   0.169 -0.0612  0.0767 -0.5026
  563MOL0     C75874   2.568   8.539   0.066 -0.3468 -0.4123 -0.1197
  563MOL0     C75875   2.448   8.534  -0.006 -0.1649  0.3185  0.4135
  563MOL0     C75876   2.434   8.430  -0.099  0.3262 -0.2005 -0.0222
  563MOL0     C75877   2.539   8.343  -0.131 -0.4167  0.2586 -0.8164
  563MOL0     O75878   2.515   8.239  -0.223 -0.3385  0.1720 -0.3549
  563MOL0     C75879   2.616   8.183  -0.299 -0.3300  1.1743 -0.0881
  563MOL0     C75880   2.554   8.089  -0.409 -0.4247 -0.0491 -0.0976
  563MOL0     C75881   2.664   8.008  -0.478 -0.1328  0.7165  0.5865
  563MOL0     C75882   2.759   8.097  -0.550  0.1183  0.0538 -0.7060
  563MOL0     C75883   2.840   8.017  -0.655 -0.0389  0.5785 -0.2696
  563MOL0     C75884   2.925   8.101  -0.749 -0.5058  0.3782  0.2337
  563MOL0     C75885   2.845   8.183  -0.851 -0.1249 -0.8122  0.3303
  563MOL0     C75886   2.935   8.183  -0.988 -0.2024  0.3136  0.4400
  563MOL0     N75887   3.050   8.268  -0.978  0.2810 -0.4480  0.9306
  563MOL0     C75888   3.177   8.236  -0.938 -0.1810 -0.7226  0.5689
  563MOL0     C75889   3.256   8.330  -0.985  0.3350 -0.4101 -1.1766
  563MOL0     C75890   3.404   8.357  -0.959  0.1384 -0.6862 -0.2103
  563MOL0     C75891   3.440   8.429  -0.827  0.3972 -0.5596  0.5345
  563MOL0     C75892   3.592   8.413  -0.789  0.5187 -0.0507  0.2809
  563MOL0     C75893   3.690   8.476  -0.891 -0.6521  0.5046 -1.4299
  563MOL0     O75894   3.739   8.376  -0.982 -0.0554  0.3319 -0.0561
  563MOL0     C75895   3.869   8.379  -1.024 -0.3264  0.3689 -0.1985
  563MOL0     C75896   3.956   8.493  -1.014  0.0449 -0.4773 -0.2687
  563MOL0     C75897   4.082   8.501  -1.066  0.3683  0.1442 -0.3075
  563MOL0     C75898   4.136   8.380  -1.116 -0.5859 -0.2994  0.2429
  563MOL0     C75899   4.268   8.372  -1.188 -0.2819 -0.2056 -0.3955
  563MOL0     O75900   4.352   8.479  -1.166 -0.0098 -0.5096 -0.1367
  563MOL0     C75901   4.484   8.473  -1.207  0.5595  0.0892 -0.3367
  563MOL0     C75902   4.584   8.413  -1.125  0.3741  0.2408  0.3804
  563MOL0     C75903   4.708   8.413  -1.177  0.5290  0.7534  0.2624
  563MOL0     C75904   4.737   8.433  -1.307  0.0004 -0.0197  0.1600
  563MOL0     O75905   4.869   8.415  -1.345  0.2897  0.9115 -0.2246
  563MOL0     C75906   4.966   8.502  -1.287 -0.9775  0.8346  0.8737
  563MOL0     C75907   4.944   8.648  -1.318  0.5002  0.8821  0.0474
  563MOL0     C75908   5.051   8.736  -1.261 -0.0269  0.0641 -0.2146
  563MOL0     C75909   5.035   8.885  -1.310  0.1517 -0.0169  0.8389
  563MOL0     C75910   5.132   8.977  -1.244 -0.5052 -0.0754  0.0264
  563MOL0     C75911   5.279   8.944  -1.256 -0.0509 -0.0287 -0.7319
  563MOL0     C75912   5.369   9.066  -1.223  0.6066  0.6805 -0.3315
  563MOL0     C75913   5.519   9.046  -1.252  0.1805 -0.0604  0.3604
  563MOL0    Cl75914   5.533   9.001  -1.437 -0.4259  0.3522  0.3131
  563MOL0     C75915   4.628   8.465  -1.391 -0.0158 -0.3178 -0.0696
  563MOL0     C75916   4.502   8.491  -1.346 -0.1182 -0.6724 -0.7716
  563MOL0     O75917   4.307   8.272  -1.247 -0.5633  0.0066 -0.3281
  563MOL0     C75918   4.069   8.262  -1.106  0.2656  0.4298  1.2123
  563MOL0     C75919   3.934   8.263  -1.074  0.4541  0.8462  0.6149
  563MOL0     N75920   3.182   8.416  -1.062  0.3695  0.5706  0.4536
  563MOL0     N75921   3.062   8.369  -1.073  0.1422 -0.0273 -0.4301
  563MOL0     C75922   2.664   8.362  -0.077 -0.2815  0.0901 -0.0269
  563MOL0     C75923   2.671   8.457   0.023  0.5650 -0.4511  0.3843
  563MOL0     C75924   2.548   8.791   0.353 -0.2761  0.4707 -0.4204
  563MOL0     C75925   2.695   8.803   0.361 -0.3643  0.2990  0.4971
  563MOL0     C75926   2.748   8.911   0.433  0.1972  0.1701 -0.0207
  563MOL0     C75927   2.674   9.015   0.491 -0.0729 -0.4902 -0.2029
  563MOL0     O75928   2.736   9.117   0.564  0.6645 -0.0927 -0.4418
  563MOL0     C75929   2.750   9.252   0.511 -0.0697  0.2416 -0.4503
  563MOL0     C75930   2.859   9.247   0.404  0.0570  0.1748  0.4779
  563MOL0     C75931   2.896   9.396   0.364  0.2887 -0.4399 -0.2894
  563MOL0     C75932   2.968   9.392   0.224  0.1415 -0.3424  0.5894
  563MOL0     C75933   3.090   9.311   0.232  0.0250  0.3723  0.0807
  563MOL0     C75934   3.194   9.249   0.254 -0.0658  0.1759  0.7520
  563MOL0     C75935   2.535   9.013   0.486 -0.0336  0.1525  0.2099
  563MOL0     C75936   2.472   8.900   0.420 -0.3222 -0.2742 -0.1017
  563MOL0     C75937   2.320   8.914   0.418 -0.0645  0.8183  0.2154
  563MOL0     H75938   2.357   8.585   0.023  0.8010  2.2576  0.2584
  563MOL0     H75939   2.339   8.426  -0.151  0.0465  2.5493  0.1024
  563MOL0     H75940   2.679   8.249  -0.359  1.0793  0.0186  0.0529
  563MOL0     H75941   2.679   8.120  -0.235 -2.5904 -0.1897  0.9434
  563MOL0     H75942   2.510   8.163  -0.477  2.7561  3.3363  1.1874
  563MOL0     H75943   2.473   8.026  -0.373  0.0154 -2.0757 -2.3605
  563MOL0     H75944   2.614   7.947  -0.554 -4.3003  1.7998  2.2052
  563MOL0     H75945   2.713   7.938  -0.410 -0.1021  1.5713  1.4576
  563MOL0     H75946   2.700   8.176  -0.597 -2.7127 -0.9215  0.9791
  563MOL0     H75947   2.829   8.144  -0.480  0.0923 -1.5279  0.4385
  563MOL0     H75948   2.907   7.951  -0.601  0.3199  0.1125 -1.2547
  563MOL0     H75949   2.778   7.954  -0.720 -0.8784  0.8086  0.2818
  563MOL0     H75950   2.990   8.161  -0.684  1.5210 -1.6818  0.2159
  563MOL0     H75951   3.001   8.054  -0.812 -1.7490 -0.8139 -0.4303
  563MOL0     H75952   2.823   8.284  -0.815 -4.0859 -1.6658  0.7728
  563MOL0     H75953   2.747   8.136  -0.866 -0.5420  0.1094  0.0333
  563MOL0     H75954   2.971   8.086  -1.025  3.0346  1.0591  1.2538
  563MOL0     H75955   2.868   8.221  -1.065 -0.6210  0.9899  1.1344
  563MOL0     H75956   3.200   8.145  -0.883 -1.3712 -2.3372 -1.4944
  563MOL0     H75957   3.457   8.261  -0.954  1.2299 -0.0581  1.1942
  563MOL0     H75958   3.453   8.409  -1.042  1.2470 -1.6986 -0.2289
  563MOL0     H75959   3.411   8.534  -0.817 -0.1584 -0.8851  2.8084
  563MOL0     H75960   3.393   8.376  -0.743  0.2926  0.6544  1.2609
  563MOL0     H75961   3.618   8.314  -0.753  0.2875  1.1388  4.1055
  563MOL0     H75962   3.606   8.480  -0.704  0.9964  2.0335 -1.3439
  563MOL0     H75963   3.773   8.513  -0.830 -1.4099  0.5956 -0.4085
  563MOL0     H75964   3.650   8.559  -0.950  0.8170  0.9547 -1.8244
  563MOL0     H75965   3.905   8.587  -0.993  1.5439  0.3208 -0.0823
  563MOL0     H75966   4.136   8.593  -1.079  1.8966  0.1275  4.1185
  563MOL0     H75967   4.569   8.384  -1.022  3.5117 -1.7640  0.4183
  563MOL0     H75968   4.792   8.392  -1.111  1.1691  0.6624 -0.5595
  563MOL0     H75969   4.981   8.491  -1.179  1.1913 -1.0646  0.4484
  563MOL0     H75970   5.065   8.476  -1.326  0.2122  1.6008  3.2021
  563MOL0     H75971   4.942   8.659  -1.427  0.8293  1.0988  0.0608
  563MOL0     H75972   4.843   8.677  -1.288  0.4073  0.5905  0.0239
  563MOL0     H75973   5.055   8.704  -1.156  3.1272 -1.2177 -0.6052
  563MOL0     H75974   5.145   8.703  -1.306 -0.2566  0.7014 -1.1693
  563MOL0     H75975   4.934   8.923  -1.292 -0.7828 -2.1180  0.2715
  563MOL0     H75976   5.066   8.881  -1.415 -0.5715 -0.2826  0.6277
  563MOL0     H75977   5.109   8.981  -1.137  2.3580 -1.6188  0.8177
  563MOL0     H75978   5.130   9.077  -1.288  0.4328  0.8822  2.0224
  563MOL0     H75979   5.301   8.866  -1.183 -1.0423  2.0420  1.9628
  563MOL0     H75980   5.302   8.917  -1.359  4.0576 -1.5925  0.4076
  563MOL0     H75981   5.357   9.092  -1.117 -0.7684 -0.0875 -0.2780
  563MOL0     H75982   5.332   9.153  -1.278 -4.6073 -0.7619  0.3233
  563MOL0     H75983   5.578   9.135  -1.227  0.7064 -0.0586 -0.8476
  563MOL0     H75984   5.560   8.962  -1.195  1.1150  0.0591 -0.1226
  563MOL0     H75985   4.650   8.486  -1.496  4.4917 -1.3938  0.4426
  563MOL0     H75986   4.418   8.523  -1.407 -1.9356 -3.3776  0.0912
  563MOL0     H75987   4.127   8.173  -1.125 -1.6851 -0.7670  0.5491
  563MOL0     H75988   3.895   8.162  -1.080  3.3673 -0.4168  1.2459
  563MOL0     H75989   2.755   8.310  -0.104  2.4116  3.1566  2.2727
  563MOL0     H75990   2.763   8.459   0.080  0.8960  1.7313 -0.1170
  563MOL0     H75991   2.762   8.740   0.303  0.7429  1.8694  0.0046
  563MOL0     H75992   2.854   8.915   0.458  0.0369  1.8063  0.5392
  563MOL0     H75993   2.777   9.324   0.589  2.2953  1.6568 -2.4317
  563MOL0     H75994   2.655   9.287   0.468 -0.6083 -2.6849 -1.8606
  563MOL0     H75995   2.832   9.180   0.322 -2.9448 -2.2096  3.1573
  563MOL0     H75996   2.941   9.192   0.450 -0.3933 -0.9236  0.0040
  563MOL0     H75997   2.962   9.430   0.444 -1.4288  2.7066 -0.0245
  563MOL0     H75998   2.809   9.462   0.361 -0.0199 -0.6459  2.2598
  563MOL0     H75999   2.899   9.353   0.150 -0.4187 -0.4069  1.1337
  563MOL0     H76000   2.997   9.493   0.194 -1.8796 -0.3619 -1.6825
  563MOL0     H76001   3.278   9.185   0.272 -1.6391 -1.6558  2.0438
  563MOL0     H76002   2.490   9.095   0.539 -0.8981 -2.1584  3.3656
  563MOL0     H76003   2.298   9.000   0.355 -1.7650  0.0769 -0.2607
  563MOL0     H76004   2.269   8.825   0.379  0.3673  0.3992  0.5796
  563MOL0     H76005   2.278   8.923   0.519  0.8937  1.7725  0.5446
  564MOL0     O76006   7.155   7.338   4.614 -0.7955 -0.0549 -0.7216
  564MOL0     C76007   7.050   7.367   4.552 -0.4860  0.6166 -1.4336
  564MOL0     O76008   7.033   7.401   4.420 -0.0262  0.4384 -0.3767
  564MOL0     C76009   7.155   7.429   4.356 -0.1839  0.9178  0.5656
  564MOL0     C76010   7.169   7.563   4.311  0.1971 -0.0567 -0.3070
  564MOL0     C76011   7.288   7.609   4.252  0.1524 -0.6463 -0.2775
  564MOL0     C76012   7.388   7.522   4.224 -0.2178  1.1163 -0.5004
  564MOL0     O76013   7.494   7.565   4.149 -0.0448 -0.5988  0.3051
  564MOL0     C76014   7.626   7.507   4.161  0.2263  0.2256 -0.5691
  564MOL0     C76015   7.736   7.605   4.116 -0.4112  0.1032  0.7250
  564MOL0     C76016   7.736   7.739   4.196 -0.5359  1.1043  1.0860
  564MOL0     C76017   7.826   7.845   4.130 -0.3074 -0.2061  0.8590
  564MOL0     C76018   7.738   7.903   4.020 -0.2637 -0.1453  0.3718
  564MOL0     C76019   7.815   8.031   3.967 -0.6942 -0.0381 -0.1626
  564MOL0     C76020   7.752   8.079   3.831 -0.0958  0.8453 -0.8438
  564MOL0     C76021   7.807   8.219   3.786  0.9796  0.4833  0.4235
  564MOL0     N76022   7.957   8.232   3.782 -0.3234  0.1233  0.5243
  564MOL0     C76023   8.037   8.312   3.852  0.7730 -0.5718  1.2006
  564MOL0     C76024   8.166   8.272   3.833  0.0877 -0.0417  0.1374
  564MOL0     C76025   8.294   8.330   3.896  0.1357  0.1488 -0.9515
  564MOL0     C76026   8.417   8.338   3.801  0.1235 -1.0365 -0.1903
  564MOL0     C76027   8.531   8.433   3.868 -0.4774  0.2660  0.7244
  564MOL0     C76028   8.621   8.499   3.770 -1.0283 -0.3233 -0.2151
  564MOL0     O76029   8.716   8.567   3.864 -0.0643 -0.4096  0.2254
  564MOL0     C76030   8.844   8.599   3.831  1.2771  0.4021  0.4205
  564MOL0     C76031   8.889   8.588   3.698 -0.8367  0.4236  0.2748
  564MOL0     C76032   9.024   8.613   3.667 -0.6276  0.2667 -0.1474
  564MOL0     C76033   9.115   8.651   3.765  0.0637  0.6247  0.2923
  564MOL0     C76034   9.248   8.685   3.723 -0.1102 -0.6974  0.4516
  564MOL0     O76035   9.327   8.767   3.802  0.5674  0.5149  0.0270
  564MOL0     C76036   9.442   8.816   3.753  0.0738  0.8377 -0.3609
  564MOL0     C76037   9.445   8.918   3.653  0.3041  0.2195  0.3280
  564MOL0     C76038   9.571   8.940   3.590  0.6286  0.4915  0.9262
  564MOL0     C76039   9.690   8.874   3.630  0.2907 -0.6107 -0.5805
  564MOL0     O76040   9.818   8.888   3.569 -0.2854 -0.0081 -0.9710
  564MOL0     C76041   9.832   9.005   3.493  0.1205 -0.7381  0.2017
  564MOL0     C76042   9.981   9.014   3.447 -0.4196  0.8583 -0.1233
  564MOL0     C76043  10.092   9.008   3.556  0.1711 -0.4877  0.2547
  564MOL0     C76044  10.230   9.012   3.485  0.2959  0.1911 -0.4926
  564MOL0     C76045  10.352   9.008   3.577 -0.2150  0.3415  0.3374
  564MOL0     C76046  10.484   8.994   3.486  0.5036 -0.4451 -0.6543
  564MOL0     C76047  10.602   8.981   3.584  0.0715 -0.6538  0.3308
  564MOL0     C76048  10.744   9.012   3.526 -0.0586 -0.0230  0.8939
  564MOL0    Cl76049  10.735   9.185   3.474 -0.4310 -0.0606 -0.0675
  564MOL0     C76050   9.685   8.779   3.733  0.7097  0.1141  0.2328
  564MOL0     C76051   9.559   8.736   3.785  0.4661 -0.2713  0.4504
  564MOL0     O76052   9.288   8.639   3.618 -0.3942 -0.0399  0.4897
  564MOL0     C76053   9.058   8.670   3.896 -0.9292 -0.4156  0.6489
  564MOL0     C76054   8.935   8.629   3.927 -0.4260  0.5158  0.2178
  564MOL0     N76055   8.164   8.169   3.746 -1.0981  0.4264  0.1656
  564MOL0     N76056   8.033   8.146   3.718 -0.0149 -0.4228 -0.5536
  564MOL0     C76057   7.380   7.391   4.280 -0.3766  0.5662  0.4912
  564MOL0     C76058   7.265   7.344   4.345 -0.1558 -0.4618 -0.0603
  564MOL0     C76059   6.925   7.353   4.632  0.4215 -0.5194 -1.2043
  564MOL0     C76060   6.831   7.456   4.619  0.8542 -0.3130 -0.0519
  564MOL0     C76061   6.713   7.467   4.696 -0.0320 -0.0822 -1.0350
  564MOL0     C76062   6.689   7.365   4.789 -0.0445 -0.0473  0.3608
  564MOL0     O76063   6.590   7.362   4.887 -0.3669 -0.1099 -0.1359
  564MOL0     C76064   6.499   7.472   4.890  0.1731  0.1733 -0.0104
  564MOL0     C76065   6.385   7.442   4.988 -0.5930  0.5800 -0.1845
  564MOL0     C76066   6.281   7.548   4.992 -0.6183 -0.6060 -0.6094
  564MOL0     C76067   6.148   7.492   5.043 -0.6111 -0.1169  0.3082
  564MOL0     C76068   6.085   7.417   4.938  0.8120 -0.3469 -0.1399
  564MOL0     C76069   6.034   7.365   4.839  0.3325  0.4563 -0.0600
  564MOL0     C76070   6.780   7.257   4.796 -0.1118  0.6935 -0.3761
  564MOL0     C76071   6.894   7.244   4.714  0.1763  0.4271  0.4868
  564MOL0     C76072   6.969   7.118   4.734  0.5041 -0.1382  0.5772
  564MOL0     H76073   7.088   7.633   4.331 -1.6810 -2.0506 -0.5754
  564MOL0     H76074   7.289   7.710   4.214  1.3596 -0.8361 -0.7742
  564MOL0     H76075   7.644   7.474   4.264  1.1780  1.6647 -0.2411
  564MOL0     H76076   7.625   7.419   4.096 -1.6623  0.6773 -1.2044
  564MOL0     H76077   7.694   7.629   4.018 -3.7295 -2.2834  1.3868
  564MOL0     H76078   7.835   7.559   4.105 -0.2557  0.7834 -1.1352
  564MOL0     H76079   7.798   7.722   4.284  0.1294  2.2478  0.8661
  564MOL0     H76080   7.636   7.764   4.235 -0.9313  2.0095 -0.4213
  564MOL0     H76081   7.864   7.918   4.202  2.2481  0.1358 -0.7203
  564MOL0     H76082   7.918   7.800   4.093  0.5855 -0.3014  3.0569
  564MOL0     H76083   7.726   7.827   3.942  3.6052  0.2732 -0.8450
  564MOL0     H76084   7.642   7.941   4.057 -2.1947  0.6422 -4.6033
  564MOL0     H76085   7.806   8.120   4.031 -1.0903 -1.0083  1.1877
  564MOL0     H76086   7.919   8.002   3.948 -0.9405  0.2603 -2.0905
  564MOL0     H76087   7.643   8.086   3.845  0.0308  1.6711 -0.1454
  564MOL0     H76088   7.780   8.007   3.754 -1.2138 -0.0299 -0.4735
  564MOL0     H76089   7.760   8.247   3.691 -0.9136  0.1501  1.2094
  564MOL0     H76090   7.773   8.296   3.855 -3.3202 -0.3997 -0.3872
  564MOL0     H76091   8.013   8.402   3.909 -3.4189  1.5890 -3.2031
  564MOL0     H76092   8.268   8.434   3.919 -0.9398 -0.1376 -0.8237
  564MOL0     H76093   8.320   8.281   3.990 -0.5651  0.7422 -0.4306
  564MOL0     H76094   8.455   8.240   3.769  1.1739 -0.0671 -2.0953
  564MOL0     H76095   8.384   8.386   3.708  1.7409 -0.6022 -0.5769
  564MOL0     H76096   8.583   8.359   3.931 -0.5696 -3.2238 -2.9194
  564MOL0     H76097   8.490   8.504   3.941  1.0667 -1.0150  2.9816
  564MOL0     H76098   8.578   8.564   3.692  2.0131  0.7722 -1.1077
  564MOL0     H76099   8.666   8.422   3.707  0.7454 -0.5347  1.2343
  564MOL0     H76100   8.814   8.573   3.621 -2.3512 -0.3327  1.8318
  564MOL0     H76101   9.052   8.622   3.562 -0.5612  1.3947 -0.0402
  564MOL0     H76102   9.362   8.969   3.607  0.7297  0.7091  0.0936
  564MOL0     H76103   9.569   9.003   3.502  1.9749  0.0297  0.5456
  564MOL0     H76104   9.774   9.008   3.401 -0.7452 -1.8215  0.6938
  564MOL0     H76105   9.810   9.099   3.546  2.3294  0.8728 -1.5233
  564MOL0     H76106  10.001   8.922   3.391 -0.3064  0.5506  0.4175
  564MOL0     H76107   9.996   9.089   3.370 -1.0299  1.1403  0.0301
  564MOL0     H76108  10.085   9.095   3.623 -0.7161  1.3305 -2.0667
  564MOL0     H76109  10.086   8.912   3.609 -0.4589 -0.4803  0.2081
  564MOL0     H76110  10.224   9.106   3.430 -0.0112 -0.1293 -1.0242
  564MOL0     H76111  10.232   8.923   3.422 -1.2398 -0.0712 -0.2143
  564MOL0     H76112  10.337   8.915   3.633  0.5008  0.4440  0.7148
  564MOL0     H76113  10.349   9.098   3.637 -1.9163 -0.9993  2.3718
  564MOL0     H76114  10.471   8.898   3.434 -2.7241 -0.1251 -0.6147
  564MOL0     H76115  10.497   9.079   3.419  2.4483 -0.7674 -0.7551
  564MOL0     H76116  10.604   8.882   3.631  0.2967 -1.4592 -1.3333
  564MOL0     H76117  10.590   9.058   3.661 -1.2794  2.8680 -3.1232
  564MOL0     H76118  10.822   8.995   3.600 -1.8385  0.1178  2.8989
  564MOL0     H76119  10.769   8.946   3.442 -2.2826 -1.3080  1.1594
  564MOL0     H76120   9.777   8.728   3.759  1.2059  0.6620 -0.4033
  564MOL0     H76121   9.566   8.647   3.847 -0.0149 -0.7561 -0.1907
  564MOL0     H76122   9.139   8.697   3.964  0.4633 -0.6130 -0.8785
  564MOL0     H76123   8.921   8.629   4.035 -2.8062 -1.2192 -0.0061
  564MOL0     H76124   7.462   7.321   4.263  0.4037  1.2461  1.3532
  564MOL0     H76125   7.260   7.247   4.393  0.6519  0.2055  1.4677
  564MOL0     H76126   6.836   7.536   4.545 -0.6757  1.8659  2.0316
  564MOL0     H76127   6.653   7.556   4.680  1.2690  1.5402  2.2405
  564MOL0     H76128   6.456   7.474   4.789 -1.0623 -0.5541  0.4781
  564MOL0     H76129   6.546   7.567   4.918  0.5066 -0.4921  1.7923
  564MOL0     H76130   6.427   7.435   5.089 -0.5631 -0.1408 -0.2416
  564MOL0     H76131   6.340   7.344   4.967  0.8500 -0.6405  1.9584
  564MOL0     H76132   6.278   7.598   4.895  3.4491 -2.7297 -2.0696
  564MOL0     H76133   6.318   7.623   5.063 -1.7299  1.0156 -1.6846
  564MOL0     H76134   6.160   7.440   5.139 -2.7521  1.0249  1.2442
  564MOL0     H76135   6.081   7.572   5.073  0.4665 -0.1707  3.0937
  564MOL0     H76136   5.988   7.320   4.754  1.1783  4.1684 -2.7171
  564MOL0     H76137   6.771   7.199   4.887 -0.7260  0.7344 -0.4087
  564MOL0     H76138   7.051   7.110   4.662 -0.4371 -0.2723 -0.5243
  564MOL0     H76139   7.001   7.131   4.837  4.3074 -1.1172 -0.3425
  564MOL0     H76140   6.901   7.033   4.724  2.5525 -2.0544  2.0926
  565MOL0     O76141   8.451   9.387  11.014 -0.9791 -0.0686 -0.1666
  565MOL0     C76142   8.458   9.264  11.020 -0.0275 -0.0082  0.1248
  565MOL0     O76143   8.581   9.195  11.031  0.5551 -0.2670  0.5766
  565MOL0     C76144   8.699   9.266  11.017 -0.7295 -0.4232  0.5579
  565MOL0     C76145   8.743   9.317  10.896 -0.1431 -0.0151 -1.0106
  565MOL0     C76146   8.870   9.371  10.882  0.0500 -0.5377 -0.4563
  565MOL0     C76147   8.957   9.377  10.990  0.8762  0.5666  0.1838
  565MOL0     O76148   9.086   9.398  10.979 -0.1229  0.4221  0.1777
  565MOL0     C76149   9.144   9.433  10.847  1.1815 -0.4912 -0.6041
  565MOL0     C76150   9.264   9.518  10.871 -0.1686  0.5484 -0.1021
  565MOL0     C76151   9.385   9.433  10.919 -1.2278 -0.0966  0.1234
  565MOL0     C76152   9.524   9.506  10.907  0.6333  0.1395 -0.2629
  565MOL0     C76153   9.625   9.404  10.964  1.0074  0.1162 -1.0910
  565MOL0     C76154   9.760   9.474  10.979 -0.3405  0.4296 -0.4586
  565MOL0     C76155   9.861   9.370  11.042  0.4924 -0.5499 -0.2530
  565MOL0     C76156   9.910   9.280  10.938 -0.0105  0.0200  0.3289
  565MOL0     N76157  10.018   9.356  10.872 -0.4551  0.8028  0.6976
  565MOL0     C76158  10.135   9.390  10.934  0.2391 -0.7491  0.7394
  565MOL0     C76159  10.183   9.476  10.841 -0.3333  0.5519  0.7918
  565MOL0     C76160  10.307   9.561  10.858 -0.1762  0.2973 -0.4367
  565MOL0     C76161  10.435   9.497  10.805 -0.5572  0.5051  0.4198
  565MOL0     C76162  10.432   9.440  10.656  0.1370 -1.0917  0.4010
  565MOL0     C76163  10.578   9.409  10.614 -0.5574  0.3830 -0.5344
  565MOL0     O76164  10.636   9.529  10.588 -0.1388 -0.4069  0.7871
  565MOL0     C76165  10.770   9.532  10.598 -0.2177  0.7040  0.1377
  565MOL0     C76166  10.852   9.486  10.490  0.5295  0.1779  0.0135
  565MOL0     C76167  10.990   9.506  10.513  0.3610  0.6837 -0.2213
  565MOL0     C76168  11.047   9.547  10.631  0.2678 -0.7734 -0.9548
  565MOL0     C76169  11.200   9.557  10.639  0.4497 -0.2881  0.0741
  565MOL0     O76170  11.258   9.495  10.532  0.1165  0.1163 -0.4417
  565MOL0     C76171  11.397   9.475  10.536  0.2605 -0.3868 -0.0787
  565MOL0     C76172  11.452   9.427  10.650 -0.5954 -0.2979 -0.4018
  565MOL0     C76173  11.599   9.411  10.655  0.6263 -0.1790  0.0192
  565MOL0     C76174  11.676   9.429  10.538 -0.1290 -0.6625 -0.3353
  565MOL0     O76175  11.813   9.435  10.538 -0.3594 -0.1800 -0.9273
  565MOL0     C76176  11.876   9.526  10.626  0.5200 -0.5267 -1.9326
  565MOL0     C76177  12.017   9.568  10.571  0.3699 -0.5160 -1.0349
  565MOL0     C76178  12.110   9.449  10.537 -0.3213 -0.0676  0.2439
  565MOL0     C76179  12.247   9.499  10.480 -0.1908  0.4178 -0.0056
  565MOL0     C76180  12.312   9.393  10.393  0.5266 -0.0481 -0.4408
  565MOL0     C76181  12.391   9.277  10.462  0.8224 -0.5742 -0.5037
  565MOL0     C76182  12.518   9.219  10.389  0.4496 -0.0809  0.5152
  565MOL0     C76183  12.484   9.143  10.248 -0.6296  0.2245 -0.2191
  565MOL0    Cl76184  12.627   9.036  10.208 -0.0545  0.0373  0.3417
  565MOL0     C76185  11.611   9.468  10.422  0.1983  0.0290 -0.4625
  565MOL0     C76186  11.479   9.494  10.424  1.1159  0.4694  0.0298
  565MOL0     O76187  11.256   9.620  10.727  0.1565 -0.4065 -0.0495
  565MOL0     C76188  10.958   9.585  10.742 -0.1537  0.1778 -0.1945
  565MOL0     C76189  10.825   9.566  10.721 -0.1995  0.2938 -0.3665
  565MOL0     N76190  10.100   9.490  10.735 -0.1344 -0.1330  0.4074
  565MOL0     N76191  10.011   9.400  10.745  0.4878 -0.6845 -0.6038
  565MOL0     C76192   8.915   9.328  11.111  0.8775  0.3560 -0.9040
  565MOL0     C76193   8.786   9.276  11.122  1.0382  0.0774 -0.6272
  565MOL0     C76194   8.337   9.178  11.016 -0.2005  0.4446 -0.6694
  565MOL0     C76195   8.349   9.042  11.044 -0.0012 -0.2231  0.5444
  565MOL0     C76196   8.237   8.957  11.032 -0.8904 -0.3222  0.3021
  565MOL0     C76197   8.108   9.009  11.000  0.7268  0.0962 -0.0844
  565MOL0     O76198   7.986   8.939  10.980 -0.4672 -0.0818 -0.3735
  565MOL0     C76199   7.976   8.802  11.008  0.9898  0.2208 -0.2790
  565MOL0     C76200   7.824   8.779  11.009 -0.1489  0.1641  0.6068
  565MOL0     C76201   7.789   8.645  11.076  0.1591  0.4963 -0.3643
  565MOL0     C76202   7.650   8.599  11.035  0.7324  0.1906  0.9605
  565MOL0     C76203   7.612   8.489  11.117  0.4214  0.0742 -0.8332
  565MOL0     C76204   7.564   8.407  11.192 -0.5471  1.2372 -0.3144
  565MOL0     C76205   8.097   9.137  10.962 -0.0230 -1.1373 -0.4482
  565MOL0     C76206   8.210   9.223  10.978 -0.0097  0.1309  0.7252
  565MOL0     C76207   8.192   9.372  10.960 -0.2314 -0.7019  0.0962
  565MOL0     H76208   8.677   9.302  10.811 -0.4592 -0.9837 -0.6110
  565MOL0     H76209   8.894   9.412  10.784 -1.1622 -3.0029 -1.8582
  565MOL0     H76210   9.172   9.346  10.787  1.0339 -0.7486 -0.2998
  565MOL0     H76211   9.073   9.495  10.791  0.8079 -1.1386 -0.8507
  565MOL0     H76212   9.244   9.598  10.942  1.7664  0.7522  0.2659
  565MOL0     H76213   9.292   9.566  10.776  0.8484 -0.2403 -0.2190
  565MOL0     H76214   9.400   9.341  10.862 -1.2905 -0.5547  0.8314
  565MOL0     H76215   9.361   9.408  11.023  0.0552 -1.5089  0.1087
  565MOL0     H76216   9.560   9.544  10.811  1.3563  1.4772  0.5073
  565MOL0     H76217   9.522   9.586  10.982  0.0794 -0.8708  0.8442
  565MOL0     H76218   9.583   9.364  11.056 -0.9598 -0.2658 -2.1112
  565MOL0     H76219   9.647   9.323  10.894  1.4073  0.8836 -1.8849
  565MOL0     H76220   9.794   9.503  10.879  0.1154  0.9743 -0.1463
  565MOL0     H76221   9.751   9.558  11.048 -0.4546 -0.4012  0.5486
  565MOL0     H76222   9.812   9.313  11.122  0.5721  2.9651  2.5266
  565MOL0     H76223   9.940   9.426  11.093 -0.1024  0.4960 -0.4473
  565MOL0     H76224   9.949   9.198  10.999 -2.5238 -2.7042 -1.4277
  565MOL0     H76225   9.833   9.245  10.869  0.9871  2.1447 -2.0025
  565MOL0     H76226  10.168   9.372  11.036  0.1428  0.8324  1.0786
  565MOL0     H76227  10.287   9.658  10.812  0.0010  0.6572  0.2197
  565MOL0     H76228  10.311   9.576  10.967 -0.8047 -0.6887 -0.2739
  565MOL0     H76229  10.514   9.571  10.821 -1.1127  1.0164  0.8172
  565MOL0     H76230  10.462   9.415  10.872 -1.6071  0.6510  1.0309
  565MOL0     H76231  10.387   9.519  10.596  1.8183 -0.8956 -0.6874
  565MOL0     H76232  10.365   9.354  10.662 -0.9204 -0.2080  1.9689
  565MOL0     H76233  10.581   9.346  10.525  1.1368 -0.3323 -0.0120
  565MOL0     H76234  10.619   9.351  10.698 -2.8826  1.2918  1.3800
  565MOL0     H76235  10.817   9.459  10.391 -0.0738 -0.5454  0.4090
  565MOL0     H76236  11.048   9.500  10.421 -0.4034  0.5639 -0.7042
  565MOL0     H76237  11.399   9.401  10.742  1.2801 -1.2697  0.4517
  565MOL0     H76238  11.654   9.396  10.747  2.1333  0.2703 -0.7635
  565MOL0     H76239  11.823   9.618  10.650  2.5638  0.2570 -0.1497
  565MOL0     H76240  11.890   9.476  10.722 -2.7881 -0.5876 -1.3562
  565MOL0     H76241  11.993   9.635  10.489 -3.7106 -1.3115 -0.7507
  565MOL0     H76242  12.065   9.622  10.653  0.7909  1.1130 -2.3209
  565MOL0     H76243  12.121   9.386  10.626 -2.2473 -2.2887 -0.9873
  565MOL0     H76244  12.057   9.387  10.465 -0.4378 -1.7718  1.7227
  565MOL0     H76245  12.312   9.539  10.558  3.5651  1.0597 -3.1350
  565MOL0     H76246  12.234   9.586  10.415  2.2980  1.3613  0.6269
  565MOL0     H76247  12.376   9.454  10.328 -2.0716  0.9468 -2.2394
  565MOL0     H76248  12.234   9.336  10.342 -1.5218  2.0558  0.1782
  565MOL0     H76249  12.424   9.309  10.562  3.1603 -1.5407 -0.9050
  565MOL0     H76250  12.320   9.197  10.484  2.0677 -1.2725  1.2499
  565MOL0     H76251  12.552   9.142  10.458  1.2308  0.3303  0.5960
  565MOL0     H76252  12.601   9.287  10.372  1.7671 -2.1929 -2.6002
  565MOL0     H76253  12.391   9.088  10.259 -0.5492 -0.1137 -1.1573
  565MOL0     H76254  12.465   9.217  10.169 -1.2662 -0.5226 -0.7720
  565MOL0     H76255  11.656   9.485  10.324 -1.3557 -1.2306 -1.4373
  565MOL0     H76256  11.429   9.533  10.336 -0.8247  0.9218  1.2719
  565MOL0     H76257  10.993   9.635  10.831 -0.8094 -2.3405  1.6023
  565MOL0     H76258  10.762   9.605  10.799 -0.9943 -0.1698 -0.7680
  565MOL0     H76259   8.987   9.329  11.193  0.8328  1.0295 -0.8666
  565MOL0     H76260   8.756   9.252  11.224 -0.6152  0.9136 -0.8941
  565MOL0     H76261   8.446   9.009  11.081 -0.3786 -1.2709  0.6100
  565MOL0     H76262   8.256   8.851  11.038 -0.9066 -0.4082 -0.8778
  565MOL0     H76263   8.035   8.779  11.097  0.9350  1.2749  0.0523
  565MOL0     H76264   8.012   8.741  10.925 -1.3566 -0.7856 -0.6460
  565MOL0     H76265   7.782   8.787  10.909  0.1692  1.6235  0.5679
  565MOL0     H76266   7.781   8.860  11.068  3.2986  2.4592  0.3056
  565MOL0     H76267   7.788   8.655  11.185 -3.5455 -2.1505  0.0244
  565MOL0     H76268   7.856   8.567  11.040  0.9356  1.3541 -0.8300
  565MOL0     H76269   7.572   8.674  11.056  0.3558  0.1130 -0.0815
  565MOL0     H76270   7.642   8.570  10.930 -1.0078 -0.7090  1.3052
  565MOL0     H76271   7.531   8.323  11.249  1.2238  2.3697  2.6019
  565MOL0     H76272   8.003   9.174  10.923  0.4438 -1.1615 -1.6216
  565MOL0     H76273   8.245   9.418  10.876 -0.2067  0.4195  0.7187
  565MOL0     H76274   8.088   9.394  10.937 -0.6881 -2.7953 -0.0857
  565MOL0     H76275   8.227   9.428  11.047  1.2337 -0.3442 -0.6902
  566MOL0     O76276   1.264   9.709   6.915  0.2701  0.2975  1.1145
  566MOL0     C76277   1.289   9.818   6.974 -0.0762 -0.6410 -0.0145
  566MOL0     O76278   1.226   9.941   6.954  0.4192  0.4292  0.0528
  566MOL0     C76279   1.101   9.954   6.881 -0.0671  0.9111 -0.2525
  566MOL0     C76280   1.017   9.851   6.827  0.1391 -0.1140  0.2017
  566MOL0     C76281   0.888   9.883   6.791 -0.3426 -0.0947  0.9786
  566MOL0     C76282   0.865  10.022   6.755  0.3806  0.3344 -0.8000
  566MOL0     O76283   0.752  10.060   6.693  0.0041 -0.9654  1.3659
  566MOL0     C76284   0.637   9.973   6.669 -0.0459 -1.2874  0.4314
  566MOL0     C76285   0.538  10.028   6.571  0.0978  0.5710  0.7622
  566MOL0     C76286   0.591  10.029   6.427  0.0492 -0.0253 -0.2468
  566MOL0     C76287   0.669  10.162   6.383  0.9968 -0.4025  0.0001
  566MOL0     C76288   0.698  10.146   6.236  0.6783 -0.1823 -0.8347
  566MOL0     C76289   0.805  10.250   6.184 -0.1702  0.2595 -0.0788
  566MOL0     C76290   0.941  10.184   6.169 -0.1997 -0.8094  0.3746
  566MOL0     C76291   1.047  10.294   6.125  0.1241  0.5445  0.5534
  566MOL0     N76292   1.167  10.227   6.077 -0.2144  0.3831  0.0835
  566MOL0     C76293   1.290  10.240   6.132 -1.5112  0.2740  0.1925
  566MOL0     C76294   1.376  10.178   6.047 -0.4540 -0.3713 -0.8306
  566MOL0     C76295   1.517  10.147   6.079  0.1081 -0.3122  0.1365
  566MOL0     C76296   1.586  10.080   5.958 -0.5536 -0.4804 -0.0240
  566MOL0     C76297   1.733  10.041   5.993  0.4014  0.2224  0.1154
  566MOL0     C76298   1.815  10.147   6.054  0.4586 -0.2190  0.0553
  566MOL0     O76299   1.945  10.155   5.985  0.9265 -0.3239  0.1067
  566MOL0     C76300   2.052  10.098   6.054  0.3622  0.1926 -0.5870
  566MOL0     C76301   2.052  10.048   6.187  0.1135 -0.1056 -0.6470
  566MOL0     C76302   2.172   9.994   6.242  0.9132 -0.1503  0.6583
  566MOL0     C76303   2.294  10.011   6.179 -0.7012 -0.2476 -0.0315
  566MOL0     C76304   2.424   9.981   6.237  0.5302  0.6612 -0.2556
  566MOL0     O76305   2.527   9.983   6.153  0.2801  0.3448  0.2915
  566MOL0     C76306   2.656   9.944   6.198 -1.0158  0.4866  0.4642
  566MOL0     C76307   2.774  10.035   6.191 -0.0850 -0.1121  0.2354
  566MOL0     C76308   2.905   9.999   6.247  0.4836 -0.9564 -0.5383
  566MOL0     C76309   2.910   9.879   6.316 -0.8729  0.4055 -0.6264
  566MOL0     O76310   3.032   9.852   6.373 -0.1041  0.2803 -0.1781
  566MOL0     C76311   3.054   9.741   6.463  1.3092 -0.4497 -0.3333
  566MOL0     C76312   3.194   9.762   6.516 -0.4380 -0.6425 -0.4812
  566MOL0     C76313   3.292   9.775   6.402  0.7944 -0.5992  0.1200
  566MOL0     C76314   3.443   9.776   6.449  0.2253  0.0083  1.0359
  566MOL0     C76315   3.532   9.785   6.326 -0.6253 -0.4677 -0.9009
  566MOL0     C76316   3.557   9.920   6.268 -0.0492 -1.1477  0.0664
  566MOL0     C76317   3.666   9.922   6.159  0.3984 -0.0528  0.0104
  566MOL0     C76318   3.781   9.832   6.187  0.2636 -0.1688  0.8690
  566MOL0    Cl76319   3.865   9.868   6.329 -0.0073 -0.1116 -0.0550
  566MOL0     C76320   2.799   9.792   6.325  0.2005  0.1600  0.1709
  566MOL0     C76321   2.678   9.828   6.268 -0.0962 -0.2089 -0.3134
  566MOL0     O76322   2.428   9.934   6.349  0.2400 -0.1149 -0.1649
  566MOL0     C76323   2.298  10.073   6.054  0.7984  0.4512  0.1648
  566MOL0     C76324   2.179  10.112   5.992  0.2106 -0.6708 -0.1954
  566MOL0     N76325   1.303  10.138   5.939  0.3468  0.7688  0.1849
  566MOL0     N76326   1.177  10.176   5.954  0.0551  0.7147 -0.3143
  566MOL0     C76327   0.957  10.123   6.796  0.3010 -0.9028  0.8345
  566MOL0     C76328   1.064  10.084   6.868 -0.2615 -0.5580 -0.0799
  566MOL0     C76329   1.410   9.821   7.076 -0.7121  0.8523 -0.4751
  566MOL0     C76330   1.425   9.932   7.169  0.0339  0.0534 -0.2599
  566MOL0     C76331   1.529   9.933   7.267  0.4363  1.0040 -0.2579
  566MOL0     C76332   1.625   9.826   7.266  0.0277 -0.7059  0.5347
  566MOL0     O76333   1.706   9.819   7.374 -0.1006  0.8277 -0.5936
  566MOL0     C76334   1.799   9.927   7.392  0.0136 -0.6690 -0.2038
  566MOL0     C76335   1.843   9.936   7.544 -0.2081  0.0539  0.5739
  566MOL0     C76336   1.960  10.037   7.560  0.3602  0.2316  0.4507
  566MOL0     C76337   1.999  10.049   7.704 -0.4132  0.1884 -0.5790
  566MOL0     C76338   1.915  10.131   7.791  0.3593 -0.1921 -0.2677
  566MOL0     C76339   1.839  10.190   7.866 -0.1092 -0.5084  0.7622
  566MOL0     C76340   1.622   9.729   7.171  0.0612  0.6355  1.1520
  566MOL0     C76341   1.517   9.723   7.069 -0.3412 -0.6213  0.2547
  566MOL0     C76342   1.528   9.612   6.970 -0.0378 -0.2294 -0.1212
  566MOL0     H76343   1.047   9.748   6.840  0.2127 -0.0185  0.8388
  566MOL0     H76344   0.832   9.799   6.752  0.7022 -1.1368  1.6370
  566MOL0     H76345   0.666   9.878   6.624  0.3832  0.1970 -2.7424
  566MOL0     H76346   0.582   9.962   6.762 -0.7812  2.1452  0.5357
  566MOL0     H76347   0.520  10.133   6.596  0.3185  0.8701 -0.2745
  566MOL0     H76348   0.442   9.976   6.576 -0.8339  2.0280 -0.9488
  566MOL0     H76349   0.514  10.007   6.352  2.5284  0.3704 -3.0944
  566MOL0     H76350   0.660   9.945   6.418 -0.6915 -0.8951  1.7213
  566MOL0     H76351   0.616  10.256   6.404  0.0606 -1.4521  2.9164
  566MOL0     H76352   0.754  10.167   6.451  1.2917  0.0186 -0.3964
  566MOL0     H76353   0.734  10.045   6.217 -2.2499 -1.4428 -0.2215
  566MOL0     H76354   0.601  10.160   6.187 -0.9281 -0.5877  2.0164
  566MOL0     H76355   0.777  10.307   6.094 -1.2941 -0.3743 -0.1538
  566MOL0     H76356   0.814  10.330   6.259  3.0657 -0.5745  0.5463
  566MOL0     H76357   0.929  10.102   6.098 -0.8394 -0.6454  0.2905
  566MOL0     H76358   0.968  10.150   6.270  1.9003  3.8364  1.6880
  566MOL0     H76359   1.005  10.357   6.046 -1.2467  0.1598  0.9430
  566MOL0     H76360   1.062  10.368   6.203 -3.8503  3.5477 -1.1945
  566MOL0     H76361   1.328  10.273   6.227 -2.9584 -1.3543  1.4100
  566MOL0     H76362   1.554  10.249   6.094  0.8855 -0.2552 -1.9044
  566MOL0     H76363   1.538  10.092   6.171  5.0091  2.2779  0.9044
  566MOL0     H76364   1.529   9.988   5.944 -2.7777  0.6247  1.3021
  566MOL0     H76365   1.586  10.130   5.860 -1.7292 -0.5711 -0.0750
  566MOL0     H76366   1.784  10.009   5.902 -0.5975  0.8884 -0.7103
  566MOL0     H76367   1.733   9.957   6.063  1.5156  1.5834  1.8337
  566MOL0     H76368   1.816  10.127   6.161 -1.0859 -1.0550 -0.0509
  566MOL0     H76369   1.783  10.249   6.031  0.9668 -0.4217 -1.7481
  566MOL0     H76370   1.960  10.038   6.244 -0.1178  2.3605 -0.5005
  566MOL0     H76371   2.170   9.948   6.341  3.5478 -1.7987  0.0357
  566MOL0     H76372   2.758  10.131   6.144  0.3730 -0.2039 -0.1118
  566MOL0     H76373   2.985  10.071   6.257  0.3260 -0.7103 -1.0204
  566MOL0     H76374   2.988   9.739   6.550  2.3162 -1.7972  0.4448
  566MOL0     H76375   3.043   9.642   6.416 -1.7578  0.7890 -2.5807
  566MOL0     H76376   3.200   9.851   6.580 -1.9961 -1.8914  1.5040
  566MOL0     H76377   3.216   9.677   6.581 -0.6578 -0.3876 -0.0728
  566MOL0     H76378   3.283   9.691   6.332  1.3777 -1.6583  1.2726
  566MOL0     H76379   3.277   9.873   6.354  0.9376 -0.4091  0.4611
  566MOL0     H76380   3.467   9.684   6.503 -1.4800 -0.4753  1.0377
  566MOL0     H76381   3.471   9.862   6.510 -1.6401  1.7057 -0.3751
  566MOL0     H76382   3.499   9.715   6.249  1.6216 -2.3336 -0.2823
  566MOL0     H76383   3.627   9.759   6.373 -0.8437  1.7263  0.9068
  566MOL0     H76384   3.465   9.966   6.230  0.3232  0.0344  0.5746
  566MOL0     H76385   3.593   9.984   6.348 -5.2874  1.4182  0.7814
  566MOL0     H76386   3.704  10.024   6.141 -1.5650  0.3844 -2.1241
  566MOL0     H76387   3.617   9.883   6.070 -0.3162  0.0155  0.3669
  566MOL0     H76388   3.750   9.728   6.192  0.4807 -0.4124 -1.8226
  566MOL0     H76389   3.848   9.836   6.101  1.2353 -3.3947  1.3529
  566MOL0     H76390   2.809   9.696   6.375 -2.3874 -1.3217 -1.9024
  566MOL0     H76391   2.598   9.757   6.284 -0.6764  0.5352  0.1173
  566MOL0     H76392   2.389  10.081   5.996  0.0463 -2.6917 -1.6554
  566MOL0     H76393   2.172  10.147   5.889 -0.0581  1.0145  0.3638
  566MOL0     H76394   0.946  10.222   6.752 -0.3786 -1.7970 -1.0858
  566MOL0     H76395   1.133  10.162   6.900 -1.8759  0.1608  1.9060
  566MOL0     H76396   1.346  10.004   7.184  2.3610  2.6861  0.1496
  566MOL0     H76397   1.534  10.009   7.343  0.2029  1.5955 -0.8253
  566MOL0     H76398   1.777  10.027   7.353  1.6580  0.0790  0.6863
  566MOL0     H76399   1.889   9.896   7.339 -0.1116  0.4020 -1.0885
  566MOL0     H76400   1.877   9.842   7.587 -0.5987 -0.3079  0.0948
  566MOL0     H76401   1.765   9.962   7.616  0.8809 -0.0143  1.8184
  566MOL0     H76402   1.926  10.134   7.523  1.4092 -0.7420 -3.4611
  566MOL0     H76403   2.047  10.005   7.503 -0.8812  0.9020 -1.9451
  566MOL0     H76404   2.010   9.949   7.748  3.1563  0.4188 -0.7228
  566MOL0     H76405   2.094  10.101   7.699 -1.4131  2.1497 -0.1332
  566MOL0     H76406   1.752  10.237   7.907 -1.2893 -1.5897 -0.3766
  566MOL0     H76407   1.694   9.648   7.173 -1.9133 -1.2558 -0.2830
  566MOL0     H76408   1.622   9.557   6.983 -0.2374 -0.9764 -1.6114
  566MOL0     H76409   1.445   9.541   6.975 -1.7681  1.7552  0.8821
  566MOL0     H76410   1.530   9.667   6.875 -1.4127 -0.9844 -0.6057
  567MOL0     O76411   7.859   1.285   3.033  0.1162  0.3952  0.1918
  567MOL0     C76412   7.909   1.192   3.095 -0.7862 -0.2104 -0.6329
  567MOL0     O76413   7.845   1.110   3.186 -0.2797 -0.1241  0.4024
  567MOL0     C76414   7.717   1.131   3.237  0.0650 -0.8469 -0.1351
  567MOL0     C76415   7.611   1.193   3.177  0.8288 -0.3445  1.0706
  567MOL0     C76416   7.483   1.192   3.224 -0.4673 -0.3982 -0.2313
  567MOL0     C76417   7.455   1.132   3.349 -0.3594  0.1530  0.4696
  567MOL0     O76418   7.324   1.130   3.386  0.1772 -0.3062  0.0413
  567MOL0     C76419   7.291   1.022   3.477 -0.1928  0.3541 -0.3767
  567MOL0     C76420   7.135   1.013   3.485 -0.2314  0.6152  1.0696
  567MOL0     C76421   7.075   0.963   3.345  0.1793 -0.0487 -0.2899
  567MOL0     C76422   6.926   0.986   3.366 -0.3638  0.0758  0.8804
  567MOL0     C76423   6.845   0.919   3.265  1.2160  0.2099  0.5770
  567MOL0     C76424   6.832   0.769   3.291  0.3265  0.7061 -0.6193
  567MOL0     C76425   6.703   0.702   3.219  0.6361 -0.4106 -0.1603
  567MOL0     C76426   6.739   0.660   3.080 -0.5174  0.1374  0.9993
  567MOL0     N76427   6.851   0.551   3.073  1.2938  0.5767 -0.3606
  567MOL0     C76428   6.971   0.575   3.009  0.0634  0.0152  0.6453
  567MOL0     C76429   7.035   0.462   3.025  0.3087  0.2825 -0.7591
  567MOL0     C76430   7.174   0.442   2.961  0.8031 -0.1245  0.3000
  567MOL0     C76431   7.287   0.516   3.034 -0.4593  0.4420  0.4417
  567MOL0     C76432   7.276   0.669   3.047 -0.1130  1.5699 -0.2804
  567MOL0     C76433   7.412   0.728   3.081 -0.6172  0.0335 -0.6349
  567MOL0     O76434   7.513   0.702   2.981  0.1900  0.1993 -0.2092
  567MOL0     C76435   7.645   0.692   3.015  0.2805 -0.0197 -0.1430
  567MOL0     C76436   7.701   0.574   2.971 -1.2254 -0.0497 -1.0733
  567MOL0     C76437   7.834   0.549   2.989 -0.2078  0.2943  0.0439
  567MOL0     C76438   7.918   0.642   3.060  0.1657  0.4086  0.1855
  567MOL0     C76439   8.064   0.611   3.068  0.4260  0.1922 -0.1740
  567MOL0     O76440   8.105   0.497   2.999 -1.0556 -0.8664  0.4785
  567MOL0     C76441   8.234   0.451   3.024 -0.1793 -0.5832 -0.4234
  567MOL0     C76442   8.307   0.378   2.932 -0.5299 -0.1136 -0.0188
  567MOL0     C76443   8.436   0.325   2.952 -0.9489 -0.0356 -0.6643
  567MOL0     C76444   8.490   0.354   3.079  0.4570 -0.1235  1.0745
  567MOL0     O76445   8.613   0.311   3.094  0.4586  0.2310 -0.2777
  567MOL0     C76446   8.630   0.212   3.194  0.1206  0.4423 -0.1965
  567MOL0     C76447   8.771   0.160   3.188 -0.1742  0.1114 -0.2944
  567MOL0     C76448   8.882   0.262   3.152 -0.5070  0.0489 -0.3513
  567MOL0     C76449   9.030   0.192   3.135  0.3923 -0.0009  0.0628
  567MOL0     C76450   9.102   0.273   3.033  0.4800 -0.5725 -0.3036
  567MOL0     C76451   9.256   0.241   3.030  1.2258  0.9047  0.1978
  567MOL0     C76452   9.331   0.349   2.960  0.0703  0.0135  0.3862
  567MOL0     C76453   9.472   0.347   3.011 -0.3555  0.3954 -0.0234
  567MOL0    Cl76454   9.498   0.429   3.160 -0.0433  0.1982 -0.1479
  567MOL0     C76455   8.425   0.421   3.174 -0.2972 -0.4822 -0.0210
  567MOL0     C76456   8.292   0.451   3.149  0.8688  1.2503 -0.5059
  567MOL0     O76457   8.136   0.683   3.142  0.5990  0.3100  0.0171
  567MOL0     C76458   7.862   0.757   3.119  0.6307 -0.0009  0.1449
  567MOL0     C76459   7.718   0.782   3.094  0.2087 -0.4402 -0.3009
  567MOL0     N76460   6.953   0.377   3.107 -0.4197 -0.0401 -0.0287
  567MOL0     N76461   6.838   0.431   3.122 -0.0662 -0.2357  0.4847
  567MOL0     C76462   7.567   1.085   3.423  0.2989  0.6883  0.0419
  567MOL0     C76463   7.691   1.075   3.366 -0.4625  0.1926  0.3226
  567MOL0     C76464   8.061   1.169   3.077 -0.2372  0.1726  1.1487
  567MOL0     C76465   8.126   1.061   3.140  1.4800 -0.5624 -0.6374
  567MOL0     C76466   8.257   1.022   3.125 -0.0167  0.4610  0.2938
  567MOL0     C76467   8.343   1.101   3.038  0.3046  0.4175 -0.1345
  567MOL0     O76468   8.467   1.072   3.012  0.5653 -0.1816  0.5136
  567MOL0     C76469   8.555   1.046   3.116 -0.2462 -0.8097 -0.2041
  567MOL0     C76470   8.594   1.179   3.194  0.4250  0.8451 -0.2228
  567MOL0     C76471   8.646   1.295   3.095 -0.1593  0.9858  0.0472
  567MOL0     C76472   8.689   1.417   3.168 -0.4388  0.6866 -0.2002
  567MOL0     C76473   8.753   1.513   3.072 -0.6628 -0.5300 -0.8805
  567MOL0     C76474   8.790   1.595   2.993 -0.3051 -0.1404  0.3697
  567MOL0     C76475   8.290   1.217   2.981  0.2142  0.0072  0.4172
  567MOL0     C76476   8.146   1.249   2.989  0.6370 -0.3158  0.2116
  567MOL0     C76477   8.100   1.352   2.898  0.3009 -0.5136 -0.6371
  567MOL0     H76478   7.628   1.237   3.079 -0.3872 -2.3417 -0.1029
  567MOL0     H76479   7.396   1.238   3.178  0.7250  1.8882 -0.3483
  567MOL0     H76480   7.337   0.924   3.459  1.5897  1.4491 -2.0985
  567MOL0     H76481   7.336   1.054   3.572  2.2181 -0.1049 -1.2836
  567MOL0     H76482   7.086   1.109   3.508 -0.8312  0.6055 -0.1230
  567MOL0     H76483   7.104   0.933   3.553  1.0970 -0.4612  0.4402
  567MOL0     H76484   7.093   0.856   3.331 -1.9197 -0.3652 -0.8214
  567MOL0     H76485   7.122   1.026   3.269  3.9090  0.5783  2.2335
  567MOL0     H76486   6.889   0.936   3.456 -0.2377 -2.7247 -0.5093
  567MOL0     H76487   6.906   1.092   3.385 -2.5709 -0.3408  1.2257
  567MOL0     H76488   6.746   0.965   3.262  1.7146  1.3002  0.4922
  567MOL0     H76489   6.886   0.945   3.167  2.1096  0.1238  0.9252
  567MOL0     H76490   6.924   0.721   3.259 -0.7432 -3.1909  1.4646
  567MOL0     H76491   6.822   0.751   3.399 -1.8620  1.5095 -0.6337
  567MOL0     H76492   6.627   0.779   3.207 -2.5580 -3.4551 -1.0550
  567MOL0     H76493   6.664   0.617   3.275 -4.7077 -0.9041 -3.8301
  567MOL0     H76494   6.652   0.623   3.025 -0.1666 -0.4913  0.8596
  567MOL0     H76495   6.764   0.746   3.016 -2.0972  1.7810  2.5003
  567MOL0     H76496   7.005   0.668   2.964  2.1761 -1.3525 -0.7793
  567MOL0     H76497   7.191   0.335   2.974 -2.3897 -0.4119  3.5540
  567MOL0     H76498   7.171   0.472   2.856 -2.4193 -0.6372  0.1667
  567MOL0     H76499   7.286   0.472   3.135 -0.5802  3.0293  1.6468
  567MOL0     H76500   7.380   0.483   2.988 -0.8415 -0.1418  0.0682
  567MOL0     H76501   7.205   0.699   3.125  0.9744  0.1933  1.3336
  567MOL0     H76502   7.246   0.719   2.955 -0.4141  0.5787 -0.7394
  567MOL0     H76503   7.445   0.682   3.174  3.9688  1.5306 -1.3013
  567MOL0     H76504   7.396   0.836   3.093 -1.9675 -0.3082  0.9631
  567MOL0     H76505   7.639   0.505   2.915  0.3911 -1.7979 -0.8143
  567MOL0     H76506   7.869   0.451   2.959  0.4332 -0.2983  2.4544
  567MOL0     H76507   8.261   0.356   2.836  2.2075 -1.8346 -1.0665
  567MOL0     H76508   8.488   0.259   2.884 -0.9275 -2.6605  1.6969
  567MOL0     H76509   8.606   0.251   3.293 -1.5678 -1.0464  0.0244
  567MOL0     H76510   8.560   0.128   3.186  1.4841 -0.9128  1.3732
  567MOL0     H76511   8.800   0.118   3.285  1.4434  2.2374  0.2107
  567MOL0     H76512   8.770   0.078   3.116 -2.1507 -1.1834  1.0862
  567MOL0     H76513   8.869   0.304   3.052  2.9406 -2.1209 -1.8649
  567MOL0     H76514   8.896   0.335   3.232 -0.6483 -1.0315  0.6871
  567MOL0     H76515   9.024   0.091   3.092  1.8021  1.3116 -3.5913
  567MOL0     H76516   9.079   0.190   3.232 -0.5866  0.3538  0.5847
  567MOL0     H76517   9.092   0.376   3.069  2.2106 -0.3036 -0.5039
  567MOL0     H76518   9.055   0.274   2.935 -1.4243  0.1488  0.5721
  567MOL0     H76519   9.284   0.239   3.136 -1.2404 -0.2619  0.9080
  567MOL0     H76520   9.270   0.140   2.989 -1.1662  1.2380 -1.6495
  567MOL0     H76521   9.285   0.447   2.973 -0.8893 -0.4946  0.8763
  567MOL0     H76522   9.331   0.324   2.853  2.1787 -1.6483  0.6887
  567MOL0     H76523   9.509   0.244   3.015  1.3092  0.9143 -1.1424
  567MOL0     H76524   9.524   0.394   2.927  1.2094 -1.5988 -0.2671
  567MOL0     H76525   8.468   0.426   3.274 -0.9889 -0.2488  0.2730
  567MOL0     H76526   8.245   0.486   3.240  0.7700 -1.9285  0.7694
  567MOL0     H76527   7.933   0.828   3.161 -0.3145  1.1154 -0.0783
  567MOL0     H76528   7.669   0.868   3.138 -2.0687 -1.0667 -1.4728
  567MOL0     H76529   7.557   1.050   3.526  3.0918 -1.2769 -0.2526
  567MOL0     H76530   7.763   1.017   3.423 -0.4784 -0.9308 -0.7442
  567MOL0     H76531   8.062   1.001   3.204 -0.2682  1.2186 -0.6127
  567MOL0     H76532   8.286   0.924   3.160 -0.6189 -0.1218 -0.7857
  567MOL0     H76533   8.642   1.000   3.068  0.2152  2.9049 -3.4013
  567MOL0     H76534   8.502   0.982   3.188  0.6369  0.7690  1.9773
  567MOL0     H76535   8.681   1.155   3.255 -0.6543 -0.1569  0.9812
  567MOL0     H76536   8.511   1.205   3.260  1.0603 -3.1558  2.5212
  567MOL0     H76537   8.578   1.328   3.015 -2.0139 -4.2153 -0.9717
  567MOL0     H76538   8.734   1.247   3.052 -0.8133 -0.5742  0.3796
  567MOL0     H76539   8.603   1.469   3.211 -0.5288  1.0247 -0.7776
  567MOL0     H76540   8.757   1.397   3.250 -3.4702 -0.5477  2.1924
  567MOL0     H76541   8.821   1.689   2.952  1.7686 -0.8848  0.1316
  567MOL0     H76542   8.363   1.275   2.925 -0.0269  1.3121  1.4034
  567MOL0     H76543   8.024   1.320   2.826  0.7197 -2.9665 -0.0718
  567MOL0     H76544   8.050   1.431   2.954 -1.3977 -0.5254 -2.0749
  567MOL0     H76545   8.178   1.399   2.836  0.6745  3.8550  2.6540
  568MOL0     O76546   5.268   7.925   9.870  0.0470  0.4757  0.0807
  568MOL0     C76547   5.175   7.994   9.899 -0.3010 -0.0675  0.5627
  568MOL0     O76548   5.181   8.126   9.930 -0.4720 -0.1995 -0.0128
  568MOL0     C76549   5.293   8.208   9.926 -0.0438  0.4114  0.7756
  568MOL0     C76550   5.414   8.178   9.856 -0.0236  0.9020  0.6869
  568MOL0     C76551   5.519   8.268   9.864 -0.3518  0.1813 -0.3172
  568MOL0     C76552   5.510   8.382   9.954 -0.9158 -0.3049  0.1753
  568MOL0     O76553   5.624   8.465   9.957 -0.3290  0.0182 -0.2828
  568MOL0     C76554   5.614   8.591  10.022 -0.3470 -0.0795  0.3218
  568MOL0     C76555   5.748   8.669  10.012 -0.7905  0.4198  0.7236
  568MOL0     C76556   5.809   8.692   9.869  0.2464  0.4036  0.9492
  568MOL0     C76557   5.868   8.564   9.813  0.7401  0.0016  0.0900
  568MOL0     C76558   5.936   8.584   9.681 -0.5603 -0.0691  0.3754
  568MOL0     C76559   6.075   8.653   9.707 -0.1133  0.0231 -0.7394
  568MOL0     C76560   6.162   8.663   9.582  0.6084 -1.0408  0.3226
  568MOL0     C76561   6.303   8.655   9.621  0.0487 -0.2117  0.2627
  568MOL0     N76562   6.350   8.777   9.697  0.1623 -0.4743  0.2856
  568MOL0     C76563   6.391   8.897   9.641 -0.9476  0.1328 -0.0839
  568MOL0     C76564   6.401   8.976   9.757  0.0325 -0.1243 -0.8288
  568MOL0     C76565   6.435   9.120   9.773 -0.3776 -1.1855 -0.1157
  568MOL0     C76566   6.573   9.155   9.824  0.1329 -0.3165 -0.1822
  568MOL0     C76567   6.679   9.094   9.731 -0.3323 -0.3184 -0.4578
  568MOL0     C76568   6.672   9.134   9.585 -0.1294  0.5328 -0.3164
  568MOL0     O76569   6.694   9.276   9.560 -0.0673 -0.8242 -0.6367
  568MOL0     C76570   6.801   9.342   9.626  0.0695  0.0858  0.4644
  568MOL0     C76571   6.792   9.428   9.736  0.1872 -0.8114 -1.3485
  568MOL0     C76572   6.908   9.484   9.794  0.0042 -0.6321  0.4655
  568MOL0     C76573   7.030   9.460   9.740 -0.4952 -0.9604 -0.4334
  568MOL0     C76574   7.152   9.535   9.792  0.2426  0.8617  0.1107
  568MOL0     O76575   7.251   9.549   9.696 -0.2817 -0.5150  0.3535
  568MOL0     C76576   7.372   9.608   9.725 -0.6078  0.4113  0.2975
  568MOL0     C76577   7.388   9.741   9.693 -0.7003  0.2343 -0.0894
  568MOL0     C76578   7.507   9.812   9.713  0.0727  0.2939  0.5997
  568MOL0     C76579   7.624   9.735   9.743  0.0716 -0.0766 -0.7052
  568MOL0     O76580   7.748   9.781   9.756 -0.2488  0.3042  0.1077
  568MOL0     C76581   7.771   9.921   9.737  0.7997  0.0539  0.1847
  568MOL0     C76582   7.905   9.974   9.795  0.6560  0.6688  0.4012
  568MOL0     C76583   7.902   9.974   9.945 -0.1933 -0.5122  0.5898
  568MOL0     C76584   8.043   9.987  10.001 -0.0380  0.7349  0.3602
  568MOL0     C76585   8.035   9.974  10.159  1.7856  0.8098  0.6081
  568MOL0     C76586   8.177  10.004  10.214 -0.0509 -0.7635  0.4709
  568MOL0     C76587   8.265   9.879  10.199  0.1883  0.5540  0.5497
  568MOL0     C76588   8.410   9.907  10.235  0.4606  0.6587 -0.8596
  568MOL0    Cl76589   8.478  10.032  10.141  0.3818  0.2581 -0.1167
  568MOL0     C76590   7.608   9.598   9.779  0.3631  0.2813  0.2961
  568MOL0     C76591   7.487   9.534   9.774  0.3763  0.5000  0.4505
  568MOL0     O76592   7.160   9.563   9.912 -0.0416 -0.2832  0.5611
  568MOL0     C76593   7.039   9.377   9.628 -0.2761  0.0172  0.2289
  568MOL0     C76594   6.922   9.322   9.576  0.6512 -0.4629  0.3816
  568MOL0     N76595   6.357   8.909   9.867 -0.2027  0.6082  0.5836
  568MOL0     N76596   6.334   8.789   9.834  0.3505 -0.0752  0.1053
  568MOL0     C76597   5.400   8.398  10.035 -0.5897 -0.9121 -0.3725
  568MOL0     C76598   5.294   8.313  10.015  0.5397 -0.1097  0.6579
  568MOL0     C76599   5.039   7.933   9.911 -0.3188 -0.2945  0.1133
  568MOL0     C76600   4.932   8.019   9.936 -0.0302  0.0665 -0.1556
  568MOL0     C76601   4.801   7.971   9.951 -0.1066 -0.0396  0.3281
  568MOL0     C76602   4.767   7.833   9.932 -0.1018 -0.5081  0.3351
  568MOL0     O76603   4.642   7.780   9.941 -0.0392  0.4830  0.0521
  568MOL0     C76604   4.533   7.854   9.989 -0.0229  0.6047 -1.3823
  568MOL0     C76605   4.551   7.875  10.138  0.7885 -1.3221  0.8199
  568MOL0     C76606   4.455   7.974  10.213 -0.4245  0.2286  0.4208
  568MOL0     C76607   4.492   7.978  10.369  0.3465  0.0200  0.0733
  568MOL0     C76608   4.611   8.058  10.395 -1.1092  0.2931 -0.0498
  568MOL0     C76609   4.714   8.125  10.401  0.3881  0.1201 -0.0998
  568MOL0     C76610   4.872   7.748   9.911 -0.0186 -0.0183  0.1610
  568MOL0     C76611   5.005   7.800   9.893  0.3816  0.5263 -1.2101
  568MOL0     C76612   5.113   7.698   9.858  0.5393  0.6756  0.5406
  568MOL0     H76613   5.435   8.088   9.799  0.2385 -0.2385  2.4840
  568MOL0     H76614   5.609   8.261   9.805 -0.2332 -1.1407 -0.0272
  568MOL0     H76615   5.524   8.649  10.002 -2.6181 -3.1733  0.8841
  568MOL0     H76616   5.608   8.574  10.130  1.9116 -0.9818  0.3607
  568MOL0     H76617   5.816   8.619  10.081  0.1280 -0.3448 -0.6871
  568MOL0     H76618   5.725   8.770  10.047 -1.7561  0.1787  0.8118
  568MOL0     H76619   5.892   8.763   9.878  0.5689 -0.2331  4.1734
  568MOL0     H76620   5.748   8.742   9.793 -0.2519 -0.4547  0.7741
  568MOL0     H76621   5.934   8.521   9.889  0.7033  0.1176  0.1884
  568MOL0     H76622   5.781   8.500   9.794 -0.2561  1.4417 -0.3745
  568MOL0     H76623   5.953   8.485   9.640 -2.7278 -0.7606  1.0030
  568MOL0     H76624   5.869   8.637   9.612 -3.9905  0.4199  3.7220
  568MOL0     H76625   6.067   8.755   9.746  0.3104  0.9581 -2.9347
  568MOL0     H76626   6.134   8.591   9.775  1.5805  0.2148 -1.9787
  568MOL0     H76627   6.144   8.759   9.533  2.7657  0.1286  1.6516
  568MOL0     H76628   6.152   8.584   9.507 -0.7430 -0.0040 -0.6411
  568MOL0     H76629   6.321   8.572   9.690  0.3849  0.4263  0.9586
  568MOL0     H76630   6.365   8.637   9.532  0.4506  0.7532  0.3376
  568MOL0     H76631   6.410   8.919   9.536  0.5904  2.0599  0.5490
  568MOL0     H76632   6.418   9.176   9.680  0.1235  0.1277  0.5532
  568MOL0     H76633   6.386   9.170   9.857  3.2691  0.9571  0.9699
  568MOL0     H76634   6.581   9.264   9.830 -1.4699 -0.2469  1.5780
  568MOL0     H76635   6.599   9.124   9.926  3.6110  1.8352 -0.2513
  568MOL0     H76636   6.674   8.985   9.735  0.4273 -0.5494 -3.5779
  568MOL0     H76637   6.776   9.124   9.772 -1.1512 -1.3384  2.4774
  568MOL0     H76638   6.570   9.117   9.548  0.3152 -1.8416 -0.5609
  568MOL0     H76639   6.739   9.079   9.519  2.8500  2.8516  0.5286
  568MOL0     H76640   6.696   9.456   9.777 -0.2558 -0.9065 -2.2966
  568MOL0     H76641   6.885   9.551   9.877 -1.7250 -1.2708  0.5417
  568MOL0     H76642   7.295   9.789   9.665 -2.2953 -2.7525 -0.3279
  568MOL0     H76643   7.514   9.915   9.680  0.3506 -0.3750 -1.5590
  568MOL0     H76644   7.750   9.943   9.632 -2.6772  0.3274  0.8177
  568MOL0     H76645   7.698   9.975   9.799 -0.5558 -1.6106  0.1163
  568MOL0     H76646   7.989   9.918   9.754 -0.6319  1.2093 -3.4078
  568MOL0     H76647   7.911  10.080   9.768  1.3847  0.6457  0.4471
  568MOL0     H76648   7.847  10.062   9.981 -0.4764 -0.6353  0.4537
  568MOL0     H76649   7.859   9.879   9.979  2.0869 -2.7144 -2.2007
  568MOL0     H76650   8.087  10.084   9.977  1.0813  0.9067  2.7907
  568MOL0     H76651   8.108   9.918   9.948 -0.0786  0.2853  0.8810
  568MOL0     H76652   8.013   9.867  10.172 -0.8447  1.2159 -0.1252
  568MOL0     H76653   7.949  10.025  10.202  1.3852 -1.4538  2.7639
  568MOL0     H76654   8.224  10.091  10.166 -0.4564 -0.2482  1.0030
  568MOL0     H76655   8.175  10.024  10.321  1.2630 -0.9132  0.5439
  568MOL0     H76656   8.247   9.838  10.099  0.2329  1.3701  0.1965
  568MOL0     H76657   8.233   9.806  10.274  1.5987 -2.1624 -1.3167
  568MOL0     H76658   8.424   9.945  10.337  1.0007  1.4449 -1.2208
  568MOL0     H76659   8.471   9.816  10.240 -0.5486  0.0336  0.8081
  568MOL0     H76660   7.697   9.549   9.818  3.6462  5.3582  0.1099
  568MOL0     H76661   7.477   9.430   9.802  0.6974 -0.0128 -1.2621
  568MOL0     H76662   7.129   9.355   9.572 -0.5264  0.6620 -0.4306
  568MOL0     H76663   6.935   9.247   9.498  2.0164  1.0188 -0.8675
  568MOL0     H76664   5.380   8.473  10.111  1.3638 -0.7839  0.0586
  568MOL0     H76665   5.204   8.319  10.075 -2.1466 -0.7054 -2.9688
  568MOL0     H76666   4.952   8.126   9.936  0.6983 -0.0677 -0.5895
  568MOL0     H76667   4.727   8.046   9.976 -1.5427 -0.4223 -2.4271
  568MOL0     H76668   4.443   7.792   9.987  0.1295  0.3068 -0.0296
  568MOL0     H76669   4.514   7.944   9.930  2.5147  0.6311 -2.3176
  568MOL0     H76670   4.654   7.908  10.155  0.4819  0.8693 -1.0261
  568MOL0     H76671   4.541   7.776  10.183  1.1293 -1.6363  0.2115
  568MOL0     H76672   4.349   7.946  10.207 -0.2237 -0.2828 -1.1830
  568MOL0     H76673   4.464   8.069  10.161 -1.8986  0.2905  0.2433
  568MOL0     H76674   4.408   8.006  10.433 -1.1379  1.1828 -2.2482
  568MOL0     H76675   4.509   7.877  10.406 -2.8923 -0.8957 -0.6871
  568MOL0     H76676   4.802   8.185  10.407  0.5554 -0.2301  3.6074
  568MOL0     H76677   4.853   7.641   9.910  2.2036 -0.4935 -1.9112
  568MOL0     H76678   5.091   7.592   9.842 -0.0533  0.8893 -0.0959
  568MOL0     H76679   5.168   7.717   9.765 -0.7667  0.6382 -0.2543
  568MOL0     H76680   5.189   7.702   9.937  3.6065 -1.1650 -2.0289
  569MOL0     O76681   7.022   6.380  11.247 -0.6782 -0.6496  0.7402
  569MOL0     C76682   6.915   6.436  11.221  0.8352  0.6264  0.5060
  569MOL0     O76683   6.882   6.561  11.248 -0.5736 -0.1309 -0.0246
  569MOL0     C76684   6.989   6.649  11.265  0.7298 -0.0181  0.9021
  569MOL0     C76685   7.055   6.652  11.387  0.2487 -0.4834 -0.5564
  569MOL0     C76686   7.159   6.738  11.409 -0.9844  0.9510 -1.0012
  569MOL0     C76687   7.209   6.820  11.310  0.4764 -0.2148 -0.7719
  569MOL0     O76688   7.325   6.897  11.316  0.5076 -0.3992 -0.0692
  569MOL0     C76689   7.382   6.918  11.446  0.4539 -0.1496  0.6839
  569MOL0     C76690   7.518   6.999  11.440  0.3793 -0.2596  0.5152
  569MOL0     C76691   7.644   6.912  11.422 -0.1208 -0.2480  0.2571
  569MOL0     C76692   7.777   6.950  11.504 -0.3196 -0.2173  0.2817
  569MOL0     C76693   7.904   6.937  11.409 -0.1963  0.6261  0.3228
  569MOL0     C76694   8.012   7.029  11.474 -0.1280  0.1532 -0.2100
  569MOL0     C76695   8.069   6.962  11.597  0.4048  0.3446 -0.2240
  569MOL0     C76696   8.132   7.057  11.695  0.1197 -0.1716 -0.0238
  569MOL0     N76697   8.252   7.114  11.629  0.0194  0.9252 -0.8104
  569MOL0     C76698   8.359   7.032  11.598 -0.6536 -0.3766  0.6538
  569MOL0     C76699   8.440   7.115  11.523 -0.0412  0.0639  0.6553
  569MOL0     C76700   8.585   7.093  11.476 -0.4002  0.2453  0.3427
  569MOL0     C76701   8.683   7.105  11.589  0.1930 -0.0890  0.4535
  569MOL0     C76702   8.669   6.995  11.697  0.6644 -0.1874  0.4090
  569MOL0     C76703   8.795   6.966  11.784  0.2402 -0.3315  0.5921
  569MOL0     O76704   8.802   7.047  11.903 -0.4541  0.4035 -0.0625
  569MOL0     C76705   8.923   7.059  11.973 -0.3423 -1.0433  0.6521
  569MOL0     C76706   9.035   6.971  11.954  0.5090 -1.5380 -0.3549
  569MOL0     C76707   9.150   6.978  12.029  0.1355 -0.2057 -0.6809
  569MOL0     C76708   9.169   7.089  12.118  0.3550 -0.0562 -0.7152
  569MOL0     C76709   9.296   7.089  12.204  0.7651  0.0983 -1.0780
  569MOL0     O76710   9.396   6.999  12.172  0.3291  0.7022 -0.5239
  569MOL0     C76711   9.511   6.978  12.251 -0.3586 -0.5720 -0.3318
  569MOL0     C76712   9.535   7.033  12.381  0.1522 -0.7216  0.1796
  569MOL0     C76713   9.658   7.005  12.441  0.9461 -0.8033  0.7424
  569MOL0     C76714   9.756   6.926  12.383 -0.5515  0.8520  0.0122
  569MOL0     O76715   9.867   6.901  12.457  0.6036  0.3009 -0.2123
  569MOL0     C76716   9.938   6.784  12.430  0.2502 -0.0275 -0.4309
  569MOL0     C76717  10.051   6.779  12.538 -0.9332  0.2309  0.7223
  569MOL0     C76718  10.147   6.656  12.513  0.2152  0.1501  0.8124
  569MOL0     C76719  10.261   6.655  12.624  0.1866  0.0080  0.7255
  569MOL0     C76720  10.361   6.540  12.588 -0.2361  0.1930 -0.2338
  569MOL0     C76721  10.487   6.547  12.670 -0.1572  0.0091 -0.6980
  569MOL0     C76722  10.606   6.468  12.620  0.1600 -0.3715  0.4353
  569MOL0     C76723  10.615   6.339  12.685  0.5330  0.3010  0.7270
  569MOL0    Cl76724  10.758   6.248  12.643  0.1399 -0.4455 -0.0074
  569MOL0     C76725   9.728   6.864  12.255 -0.4799  0.6160 -0.2350
  569MOL0     C76726   9.612   6.904  12.188 -0.5184  0.5506 -0.1765
  569MOL0     O76727   9.295   7.165  12.305 -0.2572 -0.1360 -0.3126
  569MOL0     C76728   9.064   7.180  12.132  0.3449 -0.2203 -0.5666
  569MOL0     C76729   8.941   7.168  12.062 -0.0016 -0.0129  0.1446
  569MOL0     N76730   8.381   7.235  11.505 -0.5314  0.2152  0.2336
  569MOL0     N76731   8.271   7.235  11.571 -0.0453  0.3509  0.4594
  569MOL0     C76732   7.127   6.834  11.193 -0.3427  1.2888 -0.4529
  569MOL0     C76733   7.022   6.750  11.165 -0.3567 -0.1411 -0.9569
  569MOL0     C76734   6.805   6.342  11.170  0.0583 -0.5373  0.3791
  569MOL0     C76735   6.833   6.208  11.161  0.8064  0.4853  0.7292
  569MOL0     C76736   6.735   6.106  11.128 -0.1558 -0.5141  0.5209
  569MOL0     C76737   6.616   6.156  11.079 -1.0849  0.1526 -0.3693
  569MOL0     O76738   6.542   6.049  11.022 -0.0665  0.7391 -0.9883
  569MOL0     C76739   6.413   6.084  10.961  0.1105  0.8518 -0.7597
  569MOL0     C76740   6.346   5.950  10.934 -1.6700 -0.1462  0.6282
  569MOL0     C76741   6.204   5.960  10.883 -0.1793  0.3573  0.1274
  569MOL0     C76742   6.191   5.873  10.761  0.0896 -0.2614  0.6334
  569MOL0     C76743   6.071   5.922  10.690  0.5362  0.0846 -0.1482
  569MOL0     C76744   5.968   5.968  10.643  0.2898 -0.1207  0.9416
  569MOL0     C76745   6.575   6.291  11.094  0.6147 -0.5236  0.5464
  569MOL0     C76746   6.670   6.385  11.133 -0.0399 -0.4722  0.5149
  569MOL0     C76747   6.624   6.534  11.134  1.0584  0.5437  0.6591
  569MOL0     H76748   7.023   6.593  11.472 -2.1086  0.2954 -0.8322
  569MOL0     H76749   7.200   6.730  11.509 -1.5631  1.9763 -0.6692
  569MOL0     H76750   7.305   6.976  11.498 -1.4133 -0.5135 -1.5227
  569MOL0     H76751   7.398   6.824  11.499 -0.4625 -0.6650  0.0714
  569MOL0     H76752   7.527   7.055  11.533  0.7398 -0.4477  0.5964
  569MOL0     H76753   7.506   7.071  11.359  0.9128  0.9187  1.4550
  569MOL0     H76754   7.669   6.915  11.316 -0.3341  0.3253  0.2195
  569MOL0     H76755   7.612   6.815  11.461 -2.0190  0.3032  0.1739
  569MOL0     H76756   7.774   7.056  11.529  0.6896 -0.0145 -0.4033
  569MOL0     H76757   7.802   6.887  11.589  0.3896 -1.7140 -0.9879
  569MOL0     H76758   7.939   6.834  11.398 -1.1656  0.1583  1.3481
  569MOL0     H76759   7.881   6.971  11.308  1.2157 -0.5002 -0.4080
  569MOL0     H76760   8.108   7.029  11.421  0.0810 -5.0981 -0.3649
  569MOL0     H76761   7.977   7.130  11.497 -0.7130  0.8535 -3.7050
  569MOL0     H76762   8.143   6.890  11.562  0.1855 -0.6466  1.2656
  569MOL0     H76763   7.992   6.910  11.654 -0.5296  0.0583 -1.6885
  569MOL0     H76764   8.066   7.138  11.727 -0.0238  0.2612 -1.3252
  569MOL0     H76765   8.158   6.993  11.779 -0.7438  1.5266  1.6162
  569MOL0     H76766   8.385   6.934  11.638 -1.0434 -0.3202  1.0558
  569MOL0     H76767   8.614   7.000  11.425  1.2060  1.3469 -0.8472
  569MOL0     H76768   8.598   7.173  11.402  0.7786  0.0654  0.3283
  569MOL0     H76769   8.784   7.100  11.547 -1.4227 -2.8091 -3.7602
  569MOL0     H76770   8.651   7.197  11.638 -0.2865 -0.0021 -0.0148
  569MOL0     H76771   8.631   6.908  11.642 -0.0627  0.0289  0.5534
  569MOL0     H76772   8.597   7.017  11.777 -1.7315 -1.7568 -1.1787
  569MOL0     H76773   8.888   6.983  11.728 -0.3578  0.4412 -0.1906
  569MOL0     H76774   8.789   6.860  11.807 -0.6343 -0.3535  0.3126
  569MOL0     H76775   9.026   6.894  11.879 -1.2637 -1.5441 -0.1908
  569MOL0     H76776   9.220   6.895  12.023  0.7848 -0.0261  2.4446
  569MOL0     H76777   9.483   7.106  12.442  1.6954  1.1968 -0.6816
  569MOL0     H76778   9.671   7.054  12.536  1.5646 -1.8881  1.2420
  569MOL0     H76779   9.882   6.691  12.439  1.1320 -0.3871  2.2474
  569MOL0     H76780   9.974   6.784  12.326 -1.9449 -0.6459 -1.2502
  569MOL0     H76781  10.112   6.870  12.533 -1.8183  0.8047 -3.0895
  569MOL0     H76782  10.015   6.771  12.641 -0.1332 -1.1288  0.9089
  569MOL0     H76783  10.087   6.565  12.514  0.1100  0.0610 -2.5689
  569MOL0     H76784  10.197   6.647  12.416  2.6264  1.3816  1.8316
  569MOL0     H76785  10.218   6.633  12.722 -0.4415 -2.4485 -0.0190
  569MOL0     H76786  10.309   6.752  12.632 -1.0244  0.5908  1.2242
  569MOL0     H76787  10.385   6.552  12.482 -4.0967 -0.4642 -1.3204
  569MOL0     H76788  10.310   6.444  12.603  2.5593 -1.2715  0.5107
  569MOL0     H76789  10.521   6.651  12.669  1.2440 -0.3976  0.7623
  569MOL0     H76790  10.472   6.516  12.774 -1.6793  1.2368 -0.5120
  569MOL0     H76791  10.694   6.532  12.625 -2.1323  3.1809 -0.8788
  569MOL0     H76792  10.594   6.456  12.512 -2.2498  2.6963  0.2217
  569MOL0     H76793  10.613   6.350  12.794 -1.2696 -2.5079  1.0906
  569MOL0     H76794  10.526   6.285  12.652 -0.0148  0.7790  1.3923
  569MOL0     H76795   9.785   6.792  12.198  1.4567  2.0088 -0.1411
  569MOL0     H76796   9.596   6.857  12.091 -1.0519  1.1951 -0.4071
  569MOL0     H76797   9.077   7.262  12.202  0.2874 -1.4565  0.9203
  569MOL0     H76798   8.861   7.241  12.075 -1.8878 -1.9343 -0.0688
  569MOL0     H76799   7.150   6.908  11.116  2.6426  2.7036  1.6034
  569MOL0     H76800   6.968   6.753  11.071 -2.1453 -2.5443 -0.1014
  569MOL0     H76801   6.934   6.172  11.182  0.5227 -1.1133 -0.4958
  569MOL0     H76802   6.762   6.001  11.131  0.3165 -0.3681  2.3495
  569MOL0     H76803   6.426   6.155  10.879  2.8423  2.3533  0.8402
  569MOL0     H76804   6.355   6.131  11.040 -0.7648 -0.3846 -0.6316
  569MOL0     H76805   6.345   5.892  11.027 -2.8041 -0.5523  0.3835
  569MOL0     H76806   6.400   5.891  10.859 -1.3032  1.1453 -0.1438
  569MOL0     H76807   6.192   6.062  10.846  4.7611  1.0809 -0.1627
  569MOL0     H76808   6.120   5.937  10.949 -0.6066  1.4746 -0.0067
  569MOL0     H76809   6.266   5.892  10.684 -0.3165 -1.1041  0.0176
  569MOL0     H76810   6.175   5.766  10.779  0.1082 -0.7161 -1.7401
  569MOL0     H76811   5.882   6.008  10.594 -0.1646  0.8357  2.4458
  569MOL0     H76812   6.474   6.320  11.066  0.2389 -0.6128  1.7508
  569MOL0     H76813   6.703   6.587  11.080 -0.8439  1.2836 -1.5464
  569MOL0     H76814   6.525   6.550  11.090  1.7634  3.3403 -0.1275
  569MOL0     H76815   6.614   6.579  11.234  1.8666 -0.4513  1.2076
  570MOL0     O76816   6.482   1.069   7.854 -0.6817  1.0677 -0.5320
  570MOL0     C76817   6.530   0.962   7.817 -0.1141 -0.3288 -0.3962
  570MOL0     O76818   6.469   0.849   7.834  0.7105  0.1100  0.3901
  570MOL0     C76819   6.337   0.838   7.862 -0.3313  0.2693 -0.1682
  570MOL0     C76820   6.299   0.756   7.968  0.3677  0.2704  0.4541
  570MOL0     C76821   6.167   0.740   7.987  0.7504  0.4962 -0.4501
  570MOL0     C76822   6.065   0.799   7.909 -0.9264 -0.1030  0.5486
  570MOL0     O76823   5.933   0.776   7.940  0.1225 -0.3768 -0.1519
  570MOL0     C76824   5.895   0.641   7.917  1.3061  0.5084 -0.3299
  570MOL0     C76825   5.738   0.634   7.924  0.0748 -0.2487  0.7226
  570MOL0     C76826   5.662   0.666   8.056 -0.2191 -0.4026 -0.5308
  570MOL0     C76827   5.713   0.578   8.168  0.6701 -0.3946 -1.5690
  570MOL0     C76828   5.645   0.632   8.303 -0.0191  0.5031  0.6807
  570MOL0     C76829   5.684   0.551   8.431 -0.0871 -1.2444  0.9586
  570MOL0     C76830   5.659   0.400   8.418  0.3929 -0.3440  0.4386
  570MOL0     C76831   5.682   0.331   8.541 -0.6476 -0.0006  0.5625
  570MOL0     N76832   5.831   0.320   8.574  0.5156  0.1389 -0.4094
  570MOL0     C76833   5.923   0.244   8.500 -0.0372 -1.2571 -0.4399
  570MOL0     C76834   6.041   0.250   8.558 -0.3428 -0.1095 -0.0456
  570MOL0     C76835   6.171   0.199   8.500  0.1282  0.2874  0.3389
  570MOL0     C76836   6.267   0.164   8.611 -0.6730 -0.3013 -0.1372
  570MOL0     C76837   6.406   0.122   8.565 -0.0708  0.2587 -0.5958
  570MOL0     C76838   6.403   0.014   8.452 -0.2181  0.0955  0.0549
  570MOL0     O76839   6.376   0.064   8.316  1.0370 -0.2665  0.0697
  570MOL0     C76840   6.462   0.154   8.261 -0.3849 -0.3823 -0.4496
  570MOL0     C76841   6.404   0.205   8.147 -0.3371  0.2845 -0.0630
  570MOL0     C76842   6.486   0.268   8.051 -0.3124 -0.6136  0.7386
  570MOL0     C76843   6.622   0.289   8.080 -0.2829 -0.0287 -0.5049
  570MOL0     C76844   6.712   0.366   7.996 -0.4860 -0.6268  0.3540
  570MOL0     O76845   6.843   0.344   8.011  0.2156  0.5204  0.8396
  570MOL0     C76846   6.929   0.439   7.948 -0.7232  0.2191 -0.5027
  570MOL0     C76847   7.003   0.528   8.029  0.1665 -0.6336 -0.9050
  570MOL0     C76848   7.094   0.614   7.978 -0.4596 -0.1244 -0.5405
  570MOL0     C76849   7.113   0.620   7.842 -0.7085  0.7267  0.4282
  570MOL0     O76850   7.202   0.702   7.775  0.0097 -0.4725 -0.2446
  570MOL0     C76851   7.318   0.744   7.845  0.3986  0.5204  0.4536
  570MOL0     C76852   7.303   0.866   7.933  0.2611  0.2660  0.5069
  570MOL0     C76853   7.440   0.945   7.935  0.0221  0.4426 -0.9438
  570MOL0     C76854   7.536   0.883   8.037 -0.2026 -0.5242  1.4445
  570MOL0     C76855   7.659   0.973   8.036 -0.1430 -0.4205  0.0054
  570MOL0     C76856   7.722   0.991   7.895 -0.8833  0.2734 -0.0494
  570MOL0     C76857   7.875   0.985   7.898 -0.1088  0.5245  0.1448
  570MOL0     C76858   7.923   0.839   7.909 -0.1619  0.0434 -1.2110
  570MOL0    Cl76859   8.102   0.830   7.900  0.1351  0.2771 -0.0098
  570MOL0     C76860   7.039   0.532   7.758 -1.0237 -0.5199  0.5081
  570MOL0     C76861   6.947   0.442   7.808 -0.0135 -0.0056  0.2053
  570MOL0     O76862   6.664   0.446   7.918  0.7347  0.2397  0.1238
  570MOL0     C76863   6.669   0.234   8.201  0.7905  0.2144  0.0073
  570MOL0     C76864   6.594   0.171   8.295  0.5225 -0.1076 -0.1463
  570MOL0     N76865   6.020   0.326   8.676 -0.0062  0.5279 -0.1400
  570MOL0     N76866   5.900   0.371   8.688  1.0542  0.1017  0.1886
  570MOL0     C76867   6.104   0.870   7.791 -1.3115 -0.4986  0.5917
  570MOL0     C76868   6.245   0.899   7.774  0.3477  0.2036 -0.7066
  570MOL0     C76869   6.662   0.979   7.739  0.9031  0.4408 -0.1700
  570MOL0     C76870   6.742   1.095   7.754 -1.1718 -0.0448  0.6938
  570MOL0     C76871   6.866   1.112   7.693 -0.6129 -0.0708  0.4391
  570MOL0     C76872   6.934   1.001   7.636 -0.3880 -0.2292  0.5202
  570MOL0     O76873   7.066   1.023   7.592  0.9784  0.6775  0.0100
  570MOL0     C76874   7.141   0.908   7.553 -0.3370  0.1174  0.1703
  570MOL0     C76875   7.179   0.919   7.402 -0.5061  0.5452 -0.3964
  570MOL0     C76876   7.311   0.839   7.368 -0.2920  0.2607 -0.1409
  570MOL0     C76877   7.434   0.923   7.321  0.7059  0.7871  0.7601
  570MOL0     C76878   7.534   0.936   7.427 -0.6993 -0.3842  0.6327
  570MOL0     C76879   7.624   0.921   7.508  0.1414 -0.2575  0.7567
  570MOL0     C76880   6.857   0.892   7.607 -0.1426  0.0677  0.1934
  570MOL0     C76881   6.723   0.876   7.661 -0.7817  0.5331  0.0173
  570MOL0     C76882   6.645   0.750   7.622  0.1555  0.2239  0.6742
  570MOL0     H76883   6.380   0.730   8.035  0.4220  0.3580  0.4241
  570MOL0     H76884   6.136   0.689   8.077 -0.2329  2.5390  0.4291
  570MOL0     H76885   5.925   0.612   7.816  0.1103 -5.1698  0.5901
  570MOL0     H76886   5.928   0.562   7.985 -0.9441 -0.0387  0.2093
  570MOL0     H76887   5.707   0.542   7.874  2.0578 -0.5192 -0.0795
  570MOL0     H76888   5.696   0.712   7.859  2.2146 -0.6522 -1.2502
  570MOL0     H76889   5.556   0.656   8.031 -1.0205  3.0760  0.8920
  570MOL0     H76890   5.676   0.773   8.074 -3.0121 -0.2787  1.5697
  570MOL0     H76891   5.680   0.477   8.142 -0.0257 -0.2403 -1.2793
  570MOL0     H76892   5.822   0.576   8.178  0.8060 -0.4587 -2.9225
  570MOL0     H76893   5.668   0.739   8.307 -2.3715  1.0626  0.7081
  570MOL0     H76894   5.538   0.625   8.284 -0.2251 -0.1907  2.0270
  570MOL0     H76895   5.792   0.562   8.446 -0.0575 -0.5248  0.2734
  570MOL0     H76896   5.636   0.583   8.524 -1.7251  0.3365 -0.3451
  570MOL0     H76897   5.713   0.357   8.333 -0.3162 -2.9060  1.2047
  570MOL0     H76898   5.550   0.398   8.411  0.3395  1.6298 -0.0717
  570MOL0     H76899   5.616   0.366   8.621 -4.3338 -2.5060 -1.1022
  570MOL0     H76900   5.650   0.228   8.522  0.2407 -0.1479 -0.1892
  570MOL0     H76901   5.889   0.210   8.403  1.1930  0.2673 -1.4561
  570MOL0     H76902   6.147   0.119   8.430  2.9245 -0.7660  0.4386
  570MOL0     H76903   6.212   0.279   8.437 -0.4925  1.4173  1.3262
  570MOL0     H76904   6.280   0.246   8.682  2.8806 -0.8918  0.0834
  570MOL0     H76905   6.228   0.079   8.668  0.9965 -0.3796  0.9575
  570MOL0     H76906   6.447   0.068   8.651  1.4802  0.0212 -1.4358
  570MOL0     H76907   6.474   0.205   8.546  3.1363 -2.2074 -0.8479
  570MOL0     H76908   6.331  -0.067   8.467 -1.4505  1.4748  2.0960
  570MOL0     H76909   6.504  -0.026   8.447 -0.5738 -0.6520 -2.3044
  570MOL0     H76910   6.298   0.185   8.131 -0.2619 -0.9635  0.8499
  570MOL0     H76911   6.448   0.299   7.955 -0.8616 -1.3491  0.7091
  570MOL0     H76912   6.985   0.523   8.136 -0.3071 -0.2051 -0.9605
  570MOL0     H76913   7.151   0.673   8.049  0.4616  1.2687 -2.3507
  570MOL0     H76914   7.359   0.658   7.900  1.5793 -1.3278 -2.9806
  570MOL0     H76915   7.397   0.771   7.774  0.0375 -1.0181 -0.5815
  570MOL0     H76916   7.227   0.930   7.886  1.3507  0.4673 -1.0384
  570MOL0     H76917   7.261   0.838   8.031  0.5407  0.2334  0.6175
  570MOL0     H76918   7.479   0.947   7.832  0.9608 -2.3572 -0.7278
  570MOL0     H76919   7.405   1.045   7.961  0.2131  1.0761 -2.9273
  570MOL0     H76920   7.564   0.779   8.019  1.7322  0.0592  0.8432
  570MOL0     H76921   7.492   0.889   8.137  0.5700 -0.5442  1.7927
  570MOL0     H76922   7.736   0.940   8.107 -1.7892 -0.8213  1.6685
  570MOL0     H76923   7.635   1.073   8.073 -0.6463 -0.7352  0.5432
  570MOL0     H76924   7.686   0.913   7.828  0.4734 -0.6583  0.2704
  570MOL0     H76925   7.698   1.090   7.856  1.4592  0.9938  0.1796
  570MOL0     H76926   7.925   1.049   7.971 -1.4911  0.0924  1.5300
  570MOL0     H76927   7.892   1.019   7.795  0.5171  1.5508  0.5706
  570MOL0     H76928   7.906   0.790   8.005  1.0313  1.7070 -0.0958
  570MOL0     H76929   7.883   0.778   7.827 -1.1584 -1.2415  0.1667
  570MOL0     H76930   7.059   0.532   7.651  0.8797  0.3730  0.8260
  570MOL0     H76931   6.889   0.384   7.737  0.3388  0.5399 -0.5486
  570MOL0     H76932   6.776   0.248   8.214  0.8759  2.1864 -2.0905
  570MOL0     H76933   6.636   0.123   8.384  0.7094 -0.9353 -0.6694
  570MOL0     H76934   6.034   0.903   7.716 -1.1390 -2.7178 -0.6233
  570MOL0     H76935   6.276   0.960   7.690 -1.4945  1.3098 -0.6294
  570MOL0     H76936   6.696   1.174   7.812  0.2895 -0.3598  2.3783
  570MOL0     H76937   6.919   1.205   7.703 -0.4419 -0.1053 -0.1584
  570MOL0     H76938   7.089   0.812   7.562 -1.3303  0.5274 -1.0256
  570MOL0     H76939   7.231   0.902   7.616  1.9290  0.0200 -2.8527
  570MOL0     H76940   7.188   1.027   7.390  0.1997  0.7981  2.0321
  570MOL0     H76941   7.102   0.885   7.332 -2.5355  0.2891  1.8559
  570MOL0     H76942   7.289   0.767   7.288 -0.5185  1.5986 -1.3108
  570MOL0     H76943   7.348   0.778   7.451  0.7561  2.7908  1.3671
  570MOL0     H76944   7.473   0.859   7.242 -0.7999 -1.8404  2.0107
  570MOL0     H76945   7.404   1.019   7.278  1.6308  0.5693 -0.3996
  570MOL0     H76946   7.696   0.911   7.587  1.5598  0.7560 -0.3652
  570MOL0     H76947   6.894   0.815   7.540 -0.5563  0.6070 -0.6752
  570MOL0     H76948   6.537   0.757   7.610  0.2431  1.0624  0.3134
  570MOL0     H76949   6.680   0.716   7.525  1.9604  1.6088  0.7682
  570MOL0     H76950   6.655   0.664   7.689 -1.2678  0.4810  1.2685
  571MOL0     O76951   4.024   0.065   9.630 -0.0637 -0.6655 -0.3852
  571MOL0     C76952   3.981  -0.041   9.671  0.7238 -0.4040  0.2660
  571MOL0     O76953   4.049  -0.129   9.753 -0.3977  0.2354 -0.0383
  571MOL0     C76954   4.168  -0.097   9.812 -0.6214 -0.0012 -0.1497
  571MOL0     C76955   4.256  -0.199   9.838 -0.1264  0.4437  0.7087
  571MOL0     C76956   4.387  -0.175   9.869  0.5733 -0.2646 -0.4108
  571MOL0     C76957   4.433  -0.045   9.911 -0.8249 -0.5952 -0.1504
  571MOL0     O76958   4.554  -0.004   9.973 -0.5112  0.5771  0.1292
  571MOL0     C76959   4.624  -0.106  10.058  0.4782 -0.2636  0.2522
  571MOL0     C76960   4.752  -0.048  10.122 -0.2683 -1.0884 -0.1059
  571MOL0     C76961   4.875  -0.055  10.028 -0.2537 -0.4941 -0.3463
  571MOL0     C76962   4.891   0.061   9.932 -0.4278 -0.4758  0.1110
  571MOL0     C76963   5.024   0.052   9.867 -0.4946  0.4556  0.3632
  571MOL0     C76964   5.018  -0.048   9.753 -0.3279 -0.4154  0.7876
  571MOL0     C76965   5.155  -0.048   9.684  0.2656 -1.2141  0.5667
  571MOL0     C76966   5.148  -0.143   9.571  0.1147 -0.2374  0.5720
  571MOL0     N76967   5.283  -0.154   9.512 -0.0069 -0.4750 -0.2703
  571MOL0     C76968   5.349  -0.065   9.426  0.2570 -0.5614  0.3815
  571MOL0     C76969   5.476  -0.115   9.419 -0.6238  0.3823 -0.6266
  571MOL0     C76970   5.588  -0.047   9.345  0.4261 -0.3667 -0.8239
  571MOL0     C76971   5.658   0.064   9.435 -1.0156 -0.1312  0.3653
  571MOL0     C76972   5.809   0.094   9.430  0.0665 -0.5738  0.1600
  571MOL0     C76973   5.850   0.192   9.325  0.8584  0.0292 -0.6015
  571MOL0     O76974   5.907   0.112   9.219 -0.4888  0.5798  0.9398
  571MOL0     C76975   6.036   0.148   9.176 -0.0707  0.4687 -0.3566
  571MOL0     C76976   6.152   0.138   9.261  0.3360 -0.3679  0.7019
  571MOL0     C76977   6.281   0.164   9.216 -1.6119 -0.2532 -0.0226
  571MOL0     C76978   6.294   0.217   9.088 -0.1275  0.3922  0.0766
  571MOL0     C76979   6.435   0.233   9.040  0.8036  0.3270 -0.0364
  571MOL0     O76980   6.454   0.232   8.905 -0.2853 -0.1432  0.0999
  571MOL0     C76981   6.587   0.248   8.854  0.2141  0.0562 -0.8042
  571MOL0     C76982   6.678   0.149   8.863 -0.4863  1.0339 -0.1416
  571MOL0     C76983   6.799   0.146   8.778  0.2049 -0.9278  0.3295
  571MOL0     C76984   6.823   0.260   8.700 -1.1348  0.1806  0.0589
  571MOL0     O76985   6.947   0.256   8.635 -0.2862  0.7929  0.1631
  571MOL0     C76986   6.945   0.328   8.515 -0.4460 -0.3816  0.2305
  571MOL0     C76987   7.083   0.320   8.451 -0.9123  0.1710  0.4644
  571MOL0     C76988   7.200   0.349   8.550  0.3495  0.1759 -0.0459
  571MOL0     C76989   7.333   0.370   8.495 -1.0433  0.1314 -0.3360
  571MOL0     C76990   7.401   0.244   8.426  0.3972 -0.8151 -0.2374
  571MOL0     C76991   7.411   0.128   8.525  0.8659 -0.0981 -0.1515
  571MOL0     C76992   7.497   0.017   8.483  0.4890  0.0625  1.1304
  571MOL0     C76993   7.437  -0.060   8.364  0.1312 -1.1668 -0.3780
  571MOL0    Cl76994   7.276  -0.124   8.413  0.4562 -0.4209  0.1148
  571MOL0     C76995   6.726   0.367   8.701 -0.4818  0.2406 -0.4270
  571MOL0     C76996   6.616   0.370   8.786 -0.6691  0.0508  0.1451
  571MOL0     O76997   6.522   0.257   9.126  0.6547 -0.1818  0.2807
  571MOL0     C76998   6.180   0.254   9.014 -0.3218 -0.0301 -0.3212
  571MOL0     C76999   6.057   0.202   9.054  0.1374  0.5643  0.1208
  571MOL0     N77000   5.490  -0.235   9.496 -0.9524  0.5564  0.6834
  571MOL0     N77001   5.372  -0.249   9.553 -0.7879  0.0856  0.1405
  571MOL0     C77002   4.340   0.063   9.904  0.3482  0.0428  0.5735
  571MOL0     C77003   4.207   0.039   9.852 -0.7170 -0.0152  0.5909
  571MOL0     C77004   3.835  -0.069   9.637 -0.4112 -0.1587 -0.7955
  571MOL0     C77005   3.774  -0.179   9.698  0.2885 -0.6156 -0.5618
  571MOL0     C77006   3.647  -0.221   9.673 -0.4143  0.4083  0.9542
  571MOL0     C77007   3.576  -0.145   9.578  0.4382  0.0998 -0.5777
  571MOL0     O77008   3.450  -0.161   9.538  1.3902 -0.2699  0.4133
  571MOL0     C77009   3.376  -0.287   9.555  0.4895 -0.1400  0.6861
  571MOL0     C77010   3.445  -0.383   9.452 -0.1825  0.1445  0.6092
  571MOL0     C77011   3.454  -0.336   9.304 -0.4963  0.1812  0.6497
  571MOL0     C77012   3.321  -0.294   9.244 -0.4953 -0.8974 -0.1084
  571MOL0     C77013   3.233  -0.403   9.229  0.4086  0.4368  0.1545
  571MOL0     C77014   3.173  -0.496   9.183 -0.5514  0.0056  1.2125
  571MOL0     C77015   3.643  -0.036   9.517  0.3528 -0.3637 -0.4025
  571MOL0     C77016   3.767  -0.001   9.538 -1.3181 -0.1941  0.2713
  571MOL0     C77017   3.823   0.112   9.446  0.4503  0.0085  0.7533
  571MOL0     H77018   4.222  -0.300   9.817  0.3594  0.4341 -0.0724
  571MOL0     H77019   4.455  -0.260   9.874  0.3737 -0.4194 -0.3311
  571MOL0     H77020   4.562  -0.121  10.148  0.8120  0.9033  0.6950
  571MOL0     H77021   4.631  -0.201  10.005 -1.4133  1.1907 -2.8488
  571MOL0     H77022   4.781  -0.098  10.215  0.9122  2.4265  1.6282
  571MOL0     H77023   4.721   0.053  10.152 -0.0492 -0.5197 -1.7095
  571MOL0     H77024   4.882  -0.149   9.971  0.0364 -1.4445  1.2078
  571MOL0     H77025   4.959  -0.057  10.098 -1.1983  1.8688  0.9551
  571MOL0     H77026   4.810   0.069   9.858 -0.4455  2.0010  0.3129
  571MOL0     H77027   4.884   0.154   9.989  2.4283 -0.7696  1.0607
  571MOL0     H77028   5.055   0.148   9.825 -1.9421  1.2662  1.0547
  571MOL0     H77029   5.101   0.019   9.937 -2.3412 -3.4361  0.8288
  571MOL0     H77030   4.999  -0.148   9.793  0.9314 -0.4843  1.2508
  571MOL0     H77031   4.948  -0.010   9.678  1.1452 -0.9053 -0.9044
  571MOL0     H77032   5.228  -0.085   9.757  0.6066  1.2030  1.5510
  571MOL0     H77033   5.185   0.054   9.658 -1.2794 -0.8766  0.0342
  571MOL0     H77034   5.107  -0.241   9.598  1.0807 -1.3121 -1.6248
  571MOL0     H77035   5.075  -0.104   9.498 -0.4061 -1.9694  0.1106
  571MOL0     H77036   5.313   0.015   9.363 -2.0676 -1.9340 -0.1153
  571MOL0     H77037   5.656  -0.125   9.309  0.9117 -1.2633  1.7771
  571MOL0     H77038   5.548   0.013   9.263  1.6445  2.0765  0.2621
  571MOL0     H77039   5.613   0.163   9.427  0.8020  0.7982  0.9502
  571MOL0     H77040   5.630   0.034   9.537 -2.1726 -1.7270 -0.3830
  571MOL0     H77041   5.872   0.005   9.414  0.2686 -0.3432 -0.3475
  571MOL0     H77042   5.846   0.139   9.522  1.2117  0.7246 -0.8884
  571MOL0     H77043   5.921   0.267   9.360 -2.1743  2.9028 -0.1084
  571MOL0     H77044   5.777   0.263   9.285  1.0593  0.9014  0.5334
  571MOL0     H77045   6.143   0.090   9.358 -1.2426  0.5421  1.0279
  571MOL0     H77046   6.366   0.139   9.279 -1.3191  0.1384 -0.2543
  571MOL0     H77047   6.658   0.059   8.921 -0.5754  1.2322  0.1362
  571MOL0     H77048   6.866   0.062   8.798  0.3266 -0.8992  0.0493
  571MOL0     H77049   6.873   0.300   8.438 -0.3270  1.0627 -0.4315
  571MOL0     H77050   6.924   0.434   8.526 -2.7183 -0.8502  1.0019
  571MOL0     H77051   7.101   0.227   8.397  2.5170  1.0096 -0.1083
  571MOL0     H77052   7.103   0.395   8.374  1.1948 -0.3582  0.4273
  571MOL0     H77053   7.169   0.439   8.605 -0.1471 -0.3915  0.6227
  571MOL0     H77054   7.198   0.266   8.621 -2.5120 -1.2845 -1.6838
  571MOL0     H77055   7.406   0.395   8.572 -0.5211 -0.5759 -0.5941
  571MOL0     H77056   7.337   0.453   8.423  4.3587  1.4511  0.9862
  571MOL0     H77057   7.502   0.267   8.392 -0.5904  1.5199 -1.8172
  571MOL0     H77058   7.334   0.223   8.343 -1.1300  0.3527  0.6518
  571MOL0     H77059   7.449   0.178   8.615 -2.3514  1.4346  0.5157
  571MOL0     H77060   7.311   0.090   8.548  1.1209 -1.4224 -1.1042
  571MOL0     H77061   7.510  -0.050   8.568  3.0963  0.8013  1.3947
  571MOL0     H77062   7.590   0.068   8.456 -0.5488  0.5869 -1.8043
  571MOL0     H77063   7.434   0.000   8.273 -3.4992 -1.7575 -0.7966
  571MOL0     H77064   7.502  -0.145   8.343  0.2125 -1.2488  0.1997
  571MOL0     H77065   6.736   0.460   8.647  0.6184  0.3612 -0.0342
  571MOL0     H77066   6.546   0.452   8.784 -2.1787 -1.1776 -1.7677
  571MOL0     H77067   6.168   0.316   8.926  1.0174 -1.5398 -1.6444
  571MOL0     H77068   5.969   0.205   8.991 -1.1270 -1.5738  1.6597
  571MOL0     H77069   4.366   0.166   9.928 -2.2803  0.8860  0.1489
  571MOL0     H77070   4.139   0.122   9.836  1.2748  1.2890 -2.0674
  571MOL0     H77071   3.826  -0.226   9.781 -3.2964  0.0163  2.2755
  571MOL0     H77072   3.604  -0.309   9.721 -0.5296 -1.5696 -2.4811
  571MOL0     H77073   3.269  -0.274   9.535  0.2613  1.0843  2.4642
  571MOL0     H77074   3.389  -0.329   9.655  4.0537  1.2830  0.9487
  571MOL0     H77075   3.391  -0.478   9.463 -0.9240  0.2435 -1.7535
  571MOL0     H77076   3.548  -0.407   9.479 -0.3517 -0.2040  0.9559
  571MOL0     H77077   3.506  -0.414   9.249  0.7143 -0.5136  2.6564
  571MOL0     H77078   3.516  -0.245   9.304 -2.1395  1.3710  1.9344
  571MOL0     H77079   3.266  -0.221   9.303 -0.5310 -0.7919 -0.2708
  571MOL0     H77080   3.338  -0.237   9.152 -0.6454  1.5002  1.2631
  571MOL0     H77081   3.127  -0.584   9.142  2.7476 -0.7633 -1.2692
  571MOL0     H77082   3.578   0.019   9.449 -2.3988 -2.3909  0.4194
  571MOL0     H77083   3.919   0.084   9.404  0.2590 -0.0234  0.3318
  571MOL0     H77084   3.754   0.128   9.363 -0.3041  2.3613  1.7496
  571MOL0     H77085   3.828   0.206   9.502  3.8337  1.4617 -1.6768
  572MOL0     O77086   4.251   1.165  11.204 -0.4747 -0.2755 -0.6674
  572MOL0     C77087   4.286   1.044  11.216 -0.3066 -0.0851 -0.3940
  572MOL0     O77088   4.197   0.940  11.224 -0.1419  0.2213 -0.6935
  572MOL0     C77089   4.066   0.961  11.196  0.4556 -0.3883 -0.1100
  572MOL0     C77090   3.966   0.932  11.292  0.6584  0.3636 -0.0381
  572MOL0     C77091   3.825   0.951  11.265  0.2736  0.1267  0.2391
  572MOL0     C77092   3.792   1.025  11.149  0.3648 -0.2298 -0.4898
  572MOL0     O77093   3.662   1.060  11.125 -0.0415 -0.1534  0.1428
  572MOL0     C77094   3.584   1.131  11.224  0.1667 -1.2928 -0.5058
  572MOL0     C77095   3.483   1.038  11.285  0.5126  0.6659 -0.0864
  572MOL0     C77096   3.406   1.094  11.405 -0.7487  0.9115 -0.1662
  572MOL0     C77097   3.329   1.218  11.360 -0.1245  0.5423 -0.1179
  572MOL0     C77098   3.239   1.270  11.480  1.2241  0.2352  0.5412
  572MOL0     C77099   3.183   1.407  11.432 -0.1370 -0.5404  0.1653
  572MOL0     C77100   3.067   1.453  11.518 -0.9606 -0.0375 -0.0603
  572MOL0     C77101   2.940   1.393  11.477 -0.2543 -1.1034 -0.5785
  572MOL0     N77102   2.828   1.437  11.560 -0.3107  1.1870 -1.1431
  572MOL0     C77103   2.822   1.390  11.690 -0.0427  1.0940  0.5628
  572MOL0     C77104   2.734   1.474  11.747  0.2968 -0.0283 -0.0030
  572MOL0     C77105   2.692   1.458  11.891  0.5452  0.5732 -0.2730
  572MOL0     C77106   2.659   1.593  11.962 -0.0924  0.1425 -0.3042
  572MOL0     C77107   2.782   1.663  12.008  0.1810 -0.3226 -0.2002
  572MOL0     C77108   2.880   1.733  11.904  0.0377  0.1025 -0.2234
  572MOL0     O77109   2.962   1.823  11.976  0.8892 -0.1478 -0.4902
  572MOL0     C77110   3.088   1.858  11.930  0.7189 -0.3776 -0.4238
  572MOL0     C77111   3.174   1.922  12.014 -0.3659  0.4712 -0.0405
  572MOL0     C77112   3.301   1.957  11.976  0.0409  0.2759  0.5315
  572MOL0     C77113   3.340   1.941  11.843 -0.2177  0.2071  1.0160
  572MOL0     C77114   3.475   1.973  11.800  0.0698  0.3929 -0.5756
  572MOL0     O77115   3.521   1.911  11.688  0.3439  0.3067  0.0252
  572MOL0     C77116   3.651   1.935  11.675 -0.0929  0.2927  0.2505
  572MOL0     C77117   3.702   2.054  11.636  0.3659  0.3181  0.0791
  572MOL0     C77118   3.835   2.082  11.640  0.1390 -0.4480  0.4532
  572MOL0     C77119   3.925   1.990  11.693 -0.4684  0.8633  0.4771
  572MOL0     O77120   4.057   2.035  11.697  0.4755 -0.5845 -0.3421
  572MOL0     C77121   4.158   1.948  11.749 -0.0198  1.0129  0.3488
  572MOL0     C77122   4.298   2.019  11.723 -0.7954 -0.0518 -0.0169
  572MOL0     C77123   4.423   1.942  11.765  0.0236  0.0818  0.6741
  572MOL0     C77124   4.556   1.985  11.699  0.4385 -0.0621 -0.0502
  572MOL0     C77125   4.608   2.109  11.758 -0.0286  0.9102 -0.0667
  572MOL0     C77126   4.747   2.146  11.701 -0.1035 -0.4464 -0.0799
  572MOL0     C77127   4.798   2.290  11.759  0.7206  0.2872 -0.4411
  572MOL0     C77128   4.924   2.316  11.680  0.4766 -0.3048 -0.3490
  572MOL0    Cl77129   5.058   2.229  11.763  0.4523  0.2689  0.4749
  572MOL0     C77130   3.880   1.866  11.732  0.2661  0.7859 -0.0962
  572MOL0     C77131   3.740   1.835  11.720 -0.4642 -0.1644 -0.9299
  572MOL0     O77132   3.544   2.037  11.888  0.4654 -0.3565  0.3078
  572MOL0     C77133   3.245   1.884  11.748 -1.6281  0.1481  0.4234
  572MOL0     C77134   3.117   1.849  11.794  0.1638  0.6650  0.9700
  572MOL0     N77135   2.681   1.548  11.646  1.1812  0.2419 -0.4698
  572MOL0     N77136   2.750   1.537  11.540  0.5298 -0.0456  0.4060
  572MOL0     C77137   3.893   1.060  11.059 -0.2078 -0.9091  0.3616
  572MOL0     C77138   4.032   1.032  11.076 -0.5421 -0.3269  0.1195
  572MOL0     C77139   4.432   1.019  11.221 -0.8038  0.0061 -0.7946
  572MOL0     C77140   4.473   0.887  11.260  0.5275 -0.3886  0.2286
  572MOL0     C77141   4.609   0.846  11.259 -0.0802 -0.2644 -0.3005
  572MOL0     C77142   4.708   0.936  11.233  0.5142  0.5318 -0.0737
  572MOL0     O77143   4.832   0.877  11.235  0.2837 -0.4007 -0.0610
  572MOL0     C77144   4.936   0.943  11.157 -0.5157 -0.9875  0.0999
  572MOL0     C77145   5.030   0.851  11.082 -0.1966  0.0359  1.1289
  572MOL0     C77146   5.133   0.948  11.018 -0.3197 -0.0079 -0.5414
  572MOL0     C77147   5.259   0.874  10.974 -0.0486 -0.1384 -0.0945
  572MOL0     C77148   5.229   0.780  10.869  0.7906  0.6429  1.1547
  572MOL0     C77149   5.215   0.708  10.773  0.9380 -1.1393 -0.8551
  572MOL0     C77150   4.674   1.069  11.204  0.1778  0.4372 -0.1442
  572MOL0     C77151   4.541   1.107  11.186 -0.5476  0.1148  0.9745
  572MOL0     C77152   4.518   1.252  11.144 -0.1208 -0.2402 -0.1962
  572MOL0     H77153   4.000   0.893  11.387 -0.4387  3.2773  1.6900
  572MOL0     H77154   3.760   0.933  11.350 -1.7086  1.3199 -0.9546
  572MOL0     H77155   3.638   1.175  11.309 -2.3918 -1.9570  1.5785
  572MOL0     H77156   3.531   1.209  11.169 -1.7967 -3.6102 -2.1121
  572MOL0     H77157   3.528   0.939  11.299 -0.5208 -0.2194 -2.5108
  572MOL0     H77158   3.412   1.022  11.203  0.3097  0.6536  0.0925
  572MOL0     H77159   3.475   1.124  11.485  1.2939  0.8552 -1.8219
  572MOL0     H77160   3.351   1.013  11.454 -2.2029  1.4495 -0.8761
  572MOL0     H77161   3.403   1.296  11.347 -0.4378  0.6255 -1.6227
  572MOL0     H77162   3.269   1.193  11.272  0.5443  0.5617 -0.5870
  572MOL0     H77163   3.166   1.189  11.492  3.0591 -1.6782 -0.5270
  572MOL0     H77164   3.299   1.276  11.572  1.7596 -2.8759  0.4963
  572MOL0     H77165   3.261   1.483  11.418  0.3067 -1.1381 -0.6735
  572MOL0     H77166   3.146   1.381  11.333  0.5069 -2.3821  0.3650
  572MOL0     H77167   3.055   1.562  11.515  3.7555  0.7047  0.0540
  572MOL0     H77168   3.090   1.423  11.620 -3.8164  0.5160  0.8416
  572MOL0     H77169   2.922   1.428  11.375 -2.0338 -1.0060 -0.2634
  572MOL0     H77170   2.937   1.283  11.476 -2.3131 -1.1126  0.2858
  572MOL0     H77171   2.843   1.298  11.743  0.0378  1.3561  0.9943
  572MOL0     H77172   2.604   1.394  11.901  0.8281 -0.0445 -1.4966
  572MOL0     H77173   2.779   1.417  11.944  0.4574  2.3666  1.3546
  572MOL0     H77174   2.610   1.669  11.901  0.8772  0.4142 -0.7653
  572MOL0     H77175   2.594   1.576  12.049  1.3575 -0.6151  0.6905
  572MOL0     H77176   2.836   1.592  12.071 -2.2683 -2.0564  0.0935
  572MOL0     H77177   2.754   1.755  12.059  0.7408  1.9891 -3.6651
  572MOL0     H77178   2.817   1.791  11.835  0.9771  2.2363  0.6335
  572MOL0     H77179   2.936   1.655  11.852  2.4909  2.4271 -1.3242
  572MOL0     H77180   3.149   1.938  12.119  1.6195  1.2645  0.3605
  572MOL0     H77181   3.355   2.018  12.047  1.0184 -1.6677  1.5351
  572MOL0     H77182   3.635   2.132  11.600  3.0134  2.2305 -1.0513
  572MOL0     H77183   3.874   2.175  11.600  2.1984 -2.5756 -3.0775
  572MOL0     H77184   4.147   1.927  11.856 -0.9819  2.7200  0.6139
  572MOL0     H77185   4.154   1.855  11.691 -0.8617  1.0529  0.3312
  572MOL0     H77186   4.318   2.052  11.621  1.2259  1.3662  0.7544
  572MOL0     H77187   4.297   2.109  11.786 -2.2034  0.4417 -0.6934
  572MOL0     H77188   4.432   1.954  11.873 -2.6509 -3.4094  1.4729
  572MOL0     H77189   4.416   1.835  11.743  1.7395  0.3874 -1.7266
  572MOL0     H77190   4.546   1.997  11.591  3.7685 -0.3648 -0.5195
  572MOL0     H77191   4.633   1.908  11.717 -1.1315 -2.1653 -1.7115
  572MOL0     H77192   4.636   2.089  11.862  1.6859  1.5467 -0.3641
  572MOL0     H77193   4.535   2.190  11.751 -2.3984 -1.0223  0.8697
  572MOL0     H77194   4.823   2.070  11.721 -2.1586 -1.7068  3.9776
  572MOL0     H77195   4.733   2.150  11.592 -0.0151  1.4535 -0.0605
  572MOL0     H77196   4.818   2.285  11.866  0.0732  0.3535 -0.3148
  572MOL0     H77197   4.720   2.366  11.757 -0.0473 -0.3122  2.5928
  572MOL0     H77198   4.932   2.287  11.575  4.8588 -3.1213  0.4778
  572MOL0     H77199   4.947   2.422  11.692 -2.0386  0.1053  1.7425
  572MOL0     H77200   3.952   1.792  11.765  0.4804  0.9490 -0.1975
  572MOL0     H77201   3.713   1.742  11.769  0.7523 -0.6940 -1.2106
  572MOL0     H77202   3.261   1.872  11.642  0.8183 -0.0135  0.7531
  572MOL0     H77203   3.034   1.822  11.730  0.0270 -0.3438  1.5533
  572MOL0     H77204   3.871   1.124  10.974 -1.2046  0.1884  1.4192
  572MOL0     H77205   4.111   1.053  11.003 -1.1173 -1.6281 -0.9205
  572MOL0     H77206   4.397   0.811  11.276  1.4106 -2.1312 -2.8511
  572MOL0     H77207   4.630   0.745  11.293  0.0058  0.5389  2.1986
  572MOL0     H77208   4.992   1.004  11.229  0.7269 -2.7867  0.7340
  572MOL0     H77209   4.904   1.014  11.080  1.2557 -0.7754 -0.4978
  572MOL0     H77210   4.981   0.803  10.997  3.0004 -1.3051 -0.0756
  572MOL0     H77211   5.069   0.778  11.153  3.4800  0.4035 -0.3021
  572MOL0     H77212   5.162   1.023  11.092 -1.0507  1.5734 -1.7825
  572MOL0     H77213   5.074   0.989  10.935 -1.9300 -1.0721  0.0225
  572MOL0     H77214   5.316   0.957  10.932  1.8025 -1.4135 -0.2187
  572MOL0     H77215   5.323   0.836  11.054  2.1116  0.9092 -1.2164
  572MOL0     H77216   5.215   0.633  10.696 -0.1665 -1.5306 -0.4872
  572MOL0     H77217   4.749   1.146  11.189 -0.5480  0.8164 -2.1652
  572MOL0     H77218   4.444   1.235  11.065 -1.0100 -5.1189  1.3675
  572MOL0     H77219   4.470   1.296  11.232  1.5692 -1.7533  1.5708
  572MOL0     H77220   4.608   1.308  11.119 -0.7130  0.9369  0.2405
  573MOL0     O77221   2.916   4.820   6.719  0.0050 -0.0116  0.7542
  573MOL0     C77222   2.823   4.867   6.643 -0.6263  0.1070 -0.4276
  573MOL0     O77223   2.848   4.959   6.537  0.0636  0.2402 -0.0505
  573MOL0     C77224   2.978   5.019   6.540  1.1291 -0.7267 -0.0035
  573MOL0     C77225   3.096   4.944   6.511  1.2355  0.5401 -0.6063
  573MOL0     C77226   3.215   5.006   6.523  0.7423  0.5112  0.1584
  573MOL0     C77227   3.235   5.133   6.560  0.1787  0.4571  0.3731
  573MOL0     O77228   3.364   5.181   6.581  0.0598 -0.0708  0.9020
  573MOL0     C77229   3.451   5.195   6.465  0.7475 -0.3295  0.9986
  573MOL0     C77230   3.581   5.281   6.495  0.5071  0.2168 -0.2539
  573MOL0     C77231   3.704   5.216   6.560 -0.3038  0.2926 -0.3312
  573MOL0     C77232   3.670   5.138   6.691 -0.8789 -0.1338  0.2809
  573MOL0     C77233   3.793   5.108   6.782  0.2201  1.4886  0.1671
  573MOL0     C77234   3.879   5.220   6.843  0.2382  0.4509  0.6876
  573MOL0     C77235   4.000   5.157   6.902 -0.9229 -0.7707 -0.7915
  573MOL0     C77236   4.074   5.275   6.976  0.0103  0.0371 -0.1147
  573MOL0     N77237   4.181   5.238   7.070  0.1932 -0.1629 -0.6024
  573MOL0     C77238   4.313   5.207   7.057  0.6211  0.1413  0.2739
  573MOL0     C77239   4.345   5.160   7.192  0.3990 -0.3416 -0.0375
  573MOL0     C77240   4.476   5.135   7.248 -0.5131  0.4363  0.6137
  573MOL0     C77241   4.486   4.985   7.262 -0.4208  0.4469  1.2222
  573MOL0     C77242   4.595   4.946   7.357 -0.5208  0.0563  0.2521
  573MOL0     C77243   4.728   4.972   7.286  0.6814 -1.1961  0.3072
  573MOL0     O77244   4.781   5.100   7.316  0.4726  0.0687 -0.0554
  573MOL0     C77245   4.912   5.126   7.318  0.1067  0.7012  0.2608
  573MOL0     C77246   5.022   5.028   7.290 -0.3464  0.4014 -0.2324
  573MOL0     C77247   5.160   5.072   7.292 -0.1959 -0.9297  0.4760
  573MOL0     C77248   5.194   5.207   7.327 -0.6381  0.0632  0.3930
  573MOL0     C77249   5.331   5.248   7.327  0.5359 -0.3351 -0.0563
  573MOL0     O77250   5.402   5.203   7.219  0.3953 -0.1213  0.4149
  573MOL0     C77251   5.539   5.203   7.211 -0.8478 -0.1190  0.5581
  573MOL0     C77252   5.608   5.190   7.088  0.5117 -0.6202 -0.1671
  573MOL0     C77253   5.749   5.199   7.079  0.1227  0.0757  0.3702
  573MOL0     C77254   5.833   5.198   7.186 -0.1400 -0.3148 -0.0276
  573MOL0     O77255   5.964   5.197   7.170  0.4872  0.4868 -0.2958
  573MOL0     C77256   6.040   5.181   7.290 -0.2303  0.2978 -0.3914
  573MOL0     C77257   6.182   5.175   7.242  0.1357  0.1475  0.1623
  573MOL0     C77258   6.275   5.169   7.355 -0.6948  0.1979 -0.2799
  573MOL0     C77259   6.418   5.116   7.307  0.3559 -0.1300 -0.2747
  573MOL0     C77260   6.523   5.125   7.418 -0.1866  1.2644  0.6739
  573MOL0     C77261   6.666   5.083   7.361 -0.1533  0.0637 -0.7105
  573MOL0     C77262   6.780   5.098   7.469 -1.0019  0.3577 -0.4391
  573MOL0     C77263   6.919   5.077   7.406 -1.1309  0.2259  0.1555
  573MOL0    Cl77264   6.977   5.206   7.292 -0.0505  0.3602  0.2301
  573MOL0     C77265   5.764   5.196   7.312 -0.5926 -0.0988  0.0767
  573MOL0     C77266   5.625   5.199   7.325 -0.2514 -0.4720  0.0740
  573MOL0     O77267   5.374   5.334   7.403 -0.0124 -0.1405 -0.9112
  573MOL0     C77268   5.087   5.294   7.353  0.4627 -0.1679 -0.4727
  573MOL0     C77269   4.954   5.251   7.350  0.6554 -0.5470 -1.0060
  573MOL0     N77270   4.230   5.178   7.269 -0.5345 -0.0858  0.1966
  573MOL0     N77271   4.133   5.225   7.199  0.5037  1.5921 -0.1401
  573MOL0     C77272   3.118   5.209   6.589  0.5073 -0.3850 -0.4358
  573MOL0     C77273   2.993   5.153   6.580  0.5038  0.2807 -0.0633
  573MOL0     C77274   2.686   4.840   6.666  0.4100  0.1425 -0.3650
  573MOL0     C77275   2.596   4.935   6.611  0.3120 -0.2996  0.1761
  573MOL0     C77276   2.465   4.930   6.628 -0.5541  0.0264 -0.5261
  573MOL0     C77277   2.407   4.835   6.711  0.6607  0.6040  0.3325
  573MOL0     O77278   2.270   4.830   6.736 -0.0471  0.2819  0.2133
  573MOL0     C77279   2.189   4.782   6.624 -0.4062 -0.3584  0.1804
  573MOL0     C77280   2.043   4.809   6.652  0.1458 -0.3253 -0.7809
  573MOL0     C77281   1.966   4.763   6.531 -0.7873 -0.6474 -0.3001
  573MOL0     C77282   1.807   4.782   6.534  0.2913 -0.1134  0.5027
  573MOL0     C77283   1.753   4.914   6.500 -0.7411  0.0167 -0.6042
  573MOL0     C77284   1.700   5.014   6.457  0.1060  0.5967  0.0758
  573MOL0     C77285   2.485   4.741   6.770 -0.7263 -0.5182  0.2865
  573MOL0     C77286   2.625   4.735   6.741  0.3310 -0.2183  0.0178
  573MOL0     C77287   2.706   4.629   6.808  0.7028  0.0780 -0.2854
  573MOL0     H77288   3.086   4.836   6.497 -4.8731  0.2558  2.3781
  573MOL0     H77289   3.303   4.945   6.504  0.4899  0.3456 -0.5035
  573MOL0     H77290   3.483   5.098   6.427  0.8385 -0.6474  1.8553
  573MOL0     H77291   3.401   5.249   6.384  1.5695 -1.2092 -0.1090
  573MOL0     H77292   3.550   5.366   6.558 -0.5538  1.1536 -1.9637
  573MOL0     H77293   3.601   5.337   6.403 -1.4917  1.8002  0.1990
  573MOL0     H77294   3.763   5.305   6.584 -2.2369  1.1753  1.4497
  573MOL0     H77295   3.749   5.145   6.489 -1.7552  0.3401 -1.3425
  573MOL0     H77296   3.591   5.174   6.758 -1.4103  2.2267 -1.4839
  573MOL0     H77297   3.642   5.039   6.653  1.3674 -0.3973 -0.8541
  573MOL0     H77298   3.765   5.041   6.864  0.7762  2.8113  1.4926
  573MOL0     H77299   3.853   5.047   6.713  2.1603  1.6780  1.6122
  573MOL0     H77300   3.908   5.303   6.777  1.3707 -0.3173  0.1878
  573MOL0     H77301   3.810   5.254   6.920 -1.3509  0.3701 -0.6491
  573MOL0     H77302   4.073   5.101   6.843  1.1274 -0.4030  1.2390
  573MOL0     H77303   3.966   5.085   6.976  1.3951  0.6708  1.9010
  573MOL0     H77304   4.120   5.333   6.895 -0.8525 -1.8922 -2.0798
  573MOL0     H77305   3.991   5.336   7.013  0.5903  1.1396 -0.5761
  573MOL0     H77306   4.388   5.217   6.980  0.7729  1.7735  0.6162
  573MOL0     H77307   4.554   5.170   7.180 -0.6257  4.5617  2.3288
  573MOL0     H77308   4.493   5.182   7.345  1.7291 -1.0248  0.9814
  573MOL0     H77309   4.388   4.948   7.295 -1.4347  2.5099  0.7042
  573MOL0     H77310   4.508   4.954   7.159 -0.1696  6.2376 -0.8375
  573MOL0     H77311   4.581   4.838   7.368 -2.4256  0.1976 -0.4394
  573MOL0     H77312   4.589   4.996   7.455 -4.6668  1.4819 -0.5226
  573MOL0     H77313   4.720   4.972   7.177  0.7900  2.8497  0.1510
  573MOL0     H77314   4.801   4.898   7.320  0.2992 -0.3441  3.2515
  573MOL0     H77315   4.997   4.923   7.277 -2.2243  0.9903 -1.8351
  573MOL0     H77316   5.239   5.012   7.247  1.6499  2.4232 -1.0924
  573MOL0     H77317   5.546   5.196   6.998 -1.7147 -3.1291  1.0440
  573MOL0     H77318   5.807   5.189   6.988 -1.5876 -1.5339 -0.6005
  573MOL0     H77319   6.033   5.266   7.359  0.0982 -1.6407  2.2210
  573MOL0     H77320   6.017   5.089   7.344 -1.4396  0.8371  0.0481
  573MOL0     H77321   6.188   5.077   7.193 -0.2328  1.0693 -1.8311
  573MOL0     H77322   6.200   5.257   7.173  0.3980 -1.3590 -1.6390
  573MOL0     H77323   6.291   5.269   7.396  0.5893  0.3498 -1.1026
  573MOL0     H77324   6.239   5.101   7.434 -0.8517 -0.5303 -0.9637
  573MOL0     H77325   6.453   5.180   7.225  1.4576 -0.6072 -0.1881
  573MOL0     H77326   6.400   5.013   7.276  2.5299  0.0121 -2.2489
  573MOL0     H77327   6.485   5.056   7.494  0.1419 -1.7588 -1.6875
  573MOL0     H77328   6.533   5.222   7.466  0.9152  1.2895  0.4173
  573MOL0     H77329   6.658   4.979   7.328  0.2987 -0.3516  0.4362
  573MOL0     H77330   6.689   5.150   7.278  0.6461  1.6912  0.7677
  573MOL0     H77331   6.760   5.022   7.546 -0.1401  2.2135  1.7388
  573MOL0     H77332   6.777   5.196   7.517 -0.2049  0.3446 -0.3399
  573MOL0     H77333   6.995   5.076   7.485 -0.1788  0.6822 -0.7327
  573MOL0     H77334   6.929   4.992   7.339  0.5119  2.6396 -2.9212
  573MOL0     H77335   5.813   5.196   7.408  0.3371 -2.1869 -0.3613
  573MOL0     H77336   5.586   5.204   7.426  0.1282  0.3948  0.1845
  573MOL0     H77337   5.105   5.399   7.371  0.5650 -0.0226 -1.3871
  573MOL0     H77338   4.880   5.328   7.370  0.2576 -0.4725 -2.6118
  573MOL0     H77339   3.128   5.312   6.622 -5.8156  0.7102 -0.7873
  573MOL0     H77340   2.906   5.212   6.605 -0.0011 -1.5994  3.1076
  573MOL0     H77341   2.616   5.019   6.546 -0.1503  0.3627  0.8673
  573MOL0     H77342   2.397   4.990   6.568 -1.9492 -0.5974  0.3862
  573MOL0     H77343   2.208   4.675   6.619 -0.3136 -0.3480  0.2951
  573MOL0     H77344   2.221   4.823   6.527 -2.4273  0.4620 -0.1834
  573MOL0     H77345   2.036   4.916   6.673 -0.0066 -0.8498  2.3216
  573MOL0     H77346   2.001   4.759   6.740 -0.4533 -0.5348 -1.1780
  573MOL0     H77347   1.981   4.657   6.509  0.7088 -0.4203 -0.5183
  573MOL0     H77348   1.998   4.823   6.445  0.7556 -0.6248  0.2515
  573MOL0     H77349   1.765   4.711   6.462 -0.4682  2.2915 -1.5846
  573MOL0     H77350   1.766   4.752   6.630  0.2044 -0.5889  0.3173
  573MOL0     H77351   1.630   5.089   6.426 -0.1792  1.1702  1.9591
  573MOL0     H77352   2.442   4.671   6.841  0.4605 -1.2951  0.2632
  573MOL0     H77353   2.742   4.685   6.894 -2.3528  2.5131 -0.4160
  573MOL0     H77354   2.653   4.537   6.836 -1.2702  1.3435  0.3803
  573MOL0     H77355   2.791   4.590   6.751 -0.7128 -0.1979 -2.3553
  574MOL0     O77356  11.076   2.217   4.558 -0.2419  0.7743 -0.5475
  574MOL0     C77357  11.011   2.113   4.544 -0.3959  0.1142 -0.6549
  574MOL0     O77358  11.073   1.991   4.525 -0.1081 -0.8129  0.6560
  574MOL0     C77359  11.198   1.963   4.573 -0.0983  0.8010 -0.0994
  574MOL0     C77360  11.252   2.008   4.690 -0.8091 -0.4959  0.4713
  574MOL0     C77361  11.376   1.966   4.744  0.9914 -0.4606  0.0436
  574MOL0     C77362  11.458   1.873   4.679  0.0523  0.0992 -0.5736
  574MOL0     O77363  11.588   1.858   4.733 -0.1822 -0.6411 -0.3467
  574MOL0     C77364  11.652   1.744   4.666  0.4552  0.2202  0.5266
  574MOL0     C77365  11.796   1.735   4.717 -0.3793  0.7688  0.5257
  574MOL0     C77366  11.798   1.711   4.866  0.0038 -0.1959 -0.3636
  574MOL0     C77367  11.944   1.669   4.920  0.3170 -0.3743  0.1446
  574MOL0     C77368  11.945   1.640   5.073 -0.2248 -1.0987 -0.0817
  574MOL0     C77369  11.930   1.774   5.149 -0.6047 -0.4428  0.3497
  574MOL0     C77370  11.930   1.758   5.294  0.2491  0.1016 -0.0324
  574MOL0     C77371  11.888   1.882   5.381 -0.6904  0.9125 -0.5509
  574MOL0     N77372  11.763   1.868   5.456  0.0866 -0.0816 -0.1398
  574MOL0     C77373  11.740   1.782   5.570 -0.4733  0.5139 -0.2191
  574MOL0     C77374  11.601   1.784   5.588 -0.4264  0.6688  0.0709
  574MOL0     C77375  11.528   1.738   5.710  0.0010  0.1992 -0.0516
  574MOL0     C77376  11.506   1.584   5.731  0.8494  0.0870  0.5565
  574MOL0     C77377  11.418   1.520   5.616 -0.7418  0.0337 -0.0054
  574MOL0     C77378  11.273   1.577   5.607 -0.7917 -0.6444  0.7372
  574MOL0     O77379  11.206   1.518   5.723  0.8099  0.1183  1.2208
  574MOL0     C77380  11.075   1.485   5.709  0.4230 -0.9131  0.4068
  574MOL0     C77381  10.972   1.567   5.747  0.0166  0.7733 -0.9433
  574MOL0     C77382  10.841   1.539   5.722  0.0260 -0.2382  0.3105
  574MOL0     C77383  10.812   1.425   5.644  1.0238 -0.5325 -0.0928
  574MOL0     C77384  10.677   1.396   5.596 -0.8327  0.8344  0.4288
  574MOL0     O77385  10.604   1.504   5.563  0.1023 -0.1508  0.0894
  574MOL0     C77386  10.483   1.485   5.504 -0.7568  0.3795  0.9080
  574MOL0     C77387  10.368   1.417   5.566 -0.0086 -0.4111 -0.7476
  574MOL0     C77388  10.241   1.415   5.509 -0.2449  0.5316 -0.5821
  574MOL0     C77389  10.223   1.472   5.386  0.3036  0.0422 -0.0578
  574MOL0     O77390  10.111   1.461   5.305 -0.5066  0.0797 -0.5200
  574MOL0     C77391   9.989   1.405   5.357 -0.3771  0.3633 -0.1743
  574MOL0     C77392   9.926   1.499   5.466 -0.5221  0.0325 -0.1374
  574MOL0     C77393   9.888   1.418   5.582  0.3615 -0.1979  1.1483
  574MOL0     C77394   9.819   1.489   5.694 -0.1217 -0.2440  1.0221
  574MOL0     C77395   9.738   1.397   5.782  0.4719 -0.2246 -0.5639
  574MOL0     C77396   9.833   1.313   5.878  0.7933 -0.1948 -1.4108
  574MOL0     C77397   9.760   1.209   5.968 -0.3349 -0.3977 -0.3973
  574MOL0     C77398   9.837   1.142   6.078 -0.8366 -0.2607 -0.0300
  574MOL0    Cl77399   9.916   1.247   6.188  0.3365  0.3947  0.1523
  574MOL0     C77400  10.333   1.524   5.315  0.0565  0.1998 -0.1411
  574MOL0     C77401  10.461   1.528   5.369 -0.3455 -0.2023 -0.7314
  574MOL0     O77402  10.656   1.284   5.555  0.5188 -0.4223  0.2836
  574MOL0     C77403  10.915   1.332   5.622 -0.4340  0.0304  0.1730
  574MOL0     C77404  11.042   1.366   5.641  0.3561 -0.0926 -0.5865
  574MOL0     N77405  11.551   1.859   5.480 -0.1238 -0.4781 -0.8009
  574MOL0     N77406  11.638   1.903   5.402  0.4194  0.1568 -0.0816
  574MOL0     C77407  11.400   1.828   4.557 -0.6146 -0.0948  0.0267
  574MOL0     C77408  11.278   1.866   4.510  0.8877 -0.1176 -0.6868
  574MOL0     C77409  10.865   2.119   4.542  0.1112 -0.2435 -0.6298
  574MOL0     C77410  10.801   2.079   4.421 -0.7256  0.7942  0.2638
  574MOL0     C77411  10.669   2.050   4.420  0.9103 -0.9081  0.5543
  574MOL0     C77412  10.588   2.067   4.530 -0.7042 -0.2012 -0.4760
  574MOL0     O77413  10.454   2.060   4.514 -0.1749  0.1952 -0.7026
  574MOL0     C77414  10.379   2.171   4.563 -0.3351  0.0529  0.2759
  574MOL0     C77415  10.290   2.231   4.446 -0.1154 -0.2569 -0.2875
  574MOL0     C77416  10.205   2.133   4.371 -0.3054  0.0407 -0.1460
  574MOL0     C77417  10.144   2.194   4.237  0.1602  0.2252  0.1418
  574MOL0     C77418  10.246   2.245   4.141 -0.3892 -0.6005  0.4368
  574MOL0     C77419  10.333   2.289   4.057  0.5641  0.4241 -0.5937
  574MOL0     C77420  10.647   2.101   4.649  1.5919 -0.5433  0.8361
  574MOL0     C77421  10.785   2.128   4.654 -0.3284 -0.2697  1.0949
  574MOL0     C77422  10.863   2.152   4.781  0.0295 -0.3226  0.1035
  574MOL0     H77423  11.216   2.084   4.759  1.4395  1.2327 -0.1277
  574MOL0     H77424  11.409   2.010   4.837 -0.7995  0.0614  0.4856
  574MOL0     H77425  11.598   1.651   4.685 -1.2047  0.7344 -1.3254
  574MOL0     H77426  11.662   1.763   4.558  0.1800 -1.9385  0.0784
  574MOL0     H77427  11.850   1.828   4.698  0.0179 -0.0795 -3.3310
  574MOL0     H77428  11.848   1.652   4.670 -2.5799  0.1883 -1.0101
  574MOL0     H77429  11.730   1.629   4.892 -1.4675  0.5698 -1.6183
  574MOL0     H77430  11.751   1.797   4.916  1.0400 -0.3281  0.8654
  574MOL0     H77431  11.975   1.590   4.851  0.3624  1.0714 -1.5815
  574MOL0     H77432  12.012   1.754   4.907 -0.3249  0.6636  2.8687
  574MOL0     H77433  11.856   1.579   5.090 -0.2364 -1.4440 -1.3287
  574MOL0     H77434  12.037   1.588   5.103  1.1244  2.0668  1.8072
  574MOL0     H77435  12.016   1.838   5.127  0.2896 -2.4827 -2.8368
  574MOL0     H77436  11.837   1.820   5.115 -0.0216 -0.2595 -1.0691
  574MOL0     H77437  12.028   1.724   5.329  0.3845 -1.8443 -2.0966
  574MOL0     H77438  11.869   1.672   5.323  0.3777 -0.8670 -2.3681
  574MOL0     H77439  11.972   1.903   5.448 -0.5806  1.2740 -0.7973
  574MOL0     H77440  11.878   1.972   5.320  0.9439  1.2814 -0.3338
  574MOL0     H77441  11.810   1.747   5.645 -0.0866  2.3744  0.3388
  574MOL0     H77442  11.565   1.775   5.806 -6.0773 -0.1253  2.9257
  574MOL0     H77443  11.431   1.790   5.718  0.4765  0.9933  0.7701
  574MOL0     H77444  11.604   1.537   5.722  0.2975 -0.7224 -4.1713
  574MOL0     H77445  11.454   1.563   5.825 -3.6188 -1.5521 -1.9738
  574MOL0     H77446  11.432   1.411   5.622 -0.5477 -0.1407 -2.5707
  574MOL0     H77447  11.476   1.539   5.525  1.1800 -1.2629  0.8598
  574MOL0     H77448  11.208   1.566   5.519 -0.0696  0.6531  0.0109
  574MOL0     H77449  11.272   1.685   5.619  0.7621 -0.2676 -1.7391
  574MOL0     H77450  10.996   1.658   5.800 -1.0348  2.3771 -3.0287
  574MOL0     H77451  10.767   1.610   5.757  0.2834  0.5084 -0.5972
  574MOL0     H77452  10.386   1.383   5.668 -0.4802  2.7437  0.5107
  574MOL0     H77453  10.169   1.351   5.561 -1.4556  1.4343 -1.1016
  574MOL0     H77454   9.908   1.398   5.283 -1.9774 -1.2111  1.6204
  574MOL0     H77455  10.021   1.305   5.388  1.8679  1.0167 -0.2259
  574MOL0     H77456   9.994   1.578   5.498  1.2319 -0.5147 -2.3302
  574MOL0     H77457   9.844   1.558   5.423 -0.8314  1.1527  1.8489
  574MOL0     H77458   9.828   1.335   5.545  3.0416 -2.2350  1.0537
  574MOL0     H77459   9.988   1.380   5.606  0.5905 -2.0395 -2.0803
  574MOL0     H77460   9.745   1.563   5.665 -1.1148  0.2832  4.3905
  574MOL0     H77461   9.888   1.552   5.752  1.5721  0.2839 -1.3984
  574MOL0     H77462   9.678   1.324   5.727 -2.9421  2.9049 -1.3793
  574MOL0     H77463   9.668   1.462   5.836  2.8579  1.6069  0.4687
  574MOL0     H77464   9.892   1.250   5.812 -2.3958 -4.3953 -0.6770
  574MOL0     H77465   9.893   1.367   5.953 -0.2375 -2.8173  1.5179
  574MOL0     H77466   9.744   1.134   5.890  3.0000  1.1598 -2.7956
  574MOL0     H77467   9.662   1.244   6.003  0.0504  2.5225 -1.8863
  574MOL0     H77468   9.762   1.080   6.129 -2.5426  2.8124  1.4906
  574MOL0     H77469   9.917   1.083   6.033  1.4420  1.0049  2.1086
  574MOL0     H77470  10.313   1.547   5.210  1.8341  0.0399 -0.5406
  574MOL0     H77471  10.535   1.561   5.297 -0.3469 -0.3677 -0.8090
  574MOL0     H77472  10.894   1.241   5.566 -2.4079 -1.2330  2.7370
  574MOL0     H77473  11.127   1.313   5.598  0.4864 -0.3936  0.0175
  574MOL0     H77474  11.456   1.754   4.500 -1.6749 -1.5146  0.7508
  574MOL0     H77475  11.232   1.812   4.428 -0.1408 -2.1635  1.1227
  574MOL0     H77476  10.863   2.063   4.332 -0.0344  1.9509  0.5183
  574MOL0     H77477  10.634   2.034   4.319  1.2166 -0.9917  0.4606
  574MOL0     H77478  10.451   2.246   4.595 -0.7995  0.9140 -0.6530
  574MOL0     H77479  10.326   2.134   4.652  0.4866 -2.3242 -0.1415
  574MOL0     H77480  10.354   2.288   4.377  0.1546 -1.1045 -0.7450
  574MOL0     H77481  10.222   2.303   4.493 -0.4828 -0.2772 -0.7730
  574MOL0     H77482  10.121   2.123   4.441 -0.5658  1.8718 -0.1451
  574MOL0     H77483  10.259   2.040   4.352 -2.1466 -1.2643  0.7028
  574MOL0     H77484  10.077   2.126   4.183 -0.5208  0.4005  0.7435
  574MOL0     H77485  10.079   2.278   4.265 -1.4327 -2.0148  4.1263
  574MOL0     H77486  10.403   2.328   3.987 -0.9723 -0.1962 -2.5768
  574MOL0     H77487  10.574   2.109   4.729  0.4079 -1.9419 -0.0579
  574MOL0     H77488  10.908   2.251   4.776  3.0316 -1.5962 -0.4333
  574MOL0     H77489  10.807   2.155   4.874  2.8823  1.3928  1.9139
  574MOL0     H77490  10.944   2.080   4.796  0.0934  0.2222  2.7776
  575MOL0     O77491  10.776   0.836   0.368 -0.6125  0.0251  0.3882
  575MOL0     C77492  10.776   0.850   0.246 -0.7122 -0.3078 -0.7795
  575MOL0     O77493  10.673   0.897   0.168  0.4383 -0.1680 -0.3324
  575MOL0     C77494  10.554   0.933   0.219  0.1533 -0.6262  0.0018
  575MOL0     C77495  10.494   1.037   0.148 -0.4520  0.7484  0.2063
  575MOL0     C77496  10.374   1.092   0.184  0.1181  1.1450 -0.1411
  575MOL0     C77497  10.320   1.057   0.307  0.5132 -0.2519  0.2060
  575MOL0     O77498  10.204   1.125   0.336 -0.2478  0.2723  0.5821
  575MOL0     C77499  10.148   1.119   0.465 -0.3438 -0.3924 -1.2551
  575MOL0     C77500  10.039   1.221   0.494 -0.2065  0.2682  0.1758
  575MOL0     C77501  10.066   1.328   0.597  0.0660  0.7622 -0.3003
  575MOL0     C77502  10.200   1.406   0.578  0.5073 -0.2911 -0.4252
  575MOL0     C77503  10.262   1.445   0.715 -0.5225 -0.5652  0.0865
  575MOL0     C77504  10.389   1.529   0.705  0.2954 -0.7571 -0.1936
  575MOL0     C77505  10.442   1.573   0.848 -0.0098 -0.1389 -0.1955
  575MOL0     C77506  10.549   1.669   0.850  0.2972  0.2724 -0.2282
  575MOL0     N77507  10.668   1.611   0.778  0.6166  0.2932 -0.5500
  575MOL0     C77508  10.705   1.632   0.649  0.4110 -0.5425 -0.2703
  575MOL0     C77509  10.816   1.555   0.632  0.5663 -0.1170  0.6207
  575MOL0     C77510  10.893   1.550   0.509  0.8334  0.1319 -0.1550
  575MOL0     C77511  11.046   1.548   0.544 -0.0851  0.4785 -0.2407
  575MOL0     C77512  11.078   1.669   0.626 -0.4552  0.9604  0.7204
  575MOL0     C77513  11.214   1.740   0.581  0.0503  0.4205  0.1636
  575MOL0     O77514  11.222   1.851   0.664  0.1008 -0.0427  0.2655
  575MOL0     C77515  11.340   1.925   0.665  0.1997 -0.8451  0.9426
  575MOL0     C77516  11.349   2.021   0.752 -0.0846 -0.3106 -0.3429
  575MOL0     C77517  11.462   2.108   0.767  1.4430 -0.1960  0.1408
  575MOL0     C77518  11.568   2.109   0.661  0.1547 -0.0645 -0.5987
  575MOL0     C77519  11.675   2.204   0.667  0.3625 -0.2604  0.5260
  575MOL0     O77520  11.748   2.211   0.555 -0.8519  0.4566 -0.7275
  575MOL0     C77521  11.866   2.273   0.570 -0.2241 -0.8458  0.2265
  575MOL0     C77522  11.979   2.203   0.595 -0.3046  0.6062 -0.4608
  575MOL0     C77523  12.108   2.268   0.604  1.1803  0.4359 -0.1772
  575MOL0     C77524  12.114   2.405   0.584 -0.4684  0.8456  0.4937
  575MOL0     O77525  12.223   2.481   0.565 -0.0069 -0.1815 -0.9114
  575MOL0     C77526  12.354   2.414   0.587  0.0551 -0.0349 -0.1455
  575MOL0     C77527  12.466   2.511   0.586 -0.0700 -0.2257 -0.8454
  575MOL0     C77528  12.458   2.626   0.482 -0.4713 -0.3490 -1.0726
  575MOL0     C77529  12.582   2.709   0.471 -0.3474 -0.3039 -0.3857
  575MOL0     C77530  12.705   2.656   0.389  0.1951  0.7694  0.0447
  575MOL0     C77531  12.824   2.746   0.423 -0.6473 -0.1580  0.4422
  575MOL0     C77532  12.942   2.708   0.337 -0.2371  0.4107  0.1960
  575MOL0     C77533  13.060   2.794   0.378  0.1984  0.4048 -0.3362
  575MOL0    Cl77534  13.188   2.775   0.269 -0.6100 -0.0671 -0.0385
  575MOL0     C77535  12.001   2.474   0.564  1.8095  0.4960  0.1842
  575MOL0     C77536  11.878   2.408   0.547 -0.1547  0.2698 -0.7522
  575MOL0     O77537  11.703   2.265   0.768  0.4516 -0.4006  0.5218
  575MOL0     C77538  11.555   2.006   0.566  0.5384  0.5636  0.2000
  575MOL0     C77539  11.448   1.909   0.574  0.8699 -0.1790 -0.1008
  575MOL0     N77540  10.839   1.483   0.743  0.0845  0.2481 -0.2331
  575MOL0     N77541  10.746   1.513   0.828 -0.1060  0.0796 -0.4113
  575MOL0     C77542  10.379   0.954   0.386  0.0947  0.6880 -0.7750
  575MOL0     C77543  10.498   0.895   0.336  0.1661  0.4068 -1.0737
  575MOL0     C77544  10.891   0.791   0.168 -0.1088 -0.0983  0.5368
  575MOL0     C77545  10.890   0.785   0.021  0.6673  0.4060 -0.2228
  575MOL0     C77546  10.988   0.721  -0.051 -0.5814  0.3558  0.0242
  575MOL0     C77547  11.103   0.663   0.010 -0.7825 -0.0686  0.2339
  575MOL0     O77548  11.204   0.618  -0.069 -0.7406  0.2861  0.6735
  575MOL0     C77549  11.197   0.486  -0.093 -0.2651  0.0145  0.4179
  575MOL0     C77550  11.346   0.437  -0.092 -0.0243 -1.3359  0.1105
  575MOL0     C77551  11.420   0.451   0.047  0.4807 -0.6928  0.6062
  575MOL0     C77552  11.538   0.360   0.059 -0.5401  0.6400  0.3848
  575MOL0     C77553  11.505   0.216   0.032  0.5580 -0.2082 -0.0390
  575MOL0     C77554  11.469   0.103   0.018  0.5160 -0.3599  0.1560
  575MOL0     C77555  11.105   0.659   0.146  0.4465 -0.1236  0.2760
  575MOL0     C77556  10.997   0.716   0.230 -0.9251  0.2840 -0.4599
  575MOL0     C77557  11.008   0.687   0.383  0.2093 -0.2692  0.1408
  575MOL0     H77558  10.543   1.068   0.056 -0.3663 -0.2245 -0.0943
  575MOL0     H77559  10.316   1.154   0.117  1.4632  0.8573 -1.6412
  575MOL0     H77560  10.093   1.025   0.468 -0.1332 -0.5611 -2.2458
  575MOL0     H77561  10.229   1.112   0.537 -0.4750 -1.2324 -1.1827
  575MOL0     H77562   9.956   1.157   0.526  1.4031 -2.2072 -0.2662
  575MOL0     H77563  10.012   1.270   0.400 -0.0469 -0.0999 -0.0641
  575MOL0     H77564  10.057   1.285   0.697  0.0623 -0.5327 -0.8374
  575MOL0     H77565   9.991   1.407   0.596 -0.3135  0.4103 -0.0174
  575MOL0     H77566  10.283   1.354   0.530  0.4882 -0.6723 -0.0439
  575MOL0     H77567  10.175   1.498   0.524 -2.9315 -0.8306  0.0538
  575MOL0     H77568  10.200   1.503   0.783 -0.2723 -2.1774  1.7392
  575MOL0     H77569  10.288   1.351   0.764  1.4481 -0.0597  0.1257
  575MOL0     H77570  10.466   1.463   0.664  1.1640  0.6075 -0.8473
  575MOL0     H77571  10.372   1.621   0.648  3.5189  1.1547  1.6029
  575MOL0     H77572  10.471   1.483   0.903  0.4202 -0.2469 -0.5979
  575MOL0     H77573  10.355   1.618   0.897 -0.7990 -0.7804 -0.9657
  575MOL0     H77574  10.514   1.753   0.788 -1.9208 -2.1796 -2.5233
  575MOL0     H77575  10.588   1.692   0.950 -0.7285  1.2697 -0.0300
  575MOL0     H77576  10.651   1.684   0.571 -0.8055  0.4994  1.2075
  575MOL0     H77577  10.873   1.468   0.439 -2.9073  0.8999 -0.1971
  575MOL0     H77578  10.871   1.645   0.460 -1.6516 -0.7773 -0.9558
  575MOL0     H77579  11.077   1.457   0.598  1.7853 -1.0905 -3.6455
  575MOL0     H77580  11.094   1.543   0.446  2.1042 -2.8057  0.8175
  575MOL0     H77581  11.079   1.641   0.732 -0.3405 -0.5985  0.3307
  575MOL0     H77582  11.003   1.747   0.611 -0.2437  1.7630  3.2177
  575MOL0     H77583  11.211   1.777   0.479  1.6604 -0.1645 -0.1297
  575MOL0     H77584  11.303   1.677   0.592 -0.4303 -0.2454  0.2471
  575MOL0     H77585  11.266   2.027   0.822 -0.7539  1.6339 -1.2506
  575MOL0     H77586  11.470   2.176   0.851  1.4229 -0.5296  0.4138
  575MOL0     H77587  11.994   2.096   0.598  0.4586  0.6941 -0.8958
  575MOL0     H77588  12.201   2.213   0.595  1.3247 -0.0388  3.0744
  575MOL0     H77589  12.367   2.362   0.682  1.9114  0.6357  0.0030
  575MOL0     H77590  12.371   2.352   0.498 -3.0244  1.9837 -2.3682
  575MOL0     H77591  12.470   2.552   0.687  4.4676 -0.7839 -0.6272
  575MOL0     H77592  12.558   2.453   0.582  1.0205  1.4519 -1.0771
  575MOL0     H77593  12.427   2.587   0.385 -0.5948 -0.4575 -0.9905
  575MOL0     H77594  12.372   2.684   0.515  1.4309  0.4606  3.1009
  575MOL0     H77595  12.615   2.734   0.573 -1.0380 -0.6747 -0.0666
  575MOL0     H77596  12.546   2.803   0.430 -1.0910  0.0115  0.9541
  575MOL0     H77597  12.688   2.648   0.281 -0.1960  1.2109  0.0718
  575MOL0     H77598  12.740   2.556   0.416 -1.7515 -0.8194 -2.7440
  575MOL0     H77599  12.791   2.850   0.414  0.2593  0.1004 -0.0492
  575MOL0     H77600  12.840   2.729   0.530  0.4904  0.6806  0.4280
  575MOL0     H77601  12.905   2.724   0.235 -0.7350 -2.6627 -0.1930
  575MOL0     H77602  12.958   2.600   0.344 -2.5971 -0.3209 -3.1341
  575MOL0     H77603  13.036   2.899   0.396 -0.9832 -0.2538  2.5098
  575MOL0     H77604  13.094   2.761   0.477  1.1754  1.0251 -0.4538
  575MOL0     H77605  11.996   2.582   0.559 -0.8230  0.4135 -1.0872
  575MOL0     H77606  11.789   2.466   0.526  0.2072 -0.1464 -3.8059
  575MOL0     H77607  11.626   1.994   0.485 -0.9894 -0.8952 -0.9895
  575MOL0     H77608  11.441   1.832   0.498 -1.2091 -1.1579  1.0162
  575MOL0     H77609  10.332   0.932   0.481 -3.0385  2.5222 -1.7477
  575MOL0     H77610  10.547   0.828   0.406 -3.2807  2.4384  3.8784
  575MOL0     H77611  10.811   0.831  -0.038  0.2158  1.1437  0.9229
  575MOL0     H77612  10.989   0.743  -0.158 -0.3848  1.0837  0.1706
  575MOL0     H77613  11.155   0.461  -0.191  1.3263 -0.8733 -0.0631
  575MOL0     H77614  11.146   0.434  -0.011  1.4170  0.2536  1.6673
  575MOL0     H77615  11.403   0.506  -0.155 -0.8289  0.4818  1.3001
  575MOL0     H77616  11.356   0.332  -0.122  1.7421 -1.5135  1.1619
  575MOL0     H77617  11.340   0.431   0.118 -1.3954  1.8472 -0.6160
  575MOL0     H77618  11.464   0.551   0.057 -0.7921 -0.2451  2.1818
  575MOL0     H77619  11.618   0.398  -0.004 -0.3695  0.1540  0.3023
  575MOL0     H77620  11.573   0.372   0.162 -1.1027 -0.1250  0.6789
  575MOL0     H77621  11.440   0.003  -0.009  1.1990  0.2575 -3.4802
  575MOL0     H77622  11.192   0.607   0.187  0.7605 -1.9080 -2.3555
  575MOL0     H77623  11.091   0.624   0.416 -0.5340 -0.7672  1.1255
  575MOL0     H77624  11.018   0.780   0.439  1.3017 -0.8829  1.0073
  575MOL0     H77625  10.916   0.631   0.404 -1.2530  1.9448 -0.0276
  576MOL0     O77626   8.042   1.463   0.424  0.3088  0.4138 -0.7391
  576MOL0     C77627   8.032   1.487   0.309 -0.1139 -0.3427 -0.4072
  576MOL0     O77628   8.139   1.481   0.220  0.4778 -0.1490  0.0655
  576MOL0     C77629   8.273   1.456   0.256  0.0310  0.3228  0.4158
  576MOL0     C77630   8.357   1.385   0.162 -1.4513 -1.3313  0.3243
  576MOL0     C77631   8.491   1.352   0.193 -0.1178 -0.3108  0.0770
  576MOL0     C77632   8.545   1.403   0.312 -0.3951 -0.4404  0.7830
  576MOL0     O77633   8.678   1.383   0.343  0.3665  0.3013 -0.3648
  576MOL0     C77634   8.768   1.433   0.245  0.4008  1.0139  0.7780
  576MOL0     C77635   8.902   1.474   0.294  0.2709 -0.9782 -0.6618
  576MOL0     C77636   8.982   1.359   0.354 -0.0365  1.5760 -0.8436
  576MOL0     C77637   9.111   1.408   0.419  0.1469 -0.9976  0.0659
  576MOL0     C77638   9.211   1.292   0.450  0.8656  0.0541  0.3668
  576MOL0     C77639   9.356   1.345   0.445 -0.6457 -0.4239  0.5757
  576MOL0     C77640   9.454   1.229   0.452 -0.1368  0.0774 -0.0259
  576MOL0     C77641   9.475   1.159   0.320  0.0249  0.3935 -0.0540
  576MOL0     N77642   9.555   1.248   0.232  0.3774  0.5836  0.4031
  576MOL0     C77643   9.686   1.295   0.255  0.3825  0.6300 -0.1149
  576MOL0     C77644   9.712   1.361   0.138  0.1578 -0.0923 -0.6387
  576MOL0     C77645   9.851   1.416   0.101  0.4399  0.0516 -0.1025
  576MOL0     C77646   9.955   1.304   0.091  0.0511 -0.1881 -0.4961
  576MOL0     C77647   9.963   1.267  -0.056  0.6639 -0.3700 -0.1433
  576MOL0     C77648  10.083   1.182  -0.084  0.3024 -0.8765  0.1629
  576MOL0     O77649  10.186   1.253  -0.133 -1.2466  0.2846  0.0112
  576MOL0     C77650  10.312   1.187  -0.164 -0.3944  0.4378  0.5661
  576MOL0     C77651  10.329   1.047  -0.177 -0.1487  0.4062 -0.6215
  576MOL0     C77652  10.459   0.993  -0.210  1.0888 -0.2728  0.2544
  576MOL0     C77653  10.572   1.070  -0.195  0.8108  0.4873  0.0650
  576MOL0     C77654  10.714   1.011  -0.205  0.3366  0.5734  0.3308
  576MOL0     O77655  10.813   1.103  -0.180  0.5921 -0.1140 -0.0303
  576MOL0     C77656  10.949   1.077  -0.175  0.2193  0.0366 -0.7481
  576MOL0     C77657  11.006   1.124  -0.059  0.4355  0.4140 -0.8468
  576MOL0     C77658  11.141   1.096  -0.038  0.0737  0.2029 -0.9926
  576MOL0     C77659  11.214   1.030  -0.134  0.8227  0.4673  0.6393
  576MOL0     O77660  11.350   1.016  -0.120 -0.4987  0.4361 -0.3741
  576MOL0     C77661  11.391   0.927  -0.018 -0.5709  0.3160 -0.2860
  576MOL0     C77662  11.474   0.994   0.091 -1.0203  0.1385 -0.7623
  576MOL0     C77663  11.557   0.897   0.192  0.3106 -0.2205 -0.2473
  576MOL0     C77664  11.459   0.824   0.296 -0.0563  0.4316 -0.1170
  576MOL0     C77665  11.515   0.691   0.365 -0.0885 -0.3181  0.2372
  576MOL0     C77666  11.473   0.694   0.517  0.4984 -0.4899 -0.1000
  576MOL0     C77667  11.500   0.562   0.587  0.3308  0.4749 -0.2640
  576MOL0     C77668  11.642   0.506   0.595 -0.3608 -0.2475  0.1096
  576MOL0    Cl77669  11.745   0.581   0.722  0.0866 -0.1214  0.1429
  576MOL0     C77670  11.159   1.003  -0.255  0.7852  0.7245 -0.7098
  576MOL0     C77671  11.018   1.007  -0.277  0.6071  0.4128 -0.8954
  576MOL0     O77672  10.728   0.898  -0.249  0.2603 -0.3514 -0.1673
  576MOL0     C77673  10.559   1.209  -0.176  0.1288 -0.1521  0.1315
  576MOL0     C77674  10.432   1.269  -0.170  0.2566  0.5299 -1.2141
  576MOL0     N77675   9.601   1.375   0.071  0.4178  0.3007 -0.3722
  576MOL0     N77676   9.506   1.299   0.120  1.0076 -0.9381 -0.8344
  576MOL0     C77677   8.465   1.477   0.394  0.6859 -0.7549 -0.2293
  576MOL0     C77678   8.328   1.497   0.375 -0.6344  0.3216  0.1635
  576MOL0     C77679   7.899   1.522   0.258  0.3938  0.9913  0.7159
  576MOL0     C77680   7.879   1.541   0.116 -0.5824  0.0475  0.3148
  576MOL0     C77681   7.770   1.600   0.060  0.0774  0.4864 -0.4204
  576MOL0     C77682   7.661   1.613   0.138 -0.0310 -0.2167 -1.0239
  576MOL0     O77683   7.548   1.648   0.080 -0.0885  0.6692 -0.2783
  576MOL0     C77684   7.493   1.769   0.127 -0.3910  0.9291  0.4558
  576MOL0     C77685   7.344   1.752   0.091 -1.0534  0.3584  0.5605
  576MOL0     C77686   7.246   1.856   0.117  0.0833  0.6919 -0.4897
  576MOL0     C77687   7.106   1.802   0.087  0.6158 -0.1189 -0.1553
  576MOL0     C77688   6.994   1.885   0.132 -0.3286  0.5301  1.1066
  576MOL0     C77689   6.901   1.947   0.179 -0.2014  0.2293  0.3862
  576MOL0     C77690   7.672   1.591   0.276  0.2480  0.5998  0.5603
  576MOL0     C77691   7.790   1.551   0.343  0.7112  0.2660  0.4194
  576MOL0     C77692   7.784   1.534   0.491  0.0831 -0.3909 -0.1973
  576MOL0     H77693   8.307   1.340   0.077  1.5164  1.3246 -3.1325
  576MOL0     H77694   8.543   1.277   0.134  1.2925 -0.7971  1.8415
  576MOL0     H77695   8.789   1.352   0.175  0.2040  0.3973  1.4180
  576MOL0     H77696   8.716   1.514   0.192  1.5463 -0.5925 -3.1476
  576MOL0     H77697   8.898   1.561   0.360  1.1023  0.8492 -2.9082
  576MOL0     H77698   8.963   1.508   0.210  1.4741 -3.0519 -0.6928
  576MOL0     H77699   8.992   1.297   0.264 -1.8407 -1.4150  0.8354
  576MOL0     H77700   8.918   1.311   0.429 -1.6146  2.1984 -1.7481
  576MOL0     H77701   9.153   1.481   0.350 -0.9165 -0.9362 -0.5395
  576MOL0     H77702   9.099   1.461   0.513  3.5165  0.7016 -0.3029
  576MOL0     H77703   9.196   1.242   0.547  1.4231  0.6450  0.7680
  576MOL0     H77704   9.198   1.211   0.378  1.3782  1.0636 -0.8840
  576MOL0     H77705   9.370   1.392   0.347 -0.3234 -0.4266  0.6206
  576MOL0     H77706   9.373   1.410   0.532  0.2272  0.4821 -0.2451
  576MOL0     H77707   9.414   1.158   0.525 -0.7871  1.5276  1.0903
  576MOL0     H77708   9.550   1.271   0.483 -0.2526  1.0725 -0.9425
  576MOL0     H77709   9.529   1.064   0.327 -2.1395 -0.9356 -0.4803
  576MOL0     H77710   9.385   1.127   0.266 -1.5797  1.5008  1.8197
  576MOL0     H77711   9.753   1.289   0.340 -2.0886  1.7363  2.0369
  576MOL0     H77712   9.843   1.478   0.012  0.3112  2.6745  1.6298
  576MOL0     H77713   9.872   1.484   0.184  0.9155  1.8591 -1.6433
  576MOL0     H77714  10.049   1.347   0.127  0.0495  0.2854 -1.0392
  576MOL0     H77715   9.925   1.214   0.145 -0.9432  1.3943  1.7249
  576MOL0     H77716   9.991   1.361  -0.104  0.7914 -0.1727  0.3093
  576MOL0     H77717   9.870   1.224  -0.094 -0.9652  1.3261  1.6626
  576MOL0     H77718  10.052   1.117  -0.166  3.1086 -1.5626 -0.4706
  576MOL0     H77719  10.115   1.123   0.002  2.3735 -1.0535 -0.6484
  576MOL0     H77720  10.241   0.985  -0.167  0.1857 -0.0784 -0.6938
  576MOL0     H77721  10.465   0.886  -0.229  2.2473  0.4060 -4.7379
  576MOL0     H77722  10.946   1.195  -0.004 -1.1169  1.3370 -3.5318
  576MOL0     H77723  11.194   1.129   0.050 -0.2118 -2.5685  0.3412
  576MOL0     H77724  11.305   0.879   0.029 -1.1460  1.2941 -0.3103
  576MOL0     H77725  11.452   0.850  -0.066  0.0877  0.1601  0.7594
  576MOL0     H77726  11.556   1.044   0.039 -1.4682 -1.2765 -2.9858
  576MOL0     H77727  11.421   1.074   0.142  2.1386  2.8143 -1.3550
  576MOL0     H77728  11.607   0.819   0.135  0.0205  1.7134 -3.3851
  576MOL0     H77729  11.633   0.958   0.242  1.4019 -1.5941 -0.1737
  576MOL0     H77730  11.367   0.791   0.248 -0.1976  0.8357 -0.1271
  576MOL0     H77731  11.425   0.890   0.377 -1.0443 -1.3688  1.0161
  576MOL0     H77732  11.623   0.684   0.354 -0.0778 -3.3373  1.3772
  576MOL0     H77733  11.475   0.603   0.314  3.5100 -0.6748 -2.3237
  576MOL0     H77734  11.523   0.779   0.563  0.5960 -1.5056  1.7448
  576MOL0     H77735  11.366   0.718   0.524  0.1183 -1.4238 -2.0727
  576MOL0     H77736  11.439   0.486   0.538 -1.3588 -0.5417  3.0846
  576MOL0     H77737  11.468   0.568   0.692 -1.2000 -1.3842 -0.5733
  576MOL0     H77738  11.624   0.400   0.619  0.6087 -0.6930 -0.9921
  576MOL0     H77739  11.699   0.507   0.502 -0.5131  0.4820  0.0201
  576MOL0     H77740  11.227   0.953  -0.324  0.1097 -2.3141  0.6454
  576MOL0     H77741  10.968   0.970  -0.366 -0.0274 -3.0695  0.7475
  576MOL0     H77742  10.640   1.278  -0.153 -0.1038 -0.4411  1.9343
  576MOL0     H77743  10.419   1.377  -0.163 -1.9620  0.2088  0.6346
  576MOL0     H77744   8.502   1.532   0.480 -4.3193 -0.7139  2.2682
  576MOL0     H77745   8.273   1.556   0.447 -2.8592 -1.7446  0.2818
  576MOL0     H77746   7.960   1.539   0.044 -0.6298 -1.9801  0.2662
  576MOL0     H77747   7.763   1.614  -0.048 -0.4020 -2.1880 -0.8006
  576MOL0     H77748   7.527   1.860   0.076  0.8746  0.3734  0.2914
  576MOL0     H77749   7.509   1.793   0.233 -0.7329  1.7365  0.3342
  576MOL0     H77750   7.313   1.657   0.137 -0.4503 -1.2943 -2.2505
  576MOL0     H77751   7.353   1.732  -0.016  0.3500 -0.4610  0.8075
  576MOL0     H77752   7.270   1.940   0.051  3.9755  0.8618  0.8455
  576MOL0     H77753   7.248   1.895   0.220  1.4612 -1.1713  0.2541
  576MOL0     H77754   7.090   1.793  -0.021  0.9165 -0.4463 -0.1763
  576MOL0     H77755   7.082   1.699   0.114 -1.3332  0.3646  0.0428
  576MOL0     H77756   6.825   1.993   0.239 -1.2872 -1.7562  0.6277
  576MOL0     H77757   7.580   1.604   0.332  1.3939  1.4961  2.3507
  576MOL0     H77758   7.788   1.427   0.513 -1.8950 -0.5966 -0.5911
  576MOL0     H77759   7.876   1.578   0.530  0.7769  0.7129 -2.8967
  576MOL0     H77760   7.690   1.576   0.530 -1.2637 -1.6398 -1.9342
  577MOL0     O77761   8.616   8.833  10.190  0.1814 -0.0134 -0.7178
  577MOL0     C77762   8.627   8.879  10.079 -0.4015 -0.5361  0.0353
  577MOL0     O77763   8.715   8.978  10.030 -0.5527 -0.2598 -0.2502
  577MOL0     C77764   8.809   9.053  10.103  0.6983 -0.9954  0.4715
  577MOL0     C77765   8.834   9.046  10.241  0.1690 -0.0378 -1.5872
  577MOL0     C77766   8.911   9.146  10.309  0.2976 -0.2389  0.8829
  577MOL0     C77767   8.981   9.244  10.231  0.0694  0.0744 -0.0993
  577MOL0     O77768   9.043   9.347  10.288  0.7899  0.0401 -0.2560
  577MOL0     C77769   9.028   9.383  10.425  1.0382  0.2025 -0.2553
  577MOL0     C77770   9.127   9.499  10.467  0.0192  0.1361 -0.6596
  577MOL0     C77771   9.265   9.442  10.493 -0.0206  0.4783  0.3342
  577MOL0     C77772   9.371   9.550  10.494  0.2873  0.0848  0.8889
  577MOL0     C77773   9.516   9.486  10.499  0.3527  0.7429 -0.3896
  577MOL0     C77774   9.634   9.591  10.502 -0.4037  0.3120  0.0491
  577MOL0     C77775   9.769   9.524  10.499 -0.0662 -0.1464 -0.1551
  577MOL0     C77776   9.871   9.614  10.434 -0.6469  0.6407 -0.2262
  577MOL0     N77777   9.882   9.605  10.284  0.6731 -0.3366 -0.1358
  577MOL0     C77778   9.928   9.503  10.205 -0.2506  0.2418  0.3067
  577MOL0     C77779   9.940   9.555  10.085 -0.2293  0.0247  0.6067
  577MOL0     C77780   9.980   9.470   9.971 -0.3896  0.0527 -0.4214
  577MOL0     C77781  10.135   9.464   9.962  0.3295  0.1145  0.1600
  577MOL0     C77782  10.186   9.372   9.852 -0.6350  0.0894 -0.6932
  577MOL0     C77783  10.330   9.333   9.847 -0.1652  0.0019  0.0562
  577MOL0     O77784  10.427   9.438   9.870  0.1367 -0.4896  0.4281
  577MOL0     C77785  10.555   9.405   9.837  0.3507 -0.2109  0.1597
  577MOL0     C77786  10.612   9.270   9.813  1.1294 -1.1650 -0.6180
  577MOL0     C77787  10.743   9.254   9.778  0.5934 -0.8005 -0.1442
  577MOL0     C77788  10.827   9.372   9.764 -0.1504  0.0208 -0.1656
  577MOL0     C77789  10.967   9.344   9.734 -0.8998 -0.3458  0.6059
  577MOL0     O77790  10.996   9.224   9.685 -0.0345 -0.6128  0.6539
  577MOL0     C77791  11.125   9.174   9.659  0.3152 -0.3764  0.1095
  577MOL0     C77792  11.210   9.245   9.573  0.8450  0.6887 -0.4790
  577MOL0     C77793  11.338   9.193   9.552 -0.1283  0.0452  0.4183
  577MOL0     C77794  11.380   9.083   9.633  0.3646 -0.3674  0.8297
  577MOL0     O77795  11.510   9.033   9.623  0.6612  0.2839 -0.0934
  577MOL0     C77796  11.600   9.072   9.513 -1.5444  0.4875 -0.5034
  577MOL0     C77797  11.741   9.013   9.532  0.4690  0.3211  0.6452
  577MOL0     C77798  11.840   9.096   9.431 -0.1878 -0.2141 -0.3515
  577MOL0     C77799  11.987   9.057   9.434  0.9905 -0.8572 -0.4404
  577MOL0     C77800  12.084   9.141   9.350 -1.1112 -0.3985  0.2316
  577MOL0     C77801  12.186   9.058   9.278 -0.2141  0.0353  0.2840
  577MOL0     C77802  12.287   9.147   9.207 -1.3123 -0.1794 -0.0336
  577MOL0     C77803  12.370   9.234   9.307 -0.1258 -0.6866 -0.1443
  577MOL0    Cl77804  12.446   9.148   9.445  0.3117  0.1459 -0.3943
  577MOL0     C77805  11.289   9.007   9.709 -0.5359 -0.1820 -0.0339
  577MOL0     C77806  11.157   9.048   9.717  0.2657  0.5006 -0.1771
  577MOL0     O77807  11.054   9.424   9.780 -0.4018 -0.1548  0.5082
  577MOL0     C77808  10.784   9.498   9.785  0.0883 -0.2189 -0.3334
  577MOL0     C77809  10.643   9.518   9.821  0.6910  0.7972  0.7762
  577MOL0     N77810   9.893   9.686  10.090  0.6469  0.4400 -0.8285
  577MOL0     N77811   9.857   9.715  10.208  0.6551 -0.0499  0.4522
  577MOL0     C77812   8.963   9.245  10.089  0.8507 -0.2134 -0.0088
  577MOL0     C77813   8.875   9.155  10.032  0.0593 -0.0581 -1.2640
  577MOL0     C77814   8.536   8.805   9.977 -0.9049 -0.4033  0.3243
  577MOL0     C77815   8.425   8.745  10.034  0.2699  0.2739  0.1566
  577MOL0     C77816   8.326   8.689   9.952  0.5501  0.1634 -1.0649
  577MOL0     C77817   8.350   8.671   9.818 -0.5794  0.5661  0.1538
  577MOL0     O77818   8.275   8.594   9.733  0.2834  0.5069  0.0958
  577MOL0     C77819   8.167   8.510   9.786  0.8479 -0.1161  0.5947
  577MOL0     C77820   8.084   8.433   9.678 -0.0483  0.0626  0.3983
  577MOL0     C77821   7.981   8.513   9.598 -0.5902  0.1356  0.2920
  577MOL0     C77822   7.875   8.410   9.547 -0.3551  0.7376  0.4813
  577MOL0     C77823   7.753   8.462   9.496 -0.4999 -0.1643 -0.1338
  577MOL0     C77824   7.657   8.504   9.435  0.4856  0.1988 -0.4523
  577MOL0     C77825   8.472   8.714   9.764 -0.5366  0.2332  0.3346
  577MOL0     C77826   8.564   8.791   9.838  0.4641  0.3614 -0.2255
  577MOL0     C77827   8.684   8.854   9.766  0.4247  0.7411 -1.0424
  577MOL0     H77828   8.787   8.977  10.310 -2.3198  1.2347 -1.8844
  577MOL0     H77829   8.916   9.146  10.418  3.3086  1.6167  0.8472
  577MOL0     H77830   8.926   9.419  10.441 -0.5495 -3.6989 -0.4632
  577MOL0     H77831   9.044   9.289  10.480 -0.3446 -1.3748 -2.3775
  577MOL0     H77832   9.090   9.546  10.558 -2.0782  0.7418 -1.7777
  577MOL0     H77833   9.122   9.572  10.386 -0.0970  3.7633  2.3320
  577MOL0     H77834   9.285   9.371  10.412 -0.5463  0.2119  0.4346
  577MOL0     H77835   9.275   9.385  10.586 -0.6477 -0.0395  0.0906
  577MOL0     H77836   9.359   9.601  10.398  1.4637 -1.7414 -0.3008
  577MOL0     H77837   9.357   9.622  10.575 -0.7441 -0.5076  1.2564
  577MOL0     H77838   9.518   9.429  10.592  1.2636  1.0560 -0.2080
  577MOL0     H77839   9.531   9.414  10.418  2.9999 -3.7480  3.5376
  577MOL0     H77840   9.629   9.641  10.405 -0.2209 -0.5115 -0.3942
  577MOL0     H77841   9.630   9.666  10.582 -0.5358 -0.7469  1.0557
  577MOL0     H77842   9.763   9.431  10.443  2.8793 -0.5985  0.1014
  577MOL0     H77843   9.813   9.496  10.595  0.9133 -2.5582 -1.2230
  577MOL0     H77844   9.856   9.716  10.471 -3.1024 -0.8252  3.3456
  577MOL0     H77845   9.969   9.582  10.469 -1.6149 -3.4777 -0.7810
  577MOL0     H77846   9.950   9.403  10.241 -3.0646 -0.0867  1.4187
  577MOL0     H77847   9.930   9.373   9.978  0.1467 -0.0803  2.3041
  577MOL0     H77848   9.945   9.525   9.883 -2.9981 -2.3515 -1.0238
  577MOL0     H77849  10.176   9.566   9.956  1.9158 -0.4541  0.8848
  577MOL0     H77850  10.171   9.433  10.060 -0.3987  1.7925  0.9999
  577MOL0     H77851  10.173   9.423   9.756  1.1457 -0.5148 -1.3010
  577MOL0     H77852  10.122   9.284   9.856 -1.0200  0.3300  3.9382
  577MOL0     H77853  10.352   9.285   9.751 -1.5128 -0.5860  0.0318
  577MOL0     H77854  10.352   9.247   9.910  0.3643 -1.6898 -2.3049
  577MOL0     H77855  10.561   9.174   9.824 -0.5891 -0.5078 -2.3104
  577MOL0     H77856  10.779   9.152   9.769 -0.1271 -1.0400 -0.4280
  577MOL0     H77857  11.163   9.334   9.534  0.6294  1.5292  1.5971
  577MOL0     H77858  11.410   9.236   9.482 -0.2070 -1.2773 -0.5241
  577MOL0     H77859  11.552   9.043   9.419 -1.2746 -0.3963 -0.3700
  577MOL0     H77860  11.613   9.180   9.502  0.3946  0.2086 -1.3361
  577MOL0     H77861  11.785   9.024   9.631 -1.4929 -0.4496  1.6737
  577MOL0     H77862  11.749   8.908   9.503 -1.6899  0.6878 -1.7609
  577MOL0     H77863  11.803   9.083   9.329  2.1605  1.6631 -1.5517
  577MOL0     H77864  11.844   9.202   9.455  3.2196 -0.5369  1.1884
  577MOL0     H77865  11.982   8.952   9.403  1.4144 -1.5304  1.5757
  577MOL0     H77866  12.017   9.066   9.539  0.2712  0.0559 -0.2978
  577MOL0     H77867  12.129   9.212   9.421  0.3525 -0.1818 -0.8671
  577MOL0     H77868  12.021   9.192   9.278  0.9227 -0.1059 -1.4449
  577MOL0     H77869  12.237   8.994   9.351  1.3518  2.3547  1.3492
  577MOL0     H77870  12.130   8.995   9.209  0.7020 -1.4080  0.8088
  577MOL0     H77871  12.229   9.222   9.153 -2.4926 -1.6891 -0.9493
  577MOL0     H77872  12.343   9.081   9.140  2.5293  1.9588  0.8064
  577MOL0     H77873  12.455   9.273   9.250  0.5260 -0.8643  0.6824
  577MOL0     H77874  12.314   9.318   9.348  0.5841 -0.7089  0.8949
  577MOL0     H77875  11.330   8.928   9.770 -0.4825 -0.6024 -0.6071
  577MOL0     H77876  11.084   8.996   9.777  0.9750  0.4315  0.6386
  577MOL0     H77877  10.861   9.574   9.781  0.4109 -0.4602  0.9735
  577MOL0     H77878  10.602   9.618   9.836 -0.6082  0.0529  2.6358
  577MOL0     H77879   9.012   9.324  10.034 -0.2590  0.1354 -0.5353
  577MOL0     H77880   8.856   9.152   9.925 -1.6567  2.2431 -1.1002
  577MOL0     H77881   8.406   8.735  10.140 -2.2480 -1.8024 -0.3915
  577MOL0     H77882   8.240   8.639   9.995 -2.0544  2.4594 -3.2139
  577MOL0     H77883   8.089   8.555   9.848 -0.4851 -1.2475 -0.1777
  577MOL0     H77884   8.213   8.431   9.845  0.4661 -0.6788  0.1506
  577MOL0     H77885   8.033   8.359   9.740 -1.5534  0.3765 -0.4000
  577MOL0     H77886   8.138   8.375   9.602 -0.7554 -0.0107 -0.0578
  577MOL0     H77887   8.023   8.569   9.515 -1.7006  0.0027 -0.3676
  577MOL0     H77888   7.937   8.582   9.671  1.1732  1.0871  0.5098
  577MOL0     H77889   7.918   8.361   9.459  2.2439  2.0172  0.9189
  577MOL0     H77890   7.848   8.329   9.615  0.7218 -0.5216 -0.5339
  577MOL0     H77891   7.571   8.547   9.389  0.3033  0.3513  0.0187
  577MOL0     H77892   8.474   8.698   9.657 -2.0993  0.2788  0.2731
  577MOL0     H77893   8.678   8.844   9.657 -2.3535  1.9715 -1.0900
  577MOL0     H77894   8.681   8.963   9.781  2.0896  0.5069  1.7582
  577MOL0     H77895   8.774   8.815   9.814 -1.1643  0.1997  1.7386
  578MOL0     O77896   1.586   6.241   7.860 -0.3878 -0.1301 -0.4115
  578MOL0     C77897   1.591   6.347   7.919  0.5161 -0.8123 -0.7500
  578MOL0     O77898   1.706   6.409   7.962 -0.6382 -0.6058 -0.1077
  578MOL0     C77899   1.828   6.352   7.939  0.0435 -0.3492 -0.1416
  578MOL0     C77900   1.896   6.338   7.817 -0.6354 -0.9018  1.0887
  578MOL0     C77901   2.026   6.288   7.801  0.0368  0.0086 -1.1225
  578MOL0     C77902   2.087   6.229   7.912  0.1359 -0.8026 -0.7373
  578MOL0     O77903   2.212   6.184   7.881 -0.3678  0.5938 -0.0379
  578MOL0     C77904   2.280   6.115   7.989 -0.2184 -0.0512 -0.2158
  578MOL0     C77905   2.417   6.063   7.943  1.1513 -0.2767  0.4185
  578MOL0     C77906   2.499   5.981   8.039 -0.0582 -0.1828  0.3988
  578MOL0     C77907   2.536   6.062   8.164 -0.9676  0.3723  0.2906
  578MOL0     C77908   2.661   6.008   8.241  0.4319 -1.2679 -0.5843
  578MOL0     C77909   2.722   6.099   8.343  0.0553 -0.2085 -1.2826
  578MOL0     C77910   2.849   6.042   8.424  0.4365  0.2574 -0.1211
  578MOL0     C77911   2.801   5.945   8.533  0.4216 -0.1795  0.9803
  578MOL0     N77912   2.903   5.904   8.630  0.8033  0.7251  0.1882
  578MOL0     C77913   3.038   5.942   8.632  0.3642  0.3872  0.3409
  578MOL0     C77914   3.073   5.913   8.760 -1.0159 -0.5383  0.1422
  578MOL0     C77915   3.216   5.931   8.803  0.2634 -0.2742  0.2809
  578MOL0     C77916   3.231   6.082   8.822  0.3086  0.1448 -1.3417
  578MOL0     C77917   3.372   6.125   8.862 -0.6646  0.3282  0.0679
  578MOL0     C77918   3.489   6.096   8.761  0.3478  0.5251  0.7091
  578MOL0     O77919   3.498   6.185   8.656  0.2674 -0.4801  0.1362
  578MOL0     C77920   3.577   6.302   8.667 -0.0588 -0.2937  0.2680
  578MOL0     C77921   3.631   6.365   8.791 -0.3349  0.6904  0.3328
  578MOL0     C77922   3.709   6.480   8.783  0.3122 -0.3919 -0.2548
  578MOL0     C77923   3.730   6.549   8.664  0.0897  0.2154 -1.1639
  578MOL0     C77924   3.806   6.676   8.665 -0.0979 -0.9302  0.1860
  578MOL0     O77925   3.793   6.757   8.773  0.2767  0.6976  0.4174
  578MOL0     C77926   3.865   6.868   8.787 -0.0032 -0.9276 -0.6894
  578MOL0     C77927   3.815   6.998   8.747  0.6395  0.9247  0.3250
  578MOL0     C77928   3.899   7.114   8.753 -0.0547  0.1416  0.7824
  578MOL0     C77929   4.031   7.103   8.797 -0.2032  0.6146  0.0499
  578MOL0     O77930   4.108   7.220   8.805  0.4204  0.3326 -0.5091
  578MOL0     C77931   4.228   7.216   8.898 -0.4751 -0.4456  0.2026
  578MOL0     C77932   4.277   7.371   8.913  0.4344  0.4542 -1.2398
  578MOL0     C77933   4.369   7.399   8.790 -0.5390 -0.0818 -0.4721
  578MOL0     C77934   4.399   7.545   8.807 -2.0870 -0.1452  0.2790
  578MOL0     C77935   4.516   7.595   8.711 -0.5993  0.3431  1.0433
  578MOL0     C77936   4.655   7.573   8.782  0.2530  0.2974 -0.2094
  578MOL0     C77937   4.776   7.568   8.696 -0.3941  1.0946 -0.0212
  578MOL0     C77938   4.811   7.701   8.636 -0.1740 -0.2752  0.0849
  578MOL0    Cl77939   4.957   7.690   8.523  0.4255  0.1099  0.2268
  578MOL0     C77940   4.071   6.971   8.844 -0.2131 -0.7192  0.4217
  578MOL0     C77941   3.991   6.862   8.841 -0.4031  0.4355  0.8944
  578MOL0     O77942   3.881   6.705   8.571 -0.2300 -0.4994 -0.2255
  578MOL0     C77943   3.678   6.492   8.542  0.2713 -0.2581  1.1845
  578MOL0     C77944   3.619   6.364   8.552 -0.2367  0.0849  0.5569
  578MOL0     N77945   2.966   5.860   8.824  0.2361  0.1550  0.0216
  578MOL0     N77946   2.866   5.855   8.741 -0.4019 -0.9168 -0.9862
  578MOL0     C77947   2.021   6.241   8.034 -0.1923 -0.3221  0.1665
  578MOL0     C77948   1.896   6.302   8.048 -0.6218  0.2186  0.3789
  578MOL0     C77949   1.465   6.431   7.943 -0.7822  0.4299  0.3216
  578MOL0     C77950   1.449   6.483   8.074  0.4264  0.3738  0.5058
  578MOL0     C77951   1.340   6.558   8.102  0.1224 -0.4817 -0.3578
  578MOL0     C77952   1.232   6.580   8.013 -0.6436  0.0848  0.2053
  578MOL0     O77953   1.124   6.647   8.059  0.0865 -0.1290 -0.3682
  578MOL0     C77954   1.005   6.631   7.989 -0.1350  0.1365  0.6820
  578MOL0     C77955   0.936   6.495   8.011  0.2036 -0.3955 -0.3634
  578MOL0     C77956   0.856   6.434   7.902  0.3785 -0.6287  0.0716
  578MOL0     C77957   0.729   6.369   7.960  1.0800 -0.1506 -0.8400
  578MOL0     C77958   0.640   6.335   7.847  0.2960 -0.0167 -1.0580
  578MOL0     C77959   0.543   6.296   7.785  0.8422  0.1818 -0.8769
  578MOL0     C77960   1.248   6.526   7.886 -0.1218 -0.1495 -0.6703
  578MOL0     C77961   1.360   6.450   7.848 -0.2930 -0.5090  0.2461
  578MOL0     C77962   1.361   6.393   7.708  0.4581 -0.3973 -0.2626
  578MOL0     H77963   1.850   6.387   7.732  1.4320 -0.3258  0.2425
  578MOL0     H77964   2.075   6.289   7.704  0.8845 -0.2953 -0.7036
  578MOL0     H77965   2.293   6.183   8.073 -0.6130 -1.5417  1.0896
  578MOL0     H77966   2.215   6.038   8.031 -0.7271  0.0715 -0.7579
  578MOL0     H77967   2.464   6.158   7.917 -0.6863  0.3883 -0.6353
  578MOL0     H77968   2.415   6.007   7.849  1.2916  2.0242 -1.0456
  578MOL0     H77969   2.590   5.956   7.984 -1.5368 -0.9742 -1.7762
  578MOL0     H77970   2.446   5.889   8.063 -2.0833  0.6650 -0.6134
  578MOL0     H77971   2.549   6.168   8.140 -1.6748  1.0081  2.5214
  578MOL0     H77972   2.453   6.048   8.234 -1.9779 -0.4948 -1.0178
  578MOL0     H77973   2.642   5.911   8.287 -0.9301 -0.7637 -0.0194
  578MOL0     H77974   2.739   5.997   8.164  1.2576  2.6013 -0.5132
  578MOL0     H77975   2.767   6.181   8.287  3.6971 -0.8601  0.3553
  578MOL0     H77976   2.648   6.134   8.415  1.5167 -3.5391  2.2206
  578MOL0     H77977   2.896   6.130   8.469  0.1040  1.8788 -2.7437
  578MOL0     H77978   2.927   5.995   8.363  2.8284  2.7497  0.8110
  578MOL0     H77979   2.729   6.002   8.592 -0.4876  3.7772 -3.3903
  578MOL0     H77980   2.756   5.856   8.488 -1.3195  0.6787  0.9557
  578MOL0     H77981   3.092   5.988   8.550 -1.3621 -1.6904 -2.1270
  578MOL0     H77982   3.230   5.863   8.888  0.0871 -0.2504  0.3294
  578MOL0     H77983   3.279   5.893   8.722  2.1175 -0.9831  1.9669
  578MOL0     H77984   3.215   6.124   8.722 -1.8742  1.1451 -0.6347
  578MOL0     H77985   3.150   6.112   8.889  0.8056 -1.4391  0.0210
  578MOL0     H77986   3.396   6.082   8.960  0.5430  3.8405  1.4814
  578MOL0     H77987   3.369   6.230   8.894 -2.7469  0.3489 -0.0774
  578MOL0     H77988   3.458   6.005   8.710  0.2809  0.4233  0.9332
  578MOL0     H77989   3.586   6.075   8.807  0.1073 -0.7409  0.6748
  578MOL0     H77990   3.619   6.334   8.894  3.8746  1.1562  1.1438
  578MOL0     H77991   3.748   6.530   8.872 -0.6440 -1.6580  0.9313
  578MOL0     H77992   3.715   7.010   8.708 -0.2210 -4.1466  0.3911
  578MOL0     H77993   3.852   7.208   8.725  0.3849  0.8012  2.1755
  578MOL0     H77994   4.200   7.172   8.994 -0.2897  0.1021  0.5072
  578MOL0     H77995   4.308   7.157   8.852  0.9819  0.4958  1.4610
  578MOL0     H77996   4.207   7.454   8.915  1.6906  1.5426 -0.4970
  578MOL0     H77997   4.338   7.383   9.003 -0.0648  0.2034 -0.8637
  578MOL0     H77998   4.457   7.334   8.793 -0.2470  0.3190  3.1640
  578MOL0     H77999   4.313   7.390   8.696  0.0115  0.8671 -0.9006
  578MOL0     H78000   4.441   7.561   8.907 -0.7270  2.3492 -0.5942
  578MOL0     H78001   4.309   7.602   8.785 -0.6125  1.1622 -3.1341
  578MOL0     H78002   4.503   7.700   8.687  0.5587  0.1415 -0.5506
  578MOL0     H78003   4.491   7.540   8.620 -1.7526  1.4080  0.6827
  578MOL0     H78004   4.680   7.640   8.865  1.3222  0.8889 -0.9736
  578MOL0     H78005   4.641   7.471   8.820 -1.9281  1.2312  1.7564
  578MOL0     H78006   4.752   7.495   8.618 -0.8945  1.2232  0.0084
  578MOL0     H78007   4.867   7.550   8.753  0.9269  1.9828 -1.7736
  578MOL0     H78008   4.730   7.749   8.581  0.3860 -0.6635 -1.1022
  578MOL0     H78009   4.851   7.757   8.722  1.2361  0.7249 -1.1813
  578MOL0     H78010   4.170   6.938   8.873  0.6822  1.4787  0.0213
  578MOL0     H78011   4.027   6.763   8.868  5.0860  1.6064 -0.7821
  578MOL0     H78012   3.678   6.540   8.445 -2.7339  0.5977  1.5189
  578MOL0     H78013   3.586   6.325   8.457 -1.7278  0.6177  0.8343
  578MOL0     H78014   2.066   6.201   8.124  2.6756  1.4995 -0.3060
  578MOL0     H78015   1.842   6.289   8.141  0.2563  1.1099  1.0288
  578MOL0     H78016   1.514   6.452   8.156 -0.9746 -0.0274  1.4977
  578MOL0     H78017   1.330   6.601   8.202 -0.3003  1.7674 -1.3093
  578MOL0     H78018   1.022   6.647   7.882 -0.1099  1.6117  0.8898
  578MOL0     H78019   0.930   6.705   8.016 -2.4916 -1.5452 -0.8592
  578MOL0     H78020   0.883   6.490   8.107 -0.9087  3.5427 -0.6132
  578MOL0     H78021   1.022   6.429   8.028  0.8061 -0.3426 -2.8201
  578MOL0     H78022   0.916   6.361   7.847 -1.4196 -0.1785 -2.6851
  578MOL0     H78023   0.821   6.513   7.835  3.3411  1.0516  0.3209
  578MOL0     H78024   0.764   6.273   8.000 -0.0615 -1.4377 -2.7478
  578MOL0     H78025   0.669   6.431   8.028 -0.5817 -0.8298 -1.6294
  578MOL0     H78026   0.457   6.255   7.736  1.3246 -0.7910 -0.9250
  578MOL0     H78027   1.175   6.548   7.809 -1.2675 -1.0106  0.1279
  578MOL0     H78028   1.463   6.398   7.669  1.7502 -0.9264  2.7662
  578MOL0     H78029   1.336   6.287   7.719 -1.9764  0.2201  0.8348
  578MOL0     H78030   1.286   6.433   7.640  0.5570 -1.1676 -0.8314
  579MOL0     O78031   7.490   4.639   4.035  0.5585 -0.4386 -0.2101
  579MOL0     C78032   7.411   4.550   4.010  1.2678 -0.6171  0.1570
  579MOL0     O78033   7.430   4.435   3.940 -0.5763  0.1211  0.7112
  579MOL0     C78034   7.516   4.423   3.835 -1.7855  0.1981  0.2005
  579MOL0     C78035   7.526   4.526   3.742  0.3996  0.2843  0.1624
  579MOL0     C78036   7.619   4.507   3.633 -0.0539  0.5862  0.0371
  579MOL0     C78037   7.684   4.384   3.615 -0.0588  0.1755 -0.0150
  579MOL0     O78038   7.772   4.362   3.513  0.3956 -0.1224 -0.6010
  579MOL0     C78039   7.837   4.475   3.458 -0.3144 -0.7534  0.1652
  579MOL0     C78040   7.979   4.453   3.420  0.0425  0.8913  0.6912
  579MOL0     C78041   8.011   4.294   3.394  0.3832 -0.6730 -0.1961
  579MOL0     C78042   8.138   4.277   3.320  0.3769  0.2930 -0.0047
  579MOL0     C78043   8.260   4.262   3.407  0.6561 -0.3363  0.2064
  579MOL0     C78044   8.377   4.234   3.330  0.2568  0.4445 -1.8029
  579MOL0     C78045   8.504   4.174   3.396  0.2561 -0.2157  0.9904
  579MOL0     C78046   8.572   4.286   3.473 -1.0171 -0.6367 -0.0932
  579MOL0     N78047   8.671   4.230   3.573 -0.2576 -0.6430 -0.5203
  579MOL0     C78048   8.810   4.245   3.563  0.3612  0.7218 -0.7414
  579MOL0     C78049   8.861   4.162   3.667  0.1541  0.3956 -0.3251
  579MOL0     C78050   9.006   4.119   3.692 -0.6309  0.6362 -0.1969
  579MOL0     C78051   9.027   3.983   3.612  0.6428  0.0881  0.6294
  579MOL0     C78052   9.153   3.909   3.650 -0.6383 -0.7562  0.6810
  579MOL0     C78053   9.285   3.989   3.619 -0.1679  0.4279 -0.0796
  579MOL0     O78054   9.291   4.097   3.711 -0.3021 -0.1499  0.2030
  579MOL0     C78055   9.418   4.145   3.740  0.9190  0.2422  0.8227
  579MOL0     C78056   9.525   4.070   3.790  0.1254 -0.3217 -0.7000
  579MOL0     C78057   9.642   4.138   3.826 -0.0161 -0.1599  0.3259
  579MOL0     C78058   9.652   4.273   3.824  0.3424  0.2952 -0.1347
  579MOL0     C78059   9.776   4.343   3.851  0.8338 -0.7266 -0.7239
  579MOL0     O78060   9.881   4.275   3.916 -0.5736 -0.1250  0.2765
  579MOL0     C78061  10.007   4.321   3.938  0.4430  0.0822 -0.2120
  579MOL0     C78062  10.107   4.228   3.948  0.7437  1.0148  0.2543
  579MOL0     C78063  10.238   4.268   3.951  0.6405 -0.2634 -0.2318
  579MOL0     C78064  10.273   4.411   3.948  0.0148 -0.2169 -0.7516
  579MOL0     O78065  10.413   4.431   3.961  0.9313  0.1492  0.3178
  579MOL0     C78066  10.463   4.564   3.923  0.4568  0.8003 -0.6037
  579MOL0     C78067  10.516   4.549   3.785  0.4699  0.1755  0.8825
  579MOL0     C78068  10.639   4.464   3.774  0.3479 -0.0145  0.3907
  579MOL0     C78069  10.731   4.516   3.655  0.3406 -0.2408 -1.0058
  579MOL0     C78070  10.681   4.464   3.524  0.2006  0.7710  0.1789
  579MOL0     C78071  10.781   4.489   3.409 -0.0591  0.3865  0.5016
  579MOL0     C78072  10.759   4.391   3.288 -1.0195 -0.6689  0.2783
  579MOL0     C78073  10.859   4.395   3.164  0.7101  0.1385  0.4493
  579MOL0    Cl78074  10.844   4.548   3.082  0.2802  0.0171  0.7073
  579MOL0     C78075  10.163   4.508   3.954 -0.5072  0.4206  0.5757
  579MOL0     C78076  10.033   4.460   3.951 -0.2702  0.2715  0.2832
  579MOL0     O78077   9.779   4.463   3.822 -0.3283  0.3627 -0.2606
  579MOL0     C78078   9.539   4.347   3.778  0.9389  0.9018  0.7488
  579MOL0     C78079   9.420   4.284   3.739 -0.0446 -0.7197 -0.9147
  579MOL0     N78080   8.758   4.094   3.721 -0.6801  0.8423  0.1682
  579MOL0     N78081   8.647   4.149   3.682  0.1220  0.5166 -0.0987
  579MOL0     C78082   7.663   4.280   3.709 -0.5317 -0.1193  0.8863
  579MOL0     C78083   7.583   4.307   3.822 -0.4517  0.6533 -0.2593
  579MOL0     C78084   7.276   4.570   4.075 -0.8566 -0.7383  0.3043
  579MOL0     C78085   7.241   4.464   4.152  0.1859 -0.4236 -0.1932
  579MOL0     C78086   7.116   4.459   4.213  1.1351  0.3986  0.8301
  579MOL0     C78087   7.018   4.560   4.193  0.3450 -0.0437  0.3705
  579MOL0     O78088   6.892   4.549   4.240  0.5812 -1.1614  0.2093
  579MOL0     C78089   6.883   4.606   4.368  0.1795 -0.6658 -0.8731
  579MOL0     C78090   6.768   4.532   4.429  0.4418  0.1750 -0.3063
  579MOL0     C78091   6.744   4.588   4.572  0.6782  0.0873  0.2553
  579MOL0     C78092   6.608   4.527   4.612  0.1617  0.9331  0.8243
  579MOL0     C78093   6.537   4.602   4.715 -0.1919  0.3751  0.4715
  579MOL0     C78094   6.491   4.670   4.804  0.3210  0.6242 -0.4663
  579MOL0     C78095   7.052   4.683   4.118 -0.3580  0.0247  0.1043
  579MOL0     C78096   7.183   4.676   4.051 -0.0889  0.0452  0.1784
  579MOL0     C78097   7.214   4.778   3.949 -0.8747 -0.5076 -0.1559
  579MOL0     H78098   7.471   4.619   3.751 -1.6917 -0.6117 -2.0195
  579MOL0     H78099   7.642   4.588   3.565  2.5095  0.4058  0.5979
  579MOL0     H78100   7.780   4.500   3.367 -1.4282  1.1186  1.3255
  579MOL0     H78101   7.845   4.565   3.519 -0.2501  0.4960 -1.5865
  579MOL0     H78102   8.048   4.478   3.501 -0.6645 -1.8983  2.2742
  579MOL0     H78103   8.000   4.516   3.333 -0.1666  1.2830  0.9217
  579MOL0     H78104   7.926   4.248   3.344  1.8705 -2.8562 -0.8495
  579MOL0     H78105   8.015   4.250   3.493 -1.5768  0.2966  0.3572
  579MOL0     H78106   8.125   4.182   3.267  1.9178 -0.1255  0.3226
  579MOL0     H78107   8.148   4.356   3.245 -3.2221 -0.0559 -1.0367
  579MOL0     H78108   8.275   4.348   3.474 -0.0898  0.1626 -0.2662
  579MOL0     H78109   8.246   4.177   3.475 -2.3523 -1.2011 -1.3486
  579MOL0     H78110   8.343   4.155   3.262  0.0109 -0.9846 -0.1176
  579MOL0     H78111   8.409   4.321   3.272 -0.4895  0.4744 -2.1866
  579MOL0     H78112   8.565   4.140   3.312 -2.1509  0.0562 -0.9713
  579MOL0     H78113   8.479   4.097   3.469  2.7608 -0.8125  1.3282
  579MOL0     H78114   8.618   4.363   3.411  1.9077 -0.4223  2.0633
  579MOL0     H78115   8.496   4.331   3.537 -2.4074 -1.5638 -1.0570
  579MOL0     H78116   8.860   4.294   3.479 -2.2499  1.0090 -2.2582
  579MOL0     H78117   9.071   4.198   3.655  0.0908 -0.1508 -0.6452
  579MOL0     H78118   9.014   4.104   3.800  0.2687  0.0437 -0.3332
  579MOL0     H78119   8.946   3.909   3.616 -0.9062  1.6859  0.0543
  579MOL0     H78120   9.025   4.007   3.505 -1.0922 -2.0690  0.0987
  579MOL0     H78121   9.170   3.821   3.587  1.7986  1.1999 -1.6553
  579MOL0     H78122   9.147   3.886   3.757 -0.9926 -0.0613  0.8169
  579MOL0     H78123   9.295   4.031   3.519  1.9813  2.7145  1.0057
  579MOL0     H78124   9.370   3.920   3.625  0.5551  1.2026 -1.1448
  579MOL0     H78125   9.517   3.962   3.789 -4.1382 -0.1537 -1.6212
  579MOL0     H78126   9.734   4.089   3.857 -1.5250 -2.3646  1.5188
  579MOL0     H78127  10.091   4.121   3.940 -0.9105  1.3344 -1.6151
  579MOL0     H78128  10.312   4.191   3.967 -0.7931 -1.6649 -0.1571
  579MOL0     H78129  10.380   4.634   3.926 -0.4933 -0.3134  1.5119
  579MOL0     H78130  10.538   4.592   3.997  0.8050 -1.3657 -0.0476
  579MOL0     H78131  10.438   4.502   3.725 -0.6329 -0.0865  2.4596
  579MOL0     H78132  10.523   4.648   3.741 -2.9143 -0.1680 -0.7775
  579MOL0     H78133  10.697   4.454   3.866 -0.8173 -1.0488  1.0388
  579MOL0     H78134  10.618   4.362   3.739 -3.3870  1.1811 -1.3544
  579MOL0     H78135  10.830   4.475   3.673 -0.3630 -1.0622  1.4316
  579MOL0     H78136  10.732   4.625   3.663 -2.0463 -0.2524  0.3950
  579MOL0     H78137  10.584   4.509   3.497  1.1845  2.5423 -0.5363
  579MOL0     H78138  10.667   4.355   3.528 -0.4323  0.8606  0.7196
  579MOL0     H78139  10.768   4.592   3.375  0.7786  0.8594  1.5650
  579MOL0     H78140  10.886   4.487   3.440 -0.4420  0.5019  1.8584
  579MOL0     H78141  10.658   4.406   3.249 -0.8644 -3.6118 -1.6202
  579MOL0     H78142  10.765   4.286   3.318  3.2010 -1.7221 -3.1610
  579MOL0     H78143  10.961   4.388   3.204  1.0921  3.0051  0.1902
  579MOL0     H78144  10.844   4.317   3.089  2.3323  0.0026  0.2200
  579MOL0     H78145  10.174   4.616   3.952  2.4580  0.1935 -0.0837
  579MOL0     H78146   9.960   4.539   3.963  1.3803  2.4997 -2.7740
  579MOL0     H78147   9.556   4.453   3.759 -1.0745  0.5437 -5.0882
  579MOL0     H78148   9.326   4.324   3.702 -0.8086 -2.2090 -0.6479
  579MOL0     H78149   7.692   4.176   3.697 -0.8481  0.0720 -2.4066
  579MOL0     H78150   7.579   4.233   3.902  4.7547 -1.1386 -1.3070
  579MOL0     H78151   7.312   4.382   4.152  1.5995  0.7507  0.9263
  579MOL0     H78152   7.103   4.370   4.274  0.7184  0.0774  0.2741
  579MOL0     H78153   6.854   4.712   4.366 -1.8776 -1.0435  1.7904
  579MOL0     H78154   6.968   4.589   4.434  0.0006 -0.2451 -0.5282
  579MOL0     H78155   6.797   4.426   4.428  2.0484  0.5264 -3.1247
  579MOL0     H78156   6.675   4.547   4.375 -1.2779 -1.7936  1.9244
  579MOL0     H78157   6.736   4.697   4.561 -1.2238 -0.0082  0.3995
  579MOL0     H78158   6.819   4.582   4.651  2.0480  0.3474 -0.9787
  579MOL0     H78159   6.543   4.519   4.524 -0.7892  0.1729  1.5592
  579MOL0     H78160   6.614   4.425   4.653 -3.8020 -0.0757 -0.6089
  579MOL0     H78161   6.445   4.732   4.879 -0.1686 -1.2089  0.8235
  579MOL0     H78162   6.975   4.759   4.113  0.4935  0.9159  0.2155
  579MOL0     H78163   7.291   4.848   3.982 -1.1235 -1.2243  2.0735
  579MOL0     H78164   7.248   4.747   3.850 -1.4527 -1.0226 -0.1960
  579MOL0     H78165   7.124   4.840   3.943  0.0885  1.7402  4.2234
  580MOL0     O78166   2.031   5.990   1.800  0.1579 -0.3301 -0.2205
  580MOL0     C78167   1.975   5.892   1.746 -0.8624  0.0005 -0.6224
  580MOL0     O78168   2.006   5.840   1.620  0.1270 -0.7037  0.4481
  580MOL0     C78169   2.136   5.856   1.564 -0.3528  1.0414  0.3528
  580MOL0     C78170   2.207   5.738   1.547 -0.8268 -0.1516  0.3762
  580MOL0     C78171   2.335   5.733   1.490  0.2049  0.2863  0.0629
  580MOL0     C78172   2.389   5.854   1.440  0.4709 -0.3336  0.2120
  580MOL0     O78173   2.505   5.825   1.374 -0.2170 -0.2569 -0.1880
  580MOL0     C78174   2.576   5.939   1.310 -1.1664  0.9201 -0.7841
  580MOL0     C78175   2.706   5.868   1.263  1.0682  0.3912  0.1733
  580MOL0     C78176   2.804   5.975   1.217  0.3920 -0.0480 -0.3969
  580MOL0     C78177   2.938   5.893   1.181  0.1406  0.7170 -0.6414
  580MOL0     C78178   3.040   5.978   1.105 -0.1172  0.0329 -0.3104
  580MOL0     C78179   3.151   6.008   1.191 -0.3056 -0.0262  0.5545
  580MOL0     C78180   3.258   6.112   1.134  0.8045  0.5811  0.5633
  580MOL0     C78181   3.226   6.255   1.183 -0.6461 -0.1019  0.5149
  580MOL0     N78182   3.250   6.357   1.090  0.3130 -0.0382  0.5939
  580MOL0     C78183   3.374   6.412   1.059 -0.3402 -0.5251  0.0508
  580MOL0     C78184   3.351   6.510   0.974 -0.0160  0.2471  0.0259
  580MOL0     C78185   3.458   6.589   0.896 -0.2143 -0.1063 -0.4312
  580MOL0     C78186   3.568   6.649   0.993 -0.7080 -0.2115 -0.2468
  580MOL0     C78187   3.640   6.771   0.936 -0.1504 -0.0671 -0.3949
  580MOL0     C78188   3.781   6.787   1.003  0.2543 -0.2694  0.6116
  580MOL0     O78189   3.843   6.914   0.966 -0.2385  0.1030  0.3043
  580MOL0     C78190   3.974   6.941   0.990  0.0315  0.6747  0.5046
  580MOL0     C78191   4.044   7.059   0.955  0.4811  1.1599  0.0274
  580MOL0     C78192   4.182   7.078   0.968 -0.0498  0.0094  0.0893
  580MOL0     C78193   4.267   6.971   1.016 -0.6306 -0.4234 -0.1087
  580MOL0     C78194   4.411   7.008   1.048 -0.3121  0.3095  0.0681
  580MOL0     O78195   4.464   7.110   0.987  0.5698  0.0500 -0.1023
  580MOL0     C78196   4.596   7.140   0.996 -0.1380  0.3024 -0.7478
  580MOL0     C78197   4.649   7.216   0.886 -0.3645  0.3647  0.8667
  580MOL0     C78198   4.785   7.250   0.889  0.1722  0.3052 -0.2423
  580MOL0     C78199   4.866   7.212   0.995 -0.0271 -0.3553 -0.3011
  580MOL0     O78200   4.990   7.250   0.980 -0.9873 -0.0426 -0.2587
  580MOL0     C78201   5.081   7.249   1.091  0.2889  0.0790  0.2195
  580MOL0     C78202   5.174   7.368   1.064 -0.1486  0.2341  0.5243
  580MOL0     C78203   5.309   7.354   1.137 -0.0924  0.1404  0.5282
  580MOL0     C78204   5.429   7.418   1.051 -0.0123  0.0416  0.3124
  580MOL0     C78205   5.570   7.381   1.105 -1.6344 -0.4131 -0.0018
  580MOL0     C78206   5.679   7.473   1.053  0.2635 -0.4219 -0.4183
  580MOL0     C78207   5.814   7.432   1.103 -0.0125 -0.3791 -0.9817
  580MOL0     C78208   5.921   7.521   1.063 -0.0118  0.4505 -0.8774
  580MOL0    Cl78209   5.918   7.667   1.154  0.0715 -0.1819 -0.1737
  580MOL0     C78210   4.816   7.142   1.100 -0.3106 -0.4435 -0.0710
  580MOL0     C78211   4.683   7.107   1.107  0.6839  0.3194  0.5058
  580MOL0     O78212   4.479   6.926   1.105  0.1148  0.2954 -0.5738
  580MOL0     C78213   4.206   6.849   1.054  0.2002 -0.0240 -0.5849
  580MOL0     C78214   4.062   6.842   1.047  0.7174  0.2850 -0.1083
  580MOL0     N78215   3.218   6.529   0.962  0.4040 -0.0161 -0.5543
  580MOL0     N78216   3.157   6.428   1.022  0.4499  0.6582  0.2037
  580MOL0     C78217   2.319   5.982   1.457 -0.0280  0.0870  0.4039
  580MOL0     C78218   2.196   5.976   1.520  1.5700  0.4784 -0.0078
  580MOL0     C78219   1.858   5.832   1.816  0.1623 -0.0780 -0.1964
  580MOL0     C78220   1.842   5.687   1.798 -0.0667 -0.2928  0.9447
  580MOL0     C78221   1.740   5.628   1.875  0.1819  0.8250  0.1549
  580MOL0     C78222   1.644   5.695   1.945  0.3508 -0.0087  0.2720
  580MOL0     O78223   1.531   5.620   1.982 -0.1673  0.7253  0.1226
  580MOL0     C78224   1.419   5.697   2.021  0.4820 -0.0854  0.0502
  580MOL0     C78225   1.298   5.612   2.059 -0.4466 -0.4857 -0.2572
  580MOL0     C78226   1.186   5.671   2.152  1.0917 -0.3765  0.1466
  580MOL0     C78227   1.210   5.651   2.300 -0.5759 -0.6619  1.3279
  580MOL0     C78228   1.098   5.701   2.387 -0.0858 -0.2358  0.3186
  580MOL0     C78229   0.998   5.754   2.434 -0.3242  0.0606 -0.2576
  580MOL0     C78230   1.657   5.837   1.952 -0.3553  0.2243  0.4374
  580MOL0     C78231   1.761   5.902   1.893  0.0357 -0.4343 -0.2361
  580MOL0     C78232   1.755   6.058   1.899 -0.1630 -0.1188  0.3055
  580MOL0     H78233   2.155   5.649   1.580  2.0730 -1.0201  3.1591
  580MOL0     H78234   2.386   5.641   1.467 -3.6294 -1.9971 -0.1316
  580MOL0     H78235   2.506   5.984   1.238 -3.4535  0.8867  1.2692
  580MOL0     H78236   2.606   6.004   1.393 -1.8875 -1.2307  1.2714
  580MOL0     H78237   2.696   5.814   1.169  2.3253  3.9082 -2.1862
  580MOL0     H78238   2.733   5.806   1.349 -4.6338 -2.3558  0.4518
  580MOL0     H78239   2.836   6.043   1.297 -1.7532 -0.7665  1.1620
  580MOL0     H78240   2.758   6.030   1.135  0.2064 -0.2568 -0.4341
  580MOL0     H78241   2.982   5.848   1.271 -1.6586 -0.1142 -0.1402
  580MOL0     H78242   2.918   5.806   1.118  0.3687  0.7837 -0.8058
  580MOL0     H78243   3.067   5.925   1.013  0.5831 -1.7062  0.8522
  580MOL0     H78244   2.994   6.075   1.084 -2.6773 -0.9961  0.1701
  580MOL0     H78245   3.126   6.057   1.286  0.2206 -0.2142  0.7938
  580MOL0     H78246   3.206   5.915   1.204  0.1523  0.3964  1.8067
  580MOL0     H78247   3.256   6.110   1.025  4.0263  2.1507  0.3638
  580MOL0     H78248   3.363   6.096   1.158  1.1323  1.4815 -0.2290
  580MOL0     H78249   3.119   6.265   1.204 -1.4840  0.2138 -3.2118
  580MOL0     H78250   3.278   6.274   1.278 -2.2227  1.2496  1.1546
  580MOL0     H78251   3.460   6.351   1.082 -0.7328 -0.5420  1.6114
  580MOL0     H78252   3.502   6.520   0.823  2.3177  1.2770 -0.3028
  580MOL0     H78253   3.413   6.675   0.846  3.2622  2.6898  0.8104
  580MOL0     H78254   3.531   6.682   1.090  1.1619  1.8192 -0.1395
  580MOL0     H78255   3.646   6.573   1.002  0.7393  1.0910 -1.2745
  580MOL0     H78256   3.579   6.858   0.964 -1.4971 -1.4758  1.3371
  580MOL0     H78257   3.641   6.747   0.829  1.3502 -2.4900  0.0903
  580MOL0     H78258   3.839   6.697   0.980  0.7777 -0.3278  2.0663
  580MOL0     H78259   3.772   6.779   1.112 -0.1967  1.0980  0.6937
  580MOL0     H78260   3.981   7.133   0.906 -2.5322  0.2889  2.3035
  580MOL0     H78261   4.234   7.166   0.933  1.6829 -1.6525 -1.6823
  580MOL0     H78262   4.574   7.250   0.814 -1.4443 -0.6414  1.4862
  580MOL0     H78263   4.827   7.322   0.819 -0.1755  2.2137  1.3987
  580MOL0     H78264   5.036   7.252   1.190  0.8089 -2.0075  0.5755
  580MOL0     H78265   5.141   7.157   1.091 -0.3344 -0.3585  1.9811
  580MOL0     H78266   5.201   7.371   0.958  1.6674  0.3182  0.9459
  580MOL0     H78267   5.119   7.460   1.087 -2.5644 -1.3452  1.4228
  580MOL0     H78268   5.311   7.399   1.236 -0.9745  0.8909  0.2197
  580MOL0     H78269   5.342   7.249   1.140 -1.0454 -0.2385 -1.1508
  580MOL0     H78270   5.424   7.528   1.049 -1.2476  0.0015 -1.3130
  580MOL0     H78271   5.420   7.385   0.947  0.5764  2.0204 -0.4181
  580MOL0     H78272   5.605   7.283   1.071  0.9863  1.0992 -2.0173
  580MOL0     H78273   5.582   7.390   1.213 -2.5156  1.6382 -0.0226
  580MOL0     H78274   5.675   7.487   0.944 -2.4673 -0.0702 -0.3650
  580MOL0     H78275   5.656   7.573   1.091  2.7800 -0.6488  2.0077
  580MOL0     H78276   5.835   7.329   1.070  1.2842 -1.2893  2.2336
  580MOL0     H78277   5.817   7.435   1.213 -1.4910  1.0519 -0.9452
  580MOL0     H78278   6.013   7.465   1.080 -0.2661 -0.0380 -1.0883
  580MOL0     H78279   5.905   7.550   0.958 -1.3310  0.4076 -0.7040
  580MOL0     H78280   4.884   7.132   1.184  0.4053  1.3683 -0.3851
  580MOL0     H78281   4.656   7.054   1.197 -5.6840  1.1645 -0.4872
  580MOL0     H78282   4.268   6.776   1.105 -1.4639 -1.1533 -0.0779
  580MOL0     H78283   4.004   6.762   1.092 -2.0266  2.5272  0.6341
  580MOL0     H78284   2.355   6.076   1.415 -3.2008  0.6099 -1.4614
  580MOL0     H78285   2.134   6.065   1.519  0.1252 -0.5013 -0.7158
  580MOL0     H78286   1.910   5.635   1.732 -1.6475 -0.0475 -1.0036
  580MOL0     H78287   1.738   5.519   1.868 -1.1263  0.9091 -1.3422
  580MOL0     H78288   1.388   5.768   1.943 -4.9142 -1.9194  0.1166
  580MOL0     H78289   1.453   5.757   2.106 -1.2193  2.0097 -0.6265
  580MOL0     H78290   1.341   5.519   2.098  2.3331  0.8983  0.1810
  580MOL0     H78291   1.244   5.590   1.967 -0.7913 -0.3317 -0.0956
  580MOL0     H78292   1.087   5.640   2.117  1.7155 -1.4020 -0.7357
  580MOL0     H78293   1.184   5.778   2.130 -1.1573 -0.2567  0.7028
  580MOL0     H78294   1.227   5.545   2.318  0.8192 -0.6757  0.0606
  580MOL0     H78295   1.306   5.693   2.332 -0.3470 -2.3301  3.0222
  580MOL0     H78296   0.912   5.811   2.464 -1.2492 -1.1782 -0.4978
  580MOL0     H78297   1.588   5.903   2.004  1.0225  0.8480  1.5245
  580MOL0     H78298   1.830   6.094   1.971  0.5088 -0.8181 -0.0257
  580MOL0     H78299   1.783   6.103   1.804  1.0713 -0.5785  0.4310
  580MOL0     H78300   1.655   6.099   1.913 -0.1751  0.4793 -1.3035
  581MOL0     O78301   0.446   8.503   0.032 -0.0986 -0.0839 -0.3859
  581MOL0     C78302   0.377   8.562  -0.047 -0.4675 -0.2208  0.3749
  581MOL0     O78303   0.433   8.634  -0.156 -0.2046 -0.4706 -0.0636
  581MOL0     C78304   0.570   8.613  -0.189  0.5879  0.2247  0.8884
  581MOL0     C78305   0.658   8.723  -0.215  0.4644  0.1731 -0.3159
  581MOL0     C78306   0.797   8.698  -0.223  0.1128 -0.7604  0.1115
  581MOL0     C78307   0.840   8.567  -0.210  0.2581 -1.0619 -0.6419
  581MOL0     O78308   0.976   8.547  -0.197 -0.3402 -0.6332 -0.5140
  581MOL0     C78309   1.029   8.443  -0.112 -0.7047  0.1141 -0.7969
  581MOL0     C78310   1.031   8.469   0.035 -0.1281 -0.3771 -0.0317
  581MOL0     C78311   1.045   8.349   0.115 -0.0547  0.0590 -0.2404
  581MOL0     C78312   1.115   8.374   0.251  0.3463  0.0472 -1.4271
  581MOL0     C78313   1.058   8.280   0.363  0.2721 -1.3427  0.1143
  581MOL0     C78314   1.097   8.143   0.329  0.1924 -0.0521  0.4819
  581MOL0     C78315   1.069   8.039   0.445  0.6913 -0.2602 -0.4798
  581MOL0     C78316   0.919   7.998   0.450  0.5134 -0.1424  0.5621
  581MOL0     N78317   0.890   7.876   0.530 -0.3827 -1.0050 -0.1396
  581MOL0     C78318   0.791   7.865   0.623  0.4017 -0.3863 -0.8743
  581MOL0     C78319   0.767   7.735   0.634  0.5861 -0.3953  0.9011
  581MOL0     C78320   0.660   7.683   0.729 -0.3090 -0.4498 -0.1577
  581MOL0     C78321   0.599   7.546   0.696  0.0197 -0.7176  0.9830
  581MOL0     C78322   0.693   7.430   0.710 -0.8745  0.4029  0.0811
  581MOL0     C78323   0.725   7.399   0.859 -0.3342  0.5875  0.0742
  581MOL0     O78324   0.618   7.319   0.908  0.0227 -0.1789  0.3085
  581MOL0     C78325   0.632   7.275   1.041 -0.2542  0.0636  0.0319
  581MOL0     C78326   0.564   7.161   1.059  0.1195 -0.3110  0.0719
  581MOL0     C78327   0.565   7.108   1.192 -0.4328  0.1054  0.2140
  581MOL0     C78328   0.638   7.165   1.298 -0.0063 -0.7493 -0.2505
  581MOL0     C78329   0.659   7.098   1.432 -0.5619  0.4745 -1.0450
  581MOL0     O78330   0.594   6.981   1.464 -0.5813  0.0236  0.2706
  581MOL0     C78331   0.624   6.924   1.585 -0.9419  1.3033  0.3730
  581MOL0     C78332   0.544   6.949   1.699  1.1214  0.4160  0.4870
  581MOL0     C78333   0.568   6.890   1.826  0.1284  0.3643 -0.1207
  581MOL0     C78334   0.675   6.795   1.834 -0.6094  0.7595 -0.9971
  581MOL0     O78335   0.710   6.735   1.959  0.4571 -0.3923  0.5607
  581MOL0     C78336   0.605   6.649   2.011 -0.3226 -0.8885  0.8765
  581MOL0     C78337   0.668   6.574   2.128 -0.3684 -0.8779 -1.0509
  581MOL0     C78338   0.560   6.550   2.230 -0.9174 -0.3174  0.3700
  581MOL0     C78339   0.623   6.474   2.346  0.8715  0.1280  0.3656
  581MOL0     C78340   0.513   6.452   2.444  0.2952  1.4555 -0.1030
  581MOL0     C78341   0.407   6.342   2.406 -0.0215 -0.6398 -0.3836
  581MOL0     C78342   0.267   6.367   2.483 -0.0444 -0.5533 -0.6931
  581MOL0     C78343   0.288   6.335   2.634 -0.0934  1.0949  1.3141
  581MOL0    Cl78344   0.147   6.320   2.733  0.3332 -0.0211  0.4760
  581MOL0     C78345   0.763   6.786   1.720  0.4927 -0.0343  0.2260
  581MOL0     C78346   0.747   6.859   1.603 -0.6387 -0.2151 -0.2980
  581MOL0     O78347   0.719   7.165   1.515  0.2519 -0.1022 -0.1679
  581MOL0     C78348   0.691   7.295   1.276 -0.5913  1.4257  0.7099
  581MOL0     C78349   0.700   7.344   1.144 -0.4817 -0.0988  0.2479
  581MOL0     N78350   0.863   7.668   0.562  0.7514 -0.1937  0.5472
  581MOL0     N78351   0.928   7.755   0.485  0.4718 -0.0181 -0.3723
  581MOL0     C78352   0.755   8.460  -0.205  1.3637 -0.1583  0.7399
  581MOL0     C78353   0.615   8.484  -0.196 -0.2674  0.4059 -0.0075
  581MOL0     C78354   0.224   8.570  -0.039 -0.0329 -0.0996  0.2132
  581MOL0     C78355   0.151   8.655  -0.119 -0.5745  0.4627 -0.2458
  581MOL0     C78356   0.017   8.675  -0.101  0.7884 -0.1054 -0.3292
  581MOL0     C78357  -0.061   8.596  -0.010  0.1337  0.0137  0.0259
  581MOL0     O78358  -0.192   8.601  -0.015  0.2237  0.0365 -0.6798
  581MOL0     C78359  -0.279   8.558   0.095 -0.0211  0.4436  0.0953
  581MOL0     C78360  -0.425   8.615   0.087 -0.2274  0.5106 -0.0162
  581MOL0     C78361  -0.487   8.558  -0.033  0.1905 -0.2391  0.2087
  581MOL0     C78362  -0.467   8.641  -0.160 -0.4111  1.0612  0.8194
  581MOL0     C78363  -0.570   8.587  -0.246 -0.6005  0.0733  0.1044
  581MOL0     C78364  -0.639   8.539  -0.332 -0.2495 -0.3065 -0.0345
  581MOL0     C78365   0.006   8.519   0.086 -0.1222  0.0600 -0.3918
  581MOL0     C78366   0.143   8.508   0.073  0.1153 -0.5544 -0.5384
  581MOL0     C78367   0.210   8.426   0.173  0.9911 -0.3281  1.2116
  581MOL0     H78368   0.614   8.822  -0.218  0.6710  0.4563  2.7606
  581MOL0     H78369   0.866   8.781  -0.229  1.4362 -1.8472  0.0435
  581MOL0     H78370   0.968   8.354  -0.127 -1.4109  0.4385  0.0641
  581MOL0     H78371   1.129   8.408  -0.138 -0.1585  1.7718 -1.0815
  581MOL0     H78372   0.930   8.508   0.051 -0.5460 -1.3892 -0.1098
  581MOL0     H78373   1.106   8.546   0.057  1.0248 -0.7491 -2.3449
  581MOL0     H78374   1.087   8.261   0.066  1.8021 -0.5166  2.1416
  581MOL0     H78375   0.949   8.299   0.131  0.0559 -0.6256 -1.5247
  581MOL0     H78376   1.223   8.357   0.255  0.4537  0.2920  3.9360
  581MOL0     H78377   1.091   8.474   0.286 -0.5654 -0.4204 -0.6578
  581MOL0     H78378   1.094   8.326   0.455  1.9145 -0.1772 -1.0583
  581MOL0     H78379   0.949   8.282   0.362  0.2736 -0.0957 -1.3640
  581MOL0     H78380   1.045   8.097   0.244 -0.1601 -0.8445  1.1106
  581MOL0     H78381   1.204   8.133   0.306  0.1563 -4.4058  1.2854
  581MOL0     H78382   1.084   8.092   0.539 -0.6593  1.8991 -1.3784
  581MOL0     H78383   1.127   7.949   0.425  2.5626  0.7108  0.3569
  581MOL0     H78384   0.860   8.082   0.489 -2.2348 -1.7059  0.0656
  581MOL0     H78385   0.881   7.984   0.349 -2.1229  0.4779  1.3848
  581MOL0     H78386   0.739   7.946   0.673  0.4809 -0.4207 -0.7366
  581MOL0     H78387   0.690   7.687   0.834 -3.3794 -2.9761  0.9712
  581MOL0     H78388   0.569   7.744   0.718 -0.5664 -1.0511 -1.6964
  581MOL0     H78389   0.523   7.536   0.774 -1.6862 -4.2564 -0.9054
  581MOL0     H78390   0.552   7.535   0.598  1.9620 -1.5140  0.0995
  581MOL0     H78391   0.794   7.444   0.669 -0.6161  0.9675  0.8809
  581MOL0     H78392   0.649   7.342   0.663  0.2417 -0.5469  0.7407
  581MOL0     H78393   0.734   7.495   0.912  1.1872 -0.3116  1.5524
  581MOL0     H78394   0.819   7.346   0.870  0.9230  2.8757  1.1739
  581MOL0     H78395   0.512   7.101   0.985 -0.8141 -0.2818  0.6895
  581MOL0     H78396   0.514   7.013   1.199  1.6746 -1.0772  0.2956
  581MOL0     H78397   0.452   7.004   1.681 -0.4097 -2.0511  0.3914
  581MOL0     H78398   0.506   6.911   1.913 -1.9078 -1.0038 -1.1452
  581MOL0     H78399   0.513   6.704   2.030  0.0801  0.9645 -1.9409
  581MOL0     H78400   0.577   6.579   1.932 -1.7907 -0.1214  0.6858
  581MOL0     H78401   0.712   6.483   2.086  1.0996 -0.3032 -0.8329
  581MOL0     H78402   0.755   6.629   2.164 -0.8667  0.0445 -1.2439
  581MOL0     H78403   0.525   6.653   2.247  2.6844  1.3317 -1.1374
  581MOL0     H78404   0.485   6.489   2.180  1.2545 -3.3980  0.5544
  581MOL0     H78405   0.702   6.525   2.402  2.7710 -0.7828 -1.3493
  581MOL0     H78406   0.656   6.380   2.301 -1.2781 -0.9695  0.9274
  581MOL0     H78407   0.462   6.548   2.461 -1.1109  0.9325 -1.1020
  581MOL0     H78408   0.559   6.411   2.534  0.6969 -0.5928 -1.1966
  581MOL0     H78409   0.397   6.346   2.297  2.4706  3.2751 -0.6662
  581MOL0     H78410   0.439   6.244   2.442 -2.6697 -1.8511 -1.0243
  581MOL0     H78411   0.198   6.296   2.437 -1.2951 -0.8777  1.5359
  581MOL0     H78412   0.239   6.470   2.459 -2.9088 -1.1537 -0.2710
  581MOL0     H78413   0.351   6.245   2.640 -0.3217  0.6591 -1.4375
  581MOL0     H78414   0.351   6.407   2.687  0.5857  0.2416  1.7037
  581MOL0     H78415   0.857   6.736   1.741 -0.5542 -2.1264  0.2066
  581MOL0     H78416   0.828   6.870   1.531 -0.2456  1.7026  0.3969
  581MOL0     H78417   0.739   7.353   1.355  1.8556 -0.3872  0.6720
  581MOL0     H78418   0.755   7.429   1.104  0.4209 -1.7602 -2.3273
  581MOL0     H78419   0.787   8.357  -0.206 -0.2044 -0.7478 -2.7002
  581MOL0     H78420   0.546   8.400  -0.196 -0.9197  0.9090  1.6856
  581MOL0     H78421   0.190   8.725  -0.192 -0.3793  1.0893  0.4387
  581MOL0     H78422  -0.038   8.752  -0.154 -0.1255  0.4015  1.2892
  581MOL0     H78423  -0.236   8.592   0.189 -0.5956 -1.1824  0.9833
  581MOL0     H78424  -0.287   8.451   0.114 -1.6219  0.4266 -0.4699
  581MOL0     H78425  -0.417   8.724   0.083 -0.7004  0.5135 -1.2004
  581MOL0     H78426  -0.479   8.598   0.181 -2.2672 -1.0900 -1.3958
  581MOL0     H78427  -0.596   8.559  -0.018 -0.0320 -0.2321 -1.2018
  581MOL0     H78428  -0.452   8.455  -0.048 -1.0707 -0.7035  0.2799
  581MOL0     H78429  -0.467   8.748  -0.139  1.3721  1.2294  0.1009
  581MOL0     H78430  -0.366   8.624  -0.199 -1.1536 -2.2794  0.0141
  581MOL0     H78431  -0.689   8.489  -0.412 -0.2019  0.5615 -0.6254
  581MOL0     H78432  -0.043   8.465   0.165  0.4517 -0.6079 -0.4827
  581MOL0     H78433   0.247   8.330   0.137  0.0841 -1.4735  3.1558
  581MOL0     H78434   0.285   8.494   0.213  0.8349  0.2800  0.4973
  581MOL0     H78435   0.140   8.400   0.253 -0.1630  1.1447  0.7330
  582MOL0     O78436   4.331   4.981   1.416  0.2333  0.3428  1.0715
  582MOL0     C78437   4.260   4.886   1.457 -0.1945  0.5750 -0.3492
  582MOL0     O78438   4.303   4.755   1.476  0.8145  0.1923 -0.7168
  582MOL0     C78439   4.427   4.716   1.430 -0.0067  0.9067 -0.4224
  582MOL0     C78440   4.541   4.716   1.514 -0.4074 -0.0626  0.2340
  582MOL0     C78441   4.666   4.661   1.465 -0.0416 -0.0731  0.0263
  582MOL0     C78442   4.675   4.618   1.335  0.0567 -0.9443 -0.1986
  582MOL0     O78443   4.776   4.554   1.281 -0.1065  0.2204 -0.0452
  582MOL0     C78444   4.902   4.551   1.358  0.3843  0.3231  0.8522
  582MOL0     C78445   5.012   4.505   1.252  0.4530  0.2228 -1.4997
  582MOL0     C78446   5.148   4.476   1.313  0.5418  0.4634 -0.3379
  582MOL0     C78447   5.212   4.356   1.238 -0.5565  0.1397  0.2482
  582MOL0     C78448   5.347   4.324   1.299 -0.6727  0.4282  0.1384
  582MOL0     C78449   5.451   4.281   1.199 -0.4924  0.5029 -0.2771
  582MOL0     C78450   5.580   4.249   1.281  0.3826 -0.3438  0.3976
  582MOL0     C78451   5.686   4.199   1.177  0.2062  0.3588  0.8409
  582MOL0     N78452   5.828   4.219   1.219 -0.1919 -0.1931  0.5529
  582MOL0     C78453   5.920   4.120   1.250  0.1790  0.4894 -1.2379
  582MOL0     C78454   6.036   4.184   1.259  0.6360  0.7974 -0.2582
  582MOL0     C78455   6.171   4.127   1.289  0.5254 -0.7363 -0.4843
  582MOL0     C78456   6.196   4.099   1.435  0.0591 -0.8726 -0.6356
  582MOL0     C78457   6.341   4.062   1.467 -0.1621 -0.4580  0.6335
  582MOL0     C78458   6.381   4.045   1.622  0.2111  0.4522 -0.0761
  582MOL0     O78459   6.524   4.019   1.639  0.7727 -0.5546 -0.2496
  582MOL0     C78460   6.577   4.042   1.760 -0.0663 -0.4248 -0.0640
  582MOL0     C78461   6.501   4.054   1.879 -1.3582  0.3612 -0.3804
  582MOL0     C78462   6.571   4.082   2.001 -0.2514 -0.5941  0.5736
  582MOL0     C78463   6.705   4.118   1.992  0.1136  0.7021  0.7568
  582MOL0     C78464   6.783   4.141   2.112  0.0113  0.1478  0.5266
  582MOL0     O78465   6.914   4.125   2.090  0.0136  0.8579 -0.2015
  582MOL0     C78466   7.002   4.135   2.201  0.1321 -0.0057 -0.6929
  582MOL0     C78467   7.101   4.039   2.214  0.2324 -0.1539  0.6311
  582MOL0     C78468   7.165   4.031   2.337 -0.0334  0.0446  0.2769
  582MOL0     C78469   7.142   4.116   2.450 -0.5616 -0.5184  0.0593
  582MOL0     O78470   7.202   4.102   2.572  0.5735  0.2393 -0.0547
  582MOL0     C78471   7.290   3.991   2.588 -0.0964  0.0517  0.0473
  582MOL0     C78472   7.315   3.969   2.735  0.8262  0.5414 -0.0909
  582MOL0     C78473   7.189   3.934   2.818 -0.0170 -0.2006 -0.3341
  582MOL0     C78474   7.226   3.850   2.936  0.1764  0.6117  0.4778
  582MOL0     C78475   7.111   3.791   3.018  0.4821  0.8859 -0.2346
  582MOL0     C78476   7.163   3.722   3.152  0.5966  0.9135 -0.4179
  582MOL0     C78477   7.048   3.681   3.245 -0.3591  0.6431  0.2100
  582MOL0     C78478   7.094   3.619   3.376  0.7111  0.2762 -0.4919
  582MOL0    Cl78479   6.945   3.568   3.467 -0.7538  0.0867  0.1225
  582MOL0     C78480   7.060   4.227   2.422  0.1275  0.8033 -0.4620
  582MOL0     C78481   6.995   4.236   2.303  0.7111  0.8410 -0.3038
  582MOL0     O78482   6.734   4.165   2.221 -0.4488 -0.2846  0.4798
  582MOL0     C78483   6.768   4.129   1.870  0.6702 -0.1951  1.0086
  582MOL0     C78484   6.710   4.091   1.753  0.0709 -0.0149  0.1221
  582MOL0     N78485   6.020   4.318   1.241  0.3259  0.7862 -0.1705
  582MOL0     N78486   5.901   4.334   1.213  0.1667 -0.4975 -0.7751
  582MOL0     C78487   4.564   4.622   1.249  0.5538 -0.7973  0.3895
  582MOL0     C78488   4.435   4.667   1.303 -0.9259  0.2149  0.3884
  582MOL0     C78489   4.122   4.917   1.477 -0.8941  0.0664 -0.2359
  582MOL0     C78490   4.093   5.048   1.523 -0.8755  0.0524  1.0821
  582MOL0     C78491   3.964   5.075   1.562  0.7226  0.5188  0.6172
  582MOL0     C78492   3.858   4.973   1.566 -0.5466 -0.7309 -0.5360
  582MOL0     O78493   3.739   5.023   1.622 -0.2915  0.8819  0.4088
  582MOL0     C78494   3.648   4.933   1.684  0.0096  1.2202 -0.8358
  582MOL0     C78495   3.515   5.004   1.697  0.0341  0.0361  0.7244
  582MOL0     C78496   3.402   4.918   1.756  0.0488 -0.5114  0.2517
  582MOL0     C78497   3.263   4.982   1.721  0.3227 -0.0473 -0.4014
  582MOL0     C78498   3.233   4.936   1.584 -0.2013 -0.5474 -0.2536
  582MOL0     C78499   3.210   4.908   1.467 -0.7315 -0.5005  0.0364
  582MOL0     C78500   3.898   4.847   1.533  0.3809  0.4375  0.5848
  582MOL0     C78501   4.019   4.815   1.482 -0.3036 -0.0080  0.1736
  582MOL0     C78502   4.042   4.670   1.454  0.3924 -0.2648  0.3910
  582MOL0     H78503   4.544   4.768   1.609  2.7567 -0.2744  0.3562
  582MOL0     H78504   4.744   4.653   1.540  1.1661  0.8336 -1.0925
  582MOL0     H78505   4.914   4.652   1.399 -2.3580 -0.8210  5.0919
  582MOL0     H78506   4.885   4.491   1.448 -1.8915  3.2633  2.5830
  582MOL0     H78507   5.018   4.571   1.166  1.5939  2.5410  0.2620
  582MOL0     H78508   4.974   4.413   1.205  0.4363 -0.1807 -0.7202
  582MOL0     H78509   5.135   4.450   1.418 -1.8131  0.2149 -0.6408
  582MOL0     H78510   5.198   4.573   1.309  0.6920  0.3577 -1.4163
  582MOL0     H78511   5.147   4.268   1.241  2.6060 -2.3591  1.8973
  582MOL0     H78512   5.237   4.386   1.136  3.7759  2.9069  1.8305
  582MOL0     H78513   5.376   4.426   1.328  1.4550  0.1163 -0.7122
  582MOL0     H78514   5.326   4.253   1.380 -0.3646 -0.3079 -0.4155
  582MOL0     H78515   5.426   4.195   1.136  1.0706  0.0378 -0.3162
  582MOL0     H78516   5.474   4.359   1.126 -0.5563 -0.2446 -1.1072
  582MOL0     H78517   5.559   4.171   1.354  0.7624 -0.9640 -0.1443
  582MOL0     H78518   5.630   4.336   1.325  1.7380  0.5627 -2.6649
  582MOL0     H78519   5.683   4.091   1.158  1.2583  0.6641 -1.2614
  582MOL0     H78520   5.678   4.263   1.089 -1.8022 -1.8897 -0.7285
  582MOL0     H78521   5.903   4.014   1.259  0.3941  0.4703 -1.0473
  582MOL0     H78522   6.184   4.033   1.234  2.9578 -1.2897  0.8952
  582MOL0     H78523   6.249   4.199   1.260 -0.6102  0.8688  0.3203
  582MOL0     H78524   6.163   4.183   1.497  1.1111 -2.5706  2.4141
  582MOL0     H78525   6.132   4.015   1.462 -0.7038  0.9220  4.0375
  582MOL0     H78526   6.402   4.147   1.436  1.1749 -1.1557  1.2860
  582MOL0     H78527   6.375   3.977   1.407  0.6738  0.7303 -0.6318
  582MOL0     H78528   6.311   3.972   1.664  0.6613 -0.9100 -1.6397
  582MOL0     H78529   6.355   4.145   1.661  3.8463  1.9008 -1.0055
  582MOL0     H78530   6.394   4.036   1.874 -1.0316 -3.2258  1.9749
  582MOL0     H78531   6.511   4.075   2.091  0.4381 -0.6390  1.0369
  582MOL0     H78532   7.111   3.966   2.134 -1.3335 -0.7469  0.9500
  582MOL0     H78533   7.228   3.943   2.343 -0.7277 -0.8197 -2.9869
  582MOL0     H78534   7.243   3.901   2.546 -1.2467  0.2324  0.8826
  582MOL0     H78535   7.385   4.011   2.537 -0.5937  2.2361 -0.1184
  582MOL0     H78536   7.379   3.882   2.752 -0.0782  0.1895  1.7896
  582MOL0     H78537   7.373   4.047   2.785 -2.0347  1.8375  1.4526
  582MOL0     H78538   7.144   4.020   2.868  2.4186  1.6321 -1.0896
  582MOL0     H78539   7.113   3.896   2.749  0.1665 -2.1679  0.4700
  582MOL0     H78540   7.291   3.912   2.998  1.1172  0.9341 -0.7771
  582MOL0     H78541   7.291   3.770   2.901  1.5482  1.5756  0.7302
  582MOL0     H78542   7.060   3.721   2.950 -0.5119 -0.5457  1.8758
  582MOL0     H78543   7.039   3.872   3.028 -0.2738  0.0204  1.7890
  582MOL0     H78544   7.217   3.634   3.115 -2.0485 -0.9487 -0.1473
  582MOL0     H78545   7.228   3.799   3.193 -0.2401  2.3750 -1.7232
  582MOL0     H78546   6.984   3.612   3.190  1.3493 -0.5677 -0.3372
  582MOL0     H78547   6.983   3.767   3.267 -2.3532 -0.0238 -2.4883
  582MOL0     H78548   7.154   3.530   3.353 -0.1274  0.0817 -2.0629
  582MOL0     H78549   7.136   3.693   3.444 -0.9055  1.7741 -1.0456
  582MOL0     H78550   7.058   4.312   2.489  2.1356  0.1350  0.5229
  582MOL0     H78551   6.932   4.322   2.282 -0.5729  0.0951  0.3621
  582MOL0     H78552   6.868   4.171   1.863  0.8462  1.7188  7.9805
  582MOL0     H78553   6.767   4.093   1.660 -1.7798 -2.3763 -1.1868
  582MOL0     H78554   4.564   4.580   1.150 -0.5098  0.2653 -0.0910
  582MOL0     H78555   4.345   4.672   1.244 -1.1489  0.4399  0.7447
  582MOL0     H78556   4.165   5.127   1.542 -1.9243  1.4840 -0.6195
  582MOL0     H78557   3.935   5.172   1.602 -0.6305  1.3331 -2.0511
  582MOL0     H78558   3.693   4.906   1.780  1.8652  1.0945 -1.6964
  582MOL0     H78559   3.640   4.839   1.628 -1.0073  2.5019 -2.9762
  582MOL0     H78560   3.483   5.017   1.593 -2.0368  0.3113  1.3481
  582MOL0     H78561   3.507   5.102   1.745 -1.0429  0.2104  0.2182
  582MOL0     H78562   3.416   4.903   1.864  0.8018 -0.3041  0.1898
  582MOL0     H78563   3.402   4.816   1.718  0.4251 -0.9199  1.3114
  582MOL0     H78564   3.190   4.945   1.793 -1.5071  1.4110 -1.4314
  582MOL0     H78565   3.264   5.091   1.734  0.3627  0.0220 -0.9576
  582MOL0     H78566   3.209   4.880   1.363  2.1227  1.2333 -0.5766
  582MOL0     H78567   3.829   4.763   1.540  0.5346 -0.2638 -3.4814
  582MOL0     H78568   3.945   4.621   1.441  0.4818 -0.4710  0.5035
  582MOL0     H78569   4.108   4.646   1.370 -0.2890 -1.0930  0.0888
  582MOL0     H78570   4.083   4.623   1.544  0.8086 -1.7072 -0.5252
  583MOL0     O78571   5.414   9.010   5.625 -0.1157 -0.3726 -0.0528
  583MOL0     C78572   5.345   8.909   5.623  0.4959  0.4127  0.1518
  583MOL0     O78573   5.385   8.790   5.574 -0.5999  0.7188  0.4273
  583MOL0     C78574   5.512   8.765   5.521  0.2719  0.1848  0.3011
  583MOL0     C78575   5.595   8.656   5.566  0.1736 -0.2329  0.7434
  583MOL0     C78576   5.720   8.633   5.513 -0.0345 -0.5198 -0.5100
  583MOL0     C78577   5.761   8.717   5.406 -0.1526  0.1605  0.0155
  583MOL0     O78578   5.892   8.708   5.364 -0.1890 -0.1057 -0.6374
  583MOL0     C78579   5.908   8.673   5.227  0.1561  0.7249  0.1947
  583MOL0     C78580   6.058   8.670   5.196  0.4630  0.4214  0.7796
  583MOL0     C78581   6.139   8.572   5.291 -0.1171  0.3118  0.3308
  583MOL0     C78582   6.286   8.561   5.253 -0.5514 -0.1810 -1.0865
  583MOL0     C78583   6.362   8.462   5.338  0.3574 -0.3021  0.1454
  583MOL0     C78584   6.517   8.441   5.306 -0.1404  0.3975  0.3384
  583MOL0     C78585   6.585   8.323   5.382 -0.4312 -0.1013 -0.5238
  583MOL0     C78586   6.588   8.361   5.529 -0.4404  0.1555 -0.5227
  583MOL0     N78587   6.669   8.263   5.605  0.8427 -0.7079 -0.7048
  583MOL0     C78588   6.639   8.236   5.737 -0.9559 -0.1310  0.6409
  583MOL0     C78589   6.744   8.158   5.777 -0.2342  0.0683 -0.7061
  583MOL0     C78590   6.755   8.117   5.923 -0.8613  0.4061  0.7155
  583MOL0     C78591   6.837   8.220   6.004  0.9075 -0.5413 -0.1234
  583MOL0     C78592   6.906   8.162   6.137 -0.1035 -0.3945 -0.0019
  583MOL0     C78593   7.043   8.095   6.121 -0.7182  0.0977 -0.0093
  583MOL0     O78594   7.145   8.197   6.080 -0.1408 -0.1805 -0.7029
  583MOL0     C78595   7.276   8.206   6.135 -0.9017 -0.8771  0.6666
  583MOL0     C78596   7.377   8.217   6.046  0.3606  0.1572  0.6129
  583MOL0     C78597   7.508   8.229   6.094 -0.2972 -0.0143 -0.0473
  583MOL0     C78598   7.537   8.228   6.233  0.2508 -0.2429 -0.0843
  583MOL0     C78599   7.678   8.232   6.286  0.0503  1.4964  0.3588
  583MOL0     O78600   7.701   8.194   6.415  0.4032 -0.0658  0.6903
  583MOL0     C78601   7.832   8.171   6.456  1.2669  0.2934 -0.4597
  583MOL0     C78602   7.892   8.253   6.551 -0.5136 -0.2015 -0.7911
  583MOL0     C78603   8.022   8.228   6.597 -0.1698 -0.4273  0.0392
  583MOL0     C78604   8.096   8.117   6.550 -0.2314  0.2616  0.8380
  583MOL0     O78605   8.216   8.088   6.603 -0.3615 -0.5991 -0.2916
  583MOL0     C78606   8.306   8.000   6.543 -0.7544  0.3010  0.1084
  583MOL0     C78607   8.450   8.027   6.595 -0.9109 -0.5465 -0.3539
  583MOL0     C78608   8.464   8.047   6.752 -0.1163 -0.5930  0.6651
  583MOL0     C78609   8.453   7.920   6.838 -0.4271  0.2939 -0.2422
  583MOL0     C78610   8.412   7.956   6.985  0.1150  0.1089 -0.7275
  583MOL0     C78611   8.468   7.861   7.094  0.0288 -0.7407  0.2765
  583MOL0     C78612   8.614   7.896   7.106  0.7149  0.0695 -0.0015
  583MOL0     C78613   8.683   7.796   7.202  0.6102  0.1091  0.4169
  583MOL0    Cl78614   8.674   7.628   7.145  0.2560 -0.4715 -0.0330
  583MOL0     C78615   8.036   8.032   6.454  0.2091  0.1811  0.1564
  583MOL0     C78616   7.907   8.060   6.406 -0.5406 -0.4319  0.0211
  583MOL0     O78617   7.767   8.262   6.202  0.0705 -0.2885 -0.3962
  583MOL0     C78618   7.427   8.213   6.323 -0.7946 -0.6985  0.5296
  583MOL0     C78619   7.299   8.195   6.277  0.7353 -0.4894  0.5587
  583MOL0     N78620   6.829   8.142   5.670  1.0342 -0.0879 -0.9137
  583MOL0     N78621   6.784   8.198   5.567  0.2892  1.0618 -0.5226
  583MOL0     C78622   5.682   8.830   5.354 -0.1249  0.4041 -0.4136
  583MOL0     C78623   5.557   8.849   5.420 -0.6133  0.2212 -0.8799
  583MOL0     C78624   5.201   8.918   5.675  0.2752  0.3560  0.1364
  583MOL0     C78625   5.145   9.046   5.685  0.0478  0.3103  0.6074
  583MOL0     C78626   5.008   9.059   5.731  0.4989 -1.3391  0.3865
  583MOL0     C78627   4.925   8.956   5.755 -0.5666  0.1971  0.7017
  583MOL0     O78628   4.800   8.979   5.794  0.0969 -0.1735  0.5184
  583MOL0     C78629   4.718   8.873   5.843 -0.1575 -0.7416  0.1134
  583MOL0     C78630   4.581   8.949   5.883  0.0689  0.3609  0.1875
  583MOL0     C78631   4.470   8.843   5.906 -1.6404  0.2292 -0.2993
  583MOL0     C78632   4.345   8.896   5.967 -0.0676  0.0452  0.0560
  583MOL0     C78633   4.295   8.993   5.867  0.1538 -0.3647 -0.4749
  583MOL0     C78634   4.251   9.081   5.797 -0.4623 -1.1860 -0.3584
  583MOL0     C78635   4.980   8.824   5.742  0.0201 -0.0244  0.1955
  583MOL0     C78636   5.118   8.811   5.709  0.3214  0.1137 -0.3661
  583MOL0     C78637   5.170   8.670   5.703 -0.6173 -0.6463 -0.4488
  583MOL0     H78638   5.548   8.601   5.647 -3.2225 -1.0855 -1.5850
  583MOL0     H78639   5.777   8.558   5.567  2.6963  0.7181 -1.4854
  583MOL0     H78640   5.858   8.578   5.207 -0.7498  1.4296 -0.9772
  583MOL0     H78641   5.870   8.756   5.167  0.1681  4.0553  4.3292
  583MOL0     H78642   6.105   8.768   5.196 -1.3475  1.3331 -0.3482
  583MOL0     H78643   6.069   8.631   5.095 -2.6188 -1.3352  1.0162
  583MOL0     H78644   6.094   8.473   5.278 -0.6032  0.7698 -1.8763
  583MOL0     H78645   6.139   8.601   5.396 -1.8698 -0.1446  0.4868
  583MOL0     H78646   6.297   8.521   5.152  0.4315 -1.2575 -0.5714
  583MOL0     H78647   6.331   8.660   5.264  0.8795 -0.7468 -1.7258
  583MOL0     H78648   6.344   8.504   5.437 -0.4297  0.2457 -0.2290
  583MOL0     H78649   6.316   8.364   5.325  0.9673 -0.3311 -2.3977
  583MOL0     H78650   6.524   8.406   5.202  2.6730  0.2745  0.4999
  583MOL0     H78651   6.562   8.539   5.324 -2.6680  1.2042  2.8846
  583MOL0     H78652   6.689   8.322   5.348  0.3909  0.9713  1.7624
  583MOL0     H78653   6.541   8.224   5.376  2.9631 -1.8141  0.0774
  583MOL0     H78654   6.651   8.451   5.530 -1.3491  0.8114  1.1186
  583MOL0     H78655   6.494   8.375   5.583  1.4981 -1.9418  3.9041
  583MOL0     H78656   6.551   8.270   5.791 -1.1779 -1.2342  0.9961
  583MOL0     H78657   6.655   8.094   5.961 -1.7120 -0.6223 -1.9010
  583MOL0     H78658   6.798   8.016   5.921 -0.0853  0.6846  2.1472
  583MOL0     H78659   6.921   8.246   5.939  0.6754 -0.1569 -0.2724
  583MOL0     H78660   6.778   8.310   6.024  3.3279  1.1843 -0.2051
  583MOL0     H78661   6.836   8.086   6.172 -0.2145  0.3489  1.4729
  583MOL0     H78662   6.919   8.240   6.212 -1.3717 -1.2356  1.1274
  583MOL0     H78663   7.041   8.009   6.052  0.0317  0.2806 -0.2638
  583MOL0     H78664   7.060   8.058   6.222 -1.5547  1.9858  0.8715
  583MOL0     H78665   7.340   8.231   5.945  0.7306 -1.5507  0.2087
  583MOL0     H78666   7.591   8.233   6.025 -0.8156 -3.3081 -1.0252
  583MOL0     H78667   7.837   8.337   6.593 -0.4950 -0.3457 -0.4725
  583MOL0     H78668   8.054   8.303   6.668 -1.5169  0.6562 -0.4580
  583MOL0     H78669   8.286   7.895   6.569  0.1267 -0.4243 -1.9335
  583MOL0     H78670   8.301   8.010   6.434 -3.3057 -1.0518  0.0359
  583MOL0     H78671   8.534   7.960   6.575  0.2857  0.3942  1.2670
  583MOL0     H78672   8.480   8.127   6.562  0.1984 -1.5011 -2.4467
  583MOL0     H78673   8.557   8.101   6.768 -0.7380  0.0602  2.1878
  583MOL0     H78674   8.378   8.105   6.787  0.0821 -0.5782  1.1311
  583MOL0     H78675   8.553   7.876   6.838 -1.5265 -2.4814  1.9221
  583MOL0     H78676   8.392   7.838   6.799 -1.1657  0.4121  0.6280
  583MOL0     H78677   8.302   7.960   6.990 -0.4763 -4.6499 -3.5912
  583MOL0     H78678   8.446   8.055   7.014 -1.3404  1.7001 -3.8915
  583MOL0     H78679   8.413   7.873   7.188  1.8165 -0.1400  1.2955
  583MOL0     H78680   8.468   7.756   7.060  1.7614 -0.1663 -1.7331
  583MOL0     H78681   8.632   7.995   7.148 -0.2813 -0.6547  2.3208
  583MOL0     H78682   8.666   7.896   7.010  1.6824 -2.3995  0.4464
  583MOL0     H78683   8.789   7.820   7.213  0.9074 -1.7418  2.1066
  583MOL0     H78684   8.654   7.797   7.307 -1.0257  1.4163  0.0131
  583MOL0     H78685   8.091   7.951   6.409  2.1309  1.7758 -0.4762
  583MOL0     H78686   7.859   7.999   6.330  0.3919 -0.3140 -0.6764
  583MOL0     H78687   7.443   8.226   6.430  0.6394  3.0467  0.0115
  583MOL0     H78688   7.219   8.184   6.349  1.4319 -0.6972  1.3223
  583MOL0     H78689   5.730   8.882   5.271  0.4012 -0.1574 -0.4671
  583MOL0     H78690   5.498   8.936   5.393  1.0620  1.3742 -1.0041
  583MOL0     H78691   5.208   9.130   5.658  0.5702 -0.7146 -1.5640
  583MOL0     H78692   4.973   9.160   5.749 -0.5076 -1.5357 -0.3826
  583MOL0     H78693   4.772   8.829   5.927  0.4182  0.7339  0.5541
  583MOL0     H78694   4.704   8.804   5.759 -0.0262 -0.8572  0.1848
  583MOL0     H78695   4.549   9.024   5.810  0.1175  1.5888  1.3877
  583MOL0     H78696   4.601   9.001   5.977 -2.1809  0.4322  0.6788
  583MOL0     H78697   4.507   8.772   5.981  1.5199  1.2531 -0.7165
  583MOL0     H78698   4.446   8.789   5.814 -0.6651  0.7085 -0.8536
  583MOL0     H78699   4.269   8.820   5.989 -0.3953  0.5399  0.6605
  583MOL0     H78700   4.370   8.939   6.065  0.0218 -0.3548  0.2144
  583MOL0     H78701   4.208   9.151   5.729  2.6473 -0.5550 -1.8566
  583MOL0     H78702   4.923   8.737   5.771 -1.3146  1.2378  1.5528
  583MOL0     H78703   5.182   8.634   5.601 -0.6467 -0.0352 -0.6738
  583MOL0     H78704   5.271   8.664   5.745  0.2235  0.7345 -2.1457
  583MOL0     H78705   5.101   8.604   5.755 -1.1469 -1.7956 -2.5119
  584MOL0     O78706   9.013   4.884   3.373  0.0965 -0.2072  0.8952
  584MOL0     C78707   8.986   4.951   3.275  0.3827 -0.2753 -0.3626
  584MOL0     O78708   9.071   5.000   3.184 -0.1325  0.2710 -0.0285
  584MOL0     C78709   9.200   4.939   3.175 -0.2293  1.0952  0.4330
  584MOL0     C78710   9.228   4.844   3.069 -0.7795  0.1827 -0.4159
  584MOL0     C78711   9.351   4.783   3.045 -0.2361 -0.1082 -0.4403
  584MOL0     C78712   9.457   4.816   3.141 -0.4041 -0.1280  0.4291
  584MOL0     O78713   9.581   4.760   3.144 -0.3537 -0.6552  0.3232
  584MOL0     C78714   9.606   4.650   3.052  0.0627  0.0227  0.1114
  584MOL0     C78715   9.736   4.579   3.085  0.3394  0.1306 -0.4244
  584MOL0     C78716   9.869   4.646   3.070 -0.1944 -0.7595 -0.3983
  584MOL0     C78717   9.915   4.637   2.925  0.0732 -0.7110  0.3443
  584MOL0     C78718  10.053   4.701   2.904  0.4515 -0.4103 -0.3553
  584MOL0     C78719  10.162   4.609   2.961  1.1062 -0.1990 -0.1469
  584MOL0     C78720  10.305   4.663   2.962 -0.2126 -0.1984 -0.0899
  584MOL0     C78721  10.414   4.583   3.031  0.4666  0.1143  0.0507
  584MOL0     N78722  10.376   4.549   3.165 -0.9210 -0.1999  0.2161
  584MOL0     C78723  10.310   4.436   3.215  0.4865 -0.5242  0.3494
  584MOL0     C78724  10.303   4.446   3.350 -0.6074  0.3539 -0.3491
  584MOL0     C78725  10.276   4.359   3.459  0.5243  1.0625  0.1274
  584MOL0     C78726  10.135   4.365   3.517 -0.5264  0.3487 -0.6824
  584MOL0     C78727  10.016   4.318   3.422 -0.5560 -0.4000 -0.8701
  584MOL0     C78728   9.881   4.373   3.448  0.8194  0.5778 -0.1647
  584MOL0     O78729   9.786   4.321   3.358 -0.7827  0.1413 -0.4826
  584MOL0     C78730   9.650   4.342   3.362  0.0215  0.4222 -0.1520
  584MOL0     C78731   9.565   4.251   3.302 -0.6553 -0.4541 -0.3909
  584MOL0     C78732   9.426   4.265   3.312 -0.1076 -0.4742 -0.5044
  584MOL0     C78733   9.371   4.392   3.359 -0.3258 -0.1639  0.7379
  584MOL0     C78734   9.234   4.428   3.363  1.2279  0.4486  0.4792
  584MOL0     O78735   9.154   4.374   3.273  0.7882  0.8132  0.2313
  584MOL0     C78736   9.022   4.407   3.254  0.3602  0.0976 -0.0152
  584MOL0     C78737   8.932   4.313   3.203  0.1877  0.2854 -0.6755
  584MOL0     C78738   8.797   4.341   3.179 -0.0981 -0.1033  0.8209
  584MOL0     C78739   8.755   4.471   3.216 -0.6025  0.6912  0.5307
  584MOL0     O78740   8.619   4.505   3.211 -0.2029 -0.2206  0.6661
  584MOL0     C78741   8.578   4.638   3.246  1.1190 -0.5664 -0.5777
  584MOL0     C78742   8.428   4.630   3.232  0.5634 -0.1441 -0.6592
  584MOL0     C78743   8.367   4.749   3.302  0.6495 -0.1326  0.2045
  584MOL0     C78744   8.222   4.751   3.291  0.3565 -0.6267 -0.0462
  584MOL0     C78745   8.165   4.899   3.305  0.1563  0.6330  0.8698
  584MOL0     C78746   8.017   4.902   3.276 -0.9202  0.4111  0.1494
  584MOL0     C78747   7.983   5.051   3.246  0.5964  0.1272  0.3871
  584MOL0     C78748   7.836   5.060   3.184 -0.0555  0.6552 -0.5801
  584MOL0    Cl78749   7.710   5.015   3.301 -0.1927  0.5920 -0.2263
  584MOL0     C78750   8.851   4.567   3.253  0.1183  0.7685  0.1960
  584MOL0     C78751   8.983   4.543   3.266  0.3076  0.6224 -0.0845
  584MOL0     O78752   9.199   4.496   3.461  0.0670  0.0744 -0.4249
  584MOL0     C78753   9.461   4.482   3.405  0.0613 -0.3491 -0.6491
  584MOL0     C78754   9.597   4.457   3.410 -0.1584  0.9911  0.2190
  584MOL0     N78755  10.345   4.575   3.370 -0.9164 -0.5995  0.1938
  584MOL0     N78756  10.404   4.628   3.272 -0.4391 -0.6541 -0.2757
  584MOL0     C78757   9.430   4.905   3.248 -0.5041 -0.2622  0.6671
  584MOL0     C78758   9.310   4.976   3.261  0.0828  0.2617  0.9565
  584MOL0     C78759   8.844   4.982   3.260  0.3319 -0.2231  0.0370
  584MOL0     C78760   8.803   5.049   3.141 -0.0898 -0.4133  0.2045
  584MOL0     C78761   8.674   5.098   3.121 -0.1674  0.1390  0.1772
  584MOL0     C78762   8.583   5.076   3.221  0.6025  0.4877 -1.3927
  584MOL0     O78763   8.454   5.107   3.199 -0.4846  0.2540 -1.4406
  584MOL0     C78764   8.429   5.252   3.221  0.1384 -0.1419 -0.0884
  584MOL0     C78765   8.308   5.294   3.131 -0.4649  0.0835 -0.1557
  584MOL0     C78766   8.372   5.333   3.001  0.6872  0.8696 -0.1851
  584MOL0     C78767   8.267   5.355   2.886 -0.2625  0.6387 -0.4143
  584MOL0     C78768   8.188   5.479   2.921 -0.5193  0.2994 -0.2729
  584MOL0     C78769   8.120   5.581   2.915  0.3634  0.9513 -0.1445
  584MOL0     C78770   8.612   5.012   3.340  0.1071  0.7724 -0.3197
  584MOL0     C78771   8.744   4.963   3.368 -0.3711  0.8590  0.7520
  584MOL0     C78772   8.747   4.901   3.507 -0.3026  0.0089  0.4980
  584MOL0     H78773   9.143   4.835   3.003 -1.5330  4.1731 -0.2531
  584MOL0     H78774   9.352   4.714   2.961 -1.6277  0.5080 -1.0001
  584MOL0     H78775   9.525   4.577   3.055  0.2163 -0.4207 -3.3379
  584MOL0     H78776   9.598   4.688   2.950 -1.1046  0.0005  0.1816
  584MOL0     H78777   9.739   4.494   3.016 -0.2666 -0.6875  0.5203
  584MOL0     H78778   9.736   4.535   3.185  1.2408  1.6617  0.2687
  584MOL0     H78779   9.945   4.600   3.133  0.8807  1.7612  0.2548
  584MOL0     H78780   9.864   4.749   3.104  1.1126 -0.6701 -0.4301
  584MOL0     H78781   9.913   4.536   2.884  0.5222 -0.8734  0.7190
  584MOL0     H78782   9.841   4.690   2.863  1.7144  1.7484  0.3233
  584MOL0     H78783  10.067   4.720   2.797 -3.2752 -0.2477 -0.9831
  584MOL0     H78784  10.043   4.792   2.964  0.4422 -0.1653 -0.7240
  584MOL0     H78785  10.131   4.588   3.064 -2.3443  2.1010 -0.5273
  584MOL0     H78786  10.159   4.515   2.906  1.2111  0.2666 -0.9693
  584MOL0     H78787  10.297   4.760   3.010  1.2617 -0.1505  0.1006
  584MOL0     H78788  10.329   4.690   2.858  3.6683 -1.6022  0.2604
  584MOL0     H78789  10.453   4.494   2.981  5.0648  1.4621  0.7387
  584MOL0     H78790  10.504   4.644   3.035  0.5830 -0.0752  0.3639
  584MOL0     H78791  10.274   4.353   3.156 -1.3594 -0.3739  1.1800
  584MOL0     H78792  10.301   4.260   3.420  1.9441  0.7373  1.7177
  584MOL0     H78793  10.341   4.388   3.543  0.0295  1.2466  0.4505
  584MOL0     H78794  10.132   4.299   3.604  1.0544  2.3684  1.0191
  584MOL0     H78795  10.128   4.470   3.549 -0.0747 -0.2344  1.4704
  584MOL0     H78796  10.017   4.209   3.414  2.0187 -0.5964  0.8452
  584MOL0     H78797  10.037   4.348   3.319 -0.6469 -1.5980 -1.2520
  584MOL0     H78798   9.886   4.483   3.452 -0.6314  0.6503  0.2789
  584MOL0     H78799   9.857   4.346   3.552  0.5925  0.5771 -0.2159
  584MOL0     H78800   9.604   4.159   3.260 -0.1706 -0.3814 -0.1003
  584MOL0     H78801   9.367   4.181   3.275 -0.5613 -0.9250  1.1534
  584MOL0     H78802   8.982   4.219   3.184 -0.1852 -0.0414 -0.0708
  584MOL0     H78803   8.733   4.259   3.148  0.4040 -0.0736 -0.3404
  584MOL0     H78804   8.612   4.656   3.348  0.3181  0.3151 -0.4533
  584MOL0     H78805   8.627   4.714   3.185  1.0560  1.7232  2.0153
  584MOL0     H78806   8.398   4.631   3.126  0.2411 -1.1152 -0.5923
  584MOL0     H78807   8.391   4.544   3.288 -0.8991  1.7784  1.5064
  584MOL0     H78808   8.410   4.764   3.402  3.2743  2.6121 -1.1920
  584MOL0     H78809   8.407   4.839   3.254 -1.2042  0.2231 -0.7547
  584MOL0     H78810   8.172   4.696   3.371 -2.6932  1.7047 -0.1580
  584MOL0     H78811   8.192   4.706   3.196 -0.4319 -1.0043  0.3704
  584MOL0     H78812   8.210   4.973   3.237 -4.7864  0.3554 -3.2734
  584MOL0     H78813   8.177   4.930   3.410 -2.6027 -0.5141  1.5983
  584MOL0     H78814   8.006   4.845   3.184  1.0356  1.6794 -0.9491
  584MOL0     H78815   7.964   4.874   3.368  0.5916  3.6435  2.2303
  584MOL0     H78816   8.050   5.090   3.168  1.1734 -1.8233 -0.1507
  584MOL0     H78817   7.990   5.114   3.335  0.9050  0.1677  0.3370
  584MOL0     H78818   7.820   5.163   3.151  1.6915  0.9564 -0.5617
  584MOL0     H78819   7.826   4.996   3.096 -1.2569 -0.0356  0.0352
  584MOL0     H78820   8.832   4.672   3.276 -4.0815  0.1318  0.3831
  584MOL0     H78821   9.059   4.617   3.288  1.6449 -0.7454  0.0179
  584MOL0     H78822   9.436   4.585   3.431 -1.3581 -0.3557 -1.8480
  584MOL0     H78823   9.665   4.535   3.444 -1.0110  1.2486  1.3786
  584MOL0     H78824   9.517   4.916   3.312 -0.1439  0.6706  0.0456
  584MOL0     H78825   9.300   5.047   3.343  2.0120 -0.4482  1.8625
  584MOL0     H78826   8.882   5.052   3.067  0.2695 -0.8978  0.5573
  584MOL0     H78827   8.645   5.127   3.021  0.4821 -0.0101 -0.0618
  584MOL0     H78828   8.516   5.313   3.198 -1.2103  1.8048 -0.3067
  584MOL0     H78829   8.405   5.269   3.326  1.5088 -1.2844  0.4481
  584MOL0     H78830   8.258   5.377   3.183  0.3820 -0.1135  1.0182
  584MOL0     H78831   8.232   5.219   3.109  1.2186 -1.2669 -1.6636
  584MOL0     H78832   8.442   5.256   2.967 -0.7820 -0.0607 -1.2124
  584MOL0     H78833   8.429   5.426   3.012  0.5092  1.5786 -3.8990
  584MOL0     H78834   8.325   5.368   2.794  0.5336  0.8537  0.1111
  584MOL0     H78835   8.193   5.279   2.861 -3.6940  4.2964 -2.6427
  584MOL0     H78836   8.085   5.682   2.911 -0.5730  0.6149 -0.7753
  584MOL0     H78837   8.531   4.988   3.408  3.4667 -2.2994  3.0755
  584MOL0     H78838   8.829   4.828   3.508 -0.1672  0.0148 -2.2600
  584MOL0     H78839   8.740   4.979   3.584 -1.4263 -0.1864  0.6019
  584MOL0     H78840   8.662   4.835   3.525 -0.2014 -0.1094  0.5410
  585MOL0     O78841   0.161   5.157  10.966 -0.2371 -0.1559 -0.0658
  585MOL0     C78842   0.188   5.058  11.034  0.0540  0.6265  0.3914
  585MOL0     O78843   0.311   5.023  11.076  0.1228  0.2766  0.0395
  585MOL0     C78844   0.413   5.115  11.064 -0.5272 -0.7779  0.0249
  585MOL0     C78845   0.507   5.131  10.962 -0.2870  0.8831  0.1054
  585MOL0     C78846   0.620   5.214  10.978 -0.3711 -0.4187  0.4856
  585MOL0     C78847   0.632   5.301  11.086 -0.4137 -0.4744 -0.4905
  585MOL0     O78848   0.732   5.395  11.099 -0.4804 -0.4245 -0.0469
  585MOL0     C78849   0.852   5.382  11.018 -0.0839  0.3406 -0.7109
  585MOL0     C78850   0.976   5.465  11.072  1.0234  0.3924 -0.6033
  585MOL0     C78851   1.091   5.477  10.965  0.3491 -0.7364  0.1296
  585MOL0     C78852   1.210   5.559  11.007 -0.7155 -0.1222 -0.0723
  585MOL0     C78853   1.275   5.475  11.117 -0.3058  0.0305 -0.1755
  585MOL0     C78854   1.419   5.531  11.147  0.5050  0.0952 -1.3820
  585MOL0     C78855   1.508   5.431  11.227 -0.1216 -0.5644 -0.2481
  585MOL0     C78856   1.657   5.479  11.248 -0.5273  0.0185  0.0891
  585MOL0     N78857   1.727   5.501  11.120  0.0361  0.2028 -0.4779
  585MOL0     C78858   1.782   5.403  11.035 -0.3328  0.6487 -0.6595
  585MOL0     C78859   1.848   5.471  10.946 -0.7205 -1.1075  0.8010
  585MOL0     C78860   1.946   5.410  10.847  0.4021  0.3101  0.7923
  585MOL0     C78861   1.989   5.262  10.872  0.4317 -0.3264 -0.2610
  585MOL0     C78862   2.071   5.241  11.007  0.0094  0.2589 -0.9999
  585MOL0     C78863   2.201   5.322  10.995  0.1316 -0.1405 -0.2855
  585MOL0     O78864   2.179   5.455  11.039 -0.7711 -0.2657  0.3572
  585MOL0     C78865   2.286   5.537  11.041  0.5938  0.5692  0.9222
  585MOL0     C78866   2.417   5.507  10.993  0.0167  0.0961 -0.3854
  585MOL0     C78867   2.507   5.605  11.012  0.0405  0.3299 -0.0268
  585MOL0     C78868   2.484   5.733  11.071  0.1623 -0.0542 -0.4949
  585MOL0     C78869   2.591   5.831  11.091  0.0892 -0.8633 -0.6869
  585MOL0     O78870   2.721   5.788  11.101 -0.2035  0.5580  0.6083
  585MOL0     C78871   2.813   5.857  11.168 -1.0886 -0.6874 -0.5524
  585MOL0     C78872   2.943   5.838  11.125 -0.1619  0.3496  0.5498
  585MOL0     C78873   3.054   5.909  11.175 -0.5305 -0.7613 -1.0852
  585MOL0     C78874   3.044   6.014  11.263 -0.1838  0.0498 -0.0834
  585MOL0     O78875   3.133   6.108  11.298 -0.5825 -0.5409 -0.3477
  585MOL0     C78876   3.270   6.091  11.240  0.8462 -0.9001 -0.7128
  585MOL0     C78877   3.358   6.205  11.283 -0.5661 -0.2097  0.0975
  585MOL0     C78878   3.308   6.341  11.235  0.1964 -0.3512 -0.9935
  585MOL0     C78879   3.329   6.365  11.086  0.1471 -0.3530 -0.4294
  585MOL0     C78880   3.256   6.491  11.035  0.5751  0.2072 -0.3276
  585MOL0     C78881   3.294   6.631  11.094  0.0807  0.9415  0.6499
  585MOL0     C78882   3.391   6.695  11.002 -0.0983 -0.0986  0.4173
  585MOL0     C78883   3.448   6.819  11.064  0.1633 -0.3977 -0.1347
  585MOL0    Cl78884   3.608   6.872  10.995 -0.1303  0.1612  0.1814
  585MOL0     C78885   2.921   6.026  11.322  0.3868 -0.5563 -0.7017
  585MOL0     C78886   2.805   5.953  11.271  0.3766 -0.1921  0.2154
  585MOL0     O78887   2.548   5.948  11.102  1.0291 -0.4336 -0.4690
  585MOL0     C78888   2.352   5.762  11.105 -0.1430  0.3368  0.0802
  585MOL0     C78889   2.251   5.664  11.090  0.6187  0.2130  0.0367
  585MOL0     N78890   1.833   5.607  10.964 -0.0638  0.6705  0.1248
  585MOL0     N78891   1.756   5.623  11.066  0.4816  0.1736  0.5276
  585MOL0     C78892   0.538   5.296  11.189 -0.3695  0.1159 -0.0586
  585MOL0     C78893   0.431   5.204  11.179  0.0946 -0.1222  0.3370
  585MOL0     C78894   0.091   4.937  11.030  0.0093  0.6317 -0.5537
  585MOL0     C78895   0.129   4.806  11.012 -0.0980 -0.3369 -0.1114
  585MOL0     C78896   0.032   4.704  10.959 -0.5472 -0.2731 -0.3238
  585MOL0     C78897  -0.103   4.735  10.956  0.2653 -0.1160 -0.5234
  585MOL0     O78898  -0.202   4.652  10.905  0.0905  0.2554 -0.5872
  585MOL0     C78899  -0.183   4.511  10.884 -0.0070 -0.4130 -1.1689
  585MOL0     C78900  -0.303   4.447  10.806  1.1008 -0.2635 -0.8653
  585MOL0     C78901  -0.426   4.471  10.897  0.2778 -0.5431 -0.5505
  585MOL0     C78902  -0.542   4.379  10.871 -0.1623  0.2574 -0.5771
  585MOL0     C78903  -0.566   4.376  10.723  0.3194  0.0500  0.0285
  585MOL0     C78904  -0.586   4.372  10.607  0.1166  0.1181 -0.4023
  585MOL0     C78905  -0.137   4.861  11.005 -0.1829  0.2310 -0.4919
  585MOL0     C78906  -0.050   4.963  11.038 -0.5624 -0.9451  0.4507
  585MOL0     C78907  -0.119   5.100  11.058 -0.7313  0.5324 -0.7999
  585MOL0     H78908   0.514   5.060  10.881 -0.3967  0.9391  0.0468
  585MOL0     H78909   0.702   5.214  10.907  0.5329  0.0906  1.4965
  585MOL0     H78910   0.878   5.276  11.021 -0.5923  0.2257  1.5972
  585MOL0     H78911   0.827   5.414  10.916  0.4659  0.8198 -0.7000
  585MOL0     H78912   0.999   5.427  11.172 -1.0338 -0.6400 -0.4585
  585MOL0     H78913   0.942   5.567  11.091  0.8486 -0.1669  2.6363
  585MOL0     H78914   1.041   5.535  10.886  3.1956  3.5237  1.0614
  585MOL0     H78915   1.116   5.381  10.919 -0.1473 -0.0319 -1.7295
  585MOL0     H78916   1.287   5.579  10.931  0.4952  0.5700  1.2834
  585MOL0     H78917   1.182   5.656  11.050 -0.9065 -0.0498 -0.3558
  585MOL0     H78918   1.215   5.474  11.208  2.6206 -3.2486  2.0043
  585MOL0     H78919   1.281   5.371  11.085 -4.6085 -0.2595 -0.6755
  585MOL0     H78920   1.479   5.556  11.059  0.4424  0.8944 -1.2017
  585MOL0     H78921   1.394   5.622  11.202 -1.6171 -0.8733 -0.6146
  585MOL0     H78922   1.497   5.327  11.196  0.9768 -0.5466 -0.7316
  585MOL0     H78923   1.463   5.431  11.327  1.6048 -0.3994  0.5676
  585MOL0     H78924   1.657   5.576  11.299  1.9842 -0.6247  1.4987
  585MOL0     H78925   1.717   5.413  11.312  0.4969  1.4759  0.6940
  585MOL0     H78926   1.752   5.299  11.039 -1.8968  0.9645  4.8918
  585MOL0     H78927   1.908   5.417  10.745  1.9814 -0.0706  0.1672
  585MOL0     H78928   2.034   5.475  10.844  2.6808 -2.5938  1.0709
  585MOL0     H78929   1.898   5.201  10.885 -0.4077  0.9582  0.0613
  585MOL0     H78930   2.046   5.217  10.790  1.4288  1.0365 -0.3345
  585MOL0     H78931   2.081   5.132  11.012 -0.5949  0.0953 -2.8126
  585MOL0     H78932   2.002   5.271  11.086 -0.5682 -1.0527 -0.9752
  585MOL0     H78933   2.238   5.312  10.893  0.5407 -1.5111 -0.0204
  585MOL0     H78934   2.280   5.279  11.057 -0.7752 -0.6237  0.5767
  585MOL0     H78935   2.452   5.418  10.942 -1.6267  0.3256 -2.0252
  585MOL0     H78936   2.612   5.589  10.988  0.2673  0.7039  0.6828
  585MOL0     H78937   2.945   5.757  11.053 -2.2720 -0.9342  1.8435
  585MOL0     H78938   3.151   5.889  11.130  1.3919  2.2880  1.2726
  585MOL0     H78939   3.317   6.004  11.287  0.6977 -1.4492 -1.5569
  585MOL0     H78940   3.276   6.083  11.131  2.1163  1.3778 -0.8861
  585MOL0     H78941   3.356   6.214  11.392  0.2357  3.9698 -0.0617
  585MOL0     H78942   3.461   6.189  11.250  0.2066  0.3149  2.1078
  585MOL0     H78943   3.204   6.362  11.261  0.5085 -0.4007  0.3600
  585MOL0     H78944   3.370   6.421  11.276  2.2402 -1.5404 -1.6176
  585MOL0     H78945   3.296   6.273  11.036 -1.1691 -0.8007  1.1947
  585MOL0     H78946   3.436   6.382  11.073  0.3052  2.2045  3.0243
  585MOL0     H78947   3.149   6.477  11.053  0.7071  0.9257  1.1633
  585MOL0     H78948   3.269   6.503  10.927  4.4756  0.6141  0.0498
  585MOL0     H78949   3.202   6.690  11.087 -1.0189 -0.8711 -1.5952
  585MOL0     H78950   3.330   6.623  11.197  1.8853 -0.1004 -0.0171
  585MOL0     H78951   3.355   6.717  10.901  0.5561 -2.1449 -0.3267
  585MOL0     H78952   3.482   6.635  10.983  0.1447  0.6262 -0.8061
  585MOL0     H78953   3.381   6.902  11.037  1.7886  0.1038 -3.1083
  585MOL0     H78954   3.455   6.814  11.173 -1.0994 -0.4639 -0.0428
  585MOL0     H78955   2.908   6.113  11.386  0.9423 -0.5100 -0.6434
  585MOL0     H78956   2.705   5.977  11.305  1.0196 -0.4633  2.5008
  585MOL0     H78957   2.325   5.858  11.149 -1.5620 -0.2858  0.6059
  585MOL0     H78958   2.147   5.683  11.118  0.7130  0.2249  0.3807
  585MOL0     H78959   0.541   5.361  11.276  1.8121 -0.7259  0.5517
  585MOL0     H78960   0.361   5.218  11.261 -0.0070  0.0508  0.2224
  585MOL0     H78961   0.233   4.775  11.003 -0.5480 -1.3170 -4.4736
  585MOL0     H78962   0.071   4.611  10.920  0.0390  0.1041 -0.6421
  585MOL0     H78963  -0.183   4.460  10.981  2.1592 -2.2286 -2.0431
  585MOL0     H78964  -0.084   4.500  10.839  1.3206 -2.7005  1.9021
  585MOL0     H78965  -0.284   4.340  10.789  0.9586 -0.4049 -0.1799
  585MOL0     H78966  -0.307   4.498  10.710 -0.3383  0.1072 -0.6237
  585MOL0     H78967  -0.456   4.576  10.890  0.0041 -0.6552 -1.0972
  585MOL0     H78968  -0.401   4.448  11.001 -1.0519  1.3705  0.2365
  585MOL0     H78969  -0.523   4.284  10.923 -3.9576  0.5238  1.6184
  585MOL0     H78970  -0.629   4.423  10.919 -0.3256 -1.0234  0.3763
  585MOL0     H78971  -0.613   4.381  10.504  0.6293 -2.5761 -0.8661
  585MOL0     H78972  -0.242   4.887  11.008 -0.1028  0.5178  2.0115
  585MOL0     H78973  -0.071   5.160  11.136  0.4355  2.0644 -2.6135
  585MOL0     H78974  -0.122   5.167  10.972  0.1828  2.1702  0.3888
  585MOL0     H78975  -0.220   5.093  11.100 -1.0205 -0.8975 -1.6749
  586MOL0     O78976   7.440   8.182   0.167  0.3978 -0.0119 -0.0661
  586MOL0     C78977   7.413   8.298   0.182  0.2067  0.3668  0.3428
  586MOL0     O78978   7.508   8.392   0.170 -0.2085  0.0068  0.6792
  586MOL0     C78979   7.637   8.369   0.190  1.1961 -0.4582 -0.4000
  586MOL0     C78980   7.694   8.262   0.263  0.0782 -0.2674  0.1152
  586MOL0     C78981   7.837   8.245   0.285  0.0558 -0.4062  0.1297
  586MOL0     C78982   7.920   8.345   0.228 -0.0790 -0.0999 -0.5551
  586MOL0     O78983   8.056   8.334   0.234 -0.1540 -0.2199  0.4508
  586MOL0     C78984   8.117   8.267   0.346  0.5085 -0.6247  0.3891
  586MOL0     C78985   8.266   8.256   0.314  0.3970 -0.5086  0.0456
  586MOL0     C78986   8.337   8.179   0.432 -0.3242  0.1945  0.9732
  586MOL0     C78987   8.482   8.208   0.421  0.0002 -0.6883  0.5470
  586MOL0     C78988   8.557   8.146   0.536  0.5532 -0.3841 -0.9989
  586MOL0     C78989   8.576   7.997   0.515 -0.5557  0.5902 -0.2147
  586MOL0     C78990   8.626   7.934   0.643  0.1210  0.0145 -0.0181
  586MOL0     C78991   8.718   7.811   0.608 -0.8954 -0.5785 -0.7480
  586MOL0     N78992   8.639   7.696   0.558 -0.1382  0.3380 -0.0418
  586MOL0     C78993   8.579   7.593   0.634 -0.8785 -0.1995 -0.5479
  586MOL0     C78994   8.521   7.512   0.549  0.3672  0.4037 -0.2808
  586MOL0     C78995   8.426   7.395   0.590 -0.2803  0.2323 -0.0464
  586MOL0     C78996   8.483   7.285   0.673  0.3267  0.3494 -0.3220
  586MOL0     C78997   8.389   7.169   0.677 -0.6342  0.4362  0.3318
  586MOL0     C78998   8.284   7.182   0.782 -0.1666  0.3222 -0.4922
  586MOL0     O78999   8.193   7.073   0.763  1.3654  0.4501 -1.0100
  586MOL0     C79000   8.066   7.102   0.718 -0.6363 -0.3267 -0.0689
  586MOL0     C79001   7.985   6.991   0.718  0.0991 -0.1238  1.1259
  586MOL0     C79002   7.859   7.003   0.653 -0.0746  0.0668 -0.1936
  586MOL0     C79003   7.811   7.113   0.576 -0.4087  0.0026 -0.0539
  586MOL0     C79004   7.688   7.098   0.497  0.1141 -0.4226  0.2388
  586MOL0     O79005   7.615   6.981   0.521 -0.2734 -0.3223 -0.4628
  586MOL0     C79006   7.484   6.967   0.490  0.0424 -0.3558 -0.8682
  586MOL0     C79007   7.395   7.070   0.491 -0.0331  0.4537  0.8706
  586MOL0     C79008   7.267   7.044   0.454 -0.2577  0.2239  0.3889
  586MOL0     C79009   7.219   6.920   0.405  0.1444  0.0854  0.1230
  586MOL0     O79010   7.089   6.914   0.363 -0.1623  0.1971  0.5799
  586MOL0     C79011   7.017   6.798   0.407  0.6944 -0.3937 -0.6894
  586MOL0     C79012   6.878   6.792   0.339  0.5181  0.5711 -0.4108
  586MOL0     C79013   6.810   6.663   0.363 -0.0871  0.1206 -0.2284
  586MOL0     C79014   6.691   6.656   0.271 -1.1282  0.6010  0.2865
  586MOL0     C79015   6.616   6.533   0.307  0.8608 -0.0378  0.1415
  586MOL0     C79016   6.682   6.401   0.266  0.1500 -0.9320 -0.1124
  586MOL0     C79017   6.583   6.278   0.271 -0.9226  0.0740 -0.5336
  586MOL0     C79018   6.612   6.179   0.382 -0.2003 -0.6988  0.1720
  586MOL0    Cl79019   6.581   6.253   0.536 -0.3577  0.6292 -0.6295
  586MOL0     C79020   7.309   6.811   0.421 -0.8493  0.3027 -0.6393
  586MOL0     C79021   7.444   6.841   0.457  0.0759 -0.0159  0.3464
  586MOL0     O79022   7.657   7.202   0.433  0.1067  0.3368 -0.0600
  586MOL0     C79023   7.899   7.223   0.581  0.0979  0.4646 -0.3511
  586MOL0     C79024   8.020   7.219   0.655  0.6100 -0.4213 -0.2363
  586MOL0     N79025   8.553   7.560   0.420 -0.0002 -0.1462 -0.0082
  586MOL0     N79026   8.619   7.671   0.426 -0.5796  0.2796  0.3185
  586MOL0     C79027   7.867   8.463   0.165  1.3024 -0.0205  0.8074
  586MOL0     C79028   7.727   8.466   0.148 -0.7752  0.1794 -0.0027
  586MOL0     C79029   7.266   8.329   0.196  0.1723 -0.0181 -0.4491
  586MOL0     C79030   7.230   8.464   0.213  1.1690  0.1649  0.8465
  586MOL0     C79031   7.099   8.511   0.243 -0.2637  0.4343 -0.2421
  586MOL0     C79032   7.005   8.413   0.283 -0.2476 -0.5202  0.3042
  586MOL0     O79033   6.875   8.442   0.323 -0.8418 -0.0893  0.0589
  586MOL0     C79034   6.828   8.578   0.295 -0.0117  0.7003 -0.4770
  586MOL0     C79035   6.703   8.604   0.375  0.1315  0.5915  0.6801
  586MOL0     C79036   6.602   8.491   0.366 -0.3055 -0.4442  0.9051
  586MOL0     C79037   6.550   8.468   0.220 -0.3247  0.3279 -0.2998
  586MOL0     C79038   6.438   8.369   0.222 -0.8356 -0.5043  0.5334
  586MOL0     C79039   6.343   8.296   0.224 -0.0276  0.4355  0.1501
  586MOL0     C79040   7.033   8.278   0.261  0.1590  0.7162 -0.0602
  586MOL0     C79041   7.159   8.236   0.204 -0.0253 -1.0484 -0.4634
  586MOL0     C79042   7.183   8.088   0.174  0.3586  0.1227 -0.7904
  586MOL0     H79043   7.624   8.195   0.312  1.1584 -2.6330 -1.4219
  586MOL0     H79044   7.879   8.151   0.317 -2.1985 -1.2065  0.9604
  586MOL0     H79045   8.092   8.324   0.436 -1.2362  1.5832 -1.3758
  586MOL0     H79046   8.093   8.161   0.349  0.3566 -0.7774 -2.6630
  586MOL0     H79047   8.292   8.362   0.320 -2.2602  0.1240  2.1278
  586MOL0     H79048   8.292   8.221   0.214 -2.3017  0.2811 -1.0056
  586MOL0     H79049   8.316   8.073   0.416  0.0575 -0.4390  3.9870
  586MOL0     H79050   8.292   8.210   0.527 -0.0156  4.2758 -0.0216
  586MOL0     H79051   8.498   8.153   0.327 -1.7076  0.1952 -0.3078
  586MOL0     H79052   8.504   8.313   0.403  0.3855 -0.8465  0.0680
  586MOL0     H79053   8.655   8.190   0.556  0.7840 -0.5947 -1.6566
  586MOL0     H79054   8.504   8.159   0.631 -1.3882 -2.7176 -1.6524
  586MOL0     H79055   8.481   7.948   0.491 -0.2469 -1.5463  2.4956
  586MOL0     H79056   8.645   7.969   0.435 -0.6222 -2.2230  0.6186
  586MOL0     H79057   8.547   7.891   0.706  2.9872  0.7153  4.5622
  586MOL0     H79058   8.673   8.013   0.703 -1.4045  2.0634 -1.3847
  586MOL0     H79059   8.799   7.832   0.537 -1.1217  1.0327 -0.5825
  586MOL0     H79060   8.773   7.782   0.698  0.7048  1.2160 -1.0773
  586MOL0     H79061   8.579   7.582   0.742 -1.8959 -0.1781 -0.5392
  586MOL0     H79062   8.334   7.433   0.633 -0.5263 -0.4545  0.0435
  586MOL0     H79063   8.386   7.348   0.499 -2.2802 -0.7412  1.2873
  586MOL0     H79064   8.572   7.243   0.625  1.2481  1.7236  0.1362
  586MOL0     H79065   8.516   7.323   0.770 -1.5894 -0.4260  0.7053
  586MOL0     H79066   8.434   7.071   0.694  0.2226  0.1595 -2.9318
  586MOL0     H79067   8.358   7.147   0.575  1.5661  3.0530 -1.0382
  586MOL0     H79068   8.232   7.277   0.769 -0.2044 -0.0854 -5.6770
  586MOL0     H79069   8.330   7.164   0.879 -1.1849  2.2436  0.3814
  586MOL0     H79070   8.015   6.907   0.781 -2.4277  0.2311  3.0004
  586MOL0     H79071   7.796   6.914   0.658  0.3008 -0.2129 -0.4302
  586MOL0     H79072   7.416   7.171   0.525 -0.7491  1.1960 -0.8014
  586MOL0     H79073   7.202   7.131   0.461  2.5713  2.6847 -1.4382
  586MOL0     H79074   7.052   6.695   0.397 -1.7282 -1.4555  0.9185
  586MOL0     H79075   7.009   6.819   0.514  0.2386  3.8042 -1.3855
  586MOL0     H79076   6.816   6.859   0.401  0.3190 -1.0581  1.2419
  586MOL0     H79077   6.890   6.819   0.234  2.2447 -1.0570 -0.6828
  586MOL0     H79078   6.877   6.577   0.360 -0.7691 -0.4291  0.0438
  586MOL0     H79079   6.768   6.649   0.463 -0.5276  0.2221 -0.3946
  586MOL0     H79080   6.726   6.666   0.168  2.6792 -2.5055  1.0223
  586MOL0     H79081   6.623   6.739   0.292 -2.0136  0.1565 -0.7296
  586MOL0     H79082   6.520   6.529   0.254  1.5698 -0.1715 -1.1828
  586MOL0     H79083   6.593   6.533   0.414 -0.7464  2.8062 -0.0962
  586MOL0     H79084   6.722   6.419   0.165  3.3737  1.8275  1.4674
  586MOL0     H79085   6.767   6.384   0.332 -0.1158 -0.7565  0.2758
  586MOL0     H79086   6.590   6.227   0.174  0.2506 -0.4502 -0.1883
  586MOL0     H79087   6.480   6.311   0.288 -1.4958 -0.8747 -1.9666
  586MOL0     H79088   6.547   6.091   0.369  0.7520 -1.5101  0.8332
  586MOL0     H79089   6.715   6.147   0.368 -0.3087 -1.4772  1.0711
  586MOL0     H79090   7.287   6.712   0.381 -0.5029  1.1989 -3.2213
  586MOL0     H79091   7.518   6.762   0.460  2.7062  2.2877  3.0544
  586MOL0     H79092   7.873   7.311   0.523  1.5378  0.1185 -1.5720
  586MOL0     H79093   8.083   7.306   0.641  0.2885  0.0271  1.0246
  586MOL0     H79094   7.936   8.534   0.121  0.4428 -0.6122 -1.6081
  586MOL0     H79095   7.694   8.550   0.088  0.9963 -0.8058 -2.5130
  586MOL0     H79096   7.304   8.542   0.199  1.8068 -0.5495  0.1221
  586MOL0     H79097   7.098   8.619   0.258 -1.1509  0.3821  0.1697
  586MOL0     H79098   6.810   8.590   0.188  3.2137 -3.5244 -1.8075
  586MOL0     H79099   6.906   8.643   0.337  0.9925 -1.7107  1.6842
  586MOL0     H79100   6.675   8.705   0.342  0.3293  0.0519 -1.2627
  586MOL0     H79101   6.730   8.599   0.481  2.6932 -1.0238  0.0274
  586MOL0     H79102   6.516   8.526   0.424 -0.4537  0.8297 -0.0416
  586MOL0     H79103   6.652   8.407   0.415 -1.2017 -0.3830  1.9645
  586MOL0     H79104   6.515   8.558   0.169 -3.0472  0.8529  2.2519
  586MOL0     H79105   6.635   8.434   0.160 -2.0217 -1.3854 -1.8562
  586MOL0     H79106   6.247   8.250   0.208  0.1784  0.1500 -0.2965
  586MOL0     H79107   6.959   8.198   0.270  0.4402  0.4100 -0.4193
  586MOL0     H79108   7.254   8.053   0.250  0.5828  2.6754  0.2761
  586MOL0     H79109   7.090   8.031   0.175  0.9722 -0.9473  1.5280
  586MOL0     H79110   7.215   8.084   0.069 -3.5526  5.3728 -2.6575
  587MOL0     O79111  11.135   5.028   7.021 -0.8313  0.1019 -0.6173
  587MOL0     C79112  11.129   5.088   7.128 -0.5171  0.1313 -0.6082
  587MOL0     O79113  11.235   5.099   7.223  0.2230 -0.1015  0.2952
  587MOL0     C79114  11.368   5.085   7.187 -0.1629  0.5899  0.7863
  587MOL0     C79115  11.460   5.070   7.293  1.0477 -0.6558  1.3862
  587MOL0     C79116  11.597   5.048   7.273  0.0938  0.1097 -0.2135
  587MOL0     C79117  11.638   5.044   7.134  0.1553 -0.7209 -0.9093
  587MOL0     O79118  11.769   5.001   7.101  1.0342  0.6919  0.1539
  587MOL0     C79119  11.811   4.869   7.135 -0.1307 -0.3321  0.0282
  587MOL0     C79120  11.934   4.883   7.227 -0.8274 -0.8015  0.2144
  587MOL0     C79121  12.010   4.753   7.235  0.0878 -0.1733  0.3017
  587MOL0     C79122  12.155   4.788   7.257  0.1917  0.5970  0.6314
  587MOL0     C79123  12.244   4.681   7.309  0.1777  0.2303 -0.3077
  587MOL0     C79124  12.383   4.726   7.374  0.3699  0.1309 -0.4498
  587MOL0     C79125  12.478   4.602   7.401 -0.4397 -0.4289  0.5864
  587MOL0     C79126  12.413   4.480   7.471 -0.5630 -0.3889  0.6626
  587MOL0     N79127  12.510   4.369   7.470  0.6977  0.5368  0.2289
  587MOL0     C79128  12.568   4.310   7.576  0.3815 -0.2506 -0.0853
  587MOL0     C79129  12.636   4.205   7.523 -0.8007 -0.6098  0.5593
  587MOL0     C79130  12.722   4.097   7.591  0.4211 -0.4300 -0.1578
  587MOL0     C79131  12.864   4.144   7.600  0.3597  0.2042 -0.2866
  587MOL0     C79132  12.939   4.105   7.468 -0.7110  0.0030  0.6627
  587MOL0     C79133  13.071   4.191   7.461 -0.4083  0.0939  0.4441
  587MOL0     O79134  13.159   4.125   7.380 -0.2240 -0.2205 -0.1209
  587MOL0     C79135  13.138   4.094   7.246 -0.3823 -0.2772 -0.7721
  587MOL0     C79136  13.166   3.969   7.213  0.6893  0.3194 -0.0765
  587MOL0     C79137  13.162   3.922   7.080  0.0475  0.6873  0.4974
  587MOL0     C79138  13.140   4.017   6.974  0.6587  0.1001  1.1206
  587MOL0     C79139  13.149   3.977   6.832  0.1658  0.2972 -1.2108
  587MOL0     O79140  13.175   4.067   6.733  0.3835  0.6000  0.1080
  587MOL0     C79141  13.167   4.027   6.608 -0.5607  0.0555  1.0257
  587MOL0     C79142  13.047   4.018   6.548  1.1456  0.1149 -0.3536
  587MOL0     C79143  13.027   3.978   6.420 -0.7120 -0.0301  1.1937
  587MOL0     C79144  13.130   3.952   6.331 -0.3052 -0.2455 -0.4178
  587MOL0     O79145  13.101   3.918   6.204  0.2517 -0.3527 -0.1617
  587MOL0     C79146  13.195   3.944   6.102 -0.5458 -0.0528 -0.0188
  587MOL0     C79147  13.212   4.090   6.064 -0.3139  0.2835 -0.4069
  587MOL0     C79148  13.302   4.117   5.942 -0.1825 -0.4345  0.4223
  587MOL0     C79149  13.438   4.047   5.960  0.0906 -0.1326  0.4503
  587MOL0     C79150  13.547   4.112   5.866  0.1178 -0.3535 -0.3412
  587MOL0     C79151  13.681   4.044   5.888 -0.6309  0.0608 -0.0341
  587MOL0     C79152  13.810   4.092   5.814 -0.3294 -0.5126  0.6131
  587MOL0     C79153  13.937   4.020   5.864  0.2973  0.4320 -0.1068
  587MOL0    Cl79154  14.067   4.057   5.765 -0.8131  0.2246  0.1187
  587MOL0     C79155  13.259   3.969   6.380  0.1722  0.4645  0.0416
  587MOL0     C79156  13.275   4.019   6.515  0.4681  0.3770 -0.4139
  587MOL0     O79157  13.125   3.859   6.809 -0.1044  0.1017  0.0903
  587MOL0     C79158  13.115   4.154   7.011 -0.1585  0.0342  0.6367
  587MOL0     C79159  13.122   4.189   7.148  0.2424 -0.2853  0.4009
  587MOL0     N79160  12.625   4.210   7.381  0.0466  0.2000 -0.6904
  587MOL0     N79161  12.556   4.312   7.351 -0.6167  0.1676  0.0183
  587MOL0     C79162  11.554   5.089   7.030  0.3060 -0.1788 -0.3268
  587MOL0     C79163  11.420   5.108   7.058  0.1901  0.6744  0.6549
  587MOL0     C79164  11.003   5.154   7.155  0.2195  0.3748  0.0854
  587MOL0     C79165  10.891   5.098   7.095 -0.2551 -0.2919  0.2291
  587MOL0     C79166  10.767   5.164   7.118  0.1961 -0.0283  0.8381
  587MOL0     C79167  10.760   5.281   7.200 -0.4100  0.2041  0.2456
  587MOL0     O79168  10.643   5.350   7.208 -0.1090 -0.2144 -0.2614
  587MOL0     C79169  10.632   5.481   7.268 -0.4055  0.1107 -0.6427
  587MOL0     C79170  10.486   5.504   7.285 -0.2824  0.4395 -0.1169
  587MOL0     C79171  10.408   5.390   7.354 -0.2269  0.9545  0.4127
  587MOL0     C79172  10.460   5.367   7.496 -0.5473 -0.5263 -0.0378
  587MOL0     C79173  10.372   5.276   7.563  0.7526  0.8380  0.4382
  587MOL0     C79174  10.291   5.207   7.619 -0.1594  0.6273 -0.4305
  587MOL0     C79175  10.875   5.337   7.246 -0.3446 -0.0936 -0.6112
  587MOL0     C79176  10.995   5.276   7.231 -0.3192  0.1434 -0.3857
  587MOL0     C79177  11.125   5.352   7.278  0.7165  0.4414 -0.2022
  587MOL0     H79178  11.407   5.067   7.388 -0.4181  0.3050  0.6408
  587MOL0     H79179  11.666   5.035   7.356 -0.9470 -1.7490  0.4162
  587MOL0     H79180  11.724   4.821   7.181 -0.8420  1.4768  0.6398
  587MOL0     H79181  11.838   4.811   7.046  1.3060  1.0746 -0.4947
  587MOL0     H79182  11.899   4.923   7.323  0.5813 -0.1087  0.4617
  587MOL0     H79183  12.005   4.957   7.191 -0.3023 -1.5182 -0.2470
  587MOL0     H79184  12.009   4.696   7.141  1.9198  1.3163 -0.6954
  587MOL0     H79185  11.962   4.695   7.314  1.3652 -0.6382  0.7582
  587MOL0     H79186  12.197   4.840   7.170 -1.5390  1.6342  0.3716
  587MOL0     H79187  12.150   4.855   7.343  0.0138 -0.3179  1.3401
  587MOL0     H79188  12.197   4.619   7.387 -0.9969 -2.2154 -2.7817
  587MOL0     H79189  12.261   4.615   7.223  2.2408  2.3365 -1.6199
  587MOL0     H79190  12.425   4.805   7.311 -2.9502  1.9120 -0.6722
  587MOL0     H79191  12.361   4.775   7.470  2.8474  4.8275 -1.9505
  587MOL0     H79192  12.553   4.636   7.472 -0.6017 -1.4826  1.2859
  587MOL0     H79193  12.512   4.579   7.300 -0.2021  2.4810 -0.0676
  587MOL0     H79194  12.377   4.503   7.571 -0.6997 -0.5598  0.6520
  587MOL0     H79195  12.330   4.454   7.405  0.8448 -0.6562 -1.1180
  587MOL0     H79196  12.550   4.326   7.682  0.3329 -1.5131  0.1041
  587MOL0     H79197  12.680   4.092   7.692  2.1573 -0.4618  0.6014
  587MOL0     H79198  12.717   4.001   7.538 -3.5516 -1.1194  1.1470
  587MOL0     H79199  12.861   4.252   7.619 -1.5432 -0.2229  2.3431
  587MOL0     H79200  12.908   4.105   7.693 -0.0667  1.7318  0.5917
  587MOL0     H79201  12.879   4.130   7.380 -0.3033 -0.2120  0.3194
  587MOL0     H79202  12.944   3.996   7.474 -1.5941 -0.1336 -0.6565
  587MOL0     H79203  13.107   4.201   7.564 -2.2743  0.3184  1.1213
  587MOL0     H79204  13.052   4.291   7.422 -3.2859 -0.9077 -1.0058
  587MOL0     H79205  13.189   3.896   7.291  0.9145 -0.5213 -0.9163
  587MOL0     H79206  13.184   3.817   7.060  2.0044  0.7236  2.2047
  587MOL0     H79207  12.958   4.029   6.610 -1.3887  0.7284 -3.7988
  587MOL0     H79208  12.927   3.986   6.378 -2.1427  1.2827  4.5229
  587MOL0     H79209  13.281   3.884   6.133 -0.6830 -0.6247 -0.7174
  587MOL0     H79210  13.156   3.884   6.019 -1.2750 -0.3614  0.5370
  587MOL0     H79211  13.112   4.124   6.036 -0.3743  0.5383  0.1147
  587MOL0     H79212  13.246   4.134   6.158  0.3666 -3.4712  1.2643
  587MOL0     H79213  13.256   4.078   5.850  0.0135  0.1723  0.0607
  587MOL0     H79214  13.320   4.223   5.922 -2.6145  0.1206  0.9236
  587MOL0     H79215  13.432   3.940   5.938  0.3303 -0.2054  0.7341
  587MOL0     H79216  13.457   4.063   6.067 -1.1236 -0.2977  0.7049
  587MOL0     H79217  13.549   4.217   5.896  0.2551 -1.0153  2.2037
  587MOL0     H79218  13.511   4.107   5.763 -0.6625 -1.4825 -0.0396
  587MOL0     H79219  13.707   4.028   5.993  4.5615 -1.8148 -1.3252
  587MOL0     H79220  13.664   3.945   5.845 -2.2961  0.1024  0.4389
  587MOL0     H79221  13.827   4.200   5.818 -0.3980 -0.5251  1.6737
  587MOL0     H79222  13.794   4.073   5.708  0.8708 -1.2297  0.5534
  587MOL0     H79223  13.959   4.047   5.968  2.0994 -0.8045 -0.1139
  587MOL0     H79224  13.914   3.913   5.853  2.5498 -0.2170  0.9597
  587MOL0     H79225  13.351   3.958   6.324  0.1338  1.0644 -0.1495
  587MOL0     H79226  13.379   4.038   6.542  0.4338  0.7509 -0.5349
  587MOL0     H79227  13.091   4.229   6.937  0.3973 -1.3788 -1.0313
  587MOL0     H79228  13.108   4.293   7.177 -0.1490  0.0834 -1.0383
  587MOL0     H79229  11.593   5.103   6.929  0.6296 -1.2308 -0.3629
  587MOL0     H79230  11.348   5.142   6.984 -1.7843 -1.7099  1.3481
  587MOL0     H79231  10.900   5.003   7.043  2.2769  0.4056 -0.7944
  587MOL0     H79232  10.669   5.122   7.096  0.9808 -1.6126  0.2011
  587MOL0     H79233  10.695   5.552   7.214  0.9701 -2.1664 -2.1908
  587MOL0     H79234  10.683   5.491   7.365  1.3200  0.7249 -1.5556
  587MOL0     H79235  10.445   5.509   7.184 -0.3186  1.5469 -0.0552
  587MOL0     H79236  10.472   5.602   7.331  1.0708  1.5333 -1.8828
  587MOL0     H79237  10.419   5.295   7.300 -2.4693  1.5826 -1.3349
  587MOL0     H79238  10.301   5.415   7.354 -0.5076 -0.1056  1.6613
  587MOL0     H79239  10.557   5.316   7.491 -0.4410 -0.3336  0.0286
  587MOL0     H79240  10.473   5.462   7.548 -0.4388  0.1645 -1.3028
  587MOL0     H79241  10.214   5.153   7.670  0.3964 -1.1070 -1.3302
  587MOL0     H79242  10.884   5.434   7.294  2.8383 -0.4372 -0.2787
  587MOL0     H79243  11.203   5.345   7.202  3.2118  2.5364  1.9496
  587MOL0     H79244  11.104   5.457   7.300 -0.2750  0.2411 -0.1880
  587MOL0     H79245  11.163   5.312   7.373  1.3310 -4.5520 -2.2364
  588MOL0     O79246   4.388   5.671   1.197 -0.2091 -0.8404 -0.7761
  588MOL0     C79247   4.478   5.590   1.189 -0.5744  0.6485  0.3236
  588MOL0     O79248   4.459   5.469   1.131  0.8024  0.2780 -0.2038
  588MOL0     C79249   4.334   5.428   1.108  0.0291  0.7740  0.3159
  588MOL0     C79250   4.273   5.326   1.172 -0.1879  0.4638  0.0349
  588MOL0     C79251   4.137   5.293   1.146 -0.1601 -0.6906  0.0340
  588MOL0     C79252   4.070   5.361   1.050 -0.3229 -0.3023  0.7211
  588MOL0     O79253   3.927   5.351   1.039 -0.6814  0.6753 -0.1206
  588MOL0     C79254   3.864   5.256   1.133  0.5778  0.4273  0.8569
  588MOL0     C79255   3.718   5.215   1.094  0.1485 -0.2564  0.0233
  588MOL0     C79256   3.682   5.088   1.191 -0.1023 -0.5966 -0.3959
  588MOL0     C79257   3.531   5.049   1.159  0.7702  0.1634  0.1573
  588MOL0     C79258   3.465   4.947   1.253 -0.0438  0.3387 -0.0917
  588MOL0     C79259   3.538   4.809   1.266 -0.4735 -0.4799 -0.1910
  588MOL0     C79260   3.467   4.730   1.383 -0.2643  0.0947  0.1279
  588MOL0     C79261   3.555   4.596   1.387  0.4120 -0.4400 -0.5135
  588MOL0     N79262   3.543   4.530   1.518  0.3186 -0.1365  0.1365
  588MOL0     C79263   3.436   4.527   1.609  0.3870  0.2762  0.2550
  588MOL0     C79264   3.485   4.495   1.733  0.9674 -0.8337 -0.3075
  588MOL0     C79265   3.409   4.505   1.859  0.5730 -0.1016 -0.4498
  588MOL0     C79266   3.481   4.466   1.983 -0.3020  0.3614  0.3424
  588MOL0     C79267   3.418   4.500   2.111  0.5218  0.2085 -0.5226
  588MOL0     C79268   3.296   4.417   2.127  0.5563 -0.2130  0.5823
  588MOL0     O79269   3.228   4.457   2.248 -0.3982 -0.5134 -0.3222
  588MOL0     C79270   3.097   4.417   2.259 -0.2682  0.4012  0.2327
  588MOL0     C79271   3.030   4.332   2.167  0.1461  0.9220  0.5495
  588MOL0     C79272   2.887   4.317   2.188 -0.4438  0.2860  0.1052
  588MOL0     C79273   2.812   4.390   2.273 -0.5682 -0.6459  0.6170
  588MOL0     C79274   2.661   4.406   2.276  0.9724  0.7602 -0.2498
  588MOL0     O79275   2.609   4.488   2.376 -0.7900  0.3707 -0.5012
  588MOL0     C79276   2.478   4.521   2.379  0.4081 -0.5892 -1.1310
  588MOL0     C79277   2.403   4.581   2.274 -0.2323  0.3569 -0.3031
  588MOL0     C79278   2.270   4.611   2.292  0.4501 -0.8759 -0.2794
  588MOL0     C79279   2.207   4.590   2.411  0.2851  0.3231 -0.6867
  588MOL0     O79280   2.072   4.615   2.430  0.7513 -0.1834 -0.2830
  588MOL0     C79281   2.008   4.747   2.396 -0.3215 -0.6316  0.0332
  588MOL0     C79282   1.861   4.740   2.403 -0.0410  0.6549 -0.1683
  588MOL0     C79283   1.806   4.717   2.550  0.1214 -0.6901 -0.7018
  588MOL0     C79284   1.653   4.731   2.563 -0.3550  0.1950  0.4398
  588MOL0     C79285   1.616   4.870   2.608  0.0905  0.4107  0.6014
  588MOL0     C79286   1.466   4.903   2.594  0.2038 -0.8713 -0.1859
  588MOL0     C79287   1.383   4.819   2.689  0.3005 -0.4772 -0.7229
  588MOL0     C79288   1.237   4.885   2.706 -0.7868  0.5564 -0.2357
  588MOL0    Cl79289   1.227   5.035   2.791 -0.0430  0.2007  0.1372
  588MOL0     C79290   2.289   4.533   2.519 -0.3736  1.0719  0.5856
  588MOL0     C79291   2.422   4.490   2.499 -0.3223 -0.2845  0.2644
  588MOL0     O79292   2.599   4.337   2.197 -0.4165  0.1066 -0.5047
  588MOL0     C79293   2.889   4.463   2.373 -0.4250  0.8867  1.0648
  588MOL0     C79294   3.026   4.480   2.369  0.5561  0.2154 -0.0149
  588MOL0     N79295   3.621   4.486   1.715  0.3401 -0.3235  0.4893
  588MOL0     N79296   3.646   4.491   1.591 -1.4305  0.1600  0.7888
  588MOL0     C79297   4.136   5.463   0.981  0.3287 -0.1758 -0.1583
  588MOL0     C79298   4.267   5.492   1.007 -0.2624 -0.6457  0.2496
  588MOL0     C79299   4.625   5.617   1.232 -0.8060 -0.0156  0.4253
  588MOL0     C79300   4.669   5.752   1.226  0.8194  0.2065  0.0881
  588MOL0     C79301   4.791   5.788   1.279 -0.1323 -0.0055  0.7993
  588MOL0     C79302   4.883   5.696   1.331  0.0662 -0.5625 -0.3699
  588MOL0     O79303   5.005   5.743   1.373  0.0036  0.4135  0.0448
  588MOL0     C79304   5.114   5.670   1.332  0.0289 -0.0915 -0.3996
  588MOL0     C79305   5.243   5.735   1.371 -0.5314 -1.0214 -0.2932
  588MOL0     C79306   5.363   5.644   1.324 -0.8802 -0.9254 -0.2464
  588MOL0     C79307   5.494   5.721   1.322  0.1796  0.1809  0.4873
  588MOL0     C79308   5.588   5.610   1.282 -0.5822 -0.8634  0.3048
  588MOL0     C79309   5.661   5.521   1.245  0.3942 -0.7853 -0.4463
  588MOL0     C79310   4.833   5.564   1.354  0.2349  0.0696 -0.1882
  588MOL0     C79311   4.704   5.522   1.305 -0.8675  0.1563 -0.5482
  588MOL0     C79312   4.662   5.380   1.331  0.0506  0.2501  0.0987
  588MOL0     H79313   4.338   5.273   1.241  1.5084 -0.8499 -2.4199
  588MOL0     H79314   4.105   5.217   1.216 -0.7765  0.9360  1.5868
  588MOL0     H79315   3.925   5.165   1.125  1.4328  1.0460  0.1473
  588MOL0     H79316   3.871   5.293   1.235  1.8374  1.9574  0.2471
  588MOL0     H79317   3.707   5.183   0.990 -1.9140 -0.6700  0.3449
  588MOL0     H79318   3.664   5.306   1.124  1.0629  0.8908 -1.6077
  588MOL0     H79319   3.681   5.128   1.293 -0.7211  2.5278 -1.4995
  588MOL0     H79320   3.749   5.002   1.182 -1.5318 -1.5932 -2.3998
  588MOL0     H79321   3.460   5.131   1.150  0.8254  0.3761  1.4708
  588MOL0     H79322   3.523   4.986   1.070  1.0531  0.9455 -0.4380
  588MOL0     H79323   3.465   4.999   1.348  1.0122 -0.5841  0.4380
  588MOL0     H79324   3.363   4.926   1.219  1.1808 -2.8239 -2.2920
  588MOL0     H79325   3.542   4.755   1.171  0.9521 -0.9244  0.0973
  588MOL0     H79326   3.641   4.834   1.294 -0.9383  2.4814 -0.7392
  588MOL0     H79327   3.365   4.708   1.350 -0.5873 -1.2355  1.8312
  588MOL0     H79328   3.475   4.789   1.475  1.9243  0.7732 -0.4312
  588MOL0     H79329   3.519   4.530   1.307 -2.2638  1.9763 -1.4917
  588MOL0     H79330   3.660   4.620   1.370  0.8445 -1.8597  0.0900
  588MOL0     H79331   3.332   4.548   1.583  0.4522 -0.2424 -0.4523
  588MOL0     H79332   3.378   4.608   1.878 -3.0462 -0.8808 -1.3012
  588MOL0     H79333   3.319   4.444   1.849 -0.5315  1.3996  0.0351
  588MOL0     H79334   3.508   4.360   1.982  3.7941  1.1760  2.1599
  588MOL0     H79335   3.573   4.526   1.976  0.9746 -1.6198 -4.5519
  588MOL0     H79336   3.405   4.608   2.124 -0.9255  0.1181 -1.1106
  588MOL0     H79337   3.474   4.463   2.198 -1.3175 -0.4461  0.4393
  588MOL0     H79338   3.312   4.309   2.131 -2.4854 -0.7576  3.9493
  588MOL0     H79339   3.234   4.448   2.043  1.7332  2.1874  0.5089
  588MOL0     H79340   3.069   4.280   2.081 -4.4344 -1.0283 -0.6652
  588MOL0     H79341   2.827   4.252   2.124 -1.8216  1.4448  0.1844
  588MOL0     H79342   2.467   4.604   2.189 -0.2424  1.9114  0.0856
  588MOL0     H79343   2.221   4.650   2.203  0.0796 -0.9852 -0.1248
  588MOL0     H79344   2.053   4.824   2.459 -0.4569 -1.2008  0.8471
  588MOL0     H79345   2.031   4.769   2.291  0.7997 -0.6667  0.2561
  588MOL0     H79346   1.821   4.839   2.380 -0.0062  0.5295 -0.7968
  588MOL0     H79347   1.819   4.662   2.338  0.0009  1.2022 -0.8643
  588MOL0     H79348   1.836   4.616   2.579 -0.2602 -0.4559  0.5603
  588MOL0     H79349   1.852   4.785   2.622  0.4661 -0.8856 -0.7368
  588MOL0     H79350   1.622   4.656   2.636  0.7972 -0.9654 -0.2184
  588MOL0     H79351   1.600   4.709   2.469 -2.0534  0.8525  1.2065
  588MOL0     H79352   1.660   4.948   2.544  0.0181 -1.3595 -1.7176
  588MOL0     H79353   1.646   4.896   2.710 -1.9069  3.8886  0.4598
  588MOL0     H79354   1.442   5.006   2.623 -0.0333 -1.0001  0.0696
  588MOL0     H79355   1.438   4.875   2.492  1.1626 -1.8004 -0.2079
  588MOL0     H79356   1.432   4.811   2.786 -1.1684  2.2330  0.3317
  588MOL0     H79357   1.377   4.716   2.651  1.9892 -1.6975  1.9829
  588MOL0     H79358   1.186   4.888   2.610 -2.3523 -0.6239  0.5076
  588MOL0     H79359   1.173   4.817   2.763 -1.4681  2.2124  1.0696
  588MOL0     H79360   2.249   4.492   2.611 -0.7057 -1.7642 -0.7156
  588MOL0     H79361   2.485   4.444   2.575  1.7608  0.7027 -0.7976
  588MOL0     H79362   2.841   4.524   2.449  2.7414  1.1175  3.0448
  588MOL0     H79363   3.066   4.548   2.443  0.3097  1.2668 -0.8174
  588MOL0     H79364   4.083   5.527   0.910  0.7994  3.2303  2.3247
  588MOL0     H79365   4.307   5.571   0.944  1.7459 -1.4880  0.4100
  588MOL0     H79366   4.609   5.820   1.165  0.2606 -0.0088  0.3895
  588MOL0     H79367   4.816   5.893   1.267 -1.4540  0.3427  0.9896
  588MOL0     H79368   5.118   5.655   1.223 -0.2868 -0.2846 -0.3879
  588MOL0     H79369   5.096   5.573   1.379 -3.6989  0.7598  0.2012
  588MOL0     H79370   5.235   5.736   1.480 -0.5031  1.2855 -0.2502
  588MOL0     H79371   5.261   5.836   1.330  1.7016  0.2101  3.2537
  588MOL0     H79372   5.342   5.616   1.221 -3.5799  3.1921 -1.0510
  588MOL0     H79373   5.361   5.549   1.379 -0.6845  0.2519  1.9125
  588MOL0     H79374   5.497   5.799   1.245 -0.3708 -2.3736 -2.3071
  588MOL0     H79375   5.526   5.754   1.421 -1.2887  0.8953  0.7484
  588MOL0     H79376   5.733   5.448   1.212  1.1299  0.7056 -2.3260
  588MOL0     H79377   4.908   5.498   1.398  1.3420  0.3759 -1.5479
  588MOL0     H79378   4.657   5.318   1.240 -0.5243  1.3723 -0.6563
  588MOL0     H79379   4.734   5.328   1.395  1.5021  1.5611 -0.4059
  588MOL0     H79380   4.563   5.394   1.374  0.8964 -0.4689  2.4069
  589MOL0     O79381   5.613   3.871   4.460  0.0793  0.0460 -0.6516
  589MOL0     C79382   5.540   3.938   4.386 -0.0932  0.7882  0.1068
  589MOL0     O79383   5.571   4.061   4.334 -0.5210 -0.8314  0.3067
  589MOL0     C79384   5.697   4.119   4.369  0.0251 -0.1632  0.2798
  589MOL0     C79385   5.734   4.138   4.509 -0.5805 -1.0345  0.4307
  589MOL0     C79386   5.866   4.182   4.537  0.2704 -0.0489  0.0417
  589MOL0     C79387   5.949   4.227   4.439 -0.1970  0.6761  0.1559
  589MOL0     O79388   6.065   4.299   4.459 -0.3593  0.2551 -0.3076
  589MOL0     C79389   6.082   4.388   4.573 -0.2315 -0.1444 -0.0330
  589MOL0     C79390   6.237   4.399   4.606 -0.2488  0.2957  0.6304
  589MOL0     C79391   6.286   4.280   4.676 -1.0350  0.2237 -0.3301
  589MOL0     C79392   6.259   4.302   4.831 -0.4396 -0.8515 -0.2720
  589MOL0     C79393   6.287   4.174   4.911  0.4073 -0.3155  0.2200
  589MOL0     C79394   6.303   4.195   5.056  0.3223  0.2357 -0.3738
  589MOL0     C79395   6.282   4.069   5.144 -0.1422  0.3041  0.1283
  589MOL0     C79396   6.136   4.041   5.159  0.1832 -0.0681  0.1274
  589MOL0     N79397   6.113   3.910   5.225  0.5720  0.4580 -0.2151
  589MOL0     C79398   5.995   3.843   5.211  0.4278  0.1638 -0.4019
  589MOL0     C79399   6.006   3.736   5.283 -0.0784  0.0552 -0.2540
  589MOL0     C79400   5.915   3.618   5.286 -0.4459 -0.7250  0.4759
  589MOL0     C79401   5.986   3.485   5.241 -0.2823  0.1886  0.1195
  589MOL0     C79402   5.896   3.361   5.272  0.1585 -0.0843 -0.3586
  589MOL0     C79403   5.958   3.238   5.224 -0.3058  1.2202  0.7220
  589MOL0     O79404   5.926   3.223   5.088  0.0144 -0.1430  0.5802
  589MOL0     C79405   6.006   3.132   5.018  0.2820 -0.4346  0.1606
  589MOL0     C79406   6.013   3.150   4.885 -1.4712 -0.4683 -0.4782
  589MOL0     C79407   6.098   3.077   4.805  1.0344  0.0335 -0.0678
  589MOL0     C79408   6.176   2.982   4.865  0.1918  0.5384  0.2211
  589MOL0     C79409   6.264   2.901   4.784 -0.4821  0.7060  0.0075
  589MOL0     O79410   6.245   2.921   4.652  0.5168  0.1982 -0.1139
  589MOL0     C79411   6.298   2.854   4.548 -0.2723 -0.3277  0.3584
  589MOL0     C79412   6.322   2.922   4.426 -0.9779  0.1268  0.7410
  589MOL0     C79413   6.371   2.844   4.313  1.3647 -1.0469 -0.4546
  589MOL0     C79414   6.403   2.703   4.326 -0.0453  0.5285  0.7527
  589MOL0     O79415   6.434   2.618   4.222  0.2449 -0.1924 -0.0332
  589MOL0     C79416   6.445   2.671   4.088  0.2916  0.9934 -0.2262
  589MOL0     C79417   6.303   2.684   4.027  0.0256 -0.6321  0.2260
  589MOL0     C79418   6.216   2.557   4.030  0.5973  0.5026  0.4797
  589MOL0     C79419   6.258   2.443   3.941  0.6525  0.2162 -0.6760
  589MOL0     C79420   6.168   2.319   3.955  0.3628  0.6968 -0.1564
  589MOL0     C79421   6.023   2.347   3.920  0.4705 -0.1951  0.4634
  589MOL0     C79422   5.956   2.218   3.892 -0.1721  0.3379 -0.6358
  589MOL0     C79423   5.958   2.117   4.003 -0.1046 -0.2189 -0.0042
  589MOL0    Cl79424   5.918   2.195   4.166 -0.6764  0.2001  0.3925
  589MOL0     C79425   6.377   2.641   4.451 -1.0732  0.2624 -0.7424
  589MOL0     C79426   6.330   2.708   4.564  0.0817 -0.7316  0.8079
  589MOL0     O79427   6.360   2.833   4.829 -0.0109  0.6352  0.2647
  589MOL0     C79428   6.162   2.952   5.002 -0.6690 -0.9599  0.8340
  589MOL0     C79429   6.074   3.027   5.080  0.4893  0.2022  0.1144
  589MOL0     N79430   6.132   3.737   5.341 -0.9272 -0.1956  0.6877
  589MOL0     N79431   6.196   3.847   5.304 -1.0998  0.4019  0.1279
  589MOL0     C79432   5.918   4.196   4.305  0.3384 -0.4972  0.3429
  589MOL0     C79433   5.788   4.144   4.268 -1.0015 -0.2627  0.2714
  589MOL0     C79434   5.407   3.879   4.362 -0.6184  0.2846 -0.5920
  589MOL0     C79435   5.329   3.958   4.276 -0.2713  0.0005 -0.3623
  589MOL0     C79436   5.191   3.920   4.257 -0.0915  0.2733 -0.0235
  589MOL0     C79437   5.134   3.800   4.315 -0.2883  0.1219 -0.1413
  589MOL0     O79438   5.010   3.751   4.282  0.2799 -0.3114  0.2175
  589MOL0     C79439   4.932   3.805   4.176 -0.2774 -0.1783 -0.0998
  589MOL0     C79440   4.789   3.753   4.187  0.7703 -0.1716  0.3912
  589MOL0     C79441   4.703   3.850   4.274  0.0825 -0.2920  0.9895
  589MOL0     C79442   4.737   3.855   4.421 -0.4741 -0.4229  0.2567
  589MOL0     C79443   4.640   3.932   4.490 -0.1855 -0.0734 -0.3858
  589MOL0     C79444   4.572   4.014   4.538 -1.1115 -0.2305  0.1506
  589MOL0     C79445   5.213   3.734   4.417 -0.0319 -0.0325  0.3533
  589MOL0     C79446   5.345   3.767   4.432 -0.0197  0.2448 -0.2233
  589MOL0     C79447   5.421   3.688   4.544  0.2214  0.6954  0.0651
  589MOL0     H79448   5.674   4.109   4.595  2.6326 -2.1080  2.4920
  589MOL0     H79449   5.894   4.175   4.641 -0.0730 -1.5975  0.0578
  589MOL0     H79450   6.054   4.486   4.533  0.3786 -0.6599 -1.8437
  589MOL0     H79451   6.028   4.356   4.662  1.6184 -3.6119  0.0053
  589MOL0     H79452   6.264   4.495   4.651  0.1707  0.3905  0.1879
  589MOL0     H79453   6.284   4.400   4.507 -0.5312 -0.4071  0.4811
  589MOL0     H79454   6.393   4.261   4.661 -1.3146 -1.6446 -0.1501
  589MOL0     H79455   6.246   4.184   4.641  0.6083 -0.8118  0.5010
  589MOL0     H79456   6.334   4.374   4.865 -1.0734  0.1616 -0.9633
  589MOL0     H79457   6.156   4.333   4.852 -0.1698 -0.3907  0.4066
  589MOL0     H79458   6.221   4.089   4.888  0.4513 -0.7500  1.6074
  589MOL0     H79459   6.381   4.137   4.869  2.4631  2.6254  1.9185
  589MOL0     H79460   6.407   4.225   5.073  0.6737 -1.6850  1.2177
  589MOL0     H79461   6.239   4.276   5.093  0.0169 -1.0188  2.0846
  589MOL0     H79462   6.315   4.089   5.246 -2.4445 -0.4700  1.0623
  589MOL0     H79463   6.334   3.977   5.114 -3.1155 -1.2821 -0.4863
  589MOL0     H79464   6.082   4.121   5.210  0.1287  0.3652 -0.5949
  589MOL0     H79465   6.097   4.037   5.057 -0.2877 -0.1860  0.3125
  589MOL0     H79466   5.903   3.868   5.160  0.1873 -2.3821 -1.3401
  589MOL0     H79467   5.876   3.599   5.386  0.5807 -4.7813  0.2444
  589MOL0     H79468   5.829   3.639   5.222 -0.3473 -1.5027  0.0877
  589MOL0     H79469   6.020   3.489   5.138  1.9342 -2.9108  0.5989
  589MOL0     H79470   6.068   3.475   5.312 -0.5368  0.6071  0.4804
  589MOL0     H79471   5.797   3.376   5.228  0.3719 -0.5277 -0.9950
  589MOL0     H79472   5.878   3.362   5.380  2.6897  1.5314  0.1420
  589MOL0     H79473   5.931   3.150   5.283  0.7789 -0.9407 -1.8392
  589MOL0     H79474   6.066   3.247   5.233  0.2180 -2.6813 -0.0827
  589MOL0     H79475   5.950   3.228   4.843 -2.7885 -1.0764  0.3254
  589MOL0     H79476   6.083   3.097   4.699  1.2475  1.6422  0.1889
  589MOL0     H79477   6.297   3.026   4.408 -0.2293  0.0215 -1.0877
  589MOL0     H79478   6.378   2.899   4.219  2.7120  1.2675  0.9112
  589MOL0     H79479   6.496   2.767   4.086 -1.2998  1.9589  1.6432
  589MOL0     H79480   6.507   2.595   4.038 -0.3071 -1.9936  3.1189
  589MOL0     H79481   6.253   2.763   4.084 -0.6281  0.9768 -2.4349
  589MOL0     H79482   6.312   2.733   3.930 -1.5097  1.4397  1.0539
  589MOL0     H79483   6.220   2.529   4.136  3.8220  2.5889  1.0304
  589MOL0     H79484   6.109   2.578   4.015  0.5399  1.1152  1.6773
  589MOL0     H79485   6.352   2.413   3.989  0.5416  0.1738 -0.4818
  589MOL0     H79486   6.279   2.488   3.844  1.7659  0.4632 -0.3362
  589MOL0     H79487   6.168   2.293   4.061 -0.8246 -0.3252 -0.3824
  589MOL0     H79488   6.203   2.232   3.898  2.8471  1.8058 -0.4207
  589MOL0     H79489   5.968   2.401   3.998 -3.0227 -0.1495 -1.7986
  589MOL0     H79490   6.027   2.419   3.838 -1.5672  0.9443  1.2694
  589MOL0     H79491   6.010   2.160   3.817 -0.8785 -1.6156  0.2930
  589MOL0     H79492   5.856   2.244   3.857  0.0862 -1.3675 -2.8037
  589MOL0     H79493   5.872   2.054   3.977 -0.6444 -0.5032  2.2733
  589MOL0     H79494   6.051   2.060   4.015 -1.1998 -1.8453  1.1901
  589MOL0     H79495   6.393   2.534   4.454 -2.3898  0.0546 -0.4462
  589MOL0     H79496   6.320   2.653   4.657 -1.3253  0.5378  1.4518
  589MOL0     H79497   6.234   2.890   5.055  0.3508 -0.2889  0.2661
  589MOL0     H79498   6.066   3.001   5.186  1.1672 -2.9430 -0.4913
  589MOL0     H79499   5.982   4.250   4.236  3.0430 -3.9110 -0.0297
  589MOL0     H79500   5.759   4.146   4.163  3.1768  0.6616 -1.0609
  589MOL0     H79501   5.368   4.041   4.219 -1.1959  1.3578  0.9184
  589MOL0     H79502   5.146   3.990   4.188  0.5463 -0.4957 -1.2654
  589MOL0     H79503   4.985   3.755   4.094  0.1456 -5.1143  2.7774
  589MOL0     H79504   4.935   3.914   4.176 -0.8679 -0.1285  1.9039
  589MOL0     H79505   4.788   3.656   4.238  0.9923 -0.8486 -0.8589
  589MOL0     H79506   4.748   3.737   4.087  1.9786  0.2285 -0.1785
  589MOL0     H79507   4.602   3.811   4.257  0.1780  0.7592 -3.2318
  589MOL0     H79508   4.701   3.946   4.221 -1.8607 -0.2762  1.0245
  589MOL0     H79509   4.746   3.755   4.463 -0.7555 -0.4344  0.2957
  589MOL0     H79510   4.834   3.904   4.434 -1.1866  1.0355  0.3829
  589MOL0     H79511   4.510   4.086   4.588  2.0769  1.4483  1.9982
  589MOL0     H79512   5.171   3.660   4.485 -0.5125  0.1388  0.2492
  589MOL0     H79513   5.504   3.647   4.486  1.8787  0.7948  2.2457
  589MOL0     H79514   5.471   3.749   4.619  0.1750  0.3205  0.4070
  589MOL0     H79515   5.364   3.601   4.579  3.4346 -1.6229 -0.0218
  590MOL0     O79516   4.350   3.320   5.094 -0.8186  0.0856  0.4748
  590MOL0     C79517   4.440   3.345   5.174  0.2253 -0.5227  0.3908
  590MOL0     O79518   4.415   3.386   5.304 -0.5974  0.6547  0.3127
  590MOL0     C79519   4.292   3.378   5.361 -0.3156 -1.1159 -0.0206
  590MOL0     C79520   4.220   3.260   5.394  0.9841 -1.1998  0.3411
  590MOL0     C79521   4.096   3.260   5.456 -1.2536 -0.3608 -0.3956
  590MOL0     C79522   4.034   3.388   5.491  0.8261  0.3054 -0.5945
  590MOL0     O79523   3.905   3.389   5.543 -0.3401 -0.1358  0.1453
  590MOL0     C79524   3.853   3.258   5.592  1.5964 -0.0942 -1.0719
  590MOL0     C79525   3.706   3.263   5.642  0.3436  0.6766  0.3349
  590MOL0     C79526   3.606   3.234   5.534  0.3924 -0.1150 -0.1980
  590MOL0     C79527   3.459   3.238   5.580  0.4488  0.4418 -0.6336
  590MOL0     C79528   3.367   3.247   5.466 -0.6842  0.0049  1.0491
  590MOL0     C79529   3.226   3.281   5.514  0.1215  0.3855 -0.2552
  590MOL0     C79530   3.120   3.301   5.397  0.4166  0.0283 -0.1456
  590MOL0     C79531   2.977   3.305   5.447  0.1806 -0.0755  0.0710
  590MOL0     N79532   2.932   3.186   5.510 -0.9416  0.5234  0.0387
  590MOL0     C79533   2.892   3.065   5.450  0.5360  0.5274 -0.0918
  590MOL0     C79534   2.844   2.994   5.550  0.0931  0.3533  0.0270
  590MOL0     C79535   2.786   2.858   5.537  0.7333  0.3044  0.1551
  590MOL0     C79536   2.880   2.753   5.598 -0.1120 -0.4971 -0.5233
  590MOL0     C79537   2.802   2.623   5.609  0.0690 -0.0742 -0.6667
  590MOL0     C79538   2.894   2.504   5.648 -0.5723  0.1728  0.7662
  590MOL0     O79539   2.994   2.539   5.738 -0.4279  0.6742 -0.6694
  590MOL0     C79540   3.109   2.476   5.722 -1.1181 -0.3051 -0.4432
  590MOL0     C79541   3.220   2.545   5.743 -0.5348  0.0827  0.0527
  590MOL0     C79542   3.341   2.481   5.747 -0.0183 -0.2122 -0.3442
  590MOL0     C79543   3.358   2.344   5.741  0.0582  0.4546  0.7003
  590MOL0     C79544   3.491   2.279   5.750  0.6325 -0.7217 -0.1115
  590MOL0     O79545   3.593   2.365   5.728  0.4370 -0.0513 -0.3154
  590MOL0     C79546   3.723   2.326   5.740  0.3013  0.5564 -0.8831
  590MOL0     C79547   3.796   2.427   5.799  0.1382  0.3571 -0.6478
  590MOL0     C79548   3.927   2.415   5.832 -0.4566 -0.4871  0.7675
  590MOL0     C79549   3.999   2.294   5.791 -0.2852 -0.8933  0.6252
  590MOL0     O79550   4.134   2.306   5.808  0.2044 -0.4201 -0.0140
  590MOL0     C79551   4.228   2.218   5.745 -0.0301 -0.8045 -0.6400
  590MOL0     C79552   4.298   2.276   5.627 -0.2654  0.2151 -0.2732
  590MOL0     C79553   4.203   2.275   5.500 -0.1196  0.1098 -0.4855
  590MOL0     C79554   4.263   2.316   5.368 -0.2583  0.6840 -0.1745
  590MOL0     C79555   4.365   2.198   5.330  0.6709  0.1065  0.2939
  590MOL0     C79556   4.415   2.199   5.184  0.2970  0.2922  0.2592
  590MOL0     C79557   4.510   2.082   5.149  0.1188  0.2356 -0.7168
  590MOL0     C79558   4.648   2.126   5.184 -0.4016 -0.0416 -0.0612
  590MOL0    Cl79559   4.742   2.004   5.102 -0.0707  0.1732  0.2740
  590MOL0     C79560   3.922   2.183   5.736  0.9176  0.1237  0.0503
  590MOL0     C79561   3.785   2.204   5.717 -0.8868 -0.2257  1.1642
  590MOL0     O79562   3.493   2.168   5.789 -0.2337  0.3911 -0.0423
  590MOL0     C79563   3.239   2.271   5.727 -0.0132  0.1300  0.6107
  590MOL0     C79564   3.118   2.340   5.711  0.7291 -0.0143 -1.3412
  590MOL0     N79565   2.849   3.077   5.668 -0.6518 -0.5062  0.1502
  590MOL0     N79566   2.902   3.186   5.643 -0.0186 -0.0084  0.2257
  590MOL0     C79567   4.101   3.504   5.445  0.2447  0.5693  0.3163
  590MOL0     C79568   4.228   3.498   5.387  0.7308  0.0537  0.0309
  590MOL0     C79569   4.578   3.326   5.125  0.0755  0.4853 -0.3334
  590MOL0     C79570   4.680   3.346   5.224 -0.8127 -0.3482 -0.3548
  590MOL0     C79571   4.818   3.322   5.193 -0.7156 -0.9623  0.5772
  590MOL0     C79572   4.859   3.278   5.067 -1.0744  0.0203 -0.0059
  590MOL0     O79573   4.992   3.267   5.045  0.4191  0.3722  0.2495
  590MOL0     C79574   5.041   3.312   4.922  0.2101 -0.3445  0.3320
  590MOL0     C79575   5.079   3.195   4.832  0.0271 -0.3223 -0.1718
  590MOL0     C79576   5.182   3.105   4.895 -0.4680 -0.3776  0.0271
  590MOL0     C79577   5.235   2.999   4.789  0.1867 -0.9046 -0.4421
  590MOL0     C79578   5.335   2.914   4.857 -0.2255  0.4449 -0.1044
  590MOL0     C79579   5.419   2.849   4.918  1.5215 -0.1886 -0.6501
  590MOL0     C79580   4.762   3.260   4.969 -1.7336 -0.1736 -1.1627
  590MOL0     C79581   4.627   3.299   4.995 -0.1202 -0.4658 -0.1439
  590MOL0     C79582   4.534   3.279   4.877 -0.1759 -0.1646  0.1586
  590MOL0     H79583   4.257   3.160   5.373 -1.9794 -2.3581  0.1788
  590MOL0     H79584   4.043   3.166   5.471 -0.5239 -0.3668  3.0064
  590MOL0     H79585   3.838   3.185   5.512 -2.8317 -0.0090 -0.5717
  590MOL0     H79586   3.919   3.220   5.671  0.0385 -2.0612 -0.5950
  590MOL0     H79587   3.680   3.362   5.680  1.2062  2.1890 -2.7030
  590MOL0     H79588   3.696   3.198   5.729  0.1407  0.3191  0.0489
  590MOL0     H79589   3.628   3.139   5.486  0.7248  0.5548 -1.4294
  590MOL0     H79590   3.611   3.314   5.459  1.9202 -0.8918 -0.9686
  590MOL0     H79591   3.423   3.145   5.625 -0.2633  0.6776 -0.6998
  590MOL0     H79592   3.451   3.320   5.651 -1.8006  0.6035 -0.9818
  590MOL0     H79593   3.401   3.324   5.396  2.2937 -1.7014  0.4428
  590MOL0     H79594   3.372   3.155   5.408 -0.0862  0.7954 -0.1920
  590MOL0     H79595   3.186   3.206   5.583  1.1587 -0.4018 -0.4864
  590MOL0     H79596   3.221   3.372   5.575 -0.3974 -1.2571  2.3169
  590MOL0     H79597   3.136   3.227   5.319  0.4017 -3.8777  3.1839
  590MOL0     H79598   3.127   3.399   5.349  3.1150  0.1831  0.3988
  590MOL0     H79599   2.977   3.379   5.527  1.2572 -0.6958  0.6752
  590MOL0     H79600   2.897   3.318   5.374 -1.0656  0.8292  1.5435
  590MOL0     H79601   2.900   3.045   5.344 -0.2326 -0.6045  0.0462
  590MOL0     H79602   2.685   2.856   5.579  1.2943 -1.0689  1.5615
  590MOL0     H79603   2.774   2.844   5.430  1.1929  0.7317  0.0425
  590MOL0     H79604   2.965   2.735   5.532 -1.3041 -0.4485 -2.1222
  590MOL0     H79605   2.922   2.782   5.695  2.4091 -0.0252 -1.6739
  590MOL0     H79606   2.771   2.594   5.508  0.2065 -0.1873 -0.6771
  590MOL0     H79607   2.715   2.626   5.676  0.4189 -1.9235 -0.0567
  590MOL0     H79608   2.941   2.465   5.558 -2.9221  0.5766 -0.7427
  590MOL0     H79609   2.833   2.429   5.699 -2.3910  1.4632  0.5922
  590MOL0     H79610   3.208   2.652   5.756 -2.7505 -0.2593  1.2622
  590MOL0     H79611   3.422   2.548   5.773 -1.6762  1.5512  0.5474
  590MOL0     H79612   3.741   2.519   5.815 -1.3907 -0.8097  1.2752
  590MOL0     H79613   3.979   2.495   5.884 -1.7567  0.8394  0.0826
  590MOL0     H79614   4.314   2.201   5.811 -0.3786  3.4554  1.2121
  590MOL0     H79615   4.186   2.120   5.719 -1.0670 -0.4345 -0.3739
  590MOL0     H79616   4.337   2.377   5.639  2.3947 -0.8689  1.2174
  590MOL0     H79617   4.381   2.208   5.603  1.0181  2.1131 -1.4620
  590MOL0     H79618   4.151   2.181   5.479 -1.2627  1.3012 -3.5127
  590MOL0     H79619   4.123   2.348   5.521  1.8422  2.3927 -0.5186
  590MOL0     H79620   4.315   2.411   5.381  0.9489  0.2565 -1.6143
  590MOL0     H79621   4.185   2.335   5.294  1.0814  1.7321 -1.3692
  590MOL0     H79622   4.300   2.110   5.332  1.0133 -0.1566  0.1038
  590MOL0     H79623   4.451   2.201   5.397  2.3160  0.5145 -1.7147
  590MOL0     H79624   4.322   2.185   5.128  0.4152  0.4766  0.0118
  590MOL0     H79625   4.451   2.301   5.168 -0.1410  0.8272  2.4093
  590MOL0     H79626   4.509   2.049   5.044  1.6155 -2.2348 -0.0353
  590MOL0     H79627   4.483   1.989   5.200 -1.3481 -0.9946 -3.4922
  590MOL0     H79628   4.674   2.227   5.150  2.8544 -0.5703  0.5507
  590MOL0     H79629   4.664   2.115   5.292 -1.6679 -3.1681 -0.0705
  590MOL0     H79630   3.968   2.086   5.722 -0.1739 -0.1893 -1.6894
  590MOL0     H79631   3.723   2.123   5.681  0.3738 -0.9060  0.4359
  590MOL0     H79632   3.243   2.163   5.715  2.5433  0.3645 -1.6842
  590MOL0     H79633   3.030   2.278   5.702  1.0489 -0.3796 -2.0836
  590MOL0     H79634   4.049   3.597   5.467 -0.1411 -0.1656  2.8950
  590MOL0     H79635   4.269   3.597   5.368 -3.2367  1.9053 -0.0613
  590MOL0     H79636   4.658   3.380   5.324  0.3152 -1.7185  0.3894
  590MOL0     H79637   4.897   3.335   5.266  0.1848 -1.0982 -0.3674
  590MOL0     H79638   5.129   3.375   4.938 -0.2658  0.4629 -0.1263
  590MOL0     H79639   4.973   3.378   4.867 -0.5662 -1.1200  0.3368
  590MOL0     H79640   5.119   3.240   4.741  0.2587  2.4147  1.1811
  590MOL0     H79641   4.989   3.137   4.810  0.8181 -1.1195 -1.4171
  590MOL0     H79642   5.134   3.058   4.982  0.2572  1.4605  1.4881
  590MOL0     H79643   5.266   3.172   4.917 -0.3238 -0.1683 -1.1037
  590MOL0     H79644   5.163   2.931   4.744 -2.1672  0.7240  0.6689
  590MOL0     H79645   5.292   3.053   4.713 -1.4492 -0.1856 -1.1856
  590MOL0     H79646   5.481   2.787   4.979  1.5087  1.8489  1.6236
  590MOL0     H79647   4.792   3.223   4.871 -2.7250  0.9735 -1.9226
  590MOL0     H79648   4.468   3.364   4.856 -0.9403 -0.0822  2.6012
  590MOL0     H79649   4.600   3.262   4.792 -0.2697 -0.6433  0.1794
  590MOL0     H79650   4.479   3.185   4.890 -0.3795  0.0592  0.9707
  591MOL0     O79651   3.373   9.040   3.865  0.1626  0.1650 -0.3383
  591MOL0     C79652   3.338   8.967   3.962 -0.2408 -0.2847  0.0786
  591MOL0     O79653   3.423   8.893   4.040  0.1560 -0.2004  0.2275
  591MOL0     C79654   3.558   8.932   4.050  0.6245 -0.1328 -0.4718
  591MOL0     C79655   3.659   8.880   3.969  0.4268 -0.0396  0.8043
  591MOL0     C79656   3.791   8.923   3.974  0.5037  0.7491 -0.7206
  591MOL0     C79657   3.830   9.017   4.066 -0.4898  0.7134  0.1968
  591MOL0     O79658   3.965   9.060   4.075  0.6679 -0.0275 -0.4323
  591MOL0     C79659   4.024   9.084   3.939  0.0140 -0.5816 -0.9645
  591MOL0     C79660   4.155   9.011   3.909  0.9559  0.0118 -0.5066
  591MOL0     C79661   4.220   9.054   3.785 -0.6639 -0.1158  0.0313
  591MOL0     C79662   4.354   8.984   3.774 -0.0723 -0.0567 -1.0571
  591MOL0     C79663   4.409   9.004   3.631  0.1782 -0.8753  0.4728
  591MOL0     C79664   4.378   8.901   3.523  0.0845 -0.1559 -0.2959
  591MOL0     C79665   4.449   8.772   3.558  0.5121  0.9291 -0.0705
  591MOL0     C79666   4.418   8.658   3.455  0.3824 -0.7602 -0.9050
  591MOL0     N79667   4.516   8.663   3.346  0.1995  0.1095  0.0887
  591MOL0     C79668   4.651   8.667   3.345  0.3590 -0.0758  0.0795
  591MOL0     C79669   4.693   8.653   3.216  1.2882  0.4837  0.0587
  591MOL0     C79670   4.829   8.670   3.163  0.5678  0.1998 -0.1666
  591MOL0     C79671   4.817   8.781   3.060 -0.3870  0.0901 -1.0631
  591MOL0     C79672   4.948   8.833   2.995 -1.1809 -0.4631 -0.5686
  591MOL0     C79673   5.050   8.924   3.077  0.4002 -0.1101 -0.4558
  591MOL0     O79674   4.994   9.043   3.142 -0.9514 -0.7062  0.1066
  591MOL0     C79675   5.076   9.149   3.182 -0.3491 -0.3709 -0.1641
  591MOL0     C79676   5.023   9.272   3.207  0.1811 -0.0996 -0.1701
  591MOL0     C79677   5.105   9.383   3.235 -0.1292  0.2921  0.6451
  591MOL0     C79678   5.246   9.375   3.254  1.2921 -0.2152  0.3579
  591MOL0     C79679   5.329   9.485   3.296  0.7069  0.0608 -0.0805
  591MOL0     O79680   5.455   9.471   3.250  0.5111 -0.0657 -0.6091
  591MOL0     C79681   5.560   9.552   3.288 -0.2389 -0.0368 -0.2697
  591MOL0     C79682   5.689   9.498   3.257 -0.9299 -0.1167  0.1329
  591MOL0     C79683   5.804   9.572   3.273  0.8207 -0.0726  1.0432
  591MOL0     C79684   5.798   9.684   3.342  0.5169 -0.0753  0.5453
  591MOL0     O79685   5.905   9.768   3.366  0.6500  0.4309  0.1171
  591MOL0     C79686   6.020   9.768   3.278  0.1783 -0.4707  0.3876
  591MOL0     C79687   6.118   9.883   3.305  0.2954  0.0351  0.6696
  591MOL0     C79688   6.214   9.858   3.417  0.0174  0.0370  1.2248
  591MOL0     C79689   6.154   9.790   3.547  1.0233  0.1675  0.1918
  591MOL0     C79690   6.269   9.768   3.650  0.1739 -0.0526 -0.1147
  591MOL0     C79691   6.222   9.748   3.795  0.0313  0.2411  0.3021
  591MOL0     C79692   6.301   9.639   3.864  0.6147  0.2285 -0.0487
  591MOL0     C79693   6.449   9.662   3.864  0.1959  0.2359  0.3455
  591MOL0    Cl79694   6.495   9.602   4.028 -0.2845 -0.5336 -0.0465
  591MOL0     C79695   5.676   9.733   3.392 -1.1883 -0.0234  0.0688
  591MOL0     C79696   5.559   9.676   3.361 -0.5223 -0.3596 -0.0309
  591MOL0     O79697   5.290   9.580   3.353 -0.1680 -0.0142 -0.5244
  591MOL0     C79698   5.294   9.245   3.234 -0.4646  0.1033  0.1151
  591MOL0     C79699   5.219   9.137   3.183  0.5392  0.4407  0.8937
  591MOL0     N79700   4.577   8.635   3.136  0.3464  0.2838  0.0964
  591MOL0     N79701   4.470   8.644   3.213 -0.3551  0.4839  0.6915
  591MOL0     C79702   3.736   9.072   4.154 -0.2589  0.1421 -0.3442
  591MOL0     C79703   3.600   9.027   4.149 -0.5599 -0.6144  1.4284
  591MOL0     C79704   3.193   8.965   3.997 -0.7708  0.3490  0.8965
  591MOL0     C79705   3.126   9.093   3.981  0.2241  1.0529  0.3917
  591MOL0     C79706   3.000   9.114   4.021 -1.0148 -0.5057  1.1150
  591MOL0     C79707   2.911   9.010   4.053  0.6599 -0.8926  0.0348
  591MOL0     O79708   2.774   9.018   4.079  0.6323 -0.8197 -0.0393
  591MOL0     C79709   2.693   9.127   4.028  0.0507 -0.1094  0.5297
  591MOL0     C79710   2.688   9.238   4.134  0.9218  0.6853 -0.0798
  591MOL0     C79711   2.604   9.187   4.258 -0.1292 -0.5620 -1.0130
  591MOL0     C79712   2.586   9.306   4.359  0.2260  0.3302 -0.0950
  591MOL0     C79713   2.502   9.262   4.475  0.0689 -0.2786  0.1460
  591MOL0     C79714   2.436   9.240   4.572  0.1604  0.3443 -0.3255
  591MOL0     C79715   2.974   8.885   4.063 -0.4980  0.2688 -0.0945
  591MOL0     C79716   3.113   8.858   4.044  0.9153 -0.3413 -0.4324
  591MOL0     C79717   3.173   8.729   4.096 -0.3739  0.1910  0.1893
  591MOL0     H79718   3.622   8.806   3.899 -1.4616  1.9645 -0.4215
  591MOL0     H79719   3.858   8.865   3.912 -0.4078 -0.3013 -0.7472
  591MOL0     H79720   3.954   9.067   3.858  4.1582  0.1016 -5.1123
  591MOL0     H79721   4.049   9.191   3.936  0.0813 -0.5816 -0.4977
  591MOL0     H79722   4.129   8.906   3.899  0.1503  0.3248 -1.8895
  591MOL0     H79723   4.219   9.015   3.998 -0.8054 -0.7462  0.8324
  591MOL0     H79724   4.237   9.162   3.776  1.2837 -0.5056 -1.8991
  591MOL0     H79725   4.160   9.007   3.706  0.6414 -1.8786  0.0320
  591MOL0     H79726   4.429   9.019   3.845  2.0008 -3.2374 -1.4911
  591MOL0     H79727   4.339   8.879   3.802 -1.7704  1.1047  3.1583
  591MOL0     H79728   4.362   9.093   3.587 -0.2173 -2.0066 -1.5063
  591MOL0     H79729   4.516   9.025   3.629  0.5996 -2.7781 -1.7283
  591MOL0     H79730   4.270   8.890   3.534  0.0902  0.9729  1.2000
  591MOL0     H79731   4.402   8.938   3.423  0.0048  0.4269 -0.1000
  591MOL0     H79732   4.401   8.735   3.649 -2.6477 -0.5699 -2.1698
  591MOL0     H79733   4.553   8.791   3.589 -0.4354  2.9816  2.2289
  591MOL0     H79734   4.429   8.567   3.515 -0.4334  1.0332  2.1555
  591MOL0     H79735   4.317   8.665   3.415 -1.2187 -1.2931  2.6449
  591MOL0     H79736   4.712   8.668   3.434  2.2881 -3.0777 -1.0766
  591MOL0     H79737   4.897   8.686   3.247  1.9573  2.3853 -1.5814
  591MOL0     H79738   4.869   8.584   3.110  1.5716  0.3489  0.3209
  591MOL0     H79739   4.743   8.755   2.984 -0.1095  2.5402 -2.2869
  591MOL0     H79740   4.774   8.869   3.108  0.1749 -0.8965  1.3965
  591MOL0     H79741   4.902   8.891   2.915 -2.5491  3.2250  2.5567
  591MOL0     H79742   4.998   8.753   2.941  0.4585 -2.0753  2.9910
  591MOL0     H79743   5.119   8.967   3.004 -1.0934  0.9300 -1.3122
  591MOL0     H79744   5.107   8.874   3.156 -0.4236 -0.2516  0.0607
  591MOL0     H79745   4.919   9.296   3.186 -0.2398  0.0959  1.9433
  591MOL0     H79746   5.063   9.483   3.229  0.0863  0.3298 -3.1034
  591MOL0     H79747   5.701   9.402   3.208  3.5251  0.5741 -0.5697
  591MOL0     H79748   5.898   9.531   3.236  1.5373 -0.1588  2.8354
  591MOL0     H79749   6.083   9.678   3.286  0.8639  0.0072  0.4098
  591MOL0     H79750   5.985   9.784   3.176 -2.1443  1.7877  1.4264
  591MOL0     H79751   6.177   9.891   3.213 -1.8600  4.8409 -0.6251
  591MOL0     H79752   6.068   9.980   3.313  0.1808  0.1562 -1.1065
  591MOL0     H79753   6.301   9.803   3.380 -0.3810  1.1819 -1.6617
  591MOL0     H79754   6.248   9.954   3.459  0.5217  0.6648 -0.5294
  591MOL0     H79755   6.109   9.691   3.537 -0.5908  0.7180  1.5827
  591MOL0     H79756   6.086   9.861   3.595  0.9803 -1.7842  3.2601
  591MOL0     H79757   6.330   9.858   3.639  1.0879  0.0412  4.2066
  591MOL0     H79758   6.336   9.686   3.624  0.7600 -0.2176  1.8201
  591MOL0     H79759   6.238   9.843   3.846  0.6165  0.5472 -0.4228
  591MOL0     H79760   6.116   9.719   3.799  0.4498 -1.5124 -0.5238
  591MOL0     H79761   6.283   9.541   3.818  0.5541 -0.1799  0.8305
  591MOL0     H79762   6.264   9.641   3.967 -1.9509  0.0685 -0.8910
  591MOL0     H79763   6.496   9.606   3.782 -0.7066  0.0198 -0.0428
  591MOL0     H79764   6.483   9.765   3.852  0.4205  0.5706  3.2654
  591MOL0     H79765   5.680   9.834   3.433 -0.9150 -0.2344  0.5618
  591MOL0     H79766   5.466   9.723   3.392  0.2012  0.7391  0.5317
  591MOL0     H79767   5.397   9.225   3.259  0.1443  3.3263  0.5412
  591MOL0     H79768   5.274   9.049   3.150 -1.3574 -0.2748 -0.5515
  591MOL0     H79769   3.764   9.138   4.235  0.7587 -0.1687 -0.4333
  591MOL0     H79770   3.529   9.092   4.200 -0.5692  2.7132 -2.3448
  591MOL0     H79771   3.186   9.175   3.942  3.2617 -1.5613 -0.9372
  591MOL0     H79772   2.957   9.213   4.009  1.1982  0.3722 -0.2270
  591MOL0     H79773   2.592   9.089   4.009  0.7645 -2.2903  0.7785
  591MOL0     H79774   2.728   9.156   3.929 -2.8299  0.7778 -0.3065
  591MOL0     H79775   2.633   9.322   4.090 -2.6904 -1.6325 -0.4913
  591MOL0     H79776   2.784   9.276   4.168  2.3889 -2.4986 -0.3745
  591MOL0     H79777   2.659   9.107   4.308 -0.6135 -0.3793 -0.1848
  591MOL0     H79778   2.513   9.152   4.210 -0.3791 -1.2851 -0.0325
  591MOL0     H79779   2.685   9.318   4.403 -0.7546 -1.5548  2.9572
  591MOL0     H79780   2.553   9.398   4.310  5.1868  3.1110  1.1021
  591MOL0     H79781   2.387   9.212   4.663  2.0935 -2.0479  0.0815
  591MOL0     H79782   2.920   8.794   4.088  0.2478  0.6230  3.2563
  591MOL0     H79783   3.270   8.754   4.140 -0.8030  2.4821 -0.0496
  591MOL0     H79784   3.102   8.685   4.167 -0.3746 -0.6853 -0.3418
  591MOL0     H79785   3.191   8.654   4.018  4.1375 -0.0159  1.1360
  592MOL0     O79786   9.869  11.111   7.208  1.3295 -0.4558 -0.7371
  592MOL0     C79787   9.814  11.030   7.277  0.2231 -0.3522  1.6741
  592MOL0     O79788   9.881  10.934   7.353  0.7464 -0.1086  0.4004
  592MOL0     C79789  10.015  10.939   7.366 -0.7857 -0.8148  0.2701
  592MOL0     C79790  10.100  11.057   7.362  0.0794  1.0399 -0.8982
  592MOL0     C79791  10.239  11.039   7.374 -0.5779  0.6403  0.1843
  592MOL0     C79792  10.305  10.911   7.382  0.0016 -0.4992 -0.4147
  592MOL0     O79793  10.440  10.909   7.386  0.4104  0.7139 -0.1165
  592MOL0     C79794  10.503  10.780   7.382  0.1769  0.2620  0.0502
  592MOL0     C79795  10.656  10.792   7.374  0.1472  0.1647  1.2772
  592MOL0     C79796  10.728  10.668   7.431 -0.1553 -0.4700  0.6494
  592MOL0     C79797  10.884  10.679   7.404  0.1627  0.0096  0.5577
  592MOL0     C79798  10.968  10.555   7.434 -0.6028  0.1914 -0.3284
  592MOL0     C79799  10.932  10.494   7.566 -0.9562 -0.4225 -0.1952
  592MOL0     C79800  11.039  10.403   7.621  0.6813 -0.1613  0.1919
  592MOL0     C79801  11.164  10.471   7.683  0.6389 -0.5923 -0.4466
  592MOL0     N79802  11.128  10.531   7.816  0.3492  0.4570  0.1928
  592MOL0     C79803  11.064  10.463   7.917 -0.6607  0.6485  0.1699
  592MOL0     C79804  11.030  10.561   7.999 -0.5453  1.0775  0.3297
  592MOL0     C79805  10.948  10.535   8.122  0.2092  0.1796  0.3208
  592MOL0     C79806  11.014  10.596   8.252 -0.7795  0.3392 -0.6671
  592MOL0     C79807  10.917  10.619   8.377 -0.3740 -0.0186 -0.9605
  592MOL0     C79808  10.864  10.491   8.454  0.2058  0.2348  0.6290
  592MOL0     O79809  10.961  10.382   8.463  0.2284 -0.5784  0.2544
  592MOL0     C79810  11.079  10.401   8.531 -0.5573 -0.4714 -0.2924
  592MOL0     C79811  11.117  10.515   8.613  0.6142  0.0008  1.3286
  592MOL0     C79812  11.241  10.532   8.671 -0.1727  0.0274  1.0618
  592MOL0     C79813  11.343  10.441   8.648  0.3212 -0.1165  0.2398
  592MOL0     C79814  11.459  10.448   8.734  0.4299 -0.2181 -0.8289
  592MOL0     O79815  11.503  10.569   8.775 -0.0339 -0.2156 -0.0527
  592MOL0     C79816  11.625  10.579   8.843 -0.3550  0.6976  0.0783
  592MOL0     C79817  11.752  10.531   8.798  0.0547  0.9077 -0.8820
  592MOL0     C79818  11.867  10.545   8.889  1.0706 -0.4770  0.0879
  592MOL0     C79819  11.867  10.607   9.011 -0.1117  0.4846 -0.3094
  592MOL0     O79820  11.982  10.616   9.078 -0.1336  0.2622  0.3754
  592MOL0     C79821  11.968  10.655   9.216 -1.0985 -0.1104 -0.7406
  592MOL0     C79822  12.107  10.633   9.278 -0.5311  0.1805  0.0555
  592MOL0     C79823  12.203  10.751   9.234  0.9540 -0.1601 -0.4727
  592MOL0     C79824  12.332  10.733   9.321  0.2963  0.0955  0.9079
  592MOL0     C79825  12.428  10.852   9.320  0.3205  0.0763  0.6718
  592MOL0     C79826  12.414  10.936   9.449 -0.1164  0.4689  0.1264
  592MOL0     C79827  12.504  11.064   9.450  0.0462  0.4581  0.9756
  592MOL0     C79828  12.483  11.129   9.587  0.2323 -0.1532  0.2014
  592MOL0    Cl79829  12.318  11.211   9.589 -0.0125  0.1718 -0.2082
  592MOL0     C79830  11.741  10.663   9.048 -0.3575  0.2832  0.1105
  592MOL0     C79831  11.625  10.648   8.962  0.2641 -0.3705  0.1849
  592MOL0     O79832  11.514  10.345   8.767 -0.7621  0.0975  0.0857
  592MOL0     C79833  11.318  10.338   8.564  0.3185  0.2454 -0.2608
  592MOL0     C79834  11.190  10.317   8.508 -0.2431  0.3074 -0.0259
  592MOL0     N79835  11.078  10.684   7.956 -0.5313 -0.1693 -0.2049
  592MOL0     N79836  11.134  10.668   7.843 -0.9871  0.5532  0.3943
  592MOL0     C79837  10.222  10.802   7.389  0.4161  0.3765  0.8691
  592MOL0     C79838  10.079  10.821   7.390  0.3767 -0.0970 -0.3644
  592MOL0     C79839   9.662  11.031   7.275  0.4306  0.4420  0.6289
  592MOL0     C79840   9.598  10.908   7.277 -0.3614 -0.3303 -0.0963
  592MOL0     C79841   9.455  10.909   7.281 -0.0893 -0.2919  0.1815
  592MOL0     C79842   9.380  11.029   7.275  0.1095  0.4033 -0.0683
  592MOL0     O79843   9.246  11.033   7.282  0.3334 -0.6060 -0.4252
  592MOL0     C79844   9.159  10.907   7.277 -0.6289 -0.7862 -0.0807
  592MOL0     C79845   9.135  10.847   7.420 -0.4250  0.6305  0.9065
  592MOL0     C79846   9.049  10.720   7.411 -0.5494 -0.2481  0.2479
  592MOL0     C79847   9.084  10.623   7.533  0.7583 -0.3044  0.1767
  592MOL0     C79848   9.067  10.682   7.671 -0.3906  0.9342  0.4159
  592MOL0     C79849   9.058  10.720   7.791  0.0912 -0.6411  1.0702
  592MOL0     C79850   9.449  11.149   7.274  0.3817 -0.0364  0.3587
  592MOL0     C79851   9.582  11.155   7.277 -0.2120  0.8706  0.0376
  592MOL0     C79852   9.644  11.299   7.272  0.5607 -1.2627  0.4295
  592MOL0     H79853  10.050  11.152   7.345  1.3038  1.9303  0.3362
  592MOL0     H79854  10.312  11.119   7.380  0.3475 -0.1595 -0.1553
  592MOL0     H79855  10.460  10.718   7.461 -6.0916  3.0247 -0.6020
  592MOL0     H79856  10.470  10.730   7.291  2.4896 -0.0088 -0.7149
  592MOL0     H79857  10.688  10.885   7.422  1.3996  1.5460 -1.9383
  592MOL0     H79858  10.669  10.807   7.266 -1.9688  0.3036  1.0145
  592MOL0     H79859  10.690  10.573   7.393  1.0166 -0.9360  0.6032
  592MOL0     H79860  10.701  10.673   7.537 -1.7990  1.8776  0.2057
  592MOL0     H79861  10.888  10.694   7.296  1.3312 -0.1918  0.5523
  592MOL0     H79862  10.909  10.774   7.453 -3.0083  1.3807 -0.2592
  592MOL0     H79863  10.955  10.488   7.348  0.5203  2.0949 -2.0854
  592MOL0     H79864  11.074  10.582   7.436 -0.3641 -0.6526 -1.0601
  592MOL0     H79865  10.916  10.577   7.636 -0.0612  1.3270 -1.9595
  592MOL0     H79866  10.840  10.436   7.554 -0.7460 -0.6978 -0.5314
  592MOL0     H79867  11.066  10.338   7.537  0.0881  2.0380 -1.8192
  592MOL0     H79868  11.000  10.339   7.701  2.9351 -0.8568  0.8201
  592MOL0     H79869  11.243  10.399   7.706  0.0444 -1.2953 -0.5675
  592MOL0     H79870  11.205  10.546   7.616 -2.7385  0.7300 -1.2291
  592MOL0     H79871  11.047  10.356   7.910  0.0621  0.6481 -3.1906
  592MOL0     H79872  10.853  10.589   8.114 -0.5284 -1.0617  0.4780
  592MOL0     H79873  10.927  10.429   8.133 -4.7889  0.5467 -2.5003
  592MOL0     H79874  11.102  10.541   8.285  0.1704  1.7785 -0.7116
  592MOL0     H79875  11.053  10.695   8.227  1.5060  0.5800  3.1344
  592MOL0     H79876  10.831  10.670   8.335 -1.3886 -0.8439  0.0548
  592MOL0     H79877  10.964  10.684   8.451 -0.1337 -0.1193 -1.0228
  592MOL0     H79878  10.781  10.444   8.400  1.1279  0.1086 -0.7457
  592MOL0     H79879  10.841  10.521   8.556  3.8992 -0.7798  1.9250
  592MOL0     H79880  11.038  10.580   8.650 -0.4270  0.6506 -1.6954
  592MOL0     H79881  11.253  10.625   8.726 -3.9482  0.2078  1.8384
  592MOL0     H79882  11.765  10.479   8.704 -0.5857  0.3207 -0.6595
  592MOL0     H79883  11.950  10.483   8.857  0.0530 -1.2849 -1.0798
  592MOL0     H79884  11.938  10.760   9.219  1.5051  0.6862 -0.6490
  592MOL0     H79885  11.889  10.601   9.270 -0.9377  0.4803  0.0883
  592MOL0     H79886  12.104  10.617   9.386  0.7333  1.5330  0.3253
  592MOL0     H79887  12.145  10.535   9.249 -1.5923 -0.1851 -0.1398
  592MOL0     H79888  12.212  10.759   9.126 -0.6283  2.1677 -0.4962
  592MOL0     H79889  12.152  10.844   9.262 -3.6483 -2.7639  0.7973
  592MOL0     H79890  12.369  10.636   9.286  0.3542 -0.0262  1.3032
  592MOL0     H79891  12.306  10.710   9.425  2.0622  2.4998  1.9692
  592MOL0     H79892  12.410  10.909   9.228 -2.0064  0.4732  1.3077
  592MOL0     H79893  12.533  10.823   9.315  0.7817  1.7068  0.2264
  592MOL0     H79894  12.309  10.955   9.471 -0.6467 -2.2585  0.3136
  592MOL0     H79895  12.461  10.875   9.527  0.3915  0.0833 -0.4681
  592MOL0     H79896  12.452  11.127   9.377 -3.4747  1.5770  4.1366
  592MOL0     H79897  12.611  11.046   9.435  0.0141 -0.8666  2.0866
  592MOL0     H79898  12.498  11.061   9.672 -0.5802 -0.8730 -0.2101
  592MOL0     H79899  12.553  11.211   9.604  0.8980 -0.0276 -2.5669
  592MOL0     H79900  11.740  10.742   9.122 -1.1520  0.3911 -0.0102
  592MOL0     H79901  11.539  10.711   8.983  0.8316  0.5251 -0.1476
  592MOL0     H79902  11.391  10.260   8.547  1.5463  0.8069  1.9925
  592MOL0     H79903  11.167  10.224   8.457  2.1938 -1.8759  2.5325
  592MOL0     H79904  10.256  10.700   7.400 -2.9722 -1.3017 -2.1199
  592MOL0     H79905  10.008  10.739   7.395  0.5036 -0.3307 -1.9355
  592MOL0     H79906   9.649  10.815   7.301 -0.8346  0.0332  2.5796
  592MOL0     H79907   9.403  10.815   7.288  0.2538 -0.4385  0.7927
  592MOL0     H79908   9.189  10.828   7.208 -1.9434 -0.2676 -1.3050
  592MOL0     H79909   9.066  10.949   7.236 -0.6524 -1.1396 -0.3900
  592MOL0     H79910   9.094  10.925   7.483  2.0419  1.0183  2.1738
  592MOL0     H79911   9.233  10.822   7.463 -1.2140  1.6799  3.4875
  592MOL0     H79912   9.079  10.674   7.317  2.6175  2.2331 -0.1234
  592MOL0     H79913   8.944  10.750   7.404 -0.6725 -0.3467  1.4138
  592MOL0     H79914   9.013  10.540   7.526 -2.3396  2.2628 -1.2981
  592MOL0     H79915   9.185  10.587   7.512  0.5355  0.3913 -2.4715
  592MOL0     H79916   9.060  10.746   7.896  1.0803  0.1182  0.8817
  592MOL0     H79917   9.384  11.237   7.271 -2.9937 -2.3531 -1.3300
  592MOL0     H79918   9.573  11.367   7.321  2.0261 -0.9928  2.2902
  592MOL0     H79919   9.739  11.294   7.325 -0.3951 -1.1456  2.2603
  592MOL0     H79920   9.648  11.330   7.168 -0.8130  0.1394  0.7614
  593MOL0     O79921   8.396   2.146   8.021  0.6573  0.6623 -0.4391
  593MOL0     C79922   8.383   2.142   7.902  0.1129 -0.3364 -0.2717
  593MOL0     O79923   8.474   2.186   7.811 -0.3970  1.4315  0.2840
  593MOL0     C79924   8.604   2.237   7.839  0.9715  0.0351 -1.0118
  593MOL0     C79925   8.678   2.241   7.963 -0.3919  0.8790  0.2447
  593MOL0     C79926   8.804   2.304   7.974  0.1691  0.2793 -0.5385
  593MOL0     C79927   8.859   2.360   7.860 -0.6947 -0.5675 -0.1541
  593MOL0     O79928   8.989   2.414   7.880  0.9096 -0.1985 -0.1386
  593MOL0     C79929   9.096   2.341   7.826 -0.3115 -0.6253 -0.7547
  593MOL0     C79930   9.142   2.405   7.696 -0.3590 -0.6361 -0.2684
  593MOL0     C79931   9.203   2.549   7.724 -0.3060  0.8027 -0.3006
  593MOL0     C79932   9.242   2.623   7.602 -0.8074  0.8855 -0.2339
  593MOL0     C79933   9.307   2.757   7.619  0.0847 -0.1292 -0.2040
  593MOL0     C79934   9.411   2.757   7.739  0.5419  0.7135 -0.1560
  593MOL0     C79935   9.465   2.903   7.755 -0.6611  0.3479  0.1664
  593MOL0     C79936   9.543   2.916   7.896 -0.2916  0.2650  0.2768
  593MOL0     N79937   9.619   3.037   7.901  0.7374  0.2806 -0.0852
  593MOL0     C79938   9.717   3.072   7.991 -0.9136 -0.2902  0.2854
  593MOL0     C79939   9.762   3.197   7.958  0.7571 -0.8288  0.6596
  593MOL0     C79940   9.857   3.279   8.042 -0.6227 -0.0106 -0.7389
  593MOL0     C79941   9.998   3.220   8.045 -0.2887  0.3986  0.3583
  593MOL0     C79942  10.091   3.319   8.124  0.4753 -0.2736 -0.5122
  593MOL0     C79943  10.235   3.269   8.110  0.0277 -0.1093  0.2190
  593MOL0     O79944  10.280   3.211   8.232  0.5862 -0.0824  0.2064
  593MOL0     C79945  10.322   3.283   8.340  0.0724 -0.0365 -0.0403
  593MOL0     C79946  10.334   3.218   8.463 -0.1703  0.1303  0.4463
  593MOL0     C79947  10.383   3.282   8.569 -0.3517  0.2136 -0.1125
  593MOL0     C79948  10.415   3.420   8.568  0.0903 -0.4617 -0.1510
  593MOL0     C79949  10.468   3.491   8.684 -0.1181 -0.2052  0.2160
  593MOL0     O79950  10.517   3.615   8.662  0.2332 -0.3747  0.2204
  593MOL0     C79951  10.600   3.671   8.759  0.6094 -0.3045 -0.3483
  593MOL0     C79952  10.548   3.716   8.887 -0.8778  0.5738  0.0892
  593MOL0     C79953  10.634   3.781   8.967 -0.3599 -0.7664 -0.0126
  593MOL0     C79954  10.764   3.817   8.946 -0.3798 -0.3233 -0.3895
  593MOL0     O79955  10.821   3.879   9.057  0.5778 -0.0137 -0.3146
  593MOL0     C79956  10.960   3.869   9.065  0.3169  0.0323 -0.3137
  593MOL0     C79957  11.002   3.923   9.206  0.5862 -1.2968 -0.9262
  593MOL0     C79958  11.147   3.901   9.248  0.0473  0.0655  0.2525
  593MOL0     C79959  11.261   3.980   9.172 -0.2921 -0.1371  0.2105
  593MOL0     C79960  11.405   3.923   9.205  0.3433 -1.2795 -0.0457
  593MOL0     C79961  11.528   3.993   9.143  0.5020 -0.2493  0.7292
  593MOL0     C79962  11.528   4.141   9.198  0.9286 -0.6280  0.2704
  593MOL0     C79963  11.645   4.226   9.139  0.9167 -0.2274 -0.7226
  593MOL0    Cl79964  11.795   4.160   9.213 -0.0466 -0.2053  0.2930
  593MOL0     C79965  10.813   3.765   8.824  0.2608  0.5313  0.3061
  593MOL0     C79966  10.739   3.696   8.734  0.7515  0.7764  0.2469
  593MOL0     O79967  10.459   3.437   8.788 -0.3306 -0.3240  0.1511
  593MOL0     C79968  10.404   3.489   8.450 -0.6466 -0.7946  0.8288
  593MOL0     C79969  10.360   3.419   8.332 -0.2450 -0.2171 -1.0193
  593MOL0     N79970   9.683   3.243   7.855  0.3222 -0.0460  0.2250
  593MOL0     N79971   9.602   3.149   7.818  0.3353 -0.3593  0.0822
  593MOL0     C79972   8.794   2.363   7.732  0.4924  0.5525  0.4947
  593MOL0     C79973   8.664   2.306   7.728 -0.2923  0.7901  0.1864
  593MOL0     C79974   8.255   2.102   7.840 -0.0720  0.9734  1.0750
  593MOL0     C79975   8.238   2.115   7.699 -0.1048 -0.1328 -0.5013
  593MOL0     C79976   8.123   2.071   7.637 -0.9644  0.2149  0.1580
  593MOL0     C79977   8.030   1.987   7.698 -0.3349 -0.0292  0.5979
  593MOL0     O79978   7.941   1.926   7.614  0.3771  0.6071 -0.7134
  593MOL0     C79979   7.809   1.981   7.628 -0.1120  0.1882  0.3664
  593MOL0     C79980   7.706   1.874   7.607 -0.2491  0.2107  0.3154
  593MOL0     C79981   7.713   1.769   7.713  1.3123  0.5926 -0.2806
  593MOL0     C79982   7.632   1.648   7.677  0.9711  0.5396  0.3525
  593MOL0     C79983   7.494   1.648   7.730  1.2410  0.6279 -0.0883
  593MOL0     C79984   7.378   1.646   7.768  0.0213  0.3095  0.2883
  593MOL0     C79985   8.055   1.953   7.832  0.5397 -0.6866  0.5823
  593MOL0     C79986   8.159   2.015   7.905 -0.3113  0.5884 -0.5992
  593MOL0     C79987   8.162   1.986   8.055  0.7739  0.6070  0.5804
  593MOL0     H79988   8.647   2.194   8.056 -1.0137  1.2117  0.2114
  593MOL0     H79989   8.852   2.295   8.072  0.7968  3.2206 -0.5005
  593MOL0     H79990   9.178   2.336   7.899  0.5837  1.5743 -1.5345
  593MOL0     H79991   9.053   2.241   7.815 -0.4216 -0.4545 -2.0376
  593MOL0     H79992   9.063   2.401   7.621  0.1630 -3.8129 -0.7645
  593MOL0     H79993   9.238   2.361   7.665  0.3489  0.9214 -0.3878
  593MOL0     H79994   9.303   2.529   7.763 -1.3391 -4.0118  0.4820
  593MOL0     H79995   9.137   2.599   7.796 -1.6709 -1.4105  0.0742
  593MOL0     H79996   9.320   2.564   7.553 -1.3324 -0.2527  0.2827
  593MOL0     H79997   9.151   2.616   7.542  0.7712 -0.3994 -2.6546
  593MOL0     H79998   9.371   2.779   7.533 -2.2494  0.8996 -1.7788
  593MOL0     H79999   9.231   2.834   7.638 -0.1437  0.1040 -1.9201
  593MOL0     H80000   9.362   2.728   7.833 -1.0478  0.9438 -0.8771
  593MOL0     H80001   9.505   2.706   7.717  1.1239  2.0309 -0.7879
  593MOL0     H80002   9.380   2.972   7.753 -0.7305  0.5002  3.1776
  593MOL0     H80003   9.531   2.925   7.670 -1.6788 -4.7723 -2.2869
  593MOL0     H80004   9.473   2.915   7.981 -3.5789 -0.3513 -2.2440
  593MOL0     H80005   9.612   2.831   7.900 -0.6890 -0.0566  0.3496
  593MOL0     H80006   9.758   3.019   8.075  0.7113  0.0820 -0.2450
  593MOL0     H80007   9.854   3.383   8.008 -0.2868 -0.2277 -1.4449
  593MOL0     H80008   9.824   3.274   8.147 -3.0616 -3.1141 -1.4924
  593MOL0     H80009  10.003   3.126   8.101  0.8856  1.9330  3.0164
  593MOL0     H80010  10.046   3.200   7.949 -2.3383 -0.7387 -0.4857
  593MOL0     H80011  10.078   3.326   8.232  3.9469  0.6906 -0.0554
  593MOL0     H80012  10.075   3.421   8.087 -0.6788  0.4324  1.7463
  593MOL0     H80013  10.299   3.354   8.088 -1.4615  2.1698  3.7971
  593MOL0     H80014  10.239   3.194   8.030 -3.1852  0.6999 -0.8311
  593MOL0     H80015  10.316   3.112   8.448  0.8454  0.3390 -3.3590
  593MOL0     H80016  10.391   3.227   8.662 -0.3265  0.6791  0.1670
  593MOL0     H80017  10.442   3.711   8.910 -1.0955  0.1749 -0.9384
  593MOL0     H80018  10.591   3.818   9.059  1.2666 -0.7177  0.7754
  593MOL0     H80019  11.002   3.768   9.055  0.4266  0.2088 -1.8450
  593MOL0     H80020  10.998   3.933   8.985 -1.9370  1.8614 -0.0273
  593MOL0     H80021  10.971   4.026   9.225 -3.3592 -2.2725 -1.0725
  593MOL0     H80022  10.945   3.869   9.283 -1.2354  0.6607 -0.8077
  593MOL0     H80023  11.175   3.926   9.351 -2.5468  1.8366  0.6007
  593MOL0     H80024  11.173   3.796   9.233  0.3631 -0.2599  2.6597
  593MOL0     H80025  11.264   4.087   9.196  2.7239  0.0271 -0.5068
  593MOL0     H80026  11.244   3.962   9.065 -0.0036  1.4313 -0.1254
  593MOL0     H80027  11.409   3.817   9.180 -1.5581 -1.4273  0.1316
  593MOL0     H80028  11.409   3.931   9.314 -0.2673 -2.8266  0.1097
  593MOL0     H80029  11.617   3.940   9.176  0.4470 -2.2058 -1.9700
  593MOL0     H80030  11.522   3.994   9.034 -0.6649 -0.7073  0.7698
  593MOL0     H80031  11.535   4.156   9.306  1.3559  1.6906 -0.0374
  593MOL0     H80032  11.441   4.196   9.158  0.9344 -1.2950 -0.7011
  593MOL0     H80033  11.648   4.219   9.029 -3.8772  1.5150 -1.1938
  593MOL0     H80034  11.626   4.332   9.155  0.8979  0.0083 -2.1424
  593MOL0     H80035  10.917   3.794   8.815  0.0916  0.6033 -1.8234
  593MOL0     H80036  10.784   3.665   8.640 -0.1052 -3.2513  0.9819
  593MOL0     H80037  10.425   3.594   8.430  0.2670 -1.6490 -4.1887
  593MOL0     H80038  10.355   3.481   8.243  0.9837  3.2191  1.0760
  593MOL0     H80039   8.847   2.406   7.647 -1.8383  1.6430 -0.5012
  593MOL0     H80040   8.614   2.305   7.631  0.1791  0.5061 -0.0591
  593MOL0     H80041   8.314   2.176   7.653  0.4675 -1.1958 -1.0084
  593MOL0     H80042   8.130   2.099   7.533  3.9471  0.2358  0.2577
  593MOL0     H80043   7.798   2.056   7.550 -2.3883 -1.1405 -0.7157
  593MOL0     H80044   7.791   2.032   7.724 -0.3840  0.2738  0.2715
  593MOL0     H80045   7.722   1.846   7.502 -2.7339  1.7174 -0.5629
  593MOL0     H80046   7.601   1.906   7.603  0.0579  1.4800 -4.4676
  593MOL0     H80047   7.673   1.819   7.803  1.5877  2.1010 -0.9607
  593MOL0     H80048   7.817   1.737   7.723  1.3629 -0.6001 -3.5546
  593MOL0     H80049   7.615   1.645   7.569 -1.5227 -0.9041  0.7097
  593MOL0     H80050   7.689   1.556   7.696  1.1565  0.2485 -1.4067
  593MOL0     H80051   7.275   1.659   7.796  0.7160  3.9071  1.5646
  593MOL0     H80052   7.976   1.898   7.883  0.4290 -1.7596 -0.6883
  593MOL0     H80053   8.166   2.073   8.120  3.0112  3.4116 -2.9605
  593MOL0     H80054   8.078   1.918   8.074 -0.4538  0.1094 -4.8636
  593MOL0     H80055   8.258   1.939   8.078  0.5433  0.3364  1.0034
  594MOL0     O80056   6.628   8.225   8.039 -0.6629 -0.4081 -0.1107
  594MOL0     C80057   6.678   8.202   7.927 -0.3008 -0.0585 -0.7805
  594MOL0     O80058   6.803   8.240   7.887  0.3100  0.6017  0.4693
  594MOL0     C80059   6.871   8.289   7.994  0.2371  1.0520 -1.4382
  594MOL0     C80060   6.980   8.216   8.049 -0.5321  0.4972  0.0577
  594MOL0     C80061   7.070   8.260   8.147  0.9479  0.4232 -0.1950
  594MOL0     C80062   7.059   8.391   8.191  0.4358 -0.7058  0.2552
  594MOL0     O80063   7.139   8.461   8.276  0.2727  0.6541 -0.3109
  594MOL0     C80064   7.279   8.450   8.264 -0.1701  0.2172 -0.2976
  594MOL0     C80065   7.327   8.557   8.159  0.3774  0.2922 -0.2471
  594MOL0     C80066   7.301   8.694   8.209 -0.1659 -0.7011 -0.6983
  594MOL0     C80067   7.397   8.787   8.137  0.3992  0.2194  0.4144
  594MOL0     C80068   7.377   8.935   8.151 -0.6167  0.1917 -0.5148
  594MOL0     C80069   7.394   8.977   8.302  0.6152 -0.0521 -0.2543
  594MOL0     C80070   7.370   9.124   8.317 -0.7993 -1.3518  0.0595
  594MOL0     C80071   7.409   9.165   8.454  0.0024 -0.9687 -0.5285
  594MOL0     N80072   7.542   9.136   8.498  0.0912  0.5148  0.1296
  594MOL0     C80073   7.651   9.195   8.431 -0.0482 -0.9860  0.1787
  594MOL0     C80074   7.756   9.139   8.496  1.3263  0.3448  0.2224
  594MOL0     C80075   7.897   9.180   8.504  1.1828  0.1730  0.2562
  594MOL0     C80076   7.916   9.327   8.544 -0.3348  0.4437  0.4989
  594MOL0     C80077   8.053   9.354   8.610 -0.8294 -0.3582  0.3759
  594MOL0     C80078   8.048   9.490   8.685  0.7002  0.3822 -0.4325
  594MOL0     O80079   8.078   9.609   8.610  0.3171  0.4707 -0.1107
  594MOL0     C80080   8.206   9.606   8.553  0.0258 -0.3297  0.1855
  594MOL0     C80081   8.319   9.571   8.632 -0.0364  0.3579 -0.1937
  594MOL0     C80082   8.447   9.590   8.582 -0.2889 -0.3736 -0.1913
  594MOL0     C80083   8.474   9.639   8.461 -0.0933 -0.2115  0.7875
  594MOL0     C80084   8.617   9.677   8.414  0.1241  0.7861 -0.2454
  594MOL0     O80085   8.629   9.781   8.327 -0.8703  0.0241 -0.3847
  594MOL0     C80086   8.742   9.779   8.240 -0.8516  0.0372  0.1170
  594MOL0     C80087   8.819   9.660   8.206 -0.1578 -0.2854 -1.0365
  594MOL0     C80088   8.922   9.673   8.122 -0.3521  0.4553  0.6247
  594MOL0     C80089   8.949   9.792   8.058 -0.0538 -0.3390  0.8171
  594MOL0     O80090   9.056   9.784   7.971 -0.4899 -0.3866 -0.5670
  594MOL0     C80091   9.059   9.876   7.867  0.1071 -0.2120 -0.6956
  594MOL0     C80092   9.177   9.843   7.775 -0.4181  0.0841 -0.3031
  594MOL0     C80093   9.192   9.945   7.659 -0.2191  0.2740  0.5752
  594MOL0     C80094   9.322   9.921   7.586 -0.1696  0.7499  0.3560
  594MOL0     C80095   9.340  10.040   7.477 -0.5632 -0.5071  0.1361
  594MOL0     C80096   9.448  10.000   7.370 -0.0219  0.6529  0.0766
  594MOL0     C80097   9.584   9.970   7.426  0.6264  0.5188 -0.2069
  594MOL0     C80098   9.636  10.095   7.509 -0.5985 -0.5768  0.6228
  594MOL0    Cl80099   9.634  10.228   7.383  0.0902 -0.2548  0.3454
  594MOL0     C80100   8.881   9.911   8.090  0.9155  0.0382  0.7386
  594MOL0     C80101   8.776   9.899   8.186  0.1661  0.2930  1.0564
  594MOL0     O80102   8.709   9.618   8.474  0.1654  0.4378  0.9705
  594MOL0     C80103   8.365   9.669   8.377 -0.0712 -0.4547 -0.3005
  594MOL0     C80104   8.229   9.663   8.425 -0.4773  0.2894 -0.9048
  594MOL0     N80105   7.704   9.047   8.584  0.0966 -0.7174 -0.4306
  594MOL0     N80106   7.581   9.038   8.583 -0.5144  0.8945 -0.2509
  594MOL0     C80107   6.938   8.459   8.146  0.6140  0.1517  0.2887
  594MOL0     C80108   6.851   8.417   8.043  0.3571  0.2821  0.3805
  594MOL0     C80109   6.607   8.124   7.820  0.3331  0.2146  1.0179
  594MOL0     C80110   6.682   8.088   7.702 -0.0152 -0.7925  0.4299
  594MOL0     C80111   6.634   7.984   7.619 -0.8447  0.0237  0.1453
  594MOL0     C80112   6.508   7.923   7.628 -0.2615 -0.1616  0.0406
  594MOL0     O80113   6.451   7.829   7.542 -0.9199  0.0111 -0.2439
  594MOL0     C80114   6.529   7.791   7.427  0.1361  0.5257  0.2500
  594MOL0     C80115   6.451   7.685   7.347 -0.4572 -0.4924 -0.3604
  594MOL0     C80116   6.510   7.669   7.212 -0.6389  0.2781  0.2767
  594MOL0     C80117   6.464   7.772   7.103  0.3731 -0.2022  0.5820
  594MOL0     C80118   6.324   7.733   7.062 -0.1416  0.3959  0.0526
  594MOL0     C80119   6.210   7.701   7.034  0.3271 -0.2570  0.6000
  594MOL0     C80120   6.436   7.958   7.744  0.5748  0.1103  0.8230
  594MOL0     C80121   6.480   8.056   7.836  0.3772  0.9162 -0.4181
  594MOL0     C80122   6.381   8.087   7.956  0.3417  0.0025  0.3383
  594MOL0     H80123   6.995   8.122   7.995  0.0583  3.2358 -5.1973
  594MOL0     H80124   7.154   8.196   8.169  1.6886  1.2974 -0.3913
  594MOL0     H80125   7.337   8.462   8.356 -0.9304  0.6387  0.1325
  594MOL0     H80126   7.298   8.352   8.217 -1.8578 -0.3470  0.1094
  594MOL0     H80127   7.275   8.544   8.064  0.1078  0.2767 -0.1007
  594MOL0     H80128   7.435   8.549   8.143  0.8575 -1.2210  2.8864
  594MOL0     H80129   7.315   8.708   8.316 -1.2583 -1.0110 -0.4982
  594MOL0     H80130   7.199   8.726   8.184 -0.4837  0.6320  1.9280
  594MOL0     H80131   7.496   8.761   8.177  1.9338 -1.4374 -3.7560
  594MOL0     H80132   7.409   8.759   8.031  2.0787  0.9430  0.3680
  594MOL0     H80133   7.445   8.998   8.092 -1.1795  1.7695  0.4645
  594MOL0     H80134   7.277   8.956   8.111  0.0204  1.4972 -1.5213
  594MOL0     H80135   7.336   8.916   8.372  0.0197  1.3998  0.5582
  594MOL0     H80136   7.494   8.946   8.334  0.3494 -0.6627  0.0047
  594MOL0     H80137   7.268   9.154   8.292 -0.7382 -0.6257  0.6369
  594MOL0     H80138   7.423   9.185   8.243 -1.7014 -2.9601 -2.0148
  594MOL0     H80139   7.369   9.264   8.478  3.3865  0.3853  0.2392
  594MOL0     H80140   7.349   9.104   8.522  0.3610  1.5016  2.2009
  594MOL0     H80141   7.656   9.268   8.350  1.8459 -1.3219 -0.0509
  594MOL0     H80142   7.953   9.106   8.561 -0.1019  0.2364  1.6846
  594MOL0     H80143   7.938   9.160   8.405 -0.9828 -2.3573 -0.2336
  594MOL0     H80144   7.909   9.387   8.453  3.8474 -0.1276 -0.3780
  594MOL0     H80145   7.838   9.355   8.617 -0.6309  1.8141 -0.3056
  594MOL0     H80146   8.133   9.345   8.536 -1.5564  1.3325 -0.6813
  594MOL0     H80147   8.085   9.282   8.686 -0.7803 -0.9046 -0.1523
  594MOL0     H80148   8.110   9.480   8.775 -1.3957  1.1724  1.1777
  594MOL0     H80149   7.950   9.512   8.727  0.6527 -0.5400 -0.0454
  594MOL0     H80150   8.300   9.542   8.735 -1.5434  0.6046 -0.3859
  594MOL0     H80151   8.527   9.560   8.649  0.6588 -0.5227 -1.3552
  594MOL0     H80152   8.805   9.566   8.259 -3.4373  0.0446 -1.1225
  594MOL0     H80153   8.981   9.585   8.095  0.9423  1.6740 -0.6958
  594MOL0     H80154   8.969   9.868   7.806 -1.5646  1.8226  1.3055
  594MOL0     H80155   9.069   9.980   7.900 -0.0466 -0.1946 -0.7059
  594MOL0     H80156   9.265   9.852   7.839  1.4406 -2.0028 -2.3828
  594MOL0     H80157   9.152   9.745   7.734 -1.6530 -0.0468  0.6827
  594MOL0     H80158   9.112   9.944   7.585 -1.5731  1.2895  1.9650
  594MOL0     H80159   9.208  10.046   7.697  1.3467  1.5843 -3.0795
  594MOL0     H80160   9.329   9.821   7.540 -0.2062  1.1673 -0.5753
  594MOL0     H80161   9.407   9.924   7.655  0.8888 -1.5113 -0.7387
  594MOL0     H80162   9.367  10.133   7.527  2.8255 -2.2326  1.9290
  594MOL0     H80163   9.245  10.049   7.424  0.0183  0.2802 -0.8130
  594MOL0     H80164   9.422   9.906   7.321  0.7560  0.2319  0.4496
  594MOL0     H80165   9.447  10.082   7.299 -0.0924  2.3044  1.8917
  594MOL0     H80166   9.650   9.933   7.347 -0.0600 -0.9422 -0.1402
  594MOL0     H80167   9.575   9.882   7.490  0.0318  0.2350 -0.6617
  594MOL0     H80168   9.569  10.113   7.593  2.0049 -0.7976  2.8656
  594MOL0     H80169   9.738  10.085   7.547  0.0429  2.7546  0.0902
  594MOL0     H80170   8.914  10.007   8.051  0.4803  1.2925  3.2472
  594MOL0     H80171   8.706   9.981   8.199 -2.0490 -1.6342  2.1652
  594MOL0     H80172   8.376   9.725   8.285  2.4959  3.8274  2.2607
  594MOL0     H80173   8.148   9.700   8.363  0.4119  1.7472 -1.2226
  594MOL0     H80174   6.924   8.562   8.177  0.3975  0.9440 -2.1955
  594MOL0     H80175   6.773   8.487   8.014  0.9719  1.1934  0.8830
  594MOL0     H80176   6.774   8.140   7.679 -0.0167 -1.6118 -1.6868
  594MOL0     H80177   6.687   7.959   7.528 -0.8098  4.2560 -1.2036
  594MOL0     H80178   6.623   7.745   7.458 -0.3486 -1.1324 -0.5878
  594MOL0     H80179   6.542   7.878   7.362  1.5224  1.9625  2.3681
  594MOL0     H80180   6.345   7.710   7.339 -0.4411 -0.7642 -1.5529
  594MOL0     H80181   6.456   7.592   7.405  0.6187  0.2280  0.7538
  594MOL0     H80182   6.487   7.567   7.178 -1.3510 -0.2971  2.2995
  594MOL0     H80183   6.617   7.683   7.228 -0.5168 -0.9601  0.6422
  594MOL0     H80184   6.464   7.875   7.139  2.9524  0.1386 -0.1657
  594MOL0     H80185   6.534   7.772   7.019 -1.2116 -0.7918 -0.7938
  594MOL0     H80186   6.106   7.694   7.007  1.0277  1.9121 -3.6032
  594MOL0     H80187   6.341   7.907   7.762 -1.7577  4.1597  1.2172
  594MOL0     H80188   6.361   8.194   7.967  0.3350 -0.2250  3.9415
  594MOL0     H80189   6.283   8.042   7.942  0.3955  0.6012 -2.6153
  594MOL0     H80190   6.417   8.056   8.055 -2.4684 -1.5535  0.9873
  595MOL0     O80191   1.481   7.322   2.976  0.4565  0.3750  0.0786
  595MOL0     C80192   1.438   7.360   2.865  0.4097  0.0693  0.5337
  595MOL0     O80193   1.520   7.379   2.753  0.0735  0.4665  0.6608
  595MOL0     C80194   1.653   7.345   2.770 -0.6496 -1.0950 -0.6344
  595MOL0     C80195   1.703   7.213   2.754  0.1191  0.4621  0.4668
  595MOL0     C80196   1.832   7.181   2.778 -0.6131 -0.4872  0.2376
  595MOL0     C80197   1.927   7.286   2.806  0.3013 -0.0758  0.3944
  595MOL0     O80198   2.061   7.266   2.827 -0.4169  0.5082 -0.1824
  595MOL0     C80199   2.105   7.135   2.820 -0.1421 -0.1325  0.1472
  595MOL0     C80200   2.256   7.126   2.820  0.5614  0.1541 -0.2790
  595MOL0     C80201   2.297   6.987   2.776 -0.9010  0.5649 -0.2789
  595MOL0     C80202   2.448   6.969   2.774  0.1137 -0.7489 -0.2663
  595MOL0     C80203   2.505   6.955   2.908  0.1280  0.1035 -1.6564
  595MOL0     C80204   2.653   6.936   2.895  0.1639 -0.3735  0.0336
  595MOL0     C80205   2.738   6.929   3.028 -0.4982 -0.3115 -0.0423
  595MOL0     C80206   2.851   6.823   3.031  0.0504 -0.8099  0.5451
  595MOL0     N80207   2.938   6.840   3.147 -0.3490  0.2257  0.5224
  595MOL0     C80208   2.992   6.729   3.195  0.8105  0.3959  0.0950
  595MOL0     C80209   3.085   6.762   3.280 -0.1725  0.5291 -0.2113
  595MOL0     C80210   3.160   6.662   3.364  0.0347  0.1091 -0.2597
  595MOL0     C80211   3.316   6.682   3.353 -0.4092  0.1607 -0.0390
  595MOL0     C80212   3.392   6.612   3.477  0.0829 -0.2179  0.1492
  595MOL0     C80213   3.394   6.456   3.468  0.2366  0.3003 -0.2869
  595MOL0     O80214   3.485   6.418   3.363 -0.2955  0.7805  0.0419
  595MOL0     C80215   3.611   6.372   3.402 -0.3399  1.3367 -0.2725
  595MOL0     C80216   3.676   6.435   3.503 -1.0382 -0.1520  0.2649
  595MOL0     C80217   3.808   6.400   3.539 -1.0027  0.1202 -0.0278
  595MOL0     C80218   3.868   6.294   3.464  1.2887  0.2929 -0.4330
  595MOL0     C80219   3.996   6.250   3.492 -0.2793  0.4881  0.5303
  595MOL0     O80220   4.072   6.216   3.382 -0.0703  0.8405 -1.0433
  595MOL0     C80221   4.197   6.174   3.414  0.6477 -0.9777 -1.0576
  595MOL0     C80222   4.299   6.260   3.371 -0.0143  0.1009 -0.2532
  595MOL0     C80223   4.432   6.224   3.383 -0.6885 -0.0934  0.5817
  595MOL0     C80224   4.469   6.106   3.444  1.0223  0.1771 -0.2871
  595MOL0     O80225   4.603   6.076   3.455 -0.3362 -0.3214  0.6724
  595MOL0     C80226   4.697   6.165   3.504 -1.0626  0.1367  0.0908
  595MOL0     C80227   4.830   6.111   3.559  0.1537  0.5754 -0.0329
  595MOL0     C80228   4.800   5.994   3.650  0.1535 -0.2520  0.0578
  595MOL0     C80229   4.926   5.962   3.733 -0.9068 -0.1530  0.5226
  595MOL0     C80230   4.907   5.854   3.823  0.1307 -0.5633  0.5510
  595MOL0     C80231   5.048   5.790   3.850 -0.2678  0.5115 -0.5610
  595MOL0     C80232   5.149   5.894   3.910 -1.1385  1.2784  0.4515
  595MOL0     C80233   5.292   5.833   3.901  0.5857  0.2897  0.5571
  595MOL0    Cl80234   5.400   5.891   4.021  0.3796  0.4942  0.2864
  595MOL0     C80235   4.369   6.020   3.492  0.9523 -0.1744  1.0380
  595MOL0     C80236   4.234   6.050   3.475 -0.0195  0.5520  0.4787
  595MOL0     O80237   4.030   6.238   3.607  0.6819  0.8274  0.0107
  595MOL0     C80238   3.801   6.236   3.356 -0.5005 -0.4907  0.1722
  595MOL0     C80239   3.676   6.277   3.322 -0.4328  0.2881 -0.3804
  595MOL0     N80240   3.091   6.898   3.284  0.2003 -1.1464 -0.1844
  595MOL0     N80241   2.996   6.945   3.210 -0.7208  0.8357 -0.0400
  595MOL0     C80242   1.884   7.416   2.825 -0.4123 -0.6491  0.4280
  595MOL0     C80243   1.746   7.447   2.808 -0.1687  0.4614  0.7468
  595MOL0     C80244   1.293   7.377   2.857  0.6208  0.5429  0.7770
  595MOL0     C80245   1.238   7.406   2.731 -0.9180  0.1533 -0.1814
  595MOL0     C80246   1.103   7.420   2.719  0.2967 -0.6762  0.1036
  595MOL0     C80247   1.018   7.390   2.833  0.1188 -0.6526  0.5119
  595MOL0     O80248   0.881   7.403   2.841  1.3021  0.0104 -0.5425
  595MOL0     C80249   0.807   7.416   2.717  0.5778  0.0865  0.5126
  595MOL0     C80250   0.655   7.400   2.741  0.8495 -0.3628  0.1878
  595MOL0     C80251   0.598   7.530   2.798 -0.2800 -0.2537 -0.2532
  595MOL0     C80252   0.446   7.522   2.842 -0.8812  0.2783 -0.0238
  595MOL0     C80253   0.358   7.484   2.728  0.1505  0.2910 -0.4184
  595MOL0     C80254   0.274   7.465   2.643  0.3437 -0.1448  0.7269
  595MOL0     C80255   1.068   7.355   2.947 -0.5478  0.6039  0.6389
  595MOL0     C80256   1.207   7.344   2.967  0.1821  1.2710 -0.2909
  595MOL0     C80257   1.240   7.278   3.101 -0.4076 -0.1514 -0.2682
  595MOL0     H80258   1.640   7.132   2.720  2.0534 -0.9066 -0.0537
  595MOL0     H80259   1.867   7.079   2.787 -2.0594 -0.8275  3.0741
  595MOL0     H80260   2.062   7.080   2.904 -0.9824  0.7484  0.3085
  595MOL0     H80261   2.069   7.100   2.722 -3.5838  0.7337  0.9712
  595MOL0     H80262   2.282   7.159   2.921 -1.7536  3.2378 -0.5652
  595MOL0     H80263   2.297   7.187   2.739 -0.7261 -0.6749 -1.5944
  595MOL0     H80264   2.257   6.970   2.676  2.0043 -0.1070 -1.3979
  595MOL0     H80265   2.249   6.918   2.846 -0.0613  1.7394  1.5338
  595MOL0     H80266   2.466   6.871   2.728 -2.6600 -1.5649  0.1583
  595MOL0     H80267   2.502   7.054   2.732 -1.5973  2.0866  2.8103
  595MOL0     H80268   2.490   7.049   2.961 -2.1533 -2.9917  4.1730
  595MOL0     H80269   2.454   6.872   2.959 -3.4052  1.1719 -3.1456
  595MOL0     H80270   2.670   6.848   2.832 -1.5380 -0.4149 -0.4008
  595MOL0     H80271   2.690   7.027   2.846 -2.2267  0.7200  0.1102
  595MOL0     H80272   2.671   6.900   3.109  0.5678 -0.1509  0.9294
  595MOL0     H80273   2.783   7.018   3.072 -3.3449  0.4419  1.5996
  595MOL0     H80274   2.809   6.722   3.034  0.3488 -0.9100  2.3548
  595MOL0     H80275   2.910   6.814   2.939  0.4778 -1.3921  0.8712
  595MOL0     H80276   2.967   6.628   3.164  1.2698  0.4644 -0.5080
  595MOL0     H80277   3.140   6.678   3.470 -1.0238 -2.1928 -0.0482
  595MOL0     H80278   3.132   6.559   3.339 -0.6491  0.1471  0.2994
  595MOL0     H80279   3.368   6.635   3.269 -0.5734 -0.6923  0.3330
  595MOL0     H80280   3.341   6.788   3.363 -1.6626  0.5068 -0.4170
  595MOL0     H80281   3.336   6.640   3.567 -0.5661 -0.7512 -0.0763
  595MOL0     H80282   3.495   6.647   3.482  0.6775 -1.8276 -0.1952
  595MOL0     H80283   3.288   6.429   3.460  1.0148 -5.3940  2.8938
  595MOL0     H80284   3.420   6.400   3.559 -1.3674 -2.4702 -1.3910
  595MOL0     H80285   3.635   6.512   3.567 -2.1949  0.2738 -0.9580
  595MOL0     H80286   3.863   6.444   3.622 -1.4689  0.3866  0.1408
  595MOL0     H80287   4.278   6.354   3.321  0.5113  0.5056  0.2675
  595MOL0     H80288   4.504   6.303   3.363 -0.0875 -0.3115  1.8372
  595MOL0     H80289   4.721   6.227   3.418  0.5796 -1.7056 -0.8444
  595MOL0     H80290   4.659   6.226   3.587 -3.2319 -1.3044  0.2299
  595MOL0     H80291   4.892   6.069   3.480 -1.1229 -2.5172  0.4189
  595MOL0     H80292   4.879   6.193   3.612  1.7887 -1.1046  1.2142
  595MOL0     H80293   4.716   6.007   3.719  0.6445  2.5682  0.2576
  595MOL0     H80294   4.774   5.899   3.602  1.9371 -2.5612  3.2439
  595MOL0     H80295   4.967   6.053   3.777 -1.7183  0.4055  0.1498
  595MOL0     H80296   5.004   5.938   3.660 -0.9879 -3.3961  1.3335
  595MOL0     H80297   4.832   5.784   3.787 -0.9378 -0.3937  2.3043
  595MOL0     H80298   4.873   5.894   3.919  2.5144 -2.1652  2.1805
  595MOL0     H80299   5.024   5.705   3.914  0.0343  0.0214 -1.0939
  595MOL0     H80300   5.092   5.751   3.758 -0.5689  1.7302 -1.2451
  595MOL0     H80301   5.133   5.921   4.015 -0.8463  2.4488  0.2124
  595MOL0     H80302   5.158   5.982   3.845  0.7718 -0.4468 -1.8059
  595MOL0     H80303   5.286   5.725   3.918  0.4297  0.4363  1.4883
  595MOL0     H80304   5.315   5.843   3.795 -1.3752 -1.2032 -0.0761
  595MOL0     H80305   4.395   5.924   3.535  0.4277 -1.8930 -2.1622
  595MOL0     H80306   4.158   5.974   3.493  1.6157 -1.5264 -0.8304
  595MOL0     H80307   3.854   6.157   3.302 -1.2471 -0.4801 -0.6080
  595MOL0     H80308   3.627   6.222   3.243  2.3021  0.6392 -2.4946
  595MOL0     H80309   1.944   7.499   2.860  2.9463 -2.4132 -0.7442
  595MOL0     H80310   1.690   7.536   2.835  0.2748 -0.0587  3.7565
  595MOL0     H80311   1.302   7.402   2.644 -0.0782 -1.1309  0.4754
  595MOL0     H80312   1.064   7.439   2.619 -1.5061 -2.8811  0.3253
  595MOL0     H80313   0.842   7.331   2.656  1.3266  1.5717 -1.2248
  595MOL0     H80314   0.838   7.508   2.668  1.6909 -0.4692  0.1388
  595MOL0     H80315   0.641   7.325   2.820  1.1840  1.3266  1.9193
  595MOL0     H80316   0.602   7.377   2.649  0.9157  0.7098 -0.1312
  595MOL0     H80317   0.607   7.603   2.717  1.6365  2.8944  2.5378
  595MOL0     H80318   0.669   7.566   2.874  2.5858 -1.5776 -2.1193
  595MOL0     H80319   0.432   7.449   2.922  0.1216  0.4623  0.3401
  595MOL0     H80320   0.430   7.613   2.900  3.0324  0.8125  0.4770
  595MOL0     H80321   0.196   7.444   2.572  0.2976  1.3592  0.3053
  595MOL0     H80322   0.998   7.339   3.027  0.1740  1.7231  1.5180
  595MOL0     H80323   1.269   7.173   3.092  1.3449 -0.0536  2.8828
  595MOL0     H80324   1.328   7.331   3.138  0.9385 -0.0138 -3.2898
  595MOL0     H80325   1.155   7.289   3.169 -0.4610 -0.1615 -0.3324
  596MOL0     O80326   4.959   7.890   6.092 -0.1178 -0.1689  0.7442
  596MOL0     C80327   4.930   7.964   6.188 -0.9017 -0.3828  1.1486
  596MOL0     O80328   5.015   8.013   6.283  0.6763  0.7376  0.1876
  596MOL0     C80329   5.146   8.000   6.274 -0.1373  0.2820  0.4213
  596MOL0     C80330   5.216   7.883   6.245  0.1411 -0.0443  0.4761
  596MOL0     C80331   5.350   7.876   6.259 -0.1061 -0.5127  1.1595
  596MOL0     C80332   5.423   7.998   6.286 -0.7017  0.7030 -0.1133
  596MOL0     O80333   5.562   8.014   6.311 -0.4221  0.0925  0.0528
  596MOL0     C80334   5.642   7.898   6.271  0.0012  0.0659 -0.2698
  596MOL0     C80335   5.785   7.937   6.272 -0.2083  0.4487 -0.0238
  596MOL0     C80336   5.822   8.031   6.160 -1.0623 -0.3124 -0.5783
  596MOL0     C80337   5.953   8.107   6.192 -0.1069  0.2885  0.0470
  596MOL0     C80338   6.075   8.010   6.211 -0.7298  0.7040  0.5337
  596MOL0     C80339   6.212   8.069   6.214  0.5058 -0.3602 -0.8102
  596MOL0     C80340   6.257   8.158   6.103 -0.7371  0.2170  0.2111
  596MOL0     C80341   6.410   8.148   6.084  0.1874  0.8502 -0.0659
  596MOL0     N80342   6.476   8.232   6.181 -1.1509 -0.6522 -0.3780
  596MOL0     C80343   6.502   8.365   6.162 -0.1833 -0.1408  0.2014
  596MOL0     C80344   6.566   8.395   6.278 -0.5325  0.2458  0.5680
  596MOL0     C80345   6.613   8.538   6.318 -0.8633  0.5829 -0.1354
  596MOL0     C80346   6.769   8.552   6.343 -0.4356 -0.6867 -0.2270
  596MOL0     C80347   6.818   8.485   6.473  0.7680  0.3780 -0.4545
  596MOL0     C80348   6.962   8.490   6.478  0.0541 -1.0808  0.8272
  596MOL0     O80349   7.008   8.457   6.606  0.8764  0.0527  0.1386
  596MOL0     C80350   7.141   8.462   6.626 -0.4209 -0.3733 -1.4251
  596MOL0     C80351   7.241   8.482   6.526 -0.4807  0.0215  0.5775
  596MOL0     C80352   7.374   8.463   6.560  0.9842  0.7695  0.0453
  596MOL0     C80353   7.403   8.431   6.690  0.2560  0.4487  0.7320
  596MOL0     C80354   7.539   8.435   6.731 -0.0750 -0.3982 -0.9585
  596MOL0     O80355   7.569   8.404   6.862 -0.4353  0.6044  0.5253
  596MOL0     C80356   7.705   8.394   6.889  0.2388  0.9078 -0.2395
  596MOL0     C80357   7.746   8.264   6.928  0.5075  0.1406 -0.1134
  596MOL0     C80358   7.870   8.241   6.977  0.6350  0.1311 -0.9023
  596MOL0     C80359   7.965   8.345   6.985 -0.2418 -0.4645 -0.3406
  596MOL0     O80360   8.090   8.324   7.037 -0.7864 -0.0930 -0.1270
  596MOL0     C80361   8.128   8.182   7.068 -0.6944  0.0711  0.0593
  596MOL0     C80362   8.080   8.117   7.208  0.6854 -0.2561  0.4086
  596MOL0     C80363   8.148   8.195   7.323  0.0166  0.4726  0.0164
  596MOL0     C80364   8.053   8.307   7.376 -0.5009  0.3951 -0.5851
  596MOL0     C80365   8.094   8.349   7.510  0.1928 -0.5772 -0.1021
  596MOL0     C80366   8.228   8.440   7.519  0.5442 -0.1792 -0.5370
  596MOL0     C80367   8.296   8.449   7.661 -0.0000 -0.1362 -0.4816
  596MOL0     C80368   8.374   8.309   7.670 -0.4184  0.3836  0.1378
  596MOL0    Cl80369   8.495   8.287   7.551  0.3718 -0.1118  0.1213
  596MOL0     C80370   7.917   8.478   6.943 -0.1315  0.3835 -1.1329
  596MOL0     C80371   7.787   8.502   6.899  0.0540  0.0192 -0.3163
  596MOL0     O80372   7.619   8.460   6.640 -0.3974  0.1973 -0.6805
  596MOL0     C80373   7.306   8.406   6.790  0.1307 -0.5879 -0.1501
  596MOL0     C80374   7.173   8.427   6.748 -0.1672  0.0908 -0.0152
  596MOL0     N80375   6.591   8.282   6.348 -0.1026  0.6688 -0.5101
  596MOL0     N80376   6.523   8.184   6.300  0.9162 -0.2443  0.4300
  596MOL0     C80377   5.355   8.117   6.301  0.6283 -0.3690 -0.4199
  596MOL0     C80378   5.216   8.118   6.297  0.3492  0.1893 -0.0683
  596MOL0     C80379   4.783   7.999   6.189 -0.6425  0.9952 -0.5563
  596MOL0     C80380   4.694   7.906   6.137 -0.2575  0.2536 -0.4338
  596MOL0     C80381   4.558   7.940   6.129  0.3497 -1.4742  0.0841
  596MOL0     C80382   4.507   8.060   6.172 -0.1032  1.0488 -0.2642
  596MOL0     O80383   4.375   8.081   6.162 -0.4518  0.1042  0.2263
  596MOL0     C80384   4.313   8.135   6.284  0.1868 -0.6228  0.3333
  596MOL0     C80385   4.170   8.087   6.300  0.1031  0.3388 -0.5526
  596MOL0     C80386   4.087   8.174   6.398 -0.7452  0.4814  0.7167
  596MOL0     C80387   4.096   8.130   6.541  0.0200 -0.5998 -0.5910
  596MOL0     C80388   4.021   8.007   6.581  0.1739  0.2143  0.2836
  596MOL0     C80389   3.964   7.902   6.614 -0.1656 -0.2501 -0.0232
  596MOL0     C80390   4.596   8.152   6.225  0.0613  0.6459 -0.1266
  596MOL0     C80391   4.733   8.124   6.239  0.0674 -0.6941  0.5163
  596MOL0     C80392   4.812   8.246   6.285  0.5236 -0.3861  0.1373
  596MOL0     H80393   5.166   7.790   6.219  0.1352  0.2695 -0.6948
  596MOL0     H80394   5.398   7.779   6.251  1.4933  0.2772  0.7039
  596MOL0     H80395   5.622   7.822   6.347 -3.8580  2.8800  1.9053
  596MOL0     H80396   5.635   7.859   6.169 -0.5908 -1.5975  0.3675
  596MOL0     H80397   5.842   7.845   6.272  0.5890  0.8683  2.4524
  596MOL0     H80398   5.808   7.976   6.372  0.2467 -0.9082  0.4092
  596MOL0     H80399   5.746   8.109   6.146 -1.5079 -0.7147 -0.4412
  596MOL0     H80400   5.824   7.972   6.068 -0.0152  0.4290 -1.0482
  596MOL0     H80401   5.980   8.179   6.115  2.9369  0.6699  1.3310
  596MOL0     H80402   5.933   8.171   6.278 -2.3613  2.4605 -1.9263
  596MOL0     H80403   6.060   7.958   6.307 -0.3039  0.8451  0.6801
  596MOL0     H80404   6.074   7.937   6.130  1.8454  1.3276 -0.1453
  596MOL0     H80405   6.216   8.141   6.297 -3.1669 -1.2341  0.2917
  596MOL0     H80406   6.289   7.995   6.237  1.5228  0.6017 -1.0239
  596MOL0     H80407   6.233   8.264   6.118  3.1751  1.3707 -0.6020
  596MOL0     H80408   6.200   8.137   6.012  0.1115 -1.0908 -0.0398
  596MOL0     H80409   6.429   8.044   6.110  2.5928  1.6236  1.6257
  596MOL0     H80410   6.446   8.169   5.982 -0.9858  0.5169 -0.5610
  596MOL0     H80411   6.478   8.428   6.077 -0.1779 -0.5810 -0.1276
  596MOL0     H80412   6.597   8.597   6.227  3.0514 -1.9278 -2.7610
  596MOL0     H80413   6.549   8.575   6.399  0.8388 -2.2624  2.7226
  596MOL0     H80414   6.826   8.504   6.263  1.0051 -1.0131  0.9666
  596MOL0     H80415   6.794   8.658   6.340 -0.6883 -0.6288 -0.3451
  596MOL0     H80416   6.785   8.381   6.462  0.7332  0.5383 -2.2653
  596MOL0     H80417   6.771   8.528   6.561 -1.2320 -4.3808  1.1519
  596MOL0     H80418   6.999   8.589   6.448  1.0241 -2.0754 -1.5662
  596MOL0     H80419   7.002   8.414   6.410  3.2063 -0.4687  1.8318
  596MOL0     H80420   7.226   8.502   6.420 -0.8472  2.1606  0.9847
  596MOL0     H80421   7.446   8.486   6.483 -1.1860  2.7435 -1.5368
  596MOL0     H80422   7.669   8.187   6.930  2.8731 -2.3634  0.2066
  596MOL0     H80423   7.888   8.142   7.016  3.2504 -0.2076 -2.6975
  596MOL0     H80424   8.102   8.116   6.985 -2.3336  1.7717 -0.8626
  596MOL0     H80425   8.237   8.183   7.073 -0.6314  0.2123 -1.1552
  596MOL0     H80426   7.971   8.123   7.214  0.6500  1.2630 -1.1724
  596MOL0     H80427   8.117   8.014   7.199  1.4372  0.0719 -0.2932
  596MOL0     H80428   8.166   8.113   7.393  0.6831 -1.3696 -2.1789
  596MOL0     H80429   8.249   8.226   7.297 -0.1312  0.7353 -0.2585
  596MOL0     H80430   7.954   8.261   7.391 -1.2921  2.6418  1.7207
  596MOL0     H80431   8.044   8.387   7.303  0.2393 -0.3120 -1.4772
  596MOL0     H80432   8.110   8.261   7.572  2.1831  0.2189  0.5883
  596MOL0     H80433   8.010   8.405   7.552 -0.2800 -2.0579  1.0024
  596MOL0     H80434   8.295   8.394   7.446 -0.5183 -2.0500 -0.4045
  596MOL0     H80435   8.206   8.544   7.495  0.7274  0.4803  1.8240
  596MOL0     H80436   8.222   8.457   7.742 -0.0011  0.2774 -0.5213
  596MOL0     H80437   8.367   8.532   7.659 -2.6590  2.3442  0.6260
  596MOL0     H80438   8.428   8.308   7.765 -1.2697 -2.7606  0.6967
  596MOL0     H80439   8.308   8.221   7.667  1.6952 -1.2722  0.1669
  596MOL0     H80440   7.988   8.558   6.964  1.1368 -1.3635  1.9088
  596MOL0     H80441   7.745   8.598   6.873 -0.6446 -0.2644 -0.2712
  596MOL0     H80442   7.337   8.376   6.889  2.2675 -2.7247 -1.3592
  596MOL0     H80443   7.100   8.414   6.827 -0.4359 -1.0879 -0.4374
  596MOL0     H80444   5.411   8.208   6.320  0.4287 -0.3847  0.2581
  596MOL0     H80445   5.159   8.205   6.328 -1.8072 -1.8598  2.0729
  596MOL0     H80446   4.738   7.811   6.106 -1.2145 -0.0291 -0.9529
  596MOL0     H80447   4.490   7.862   6.097  0.5050 -1.7676  0.4681
  596MOL0     H80448   4.307   8.244   6.290 -0.1447 -0.6515  6.1663
  596MOL0     H80449   4.362   8.095   6.374  1.3548  1.6031  0.7698
  596MOL0     H80450   4.159   7.988   6.344 -2.2000  1.5356  1.8901
  596MOL0     H80451   4.119   8.075   6.205 -1.7626 -0.6789  0.5176
  596MOL0     H80452   3.986   8.198   6.363  0.5243  4.4886 -0.7717
  596MOL0     H80453   4.139   8.271   6.397  3.9726 -1.8033 -0.4449
  596MOL0     H80454   4.201   8.119   6.570 -0.6993 -0.5829  2.2544
  596MOL0     H80455   4.050   8.211   6.599 -1.7421  0.9679 -3.8620
  596MOL0     H80456   3.936   7.803   6.643 -0.7172 -0.0672  0.0736
  596MOL0     H80457   4.560   8.249   6.260 -2.6268 -0.6692  1.0181
  596MOL0     H80458   4.916   8.260   6.253 -0.1236  3.7700 -0.6645
  596MOL0     H80459   4.762   8.343   6.275  0.6902 -0.1317  1.5942
  596MOL0     H80460   4.828   8.234   6.393  2.1708  1.3790  0.1420
  597MOL0     O80461   4.750   4.237   1.853  0.3824 -0.2636 -0.5296
  597MOL0     C80462   4.698   4.269   1.963  1.2474  0.6842  0.4747
  597MOL0     O80463   4.716   4.193   2.078 -0.2398 -0.2435  0.4043
  597MOL0     C80464   4.814   4.092   2.070  0.6779  0.2748  0.2255
  597MOL0     C80465   4.772   3.964   2.104  0.4725  0.3965  1.3099
  597MOL0     C80466   4.857   3.855   2.113 -0.0504  0.1279 -0.1114
  597MOL0     C80467   4.996   3.884   2.099  0.8550 -0.5954 -0.5406
  597MOL0     O80468   5.078   3.774   2.108  0.5183 -0.1692 -0.1669
  597MOL0     C80469   5.222   3.800   2.083 -0.5273  0.3775  0.1327
  597MOL0     C80470   5.300   3.673   2.118 -0.8016 -0.6768 -0.3617
  597MOL0     C80471   5.287   3.653   2.268  0.2221 -0.2193  0.3593
  597MOL0     C80472   5.380   3.550   2.324 -0.8869 -0.4800  0.0363
  597MOL0     C80473   5.374   3.400   2.279 -0.0829  1.1594  0.6729
  597MOL0     C80474   5.479   3.313   2.356  0.4699  0.4209  0.5682
  597MOL0     C80475   5.451   3.171   2.322  0.1205  1.0734 -0.6161
  597MOL0     C80476   5.522   3.074   2.410 -0.1496  1.1780 -0.5044
  597MOL0     N80477   5.665   3.086   2.375 -0.1412 -0.0628  0.4290
  597MOL0     C80478   5.760   3.130   2.466 -0.3191  0.3061 -0.4280
  597MOL0     C80479   5.878   3.090   2.420 -0.0576 -1.0974 -0.2777
  597MOL0     C80480   6.012   3.140   2.473 -1.0368  0.3024  0.4858
  597MOL0     C80481   6.078   3.028   2.554  0.9071 -0.6775  0.5784
  597MOL0     C80482   6.070   3.050   2.700 -1.1101 -0.9526 -0.1243
  597MOL0     C80483   5.933   3.041   2.758 -0.5501  0.7899  0.2923
  597MOL0     O80484   5.867   2.935   2.696 -0.2889  0.0235 -0.0820
  597MOL0     C80485   5.728   2.928   2.724 -0.3690 -0.5532 -0.2152
  597MOL0     C80486   5.659   2.837   2.651  1.3337  0.2431  0.3128
  597MOL0     C80487   5.527   2.811   2.670  1.1085  0.9387 -0.1499
  597MOL0     C80488   5.453   2.885   2.762 -0.2781  0.1529  0.4843
  597MOL0     C80489   5.312   2.857   2.790 -0.1916 -0.2141  0.3763
  597MOL0     O80490   5.245   2.934   2.873 -0.8196 -0.7757  0.7412
  597MOL0     C80491   5.125   2.894   2.920  0.3443  0.5498  0.5853
  597MOL0     C80492   5.018   2.989   2.918 -0.3425 -0.5547  0.0788
  597MOL0     C80493   4.898   2.964   2.988 -0.2003  0.4139 -0.1893
  597MOL0     C80494   4.868   2.832   3.027  0.6237  0.0915 -0.0217
  597MOL0     O80495   4.746   2.788   3.064 -0.1218 -0.0555 -0.2962
  597MOL0     C80496   4.636   2.838   2.989  0.1583 -0.2386  0.2064
  597MOL0     C80497   4.505   2.800   3.063 -0.0037 -0.4591 -0.6713
  597MOL0     C80498   4.505   2.658   3.110  0.0469  0.8187  0.8037
  597MOL0     C80499   4.422   2.640   3.240 -0.2209 -0.4632 -0.4109
  597MOL0     C80500   4.395   2.484   3.261  0.3970 -0.1970 -0.5276
  597MOL0     C80501   4.328   2.455   3.398  0.2150  0.1274  0.3059
  597MOL0     C80502   4.279   2.311   3.403  0.2154 -0.0721  0.6938
  597MOL0     C80503   4.195   2.279   3.529 -0.0528  0.0113  0.6801
  597MOL0    Cl80504   4.044   2.371   3.529  0.1922 -0.4013  0.4311
  597MOL0     C80505   4.977   2.741   3.017  0.0618  0.0704  0.3968
  597MOL0     C80506   5.103   2.770   2.984  0.3095 -1.1898  0.6229
  597MOL0     O80507   5.262   2.757   2.737 -0.3181 -0.3100  0.0394
  597MOL0     C80508   5.521   2.975   2.840  0.3581  0.3803  0.7596
  597MOL0     C80509   5.661   2.995   2.823  0.8253 -0.7639  0.2859
  597MOL0     N80510   5.856   3.022   2.304  0.1749 -0.3474 -1.3921
  597MOL0     N80511   5.726   3.018   2.282 -0.0244  0.1899  0.0105
  597MOL0     C80512   5.038   4.018   2.063  0.0838  0.0490 -0.7071
  597MOL0     C80513   4.947   4.120   2.053 -0.5042  0.3851  0.6379
  597MOL0     C80514   4.610   4.379   1.961 -0.2892  0.1918  0.3670
  597MOL0     C80515   4.662   4.496   1.905  1.2827 -0.0416  0.0691
  597MOL0     C80516   4.573   4.603   1.898 -0.4701 -0.3375  0.2654
  597MOL0     C80517   4.442   4.601   1.940  0.2304  0.4336 -0.1752
  597MOL0     O80518   4.365   4.708   1.914  0.1263 -0.0240 -0.0344
  597MOL0     C80519   4.226   4.704   1.930  0.8640 -0.4629 -0.8655
  597MOL0     C80520   4.195   4.755   2.071  0.1484  0.0095  0.4018
  597MOL0     C80521   4.044   4.754   2.098  0.0437  0.4915  0.4322
  597MOL0     C80522   3.970   4.624   2.060 -0.4019  0.6102  0.0316
  597MOL0     C80523   4.035   4.519   2.140 -1.0922  0.0636 -0.1926
  597MOL0     C80524   4.074   4.410   2.186 -0.6194 -0.5806  0.2212
  597MOL0     C80525   4.403   4.482   2.007 -0.2187 -1.0231  0.3070
  597MOL0     C80526   4.481   4.366   2.017 -0.0657 -0.4851  0.5994
  597MOL0     C80527   4.422   4.239   2.078  0.5232 -0.0834 -0.0353
  597MOL0     H80528   4.666   3.952   2.122  0.4748 -1.1382  0.4383
  597MOL0     H80529   4.829   3.754   2.141 -0.0492  0.4990  1.3484
  597MOL0     H80530   5.234   3.813   1.975  0.1167 -0.6904  0.0682
  597MOL0     H80531   5.275   3.882   2.134  0.1011  0.6083 -0.8536
  597MOL0     H80532   5.405   3.684   2.088  0.2331 -1.9211  2.4937
  597MOL0     H80533   5.255   3.588   2.066 -2.1207 -0.8074  0.9528
  597MOL0     H80534   5.183   3.635   2.299 -0.2981  3.1028  0.8538
  597MOL0     H80535   5.308   3.750   2.314  1.1673  0.3988 -1.2883
  597MOL0     H80536   5.480   3.590   2.307 -0.4526 -1.4446  0.2214
  597MOL0     H80537   5.368   3.562   2.432 -2.5238 -0.1072 -0.1718
  597MOL0     H80538   5.272   3.368   2.306  0.5275 -0.7757  0.8859
  597MOL0     H80539   5.398   3.381   2.174 -1.4636 -0.2476  0.5631
  597MOL0     H80540   5.583   3.332   2.328  0.2737  1.2396  0.3691
  597MOL0     H80541   5.475   3.323   2.464  1.3651 -0.7069  0.7270
  597MOL0     H80542   5.474   3.153   2.217  0.4856  0.3863 -0.4204
  597MOL0     H80543   5.345   3.149   2.338  0.5705  0.5105  1.9962
  597MOL0     H80544   5.499   3.091   2.516  3.7913  0.3316  0.6566
  597MOL0     H80545   5.485   2.977   2.375 -0.7935  0.8177  1.1036
  597MOL0     H80546   5.737   3.194   2.551  0.4656 -0.0188  0.0418
  597MOL0     H80547   6.070   3.162   2.383 -1.7439  0.3204  0.0252
  597MOL0     H80548   6.003   3.228   2.537 -0.6630 -0.8429  2.1671
  597MOL0     H80549   6.027   2.936   2.523 -0.1975  0.0693  0.0949
  597MOL0     H80550   6.184   3.019   2.528  0.8524 -2.6067  0.9139
  597MOL0     H80551   6.115   3.147   2.726 -2.4598  0.4381 -2.6280
  597MOL0     H80552   6.139   2.974   2.740  0.8966  1.7115  1.8768
  597MOL0     H80553   5.867   3.124   2.732 -2.5012 -0.9961 -0.7327
  597MOL0     H80554   5.949   3.025   2.865  0.9556 -4.3846 -0.4605
  597MOL0     H80555   5.720   2.791   2.574 -0.6387  0.3496 -1.4214
  597MOL0     H80556   5.482   2.749   2.594 -3.2607  3.2841  0.2146
  597MOL0     H80557   5.034   3.082   2.864 -1.0685 -1.0210 -0.9651
  597MOL0     H80558   4.827   3.044   2.969  0.2325  0.6980 -0.6364
  597MOL0     H80559   4.625   2.946   2.991 -4.6496 -0.5103 -0.1454
  597MOL0     H80560   4.623   2.781   2.896 -2.2618  0.7249 -0.1055
  597MOL0     H80561   4.499   2.851   3.160 -3.8831 -0.2369 -0.8995
  597MOL0     H80562   4.417   2.820   3.003 -2.4365 -0.2960  2.6608
  597MOL0     H80563   4.442   2.609   3.036 -0.6019  1.3033  1.0253
  597MOL0     H80564   4.600   2.605   3.118  0.3098  1.2540  0.5832
  597MOL0     H80565   4.325   2.688   3.225  0.3076  0.5935 -0.5366
  597MOL0     H80566   4.485   2.681   3.319 -0.9472 -0.7581  0.3319
  597MOL0     H80567   4.478   2.413   3.251 -0.5499 -1.0231 -3.4685
  597MOL0     H80568   4.324   2.454   3.183  0.0714 -0.9720  0.0534
  597MOL0     H80569   4.408   2.459   3.472  1.4821 -0.6682 -0.9890
  597MOL0     H80570   4.250   2.527   3.427  0.0305 -0.6574  1.8976
  597MOL0     H80571   4.374   2.257   3.397  0.1108 -0.1905  0.0478
  597MOL0     H80572   4.235   2.282   3.308 -0.4708 -1.0256  1.2821
  597MOL0     H80573   4.171   2.173   3.536 -0.9845  0.0192 -1.6610
  597MOL0     H80574   4.261   2.308   3.611  0.4605 -1.8307  0.9578
  597MOL0     H80575   4.952   2.639   3.046  3.3630 -0.3280  2.3710
  597MOL0     H80576   5.176   2.690   2.977 -0.7963 -2.3677  2.0209
  597MOL0     H80577   5.474   3.042   2.910 -0.0142  1.3462 -0.3839
  597MOL0     H80578   5.719   3.062   2.884  0.4823 -0.6507  0.4929
  597MOL0     H80579   5.144   4.032   2.043  0.4215 -0.5962  0.5418
  597MOL0     H80580   4.981   4.217   2.020 -1.3433  0.8227  1.0367
  597MOL0     H80581   4.759   4.507   1.855  0.2791  0.1293 -1.9576
  597MOL0     H80582   4.604   4.693   1.845 -3.6504  2.9932  3.3890
  597MOL0     H80583   4.194   4.600   1.934 -0.2270 -0.0961  0.8925
  597MOL0     H80584   4.175   4.766   1.856  1.6206  1.9556  0.5219
  597MOL0     H80585   4.234   4.856   2.076  2.6353 -0.9198  0.9754
  597MOL0     H80586   4.248   4.693   2.144 -0.1034  0.0295  0.6083
  597MOL0     H80587   3.998   4.837   2.045 -0.1100  3.0319  4.1504
  597MOL0     H80588   4.024   4.764   2.205 -0.9788 -2.0162  0.5668
  597MOL0     H80589   3.864   4.634   2.082 -0.9122 -1.9796 -0.8971
  597MOL0     H80590   3.991   4.602   1.955 -0.6855 -2.5491  0.5258
  597MOL0     H80591   4.121   4.326   2.233  1.2544 -0.0318 -0.5740
  597MOL0     H80592   4.301   4.479   2.046 -0.5521  2.6097 -0.0034
  597MOL0     H80593   4.448   4.148   2.023 -0.9478  0.2796 -1.3850
  597MOL0     H80594   4.461   4.217   2.178 -0.4574 -1.7736  0.0227
  597MOL0     H80595   4.315   4.257   2.088  0.6701  1.5135 -0.9574
  598MOL0     O80596   8.932   3.023  10.490  0.2158 -0.8305 -0.2469
  598MOL0     C80597   9.039   3.061  10.535  0.1729  0.7867  0.0835
  598MOL0     O80598   9.106   3.178  10.535  0.3880 -0.9292 -0.3397
  598MOL0     C80599   9.046   3.292  10.483  0.1259  0.5718  0.5257
  598MOL0     C80600   8.999   3.392  10.576  0.3220  0.7679 -0.4204
  598MOL0     C80601   8.943   3.509  10.515  0.5868 -0.3881 -0.2159
  598MOL0     C80602   8.925   3.526  10.377 -0.4319  0.3795  0.8701
  598MOL0     O80603   8.862   3.635  10.318 -0.4896  0.0110 -0.4525
  598MOL0     C80604   8.787   3.733  10.399  0.4310  0.1082  0.3464
  598MOL0     C80605   8.730   3.833  10.317  0.2160 -0.3671 -0.2868
  598MOL0     C80606   8.701   3.964  10.409  0.5429  0.2080  0.7355
  598MOL0     C80607   8.786   4.074  10.374 -0.1102  0.7631 -0.3018
  598MOL0     C80608   8.756   4.197  10.461  0.8959  0.5664  0.1551
  598MOL0     C80609   8.884   4.291  10.454  0.0798 -0.8183 -1.0216
  598MOL0     C80610   8.865   4.397  10.555  0.0796 -1.4789 -0.1296
  598MOL0     C80611   8.964   4.513  10.542 -0.1361 -0.9448 -0.1483
  598MOL0     N80612   9.087   4.479  10.613  0.3368  0.3048  1.0605
  598MOL0     C80613   9.093   4.431  10.743 -0.0183 -0.6936 -0.0272
  598MOL0     C80614   9.222   4.427  10.777 -0.5567 -0.2442 -0.5358
  598MOL0     C80615   9.281   4.386  10.905 -0.1869  0.1017  0.4481
  598MOL0     C80616   9.380   4.489  10.954 -0.1552 -0.1337 -0.9005
  598MOL0     C80617   9.448   4.460  11.084 -0.0720 -0.0131 -0.1207
  598MOL0     C80618   9.528   4.584  11.143  0.2817  0.1623  0.8618
  598MOL0     O80619   9.613   4.535  11.243 -0.3769  0.4072 -0.4115
  598MOL0     C80620   9.728   4.605  11.257 -0.8823  1.2587 -0.2739
  598MOL0     C80621   9.752   4.738  11.226 -0.2485 -0.6472 -0.1605
  598MOL0     C80622   9.885   4.791  11.244 -0.2506 -0.3913  0.3495
  598MOL0     C80623   9.987   4.715  11.304  0.1572 -0.6465  0.1510
  598MOL0     C80624  10.119   4.767  11.352 -0.7950 -0.1406  0.2566
  598MOL0     O80625  10.144   4.900  11.326  0.7246 -0.4776  0.1783
  598MOL0     C80626  10.254   4.962  11.380 -0.1283 -0.3282 -0.3062
  598MOL0     C80627  10.243   5.045  11.493 -0.3820  0.0638 -0.9424
  598MOL0     C80628  10.349   5.102  11.564 -1.1750 -1.5214 -0.1993
  598MOL0     C80629  10.480   5.048  11.532  1.2490  0.0627 -0.1825
  598MOL0     O80630  10.578   5.074  11.622  0.7328  0.1415  0.0621
  598MOL0     C80631  10.717   5.078  11.581  0.3305 -0.3633 -0.1012
  598MOL0     C80632  10.781   5.205  11.651 -0.1239  0.0963  0.4994
  598MOL0     C80633  10.788   5.184  11.804  0.1149 -0.4363  0.1124
  598MOL0     C80634  10.900   5.280  11.869 -0.0543 -0.3873 -0.6432
  598MOL0     C80635  10.989   5.200  11.971  1.1132  0.0503  0.5566
  598MOL0     C80636  11.109   5.282  12.013 -0.0630  0.1493 -0.2909
  598MOL0     C80637  11.204   5.211  12.111 -0.7687  0.4887 -0.3073
  598MOL0     C80638  11.310   5.123  12.038  0.2748  0.1070  0.5126
  598MOL0    Cl80639  11.440   5.225  11.980  0.4226  0.0723 -0.3826
  598MOL0     C80640  10.492   4.958  11.420  0.0687 -0.4716 -0.5396
  598MOL0     C80641  10.385   4.928  11.341  0.2293 -0.2535  0.5724
  598MOL0     O80642  10.196   4.701  11.425  0.0383  0.1639 -0.4713
  598MOL0     C80643   9.960   4.575  11.313 -0.2683  0.1940  0.5580
  598MOL0     C80644   9.831   4.528  11.310  0.4208 -0.6172  0.1280
  598MOL0     N80645   9.297   4.471  10.669 -0.7118 -0.4764 -0.9212
  598MOL0     N80646   9.216   4.502  10.576  0.4109 -0.3583 -0.1737
  598MOL0     C80647   8.969   3.420  10.292  0.2705  0.5270  0.0938
  598MOL0     C80648   9.030   3.306  10.343  0.5527  0.1611 -0.2626
  598MOL0     C80649   9.106   2.954  10.603  0.3150 -0.2237  0.4542
  598MOL0     C80650   9.204   2.978  10.704  0.0550  0.3774 -0.2997
  598MOL0     C80651   9.272   2.880  10.781  0.0941  0.6013 -0.8170
  598MOL0     C80652   9.244   2.746  10.757 -0.4255  1.3417  0.4804
  598MOL0     O80653   9.303   2.640  10.825  0.1521 -0.3765  0.7767
  598MOL0     C80654   9.388   2.682  10.935  0.6746 -0.1063  0.2344
  598MOL0     C80655   9.430   2.560  11.008  0.2810 -0.6672 -0.0565
  598MOL0     C80656   9.531   2.478  10.938 -0.4231 -0.3681 -0.7650
  598MOL0     C80657   9.666   2.535  10.907  0.6600  0.0057  0.3771
  598MOL0     C80658   9.746   2.431  10.837  0.1627 -0.0132  0.3427
  598MOL0     C80659   9.814   2.344  10.784 -0.1705 -0.3217  0.0821
  598MOL0     C80660   9.157   2.720  10.646  0.4104 -0.0867  0.3819
  598MOL0     C80661   9.088   2.817  10.572 -0.2096  0.0094  0.1901
  598MOL0     C80662   9.002   2.768  10.453 -0.4887  0.6274 -0.0901
  598MOL0     H80663   9.018   3.382  10.682 -1.2473 -3.4353 -0.3668
  598MOL0     H80664   8.899   3.585  10.579 -1.1378  0.3545 -2.1905
  598MOL0     H80665   8.706   3.694  10.462  0.7538  0.2616  0.8636
  598MOL0     H80666   8.853   3.784  10.471 -0.9935  0.7326  1.2635
  598MOL0     H80667   8.643   3.788  10.268 -0.2396  0.2962 -0.1087
  598MOL0     H80668   8.795   3.859  10.234  0.5713  3.0714  0.9202
  598MOL0     H80669   8.692   3.938  10.514 -0.1398  0.6329  0.7874
  598MOL0     H80670   8.600   3.992  10.374 -0.0936 -2.7896 -0.1333
  598MOL0     H80671   8.890   4.043  10.389 -0.1807 -0.1172 -1.5113
  598MOL0     H80672   8.784   4.089  10.266  2.2146  0.3526 -0.4551
  598MOL0     H80673   8.667   4.242  10.417  1.2614 -0.0486 -1.2889
  598MOL0     H80674   8.733   4.157  10.560  1.4845  0.5133  0.2764
  598MOL0     H80675   8.979   4.242  10.475 -0.1616 -0.9172 -0.1068
  598MOL0     H80676   8.896   4.330  10.352  1.6424  0.3566 -0.4250
  598MOL0     H80677   8.863   4.357  10.657  0.8254 -0.7820  0.1656
  598MOL0     H80678   8.767   4.436  10.527  0.7466 -0.7203 -1.4987
  598MOL0     H80679   8.980   4.525  10.434  0.2735 -1.4068 -0.1418
  598MOL0     H80680   8.915   4.597  10.591 -0.2328 -1.0711 -0.0250
  598MOL0     H80681   9.007   4.399  10.801  0.7500  1.1514  2.2995
  598MOL0     H80682   9.201   4.390  10.979 -1.4792 -0.0566 -0.8981
  598MOL0     H80683   9.331   4.289  10.902 -0.5666 -0.1617  1.8325
  598MOL0     H80684   9.460   4.503  10.881  0.9783 -1.1785  0.0871
  598MOL0     H80685   9.332   4.587  10.966 -1.8502 -0.9722 -0.6839
  598MOL0     H80686   9.512   4.374  11.064 -0.0797 -0.0574  0.0436
  598MOL0     H80687   9.375   4.435  11.162 -0.3719  0.6768 -0.1743
  598MOL0     H80688   9.461   4.659  11.186 -1.1715  0.2877 -1.4300
  598MOL0     H80689   9.587   4.620  11.058 -1.0681 -0.5007 -0.4278
  598MOL0     H80690   9.683   4.799  11.169 -0.3526 -0.4948  0.1222
  598MOL0     H80691   9.899   4.895  11.219 -0.2795  0.1195  2.2762
  598MOL0     H80692  10.140   5.077  11.499 -0.7218 -0.9359 -1.3053
  598MOL0     H80693  10.323   5.170  11.645 -0.5590 -0.2679 -1.0174
  598MOL0     H80694  10.776   4.998  11.627  0.8331  0.1939  0.2570
  598MOL0     H80695  10.722   5.091  11.473  0.0550  1.2893  0.0474
  598MOL0     H80696  10.886   5.214  11.622  0.0765  3.9362  1.8243
  598MOL0     H80697  10.720   5.294  11.635 -1.4870 -0.8821 -0.0300
  598MOL0     H80698  10.697   5.209  11.860  0.0201 -2.4800  0.9290
  598MOL0     H80699  10.808   5.078  11.820 -1.2497 -0.6018  0.8369
  598MOL0     H80700  10.873   5.378  11.910  0.7519  0.4068 -1.9506
  598MOL0     H80701  10.966   5.325  11.794  0.8088  3.5142  2.1178
  598MOL0     H80702  11.022   5.107  11.924  3.6380  1.2514 -0.2620
  598MOL0     H80703  10.934   5.177  12.062 -1.4681 -1.9651 -1.3566
  598MOL0     H80704  11.164   5.329  11.932 -0.5561  2.2904  0.5587
  598MOL0     H80705  11.059   5.369  12.057 -3.9591 -1.4044 -1.1762
  598MOL0     H80706  11.149   5.165  12.194 -0.0801  0.2857  0.0411
  598MOL0     H80707  11.264   5.296  12.146  2.8706 -1.3684 -1.6025
  598MOL0     H80708  11.341   5.041  12.103 -3.9656 -2.0310  0.1931
  598MOL0     H80709  11.268   5.076  11.949  0.5511 -1.3394  1.1260
  598MOL0     H80710  10.592   4.928  11.390  0.4894  1.8813 -1.7793
  598MOL0     H80711  10.396   4.862  11.256  0.4283  0.8225 -0.2565
  598MOL0     H80712  10.037   4.504  11.340  0.0671  0.5631  0.5838
  598MOL0     H80713   9.820   4.420  11.322  1.6091 -1.2622 -3.3097
  598MOL0     H80714   8.962   3.427  10.184  0.2159 -1.2284 -0.0320
  598MOL0     H80715   9.060   3.232  10.269 -0.2240  0.7511 -1.1930
  598MOL0     H80716   9.255   3.074  10.709  2.5340 -0.7560 -1.8711
  598MOL0     H80717   9.349   2.905  10.853 -0.3796  0.3496 -0.2108
  598MOL0     H80718   9.331   2.755  10.994 -1.6261 -2.3439  0.9849
  598MOL0     H80719   9.478   2.732  10.898 -0.2018  1.0825 -0.3675
  598MOL0     H80720   9.334   2.511  11.027 -0.3608 -0.4225 -2.3062
  598MOL0     H80721   9.477   2.593  11.101  0.3698  0.5100 -0.5015
  598MOL0     H80722   9.482   2.452  10.843  0.8922  0.7224 -1.7994
  598MOL0     H80723   9.555   2.389  10.996 -1.7339 -0.2941 -0.0840
  598MOL0     H80724   9.658   2.618  10.836  2.7796 -1.3150 -1.5441
  598MOL0     H80725   9.725   2.563  10.994 -1.0955  0.1507  1.5730
  598MOL0     H80726   9.878   2.266  10.748 -0.9829 -0.0888 -2.0668
  598MOL0     H80727   9.137   2.617  10.619 -0.9969 -0.0329  1.1213
  598MOL0     H80728   9.043   2.672  10.422  0.6622  1.5580 -1.5433
  598MOL0     H80729   8.899   2.754  10.486 -0.5433 -1.9068 -1.1528
  598MOL0     H80730   9.005   2.840  10.371 -0.7701 -0.0761 -0.7266
  599MOL0     O80731   7.311   6.711   9.120 -0.4918  0.5691 -0.5005
  599MOL0     C80732   7.287   6.770   9.228 -0.0902 -0.4023 -0.1159
  599MOL0     O80733   7.192   6.736   9.321 -0.3373 -0.3188 -0.6857
  599MOL0     C80734   7.124   6.621   9.290 -0.7303  0.5327  0.0541
  599MOL0     C80735   7.188   6.508   9.333  0.7699 -0.0890 -0.1094
  599MOL0     C80736   7.132   6.381   9.311  0.2599  0.0922 -0.0927
  599MOL0     C80737   7.011   6.372   9.239  0.0922 -0.3705  0.5288
  599MOL0     O80738   6.952   6.249   9.224  0.3594  0.0870  0.5015
  599MOL0     C80739   7.037   6.133   9.192 -0.1329  0.3344 -1.1853
  599MOL0     C80740   7.144   6.148   9.092  0.2308  0.2326 -0.0580
  599MOL0     C80741   7.091   6.153   8.948 -0.4350 -0.6736 -0.2182
  599MOL0     C80742   7.200   6.206   8.856 -0.5919  0.2720  0.3624
  599MOL0     C80743   7.182   6.207   8.705  0.4142  0.4212  0.6107
  599MOL0     C80744   7.178   6.053   8.654  0.1892 -0.5510  0.8720
  599MOL0     C80745   7.218   6.034   8.505 -0.0968 -0.2524  1.0547
  599MOL0     C80746   7.373   6.030   8.481  0.1250 -0.1482 -0.3554
  599MOL0     N80747   7.414   6.048   8.341  0.2306 -0.3086  0.0301
  599MOL0     C80748   7.427   6.162   8.263 -0.6871 -0.4667  0.2120
  599MOL0     C80749   7.468   6.115   8.135 -0.4663 -0.2572 -0.1520
  599MOL0     C80750   7.469   6.178   8.004  0.4760  0.4388  0.6934
  599MOL0     C80751   7.600   6.232   7.959 -0.5811  0.0783  0.4275
  599MOL0     C80752   7.711   6.126   7.945  0.3192  0.2031  0.0462
  599MOL0     C80753   7.673   6.012   7.851  0.5860  0.3696 -0.5790
  599MOL0     O80754   7.729   6.045   7.723 -0.0710  0.0781  0.1850
  599MOL0     C80755   7.785   5.957   7.631  0.0107 -0.0333 -0.7146
  599MOL0     C80756   7.748   5.824   7.634 -0.8957 -0.1853 -0.4302
  599MOL0     C80757   7.817   5.731   7.553 -0.3344 -0.9555 -0.2219
  599MOL0     C80758   7.923   5.780   7.477 -0.0812 -0.6181 -1.0479
  599MOL0     C80759   7.995   5.682   7.394 -0.3920  0.1511 -0.5215
  599MOL0     O80760   8.116   5.734   7.348  0.0766  0.2186  0.4165
  599MOL0     C80761   8.170   5.659   7.247 -0.1320 -0.4571 -0.3712
  599MOL0     C80762   8.156   5.702   7.119  0.8141  0.3515 -0.1814
  599MOL0     C80763   8.216   5.635   7.007  0.2961 -0.0189  0.3740
  599MOL0     C80764   8.317   5.540   7.029  0.2550  0.5287  0.2369
  599MOL0     O80765   8.395   5.477   6.932  0.6969 -0.2566 -0.0405
  599MOL0     C80766   8.515   5.405   6.976  0.2519 -1.0287  0.1651
  599MOL0     C80767   8.586   5.350   6.851  0.5709 -0.1521  0.0337
  599MOL0     C80768   8.697   5.249   6.885  0.3310  0.6120  0.6895
  599MOL0     C80769   8.751   5.184   6.760  0.6459 -0.2463 -0.4418
  599MOL0     C80770   8.887   5.113   6.762 -0.2684  0.5378  0.3605
  599MOL0     C80771   8.920   5.059   6.620  0.5636 -0.0176 -1.0967
  599MOL0     C80772   9.064   4.996   6.615  0.5262 -0.5745  0.1591
  599MOL0     C80773   9.056   4.842   6.628  0.6372  0.3482  0.0618
  599MOL0    Cl80774   9.209   4.776   6.580 -0.0046 -0.5877 -0.0229
  599MOL0     C80775   8.331   5.491   7.164  0.3174 -0.0338 -0.6268
  599MOL0     C80776   8.251   5.552   7.269  0.3952  0.8693 -0.4294
  599MOL0     O80777   7.954   5.563   7.387  0.6182 -0.1378  0.4511
  599MOL0     C80778   7.969   5.919   7.476  0.1795  0.8601 -0.1919
  599MOL0     C80779   7.887   6.003   7.555  1.4730 -0.1843  0.6776
  599MOL0     N80780   7.476   5.978   8.146  0.0304  0.6224 -0.1104
  599MOL0     N80781   7.454   5.943   8.267 -0.2389  0.2237 -0.3866
  599MOL0     C80782   6.945   6.494   9.198 -0.4409  0.7618 -0.4303
  599MOL0     C80783   7.001   6.615   9.231 -0.5120  0.2847 -0.0416
  599MOL0     C80784   7.349   6.903   9.230 -1.1709 -0.6173  0.0498
  599MOL0     C80785   7.381   6.972   9.111 -0.0826  1.1424 -0.6531
  599MOL0     C80786   7.441   7.092   9.109 -0.7576 -0.0706 -0.1705
  599MOL0     C80787   7.455   7.166   9.232  0.1150 -0.0242 -0.1320
  599MOL0     O80788   7.493   7.303   9.229  0.7531 -0.9913  0.2576
  599MOL0     C80789   7.494   7.389   9.345 -0.1395 -0.0659  0.6141
  599MOL0     C80790   7.623   7.369   9.424 -0.8859 -0.1577  0.0790
  599MOL0     C80791   7.757   7.413   9.363 -1.0195 -0.4059  0.9416
  599MOL0     C80792   7.783   7.569   9.355  0.8037 -0.2546  0.1833
  599MOL0     C80793   7.916   7.596   9.288  0.3175  0.7758 -0.3308
  599MOL0     C80794   8.019   7.609   9.241  0.6694 -0.2628  0.7674
  599MOL0     C80795   7.438   7.096   9.355  0.0774  0.0240 -0.2276
  599MOL0     C80796   7.387   6.963   9.351  0.8567  0.7094 -0.3045
  599MOL0     C80797   7.390   6.885   9.474 -0.4265  0.1419  0.6284
  599MOL0     H80798   7.288   6.515   9.375 -0.0585  4.0187  1.6008
  599MOL0     H80799   7.201   6.300   9.332  0.4221  0.2031 -0.1927
  599MOL0     H80800   7.087   6.087   9.277 -1.3330 -1.8086 -1.5710
  599MOL0     H80801   6.977   6.048   9.156  0.2180 -1.2395  1.6849
  599MOL0     H80802   7.212   6.063   9.101  1.3426  1.0570 -0.4224
  599MOL0     H80803   7.216   6.227   9.117  2.1578 -1.7942  1.1286
  599MOL0     H80804   7.005   6.221   8.944 -1.6859 -2.2229 -0.5012
  599MOL0     H80805   7.057   6.056   8.911 -1.8139  0.2839 -1.6073
  599MOL0     H80806   7.209   6.312   8.882 -1.1119  0.1430  1.0901
  599MOL0     H80807   7.290   6.154   8.890 -0.0526  0.7635 -0.2800
  599MOL0     H80808   7.088   6.256   8.677 -1.1849 -3.9868 -2.9359
  599MOL0     H80809   7.260   6.261   8.651  1.3936 -1.8855 -0.4134
  599MOL0     H80810   7.248   5.990   8.709 -0.1903 -3.1470 -1.4263
  599MOL0     H80811   7.074   6.025   8.667 -0.1296 -0.7578 -1.5475
  599MOL0     H80812   7.176   6.116   8.445 -0.8423 -2.9121 -2.3726
  599MOL0     H80813   7.185   5.937   8.466  2.0719 -0.8848  0.6790
  599MOL0     H80814   7.428   6.109   8.533 -0.1473  0.0368 -0.3418
  599MOL0     H80815   7.415   5.937   8.519  1.8609  0.1240 -1.5082
  599MOL0     H80816   7.397   6.263   8.289  0.6220  0.2965 -1.1302
  599MOL0     H80817   7.425   6.108   7.933 -1.2275 -1.1389  3.1608
  599MOL0     H80818   7.406   6.267   8.014  1.3959  1.5032 -2.0010
  599MOL0     H80819   7.594   6.285   7.863 -1.0816  1.7587  1.3356
  599MOL0     H80820   7.633   6.304   8.034 -1.5356 -1.3340  2.2895
  599MOL0     H80821   7.735   6.080   8.041 -0.6368  0.1996  0.3015
  599MOL0     H80822   7.800   6.179   7.910 -2.5130  4.3129 -1.7322
  599MOL0     H80823   7.566   5.991   7.843  0.9823 -1.5402 -1.3235
  599MOL0     H80824   7.723   5.923   7.891  0.1251 -1.4647 -3.6872
  599MOL0     H80825   7.662   5.784   7.687 -0.9217  0.0395 -0.3035
  599MOL0     H80826   7.775   5.631   7.545 -3.9674  0.3730  0.0072
  599MOL0     H80827   8.098   5.792   7.100 -1.6684 -1.2110 -0.3442
  599MOL0     H80828   8.205   5.683   6.911  5.2372  0.7454 -0.0968
  599MOL0     H80829   8.576   5.468   7.041 -0.1403  1.6630 -1.8890
  599MOL0     H80830   8.488   5.316   7.034  0.1724 -1.4297 -0.4783
  599MOL0     H80831   8.504   5.323   6.785  1.4269  3.9860 -3.1690
  599MOL0     H80832   8.632   5.441   6.810 -2.7814  1.4365 -0.4772
  599MOL0     H80833   8.773   5.303   6.942  0.0283 -1.4455  3.2459
  599MOL0     H80834   8.654   5.172   6.950 -0.2599  0.3452 -0.0100
  599MOL0     H80835   8.756   5.256   6.678  1.9509  0.9586  0.6416
  599MOL0     H80836   8.674   5.109   6.738  1.1654 -1.3330  1.1893
  599MOL0     H80837   8.871   5.028   6.828  1.7636 -0.2959 -0.1363
  599MOL0     H80838   8.970   5.174   6.799  1.1491  0.5917 -2.5959
  599MOL0     H80839   8.841   4.987   6.595 -1.2737  1.7150 -0.5037
  599MOL0     H80840   8.918   5.136   6.543  1.3659  2.5718  1.3091
  599MOL0     H80841   9.132   5.031   6.694 -1.7608  2.5788  0.9165
  599MOL0     H80842   9.110   5.029   6.522  3.5460  2.0172  2.3190
  599MOL0     H80843   9.044   4.813   6.733  2.3301 -1.7750 -0.2557
  599MOL0     H80844   8.978   4.798   6.566  1.2751 -0.3350 -0.2708
  599MOL0     H80845   8.401   5.415   7.198  2.5265  2.6063  1.1423
  599MOL0     H80846   8.257   5.525   7.373 -1.9612  1.4003 -0.1044
  599MOL0     H80847   8.060   5.951   7.427 -1.3079  0.4736 -3.5298
  599MOL0     H80848   7.913   6.109   7.550 -0.4340  0.2633 -1.3727
  599MOL0     H80849   6.852   6.488   9.142 -1.0908 -0.4091  0.7128
  599MOL0     H80850   6.944   6.704   9.207  0.2719  0.6457 -0.5617
  599MOL0     H80851   7.357   6.930   9.014  1.6460  2.5704 -1.7504
  599MOL0     H80852   7.454   7.142   9.014 -2.2050 -0.2738 -0.4879
  599MOL0     H80853   7.415   7.383   9.420  0.3706  0.6302  1.2211
  599MOL0     H80854   7.491   7.493   9.313 -0.8183  0.5028  2.3993
  599MOL0     H80855   7.634   7.262   9.443  0.7115 -0.1769 -0.7936
  599MOL0     H80856   7.603   7.407   9.525 -1.5682 -1.0781  0.3073
  599MOL0     H80857   7.772   7.370   9.264  1.6930  0.3499  0.9373
  599MOL0     H80858   7.834   7.372   9.429 -1.6863 -1.2216  1.2270
  599MOL0     H80859   7.701   7.606   9.292  0.0567  1.3548  2.0083
  599MOL0     H80860   7.778   7.614   9.454  2.5316  1.1172 -0.2919
  599MOL0     H80861   8.117   7.642   9.211  0.0053  1.1439  0.0245
  599MOL0     H80862   7.452   7.145   9.451  0.1751 -1.7385  0.7171
  599MOL0     H80863   7.393   6.779   9.451 -2.3734  0.7500 -3.2552
  599MOL0     H80864   7.486   6.907   9.522  0.7424  0.2739 -1.6606
  599MOL0     H80865   7.302   6.905   9.536 -1.5967 -3.6453  0.4364
  600MOL0     O80866   9.058   0.561   3.602  1.1035  0.4031  0.4296
  600MOL0     C80867   9.009   0.497   3.513  1.2421  0.0946  0.7098
  600MOL0     O80868   9.052   0.379   3.461  0.2847 -0.5055  0.0134
  600MOL0     C80869   9.167   0.329   3.505 -0.2135  0.4547 -0.6299
  600MOL0     C80870   9.157   0.234   3.607 -0.3716 -0.6236  0.4871
  600MOL0     C80871   9.276   0.194   3.661 -0.0177  0.6214 -0.6946
  600MOL0     C80872   9.404   0.239   3.609 -0.7064 -0.2254 -0.9329
  600MOL0     O80873   9.524   0.192   3.665  0.6528 -0.1957  0.4916
  600MOL0     C80874   9.541   0.159   3.804 -0.8432 -0.5345 -0.3709
  600MOL0     C80875   9.687   0.172   3.863  0.6952  0.1337 -0.4906
  600MOL0     C80876   9.789   0.092   3.782 -0.1401  1.1436  0.0058
  600MOL0     C80877   9.781  -0.059   3.788  0.2241  0.3992  0.6082
  600MOL0     C80878   9.910  -0.126   3.800  0.1381  0.6453 -0.1629
  600MOL0     C80879   9.900  -0.283   3.834  0.2257  0.0377 -0.0096
  600MOL0     C80880  10.039  -0.335   3.838  0.5814  0.8860  0.3375
  600MOL0     C80881  10.111  -0.321   3.972 -0.0536 -0.2145  0.1334
  600MOL0     N80882  10.244  -0.370   3.958 -0.0552  0.0039  0.3179
  600MOL0     C80883  10.348  -0.297   3.915  1.7718  0.6858 -0.6101
  600MOL0     C80884  10.456  -0.373   3.902 -0.6675 -0.3354 -0.0242
  600MOL0     C80885  10.590  -0.309   3.898 -1.3290  0.2101  0.1009
  600MOL0     C80886  10.666  -0.333   4.025  0.3586  0.3084 -0.2423
  600MOL0     C80887  10.819  -0.294   4.022  0.3531 -0.5041 -0.6122
  600MOL0     C80888  10.909  -0.407   3.977  0.2480  0.8276  0.6383
  600MOL0     O80889  10.949  -0.476   4.096  0.5755 -0.8556  0.1474
  600MOL0     C80890  11.064  -0.540   4.090 -1.2549 -0.2567 -0.0430
  600MOL0     C80891  11.147  -0.557   4.210 -0.5751  0.0256  0.0468
  600MOL0     C80892  11.271  -0.619   4.202  0.0727  0.2064  0.6377
  600MOL0     C80893  11.313  -0.682   4.086  0.0788  0.7828  0.0397
  600MOL0     C80894  11.437  -0.776   4.084  0.5497 -0.8717 -0.6362
  600MOL0     O80895  11.529  -0.760   4.189  0.3161  0.4677  0.8696
  600MOL0     C80896  11.631  -0.851   4.203  0.2223 -0.1841 -0.0528
  600MOL0     C80897  11.750  -0.805   4.265 -0.7197  0.4904 -0.6521
  600MOL0     C80898  11.864  -0.885   4.274  0.6026 -0.0152  0.2039
  600MOL0     C80899  11.851  -1.018   4.247 -0.2138  0.0235  0.2126
  600MOL0     O80900  11.950  -1.110   4.250  0.5962  0.3160 -0.4211
  600MOL0     C80901  12.083  -1.076   4.300  0.5011 -0.0204  0.0562
  600MOL0     C80902  12.166  -1.204   4.339 -0.3795 -0.2166  0.4419
  600MOL0     C80903  12.158  -1.312   4.225 -0.5199 -1.2074 -0.1987
  600MOL0     C80904  12.273  -1.426   4.245  0.3689 -0.2934 -0.0668
  600MOL0     C80905  12.263  -1.540   4.130  1.4844 -0.4054  0.7535
  600MOL0     C80906  12.135  -1.623   4.124  0.2820  0.4001  0.8178
  600MOL0     C80907  12.136  -1.738   4.015 -0.8077 -0.2591  0.4040
  600MOL0     C80908  12.011  -1.825   4.020  0.0505  0.6676 -0.2528
  600MOL0    Cl80909  11.861  -1.727   4.064  0.3090  0.1520  0.1460
  600MOL0     C80910  11.735  -1.077   4.204  0.4495  0.7051 -0.0335
  600MOL0     C80911  11.616  -0.995   4.181  0.0290 -0.3488 -1.2360
  600MOL0     O80912  11.443  -0.858   3.993  0.2036 -0.2851  0.1068
  600MOL0     C80913  11.230  -0.678   3.979 -0.7209  0.0779  1.1262
  600MOL0     C80914  11.114  -0.603   3.976 -0.2092  0.8705 -0.6115
  600MOL0     N80915  10.418  -0.506   3.912  0.9380  0.1517 -0.5959
  600MOL0     N80916  10.288  -0.503   3.936  0.7321 -0.4281 -0.5630
  600MOL0     C80917   9.401   0.337   3.519 -0.4935  0.1992  0.0926
  600MOL0     C80918   9.288   0.386   3.461  0.2239  0.6972 -0.2849
  600MOL0     C80919   8.873   0.552   3.466 -0.3580 -0.4982 -0.3989
  600MOL0     C80920   8.757   0.509   3.526 -0.5731 -0.1732 -0.5824
  600MOL0     C80921   8.634   0.561   3.474  0.2954  0.2038 -0.3687
  600MOL0     C80922   8.628   0.661   3.376 -0.2426  0.8722 -0.9042
  600MOL0     O80923   8.514   0.720   3.324 -0.0157  0.3580  0.2718
  600MOL0     C80924   8.386   0.698   3.380 -0.8761 -0.3564  0.4829
  600MOL0     C80925   8.358   0.771   3.509  0.0265  0.4717 -0.2172
  600MOL0     C80926   8.208   0.737   3.557  1.0921 -0.1060 -0.3397
  600MOL0     C80927   8.137   0.835   3.647 -0.4625 -0.7775  0.5633
  600MOL0     C80928   8.121   0.972   3.589 -0.6054  1.0826  0.2630
  600MOL0     C80929   8.093   1.074   3.530 -0.6970 -1.0253 -1.4838
  600MOL0     C80930   8.747   0.698   3.320 -0.5667 -0.0521  0.0606
  600MOL0     C80931   8.869   0.644   3.362 -0.4798  0.6966 -0.3323
  600MOL0     C80932   9.004   0.677   3.293 -0.0927  1.0305 -0.7317
  600MOL0     H80933   9.060   0.200   3.643 -1.4188  1.0467 -0.5965
  600MOL0     H80934   9.284   0.126   3.745 -0.1124  2.5244  0.9209
  600MOL0     H80935   9.462   0.201   3.866 -0.1010 -1.4125  1.2306
  600MOL0     H80936   9.530   0.050   3.800 -0.1846 -0.6751  1.0352
  600MOL0     H80937   9.690   0.129   3.963  0.1129  0.1760 -0.4525
  600MOL0     H80938   9.715   0.277   3.859 -1.0212  0.5913 -2.2353
  600MOL0     H80939   9.888   0.121   3.818  1.2413 -1.4360 -1.3920
  600MOL0     H80940   9.789   0.124   3.677 -0.7053  0.0429 -0.3465
  600MOL0     H80941   9.722  -0.090   3.875 -2.1236  0.4199 -0.8981
  600MOL0     H80942   9.738  -0.085   3.691  0.5121  1.5331  0.1652
  600MOL0     H80943   9.959  -0.112   3.703  3.1860  1.3430  1.3255
  600MOL0     H80944   9.964  -0.075   3.880  0.0270  0.7535 -0.1558
  600MOL0     H80945   9.851  -0.299   3.931  0.7223  0.5670  0.3388
  600MOL0     H80946   9.838  -0.338   3.762 -0.6973 -3.1998  2.9663
  600MOL0     H80947  10.101  -0.292   3.759 -0.5801 -0.9915 -1.7121
  600MOL0     H80948  10.020  -0.441   3.818 -1.6635  1.4986 -1.0109
  600MOL0     H80949  10.113  -0.213   3.988 -1.6099 -0.2430  0.6248
  600MOL0     H80950  10.059  -0.378   4.049  3.0381 -1.9223  1.1652
  600MOL0     H80951  10.349  -0.189   3.903 -2.1963  0.6862 -2.3672
  600MOL0     H80952  10.647  -0.351   3.815  0.1634  1.6184  0.3536
  600MOL0     H80953  10.575  -0.201   3.887 -2.3397  0.0382 -0.2850
  600MOL0     H80954  10.627  -0.257   4.095  1.5442 -0.4184  1.2808
  600MOL0     H80955  10.646  -0.432   4.067 -0.6936  0.4552 -0.3682
  600MOL0     H80956  10.845  -0.270   4.125 -3.3384 -2.4118  0.9390
  600MOL0     H80957  10.834  -0.202   3.965 -0.1721  1.1163  1.7349
  600MOL0     H80958  10.999  -0.362   3.935 -0.1019  4.0479  3.0113
  600MOL0     H80959  10.851  -0.477   3.916 -0.8329  1.6948  0.6401
  600MOL0     H80960  11.109  -0.509   4.299  1.1863 -0.5917  1.1758
  600MOL0     H80961  11.333  -0.629   4.290  2.3065 -1.9951 -1.0522
  600MOL0     H80962  11.762  -0.700   4.291  0.5110  0.3815 -0.6986
  600MOL0     H80963  11.964  -0.847   4.291 -0.3604  2.6696  0.3906
  600MOL0     H80964  12.146  -1.020   4.230  0.1431  1.9897  1.2650
  600MOL0     H80965  12.066  -1.008   4.384 -0.2799  0.9057 -0.8191
  600MOL0     H80966  12.270  -1.182   4.365  0.5418 -3.6474  0.1200
  600MOL0     H80967  12.125  -1.255   4.426 -0.5137  0.6518  0.8948
  600MOL0     H80968  12.060  -1.362   4.219 -0.4494 -1.2704 -0.9773
  600MOL0     H80969  12.166  -1.262   4.128  0.8717  0.4663  0.7256
  600MOL0     H80970  12.257  -1.477   4.340  1.0531 -0.0985  0.1630
  600MOL0     H80971  12.373  -1.384   4.261  1.3774 -2.5824  0.1037
  600MOL0     H80972  12.340  -1.617   4.122  0.4653 -1.3240 -0.8728
  600MOL0     H80973  12.270  -1.497   4.030  1.5104  1.4642  1.5120
  600MOL0     H80974  12.132  -1.682   4.216  1.6297  2.8802  2.5648
  600MOL0     H80975  12.049  -1.555   4.116 -1.7297 -1.7426  2.7696
  600MOL0     H80976  12.222  -1.806   4.019  1.1436  2.0637  0.0569
  600MOL0     H80977  12.139  -1.688   3.918 -2.8391  0.2915  0.5741
  600MOL0     H80978  12.002  -1.875   3.923  1.9940  1.2543 -0.7699
  600MOL0     H80979  12.023  -1.907   4.091  0.3836 -0.7144 -1.8299
  600MOL0     H80980  11.734  -1.184   4.186  3.1536  0.6069 -0.0430
  600MOL0     H80981  11.528  -1.053   4.153 -0.0605 -0.3697 -0.9192
  600MOL0     H80982  11.261  -0.722   3.884 -0.5410 -0.3914  1.3955
  600MOL0     H80983  11.063  -0.594   3.880  1.0757 -0.2374 -1.4342
  600MOL0     H80984   9.497   0.384   3.496 -0.1543  0.2645  1.5655
  600MOL0     H80985   9.299   0.478   3.404  2.7767  1.1002  0.7240
  600MOL0     H80986   8.760   0.436   3.607 -0.7071  1.9652  1.4670
  600MOL0     H80987   8.539   0.524   3.512 -0.8623  1.3980 -1.9562
  600MOL0     H80988   8.378   0.591   3.399  0.6327 -0.5034  0.3977
  600MOL0     H80989   8.315   0.724   3.300  0.0647 -2.1750 -1.0179
  600MOL0     H80990   8.372   0.878   3.497  3.9347  0.4014  2.0262
  600MOL0     H80991   8.437   0.740   3.578 -0.5550 -3.9414 -1.2263
  600MOL0     H80992   8.214   0.644   3.615 -2.2979 -0.8985 -1.0712
  600MOL0     H80993   8.144   0.709   3.473  2.4667  0.6443 -1.6963
  600MOL0     H80994   8.044   0.789   3.682 -2.7096  2.0919 -1.1032
  600MOL0     H80995   8.193   0.866   3.736  0.1045 -0.6282  0.1608
  600MOL0     H80996   8.076   1.165   3.476 -2.3614 -0.6581 -0.4114
  600MOL0     H80997   8.747   0.781   3.250  0.3840  2.4471  2.8110
  600MOL0     H80998   8.985   0.745   3.209 -0.0103  1.4829 -0.3934
  600MOL0     H80999   9.065   0.731   3.366  0.9304 -1.8439  0.6957
  600MOL0     H81000   9.054   0.585   3.264  0.9055  1.4754 -0.4840
  601MOL0     O81001   6.593   5.970   1.678 -0.6653 -0.5599  0.6181
  601MOL0     C81002   6.517   6.065   1.668  0.1687 -0.8024  0.9179
  601MOL0     O81003   6.545   6.186   1.602  0.1992 -0.3735  0.2501
  601MOL0     C81004   6.660   6.184   1.540 -0.0531  0.3068 -0.3184
  601MOL0     C81005   6.766   6.254   1.602 -0.1852  0.1414 -0.0817
  601MOL0     C81006   6.882   6.266   1.527  0.4710  0.1597 -0.0619
  601MOL0     C81007   6.897   6.197   1.407 -1.6105 -0.2007 -0.2890
  601MOL0     O81008   7.025   6.206   1.348  0.1961  0.1251  0.6863
  601MOL0     C81009   7.041   6.151   1.213 -0.4434  0.7647 -0.9301
  601MOL0     C81010   7.177   6.177   1.145  0.1433 -0.6179  0.1288
  601MOL0     C81011   7.189   6.314   1.096 -0.1403 -0.2181  0.0616
  601MOL0     C81012   7.329   6.358   1.043 -0.0974  0.1263 -0.2488
  601MOL0     C81013   7.436   6.362   1.144 -0.5343 -0.7025  0.1622
  601MOL0     C81014   7.573   6.367   1.075 -1.1702  0.2154  0.3092
  601MOL0     C81015   7.686   6.382   1.178 -0.1354  0.3992 -0.5353
  601MOL0     C81016   7.826   6.409   1.120 -0.5807  0.6928 -0.7923
  601MOL0     N81017   7.888   6.291   1.066  0.1982  0.1963 -0.0423
  601MOL0     C81018   7.948   6.197   1.142  0.3066  0.3789 -0.0025
  601MOL0     C81019   7.982   6.106   1.047  0.7322 -0.1798 -0.7575
  601MOL0     C81020   8.046   5.975   1.092 -0.6055 -0.2505 -0.4468
  601MOL0     C81021   8.192   5.997   1.121  0.2209  0.4635  0.2239
  601MOL0     C81022   8.275   5.889   1.049 -0.3468  0.1295  0.3854
  601MOL0     C81023   8.415   5.922   1.067 -0.5225 -0.2150  0.7405
  601MOL0     O81024   8.448   5.879   1.200  0.1080  0.7553  0.5386
  601MOL0     C81025   8.575   5.913   1.231 -0.4130 -0.6373 -0.1422
  601MOL0     C81026   8.598   5.990   1.344 -0.2405  0.9217  0.0398
  601MOL0     C81027   8.724   6.040   1.380 -0.7672  0.0970 -1.2872
  601MOL0     C81028   8.833   5.995   1.312 -0.2094  0.1385  0.3728
  601MOL0     C81029   8.968   6.055   1.341 -0.0400  0.9831  0.4737
  601MOL0     O81030   9.064   5.991   1.279 -0.7418 -0.3353 -0.7774
  601MOL0     C81031   9.197   6.040   1.285 -0.3903 -0.8626 -0.7368
  601MOL0     C81032   9.236   6.175   1.278  0.1088 -0.5379  0.0848
  601MOL0     C81033   9.369   6.215   1.286  0.4800 -0.0305 -0.1038
  601MOL0     C81034   9.467   6.119   1.278 -0.2351  0.5956 -0.4841
  601MOL0     O81035   9.600   6.161   1.282 -0.3612  0.1154 -0.2961
  601MOL0     C81036   9.712   6.074   1.244  0.4342 -0.3480 -0.6227
  601MOL0     C81037   9.844   6.158   1.264 -0.2175  0.3401 -0.1342
  601MOL0     C81038   9.971   6.088   1.206 -0.5436  0.6479  0.3766
  601MOL0     C81039  10.087   6.194   1.195 -0.2871 -0.1829 -0.3533
  601MOL0     C81040  10.213   6.128   1.144  0.2664  0.0319  0.5837
  601MOL0     C81041  10.250   6.001   1.227 -0.1438  0.5587  0.7092
  601MOL0     C81042  10.400   5.982   1.217  0.3436 -0.5196  0.4073
  601MOL0     C81043  10.461   5.889   1.105 -0.4986 -0.2312 -0.7581
  601MOL0    Cl81044  10.460   5.979   0.963  0.2741  0.4156 -0.1500
  601MOL0     C81045   9.430   5.978   1.280  0.4854 -1.1366 -0.2962
  601MOL0     C81046   9.294   5.944   1.288  0.1955  0.0689 -0.4629
  601MOL0     O81047   8.975   6.156   1.415  0.3444 -0.1411  0.4720
  601MOL0     C81048   8.823   5.898   1.212  0.7783  0.3184  0.1604
  601MOL0     C81049   8.689   5.866   1.165  0.8464 -0.1507 -0.8051
  601MOL0     N81050   7.953   6.142   0.922  0.1477  0.0800 -0.4033
  601MOL0     N81051   7.887   6.250   0.932  0.0983  0.1397  0.1517
  601MOL0     C81052   6.791   6.119   1.351 -0.1551  0.0363 -0.7566
  601MOL0     C81053   6.673   6.109   1.422 -0.3337 -0.5637 -1.0567
  601MOL0     C81054   6.391   6.050   1.747  0.0692 -0.0995 -1.3832
  601MOL0     C81055   6.369   6.139   1.865  0.2456  0.5651  0.4932
  601MOL0     C81056   6.252   6.120   1.932 -0.1396 -0.0069 -0.2621
  601MOL0     C81057   6.168   6.016   1.899  0.2714 -0.1911 -1.4964
  601MOL0     O81058   6.055   5.998   1.977  0.4270  0.4514 -0.1466
  601MOL0     C81059   6.080   5.959   2.109  0.1745 -0.5923  0.8562
  601MOL0     C81060   6.021   5.819   2.135 -0.0179 -0.2297 -0.1798
  601MOL0     C81061   6.113   5.744   2.234  0.4538 -0.6219 -0.2015
  601MOL0     C81062   6.055   5.623   2.288 -0.5175  0.1171  0.5145
  601MOL0     C81063   6.146   5.570   2.391 -0.5648  0.4307 -0.4188
  601MOL0     C81064   6.236   5.521   2.462  0.1579  0.4085  0.0294
  601MOL0     C81065   6.205   5.927   1.806  0.3167  0.0164 -0.6979
  601MOL0     C81066   6.306   5.946   1.717  0.0172 -0.5272  0.2354
  601MOL0     C81067   6.326   5.854   1.606  0.5708  0.4174  0.2403
  601MOL0     H81068   6.760   6.298   1.700  0.9145  0.5242 -0.1672
  601MOL0     H81069   6.964   6.331   1.556 -1.0727  1.6452  1.1747
  601MOL0     H81070   7.031   6.042   1.214 -0.0415  0.6437  2.5285
  601MOL0     H81071   6.962   6.193   1.150 -1.8248  1.8985  1.4143
  601MOL0     H81072   7.179   6.111   1.058 -1.8359 -2.1411  1.1496
  601MOL0     H81073   7.253   6.146   1.217  0.3625  2.3856  1.3322
  601MOL0     H81074   7.147   6.383   1.170 -1.2272  2.1174 -2.5472
  601MOL0     H81075   7.122   6.319   1.009 -0.8984 -1.8163  0.5189
  601MOL0     H81076   7.358   6.286   0.966 -2.0578  4.0722 -5.2532
  601MOL0     H81077   7.336   6.454   0.991  2.7054  1.0584  1.5771
  601MOL0     H81078   7.419   6.455   1.198 -1.1862  0.1304 -1.4230
  601MOL0     H81079   7.431   6.277   1.214  2.4483 -1.2561 -0.1540
  601MOL0     H81080   7.602   6.280   1.016  1.6974  0.2235  1.5152
  601MOL0     H81081   7.574   6.447   1.000 -0.3961  1.7813  1.9268
  601MOL0     H81082   7.696   6.299   1.249 -1.7584 -0.8562 -1.6835
  601MOL0     H81083   7.665   6.472   1.236  0.3626  1.3802 -1.8421
  601MOL0     H81084   7.824   6.493   1.049  3.0643  0.6575 -1.1647
  601MOL0     H81085   7.885   6.448   1.204 -0.6590 -1.0232  0.0898
  601MOL0     H81086   7.960   6.202   1.250 -0.5289  3.6952  0.0567
  601MOL0     H81087   8.010   5.936   1.187  1.6398  1.3157  1.1580
  601MOL0     H81088   8.018   5.891   1.028 -0.2365 -0.9545  0.2976
  601MOL0     H81089   8.217   6.096   1.082 -0.0302  0.1457 -0.7883
  601MOL0     H81090   8.206   5.995   1.229 -1.2072 -2.5623  0.4634
  601MOL0     H81091   8.259   5.889   0.941 -1.2614  0.4631  0.5186
  601MOL0     H81092   8.253   5.792   1.093  1.0425 -0.9657 -1.2226
  601MOL0     H81093   8.424   6.031   1.057 -0.2545 -0.3119 -0.2791
  601MOL0     H81094   8.467   5.877   0.981 -1.2718  1.6542 -0.7723
  601MOL0     H81095   8.508   6.014   1.400 -1.5938 -3.7161  0.2451
  601MOL0     H81096   8.728   6.097   1.473  2.8780 -0.7163 -0.8221
  601MOL0     H81097   9.170   6.261   1.273  3.0764  1.8407 -2.4851
  601MOL0     H81098   9.390   6.321   1.290 -1.0827  0.2641  1.3490
  601MOL0     H81099   9.705   5.987   1.310 -0.6587  1.4063  1.7168
  601MOL0     H81100   9.687   6.046   1.141 -2.2741 -1.7838  0.3229
  601MOL0     H81101   9.844   6.260   1.224  2.5246 -0.2929 -2.0872
  601MOL0     H81102   9.843   6.176   1.372 -1.2725  0.5839 -0.1735
  601MOL0     H81103   9.998   5.999   1.262 -3.0763 -1.9257 -2.1440
  601MOL0     H81104   9.963   6.049   1.105 -2.0768 -1.1132  1.1210
  601MOL0     H81105  10.096   6.245   1.292  1.7237  0.3591 -0.7825
  601MOL0     H81106  10.065   6.272   1.122 -0.0405 -0.8453 -1.1446
  601MOL0     H81107  10.297   6.197   1.151  0.4964 -0.0543 -1.0045
  601MOL0     H81108  10.191   6.102   1.040  1.5787  1.1603 -0.0073
  601MOL0     H81109  10.222   6.009   1.333 -0.0644  3.5780  0.5964
  601MOL0     H81110  10.199   5.911   1.190 -0.4471  1.1731 -0.4066
  601MOL0     H81111  10.422   5.942   1.316 -1.4516 -2.2739  0.1483
  601MOL0     H81112  10.456   6.076   1.211 -0.6870  0.0622 -0.3273
  601MOL0     H81113  10.558   5.842   1.129 -0.4647  0.9494  1.7277
  601MOL0     H81114  10.397   5.803   1.082  1.0230 -1.2947 -1.2148
  601MOL0     H81115   9.502   5.897   1.282 -0.1088 -1.6664 -0.1076
  601MOL0     H81116   9.251   5.845   1.283 -2.1069  0.9756  0.2565
  601MOL0     H81117   8.914   5.859   1.167  1.2435 -1.2163  2.2625
  601MOL0     H81118   8.682   5.790   1.088 -0.3112 -0.3619 -0.5195
  601MOL0     H81119   6.785   6.072   1.254 -0.8131 -0.8796 -0.2923
  601MOL0     H81120   6.589   6.046   1.394 -1.3827  0.2812  0.0400
  601MOL0     H81121   6.434   6.220   1.897 -0.2785  1.0687  0.2841
  601MOL0     H81122   6.226   6.196   2.005  1.4862  1.4719 -1.1641
  601MOL0     H81123   6.018   6.023   2.173 -2.3118 -1.9452 -0.0662
  601MOL0     H81124   6.182   5.979   2.143 -0.2779  2.9239  0.4690
  601MOL0     H81125   6.006   5.771   2.038 -2.7138  1.7750 -0.8788
  601MOL0     H81126   5.921   5.829   2.177  0.1401  0.4735  0.0441
  601MOL0     H81127   6.143   5.810   2.316  1.6652 -2.6240  1.0598
  601MOL0     H81128   6.204   5.726   2.176  1.1249  0.0509  0.6078
  601MOL0     H81129   5.962   5.647   2.341 -0.6100  2.0211 -0.4266
  601MOL0     H81130   6.037   5.557   2.202  3.0199  2.1323 -2.0146
  601MOL0     H81131   6.308   5.474   2.527 -0.1318  0.7128  0.5702
  601MOL0     H81132   6.150   5.834   1.805  0.8928 -0.5063  3.1293
  601MOL0     H81133   6.337   5.910   1.513 -0.0197 -1.3956 -0.9807
  601MOL0     H81134   6.413   5.791   1.625 -1.5907 -3.0455 -0.3145
  601MOL0     H81135   6.240   5.786   1.603 -0.2212  1.3733  0.7265
  602MOL0     O81136   7.748   0.616   7.100  0.5838 -0.0722 -0.4533
  602MOL0     C81137   7.640   0.667   7.085 -0.0035  0.0977  0.6281
  602MOL0     O81138   7.619   0.798   7.058  0.5811  0.0146  0.4090
  602MOL0     C81139   7.732   0.868   7.019  0.2440  0.0958 -0.5324
  602MOL0     C81140   7.801   0.956   7.105 -0.0110  0.2134 -0.6187
  602MOL0     C81141   7.915   1.030   7.065 -0.0298 -0.0286  0.1087
  602MOL0     C81142   7.959   1.020   6.937 -0.8149  0.0879  0.5496
  602MOL0     O81143   8.069   1.099   6.905  0.4261 -0.6107 -0.5157
  602MOL0     C81144   8.119   1.095   6.775 -0.3618 -0.1576 -0.6552
  602MOL0     C81145   8.237   1.193   6.766 -0.5693 -0.2246  0.1803
  602MOL0     C81146   8.347   1.183   6.871 -0.2933 -0.9001  0.2749
  602MOL0     C81147   8.463   1.280   6.822  0.4817 -0.3863 -0.7300
  602MOL0     C81148   8.597   1.286   6.900  0.7503 -0.3650 -0.2533
  602MOL0     C81149   8.721   1.330   6.814  0.2431 -0.8916  0.7066
  602MOL0     C81150   8.853   1.332   6.884 -0.0302  0.8748 -0.2577
  602MOL0     C81151   8.876   1.410   7.014  0.1856  0.2883  0.4186
  602MOL0     N81152   9.010   1.464   7.028 -0.1580 -0.2449  0.2661
  602MOL0     C81153   9.115   1.395   7.082  0.0345  0.2282 -0.5628
  602MOL0     C81154   9.213   1.486   7.063 -0.4521  0.3732  0.0524
  602MOL0     C81155   9.362   1.450   7.082 -0.7718  0.9600  0.2451
  602MOL0     C81156   9.409   1.419   7.232  0.1401  0.1344 -0.3576
  602MOL0     C81157   9.544   1.342   7.241  0.7213 -0.7708 -0.1078
  602MOL0     C81158   9.606   1.343   7.382 -0.6191 -0.4556  0.0823
  602MOL0     O81159   9.707   1.247   7.388  0.0972 -0.9016 -0.3327
  602MOL0     C81160   9.839   1.280   7.368  0.4796  1.3663 -0.0260
  602MOL0     C81161   9.895   1.380   7.290  0.4444  0.1127 -0.4697
  602MOL0     C81162  10.031   1.396   7.281 -0.1733  1.1933 -0.2768
  602MOL0     C81163  10.125   1.314   7.345  0.2226 -0.1877 -0.2863
  602MOL0     C81164  10.262   1.336   7.325 -0.6726 -0.0935  0.5038
  602MOL0     O81165  10.350   1.234   7.355  0.8335  0.6226 -0.1542
  602MOL0     C81166  10.482   1.265   7.374  0.3127  0.0385  0.5338
  602MOL0     C81167  10.533   1.393   7.418  0.4358 -0.6579  0.4900
  602MOL0     C81168  10.667   1.409   7.453 -0.5008  0.1236 -0.3259
  602MOL0     C81169  10.762   1.310   7.429  0.0577 -0.4311 -0.3496
  602MOL0     O81170  10.893   1.334   7.462 -0.5253  0.4126  0.2463
  602MOL0     C81171  10.984   1.299   7.346  1.2590  0.5411  0.6069
  602MOL0     C81172  11.109   1.238   7.414 -0.5684 -0.8135 -0.2699
  602MOL0     C81173  11.067   1.130   7.512  0.4617 -0.7945 -0.1563
  602MOL0     C81174  11.191   1.051   7.556  0.2240  0.5896 -0.3411
  602MOL0     C81175  11.255   0.966   7.443 -0.2777 -1.0083  0.1909
  602MOL0     C81176  11.402   0.953   7.469 -0.2285 -0.5824  0.2161
  602MOL0     C81177  11.482   0.914   7.346 -0.3262 -0.2206  0.3010
  602MOL0     C81178  11.629   0.953   7.360  0.5480  0.1905  0.2534
  602MOL0    Cl81179  11.707   0.970   7.201  0.3090  0.0447  0.0701
  602MOL0     C81180  10.714   1.186   7.387 -0.0161  1.0293  0.1226
  602MOL0     C81181  10.582   1.168   7.354  0.1648 -0.7591 -0.7139
  602MOL0     O81182  10.293   1.445   7.276 -0.3626  0.0405 -0.4383
  602MOL0     C81183  10.069   1.207   7.416  0.1339 -0.9199 -1.0409
  602MOL0     C81184   9.934   1.188   7.427  1.3452  0.2158  0.0638
  602MOL0     N81185   9.168   1.605   7.010 -0.4086  0.1171 -0.2080
  602MOL0     N81186   9.042   1.585   6.984  0.4220 -0.0036  0.4379
  602MOL0     C81187   7.890   0.934   6.841  0.6095 -0.3058 -0.3272
  602MOL0     C81188   7.783   0.856   6.888  0.8148 -0.5864 -0.5787
  602MOL0     C81189   7.523   0.586   7.105 -0.0884  0.5698 -0.6388
  602MOL0     C81190   7.530   0.474   7.198  0.5473  0.1485 -0.9151
  602MOL0     C81191   7.418   0.396   7.225 -0.6554 -0.5725  0.0911
  602MOL0     C81192   7.302   0.411   7.146  0.4167  0.2371 -0.1359
  602MOL0     O81193   7.194   0.324   7.179 -0.0271  0.3585 -0.1519
  602MOL0     C81194   7.067   0.374   7.154 -0.2317 -0.5971 -0.2220
  602MOL0     C81195   6.984   0.300   7.250 -0.5169 -0.1500 -0.3442
  602MOL0     C81196   6.845   0.362   7.246 -0.5195 -0.2673 -0.8794
  602MOL0     C81197   6.832   0.480   7.348  0.2024  0.0752 -0.8311
  602MOL0     C81198   6.700   0.527   7.331  0.1209  0.8482 -0.0464
  602MOL0     C81199   6.587   0.576   7.305  0.3077  0.4146 -0.4992
  602MOL0     C81200   7.298   0.521   7.049  0.5091 -0.1192 -0.6206
  602MOL0     C81201   7.406   0.605   7.032 -0.0423 -0.7142 -0.0771
  602MOL0     C81202   7.393   0.710   6.931  1.0832  0.0328  0.3498
  602MOL0     H81203   7.770   0.959   7.209 -0.4517  0.0489 -0.7446
  602MOL0     H81204   7.962   1.096   7.137  1.0003 -0.2007 -0.3817
  602MOL0     H81205   8.157   0.994   6.754 -0.7201 -0.6453  0.8713
  602MOL0     H81206   8.045   1.115   6.696  1.5743  0.5218 -2.3717
  602MOL0     H81207   8.190   1.291   6.773  0.3305  0.2011  0.3361
  602MOL0     H81208   8.273   1.174   6.664  0.4775  2.5373 -0.0327
  602MOL0     H81209   8.384   1.080   6.873  1.3274 -0.5483 -3.3271
  602MOL0     H81210   8.311   1.214   6.969 -1.3879  1.0179 -0.6629
  602MOL0     H81211   8.486   1.248   6.720  1.7873  1.2706 -1.0043
  602MOL0     H81212   8.433   1.385   6.815 -0.4406 -0.6552 -0.9643
  602MOL0     H81213   8.596   1.351   6.988  0.6970  1.1235 -1.3046
  602MOL0     H81214   8.600   1.179   6.920 -1.1937 -0.3027  0.6401
  602MOL0     H81215   8.729   1.269   6.723  0.9744  0.6325 -0.2833
  602MOL0     H81216   8.706   1.435   6.787  3.7334 -0.3964  0.2786
  602MOL0     H81217   8.941   1.353   6.823  2.3834 -0.0280  2.6865
  602MOL0     H81218   8.872   1.226   6.904  1.7582  0.8851 -1.6779
  602MOL0     H81219   8.805   1.493   7.026  0.1672  0.3431 -0.0475
  602MOL0     H81220   8.857   1.341   7.097  1.3890 -0.0205  0.4501
  602MOL0     H81221   9.117   1.287   7.099 -1.6505  0.2638  0.0087
  602MOL0     H81222   9.386   1.362   7.022 -3.7738 -0.3093  0.7407
  602MOL0     H81223   9.424   1.528   7.038  0.4282 -0.5913 -0.9406
  602MOL0     H81224   9.426   1.516   7.280 -0.6628  0.5031 -0.7972
  602MOL0     H81225   9.322   1.379   7.285  0.6992  2.1901  2.3198
  602MOL0     H81226   9.606   1.402   7.174 -0.5961  0.6383 -0.1275
  602MOL0     H81227   9.518   1.243   7.203 -0.0910  0.1095 -1.9916
  602MOL0     H81228   9.526   1.319   7.454 -0.7886 -1.0574 -0.3017
  602MOL0     H81229   9.654   1.439   7.403 -1.9286  0.5003 -1.0902
  602MOL0     H81230   9.827   1.453   7.246 -1.1562  0.7122  2.7077
  602MOL0     H81231  10.072   1.478   7.223  2.2273  0.4299  0.2354
  602MOL0     H81232  10.472   1.476   7.450 -0.9336 -1.0830 -0.8734
  602MOL0     H81233  10.697   1.508   7.486 -0.5673 -0.9358  3.3312
  602MOL0     H81234  10.939   1.232   7.273 -0.1554  0.4635  1.5142
  602MOL0     H81235  11.011   1.387   7.287  0.2275 -0.8434 -2.0753
  602MOL0     H81236  11.178   1.194   7.341 -0.1170 -0.9315  0.2173
  602MOL0     H81237  11.171   1.316   7.458 -1.6590  2.0827 -3.4344
  602MOL0     H81238  11.016   1.181   7.595 -1.1539  0.1184 -1.6364
  602MOL0     H81239  10.993   1.068   7.461 -2.8000  2.5692  0.0873
  602MOL0     H81240  11.172   0.982   7.639  3.3028  0.8300  0.6854
  602MOL0     H81241  11.266   1.120   7.595  1.5992 -1.2474  0.3852
  602MOL0     H81242  11.246   1.008   7.343 -0.0678 -2.8106 -0.6331
  602MOL0     H81243  11.198   0.873   7.435  0.3856 -1.3111 -1.6599
  602MOL0     H81244  11.439   1.050   7.504  1.8448 -1.7604  1.4687
  602MOL0     H81245  11.410   0.874   7.544 -2.8490  0.7457  2.0531
  602MOL0     H81246  11.436   0.972   7.266  2.8555 -0.3525 -1.7715
  602MOL0     H81247  11.458   0.811   7.316 -3.7999  0.4974  0.1638
  602MOL0     H81248  11.634   1.050   7.411 -2.3045  1.4566 -1.6280
  602MOL0     H81249  11.680   0.877   7.420  0.4497 -0.2150 -0.1686
  602MOL0     H81250  10.787   1.111   7.360  0.4863  1.8186 -0.7694
  602MOL0     H81251  10.542   1.075   7.313 -2.5034 -0.7585  1.6279
  602MOL0     H81252  10.132   1.141   7.475 -0.0352 -0.2074 -0.0310
  602MOL0     H81253   9.907   1.111   7.498  3.2101 -1.6723 -1.1405
  602MOL0     H81254   7.919   0.931   6.737 -2.9437 -1.2012 -1.3967
  602MOL0     H81255   7.737   0.772   6.837 -1.1164 -2.3222  3.5428
  602MOL0     H81256   7.617   0.453   7.259 -1.1799 -0.7337  1.4284
  602MOL0     H81257   7.426   0.324   7.306  0.9697 -0.9756 -0.4058
  602MOL0     H81258   7.019   0.363   7.056  0.8587 -1.7164 -0.6477
  602MOL0     H81259   7.065   0.482   7.174  1.2375 -0.2587 -1.6242
  602MOL0     H81260   7.018   0.312   7.354 -3.7196 -1.9648  1.0554
  602MOL0     H81261   6.972   0.194   7.227  0.0505 -0.8817  2.3168
  602MOL0     H81262   6.781   0.278   7.274  0.3612 -0.5522  0.3685
  602MOL0     H81263   6.828   0.392   7.143 -0.6924 -0.2857 -0.8561
  602MOL0     H81264   6.834   0.446   7.452  0.7066  0.5530 -0.6746
  602MOL0     H81265   6.904   0.563   7.341  1.7770 -1.3570 -2.8032
  602MOL0     H81266   6.497   0.633   7.290  0.7619  2.1172  2.3642
  602MOL0     H81267   7.209   0.533   6.987  1.3528  0.5896 -1.7436
  602MOL0     H81268   7.321   0.682   6.855 -1.0847  0.8689  2.0061
  602MOL0     H81269   7.349   0.802   6.969  1.0370  1.2964 -2.5306
  602MOL0     H81270   7.489   0.726   6.881  0.6625 -0.9257 -0.8161
  603MOL0     O81271   6.897  10.398   9.347  0.5390  0.3790  0.3872
  603MOL0     C81272   6.813  10.467   9.401  0.3839 -0.3027  0.5594
  603MOL0     O81273   6.821  10.600   9.424 -0.0515  0.3720  0.4421
  603MOL0     C81274   6.925  10.683   9.425  0.2854  0.2533 -1.0583
  603MOL0     C81275   6.887  10.813   9.447  0.1278 -0.3566 -0.0159
  603MOL0     C81276   6.979  10.918   9.459  0.2260  0.9477 -0.8041
  603MOL0     C81277   7.120  10.886   9.443 -0.4303  0.0010  0.4042
  603MOL0     O81278   7.205  10.995   9.468 -0.2923  0.4351  0.3763
  603MOL0     C81279   7.342  10.978   9.503  0.0008 -0.0285 -0.0029
  603MOL0     C81280   7.380  11.092   9.595  0.6519  0.1681 -0.2646
  603MOL0     C81281   7.391  11.220   9.522 -0.1853 -0.4626  1.3583
  603MOL0     C81282   7.263  11.296   9.515  0.3300 -0.0660  0.1920
  603MOL0     C81283   7.255  11.439   9.457 -0.4706  0.2174 -0.0525
  603MOL0     C81284   7.384  11.512   9.463 -0.0685 -0.3547 -0.6370
  603MOL0     C81285   7.376  11.651   9.391  0.2697 -0.6562  0.3769
  603MOL0     C81286   7.490  11.747   9.452  0.2896  0.9712  0.9899
  603MOL0     N81287   7.486  11.882   9.401 -0.7176  0.5618  0.5728
  603MOL0     C81288   7.496  11.920   9.273 -0.3585 -0.5080  0.5253
  603MOL0     C81289   7.499  12.058   9.278 -0.4667 -0.6480  0.4176
  603MOL0     C81290   7.530  12.151   9.171 -0.4873 -0.8529  0.1317
  603MOL0     C81291   7.587  12.289   9.215 -0.3130 -0.1887  0.2731
  603MOL0     C81292   7.612  12.381   9.094  0.1087  0.2116 -0.5539
  603MOL0     C81293   7.654  12.517   9.153  0.6276 -0.2365  1.1094
  603MOL0     O81294   7.770  12.503   9.233  0.0816 -0.9435 -0.1011
  603MOL0     C81295   7.896  12.510   9.183 -0.0428  0.0170 -0.7356
  603MOL0     C81296   8.003  12.474   9.271  0.5763 -0.4662 -0.4043
  603MOL0     C81297   8.137  12.469   9.235  0.9553  0.1084  0.2708
  603MOL0     C81298   8.181  12.509   9.109 -0.2267 -0.2722  0.0746
  603MOL0     C81299   8.324  12.498   9.066 -0.3906  0.1001 -0.0859
  603MOL0     O81300   8.419  12.468   9.155 -0.3543 -0.1772 -0.0682
  603MOL0     C81301   8.545  12.487   9.107 -0.1849  0.4590  0.8006
  603MOL0     C81302   8.639  12.383   9.135 -0.4594 -0.2611  0.0516
  603MOL0     C81303   8.768  12.399   9.092 -0.6068 -0.1020 -0.3158
  603MOL0     C81304   8.822  12.523   9.065  0.3514 -0.8434 -0.1730
  603MOL0     O81305   8.956  12.549   9.028  0.4001  0.8944  0.2038
  603MOL0     C81306   9.040  12.437   8.997  0.2776  0.6476  0.0015
  603MOL0     C81307   9.184  12.486   9.002  0.3608  0.4862 -0.9078
  603MOL0     C81308   9.233  12.599   8.927 -0.0258 -0.1199 -0.4855
  603MOL0     C81309   9.386  12.588   8.938 -0.1248 -0.1993  0.1256
  603MOL0     C81310   9.457  12.699   8.857  0.0723 -0.3374 -0.2565
  603MOL0     C81311   9.611  12.674   8.840 -0.1037 -0.9271  0.4358
  603MOL0     C81312   9.679  12.678   8.977 -0.3651  0.2552  0.0808
  603MOL0     C81313   9.813  12.769   8.968  0.3883  0.2915  0.0879
  603MOL0    Cl81314   9.748  12.939   8.972  0.1417  0.4642  0.2412
  603MOL0     C81315   8.733  12.629   9.052 -0.2778 -0.2887  0.3682
  603MOL0     C81316   8.594  12.608   9.069 -0.3905  0.0151 -0.4349
  603MOL0     O81317   8.346  12.518   8.953  0.2367  0.1390  0.4807
  603MOL0     C81318   8.075  12.545   9.020 -0.1174 -0.7126 -1.0894
  603MOL0     C81319   7.939  12.537   9.056 -0.6694 -0.3350  0.2003
  603MOL0     N81320   7.473  12.098   9.406 -0.2648 -0.3003 -0.5850
  603MOL0     N81321   7.459  11.988   9.479 -0.2154 -0.9520  0.5082
  603MOL0     C81322   7.153  10.754   9.423  0.4107  1.2005  0.4439
  603MOL0     C81323   7.059  10.651   9.413 -0.2243 -0.5687 -0.0221
  603MOL0     C81324   6.680  10.408   9.448 -0.5003  0.4078  0.3445
  603MOL0     C81325   6.595  10.485   9.536 -0.1834  0.2531  0.0394
  603MOL0     C81326   6.471  10.439   9.571  0.4935  0.2555 -0.5798
  603MOL0     C81327   6.426  10.315   9.529  1.2692  0.0667  0.5204
  603MOL0     O81328   6.307  10.270   9.563 -0.1333 -0.7553  0.0179
  603MOL0     C81329   6.317  10.161   9.656  0.0852 -0.0598  0.3609
  603MOL0     C81330   6.185  10.170   9.740 -0.3542  0.2115 -0.1449
  603MOL0     C81331   6.053  10.191   9.671 -0.2137 -0.6857  0.2749
  603MOL0     C81332   6.017  10.101   9.558 -0.5404 -0.2345  0.5322
  603MOL0     C81333   5.876  10.107   9.532  0.3854 -0.9318  0.9015
  603MOL0     C81334   5.755  10.116   9.521  0.1461 -0.4851 -1.2491
  603MOL0     C81335   6.498  10.241   9.437  0.7107  0.2617 -0.2660
  603MOL0     C81336   6.633  10.281   9.403 -0.0134 -0.3427 -0.1915
  603MOL0     C81337   6.704  10.191   9.304  0.2727 -0.2780  0.5881
  603MOL0     H81338   6.784  10.840   9.465  0.9438  0.9359  3.5879
  603MOL0     H81339   6.967  11.023   9.482  2.1777  0.9819  0.3396
  603MOL0     H81340   7.363  10.882   9.552 -0.8017 -1.2307 -1.9265
  603MOL0     H81341   7.408  10.990   9.417  1.3852 -2.3712  0.6624
  603MOL0     H81342   7.475  11.067   9.643 -1.5856 -1.4263  3.8622
  603MOL0     H81343   7.314  11.099   9.682 -1.4473  1.5889 -1.8614
  603MOL0     H81344   7.427  11.205   9.420  0.2841 -1.2842  1.6363
  603MOL0     H81345   7.458  11.291   9.571 -0.6474  0.8081  0.2206
  603MOL0     H81346   7.193  11.227   9.467  1.0855 -1.6764  1.3204
  603MOL0     H81347   7.228  11.321   9.615 -2.3880  2.2788 -1.1644
  603MOL0     H81348   7.219  11.436   9.354  0.4145 -1.4588 -0.3486
  603MOL0     H81349   7.185  11.485   9.528 -1.0381  1.3839 -1.3200
  603MOL0     H81350   7.399  11.533   9.569 -1.0434  3.6203 -1.1474
  603MOL0     H81351   7.474  11.461   9.426  1.7969 -0.5298  3.6469
  603MOL0     H81352   7.279  11.696   9.415 -1.8265 -4.1197 -0.8665
  603MOL0     H81353   7.389  11.633   9.284 -1.7396 -4.4318  0.5945
  603MOL0     H81354   7.488  11.742   9.561  2.1014  0.5206  1.0306
  603MOL0     H81355   7.589  11.716   9.418 -0.4575  1.2394 -1.7003
  603MOL0     H81356   7.515  11.851   9.192 -0.4720 -2.3481  2.0035
  603MOL0     H81357   7.596  12.100   9.100  0.8711 -0.2571  0.9209
  603MOL0     H81358   7.428  12.161   9.132 -0.7655 -2.8682  0.2705
  603MOL0     H81359   7.508  12.330   9.279 -0.9927 -1.9409  0.6086
  603MOL0     H81360   7.674  12.268   9.278 -1.0390  0.0384  1.3917
  603MOL0     H81361   7.515  12.383   9.043  0.6252 -1.1165 -1.6533
  603MOL0     H81362   7.685  12.338   9.025  0.9584 -1.9506  1.5525
  603MOL0     H81363   7.578  12.578   9.202  2.1275  1.2417  1.6503
  603MOL0     H81364   7.684  12.584   9.071 -3.4329 -0.6783 -1.0270
  603MOL0     H81365   7.975  12.450   9.373 -0.1994  0.5759 -0.3451
  603MOL0     H81366   8.211  12.427   9.302  0.9628  3.4499  2.6238
  603MOL0     H81367   8.620  12.290   9.188 -2.0119 -0.0674 -0.1126
  603MOL0     H81368   8.833  12.312   9.096 -1.2392 -0.5975 -0.6538
  603MOL0     H81369   9.032  12.348   9.061  0.4258  0.1338 -0.6832
  603MOL0     H81370   9.010  12.405   8.897 -1.2360 -0.6996  0.8326
  603MOL0     H81371   9.194  12.519   9.106 -1.4025  1.5390 -1.0195
  603MOL0     H81372   9.253  12.402   8.987  1.3889  1.2171 -0.3606
  603MOL0     H81373   9.213  12.580   8.822  0.6408 -0.1947 -0.6023
  603MOL0     H81374   9.206  12.701   8.956  1.2037  0.5123 -1.4575
  603MOL0     H81375   9.400  12.502   8.871  1.5733  0.9349 -1.0468
  603MOL0     H81376   9.427  12.570   9.037  0.7401  0.5480 -0.0834
  603MOL0     H81377   9.439  12.790   8.914 -1.4369 -1.5218  1.2364
  603MOL0     H81378   9.411  12.708   8.758  4.0639 -0.9986 -2.4060
  603MOL0     H81379   9.636  12.577   8.795  0.6218 -1.0188  1.0065
  603MOL0     H81380   9.647  12.751   8.772 -0.4730  0.1817  1.4537
  603MOL0     H81381   9.708  12.575   8.999  1.2906  1.0066  1.7269
  603MOL0     H81382   9.606  12.712   9.051  1.9718  1.1746  2.0983
  603MOL0     H81383   9.885  12.750   9.048  0.6466  0.0156 -0.2052
  603MOL0     H81384   9.860  12.753   8.870 -0.5761 -0.5143 -0.2557
  603MOL0     H81385   8.776  12.720   9.011 -2.2045  0.6130  0.2632
  603MOL0     H81386   8.520  12.687   9.077  0.8044  1.3005 -1.6054
  603MOL0     H81387   8.100  12.566   8.916  0.0811  2.3999 -0.5113
  603MOL0     H81388   7.870  12.563   8.977  1.0380  1.4231 -0.8019
  603MOL0     H81389   7.256  10.724   9.408 -1.4676 -6.2941 -2.1464
  603MOL0     H81390   7.094  10.551   9.393  0.0795 -0.3710 -0.4887
  603MOL0     H81391   6.632  10.572   9.588  1.8509  0.8654 -2.2417
  603MOL0     H81392   6.404  10.508   9.620  1.0768 -0.0505  0.6902
  603MOL0     H81393   6.402  10.168   9.725 -1.9590 -0.8768  3.1730
  603MOL0     H81394   6.326  10.064   9.606  3.9464  0.7007 -0.7277
  603MOL0     H81395   6.194  10.243   9.821 -1.0850 -1.0728  1.1469
  603MOL0     H81396   6.175  10.072   9.789 -0.5409 -0.1944 -0.9801
  603MOL0     H81397   6.040  10.292   9.631  1.6581 -1.1103 -1.5896
  603MOL0     H81398   5.980  10.179   9.751 -1.1375  2.3240 -0.0210
  603MOL0     H81399   6.059  10.146   9.468  1.6887 -0.3761  1.4467
  603MOL0     H81400   6.042   9.996   9.573  1.5843 -0.0209 -1.0552
  603MOL0     H81401   5.653  10.144   9.503 -0.4211  0.8736  2.8559
  603MOL0     H81402   6.463  10.143   9.408  0.7470  0.1360  0.1063
  603MOL0     H81403   6.638  10.111   9.270  2.1335 -1.5288 -0.2806
  603MOL0     H81404   6.738  10.255   9.223  1.0344 -1.5230 -0.1090
  603MOL0     H81405   6.792  10.143   9.348 -0.2296 -1.2117  0.5907
  604MOL0     O81406  10.028   0.949  10.733 -0.7841  0.2838 -0.3491
  604MOL0     C81407  10.077   0.945  10.845  1.0455  0.5830 -0.2675
  604MOL0     O81408  10.040   1.028  10.943  0.0581 -0.7655 -0.5809
  604MOL0     C81409   9.947   1.121  10.912  0.0417 -0.4843  0.8133
  604MOL0     C81410   9.992   1.257  10.919 -0.8104 -0.6480  0.3494
  604MOL0     C81411   9.904   1.365  10.885 -0.4115 -0.0232  0.1342
  604MOL0     C81412   9.765   1.333  10.865 -0.1612  0.2195  0.1967
  604MOL0     O81413   9.675   1.430  10.828 -0.1025 -0.0608  0.0317
  604MOL0     C81414   9.577   1.442  10.932 -0.2257  0.0404 -0.4658
  604MOL0     C81415   9.504   1.573  10.914 -0.0047  0.1452  0.2552
  604MOL0     C81416   9.402   1.576  11.030 -0.9343  0.2391 -0.0935
  604MOL0     C81417   9.252   1.624  10.988  0.1408  1.4179 -0.4443
  604MOL0     C81418   9.142   1.599  11.096 -0.5636  0.5208 -0.3051
  604MOL0     C81419   9.165   1.668  11.235 -0.5549  0.2193 -0.2878
  604MOL0     C81420   9.247   1.570  11.316 -0.1556 -0.6233 -0.3042
  604MOL0     C81421   9.261   1.620  11.459 -1.1273 -0.8109  1.1240
  604MOL0     N81422   9.368   1.734  11.470  0.4470 -0.9709  0.3119
  604MOL0     C81423   9.500   1.715  11.483 -0.8566  0.1535 -0.7201
  604MOL0     C81424   9.554   1.840  11.490 -0.3413 -0.0467  0.5033
  604MOL0     C81425   9.692   1.878  11.543 -0.2188 -0.5309  1.0482
  604MOL0     C81426   9.781   1.961  11.453  0.0884  0.5793 -0.5287
  604MOL0     C81427   9.929   1.913  11.460 -0.3120  0.1152  0.9156
  604MOL0     C81428  10.022   1.995  11.374 -0.0345 -0.2929  0.5049
  604MOL0     O81429  10.154   1.952  11.403  0.3193  0.1623  0.4207
  604MOL0     C81430  10.247   1.943  11.307 -0.2418 -0.1452  0.7412
  604MOL0     C81431  10.348   1.860  11.331 -0.3299  0.7840 -0.6165
  604MOL0     C81432  10.463   1.851  11.253 -0.5232  0.1574  1.2225
  604MOL0     C81433  10.472   1.937  11.145  0.1651  0.0164  1.6820
  604MOL0     C81434  10.595   1.941  11.056  0.2519 -1.5505  0.1913
  604MOL0     O81435  10.709   1.879  11.111  0.2135 -0.2568  0.0051
  604MOL0     C81436  10.817   1.834  11.048 -0.3657  0.4512 -0.4479
  604MOL0     C81437  10.841   1.835  10.907 -0.5898 -0.2254  0.3608
  604MOL0     C81438  10.966   1.793  10.855 -0.1354 -0.4839  0.3319
  604MOL0     C81439  11.069   1.749  10.937 -0.4033  0.0911  0.1883
  604MOL0     O81440  11.189   1.689  10.899 -0.0904 -0.2132  0.3669
  604MOL0     C81441  11.213   1.674  10.755 -0.4680 -1.1886 -0.2269
  604MOL0     C81442  11.246   1.811  10.689 -0.0230  0.5418  0.4520
  604MOL0     C81443  11.243   1.797  10.536  0.6685 -0.5507  0.0032
  604MOL0     C81444  11.311   1.675  10.478 -0.8365 -0.0687 -0.5966
  604MOL0     C81445  11.327   1.669  10.331 -0.1608  0.2694 -0.0920
  604MOL0     C81446  11.421   1.769  10.277  0.3285  0.6420  0.2757
  604MOL0     C81447  11.451   1.722  10.127  0.4695 -0.7466  0.5556
  604MOL0     C81448  11.531   1.833  10.043 -0.0126  0.4397  0.1936
  604MOL0    Cl81449  11.547   1.804   9.867  0.2110 -0.1564  0.2433
  604MOL0     C81450  11.041   1.755  11.071  0.1810 -0.4006 -0.9166
  604MOL0     C81451  10.924   1.802  11.131 -0.2599  0.1449 -0.1317
  604MOL0     O81452  10.579   1.979  10.943 -1.0139  0.0406  0.7695
  604MOL0     C81453  10.368   2.028  11.119 -0.0045  0.0042 -0.1277
  604MOL0     C81454  10.251   2.018  11.193  0.1189 -0.3232 -0.2257
  604MOL0     N81455   9.446   1.932  11.481 -0.4407  1.2554 -0.0596
  604MOL0     N81456   9.336   1.864  11.466 -0.4171 -0.2650  0.1987
  604MOL0     C81457   9.715   1.199  10.866  0.1814  0.0941  0.8284
  604MOL0     C81458   9.808   1.094  10.889  0.1895  0.0252 -0.1440
  604MOL0     C81459  10.177   0.837  10.864 -0.1722  0.0841 -0.4604
  604MOL0     C81460  10.275   0.809  10.765 -0.0568  0.5824  0.4515
  604MOL0     C81461  10.369   0.709  10.770 -0.9212  0.9260  0.3878
  604MOL0     C81462  10.377   0.643  10.890  0.1305  0.6124 -0.1962
  604MOL0     O81463  10.477   0.554  10.914  0.0718  0.8667 -0.2454
  604MOL0     C81464  10.606   0.573  10.844  1.2060  1.2523 -0.3347
  604MOL0     C81465  10.727   0.548  10.944  0.8415  0.6596  0.4672
  604MOL0     C81466  10.852   0.559  10.858  0.1827  0.0928  0.3304
  604MOL0     C81467  10.972   0.575  10.951  0.6507  0.2108 -0.2202
  604MOL0     C81468  11.085   0.634  10.880 -1.0987  0.5336  0.4187
  604MOL0     C81469  11.176   0.706  10.834  0.4361 -0.8124 -0.5748
  604MOL0     C81470  10.280   0.657  10.991 -0.4841 -0.5623  0.4345
  604MOL0     C81471  10.175   0.746  10.979 -0.5178  0.4931  0.5944
  604MOL0     C81472  10.066   0.749  11.081 -0.4036  0.8367 -0.7225
  604MOL0     H81473  10.095   1.265  10.951 -1.7932 -2.1527  4.6220
  604MOL0     H81474   9.926   1.471  10.883 -0.9441  0.0838  0.0140
  604MOL0     H81475   9.510   1.355  10.938 -0.1136  0.0231  0.5714
  604MOL0     H81476   9.631   1.452  11.026  0.7499  2.4654 -1.1967
  604MOL0     H81477   9.450   1.576  10.818  1.3356 -1.2801 -0.5815
  604MOL0     H81478   9.577   1.655  10.913  0.3122 -0.0867 -2.1226
  604MOL0     H81479   9.450   1.636  11.107  0.9468  0.1589 -1.1322
  604MOL0     H81480   9.379   1.475  11.063 -1.1384  0.1371 -0.5312
  604MOL0     H81481   9.258   1.733  10.982 -1.8195  1.6409  0.5969
  604MOL0     H81482   9.219   1.590  10.890  2.2995 -0.5607 -0.5636
  604MOL0     H81483   9.053   1.648  11.056 -1.2666  1.0225  1.7553
  604MOL0     H81484   9.094   1.501  11.106 -2.2961  1.1396 -1.8864
  604MOL0     H81485   9.226   1.758  11.222 -0.0354 -0.2570 -1.2671
  604MOL0     H81486   9.072   1.693  11.288 -1.6171 -2.2823 -0.8161
  604MOL0     H81487   9.344   1.541  11.274  0.8378 -0.4094  1.6720
  604MOL0     H81488   9.190   1.477  11.326 -0.4806 -0.4454 -0.5398
  604MOL0     H81489   9.168   1.661  11.498  0.5141  3.4921  1.1146
  604MOL0     H81490   9.290   1.535  11.522  0.0292  0.3435  2.2154
  604MOL0     H81491   9.558   1.624  11.491  0.2162  0.7771 -1.2377
  604MOL0     H81492   9.675   1.934  11.636 -0.5727  1.2705 -0.0628
  604MOL0     H81493   9.751   1.790  11.572  0.9606 -0.2807 -0.4847
  604MOL0     H81494   9.755   1.961  11.347  0.4662 -2.0672 -0.6894
  604MOL0     H81495   9.789   2.066  11.482  2.1019  0.1760  0.5673
  604MOL0     H81496   9.934   1.818  11.406  1.8574  0.9054 -0.4187
  604MOL0     H81497   9.976   1.913  11.559 -3.2516 -1.6772  2.4674
  604MOL0     H81498  10.008   2.094  11.419  1.5953 -0.4440  1.4412
  604MOL0     H81499  10.006   1.995  11.266  0.8314 -3.8744  0.2382
  604MOL0     H81500  10.335   1.800  11.421 -1.6299 -0.1486 -1.4064
  604MOL0     H81501  10.540   1.782  11.287 -1.0072 -1.2043 -0.3078
  604MOL0     H81502  10.767   1.858  10.832  1.1118  3.2756 -0.4729
  604MOL0     H81503  10.978   1.803  10.748 -2.7451 -3.1126 -0.3482
  604MOL0     H81504  11.303   1.612  10.740 -0.2017 -0.8761  0.0705
  604MOL0     H81505  11.130   1.624  10.703 -1.6051  1.6254 -1.2913
  604MOL0     H81506  11.178   1.890  10.725 -7.0190 -4.8026  1.2178
  604MOL0     H81507  11.348   1.830  10.721 -0.1081  1.4842  0.1990
  604MOL0     H81508  11.138   1.786  10.505  0.7827  1.0112 -1.0191
  604MOL0     H81509  11.274   1.895  10.498  0.1396 -0.5261 -0.3838
  604MOL0     H81510  11.266   1.582  10.515 -0.7208  0.6628  1.4940
  604MOL0     H81511  11.412   1.669  10.520 -0.9130 -1.9665 -0.5865
  604MOL0     H81512  11.227   1.688  10.293  0.2808 -1.8660 -2.6419
  604MOL0     H81513  11.347   1.566  10.303 -3.2179  0.1126 -2.1036
  604MOL0     H81514  11.380   1.870  10.269  0.8044  0.6687 -3.9243
  604MOL0     H81515  11.518   1.774  10.326 -0.6720 -2.0805  2.8762
  604MOL0     H81516  11.358   1.684  10.084 -0.4522 -0.9071  2.5609
  604MOL0     H81517  11.516   1.634  10.130  0.9076 -0.3987  2.1667
  604MOL0     H81518  11.494   1.934  10.061  0.9274  1.0537 -1.1248
  604MOL0     H81519  11.630   1.837  10.088 -0.2950  0.7836  0.7987
  604MOL0     H81520  11.108   1.714  11.146  0.0795 -0.3142 -0.7787
  604MOL0     H81521  10.924   1.807  11.240  0.0314 -0.9446 -0.0733
  604MOL0     H81522  10.367   2.090  11.029 -1.6871  0.4214  0.1443
  604MOL0     H81523  10.168   2.082  11.167 -1.1023 -1.6479  0.3067
  604MOL0     H81524   9.611   1.174  10.847  0.3909 -1.9227  2.0155
  604MOL0     H81525   9.787   0.988  10.903  1.4676 -0.2470 -0.0981
  604MOL0     H81526  10.270   0.870  10.675 -2.2741  0.2512  0.3018
  604MOL0     H81527  10.440   0.700  10.688 -1.5013  1.4167 -0.1774
  604MOL0     H81528  10.608   0.676  10.808 -1.3908  2.1482  1.7568
  604MOL0     H81529  10.604   0.505  10.758  0.0230  2.3600 -1.2325
  604MOL0     H81530  10.713   0.446  10.982  0.7150 -1.2678 -4.0539
  604MOL0     H81531  10.728   0.626  11.020  2.5519  1.2654 -0.1423
  604MOL0     H81532  10.834   0.646  10.795 -2.3630 -0.7926 -0.2709
  604MOL0     H81533  10.873   0.480  10.785 -1.4724  1.8104 -2.1478
  604MOL0     H81534  10.944   0.639  11.035  0.6456  1.3735 -1.0927
  604MOL0     H81535  11.007   0.477  10.986 -2.2943 -1.4588 -1.6043
  604MOL0     H81536  11.250   0.773  10.795  3.1618 -1.1754  3.4454
  604MOL0     H81537  10.287   0.609  11.088 -3.3536  1.1814  1.6506
  604MOL0     H81538  10.048   0.647  11.116  3.6144 -0.1059 -0.9700
  604MOL0     H81539  10.093   0.824  11.156 -1.0007  1.9465 -1.5875
  604MOL0     H81540   9.972   0.789  11.041 -2.5782  0.0004  2.9939
  605MOL0     O81541   8.658   0.522   0.545  0.0529 -0.7685 -0.4679
  605MOL0     C81542   8.600   0.562   0.647  0.3622  0.0316 -0.2668
  605MOL0     O81543   8.663   0.636   0.739  0.3554 -0.3918 -0.0727
  605MOL0     C81544   8.801   0.626   0.754 -0.7322 -1.0406  0.1257
  605MOL0     C81545   8.873   0.503   0.752  0.0776 -0.1303 -0.0152
  605MOL0     C81546   9.007   0.496   0.793  0.9301  0.5370  0.6922
  605MOL0     C81547   9.076   0.613   0.806 -0.5579  0.5648 -0.7063
  605MOL0     O81548   9.213   0.625   0.823  0.5280 -0.3946 -0.4283
  605MOL0     C81549   9.289   0.509   0.817  0.3355  0.1622  0.4459
  605MOL0     C81550   9.417   0.551   0.884  0.4606 -0.3142  0.1484
  605MOL0     C81551   9.503   0.424   0.890 -0.0067 -0.0377 -0.0767
  605MOL0     C81552   9.623   0.425   0.992  0.4200 -0.0884  0.2870
  605MOL0     C81553   9.676   0.282   1.018  0.8168  0.0077  0.6336
  605MOL0     C81554   9.798   0.296   1.092  0.1960  0.2281  0.4916
  605MOL0     C81555   9.850   0.152   1.134  0.5476 -0.3911  0.3297
  605MOL0     C81556   9.994   0.150   1.176  0.2819  0.5232  0.1713
  605MOL0     N81557  10.018   0.243   1.291 -0.9461 -0.3538 -0.2074
  605MOL0     C81558  10.094   0.357   1.284 -0.3033 -0.8106  0.2524
  605MOL0     C81559  10.096   0.411   1.410  0.3669 -0.6458  0.0423
  605MOL0     C81560  10.192   0.524   1.446 -1.0380 -0.0014  0.4697
  605MOL0     C81561  10.280   0.496   1.573  0.5178 -0.4300 -0.5455
  605MOL0     C81562  10.425   0.471   1.546  0.1172  0.0281 -0.8986
  605MOL0     C81563  10.460   0.326   1.506  0.0375  0.6222 -1.3057
  605MOL0     O81564  10.605   0.308   1.518 -0.0577 -0.4096 -0.3231
  605MOL0     C81565  10.660   0.176   1.525  0.9977  0.5818  0.2858
  605MOL0     C81566  10.796   0.175   1.537 -0.2994  0.4456 -0.2259
  605MOL0     C81567  10.862   0.057   1.522  0.7486 -1.0887  0.4308
  605MOL0     C81568  10.790  -0.063   1.515  0.6798  0.6953 -0.0975
  605MOL0     C81569  10.860  -0.190   1.478 -0.1681 -0.0490 -1.0910
  605MOL0     O81570  10.814  -0.302   1.530 -0.5815 -0.4643  0.3549
  605MOL0     C81571  10.840  -0.429   1.476 -0.4339 -1.0130  0.7071
  605MOL0     C81572  10.873  -0.454   1.345  0.3048 -0.4562 -0.6559
  605MOL0     C81573  10.889  -0.584   1.297 -1.0329 -0.1970  0.2823
  605MOL0     C81574  10.883  -0.691   1.383  0.2124  0.3165  0.4286
  605MOL0     O81575  10.910  -0.819   1.328 -1.0536  0.2824 -0.4524
  605MOL0     C81576  10.863  -0.937   1.405 -0.4633  0.1345 -0.2435
  605MOL0     C81577  10.905  -1.068   1.339 -1.0697  0.2237 -0.2700
  605MOL0     C81578  11.057  -1.095   1.360  0.5619  0.4555 -0.0755
  605MOL0     C81579  11.094  -1.202   1.259  0.4078  0.3677  0.2410
  605MOL0     C81580  11.229  -1.256   1.287 -0.0035 -0.2732  0.3984
  605MOL0     C81581  11.337  -1.185   1.202  0.2514 -0.3181  0.1861
  605MOL0     C81582  11.470  -1.246   1.253 -0.1298  0.7777  0.5801
  605MOL0     C81583  11.592  -1.200   1.165  0.7162  0.2199 -1.4971
  605MOL0    Cl81584  11.744  -1.264   1.239  0.4362 -0.0666  0.5126
  605MOL0     C81585  10.846  -0.665   1.515 -0.3297  0.3996  0.3022
  605MOL0     C81586  10.825  -0.537   1.562 -0.3408  0.8131  0.1323
  605MOL0     O81587  10.961  -0.188   1.406  0.0851  0.4042  0.2382
  605MOL0     C81588  10.654  -0.067   1.531 -0.5843  0.3443  0.5006
  605MOL0     C81589  10.584   0.055   1.538 -0.5996 -0.2476 -0.5700
  605MOL0     N81590  10.011   0.335   1.486  0.0862  0.1758 -0.1820
  605MOL0     N81591   9.972   0.234   1.419 -0.2017 -0.2539 -0.0409
  605MOL0     C81592   9.005   0.733   0.816  0.0865  0.4997  0.4487
  605MOL0     C81593   8.870   0.738   0.794 -0.6009  0.0639  0.3656
  605MOL0     C81594   8.445   0.551   0.672 -0.2606 -0.5399  1.5323
  605MOL0     C81595   8.374   0.660   0.734 -0.9513  0.2627  0.4454
  605MOL0     C81596   8.236   0.655   0.756  0.0088 -0.3103 -0.7734
  605MOL0     C81597   8.158   0.545   0.711 -0.4451  0.2538  0.0141
  605MOL0     O81598   8.019   0.552   0.717  0.3077  0.1065 -0.1254
  605MOL0     C81599   7.946   0.545   0.597  0.2444 -0.2916 -0.4870
  605MOL0     C81600   7.849   0.414   0.606  0.7112 -0.3363 -0.2049
  605MOL0     C81601   7.730   0.409   0.507  0.0528  0.1344  0.7300
  605MOL0     C81602   7.618   0.483   0.567  0.2951  0.4443  0.7576
  605MOL0     C81603   7.506   0.497   0.478 -0.1413 -0.7979  0.0410
  605MOL0     C81604   7.397   0.510   0.432  0.5556 -0.1250 -1.4129
  605MOL0     C81605   8.228   0.441   0.646  0.2016 -0.5132 -0.0686
  605MOL0     C81606   8.368   0.438   0.625  0.9713 -0.6892 -0.6095
  605MOL0     C81607   8.440   0.318   0.570 -0.0338  0.0787  0.6412
  605MOL0     H81608   8.824   0.411   0.722 -0.8844  1.3878 -3.5454
  605MOL0     H81609   9.043   0.395   0.810 -2.9252 -0.7024  2.4893
  605MOL0     H81610   9.243   0.438   0.887  4.2371  0.1221  3.3522
  605MOL0     H81611   9.303   0.468   0.717 -3.4986 -2.0537  0.6396
  605MOL0     H81612   9.397   0.606   0.977 -1.3160 -0.9498  0.1631
  605MOL0     H81613   9.470   0.632   0.833  0.4042 -0.7690 -0.6399
  605MOL0     H81614   9.538   0.398   0.789  2.0918  0.0633  0.5731
  605MOL0     H81615   9.436   0.342   0.915  2.0556 -2.5073 -2.0396
  605MOL0     H81616   9.704   0.484   0.949 -0.2389  0.0223 -0.8764
  605MOL0     H81617   9.595   0.470   1.087 -1.3362 -0.8733  0.1938
  605MOL0     H81618   9.596   0.220   1.059  0.1165  1.7161  2.0166
  605MOL0     H81619   9.704   0.227   0.928 -0.2850 -3.1194  2.0555
  605MOL0     H81620   9.875   0.344   1.031  0.1941 -1.9373 -1.3648
  605MOL0     H81621   9.786   0.359   1.181 -1.5501 -2.6975  2.5352
  605MOL0     H81622   9.840   0.085   1.048  4.6249 -0.0054 -0.6246
  605MOL0     H81623   9.787   0.112   1.214  1.1664  3.8042  3.2066
  605MOL0     H81624  10.027   0.049   1.202  3.1251  1.3649  0.1179
  605MOL0     H81625  10.054   0.177   1.090  1.5717 -0.8645  0.5898
  605MOL0     H81626  10.140   0.390   1.192 -1.9606 -3.3143 -1.5980
  605MOL0     H81627  10.258   0.557   1.365 -1.3540  2.3670  1.1036
  605MOL0     H81628  10.129   0.611   1.464 -1.3152 -0.2566  0.7420
  605MOL0     H81629  10.266   0.580   1.642 -0.0339  0.7765 -2.0663
  605MOL0     H81630  10.235   0.408   1.622 -1.7498 -0.5670 -2.6819
  605MOL0     H81631  10.475   0.497   1.640 -3.0913 -0.4303  1.0865
  605MOL0     H81632  10.459   0.535   1.464 -1.8460 -1.1291 -2.7511
  605MOL0     H81633  10.437   0.306   1.401 -3.3880  2.3978 -1.0138
  605MOL0     H81634  10.405   0.263   1.577  1.1332 -0.7751 -1.6533
  605MOL0     H81635  10.848   0.268   1.555  0.7730 -0.6650  3.1551
  605MOL0     H81636  10.970   0.042   1.517  0.6148 -2.4870  1.2135
  605MOL0     H81637  10.867  -0.370   1.277 -0.4222 -1.4624 -1.8824
  605MOL0     H81638  10.912  -0.602   1.192  2.6392 -1.7224  1.1863
  605MOL0     H81639  10.924  -0.936   1.496  1.3586  0.4081 -1.4060
  605MOL0     H81640  10.756  -0.942   1.427 -0.5020  1.1968 -0.1390
  605MOL0     H81641  10.849  -1.151   1.381  1.4691 -0.2649  2.5918
  605MOL0     H81642  10.883  -1.056   1.233  4.4137 -1.3620 -1.9542
  605MOL0     H81643  11.126  -1.013   1.336  0.1639  0.9412  0.4326
  605MOL0     H81644  11.078  -1.134   1.460  1.5046 -0.7362 -0.7084
  605MOL0     H81645  11.086  -1.160   1.158 -1.4178 -1.8919 -0.6636
  605MOL0     H81646  11.020  -1.282   1.254 -0.2414  1.0100 -2.0267
  605MOL0     H81647  11.229  -1.363   1.263 -2.1880 -0.5279  1.2895
  605MOL0     H81648  11.252  -1.244   1.394  1.6257  2.4408 -0.1679
  605MOL0     H81649  11.316  -1.197   1.096 -0.0071 -4.1030  0.5050
  605MOL0     H81650  11.339  -1.080   1.234  1.7749  0.0864 -1.1173
  605MOL0     H81651  11.467  -1.355   1.242 -0.7080  0.9617 -1.6530
  605MOL0     H81652  11.491  -1.221   1.357 -0.7669  2.4483  0.3418
  605MOL0     H81653  11.577  -1.226   1.059 -1.7199 -1.8715 -0.7534
  605MOL0     H81654  11.612  -1.094   1.182  0.9899  0.1579 -1.4372
  605MOL0     H81655  10.824  -0.751   1.578 -2.5008  0.5331 -0.2019
  605MOL0     H81656  10.799  -0.510   1.664  2.0894  1.3320  0.6867
  605MOL0     H81657  10.592  -0.156   1.536  2.2740 -1.8956 -1.0880
  605MOL0     H81658  10.476   0.062   1.532 -0.6376 -1.5695 -2.3606
  605MOL0     H81659   9.066   0.821   0.834  1.4158  0.4966 -3.1996
  605MOL0     H81660   8.815   0.828   0.819 -0.2286  1.6135 -3.7606
  605MOL0     H81661   8.429   0.752   0.751  2.4121 -1.0665 -2.0601
  605MOL0     H81662   8.179   0.739   0.795 -0.2149 -1.6874  2.1027
  605MOL0     H81663   8.010   0.543   0.508 -0.9933 -0.0873 -1.4054
  605MOL0     H81664   7.887   0.637   0.595  0.5530 -0.0724  0.1633
  605MOL0     H81665   7.810   0.415   0.708 -0.7829 -1.9389 -0.7116
  605MOL0     H81666   7.910   0.325   0.590 -1.5487 -2.3043  1.5022
  605MOL0     H81667   7.692   0.309   0.482  0.8504  0.7462 -3.8715
  605MOL0     H81668   7.772   0.448   0.414 -0.0956  1.4461  1.2032
  605MOL0     H81669   7.577   0.442   0.659  0.5549 -1.1185  0.2008
  605MOL0     H81670   7.660   0.584   0.574  0.7411  0.4525 -1.3037
  605MOL0     H81671   7.296   0.507   0.398  0.7505 -0.9944 -1.9472
  605MOL0     H81672   8.168   0.362   0.602  0.0841 -1.4797  1.7058
  605MOL0     H81673   8.534   0.293   0.621  0.5825 -3.2418 -1.7573
  605MOL0     H81674   8.367   0.237   0.575 -1.6174  1.3106 -0.8968
  605MOL0     H81675   8.463   0.317   0.463  0.4748 -1.9911  0.7325
  606MOL0     O81676   0.602   1.274   3.367 -0.2836  0.3571  0.7274
  606MOL0     C81677   0.554   1.326   3.461  1.1912  0.1356 -0.6860
  606MOL0     O81678   0.609   1.411   3.546 -1.0629  0.0292 -0.4503
  606MOL0     C81679   0.722   1.476   3.511  0.3774  0.4437 -0.3239
  606MOL0     C81680   0.743   1.538   3.388 -0.4527 -0.4470 -0.7057
  606MOL0     C81681   0.855   1.612   3.369  0.5440 -0.4678  0.4890
  606MOL0     C81682   0.950   1.643   3.476 -0.3025  0.2085  0.6688
  606MOL0     O81683   1.060   1.723   3.452  0.9230  0.1155  0.0142
  606MOL0     C81684   1.164   1.706   3.550  0.3226 -0.4776 -0.3344
  606MOL0     C81685   1.305   1.749   3.499  0.0227 -0.3771  0.6543
  606MOL0     C81686   1.327   1.901   3.486  0.8336 -0.5388  0.3167
  606MOL0     C81687   1.306   1.967   3.622 -0.5902  0.0726  0.2078
  606MOL0     C81688   1.342   2.111   3.608  0.3236 -0.4354 -0.3153
  606MOL0     C81689   1.355   2.167   3.743  0.4796 -0.0796  0.8643
  606MOL0     C81690   1.428   2.297   3.739  0.6696 -0.3750  0.6597
  606MOL0     C81691   1.475   2.342   3.870  0.1370 -0.0394  0.4573
  606MOL0     N81692   1.572   2.458   3.865 -0.1522 -0.2168  0.0184
  606MOL0     C81693   1.538   2.592   3.855 -0.0475 -0.3392  0.1669
  606MOL0     C81694   1.664   2.653   3.861  0.0505  0.1265 -0.2585
  606MOL0     C81695   1.683   2.794   3.879  0.1259 -0.4865  0.1729
  606MOL0     C81696   1.641   2.884   3.772 -0.2475  0.1007  0.5209
  606MOL0     C81697   1.697   2.848   3.636  0.2632 -0.1874  0.0562
  606MOL0     C81698   1.849   2.893   3.630  0.6784 -0.3371  0.4916
  606MOL0     O81699   1.851   3.032   3.644  0.2632 -0.4485 -0.5011
  606MOL0     C81700   1.978   3.082   3.653  0.4869  0.4777 -0.3955
  606MOL0     C81701   2.098   3.008   3.633 -0.3937  0.4359  0.2532
  606MOL0     C81702   2.225   3.073   3.627 -0.3769  0.1344  0.6137
  606MOL0     C81703   2.232   3.210   3.644 -0.1032  0.0769  0.1212
  606MOL0     C81704   2.367   3.284   3.673  0.1740  0.5442  0.9078
  606MOL0     O81705   2.365   3.420   3.656 -0.0090  0.4694  0.0656
  606MOL0     C81706   2.475   3.503   3.681  0.6206 -0.5858  0.3778
  606MOL0     C81707   2.484   3.622   3.601 -1.0859  0.5044 -0.4959
  606MOL0     C81708   2.598   3.700   3.616 -0.6310 -0.8510  0.8455
  606MOL0     C81709   2.695   3.683   3.709 -0.3597 -0.0377  0.0673
  606MOL0     O81710   2.796   3.766   3.743 -0.0288 -0.2884 -0.5498
  606MOL0     C81711   2.823   3.879   3.663 -1.2523  0.1423  0.5765
  606MOL0     C81712   2.738   3.987   3.730  0.3058  0.8008 -0.1680
  606MOL0     C81713   2.776   4.133   3.691  0.3149 -0.6610  1.1644
  606MOL0     C81714   2.908   4.177   3.748  0.2532 -0.0174 -0.4103
  606MOL0     C81715   2.905   4.193   3.901  0.8060  0.7024  0.1063
  606MOL0     C81716   3.041   4.176   3.957  1.4046 -0.6727 -0.4585
  606MOL0     C81717   3.153   4.274   3.919 -0.4506  0.2373 -0.0062
  606MOL0     C81718   3.287   4.205   3.890 -0.8112  0.6351  0.6581
  606MOL0    Cl81719   3.278   4.075   3.773 -0.1626  0.2529 -0.0170
  606MOL0     C81720   2.685   3.573   3.788 -0.0726 -0.0481 -0.8316
  606MOL0     C81721   2.573   3.485   3.780 -0.4366  0.2573  0.9883
  606MOL0     O81722   2.470   3.214   3.693  1.1011  1.2825 -0.0620
  606MOL0     C81723   2.120   3.281   3.666  0.1741 -0.8392 -0.6226
  606MOL0     C81724   1.995   3.220   3.671 -0.8315  0.4612 -1.2486
  606MOL0     N81725   1.760   2.561   3.888 -0.2648  0.1737 -0.1655
  606MOL0     N81726   1.710   2.447   3.891  0.0348 -0.2795 -0.0670
  606MOL0     C81727   0.912   1.596   3.609 -0.1030  0.2536  0.3490
  606MOL0     C81728   0.801   1.512   3.626  0.5982  0.0249  0.0897
  606MOL0     C81729   0.417   1.279   3.483  0.4928  0.1896  0.1279
  606MOL0     C81730   0.389   1.147   3.454 -0.3152 -0.1457  0.1178
  606MOL0     C81731   0.260   1.100   3.483 -0.2643  0.5239 -0.6252
  606MOL0     C81732   0.160   1.180   3.543 -0.1020 -0.0392 -0.2910
  606MOL0     O81733   0.040   1.123   3.555  0.5315 -0.1694  0.4766
  606MOL0     C81734  -0.051   1.199   3.636 -0.3755 -0.8221  0.7372
  606MOL0     C81735  -0.173   1.120   3.676 -1.8391 -1.1455  0.1065
  606MOL0     C81736  -0.233   1.171   3.805  0.2441  0.7293 -0.2262
  606MOL0     C81737  -0.184   1.087   3.918 -0.1154  0.0764  0.4861
  606MOL0     C81738  -0.257   1.138   4.039  0.1507  0.0173 -0.1321
  606MOL0     C81739  -0.291   1.173   4.152  0.1199 -0.3343 -0.1185
  606MOL0     C81740   0.191   1.317   3.571  0.0264  0.2249  0.1070
  606MOL0     C81741   0.320   1.364   3.546  0.2773  0.4808  1.1040
  606MOL0     C81742   0.342   1.511   3.566  0.5493 -0.0513  0.3815
  606MOL0     H81743   0.685   1.524   3.298 -0.5418  3.3427 -1.4028
  606MOL0     H81744   0.865   1.656   3.271 -3.6608 -1.6945 -0.6721
  606MOL0     H81745   1.137   1.748   3.647 -3.7072 -2.6804 -0.2757
  606MOL0     H81746   1.170   1.598   3.567 -0.6764 -0.1662  2.5741
  606MOL0     H81747   1.330   1.705   3.403 -0.9086 -1.6026  0.9469
  606MOL0     H81748   1.382   1.716   3.569  2.5136  1.7692 -0.9048
  606MOL0     H81749   1.250   1.925   3.412 -0.4280 -1.9880  1.1024
  606MOL0     H81750   1.428   1.910   3.446  1.1046 -2.9390  0.3070
  606MOL0     H81751   1.202   1.966   3.656 -0.2763 -1.4425  1.2124
  606MOL0     H81752   1.364   1.916   3.700 -1.1277 -1.9463 -0.6353
  606MOL0     H81753   1.445   2.112   3.572  0.8703  2.9759  0.9950
  606MOL0     H81754   1.268   2.165   3.548 -0.8802  0.7068  2.0504
  606MOL0     H81755   1.250   2.179   3.772  0.1528 -0.0412 -0.3197
  606MOL0     H81756   1.390   2.096   3.819 -2.8690  0.9714  3.6521
  606MOL0     H81757   1.353   2.371   3.709  1.9566  1.9046  2.7128
  606MOL0     H81758   1.516   2.291   3.675  1.1882 -0.0944  1.3423
  606MOL0     H81759   1.393   2.380   3.933 -1.2330 -0.1201 -1.1908
  606MOL0     H81760   1.507   2.261   3.936 -0.7316  0.8141  2.0079
  606MOL0     H81761   1.448   2.653   3.850 -0.4921 -1.0289 -0.4456
  606MOL0     H81762   1.628   2.829   3.967 -1.6935 -1.6940 -0.4398
  606MOL0     H81763   1.789   2.815   3.901  0.3184 -1.3798  0.1279
  606MOL0     H81764   1.532   2.877   3.768 -0.2044  0.1477 -1.7513
  606MOL0     H81765   1.662   2.989   3.796  1.9252  0.1568 -1.3189
  606MOL0     H81766   1.637   2.892   3.556  2.4130  3.0656  0.0288
  606MOL0     H81767   1.692   2.740   3.620  0.2287  0.0745 -1.9755
  606MOL0     H81768   1.891   2.867   3.532  1.7051 -1.2385  1.1455
  606MOL0     H81769   1.915   2.843   3.702  2.5698 -1.2104 -1.7112
  606MOL0     H81770   2.093   2.900   3.620  1.1701  0.3514  0.1055
  606MOL0     H81771   2.307   3.004   3.606 -0.5582  0.4763 -1.4606
  606MOL0     H81772   2.398   3.648   3.541 -1.0285  0.1808 -0.7225
  606MOL0     H81773   2.599   3.789   3.554 -0.3948 -1.4205  0.0078
  606MOL0     H81774   2.931   3.898   3.669 -1.3661  0.7278  0.7722
  606MOL0     H81775   2.799   3.858   3.558  2.5382 -0.8759 -0.2448
  606MOL0     H81776   2.632   3.971   3.707 -0.0127  0.2595  1.5455
  606MOL0     H81777   2.754   3.970   3.837  0.2656 -0.9970 -0.4197
  606MOL0     H81778   2.777   4.140   3.582 -0.0122  0.8840  1.2418
  606MOL0     H81779   2.698   4.200   3.728  2.5224  3.0110 -0.2913
  606MOL0     H81780   2.940   4.271   3.704  0.5745 -0.1443 -0.4476
  606MOL0     H81781   2.983   4.107   3.710 -1.6794 -1.3495 -2.0028
  606MOL0     H81782   2.840   4.120   3.950  0.9667  1.9009  2.2566
  606MOL0     H81783   2.865   4.291   3.930 -3.6056 -0.9982  0.4877
  606MOL0     H81784   3.025   4.167   4.065  0.1881  0.3945 -0.5363
  606MOL0     H81785   3.074   4.080   3.915  2.1208  0.1463 -1.8338
  606MOL0     H81786   3.158   4.348   3.999  1.9766 -0.2440  0.3589
  606MOL0     H81787   3.136   4.328   3.825  1.0368 -0.8870 -0.9637
  606MOL0     H81788   3.374   4.265   3.862  0.5643 -1.8591 -0.7856
  606MOL0     H81789   3.322   4.150   3.978  0.7096 -1.9830 -1.4580
  606MOL0     H81790   2.756   3.537   3.863  0.0533 -1.0468 -1.4161
  606MOL0     H81791   2.557   3.400   3.846 -0.5028 -0.5712 -0.0449
  606MOL0     H81792   2.127   3.388   3.683 -2.0476 -0.8575  0.9546
  606MOL0     H81793   1.917   3.295   3.683  1.3746  2.6741  0.1110
  606MOL0     H81794   0.977   1.619   3.692 -0.3222 -1.1860  0.9532
  606MOL0     H81795   0.777   1.485   3.728  1.5750  3.1218  1.2521
  606MOL0     H81796   0.475   1.086   3.428  0.8114  0.8067  1.4425
  606MOL0     H81797   0.229   0.999   3.458 -0.1829  0.5075 -0.6616
  606MOL0     H81798  -0.085   1.287   3.581 -0.3934 -1.7677 -0.8313
  606MOL0     H81799  -0.001   1.230   3.728 -2.0243 -2.1449  2.1407
  606MOL0     H81800  -0.142   1.015   3.684 -0.3381 -0.9785 -2.2541
  606MOL0     H81801  -0.240   1.127   3.590 -1.0495 -1.3920 -0.5424
  606MOL0     H81802  -0.341   1.157   3.798  0.4078 -0.3372 -0.7505
  606MOL0     H81803  -0.213   1.278   3.817  0.4883  0.5522  1.2184
  606MOL0     H81804  -0.209   0.981   3.910  0.3080  0.0231 -0.2020
  606MOL0     H81805  -0.076   1.099   3.926 -0.1454 -0.1660  1.3487
  606MOL0     H81806  -0.305   1.209   4.252 -1.7038 -0.2267 -0.3662
  606MOL0     H81807   0.115   1.387   3.601  0.7217  1.0567 -0.0394
  606MOL0     H81808   0.257   1.569   3.603  0.4949 -0.5326  1.0310
  606MOL0     H81809   0.421   1.533   3.638  1.0025  0.1300 -0.1629
  606MOL0     H81810   0.374   1.559   3.473  0.5072 -2.0781 -0.7249
  607MOL0     O81811   0.549   3.002  11.015 -0.1550 -0.0958 -0.3334
  607MOL0     C81812   0.480   2.920  11.070  0.4309  0.2103  0.1183
  607MOL0     O81813   0.500   2.782  11.062  0.6389  0.9493 -0.1754
  607MOL0     C81814   0.614   2.743  10.993  0.4018 -0.1346  0.2627
  607MOL0     C81815   0.598   2.663  10.881 -0.1020  0.5107  0.4369
  607MOL0     C81816   0.711   2.611  10.814  0.4149  0.1889 -0.0541
  607MOL0     C81817   0.838   2.663  10.853  0.1672 -0.0248  0.1973
  607MOL0     O81818   0.951   2.627  10.784  0.2823 -0.1918 -0.5007
  607MOL0     C81819   0.939   2.610  10.641  0.1790 -0.3443  0.5837
  607MOL0     C81820   1.084   2.594  10.582 -0.0216  0.2543 -0.6777
  607MOL0     C81821   1.091   2.598  10.429 -0.5974 -0.5635  0.4107
  607MOL0     C81822   1.237   2.598  10.376 -0.4950  0.4678 -0.5044
  607MOL0     C81823   1.248   2.564  10.228 -0.1771  0.4670 -0.5443
  607MOL0     C81824   1.384   2.577  10.171  0.1201  0.2714 -1.1491
  607MOL0     C81825   1.391   2.555  10.015 -0.2595 -0.1985  0.3806
  607MOL0     C81826   1.379   2.410   9.970 -0.2563  0.6725  0.5708
  607MOL0     N81827   1.421   2.380   9.827 -0.8729 -0.2384  0.4997
  607MOL0     C81828   1.354   2.417   9.713  0.4184 -0.5275  0.2555
  607MOL0     C81829   1.430   2.370   9.616  0.4741  0.0220 -0.3087
  607MOL0     C81830   1.380   2.385   9.472 -0.5480 -0.1519 -0.5723
  607MOL0     C81831   1.488   2.436   9.381 -0.6968  0.1094  0.7732
  607MOL0     C81832   1.442   2.407   9.239 -0.4245  0.4976 -0.2473
  607MOL0     C81833   1.524   2.477   9.131 -0.2055 -0.1219 -0.5323
  607MOL0     O81834   1.555   2.618   9.150  0.9491 -0.6876  0.4253
  607MOL0     C81835   1.664   2.680   9.087  0.7571  0.6103  1.1301
  607MOL0     C81836   1.764   2.631   9.013 -0.6843  0.4662  0.8163
  607MOL0     C81837   1.869   2.710   8.968 -0.1172  0.1607  0.6829
  607MOL0     C81838   1.884   2.842   9.008  0.7434 -1.3644  0.4180
  607MOL0     C81839   1.995   2.932   8.970  0.7414  0.2726 -0.5437
  607MOL0     O81840   2.107   2.870   8.936 -0.0489  0.8515  0.2405
  607MOL0     C81841   2.227   2.917   8.889  0.3565  0.0024 -0.7973
  607MOL0     C81842   2.299   2.819   8.812  0.1205  0.3572  0.1124
  607MOL0     C81843   2.435   2.861   8.774  0.5459 -0.0297  0.2360
  607MOL0     C81844   2.485   2.983   8.815  0.0652 -0.3668 -0.4694
  607MOL0     O81845   2.605   3.030   8.770  0.3663  0.2209 -0.1101
  607MOL0     C81846   2.701   2.934   8.784 -0.2014 -0.0432 -0.5622
  607MOL0     C81847   2.846   2.993   8.754 -0.3367  0.1052  0.8298
  607MOL0     C81848   2.868   3.132   8.824  0.0350  0.5316  0.5770
  607MOL0     C81849   3.016   3.174   8.824 -0.8838  0.2062  0.0179
  607MOL0     C81850   3.087   3.178   8.689  0.4516  0.7567 -0.1129
  607MOL0     C81851   3.241   3.213   8.709 -0.8246  0.3434 -0.1599
  607MOL0     C81852   3.328   3.184   8.584  0.2965  0.4900  0.1616
  607MOL0     C81853   3.467   3.237   8.593  0.2771  0.1733 -0.3784
  607MOL0    Cl81854   3.579   3.171   8.467 -0.5388  0.3753  0.4044
  607MOL0     C81855   2.406   3.067   8.904  0.2354 -0.3920 -0.5119
  607MOL0     C81856   2.282   3.038   8.943  0.2656 -0.0174 -0.2941
  607MOL0     O81857   1.973   3.048   8.954  0.7290 -0.1344 -0.8960
  607MOL0     C81858   1.774   2.897   9.081 -0.1501 -0.9243 -0.2591
  607MOL0     C81859   1.666   2.813   9.116 -0.2431 -0.5916 -0.2055
  607MOL0     N81860   1.537   2.296   9.665  0.2588 -0.7526 -0.3263
  607MOL0     N81861   1.542   2.323   9.795  0.5421  0.9061  0.4599
  607MOL0     C81862   0.852   2.747  10.959 -0.5589 -0.4962  0.1756
  607MOL0     C81863   0.744   2.785  11.034  0.6405  0.3066  0.2136
  607MOL0     C81864   0.350   2.954  11.119  0.6358 -0.6590 -0.1800
  607MOL0     C81865   0.273   2.867  11.201 -1.1236 -0.2157 -0.5893
  607MOL0     C81866   0.139   2.893  11.234 -0.1419 -0.3192 -0.0544
  607MOL0     C81867   0.088   3.021  11.211 -0.0709  1.0555 -0.4553
  607MOL0     O81868  -0.038   3.058  11.241 -0.7567  0.4122 -0.9063
  607MOL0     C81869  -0.131   2.957  11.292  0.4898 -0.2437 -0.1449
  607MOL0     C81870  -0.259   3.025  11.348  0.6528 -0.4634  0.1799
  607MOL0     C81871  -0.365   2.924  11.378 -0.2500  0.5940  0.1663
  607MOL0     C81872  -0.493   2.995  11.415 -0.5282 -0.3361  0.8018
  607MOL0     C81873  -0.567   3.041  11.290  1.5035  1.2006 -0.0984
  607MOL0     C81874  -0.620   3.067  11.185  0.4775 -0.1068 -0.0549
  607MOL0     C81875   0.172   3.119  11.159 -0.2897 -0.6094 -0.2799
  607MOL0     C81876   0.300   3.090  11.109 -0.4580 -0.2105 -0.5711
  607MOL0     C81877   0.373   3.202  11.046  0.1602 -0.1323 -0.4784
  607MOL0     H81878   0.502   2.646  10.834  0.3534  2.4526 -1.3666
  607MOL0     H81879   0.713   2.548  10.725  1.5053 -0.8364  0.6599
  607MOL0     H81880   0.887   2.519  10.611  1.3839 -0.3479 -1.6888
  607MOL0     H81881   0.889   2.695  10.594  0.0368 -0.4396  0.5627
  607MOL0     H81882   1.141   2.507  10.615  0.5032  0.3667 -1.2717
  607MOL0     H81883   1.139   2.684  10.612  0.8102  0.8583 -3.7069
  607MOL0     H81884   1.050   2.690  10.387  4.1239  1.5313 -0.2601
  607MOL0     H81885   1.038   2.515  10.383 -1.7666 -1.3901  3.0278
  607MOL0     H81886   1.266   2.703  10.390  1.9380 -0.0346 -1.2003
  607MOL0     H81887   1.296   2.533  10.441  2.4305  4.0999  0.9041
  607MOL0     H81888   1.205   2.466  10.207  2.2841 -0.8461  0.2201
  607MOL0     H81889   1.186   2.638  10.176 -2.6863 -2.7795 -2.5665
  607MOL0     H81890   1.402   2.683  10.187 -2.5496  0.6060  0.3541
  607MOL0     H81891   1.464   2.516  10.214 -0.4610 -0.8221 -1.5867
  607MOL0     H81892   1.488   2.587   9.976 -0.8478  0.7433 -0.3574
  607MOL0     H81893   1.315   2.625   9.982  1.0221  1.7397  1.3393
  607MOL0     H81894   1.449   2.351  10.031  2.4121  2.9314 -0.1129
  607MOL0     H81895   1.281   2.367   9.996 -0.0188 -1.2592 -1.4538
  607MOL0     H81896   1.259   2.470   9.715  0.1318 -0.9530  3.1715
  607MOL0     H81897   1.337   2.289   9.443  0.9491 -1.5071  1.4376
  607MOL0     H81898   1.300   2.459   9.474 -0.9341 -0.3924  4.0119
  607MOL0     H81899   1.494   2.545   9.394  0.8370  0.2016 -0.4038
  607MOL0     H81900   1.594   2.412   9.389  0.2306  3.1320 -0.6521
  607MOL0     H81901   1.335   2.427   9.229 -1.2209 -1.7019  2.3980
  607MOL0     H81902   1.455   2.298   9.229  0.7419  0.3602  2.1173
  607MOL0     H81903   1.465   2.475   9.039 -0.6604 -1.2962 -0.2378
  607MOL0     H81904   1.616   2.419   9.115  0.8972  1.5460 -0.5102
  607MOL0     H81905   1.766   2.524   8.995 -0.9697  0.7548 -1.2713
  607MOL0     H81906   1.955   2.672   8.915  0.7923  0.0188  2.1813
  607MOL0     H81907   2.253   2.725   8.785  2.1171 -1.4229  2.4159
  607MOL0     H81908   2.476   2.807   8.689 -2.9466  0.0811 -1.6870
  607MOL0     H81909   2.696   2.908   8.890 -0.1361  1.4595 -0.1721
  607MOL0     H81910   2.689   2.851   8.714 -2.3371 -0.3128  0.0507
  607MOL0     H81911   2.918   2.924   8.800 -2.7060 -1.2952  2.6565
  607MOL0     H81912   2.853   3.007   8.646  0.0340 -1.8533  0.5486
  607MOL0     H81913   2.806   3.197   8.761  0.0559 -1.8527 -2.0791
  607MOL0     H81914   2.834   3.133   8.929 -0.9712 -0.7568  0.2962
  607MOL0     H81915   3.070   3.113   8.897 -2.5923 -1.5250 -0.0929
  607MOL0     H81916   3.012   3.279   8.855 -2.0427  0.2106 -0.0968
  607MOL0     H81917   3.040   3.258   8.631 -0.3444  1.2764  1.1976
  607MOL0     H81918   3.086   3.082   8.635 -0.2256  1.3009 -1.0913
  607MOL0     H81919   3.260   3.319   8.726 -0.8469  0.7946 -2.6116
  607MOL0     H81920   3.293   3.174   8.797  0.7584  1.1187 -0.7106
  607MOL0     H81921   3.270   3.212   8.495 -2.8349 -0.9379  1.5696
  607MOL0     H81922   3.335   3.075   8.579  1.7010  0.5746 -0.1141
  607MOL0     H81923   3.477   3.346   8.591  1.7481  0.0471 -0.8878
  607MOL0     H81924   3.505   3.206   8.691 -2.9656  1.2495  1.3865
  607MOL0     H81925   2.445   3.164   8.934  0.3957 -0.1724 -1.3967
  607MOL0     H81926   2.215   3.097   9.005 -0.9407 -0.0961 -1.4716
  607MOL0     H81927   1.776   2.998   9.121  0.7569 -0.9504 -0.2078
  607MOL0     H81928   1.589   2.846   9.185 -1.8243 -3.1767 -0.5820
  607MOL0     H81929   0.952   2.761  10.996 -0.6608 -0.7366  0.5541
  607MOL0     H81930   0.760   2.841  11.125  1.8829  1.1977 -0.5246
  607MOL0     H81931   0.308   2.770  11.234 -0.2654 -0.0510 -0.9815
  607MOL0     H81932   0.080   2.813  11.277  2.0131 -3.3822 -2.3919
  607MOL0     H81933  -0.086   2.905  11.377  1.7832  1.1141  0.0346
  607MOL0     H81934  -0.156   2.883  11.215 -2.3618 -0.4034  0.8018
  607MOL0     H81935  -0.298   3.106  11.286 -0.8940 -0.4705  1.1047
  607MOL0     H81936  -0.233   3.076  11.441  1.3356 -3.8159  2.0004
  607MOL0     H81937  -0.311   2.872  11.457  1.3052 -1.3903 -2.0441
  607MOL0     H81938  -0.378   2.849  11.299  0.8516 -2.2371  2.5076
  607MOL0     H81939  -0.554   2.932  11.482 -3.8779 -0.4495 -2.0638
  607MOL0     H81940  -0.474   3.088  11.468  0.6500 -0.5547  0.7934
  607MOL0     H81941  -0.655   3.117  11.096 -2.6385  0.9207  1.6222
  607MOL0     H81942   0.135   3.221  11.163 -0.4022 -0.6908  2.2297
  607MOL0     H81943   0.408   3.173  10.947 -0.1254 -1.3542 -0.2397
  607MOL0     H81944   0.299   3.281  11.028 -1.6023 -0.5458  3.6911
  607MOL0     H81945   0.455   3.226  11.115 -2.6251  0.0481  3.0574
  608MOL0     O81946   8.153   6.484   5.749 -0.3608 -0.2542 -0.5229
  608MOL0     C81947   8.126   6.584   5.813  0.2925  0.0487  0.1697
  608MOL0     O81948   8.215   6.685   5.844  0.1290 -0.4984 -0.3843
  608MOL0     C81949   8.347   6.676   5.803  0.7040 -0.1912  0.3168
  608MOL0     C81950   8.379   6.646   5.668  0.3718  0.2325 -0.6775
  608MOL0     C81951   8.509   6.658   5.628 -0.1372 -0.5554  0.8259
  608MOL0     C81952   8.604   6.717   5.707 -0.7376  0.3377 -0.8861
  608MOL0     O81953   8.726   6.734   5.652  0.0193  0.8465 -0.3678
  608MOL0     C81954   8.824   6.819   5.721  0.3891 -0.6843  0.3063
  608MOL0     C81955   8.943   6.737   5.771 -0.3459  0.8422  0.6694
  608MOL0     C81956   9.062   6.827   5.789  0.0719  0.7383  0.3681
  608MOL0     C81957   9.050   6.915   5.917  0.4552  0.8056 -0.4779
  608MOL0     C81958   9.192   6.980   5.941 -0.1992  0.0025  0.3644
  608MOL0     C81959   9.172   7.135   5.958  0.3708 -0.5663  0.4853
  608MOL0     C81960   9.301   7.207   5.979  0.1887 -0.4723  0.0814
  608MOL0     C81961   9.293   7.340   6.040  0.3844 -0.5841 -0.2287
  608MOL0     N81962   9.235   7.436   5.945  0.4186  0.3966  0.2810
  608MOL0     C81963   9.280   7.459   5.816 -0.3401 -0.8267 -0.0594
  608MOL0     C81964   9.195   7.551   5.754  0.1679  0.0667 -0.2172
  608MOL0     C81965   9.203   7.603   5.614  0.4830 -0.5015 -0.6604
  608MOL0     C81966   9.134   7.740   5.590 -0.8580 -0.1152  0.1657
  608MOL0     C81967   9.203   7.860   5.667  0.1384 -0.6483 -0.1916
  608MOL0     C81968   9.328   7.898   5.597 -0.4039  0.5367 -1.1910
  608MOL0     O81969   9.398   8.009   5.663  0.4104  0.2037 -0.2963
  608MOL0     C81970   9.532   8.028   5.628  0.1833 -0.2391  0.0429
  608MOL0     C81971   9.589   8.134   5.704 -0.0581  0.7389  0.1832
  608MOL0     C81972   9.731   8.163   5.695  1.6225 -0.2120 -0.0876
  608MOL0     C81973   9.803   8.105   5.589 -0.6079  0.0858 -0.0783
  608MOL0     C81974   9.943   8.138   5.562 -0.1043 -0.6031  0.4882
  608MOL0     O81975  10.029   8.050   5.496  0.0136  0.5459  0.3297
  608MOL0     C81976  10.163   8.070   5.512 -0.5510 -0.4662 -0.7786
  608MOL0     C81977  10.252   8.054   5.411 -1.0495 -0.1678 -0.4860
  608MOL0     C81978  10.385   8.048   5.441 -0.5400 -0.2550 -0.5594
  608MOL0     C81979  10.435   8.087   5.573  0.5026  0.0846  0.1718
  608MOL0     O81980  10.567   8.114   5.583 -0.1088  0.0831 -0.4375
  608MOL0     C81981  10.644   8.015   5.666 -0.0048 -0.3561 -0.3208
  608MOL0     C81982  10.788   8.068   5.693  0.2479 -1.1373  1.5296
  608MOL0     C81983  10.874   8.062   5.563  0.4485  0.3770  0.1418
  608MOL0     C81984  11.021   8.082   5.590  0.7293 -0.5382  1.1795
  608MOL0     C81985  11.097   8.105   5.458  0.8236 -0.4912  0.2696
  608MOL0     C81986  11.249   8.113   5.473 -0.3712 -0.5141  0.7951
  608MOL0     C81987  11.307   8.105   5.326  0.1910 -0.8355 -0.5677
  608MOL0     C81988  11.453   8.076   5.332 -0.4010 -0.0075 -0.4163
  608MOL0    Cl81989  11.543   8.179   5.450  0.3631 -0.3623  0.0743
  608MOL0     C81990  10.348   8.112   5.673  0.0778 -0.6876 -0.3780
  608MOL0     C81991  10.218   8.098   5.640  0.4278  1.3708 -0.2083
  608MOL0     O81992   9.968   8.256   5.601 -0.6903  0.7463 -0.5219
  608MOL0     C81993   9.743   8.001   5.519 -0.5728 -0.1273  0.0408
  608MOL0     C81994   9.606   7.971   5.530 -0.0321  0.9137 -0.5749
  608MOL0     N81995   9.097   7.570   5.848 -0.3841  0.6532 -0.4929
  608MOL0     N81996   9.123   7.501   5.955  0.3379 -0.5558  0.0340
  608MOL0     C81997   8.580   6.723   5.847  0.3624  0.5311 -0.4740
  608MOL0     C81998   8.447   6.706   5.891 -0.2875  0.7299 -0.9189
  608MOL0     C81999   7.988   6.613   5.857  0.0207 -0.3650  0.8698
  608MOL0     C82000   7.956   6.741   5.895  0.7297 -0.4032 -0.6343
  608MOL0     C82001   7.825   6.771   5.937 -0.3175  0.5682  0.3110
  608MOL0     C82002   7.722   6.683   5.913  0.7739 -0.4633 -0.0420
  608MOL0     O82003   7.588   6.701   5.930  0.7590 -0.0252  0.2126
  608MOL0     C82004   7.547   6.823   5.994 -0.5456  0.4848  0.5528
  608MOL0     C82005   7.399   6.821   6.025  0.2657 -0.4666  0.0589
  608MOL0     C82006   7.311   6.797   5.896  0.0146 -0.0164  1.1278
  608MOL0     C82007   7.226   6.931   5.868 -0.9520 -0.2720 -0.2540
  608MOL0     C82008   7.128   6.956   5.965  0.0046 -1.0295  0.1197
  608MOL0     C82009   7.032   6.953   6.036 -0.6931 -0.5306  0.3374
  608MOL0     C82010   7.745   6.560   5.858 -0.7402 -0.2159  1.2472
  608MOL0     C82011   7.880   6.520   5.834  0.2568 -0.2668 -0.8475
  608MOL0     C82012   7.896   6.382   5.766  0.7655 -1.1397 -0.6130
  608MOL0     H82013   8.315   6.607   5.589 -0.3393  1.1862 -0.5947
  608MOL0     H82014   8.538   6.635   5.526 -1.6496  1.2049 -0.0774
  608MOL0     H82015   8.855   6.888   5.642 -0.7765  1.6595  1.7903
  608MOL0     H82016   8.776   6.875   5.802 -2.3491 -2.0783 -0.2416
  608MOL0     H82017   8.973   6.670   5.690  2.0901  0.9315  1.3905
  608MOL0     H82018   8.915   6.690   5.866 -0.6750  2.3927  1.3797
  608MOL0     H82019   9.084   6.892   5.703  0.1732  2.5280  1.6761
  608MOL0     H82020   9.149   6.766   5.815 -0.5834 -0.9949 -1.2828
  608MOL0     H82021   8.968   6.988   5.915  0.2502  0.6178  0.6333
  608MOL0     H82022   9.031   6.855   6.006  4.8319 -2.0701 -1.1892
  608MOL0     H82023   9.220   6.933   6.035  1.7362  1.6481  0.6724
  608MOL0     H82024   9.271   6.955   5.871 -0.2190 -3.6778  1.4345
  608MOL0     H82025   9.125   7.162   5.863 -1.1125 -3.5784  0.2380
  608MOL0     H82026   9.106   7.139   6.045  1.9782 -1.0600  1.7625
  608MOL0     H82027   9.352   7.188   5.884 -0.6756 -2.4959 -0.0439
  608MOL0     H82028   9.354   7.144   6.051  0.0579  1.1172  1.6253
  608MOL0     H82029   9.229   7.331   6.129 -1.5009  1.6197 -1.2335
  608MOL0     H82030   9.393   7.373   6.067 -0.0719  0.0594  0.7135
  608MOL0     H82031   9.381   7.433   5.786  0.2921 -1.3587  2.3531
  608MOL0     H82032   9.310   7.609   5.591  1.0488 -0.4421  1.7383
  608MOL0     H82033   9.166   7.532   5.539 -0.2742 -0.4903 -0.3005
  608MOL0     H82034   9.146   7.755   5.483  0.6425 -0.5443  0.2573
  608MOL0     H82035   9.030   7.745   5.625 -0.4972  0.9447  1.1590
  608MOL0     H82036   9.221   7.861   5.775 -1.1624 -0.6160  0.0487
  608MOL0     H82037   9.127   7.938   5.660  2.1448  1.2830 -2.0446
  608MOL0     H82038   9.311   7.907   5.489  0.3890 -2.2369 -1.6152
  608MOL0     H82039   9.400   7.818   5.614  0.9648  2.2648  2.0038
  608MOL0     H82040   9.522   8.172   5.780  1.4304 -2.4050  3.3492
  608MOL0     H82041   9.778   8.234   5.763 -0.3159 -1.4555  2.7594
  608MOL0     H82042  10.215   8.033   5.311  0.7262  1.3736 -1.5251
  608MOL0     H82043  10.466   8.018   5.376  2.0816  1.9917  1.4117
  608MOL0     H82044  10.610   8.007   5.770 -1.2984 -0.4274 -0.7360
  608MOL0     H82045  10.641   7.916   5.621 -1.9627 -0.6563  0.3713
  608MOL0     H82046  10.783   8.173   5.723  1.2640 -0.5331 -0.2926
  608MOL0     H82047  10.837   8.008   5.771  1.8446  0.0747  1.5046
  608MOL0     H82048  10.869   7.968   5.508 -0.2592 -0.2084  1.1695
  608MOL0     H82049  10.842   8.138   5.491 -2.8641 -1.8487 -0.9671
  608MOL0     H82050  11.064   8.024   5.672  0.5915  0.7701  2.2262
  608MOL0     H82051  11.027   8.183   5.634  1.0891 -0.4433  0.9160
  608MOL0     H82052  11.044   8.186   5.408 -2.2648 -3.3944 -1.5782
  608MOL0     H82053  11.077   8.023   5.389 -1.7353 -0.6028  1.0223
  608MOL0     H82054  11.269   8.205   5.529 -0.4012 -0.2619  0.4024
  608MOL0     H82055  11.282   8.024   5.527  1.1048 -0.0205  0.7372
  608MOL0     H82056  11.302   8.200   5.271  1.9799  0.2953  1.0682
  608MOL0     H82057  11.261   8.021   5.274  0.8005 -0.6757 -1.3847
  608MOL0     H82058  11.465   7.971   5.362 -3.3451 -0.6225 -1.0976
  608MOL0     H82059  11.494   8.089   5.231 -0.4295 -1.0506 -0.5777
  608MOL0     H82060  10.377   8.136   5.775  2.2062 -0.5862 -0.9782
  608MOL0     H82061  10.153   8.104   5.727  1.9003 -1.1216  1.1631
  608MOL0     H82062   9.803   7.950   5.444  1.0134  1.5521  0.0917
  608MOL0     H82063   9.557   7.895   5.470 -1.1048  2.5748 -1.8807
  608MOL0     H82064   8.663   6.741   5.914  0.7865  0.7769 -1.0695
  608MOL0     H82065   8.423   6.730   5.994  0.6224  3.3912 -1.2711
  608MOL0     H82066   8.025   6.821   5.922 -2.1415  2.4707 -1.1110
  608MOL0     H82067   7.820   6.863   5.995 -3.2552 -0.0558  1.2555
  608MOL0     H82068   7.566   6.904   5.923  1.7716 -0.4765 -0.0309
  608MOL0     H82069   7.597   6.846   6.089 -1.3020  3.2018  0.3647
  608MOL0     H82070   7.374   6.908   6.087  0.8362  0.2558 -0.7078
  608MOL0     H82071   7.382   6.737   6.093 -2.0237 -1.0212 -1.0785
  608MOL0     H82072   7.232   6.729   5.928 -2.2368  1.6915 -0.4878
  608MOL0     H82073   7.373   6.771   5.810  0.6745  1.4232  1.1494
  608MOL0     H82074   7.303   7.008   5.877 -1.1623 -0.0400 -0.4125
  608MOL0     H82075   7.180   6.920   5.769 -3.4927  0.5825  0.7245
  608MOL0     H82076   6.952   6.951   6.107  1.0629 -1.0991  2.4058
  608MOL0     H82077   7.661   6.492   5.846  0.9184 -2.0924 -0.4644
  608MOL0     H82078   7.920   6.396   5.661  1.3025 -2.1869 -0.6483
  608MOL0     H82079   7.974   6.327   5.820  2.5522  2.3664  0.7128
  608MOL0     H82080   7.796   6.341   5.778 -0.6114  2.3006  1.1769
  609MOL0     O82081   0.178   0.947   9.872 -0.5852  0.2608  0.6568
  609MOL0     C82082   0.147   0.922   9.987 -0.8115 -0.2001 -1.1002
  609MOL0     O82083   0.237   0.926  10.097  0.5400  0.7067  0.0747
  609MOL0     C82084   0.371   0.910  10.081 -0.4844 -0.9406 -0.1707
  609MOL0     C82085   0.445   0.994  10.160  0.4877 -0.1133 -0.2424
  609MOL0     C82086   0.585   0.995  10.134  0.1398  0.3009 -0.6234
  609MOL0     C82087   0.656   0.903  10.050  0.0501 -0.0680 -0.3360
  609MOL0     O82088   0.794   0.896  10.060  0.2581 -0.2481 -0.4300
  609MOL0     C82089   0.871   0.810   9.985  0.1994 -0.4203 -0.3589
  609MOL0     C82090   1.017   0.823  10.051  0.0007  0.0963 -0.6756
  609MOL0     C82091   1.108   0.739   9.970 -0.6620 -0.1143 -0.1869
  609MOL0     C82092   1.250   0.782  10.014  0.5021  0.3408  0.5893
  609MOL0     C82093   1.349   0.688   9.947 -0.7239 -0.1042  0.2423
  609MOL0     C82094   1.482   0.692  10.023  0.2973 -0.6395 -0.8218
  609MOL0     C82095   1.601   0.655   9.940 -0.2346 -0.3846  0.1380
  609MOL0     C82096   1.725   0.656  10.020 -0.2915 -0.4693 -0.3505
  609MOL0     N82097   1.827   0.665   9.918 -0.1423  0.3103 -0.3819
  609MOL0     C82098   1.856   0.779   9.856 -0.4015 -0.1422 -0.1941
  609MOL0     C82099   1.927   0.748   9.741  0.0173  0.7290  0.2806
  609MOL0     C82100   1.985   0.855   9.651 -0.5165  1.1795 -0.5580
  609MOL0     C82101   1.870   0.940   9.587 -0.3616  0.3588 -0.0541
  609MOL0     C82102   1.847   1.077   9.658 -0.4571 -0.2887  0.6463
  609MOL0     C82103   1.919   1.190   9.588  0.1394 -0.1499 -0.2780
  609MOL0     O82104   2.059   1.184   9.623  0.6160  0.2817 -0.1820
  609MOL0     C82105   2.150   1.201   9.525  0.8339  0.3864 -0.4868
  609MOL0     C82106   2.145   1.272   9.408  0.2129 -0.4728  0.6014
  609MOL0     C82107   2.264   1.279   9.325 -0.5412 -0.9948 -0.5685
  609MOL0     C82108   2.385   1.219   9.363  0.5700  0.3208 -1.0822
  609MOL0     C82109   2.510   1.229   9.285  0.0690 -0.4289  0.3629
  609MOL0     O82110   2.503   1.327   9.191 -0.5165 -0.1346 -0.3073
  609MOL0     C82111   2.603   1.349   9.106 -0.5759  0.9741  0.6661
  609MOL0     C82112   2.583   1.402   8.976  0.1572  0.0673  0.4999
  609MOL0     C82113   2.688   1.438   8.891 -0.4383  0.9412 -0.2119
  609MOL0     C82114   2.817   1.430   8.930  0.3738 -0.3827 -0.2860
  609MOL0     O82115   2.912   1.472   8.837  0.4959 -0.4814 -0.5061
  609MOL0     C82116   3.045   1.444   8.857  0.5473  0.6219 -0.6274
  609MOL0     C82117   3.125   1.483   8.740 -0.7482  0.7953  0.6793
  609MOL0     C82118   3.237   1.585   8.785  0.8041 -0.3907  0.3058
  609MOL0     C82119   3.347   1.608   8.677 -0.5606  0.6177 -0.0374
  609MOL0     C82120   3.463   1.683   8.741  0.2159  0.2028 -0.4298
  609MOL0     C82121   3.545   1.769   8.652 -0.1594  0.2506  0.7563
  609MOL0     C82122   3.669   1.840   8.724 -0.2522  0.4558 -0.2160
  609MOL0     C82123   3.630   1.938   8.841  0.5955  0.9783 -0.0675
  609MOL0    Cl82124   3.754   2.054   8.888  0.0834  0.7528 -0.1115
  609MOL0     C82125   2.843   1.381   9.059 -0.4852 -0.9013 -0.5390
  609MOL0     C82126   2.736   1.352   9.144 -0.3154 -0.3907  0.2422
  609MOL0     O82127   2.600   1.152   9.300 -0.2143  0.3920  0.4106
  609MOL0     C82128   2.381   1.144   9.480  0.5622 -0.1675 -0.3070
  609MOL0     C82129   2.267   1.138   9.559 -0.4802 -0.7555  0.4008
  609MOL0     N82130   1.927   0.610   9.742  0.5810 -0.3164 -0.0279
  609MOL0     N82131   1.872   0.557   9.846  0.0254 -0.6089  0.3215
  609MOL0     C82132   0.573   0.810   9.983  0.7417  0.2859  0.0655
  609MOL0     C82133   0.433   0.811   9.994  0.0902  0.0598 -0.4571
  609MOL0     C82134   0.006   0.878   9.997 -0.4552 -0.5747 -0.2898
  609MOL0     C82135  -0.087   0.973   9.964  0.3556 -0.7749  0.8251
  609MOL0     C82136  -0.222   0.954  10.009 -0.4676 -0.1182  0.1427
  609MOL0     C82137  -0.259   0.837  10.078 -0.0926 -0.0989 -0.3180
  609MOL0     O82138  -0.381   0.799  10.129  0.6383 -0.1964 -0.5491
  609MOL0     C82139  -0.487   0.899  10.143  1.3937 -1.4407 -0.3047
  609MOL0     C82140  -0.580   0.867  10.264  1.2387  0.1847  0.1612
  609MOL0     C82141  -0.673   0.991  10.291  0.4015 -0.8799 -0.5965
  609MOL0     C82142  -0.792   0.986  10.195  0.5790 -0.1195 -0.4721
  609MOL0     C82143  -0.910   1.041  10.255 -0.2089 -0.9914 -0.2219
  609MOL0     C82144  -0.983   1.106  10.330  0.5307 -0.2075  0.7456
  609MOL0     C82145  -0.156   0.743  10.110 -0.5484  0.1792 -0.2189
  609MOL0     C82146  -0.025   0.760  10.070 -0.4953 -0.1959  0.6403
  609MOL0     C82147   0.070   0.660  10.114 -0.1666  0.2806  0.1447
  609MOL0     H82148   0.396   1.070  10.220 -1.7039 -0.5369 -1.4099
  609MOL0     H82149   0.642   1.068  10.191  0.5591 -1.1285  0.8715
  609MOL0     H82150   0.834   0.709  10.002  0.3246 -0.4709 -0.3949
  609MOL0     H82151   0.870   0.835   9.879  0.6686 -3.2642 -1.0980
  609MOL0     H82152   1.035   0.804  10.157  0.2163  3.1672 -0.0620
  609MOL0     H82153   1.047   0.926  10.028  4.6294 -0.7526  0.6241
  609MOL0     H82154   1.084   0.777   9.870  1.0681  2.3769  0.2507
  609MOL0     H82155   1.088   0.632   9.981  0.7618 -0.5527 -1.4585
  609MOL0     H82156   1.281   0.884   9.990  1.5801 -0.0201  0.3742
  609MOL0     H82157   1.257   0.775  10.123  1.2230  0.0290  0.5284
  609MOL0     H82158   1.307   0.587   9.955  2.5075 -1.4099  3.3435
  609MOL0     H82159   1.359   0.724   9.845 -0.6465 -1.7828 -0.3635
  609MOL0     H82160   1.507   0.783  10.078  0.6666 -1.6934  0.8192
  609MOL0     H82161   1.477   0.624  10.108  1.9429 -4.3709 -3.4135
  609MOL0     H82162   1.601   0.721   9.853 -1.3195 -2.3921 -1.4627
  609MOL0     H82163   1.586   0.553   9.903  1.7916 -0.2363 -1.2540
  609MOL0     H82164   1.724   0.738  10.093 -0.8184 -1.1989  0.4813
  609MOL0     H82165   1.723   0.560  10.072 -2.3752  1.3079  3.2208
  609MOL0     H82166   1.834   0.878   9.893 -1.2077  1.0706 -3.5533
  609MOL0     H82167   2.045   0.916   9.719  0.3669  0.4844 -0.6862
  609MOL0     H82168   2.048   0.815   9.570 -0.2225 -1.0677  0.7042
  609MOL0     H82169   1.905   0.957   9.484  1.9207  3.5523  1.1079
  609MOL0     H82170   1.777   0.884   9.573 -1.3701  1.5228  1.6492
  609MOL0     H82171   1.870   1.061   9.764 -1.4867 -2.1776  0.6387
  609MOL0     H82172   1.741   1.102   9.665 -1.0030 -1.6368 -1.8371
  609MOL0     H82173   1.869   1.281   9.624  0.4584  0.0699 -0.3889
  609MOL0     H82174   1.898   1.188   9.481  1.2221  1.1640 -0.5378
  609MOL0     H82175   2.054   1.325   9.383  0.6549 -0.0590 -0.1731
  609MOL0     H82176   2.262   1.336   9.233 -0.9421  2.0136  1.1538
  609MOL0     H82177   2.483   1.409   8.935  0.5381  1.4951 -0.2737
  609MOL0     H82178   2.673   1.471   8.789  1.6835  1.6643 -0.3544
  609MOL0     H82179   3.074   1.506   8.943  0.2632  1.9133 -1.4285
  609MOL0     H82180   3.061   1.341   8.889  3.2105  2.0253  3.4735
  609MOL0     H82181   3.159   1.391   8.692 -5.7374 -0.2531 -1.5090
  609MOL0     H82182   3.066   1.529   8.660  0.3254  1.1412  0.0626
  609MOL0     H82183   3.188   1.678   8.814 -0.6332 -0.8332 -0.5764
  609MOL0     H82184   3.274   1.541   8.878 -0.7001 -0.7610  0.7499
  609MOL0     H82185   3.317   1.681   8.601  1.4068  1.6152  0.0688
  609MOL0     H82186   3.385   1.514   8.637 -2.1013 -0.6075  1.2367
  609MOL0     H82187   3.530   1.607   8.784 -0.6437 -1.7424 -2.3445
  609MOL0     H82188   3.419   1.747   8.818 -1.8334  0.6163 -1.8893
  609MOL0     H82189   3.577   1.722   8.559  1.3600  0.1533  1.2970
  609MOL0     H82190   3.483   1.848   8.610 -0.3785 -2.7101 -5.5589
  609MOL0     H82191   3.727   1.887   8.644  0.1701  0.6326  0.1896
  609MOL0     H82192   3.747   1.770   8.758 -0.0917  0.9737  0.4934
  609MOL0     H82193   3.540   1.991   8.810 -1.3255 -1.2680  1.3541
  609MOL0     H82194   3.597   1.872   8.922 -1.3183  0.5292 -1.1815
  609MOL0     H82195   2.948   1.385   9.083 -0.4912  0.6641 -0.6875
  609MOL0     H82196   2.757   1.300   9.236 -0.0225 -2.6032 -1.0064
  609MOL0     H82197   2.460   1.080   9.518  2.7590  0.7327 -3.0284
  609MOL0     H82198   2.255   1.089   9.655 -0.4371  1.4284  1.5857
  609MOL0     H82199   0.608   0.729   9.920 -0.5296 -0.6566  0.5177
  609MOL0     H82200   0.381   0.739   9.932  1.0735 -2.0299  1.0368
  609MOL0     H82201  -0.060   1.067   9.917 -0.6634 -1.4651 -1.2488
  609MOL0     H82202  -0.294   1.032   9.988 -0.3582  0.0949  0.5574
  609MOL0     H82203  -0.559   0.889  10.061 -0.7213 -3.2590  1.6092
  609MOL0     H82204  -0.444   1.000  10.145 -4.5850  1.6020 -2.1276
  609MOL0     H82205  -0.511   0.838  10.343  0.5735 -1.3048  0.2191
  609MOL0     H82206  -0.649   0.784  10.246  1.1017  0.7360 -2.3610
  609MOL0     H82207  -0.620   1.084  10.270 -1.4525  0.7584  1.5185
  609MOL0     H82208  -0.696   0.981  10.397 -2.3102  1.1771 -0.8780
  609MOL0     H82209  -0.778   1.031  10.096 -0.5345 -1.8383 -1.4684
  609MOL0     H82210  -0.826   0.882  10.186 -3.2446  0.5466  3.3422
  609MOL0     H82211  -1.052   1.156  10.395  0.2052 -0.5794  0.6914
  609MOL0     H82212  -0.204   0.658  10.158  1.2104 -0.0605  1.1846
  609MOL0     H82213   0.172   0.680  10.080 -0.7523 -0.0916 -1.9629
  609MOL0     H82214   0.084   0.660  10.223  1.7650 -0.8446 -0.0570
  609MOL0     H82215   0.033   0.564  10.076 -2.3167  1.6303 -1.3856
  610MOL0     O82216   3.168   7.099   6.496  0.2336 -0.1108  0.0335
  610MOL0     C82217   3.064   7.130   6.444 -0.0403  0.1002  0.2189
  610MOL0     O82218   3.007   7.046   6.357 -0.7365  0.5469  0.9034
  610MOL0     C82219   3.079   6.936   6.308 -0.2109  0.6203 -0.1748
  610MOL0     C82220   3.019   6.809   6.333 -0.5851  1.1226  0.8719
  610MOL0     C82221   3.081   6.688   6.296  0.2289  0.2686 -0.1282
  610MOL0     C82222   3.207   6.684   6.234 -0.1991  0.1364  0.6115
  610MOL0     O82223   3.260   6.568   6.185  0.5486 -0.4790  0.7676
  610MOL0     C82224   3.365   6.570   6.087 -0.2892  0.2063 -0.0784
  610MOL0     C82225   3.504   6.598   6.159  1.2610  0.9057 -0.7194
  610MOL0     C82226   3.543   6.482   6.254  0.9989  0.0125 -0.4382
  610MOL0     C82227   3.686   6.490   6.320 -0.8296 -0.0557 -0.0929
  610MOL0     C82228   3.706   6.400   6.445  0.3854  0.8280 -0.4870
  610MOL0     C82229   3.666   6.248   6.426 -0.4290 -0.2547 -0.8397
  610MOL0     C82230   3.750   6.184   6.321  0.0546 -0.5647  0.1834
  610MOL0     C82231   3.804   6.047   6.359  0.1309 -0.2764  0.3231
  610MOL0     N82232   3.892   5.989   6.259 -0.4440 -0.1763  0.5271
  610MOL0     C82233   4.018   6.025   6.224 -0.1967  0.0771 -0.0502
  610MOL0     C82234   4.057   5.931   6.137  0.0676  0.1748  0.2478
  610MOL0     C82235   4.186   5.920   6.069  0.1105 -0.2771  0.7765
  610MOL0     C82236   4.297   5.912   6.176  0.3181 -0.6165  0.7297
  610MOL0     C82237   4.430   5.919   6.100 -0.7015  0.1026  0.3725
  610MOL0     C82238   4.552   5.877   6.181  0.1639  0.1182  0.3276
  610MOL0     O82239   4.558   5.733   6.180  0.5950 -0.7008  0.3187
  610MOL0     C82240   4.659   5.664   6.251 -0.5169 -0.6676  0.4165
  610MOL0     C82241   4.773   5.722   6.306 -0.8877  0.8890 -0.6356
  610MOL0     C82242   4.879   5.635   6.341  0.0070 -0.0683 -0.3477
  610MOL0     C82243   4.879   5.496   6.343  0.0279  0.0168 -0.4980
  610MOL0     C82244   4.994   5.412   6.384 -0.7292 -0.5896  0.0462
  610MOL0     O82245   5.102   5.487   6.423  0.2658 -0.5355 -0.0078
  610MOL0     C82246   5.222   5.414   6.433  0.0235  0.5972 -0.0696
  610MOL0     C82247   5.265   5.354   6.552 -0.3796 -0.3723  0.5708
  610MOL0     C82248   5.393   5.322   6.564 -0.5928  0.0744  0.1338
  610MOL0     C82249   5.481   5.325   6.455  0.8545  0.5401 -0.4385
  610MOL0     O82250   5.604   5.276   6.475  0.2982  0.3942  0.4634
  610MOL0     C82251   5.620   5.146   6.547 -0.0076  0.4349  0.2376
  610MOL0     C82252   5.777   5.118   6.535  0.6834 -0.5691 -0.1258
  610MOL0     C82253   5.798   4.991   6.606 -0.0442 -0.0567 -0.5772
  610MOL0     C82254   5.927   4.927   6.565  0.9379  0.3907  0.6361
  610MOL0     C82255   5.985   4.857   6.686 -0.1000  0.5764 -0.9368
  610MOL0     C82256   6.038   4.958   6.788  0.6450 -0.2824  0.0938
  610MOL0     C82257   6.087   4.897   6.916 -0.6310  0.1744 -1.0249
  610MOL0     C82258   5.965   4.868   7.004 -1.3573 -0.4593  0.2877
  610MOL0    Cl82259   5.987   4.713   7.078  0.3077 -0.1539  0.2740
  610MOL0     C82260   5.438   5.376   6.337  0.0345 -0.7018  0.2493
  610MOL0     C82261   5.311   5.427   6.326 -0.6337  0.1368  0.9417
  610MOL0     O82262   4.985   5.289   6.380  0.7221 -0.7612  0.2083
  610MOL0     C82263   4.751   5.443   6.303 -0.4453  0.7994  0.2037
  610MOL0     C82264   4.644   5.526   6.258  0.2174 -0.2292 -0.4509
  610MOL0     N82265   3.953   5.848   6.110  0.9533  0.2840 -0.0652
  610MOL0     N82266   3.848   5.882   6.175  0.1783  0.7273  0.1420
  610MOL0     C82267   3.260   6.815   6.210 -0.6831 -0.0433  0.2643
  610MOL0     C82268   3.195   6.939   6.240 -0.2272  0.5652 -0.1248
  610MOL0     C82269   3.000   7.264   6.480 -0.3262 -0.8928  0.4050
  610MOL0     C82270   3.055   7.347   6.587 -0.0250 -0.0325  0.2347
  610MOL0     C82271   2.991   7.468   6.638 -0.5448  0.0483  0.9413
  610MOL0     C82272   2.865   7.498   6.582 -0.3357 -1.2965 -0.3326
  610MOL0     O82273   2.778   7.590   6.628  0.3957 -0.0582 -0.5684
  610MOL0     C82274   2.772   7.705   6.543  0.0735 -0.4958  0.2924
  610MOL0     C82275   2.689   7.812   6.615 -0.2393 -0.8477 -0.3497
  610MOL0     C82276   2.542   7.774   6.610 -0.3528  0.3271 -0.4769
  610MOL0     C82277   2.440   7.861   6.678  0.2710 -0.2075  1.2692
  610MOL0     C82278   2.299   7.837   6.635  0.9093 -0.2051 -0.2221
  610MOL0     C82279   2.178   7.829   6.597  0.6504  0.4623 -0.1209
  610MOL0     C82280   2.810   7.414   6.482 -0.1551  0.9013  0.0197
  610MOL0     C82281   2.876   7.305   6.427 -0.2127 -0.5069  1.0407
  610MOL0     C82282   2.799   7.224   6.322  0.0470 -0.0040  0.1902
  610MOL0     H82283   2.922   6.809   6.382 -0.9304 -1.2413  0.3052
  610MOL0     H82284   3.028   6.597   6.324  1.7338 -0.3916  0.6678
  610MOL0     H82285   3.366   6.472   6.040  2.4725 -0.2402  0.7192
  610MOL0     H82286   3.353   6.640   6.003  0.0975  0.1493 -0.1860
  610MOL0     H82287   3.494   6.683   6.228  1.2511  0.8149 -0.6095
  610MOL0     H82288   3.583   6.619   6.087  1.1006  1.6661 -0.6839
  610MOL0     H82289   3.527   6.387   6.201 -2.1016  0.3643 -0.2898
  610MOL0     H82290   3.465   6.488   6.330  1.2830  0.5241 -0.1849
  610MOL0     H82291   3.746   6.456   6.236 -0.9676  0.9800 -0.6267
  610MOL0     H82292   3.721   6.591   6.341  1.5652 -1.0393  0.9742
  610MOL0     H82293   3.810   6.399   6.479  1.2605 -0.3518 -2.9027
  610MOL0     H82294   3.649   6.447   6.525  2.1027  0.3050  1.0994
  610MOL0     H82295   3.685   6.197   6.521  2.5579  1.1620 -0.5491
  610MOL0     H82296   3.559   6.247   6.405 -0.2840  1.5420 -1.9473
  610MOL0     H82297   3.837   6.247   6.298 -0.3320  0.0497  0.3616
  610MOL0     H82298   3.694   6.178   6.227  0.2971  0.5484 -0.0525
  610MOL0     H82299   3.846   6.053   6.460  2.8268 -0.1288 -0.7451
  610MOL0     H82300   3.727   5.969   6.367  1.9552 -2.0810  1.3180
  610MOL0     H82301   4.084   6.103   6.260  1.6763 -0.5940 -1.8325
  610MOL0     H82302   4.199   5.831   6.007 -0.8816 -1.2096  1.8789
  610MOL0     H82303   4.186   6.012   6.009 -0.2078 -0.5674  0.3228
  610MOL0     H82304   4.282   6.001   6.237  2.9852  1.3195 -1.2086
  610MOL0     H82305   4.294   5.820   6.236  0.4682 -0.5908  0.7755
  610MOL0     H82306   4.438   6.022   6.064  0.9616 -0.6890 -1.6938
  610MOL0     H82307   4.429   5.856   6.011  1.9213 -1.8917  1.6402
  610MOL0     H82308   4.533   5.930   6.275 -0.5793 -0.3552  0.4566
  610MOL0     H82309   4.641   5.917   6.132 -0.6231  1.6580  0.0850
  610MOL0     H82310   4.787   5.829   6.317 -1.4939  1.0008 -0.9002
  610MOL0     H82311   4.960   5.697   6.378 -1.8639  1.5521  1.2417
  610MOL0     H82312   5.199   5.342   6.638 -0.2734 -4.1018  0.2656
  610MOL0     H82313   5.416   5.268   6.655  0.6397 -1.3074 -0.9290
  610MOL0     H82314   5.594   5.151   6.653 -0.7825 -0.5772  0.1128
  610MOL0     H82315   5.563   5.068   6.497 -0.8387 -0.7456  2.8923
  610MOL0     H82316   5.810   5.113   6.430  2.9798 -1.0239  0.5693
  610MOL0     H82317   5.841   5.194   6.582 -1.6262  0.6268  1.2716
  610MOL0     H82318   5.775   5.002   6.712  0.2505 -1.2128 -0.3812
  610MOL0     H82319   5.725   4.918   6.568 -2.3845  2.0913 -0.4653
  610MOL0     H82320   5.999   4.982   6.504  1.2831 -1.3065 -0.5549
  610MOL0     H82321   5.901   4.847   6.496 -2.8841  1.5745  0.5057
  610MOL0     H82322   6.062   4.788   6.650 -2.0605 -2.7020  0.6793
  610MOL0     H82323   5.902   4.799   6.727 -1.0021  3.2918  1.4802
  610MOL0     H82324   6.119   5.014   6.741 -0.2921 -1.1583 -2.8016
  610MOL0     H82325   5.961   5.034   6.803 -2.5559 -2.7195 -2.4372
  610MOL0     H82326   6.150   4.967   6.971  1.0950 -2.2095  0.2395
  610MOL0     H82327   6.154   4.811   6.904 -0.3534 -0.0406  1.5318
  610MOL0     H82328   5.938   4.944   7.077 -4.8012  0.6252 -1.8721
  610MOL0     H82329   5.876   4.847   6.944 -1.4871 -2.0773  0.9780
  610MOL0     H82330   5.497   5.384   6.246 -0.3679  0.1658  0.0511
  610MOL0     H82331   5.266   5.471   6.237 -3.1291 -1.6221  1.2122
  610MOL0     H82332   4.750   5.335   6.302  3.5733  0.5892 -1.7360
  610MOL0     H82333   4.553   5.486   6.216  0.3692 -0.2370 -0.7759
  610MOL0     H82334   3.358   6.814   6.164 -0.9410 -0.0872 -0.2833
  610MOL0     H82335   3.241   7.034   6.215 -0.6258  0.8987  0.4047
  610MOL0     H82336   3.154   7.321   6.622  0.6980  0.8845 -1.0084
  610MOL0     H82337   3.049   7.532   6.703 -0.1214  0.6957 -0.0421
  610MOL0     H82338   2.741   7.684   6.441 -0.1847 -3.1945  0.8484
  610MOL0     H82339   2.873   7.747   6.541  1.5618 -3.7056  1.6299
  610MOL0     H82340   2.702   7.909   6.568  0.1564  0.3309  2.0328
  610MOL0     H82341   2.719   7.818   6.720 -1.6535  0.8225  0.0035
  610MOL0     H82342   2.533   7.673   6.652 -0.8293  1.5368  2.5637
  610MOL0     H82343   2.530   7.775   6.501 -0.6460  3.3606 -0.5119
  610MOL0     H82344   2.454   7.832   6.782  0.3431  0.5572  1.4760
  610MOL0     H82345   2.462   7.967   6.662  0.6591 -0.7150 -2.3981
  610MOL0     H82346   2.078   7.811   6.563  1.4645 -1.1899 -1.8635
  610MOL0     H82347   2.714   7.446   6.442 -0.2431  0.1614 -0.3827
  610MOL0     H82348   2.874   7.221   6.242  1.3476  1.5580  1.2898
  610MOL0     H82349   2.772   7.126   6.362 -2.3197  1.6606  3.0981
  610MOL0     H82350   2.706   7.270   6.288 -1.2213 -1.4685  1.5427
  611MOL0     O82351   8.087   3.768  10.179  1.0570 -0.3411 -0.2894
  611MOL0     C82352   8.034   3.797  10.288  0.2587  0.5158 -0.2707
  611MOL0     O82353   7.915   3.747  10.342 -0.9308 -0.3279 -1.2110
  611MOL0     C82354   7.848   3.675  10.241 -0.3232  0.0717 -0.0733
  611MOL0     C82355   7.820   3.727  10.113  0.1381  0.3905 -0.1330
  611MOL0     C82356   7.732   3.663  10.026 -0.1430 -0.2037  0.2658
  611MOL0     C82357   7.672   3.539  10.059 -0.8127  0.1702  0.2338
  611MOL0     O82358   7.577   3.487   9.972 -0.0201  0.2691  0.3127
  611MOL0     C82359   7.603   3.490   9.830  0.2603  0.0687 -0.3380
  611MOL0     C82360   7.502   3.394   9.761 -0.8563 -0.9020 -0.2869
  611MOL0     C82361   7.353   3.428   9.781 -0.7527 -0.2348 -0.4926
  611MOL0     C82362   7.268   3.369   9.674  1.0044 -0.0443 -0.1215
  611MOL0     C82363   7.113   3.395   9.698  0.9329  0.6876  0.3905
  611MOL0     C82364   7.047   3.343   9.567  0.0975  0.4727 -0.3057
  611MOL0     C82365   7.027   3.464   9.474  0.2095 -0.1950 -0.0684
  611MOL0     C82366   6.931   3.442   9.355  0.7206  0.8287  0.7335
  611MOL0     N82367   6.788   3.412   9.381  0.1224 -0.3863 -0.2287
  611MOL0     C82368   6.726   3.293   9.380 -0.2973 -0.4294  0.0312
  611MOL0     C82369   6.596   3.322   9.417 -1.2285  0.3324 -0.0227
  611MOL0     C82370   6.492   3.219   9.451 -1.4578  0.0917 -0.3871
  611MOL0     C82371   6.536   3.113   9.554 -0.9141  0.4143  0.1696
  611MOL0     C82372   6.518   3.148   9.707 -0.6274 -0.1742  0.0873
  611MOL0     C82373   6.615   3.271   9.736  0.2970 -0.0899 -0.2251
  611MOL0     O82374   6.640   3.265   9.880 -0.4735  0.4999  0.2101
  611MOL0     C82375   6.727   3.354   9.929 -0.2621  0.4622 -0.0906
  611MOL0     C82376   6.752   3.483   9.875  0.7847 -0.3135 -0.5212
  611MOL0     C82377   6.857   3.567   9.918 -0.1602  0.2333 -0.0888
  611MOL0     C82378   6.935   3.524  10.030 -0.6090  0.5292 -0.3259
  611MOL0     C82379   7.046   3.607  10.064  0.5031 -0.1831 -0.3531
  611MOL0     O82380   7.111   3.580  10.184 -0.2229 -0.5676 -0.3933
  611MOL0     C82381   7.196   3.680  10.228 -0.3050 -0.6714  0.9760
  611MOL0     C82382   7.328   3.698  10.171  0.2980  0.3962 -0.5934
  611MOL0     C82383   7.419   3.783  10.222 -0.4489  0.1038 -0.2622
  611MOL0     C82384   7.377   3.864  10.326  0.0699 -1.2500 -0.6760
  611MOL0     O82385   7.443   3.967  10.387  0.4895 -0.3036  0.1105
  611MOL0     C82386   7.587   3.968  10.386  0.3270  0.8263 -0.3236
  611MOL0     C82387   7.625   3.915  10.529  0.3322  0.0475 -0.2250
  611MOL0     C82388   7.582   4.020  10.641 -0.4260  0.4445 -0.4223
  611MOL0     C82389   7.584   3.943  10.775  0.3306 -0.0009 -0.3102
  611MOL0     C82390   7.552   4.021  10.906  0.6539 -0.5939  0.2670
  611MOL0     C82391   7.658   4.132  10.952  0.8717 -0.0286  0.2699
  611MOL0     C82392   7.606   4.229  11.058  0.7742  0.1893 -0.2637
  611MOL0     C82393   7.606   4.156  11.193 -0.3449  0.2824  0.0918
  611MOL0    Cl82394   7.548   4.279  11.318 -0.5911 -0.0111  0.1431
  611MOL0     C82395   7.258   3.850  10.387 -0.4879  1.0447  0.3642
  611MOL0     C82396   7.167   3.750  10.344  0.7100  0.8681 -0.4582
  611MOL0     O82397   7.059   3.710  10.004  0.7582 -0.3744  0.1180
  611MOL0     C82398   6.907   3.395  10.092 -0.6444 -0.8626  0.5333
  611MOL0     C82399   6.805   3.319  10.039  0.4491 -1.0538 -0.8418
  611MOL0     N82400   6.582   3.459   9.428 -0.2209  0.8611  0.4577
  611MOL0     N82401   6.696   3.514   9.407  0.1113  0.2108 -0.1996
  611MOL0     C82402   7.699   3.490  10.186 -0.3383  0.2788  0.1851
  611MOL0     C82403   7.789   3.551  10.268 -0.5843  0.9910  0.7704
  611MOL0     C82404   8.094   3.898  10.379 -0.5626 -0.0844  0.1984
  611MOL0     C82405   8.003   3.993  10.433 -0.8598  0.0970  0.0888
  611MOL0     C82406   8.060   4.099  10.512  0.2334  0.4626  0.1936
  611MOL0     C82407   8.193   4.111  10.523 -0.3750 -0.5207 -0.7672
  611MOL0     O82408   8.250   4.225  10.581 -0.4673 -0.0149  0.0418
  611MOL0     C82409   8.167   4.330  10.641 -0.2422 -1.1066 -0.5778
  611MOL0     C82410   8.122   4.280  10.782 -0.9984  0.4038 -0.6831
  611MOL0     C82411   8.040   4.389  10.849  0.2482 -0.4734 -0.2222
  611MOL0     C82412   8.006   4.348  10.989 -0.9006  0.0281 -0.3744
  611MOL0     C82413   7.916   4.448  11.049  0.0358  0.2056 -0.6325
  611MOL0     C82414   7.845   4.530  11.104  1.0883 -0.4215 -0.2340
  611MOL0     C82415   8.277   4.010  10.486 -0.7888  0.0233 -0.2749
  611MOL0     C82416   8.231   3.901  10.409  0.6717  0.2733  1.0590
  611MOL0     C82417   8.326   3.788  10.370 -0.4009  0.1326  0.0789
  611MOL0     H82418   7.857   3.828  10.102  0.4031  0.0685 -2.6086
  611MOL0     H82419   7.684   3.732   9.956 -1.9242 -0.5686  1.0572
  611MOL0     H82420   7.593   3.595   9.801 -0.3684  0.1460  0.1201
  611MOL0     H82421   7.702   3.448   9.813 -0.1625 -1.2785  0.4034
  611MOL0     H82422   7.517   3.292   9.795 -0.0759 -0.6345  0.1903
  611MOL0     H82423   7.515   3.400   9.653  1.7714  0.2953  0.0236
  611MOL0     H82424   7.342   3.536   9.772 -2.7093 -0.4131 -0.6472
  611MOL0     H82425   7.321   3.401   9.882 -0.3225  1.0451 -0.0016
  611MOL0     H82426   7.296   3.411   9.576  1.6251  0.6868  0.3582
  611MOL0     H82427   7.279   3.260   9.674  0.4145 -0.2181  3.4306
  611MOL0     H82428   7.084   3.324   9.776  1.5758 -0.7607 -0.6414
  611MOL0     H82429   7.081   3.496   9.726  0.4472  1.0487 -1.3694
  611MOL0     H82430   7.102   3.269   9.508  0.4090  3.0767 -3.4932
  611MOL0     H82431   6.952   3.293   9.591  1.3277 -1.6180  0.5274
  611MOL0     H82432   7.124   3.500   9.439 -1.6796  2.7919 -2.7811
  611MOL0     H82433   6.976   3.544   9.527  0.7949 -0.7528  1.3869
  611MOL0     H82434   6.938   3.531   9.292  0.7159 -0.2855 -0.8936
  611MOL0     H82435   6.963   3.361   9.289 -4.2532 -0.6567 -0.2886
  611MOL0     H82436   6.772   3.196   9.367 -1.3244 -0.9132 -0.1252
  611MOL0     H82437   6.403   3.265   9.494 -2.6515 -1.7436 -0.7811
  611MOL0     H82438   6.464   3.170   9.358 -1.4220 -2.6374  0.9510
  611MOL0     H82439   6.457   3.038   9.544 -1.6558  0.6463  3.3433
  611MOL0     H82440   6.638   3.076   9.540 -0.8841  1.2372 -2.1619
  611MOL0     H82441   6.523   3.069   9.783 -1.3203  0.7069  1.0839
  611MOL0     H82442   6.414   3.181   9.713 -0.4000  0.8118 -1.0926
  611MOL0     H82443   6.565   3.361   9.701 -1.6034 -0.6635  0.9019
  611MOL0     H82444   6.713   3.260   9.688  1.0396  1.2695  0.9043
  611MOL0     H82445   6.691   3.526   9.797 -1.8640  0.4693  1.8267
  611MOL0     H82446   6.876   3.659   9.865 -0.0259 -0.6244 -1.5692
  611MOL0     H82447   7.352   3.637  10.085 -0.8057 -2.2896  0.8710
  611MOL0     H82448   7.517   3.788  10.174 -0.2612  3.5489  0.2006
  611MOL0     H82449   7.637   3.895  10.322 -1.3056 -1.6764  1.1038
  611MOL0     H82450   7.635   4.066  10.373 -1.2439  1.5844 -0.6172
  611MOL0     H82451   7.569   3.821  10.543  0.9208 -0.0265  2.1515
  611MOL0     H82452   7.730   3.886  10.531  0.7271  1.0990  3.6378
  611MOL0     H82453   7.669   4.086  10.638  0.4845 -0.6528  0.7555
  611MOL0     H82454   7.485   4.068  10.625  0.0545  1.2058 -1.1445
  611MOL0     H82455   7.677   3.886  10.779 -0.8376 -1.9364  0.9944
  611MOL0     H82456   7.514   3.860  10.762  1.5351 -1.0042 -0.4689
  611MOL0     H82457   7.558   3.945  10.985  2.0396 -1.2002 -0.3960
  611MOL0     H82458   7.460   4.075  10.883  2.1007  1.7100 -0.3961
  611MOL0     H82459   7.741   4.067  10.981 -1.2984 -2.9068  0.4758
  611MOL0     H82460   7.683   4.186  10.860 -0.9685  0.1904 -0.1409
  611MOL0     H82461   7.510   4.271  11.027  0.6258 -2.8522 -4.9147
  611MOL0     H82462   7.677   4.313  11.065  1.2695 -0.3197  1.4040
  611MOL0     H82463   7.546   4.065  11.196  2.2405 -1.5703 -0.5475
  611MOL0     H82464   7.708   4.126  11.218  1.9530  3.0325 -4.5667
  611MOL0     H82465   7.229   3.919  10.465 -0.3995  1.1780  0.2782
  611MOL0     H82466   7.064   3.745  10.378  0.6993  1.2467 -0.4293
  611MOL0     H82467   6.968   3.371  10.178  1.1481  0.2622 -0.3813
  611MOL0     H82468   6.782   3.222  10.083 -0.2934  0.1153  1.5138
  611MOL0     H82469   7.650   3.397  10.211 -1.8871  0.0068 -3.2929
  611MOL0     H82470   7.805   3.488  10.355 -1.3805 -0.9162 -0.3851
  611MOL0     H82471   7.896   3.986  10.419 -0.7348 -0.4626 -0.6909
  611MOL0     H82472   7.992   4.167  10.563 -1.5885 -0.8350 -0.3965
  611MOL0     H82473   8.073   4.348  10.588 -0.6311  2.6905  1.0714
  611MOL0     H82474   8.226   4.422  10.647 -2.2040  0.0854  2.6579
  611MOL0     H82475   8.199   4.264  10.858 -1.1843  1.1486 -0.3245
  611MOL0     H82476   8.061   4.192  10.763  1.8227 -1.5452 -1.3670
  611MOL0     H82477   7.952   4.413  10.789  0.4065 -2.5512 -1.3664
  611MOL0     H82478   8.096   4.483  10.850 -0.0571 -0.2492 -1.5075
  611MOL0     H82479   7.950   4.255  10.987 -0.2413 -0.3714 -2.4894
  611MOL0     H82480   8.090   4.341  11.058 -3.2420  1.3266  2.8979
  611MOL0     H82481   7.777   4.596  11.153 -0.8264 -3.3217  1.3091
  611MOL0     H82482   8.380   4.026  10.517 -1.4032  2.1833  0.8405
  611MOL0     H82483   8.352   3.788  10.264 -1.4052 -0.5335 -0.1781
  611MOL0     H82484   8.424   3.801  10.418  1.0041 -1.7143 -2.1122
  611MOL0     H82485   8.286   3.692  10.402  1.9627 -0.3950  1.7458
  612MOL0     O82486   1.052   5.642   9.007  0.4420  0.1499  0.1267
  612MOL0     C82487   1.053   5.517   9.018  0.8696  0.1424  0.3788
  612MOL0     O82488   1.152   5.438   9.054  0.0315 -0.0537 -0.0304
  612MOL0     C82489   1.274   5.478   9.095  0.3599  0.4534 -0.2811
  612MOL0     C82490   1.330   5.424   9.211  0.7646 -0.4764 -0.5872
  612MOL0     C82491   1.455   5.464   9.260  0.1296 -0.3188 -0.6005
  612MOL0     C82492   1.535   5.563   9.197 -0.5907  0.0425  0.3725
  612MOL0     O82493   1.657   5.585   9.255  0.3506 -0.8474 -0.0727
  612MOL0     C82494   1.743   5.683   9.198 -0.6093 -1.3063  0.4145
  612MOL0     C82495   1.879   5.692   9.273  0.4377  0.9288 -0.0798
  612MOL0     C82496   1.954   5.556   9.239 -0.0104 -0.0302 -0.0814
  612MOL0     C82497   2.030   5.508   9.356 -0.2221  0.3197 -0.5114
  612MOL0     C82498   2.151   5.424   9.315 -0.3550 -0.1865 -0.1553
  612MOL0     C82499   2.191   5.323   9.429 -0.3362 -0.7557  0.2992
  612MOL0     C82500   2.220   5.382   9.576  0.2833 -0.2543 -1.0491
  612MOL0     C82501   2.305   5.281   9.655 -0.0677 -0.3619 -0.0350
  612MOL0     N82502   2.443   5.268   9.626  0.3952 -0.2815 -0.8442
  612MOL0     C82503   2.522   5.355   9.554 -0.9354 -0.7307  0.0619
  612MOL0     C82504   2.646   5.304   9.562  0.4640  0.6318 -0.4461
  612MOL0     C82505   2.768   5.401   9.529 -0.9690  0.6745  1.5791
  612MOL0     C82506   2.835   5.434   9.666 -0.2805 -0.1775  0.0540
  612MOL0     C82507   2.989   5.424   9.677  0.7401 -0.3165  0.2602
  612MOL0     C82508   3.040   5.294   9.733 -0.0765 -0.9194 -0.0059
  612MOL0     O82509   3.032   5.277   9.875  0.0878  0.1898  0.1425
  612MOL0     C82510   3.107   5.182   9.925 -0.1067 -0.2063 -0.2424
  612MOL0     C82511   3.133   5.183  10.067 -0.2026 -0.6893 -0.1214
  612MOL0     C82512   3.219   5.090  10.122 -0.8255  0.1342  0.3648
  612MOL0     C82513   3.262   4.991  10.047 -1.2095 -0.3972 -0.2254
  612MOL0     C82514   3.366   4.894  10.095  0.2398  0.2803 -0.0814
  612MOL0     O82515   3.405   4.795  10.003  0.7076  0.6135  0.4396
  612MOL0     C82516   3.503   4.701  10.051  0.4068 -0.3669 -0.4432
  612MOL0     C82517   3.628   4.740  10.118  0.8746  0.5705  0.1228
  612MOL0     C82518   3.717   4.637  10.159 -0.3299 -1.0006 -0.0903
  612MOL0     C82519   3.679   4.502  10.140 -0.5301  0.1531 -0.6031
  612MOL0     O82520   3.759   4.392  10.172  0.0324  0.4535  0.3395
  612MOL0     C82521   3.881   4.414  10.247  0.1083 -0.0435  0.2167
  612MOL0     C82522   3.954   4.283  10.264 -0.2837  0.0231  0.0436
  612MOL0     C82523   4.103   4.312  10.289 -0.2206  0.4322 -0.0215
  612MOL0     C82524   4.176   4.183  10.332  0.1030 -0.1029 -0.4004
  612MOL0     C82525   4.328   4.216  10.325 -0.0642 -0.3451 -0.1977
  612MOL0     C82526   4.412   4.096  10.378  0.3725  0.9126 -0.4668
  612MOL0     C82527   4.558   4.115  10.338 -0.8266  0.2281 -0.5789
  612MOL0     C82528   4.654   3.996  10.379 -0.2133 -1.3737 -0.0221
  612MOL0    Cl82529   4.619   3.848  10.278 -0.0774  0.2212 -0.1723
  612MOL0     C82530   3.555   4.469  10.079 -0.0134 -0.2011 -0.5288
  612MOL0     C82531   3.476   4.566  10.031  0.0607 -0.1238 -0.6616
  612MOL0     O82532   3.412   4.908  10.209 -0.3393  0.1785 -0.1789
  612MOL0     C82533   3.219   4.978   9.914 -0.7169  0.1532 -0.4041
  612MOL0     C82534   3.142   5.075   9.851 -0.7428  0.0518  0.1956
  612MOL0     N82535   2.639   5.185   9.633  0.3334  1.0569  0.6144
  612MOL0     N82536   2.523   5.169   9.676  0.0047 -1.1227  0.7113
  612MOL0     C82537   1.477   5.619   9.078 -1.0534 -0.5800 -0.8461
  612MOL0     C82538   1.353   5.572   9.026  0.1196 -0.5153 -0.1265
  612MOL0     C82539   0.922   5.451   8.999  0.5497 -0.1340 -0.4965
  612MOL0     C82540   0.822   5.528   8.934  0.4768  0.7636 -0.2170
  612MOL0     C82541   0.700   5.473   8.900  0.1908  0.1448 -0.2187
  612MOL0     C82542   0.672   5.334   8.924 -0.2024 -0.7283  0.0293
  612MOL0     O82543   0.559   5.278   8.878  0.6439  0.0534  0.4777
  612MOL0     C82544   0.553   5.138   8.864  0.4050  0.4213 -0.3057
  612MOL0     C82545   0.453   5.076   8.763 -0.0608 -0.0732  0.1168
  612MOL0     C82546   0.313   5.155   8.765  0.0733 -1.5324 -0.4462
  612MOL0     C82547   0.206   5.086   8.679 -0.2321 -0.6062 -0.1046
  612MOL0     C82548   0.163   4.966   8.758  0.0120 -0.7379  0.1503
  612MOL0     C82549   0.134   4.856   8.809 -0.7820 -0.1151 -0.2569
  612MOL0     C82550   0.771   5.263   8.996 -0.6486  0.3418  0.6107
  612MOL0     C82551   0.898   5.314   9.035  0.1478  0.0282  0.3533
  612MOL0     C82552   0.984   5.208   9.107 -0.4407 -0.0871 -0.2943
  612MOL0     H82553   1.277   5.341   9.257  1.0148 -1.8082 -2.5500
  612MOL0     H82554   1.487   5.438   9.361 -0.9835  2.9012  0.7288
  612MOL0     H82555   1.767   5.651   9.096  0.0334  2.9141 -0.9764
  612MOL0     H82556   1.691   5.779   9.193 -0.8164 -1.4822 -2.1964
  612MOL0     H82557   1.863   5.699   9.381 -3.4190 -0.2012 -0.4128
  612MOL0     H82558   1.938   5.774   9.230 -0.4198  1.9762  0.6768
  612MOL0     H82559   2.018   5.570   9.152  0.2010 -1.5824 -0.2142
  612MOL0     H82560   1.886   5.473   9.218  1.3445 -1.0791 -0.5220
  612MOL0     H82561   2.056   5.584   9.430 -0.0985  0.3435 -0.5788
  612MOL0     H82562   1.964   5.440   9.411 -0.6222  1.1279  0.0312
  612MOL0     H82563   2.135   5.363   9.226  3.7133 -2.0553  0.1259
  612MOL0     H82564   2.233   5.494   9.295  2.3836 -3.4296 -1.4300
  612MOL0     H82565   2.110   5.249   9.431 -2.5694  1.5456  0.7021
  612MOL0     H82566   2.283   5.276   9.396  0.6183  1.2267 -0.0174
  612MOL0     H82567   2.122   5.397   9.623  1.0860  0.1232  0.5694
  612MOL0     H82568   2.275   5.476   9.568 -0.0811 -0.0400 -1.1120
  612MOL0     H82569   2.291   5.304   9.760  0.4717  2.7815 -0.5475
  612MOL0     H82570   2.260   5.182   9.647 -2.6064  0.4072  3.0466
  612MOL0     H82571   2.499   5.447   9.500  0.1091 -0.4811  0.0048
  612MOL0     H82572   2.844   5.362   9.461  0.5259  3.3851  1.5443
  612MOL0     H82573   2.734   5.494   9.482 -3.2435 -0.9192 -0.1705
  612MOL0     H82574   2.804   5.535   9.695  0.2239  0.0172 -0.0708
  612MOL0     H82575   2.797   5.381   9.754  2.2243  0.5596  1.6728
  612MOL0     H82576   3.029   5.507   9.737 -1.0394 -0.9571  2.4829
  612MOL0     H82577   3.035   5.429   9.578  0.7852 -0.3248  0.2811
  612MOL0     H82578   3.138   5.279   9.687 -0.4339  0.9386 -1.4912
  612MOL0     H82579   2.978   5.215   9.688 -2.0631 -0.1480  1.2429
  612MOL0     H82580   3.097   5.270  10.120 -0.0145 -1.4162  1.2362
  612MOL0     H82581   3.256   5.112  10.222 -1.2047  0.7816  0.3656
  612MOL0     H82582   3.642   4.842  10.151 -1.8661 -0.0238  3.7917
  612MOL0     H82583   3.808   4.662  10.213 -0.6235 -1.6029  0.6996
  612MOL0     H82584   3.943   4.483  10.190 -0.8284 -0.8833 -1.9463
  612MOL0     H82585   3.855   4.461  10.342  1.0138 -0.3222  0.6110
  612MOL0     H82586   3.894   4.243  10.346 -0.9786  2.9528  1.1203
  612MOL0     H82587   3.931   4.224  10.176  0.3151 -2.1502  1.2794
  612MOL0     H82588   4.143   4.346  10.193 -1.3908 -1.4943 -1.2423
  612MOL0     H82589   4.124   4.390  10.364 -1.8093  1.0981 -0.2313
  612MOL0     H82590   4.144   4.099  10.270 -0.9110 -0.3233  0.3853
  612MOL0     H82591   4.156   4.158  10.436  2.6364  0.0098  0.1687
  612MOL0     H82592   4.360   4.302  10.384  0.1915  0.3386 -1.2861
  612MOL0     H82593   4.358   4.230  10.220  0.2521  1.6709  0.1133
  612MOL0     H82594   4.393   4.092  10.486  0.5722 -2.0853 -0.4591
  612MOL0     H82595   4.377   4.003  10.333 -1.1291  1.0849  0.2993
  612MOL0     H82596   4.591   4.204  10.391  0.0624  1.4296 -3.0080
  612MOL0     H82597   4.574   4.133  10.231 -1.8354  1.9981 -0.4673
  612MOL0     H82598   4.759   4.017  10.358  0.2380 -2.7660  0.6840
  612MOL0     H82599   4.640   3.979  10.487 -0.8443 -1.4365 -0.1095
  612MOL0     H82600   3.545   4.361  10.076  0.0200 -0.2240  0.1104
  612MOL0     H82601   3.376   4.543   9.994 -1.0885  1.8849  0.9400
  612MOL0     H82602   3.258   4.899   9.849  0.7203  2.5908 -2.7195
  612MOL0     H82603   3.123   5.048   9.748  2.3757 -1.2668 -0.1702
  612MOL0     H82604   1.530   5.698   9.026 -1.2842 -2.2125 -3.7948
  612MOL0     H82605   1.311   5.630   8.944 -0.1285  4.7964  3.3154
  612MOL0     H82606   0.833   5.635   8.926  5.2017  0.6776  1.6367
  612MOL0     H82607   0.623   5.536   8.856  2.6484  3.2385 -0.4324
  612MOL0     H82608   0.517   5.099   8.960  0.0555  2.3659  0.3941
  612MOL0     H82609   0.651   5.098   8.837 -0.4552  0.3447 -3.8840
  612MOL0     H82610   0.433   4.972   8.792  1.7269  0.0340  1.9617
  612MOL0     H82611   0.488   5.073   8.659  1.8186  0.6849  0.6870
  612MOL0     H82612   0.332   5.255   8.725 -0.2723 -0.6894  1.3944
  612MOL0     H82613   0.282   5.161   8.869  4.1915  0.5611  0.8960
  612MOL0     H82614   0.125   5.157   8.659  0.3350  1.3932  3.7005
  612MOL0     H82615   0.252   5.061   8.583 -0.2849 -0.5782 -0.1376
  612MOL0     H82616   0.112   4.763   8.857  2.0041 -0.3969  0.6421
  612MOL0     H82617   0.759   5.159   9.026  2.1701 -0.7845 -1.6487
  612MOL0     H82618   0.934   5.129   9.164  1.9378 -0.6743  1.1096
  612MOL0     H82619   1.048   5.158   9.033 -0.3613 -1.4566  0.6526
  612MOL0     H82620   1.041   5.261   9.184  2.9641 -0.6301 -2.2133
  613MOL0     O82621   5.624   6.900   9.662  0.0655  0.3763  0.2569
  613MOL0     C82622   5.649   6.803   9.737  0.0649  0.3229  0.6555
  613MOL0     O82623   5.638   6.672   9.700  0.4671 -0.7774  0.7005
  613MOL0     C82624   5.592   6.653   9.571  0.2592 -0.0783 -0.7409
  613MOL0     C82625   5.677   6.663   9.453 -1.4490  1.1208  0.1582
  613MOL0     C82626   5.627   6.637   9.322  0.9704  0.2881  1.0460
  613MOL0     C82627   5.492   6.612   9.297  0.3073 -0.0637 -0.1728
  613MOL0     O82628   5.457   6.580   9.168  0.5680  0.1792  0.5810
  613MOL0     C82629   5.353   6.648   9.106  0.3673  0.1590 -0.4084
  613MOL0     C82630   5.346   6.595   8.964 -0.2314  0.4225  0.1702
  613MOL0     C82631   5.441   6.657   8.865 -0.6151 -0.3454  0.6612
  613MOL0     C82632   5.383   6.793   8.810  0.4454  0.7348 -0.6168
  613MOL0     C82633   5.485   6.892   8.751  0.5257 -0.5180  0.2982
  613MOL0     C82634   5.578   6.948   8.862 -0.0928  0.5843 -0.2965
  613MOL0     C82635   5.725   6.979   8.814  0.8571 -0.3937  0.0641
  613MOL0     C82636   5.844   6.971   8.919 -0.1199  0.8669 -0.0678
  613MOL0     N82637   5.978   6.959   8.854  0.2286  0.0070  0.6330
  613MOL0     C82638   6.024   6.840   8.815  0.1564  0.6383  0.0878
  613MOL0     C82639   6.156   6.864   8.782 -0.3134 -0.4718  0.9816
  613MOL0     C82640   6.257   6.764   8.728  0.3112 -0.4211 -0.3141
  613MOL0     C82641   6.219   6.692   8.591  0.5245  0.5658  0.4228
  613MOL0     C82642   6.191   6.802   8.483  0.5303  0.2061 -0.3595
  613MOL0     C82643   6.303   6.907   8.455  0.3467  0.1956 -0.2035
  613MOL0     O82644   6.414   6.824   8.421  0.0551 -0.5941 -0.3635
  613MOL0     C82645   6.538   6.875   8.395 -0.9384 -0.3325 -0.4109
  613MOL0     C82646   6.646   6.786   8.388  0.1940  0.5223 -0.2170
  613MOL0     C82647   6.777   6.835   8.371  0.8245 -0.4345 -0.5122
  613MOL0     C82648   6.804   6.977   8.368 -0.6777 -0.0027 -0.2184
  613MOL0     C82649   6.946   7.020   8.366 -0.4798 -0.2921 -0.7751
  613MOL0     O82650   7.042   6.936   8.331 -0.1475  0.4615 -0.0145
  613MOL0     C82651   7.167   6.985   8.350  0.7755 -0.4795  0.1523
  613MOL0     C82652   7.219   7.098   8.285  0.3945  0.2186 -0.7277
  613MOL0     C82653   7.343   7.152   8.313 -0.3295 -0.1621 -0.5447
  613MOL0     C82654   7.422   7.093   8.411 -0.5831 -0.3180 -0.0946
  613MOL0     O82655   7.542   7.146   8.454 -0.2457  0.0488  0.2491
  613MOL0     C82656   7.606   7.247   8.378 -0.1406 -0.3199 -0.3330
  613MOL0     C82657   7.743   7.276   8.444  0.5296  0.2468  0.0749
  613MOL0     C82658   7.812   7.141   8.466 -0.4170 -0.0830  0.0006
  613MOL0     C82659   7.926   7.172   8.556 -0.4908 -0.4755  0.2109
  613MOL0     C82660   7.999   7.044   8.611  0.1790 -0.4763  1.2429
  613MOL0     C82661   8.125   7.092   8.683  0.1674  0.5863  0.2900
  613MOL0     C82662   8.226   6.977   8.721 -0.3721  0.3476  0.5102
  613MOL0     C82663   8.327   7.033   8.822  0.0599  0.2518 -0.1531
  613MOL0    Cl82664   8.471   7.120   8.738 -0.3825  0.0425 -0.1985
  613MOL0     C82665   7.372   6.978   8.473 -0.7204  0.1603  0.2138
  613MOL0     C82666   7.247   6.928   8.436  0.6181 -0.5782 -0.7136
  613MOL0     O82667   6.956   7.145   8.383 -0.0214 -0.1827  0.1478
  613MOL0     C82668   6.690   7.072   8.378 -0.2624  0.3459  0.1412
  613MOL0     C82669   6.562   7.008   8.388 -0.3778 -0.3583 -0.1042
  613MOL0     N82670   6.190   7.000   8.810  0.0099  1.2002  0.5985
  613MOL0     N82671   6.084   7.047   8.863 -0.0076 -0.5698 -0.5806
  613MOL0     C82672   5.406   6.598   9.412  0.0706 -0.1728 -0.4243
  613MOL0     C82673   5.455   6.629   9.541  0.0527 -0.4016  0.0948
  613MOL0     C82674   5.705   6.820   9.874 -0.1400  0.1849 -0.3789
  613MOL0     C82675   5.721   6.706   9.962  0.1513  0.7395  0.0910
  613MOL0     C82676   5.782   6.711  10.085 -0.4842 -0.2159 -0.7371
  613MOL0     C82677   5.839   6.828  10.121 -0.0280 -0.1622  0.1975
  613MOL0     O82678   5.913   6.832  10.236  0.1066 -0.6832 -0.0933
  613MOL0     C82679   6.040   6.795  10.217 -0.0218 -0.0084  0.2258
  613MOL0     C82680   6.130   6.821  10.335  0.2244 -0.3342 -0.9269
  613MOL0     C82681   6.127   6.970  10.368  0.3188 -0.4012 -0.1939
  613MOL0     C82682   6.226   7.010  10.478  0.3928  0.2919  0.8716
  613MOL0     C82683   6.361   6.967  10.455  0.6760 -0.0968 -0.2111
  613MOL0     C82684   6.475   6.930  10.439 -0.2436 -0.8208  0.5672
  613MOL0     C82685   5.813   6.944  10.044  0.2910 -0.4577  0.0400
  613MOL0     C82686   5.739   6.945   9.928 -0.9127 -0.2701  0.8493
  613MOL0     C82687   5.743   7.077   9.842 -0.7383 -0.7412 -0.0994
  613MOL0     H82688   5.782   6.670   9.476 -0.9075 -0.1580 -1.6831
  613MOL0     H82689   5.688   6.633   9.232 -0.8555 -0.1457 -0.2293
  613MOL0     H82690   5.270   6.613   9.168  2.6156 -2.1661  1.5204
  613MOL0     H82691   5.364   6.757   9.104  0.1446  0.2201  0.6929
  613MOL0     H82692   5.242   6.615   8.936 -0.6135  1.9225  2.4104
  613MOL0     H82693   5.371   6.490   8.944  1.2558  0.5341  1.2837
  613MOL0     H82694   5.461   6.585   8.786  2.8091  2.3176 -1.1739
  613MOL0     H82695   5.539   6.672   8.911 -1.4176  3.6311  1.4313
  613MOL0     H82696   5.306   6.779   8.734 -1.0219 -0.7580  1.0923
  613MOL0     H82697   5.333   6.840   8.895 -0.4657 -1.0323 -0.1371
  613MOL0     H82698   5.545   6.847   8.671 -1.6984 -2.1883 -0.5647
  613MOL0     H82699   5.431   6.979   8.713 -0.9707 -0.3238  2.6708
  613MOL0     H82700   5.538   7.044   8.895  1.0360  1.0163 -0.1565
  613MOL0     H82701   5.570   6.879   8.946  1.4457 -1.7405 -1.9299
  613MOL0     H82702   5.721   7.081   8.776 -0.0620  0.4464  2.2602
  613MOL0     H82703   5.736   6.907   8.732 -0.0071 -1.2146  0.6538
  613MOL0     H82704   5.854   7.064   8.976 -2.2886  1.6871 -0.9177
  613MOL0     H82705   5.835   6.879   8.978 -0.4184  0.4782 -0.7107
  613MOL0     H82706   5.964   6.750   8.809  0.1574  0.6098  0.5345
  613MOL0     H82707   6.359   6.802   8.715  1.5765 -3.5994 -0.6335
  613MOL0     H82708   6.261   6.684   8.803 -1.1950 -1.3186 -1.1382
  613MOL0     H82709   6.303   6.632   8.555  1.8649  1.7163  1.5265
  613MOL0     H82710   6.130   6.629   8.583 -1.0967  2.7444  0.2952
  613MOL0     H82711   6.107   6.861   8.521  0.3879 -0.6164  0.6641
  613MOL0     H82712   6.160   6.760   8.387  0.1294  0.8750 -0.5253
  613MOL0     H82713   6.324   6.970   8.542  0.9761  0.3641 -0.4658
  613MOL0     H82714   6.265   6.970   8.374 -1.3652  1.5320  1.5366
  613MOL0     H82715   6.635   6.679   8.405  3.8856  0.0864  0.3173
  613MOL0     H82716   6.856   6.763   8.351  0.8797 -1.2061  2.1399
  613MOL0     H82717   7.155   7.144   8.210 -1.9778 -1.4151  0.1564
  613MOL0     H82718   7.374   7.241   8.258  0.1222 -0.2234 -0.3978
  613MOL0     H82719   7.625   7.222   8.273  0.2626 -0.6522 -0.1813
  613MOL0     H82720   7.543   7.336   8.376  0.2748 -0.0251 -0.7012
  613MOL0     H82721   7.811   7.332   8.380  1.7013 -2.1622 -0.9185
  613MOL0     H82722   7.738   7.325   8.542  0.6689  1.7533 -0.6516
  613MOL0     H82723   7.755   7.064   8.519  2.3507 -2.4464 -0.1521
  613MOL0     H82724   7.849   7.097   8.372 -1.2344  2.0185 -1.3946
  613MOL0     H82725   7.884   7.209   8.650 -0.6754  1.8544 -0.7225
  613MOL0     H82726   7.993   7.248   8.515  1.3983 -1.4297  1.3862
  613MOL0     H82727   8.033   6.983   8.527  2.9638  0.8604  1.2790
  613MOL0     H82728   7.937   6.979   8.673  1.1531 -1.9391  0.7569
  613MOL0     H82729   8.184   7.164   8.625  4.9033 -3.9290 -1.3057
  613MOL0     H82730   8.099   7.146   8.774  0.5232  2.3605 -0.6047
  613MOL0     H82731   8.285   6.964   8.630  0.9835 -0.7410  1.4843
  613MOL0     H82732   8.179   6.881   8.741  0.8353 -0.3771 -0.0169
  613MOL0     H82733   8.285   7.093   8.903  0.2369 -0.3722  0.4112
  613MOL0     H82734   8.366   6.941   8.865 -0.0561  0.8407  1.2789
  613MOL0     H82735   7.434   6.925   8.544  0.4076  2.1343  0.7888
  613MOL0     H82736   7.215   6.836   8.484  0.9946 -1.3616 -1.9258
  613MOL0     H82737   6.718   7.172   8.346  0.1772  0.2357  0.1757
  613MOL0     H82738   6.483   7.081   8.403  0.5787  0.4033  1.6987
  613MOL0     H82739   5.300   6.578   9.399  0.0004  0.4443 -0.8768
  613MOL0     H82740   5.385   6.613   9.622 -1.4076  1.0157 -0.8331
  613MOL0     H82741   5.694   6.605   9.932 -0.1069  0.8130  0.0664
  613MOL0     H82742   5.791   6.628  10.154  0.7248  0.3912 -0.1142
  613MOL0     H82743   6.076   6.858  10.135  1.1625 -1.4990 -0.4522
  613MOL0     H82744   6.056   6.690  10.192 -1.9882 -0.3391  0.2425
  613MOL0     H82745   6.227   6.773  10.319 -0.9496 -3.5875  0.6797
  613MOL0     H82746   6.096   6.767  10.424  2.8566  0.6009  0.7608
  613MOL0     H82747   6.026   7.004  10.394  0.7450 -0.1877  1.3089
  613MOL0     H82748   6.155   7.025  10.278  1.6929  0.0907  0.5052
  613MOL0     H82749   6.223   7.119  10.490  2.4154  0.6349 -1.1849
  613MOL0     H82750   6.189   6.967  10.572  2.2246  2.1590  2.5502
  613MOL0     H82751   6.576   6.894  10.431  0.8381  1.7897  1.4124
  613MOL0     H82752   5.863   7.031  10.084 -0.6647 -0.4990  1.3659
  613MOL0     H82753   5.772   7.058   9.739  1.1421  2.0893 -0.1784
  613MOL0     H82754   5.641   7.114   9.827 -0.5566  0.0246  0.4656
  613MOL0     H82755   5.796   7.159   9.891  0.9812 -1.0594 -1.3693
  614MOL0     O82756   7.412   2.088   0.322 -0.0988 -0.4982 -0.5823
  614MOL0     C82757   7.446   2.204   0.312  0.8494  0.7079  0.8386
  614MOL0     O82758   7.541   2.246   0.221 -0.3848  0.0609  0.2652
  614MOL0     C82759   7.615   2.156   0.154 -0.8359 -0.7267 -0.1416
  614MOL0     C82760   7.621   2.173   0.020  0.1888 -0.2327  0.4758
  614MOL0     C82761   7.704   2.098  -0.058 -0.6289  0.9558  0.9021
  614MOL0     C82762   7.789   1.998  -0.001 -0.2056  0.2981 -0.7063
  614MOL0     O82763   7.869   1.920  -0.072 -0.1058  0.6258  0.1142
  614MOL0     C82764   8.010   1.945  -0.066 -0.1474 -0.0504  0.0214
  614MOL0     C82765   8.087   1.821  -0.024  0.3476  0.4324  0.5389
  614MOL0     C82766   8.214   1.805  -0.105  0.4515 -0.0356  0.7790
  614MOL0     C82767   8.316   1.915  -0.075  0.2779 -0.4594  0.1764
  614MOL0     C82768   8.441   1.921  -0.156 -0.0791  0.2005 -0.2067
  614MOL0     C82769   8.561   1.871  -0.081 -0.6264 -0.2362  0.7367
  614MOL0     C82770   8.688   1.879  -0.169 -1.1141 -0.7510 -0.6476
  614MOL0     C82771   8.818   1.834  -0.089 -1.2504 -0.0200  0.4491
  614MOL0     N82772   8.840   1.893   0.042  0.7971 -0.7788 -0.2335
  614MOL0     C82773   8.910   2.005   0.062 -0.0186  0.4219  0.6835
  614MOL0     C82774   8.958   2.006   0.189 -0.2865 -0.1646  0.3434
  614MOL0     C82775   9.073   2.098   0.241  0.5578  0.6348 -0.1990
  614MOL0     C82776   9.099   2.216   0.146  0.0866 -0.6121 -0.5611
  614MOL0     C82777   9.213   2.301   0.187  0.0639  0.3482 -0.9969
  614MOL0     C82778   9.230   2.418   0.086  0.5052 -1.4157  0.4351
  614MOL0     O82779   9.345   2.501   0.108  0.6527  1.0931  0.9971
  614MOL0     C82780   9.465   2.463   0.054 -0.0222  0.5266 -0.5952
  614MOL0     C82781   9.570   2.554   0.060 -0.3303  0.9530 -0.6303
  614MOL0     C82782   9.699   2.526   0.021  0.6407 -0.3632  0.2514
  614MOL0     C82783   9.722   2.408  -0.049  0.4561  0.3504 -0.0527
  614MOL0     C82784   9.865   2.380  -0.095  1.0824  0.4843 -0.1804
  614MOL0     O82785   9.944   2.495  -0.097 -0.6556  0.2287 -0.4584
  614MOL0     C82786  10.069   2.457  -0.149  0.3553  0.0634  0.2391
  614MOL0     C82787  10.105   2.491  -0.277 -0.7758 -0.4289 -0.4551
  614MOL0     C82788  10.232   2.446  -0.326 -0.2556 -0.8876 -0.2835
  614MOL0     C82789  10.330   2.394  -0.240 -0.1132 -0.1394 -0.5663
  614MOL0     O82790  10.439   2.353  -0.309 -0.2862  0.1483  0.1458
  614MOL0     C82791  10.544   2.310  -0.218 -0.0481 -0.1436  0.0132
  614MOL0     C82792  10.670   2.293  -0.306 -0.0224 -0.0121  0.7529
  614MOL0     C82793  10.803   2.255  -0.239 -0.5762  0.6141  1.0334
  614MOL0     C82794  10.909   2.227  -0.337  0.3890 -0.0369 -0.5592
  614MOL0     C82795  11.031   2.174  -0.263 -0.7154 -0.2973 -0.4051
  614MOL0     C82796  11.144   2.138  -0.356 -0.2544 -0.1609  0.6093
  614MOL0     C82797  11.255   2.093  -0.272 -0.5994 -0.8195  0.6244
  614MOL0     C82798  11.400   2.110  -0.330  0.0447  1.0213  0.2412
  614MOL0    Cl82799  11.447   2.286  -0.340 -0.0097  0.9067  0.2140
  614MOL0     C82800  10.300   2.380  -0.104 -0.4863 -0.1615  0.6532
  614MOL0     C82801  10.164   2.404  -0.064 -0.2190  0.7431 -0.0647
  614MOL0     O82802   9.894   2.262  -0.124 -1.0430  0.0075  0.3417
  614MOL0     C82803   9.623   2.311  -0.052 -0.1010 -0.1543 -0.4351
  614MOL0     C82804   9.495   2.337  -0.011 -0.2519 -0.1882 -0.4684
  614MOL0     N82805   8.909   1.891   0.240 -1.2164  0.1842 -0.3748
  614MOL0     N82806   8.841   1.818   0.151  0.0474 -0.5838 -0.1744
  614MOL0     C82807   7.787   1.984   0.136  0.4660 -0.0088 -0.3559
  614MOL0     C82808   7.704   2.061   0.210  0.7007 -0.4387 -0.1560
  614MOL0     C82809   7.370   2.309   0.389  0.0955  0.4498 -0.1119
  614MOL0     C82810   7.422   2.443   0.405  0.3765 -0.2071  0.7144
  614MOL0     C82811   7.357   2.545   0.467  0.4912  0.5251  0.9230
  614MOL0     C82812   7.227   2.528   0.501 -0.1477  0.6528  0.3293
  614MOL0     O82813   7.143   2.630   0.545  0.3056  0.3672  0.1315
  614MOL0     C82814   7.206   2.759   0.562 -0.1658 -0.2724 -0.4231
  614MOL0     C82815   7.111   2.850   0.630  0.1007 -0.5024  0.6065
  614MOL0     C82816   7.065   2.791   0.763  0.3700 -0.9257 -0.0348
  614MOL0     C82817   6.970   2.882   0.845  0.3962 -0.6858 -0.5640
  614MOL0     C82818   6.850   2.910   0.761  0.1298  0.3571  0.1457
  614MOL0     C82819   6.754   2.934   0.689 -0.1831 -0.3281 -0.4937
  614MOL0     C82820   7.167   2.403   0.481  0.5044  0.2888 -0.9067
  614MOL0     C82821   7.235   2.289   0.437  0.1450 -0.3543  0.9226
  614MOL0     C82822   7.161   2.158   0.420 -0.3729  0.1852  0.2724
  614MOL0     H82823   7.563   2.245  -0.037  1.0046 -2.4398 -3.4716
  614MOL0     H82824   7.700   2.104  -0.166 -0.8852  1.5744  0.9422
  614MOL0     H82825   8.043   1.993  -0.159  0.1567 -0.2650  0.0166
  614MOL0     H82826   8.028   2.022   0.010  0.8004 -1.9091  1.7542
  614MOL0     H82827   8.024   1.735  -0.045 -3.4609  2.3369  3.0227
  614MOL0     H82828   8.118   1.831   0.081  1.0930 -0.0423  0.3701
  614MOL0     H82829   8.185   1.806  -0.210 -0.8523 -0.2478  1.1139
  614MOL0     H82830   8.260   1.708  -0.082  1.1323  0.8868  3.8156
  614MOL0     H82831   8.276   2.015  -0.092 -2.5683 -1.6645 -0.8192
  614MOL0     H82832   8.343   1.900   0.030  1.7615 -0.1847 -0.1320
  614MOL0     H82833   8.429   1.859  -0.246  0.1127 -1.7754  1.0721
  614MOL0     H82834   8.459   2.027  -0.178 -1.2033  0.7216  1.2235
  614MOL0     H82835   8.562   1.925   0.014  4.2763  0.8333  0.3539
  614MOL0     H82836   8.548   1.765  -0.058 -2.3114 -0.2321 -0.0723
  614MOL0     H82837   8.708   1.978  -0.212  1.5818 -0.7823  0.3034
  614MOL0     H82838   8.677   1.810  -0.253  2.9635  0.3062 -2.3109
  614MOL0     H82839   8.809   1.725  -0.079  0.9489 -0.2621  0.2053
  614MOL0     H82840   8.897   1.864  -0.159  0.6502  0.1940  2.5805
  614MOL0     H82841   8.936   2.078  -0.014  1.5783 -1.4581 -0.7087
  614MOL0     H82842   9.041   2.146   0.334  3.3816  2.5719 -0.1012
  614MOL0     H82843   9.169   2.052   0.266  0.4956  0.7958  0.3394
  614MOL0     H82844   9.125   2.179   0.046  1.9745 -0.1686 -0.2723
  614MOL0     H82845   9.013   2.284   0.146 -1.9810 -3.0456  0.4989
  614MOL0     H82846   9.306   2.244   0.193  1.1428  1.9997 -1.1549
  614MOL0     H82847   9.204   2.339   0.289  1.1223  0.6049 -0.9872
  614MOL0     H82848   9.139   2.479   0.081  1.5797  0.1866 -3.7137
  614MOL0     H82849   9.245   2.369  -0.010  1.2708 -2.0812  0.8846
  614MOL0     H82850   9.553   2.645   0.118  1.3602 -0.3720  2.1595
  614MOL0     H82851   9.769   2.609   0.031 -0.1537  0.1891  1.5514
  614MOL0     H82852  10.045   2.544  -0.350 -1.4406 -1.0527 -0.3664
  614MOL0     H82853  10.274   2.454  -0.426  3.5796  1.1383  1.2621
  614MOL0     H82854  10.566   2.392  -0.149 -0.9444  1.6832 -1.7411
  614MOL0     H82855  10.525   2.211  -0.176  2.4713 -0.3032  0.9649
  614MOL0     H82856  10.640   2.210  -0.370  0.6288  1.2080 -1.1961
  614MOL0     H82857  10.678   2.384  -0.366  0.0858 -1.2126 -1.1408
  614MOL0     H82858  10.841   2.335  -0.175 -1.6445 -0.5226  3.1758
  614MOL0     H82859  10.789   2.164  -0.180 -0.0864 -1.3526 -1.6803
  614MOL0     H82860  10.930   2.320  -0.390 -3.1508  0.8291 -0.7112
  614MOL0     H82861  10.877   2.156  -0.415  2.3357  1.9068 -3.3180
  614MOL0     H82862  10.988   2.095  -0.201  1.1998 -1.8204 -0.9302
  614MOL0     H82863  11.069   2.256  -0.201  1.0318  1.4182 -3.5248
  614MOL0     H82864  11.114   2.061  -0.428  3.0154 -1.1377  0.1262
  614MOL0     H82865  11.183   2.218  -0.420 -0.3307 -1.5078 -1.1921
  614MOL0     H82866  11.251   1.984  -0.262  5.7084 -1.7372 -2.2169
  614MOL0     H82867  11.255   2.152  -0.179 -2.7645  2.6689 -1.3835
  614MOL0     H82868  11.471   2.055  -0.268  0.5313  0.8590 -0.4440
  614MOL0     H82869  11.407   2.059  -0.427 -1.7840 -0.9870  1.0661
  614MOL0     H82870  10.370   2.346  -0.029 -0.2494 -2.6694 -0.5714
  614MOL0     H82871  10.129   2.397   0.039 -2.5610 -1.4439 -0.8906
  614MOL0     H82872   9.648   2.216  -0.100 -0.8219 -0.6444  0.1432
  614MOL0     H82873   9.430   2.254  -0.037  1.4573 -0.7606 -3.3521
  614MOL0     H82874   7.843   1.906   0.186 -2.2754 -2.1973 -0.4110
  614MOL0     H82875   7.700   2.035   0.316  1.3601 -0.1761 -0.0592
  614MOL0     H82876   7.523   2.469   0.375  0.0911 -0.2030 -0.2779
  614MOL0     H82877   7.407   2.642   0.468 -1.6299  1.7586 -1.0144
  614MOL0     H82878   7.241   2.813   0.474  0.2284  1.7717  0.9311
  614MOL0     H82879   7.291   2.741   0.629  0.4096  1.7325 -0.5466
  614MOL0     H82880   7.024   2.871   0.568  0.8364  0.5388 -0.1022
  614MOL0     H82881   7.159   2.948   0.634 -2.7454  1.0453 -0.2962
  614MOL0     H82882   7.147   2.788   0.836  2.2366  2.8960 -1.6738
  614MOL0     H82883   7.022   2.691   0.753  0.3433 -1.0920  1.5020
  614MOL0     H82884   6.943   2.842   0.943  1.4471  0.9505  0.4238
  614MOL0     H82885   7.034   2.969   0.861 -0.2378 -0.7417  3.2464
  614MOL0     H82886   6.674   2.976   0.631  0.8531  0.4695 -1.3861
  614MOL0     H82887   7.066   2.384   0.514  0.4803  5.0196  2.9834
  614MOL0     H82888   7.210   2.073   0.468  2.5922  1.6786  0.1164
  614MOL0     H82889   7.058   2.166   0.455 -0.3877  1.4015 -0.0101
  614MOL0     H82890   7.158   2.132   0.313  1.5217 -0.2608  0.2905
  615MOL0     O82891   2.423   5.119  10.329 -0.5200 -0.0210  0.1516
  615MOL0     C82892   2.315   5.103  10.273  0.8130  0.5240  0.0047
  615MOL0     O82893   2.291   5.004  10.174  0.2941 -0.2964 -0.0145
  615MOL0     C82894   2.404   4.954  10.122 -1.2428  0.1270  0.5844
  615MOL0     C82895   2.446   4.815  10.141  0.0364 -0.9795 -0.6460
  615MOL0     C82896   2.565   4.765  10.079 -0.7357  0.9130 -0.4692
  615MOL0     C82897   2.639   4.846   9.996 -0.5996  0.2148 -0.8744
  615MOL0     O82898   2.750   4.798   9.942 -0.0003 -0.4722  0.3425
  615MOL0     C82899   2.865   4.824  10.019 -0.9565 -0.3756 -0.7300
  615MOL0     C82900   2.988   4.734   9.971  0.6112 -0.7180 -0.1400
  615MOL0     C82901   3.077   4.707  10.097 -0.1433  0.7025 -0.7622
  615MOL0     C82902   3.034   4.582  10.185  0.9350  0.5941  0.1031
  615MOL0     C82903   3.096   4.568  10.321  0.5786  0.6956 -0.0236
  615MOL0     C82904   3.047   4.436  10.376 -0.0129 -0.6557  0.0756
  615MOL0     C82905   3.094   4.450  10.532  0.5172  0.5305 -0.3622
  615MOL0     C82906   3.055   4.319  10.616  0.1566  0.0959  0.3935
  615MOL0     N82907   3.160   4.263  10.705  0.0495  0.1993  1.2500
  615MOL0     C82908   3.197   4.298  10.833 -0.3220 -0.6369 -0.4651
  615MOL0     C82909   3.267   4.192  10.876  0.8609  0.6387 -0.3712
  615MOL0     C82910   3.318   4.170  11.014  0.1167  0.7202  0.1175
  615MOL0     C82911   3.468   4.181  11.023  0.5761 -0.1887  1.0284
  615MOL0     C82912   3.525   4.175  11.165 -0.0953  0.1373  0.4439
  615MOL0     C82913   3.676   4.139  11.168  0.0684 -0.4133  0.9411
  615MOL0     O82914   3.770   4.230  11.094  0.3238 -0.0009 -0.3596
  615MOL0     C82915   3.890   4.254  11.154  1.0162 -0.0574  0.3239
  615MOL0     C82916   3.987   4.158  11.130 -0.8289 -0.0576 -0.3300
  615MOL0     C82917   4.114   4.173  11.184 -0.5668 -0.4549 -0.7142
  615MOL0     C82918   4.145   4.285  11.259 -0.0688  0.4147 -0.1181
  615MOL0     C82919   4.281   4.292  11.315 -0.2444 -0.2539  0.8249
  615MOL0     O82920   4.385   4.209  11.271  0.2354 -0.0707  0.0495
  615MOL0     C82921   4.514   4.240  11.315  0.5676  0.2319 -0.2783
  615MOL0     C82922   4.570   4.188  11.431  0.6206 -0.7526  0.7478
  615MOL0     C82923   4.701   4.223  11.474  0.5659  0.4502 -0.3765
  615MOL0     C82924   4.768   4.312  11.402 -0.0509 -0.7407  0.7142
  615MOL0     O82925   4.899   4.353  11.444  0.2401  0.4945  0.2617
  615MOL0     C82926   5.000   4.361  11.346 -0.3953 -0.1931  0.3803
  615MOL0     C82927   5.088   4.233  11.339  0.0113 -0.7677  0.7251
  615MOL0     C82928   5.104   4.154  11.472  0.9788 -0.5538  0.4917
  615MOL0     C82929   5.166   4.239  11.586  0.4007 -0.0763  0.3301
  615MOL0     C82930   5.189   4.158  11.710 -0.0135 -0.2667 -0.1862
  615MOL0     C82931   5.330   4.096  11.715 -0.4876 -0.1238  0.1139
  615MOL0     C82932   5.421   4.163  11.816  0.2317  0.2287  0.2663
  615MOL0     C82933   5.553   4.098  11.828  0.2140  0.9833 -0.8768
  615MOL0    Cl82934   5.679   4.209  11.890  0.2336  0.3377 -0.1113
  615MOL0     C82935   4.711   4.365  11.277  0.1564 -0.3221  0.1690
  615MOL0     C82936   4.584   4.317  11.229 -0.7394 -0.5119 -0.3969
  615MOL0     O82937   4.301   4.388  11.386 -0.8799  0.6264  0.5975
  615MOL0     C82938   4.039   4.374  11.292  0.3786 -0.4136  0.9502
  615MOL0     C82939   3.910   4.367  11.235 -0.4553  0.1089 -0.3900
  615MOL0     N82940   3.276   4.096  10.776  0.1389 -1.2248  0.0840
  615MOL0     N82941   3.225   4.145  10.669  0.1588  0.5905 -0.4431
  615MOL0     C82942   2.603   4.983   9.990  0.4170  0.1217  0.7629
  615MOL0     C82943   2.485   5.032  10.043  0.1974 -0.1701  0.1697
  615MOL0     C82944   2.216   5.206  10.303  1.0499  1.2136 -0.2761
  615MOL0     C82945   2.086   5.166  10.276  0.8337 -0.5210  0.5494
  615MOL0     C82946   1.978   5.248  10.300 -0.1294  0.0524  0.9280
  615MOL0     C82947   1.992   5.372  10.341  0.5649  0.0214 -0.3522
  615MOL0     O82948   1.872   5.440  10.348 -0.4972  0.2481 -0.6510
  615MOL0     C82949   1.880   5.575  10.401 -0.1639 -1.0175  0.8705
  615MOL0     C82950   1.745   5.643  10.418 -0.0795 -0.0886  0.2073
  615MOL0     C82951   1.683   5.609  10.554 -0.2240  0.0251 -0.0632
  615MOL0     C82952   1.631   5.469  10.550  0.4785  0.2419 -0.5705
  615MOL0     C82953   1.551   5.438  10.674 -0.8539  0.3265  0.6400
  615MOL0     C82954   1.481   5.417  10.766  0.2284 -0.3992 -0.1454
  615MOL0     C82955   2.120   5.421  10.365 -0.1106 -0.5308  0.3724
  615MOL0     C82956   2.240   5.336  10.353 -1.0883  0.8363 -0.3834
  615MOL0     C82957   2.375   5.398  10.373 -0.0996  0.1598  0.3302
  615MOL0     H82958   2.390   4.757  10.212 -0.9707 -2.1053 -2.2802
  615MOL0     H82959   2.587   4.660  10.089  1.1498  1.4257  1.5587
  615MOL0     H82960   2.876   4.932  10.029 -2.2374 -0.4956  3.9138
  615MOL0     H82961   2.844   4.804  10.124  1.5988 -1.3042 -0.3224
  615MOL0     H82962   3.052   4.781   9.895  1.6374 -0.9036  0.5867
  615MOL0     H82963   2.938   4.644   9.937 -3.2287  0.6881  1.3113
  615MOL0     H82964   3.077   4.802  10.151  1.1404  1.5521 -2.1579
  615MOL0     H82965   3.179   4.685  10.064 -0.0812 -0.8082  0.3454
  615MOL0     H82966   2.926   4.590  10.197  0.8856 -0.5390  0.4948
  615MOL0     H82967   3.053   4.494  10.124 -2.0534 -1.5099  1.9700
  615MOL0     H82968   3.203   4.578  10.305  0.6682 -1.3895 -1.1138
  615MOL0     H82969   3.061   4.657  10.375 -1.0413  0.3495 -0.4374
  615MOL0     H82970   2.940   4.424  10.361  0.0524 -1.7302  0.4231
  615MOL0     H82971   3.100   4.350  10.334 -1.1617 -1.2480 -0.1807
  615MOL0     H82972   3.042   4.536  10.573  0.9487  0.9307 -0.6470
  615MOL0     H82973   3.203   4.463  10.536  0.4159  1.2046  0.5021
  615MOL0     H82974   2.971   4.348  10.680  1.5000 -0.7555  2.6375
  615MOL0     H82975   3.023   4.245  10.542  2.8682  0.7058 -1.5417
  615MOL0     H82976   3.160   4.376  10.899 -1.8084 -1.5252 -0.2077
  615MOL0     H82977   3.268   4.234  11.087  2.5830  2.1102  0.7058
  615MOL0     H82978   3.282   4.071  11.044  0.3419  0.2428 -1.1341
  615MOL0     H82979   3.521   4.110  10.960  1.3115  0.1269  1.2788
  615MOL0     H82980   3.487   4.278  10.976  1.1850 -1.2776 -1.0978
  615MOL0     H82981   3.462   4.104  11.220 -2.1623  1.9491  0.5536
  615MOL0     H82982   3.515   4.275  11.207  1.1944  1.1216 -1.4843
  615MOL0     H82983   3.677   4.035  11.134 -1.6192  0.6023 -2.7207
  615MOL0     H82984   3.699   4.142  11.275 -0.2326 -0.9508  1.0262
  615MOL0     H82985   3.978   4.069  11.069  3.0289 -2.7620  2.5972
  615MOL0     H82986   4.183   4.092  11.163  0.0813  0.6410 -3.0922
  615MOL0     H82987   4.509   4.116  11.485 -2.9135 -0.0964 -1.9805
  615MOL0     H82988   4.741   4.183  11.567 -1.0208 -0.2374  0.0420
  615MOL0     H82989   4.972   4.383  11.243 -0.9984 -0.7234  0.4228
  615MOL0     H82990   5.061   4.443  11.384  0.1970 -0.0688 -0.7864
  615MOL0     H82991   5.045   4.173  11.258 -2.2891 -1.0790  2.0895
  615MOL0     H82992   5.189   4.246  11.300 -0.9638  0.8446 -1.4589
  615MOL0     H82993   5.006   4.120  11.508  0.9857 -0.0349  1.0152
  615MOL0     H82994   5.172   4.071  11.455  1.3073 -0.7307  2.4586
  615MOL0     H82995   5.105   4.326  11.613 -0.8858 -0.3119 -1.6314
  615MOL0     H82996   5.263   4.274  11.547 -1.0691  0.4556 -3.1843
  615MOL0     H82997   5.112   4.080  11.715  0.5511 -0.7834  0.8356
  615MOL0     H82998   5.180   4.223  11.798  4.3230  0.0576  0.2391
  615MOL0     H82999   5.317   3.990  11.738 -3.1379 -0.1649 -1.1224
  615MOL0     H83000   5.390   4.101  11.624 -0.2059 -2.0588  0.1475
  615MOL0     H83001   5.366   4.164  11.910 -1.9534  0.6863 -0.9642
  615MOL0     H83002   5.439   4.266  11.785 -1.9898  0.1504 -1.5664
  615MOL0     H83003   5.561   4.027  11.910  0.1343  0.2090 -1.5280
  615MOL0     H83004   5.580   4.050  11.733  2.2726 -2.4385  1.2180
  615MOL0     H83005   4.772   4.436  11.222  2.3582 -1.0339  1.5601
  615MOL0     H83006   4.552   4.363  11.136  0.7230  0.0361 -0.6605
  615MOL0     H83007   4.072   4.468  11.334  2.3100 -0.7275  0.2146
  615MOL0     H83008   3.833   4.443  11.239 -0.7549 -0.0598 -2.1572
  615MOL0     H83009   2.671   5.036   9.924  2.2363 -2.1500  0.6884
  615MOL0     H83010   2.463   5.136  10.023 -0.2207 -0.7200 -2.5634
  615MOL0     H83011   2.060   5.071  10.228  0.2266  0.0880 -0.3624
  615MOL0     H83012   1.877   5.216  10.274  1.1365 -2.5017 -1.2932
  615MOL0     H83013   1.930   5.636  10.325 -1.9467 -0.6596 -0.0856
  615MOL0     H83014   1.925   5.583  10.500 -0.6978 -0.0882  1.0498
  615MOL0     H83015   1.681   5.609  10.336 -1.1585  0.2889  0.8794
  615MOL0     H83016   1.761   5.750  10.406 -0.8897 -0.2240 -3.6055
  615MOL0     H83017   1.599   5.675  10.573 -1.4227 -0.6733 -2.5289
  615MOL0     H83018   1.760   5.620  10.631 -2.4528 -0.1888  2.3259
  615MOL0     H83019   1.566   5.451  10.464 -1.3262 -2.0703  1.1302
  615MOL0     H83020   1.715   5.398  10.551  1.2688  1.1178 -1.9777
  615MOL0     H83021   1.433   5.393  10.858  0.2935  0.3393  0.0854
  615MOL0     H83022   2.134   5.525  10.391  0.5028  0.4632 -3.4246
  615MOL0     H83023   2.359   5.496  10.419 -1.6867 -0.1451  0.4721
  615MOL0     H83024   2.428   5.334  10.444 -0.4117 -3.5019 -2.4078
  615MOL0     H83025   2.428   5.425  10.281  1.3498  1.0107  1.3638
  616MOL0     O83026   0.049   6.459   5.133  0.2764 -0.2487  0.3937
  616MOL0     C83027   0.053   6.466   5.015 -0.0541  0.0866  0.2559
  616MOL0     O83028   0.168   6.495   4.939  0.3293 -0.0933  0.6814
  616MOL0     C83029   0.282   6.510   5.008 -0.5771  0.2632  0.0289
  616MOL0     C83030   0.393   6.440   4.944  0.8212  1.2236 -0.8140
  616MOL0     C83031   0.516   6.430   5.012 -0.2140 -0.4737  0.2485
  616MOL0     C83032   0.537   6.493   5.136 -0.3324 -0.3411  0.7678
  616MOL0     O83033   0.665   6.486   5.182  0.1218  0.2307  0.6426
  616MOL0     C83034   0.701   6.475   5.320 -0.0369 -0.8704 -0.6359
  616MOL0     C83035   0.829   6.398   5.325  0.1140 -0.6411 -0.7916
  616MOL0     C83036   0.792   6.267   5.262  0.0654  1.2780 -0.0254
  616MOL0     C83037   0.916   6.181   5.286  0.2872  0.1159 -0.5242
  616MOL0     C83038   0.994   6.137   5.163 -0.5057 -1.1924  0.1953
  616MOL0     C83039   1.103   6.035   5.193 -0.1239  0.0740  0.1020
  616MOL0     C83040   1.186   6.001   5.075 -0.1259  0.1261  0.1854
  616MOL0     C83041   1.324   5.938   5.114 -0.1702  0.0124  0.2064
  616MOL0     N83042   1.410   5.890   5.002 -0.1126 -0.1686 -0.2406
  616MOL0     C83043   1.378   5.796   4.907 -0.4381 -0.6409  0.1098
  616MOL0     C83044   1.477   5.812   4.811  0.0234  0.0924  0.8209
  616MOL0     C83045   1.462   5.746   4.674  0.6080  0.0144 -0.8900
  616MOL0     C83046   1.452   5.854   4.569  1.0708 -0.2387  0.2408
  616MOL0     C83047   1.438   5.799   4.431  0.5768 -0.7574  0.0601
  616MOL0     C83048   1.583   5.763   4.379 -0.1111  0.7947  0.8516
  616MOL0     O83049   1.621   5.644   4.437  0.0779 -0.0401  0.3991
  616MOL0     C83050   1.753   5.620   4.466  0.4675 -0.4709 -0.4158
  616MOL0     C83051   1.862   5.684   4.408  0.0478 -0.2321 -0.7093
  616MOL0     C83052   2.000   5.647   4.438 -0.1374  0.2252  0.0927
  616MOL0     C83053   2.013   5.536   4.526 -0.9032 -0.8200  0.7135
  616MOL0     C83054   2.152   5.492   4.560 -0.9908  1.1149 -0.7274
  616MOL0     O83055   2.258   5.568   4.521  0.4334 -0.3401  1.0857
  616MOL0     C83056   2.392   5.536   4.552  0.2621  0.7101  0.2915
  616MOL0     C83057   2.433   5.398   4.526  0.4029  0.6500  0.4385
  616MOL0     C83058   2.565   5.369   4.546  1.0150 -0.6987  0.7696
  616MOL0     C83059   2.654   5.458   4.603 -0.6294 -0.0688  1.0474
  616MOL0     O83060   2.777   5.403   4.620  0.3545  0.2969 -0.2653
  616MOL0     C83061   2.840   5.435   4.744  0.8465  0.3542 -0.0832
  616MOL0     C83062   2.776   5.337   4.843  0.1436  0.0732  0.1430
  616MOL0     C83063   2.794   5.200   4.799 -0.3418  0.5795 -0.7541
  616MOL0     C83064   2.667   5.120   4.824 -0.4357  0.3304 -0.5890
  616MOL0     C83065   2.648   4.996   4.728 -0.8955 -0.5377  0.7073
  616MOL0     C83066   2.536   4.900   4.774  0.3428  0.3642  0.2142
  616MOL0     C83067   2.519   4.771   4.678 -0.6960  0.0359 -0.0495
  616MOL0     C83068   2.397   4.696   4.728  0.0244  0.2837  0.2068
  616MOL0    Cl83069   2.398   4.671   4.904  0.5168 -0.4301 -0.3606
  616MOL0     C83070   2.618   5.589   4.621  0.1448  0.1969 -0.3505
  616MOL0     C83071   2.481   5.634   4.605  0.2302 -0.3340  0.4014
  616MOL0     O83072   2.160   5.399   4.644 -0.5061  0.6153  0.1500
  616MOL0     C83073   1.903   5.477   4.597  0.4199 -0.3620 -0.0808
  616MOL0     C83074   1.774   5.519   4.562  0.0846 -1.2995  0.3534
  616MOL0     N83075   1.575   5.886   4.851 -0.1858 -0.7207 -0.4751
  616MOL0     N83076   1.543   5.929   4.973 -0.5898  0.3386 -0.1714
  616MOL0     C83077   0.432   6.561   5.199 -0.0187  0.2614 -0.3260
  616MOL0     C83078   0.304   6.576   5.130 -0.2035 -0.1438  0.5728
  616MOL0     C83079  -0.073   6.414   4.953 -0.4339 -0.2765  0.5568
  616MOL0     C83080  -0.052   6.351   4.832  0.2846 -0.2281 -0.5926
  616MOL0     C83081  -0.157   6.288   4.771 -0.1615 -0.2589  0.1298
  616MOL0     C83082  -0.293   6.289   4.818  0.0782 -0.6378 -0.2573
  616MOL0     O83083  -0.393   6.223   4.752  0.3516  0.1798 -0.1651
  616MOL0     C83084  -0.529   6.240   4.779  0.1664 -0.5530 -0.4919
  616MOL0     C83085  -0.609   6.133   4.697  0.0600  0.0560  0.0642
  616MOL0     C83086  -0.759   6.149   4.701 -0.4051  0.0427  0.0882
  616MOL0     C83087  -0.831   6.070   4.595 -0.4732 -0.1740  0.2301
  616MOL0     C83088  -0.976   6.100   4.604 -0.3531  0.2759 -0.0017
  616MOL0     C83089  -1.089   6.134   4.615  0.3546  0.8686  0.0842
  616MOL0     C83090  -0.322   6.354   4.946 -0.0976  0.2241 -0.0497
  616MOL0     C83091  -0.211   6.420   5.011 -0.0711 -0.4169  0.5137
  616MOL0     C83092  -0.232   6.497   5.141 -1.0768 -0.1085 -0.2001
  616MOL0     H83093   0.380   6.391   4.849  0.7896  1.8363 -1.1326
  616MOL0     H83094   0.597   6.377   4.963  1.0440  1.7277 -0.1691
  616MOL0     H83095   0.724   6.574   5.362  0.7883 -1.0517 -0.6446
  616MOL0     H83096   0.620   6.434   5.381  0.5044  0.8636  1.3476
  616MOL0     H83097   0.848   6.400   5.433 -1.7777  0.9138 -0.4254
  616MOL0     H83098   0.903   6.461   5.275 -0.1130  0.0870 -0.2259
  616MOL0     H83099   0.749   6.265   5.162 -1.0612 -3.5196  0.2861
  616MOL0     H83100   0.713   6.217   5.320  0.0842 -0.1863 -1.2029
  616MOL0     H83101   0.988   6.241   5.343  0.2695 -1.4509  1.2579
  616MOL0     H83102   0.888   6.098   5.352 -0.6308 -1.3493 -2.6482
  616MOL0     H83103   0.924   6.103   5.086  0.7449 -2.3550 -0.4638
  616MOL0     H83104   1.038   6.228   5.121 -3.0855  0.5815  1.0244
  616MOL0     H83105   1.164   6.080   5.271  1.3194 -1.3679 -0.1543
  616MOL0     H83106   1.047   5.948   5.229 -0.9132  1.5410  2.6306
  616MOL0     H83107   1.224   6.086   5.018  0.6619  0.9271  1.8129
  616MOL0     H83108   1.138   5.932   5.005 -1.6947 -0.8890  2.1554
  616MOL0     H83109   1.390   6.006   5.169  2.6277 -3.0086  0.8986
  616MOL0     H83110   1.307   5.859   5.188  2.5100  0.1786  1.1068
  616MOL0     H83111   1.285   5.742   4.898  0.2262 -2.1041  1.5167
  616MOL0     H83112   1.551   5.683   4.666  1.6712  0.8496  2.5516
  616MOL0     H83113   1.369   5.690   4.684  1.0045 -0.6557 -0.8673
  616MOL0     H83114   1.362   5.913   4.590  1.0716  1.2681 -3.2876
  616MOL0     H83115   1.539   5.920   4.572  0.4822  0.5216  1.8602
  616MOL0     H83116   1.398   5.882   4.371  0.6371  0.0048  1.0471
  616MOL0     H83117   1.374   5.711   4.421 -3.0961  1.7887 -0.8422
  616MOL0     H83118   1.655   5.844   4.393  0.2814  1.1405 -2.3939
  616MOL0     H83119   1.578   5.750   4.270  0.6894  0.1657  0.8749
  616MOL0     H83120   1.852   5.775   4.349  4.3826  1.7129  1.1246
  616MOL0     H83121   2.083   5.697   4.389 -0.4370  1.8461  1.1400
  616MOL0     H83122   2.369   5.323   4.482  3.6040 -1.2599 -1.3329
  616MOL0     H83123   2.593   5.266   4.530 -1.7935 -1.3542 -0.4654
  616MOL0     H83124   2.947   5.415   4.736  0.8832  1.2225 -2.6441
  616MOL0     H83125   2.844   5.541   4.769  0.9347  0.6542 -1.3423
  616MOL0     H83126   2.817   5.372   4.938 -1.7445  3.9500 -0.2733
  616MOL0     H83127   2.670   5.355   4.859 -0.1798 -0.0940 -1.5798
  616MOL0     H83128   2.836   5.180   4.700 -1.7027 -1.0563 -1.0638
  616MOL0     H83129   2.866   5.157   4.868 -2.3416 -0.4822  0.7970
  616MOL0     H83130   2.573   5.176   4.816 -0.1526  0.5294 -4.1047
  616MOL0     H83131   2.653   5.068   4.919  0.0715 -0.1693 -0.7791
  616MOL0     H83132   2.738   4.933   4.735 -0.0082  0.4464 -1.1728
  616MOL0     H83133   2.630   5.015   4.622  2.3411 -4.1191 -0.7295
  616MOL0     H83134   2.558   4.859   4.874  2.4272  1.4033  0.2284
  616MOL0     H83135   2.438   4.949   4.777  0.9614  1.7168  3.2598
  616MOL0     H83136   2.609   4.709   4.673 -0.7670 -0.0181 -0.8501
  616MOL0     H83137   2.506   4.784   4.570  0.9016  0.5294 -0.2033
  616MOL0     H83138   2.305   4.747   4.698 -1.2168 -0.3877  2.6238
  616MOL0     H83139   2.384   4.600   4.677 -1.9379  1.4983 -1.7555
  616MOL0     H83140   2.695   5.662   4.645  2.4054 -0.9180 -3.6143
  616MOL0     H83141   2.462   5.737   4.633  0.5689 -0.2973  0.5025
  616MOL0     H83142   1.921   5.397   4.669  1.7057 -0.4044 -0.4173
  616MOL0     H83143   1.685   5.477   4.607 -0.4784 -0.0729  0.4205
  616MOL0     H83144   0.447   6.609   5.295  0.9647  0.5128 -0.5912
  616MOL0     H83145   0.224   6.634   5.176 -0.7400  0.3980 -0.9695
  616MOL0     H83146   0.045   6.351   4.784  0.9632  2.2423  0.6483
  616MOL0     H83147  -0.133   6.245   4.674  0.6671 -4.2255  1.8943
  616MOL0     H83148  -0.547   6.342   4.742 -1.3227  0.0284  1.6545
  616MOL0     H83149  -0.575   6.238   4.878 -2.9665 -0.9750 -1.8212
  616MOL0     H83150  -0.573   6.032   4.720  1.6778  0.5165 -0.3529
  616MOL0     H83151  -0.585   6.143   4.591 -1.3880  1.9308 -0.1433
  616MOL0     H83152  -0.780   6.255   4.688  0.8298  0.3595  0.5571
  616MOL0     H83153  -0.791   6.118   4.801  2.9559 -1.4869  0.8279
  616MOL0     H83154  -0.795   6.098   4.495 -0.3158 -1.3699 -0.0717
  616MOL0     H83155  -0.809   5.964   4.610  3.4938  0.1798 -1.7169
  616MOL0     H83156  -1.194   6.154   4.610  0.1021 -0.6013 -2.4855
  616MOL0     H83157  -0.421   6.366   4.989 -0.2865  2.5753 -0.9606
  616MOL0     H83158  -0.337   6.521   5.158 -0.7342 -0.2403  2.5564
  616MOL0     H83159  -0.188   6.450   5.229  0.0545  2.0374  0.4630
  616MOL0     H83160  -0.181   6.592   5.124 -0.8580 -0.0879  0.5467
  617MOL0     O83161   0.183   8.869   7.059 -0.7465  0.4614  0.7065
  617MOL0     C83162   0.133   8.840   6.952  0.3569  0.3689 -1.0318
  617MOL0     O83163   0.197   8.777   6.852  0.3531  0.1580  0.6743
  617MOL0     C83164   0.331   8.759   6.864  0.1334 -0.5076  0.6009
  617MOL0     C83165   0.386   8.673   6.960  0.3240  0.8763 -0.0221
  617MOL0     C83166   0.527   8.661   6.959  1.1148 -0.5956 -0.0117
  617MOL0     C83167   0.604   8.729   6.868 -0.6154  0.2432  0.7073
  617MOL0     O83168   0.744   8.719   6.900 -0.2339 -0.0209  0.3557
  617MOL0     C83169   0.792   8.842   6.946  0.0257  0.1638  0.1340
  617MOL0     C83170   0.875   8.927   6.847 -0.2604  0.0817  0.3886
  617MOL0     C83171   0.951   8.848   6.738  0.3012  0.2090 -0.3570
  617MOL0     C83172   1.033   8.947   6.654 -0.4815  0.3288 -0.0186
  617MOL0     C83173   1.138   8.872   6.563  0.4284 -0.8443  0.6719
  617MOL0     C83174   1.267   8.835   6.629  1.0875 -0.7695 -0.1195
  617MOL0     C83175   1.370   8.784   6.524  0.6421  0.7487 -0.1552
  617MOL0     C83176   1.445   8.904   6.453  0.6055 -0.1862  0.0407
  617MOL0     N83177   1.580   8.845   6.422  0.3966 -0.0608  0.5665
  617MOL0     C83178   1.621   8.808   6.292  0.0510 -0.6414  0.2986
  617MOL0     C83179   1.745   8.767   6.300  0.0867  0.1086  0.0231
  617MOL0     C83180   1.839   8.720   6.188  0.0138 -0.4157 -0.0992
  617MOL0     C83181   1.924   8.823   6.122  0.0336  0.4624 -0.5119
  617MOL0     C83182   2.048   8.759   6.058  0.3144  0.1263  0.7251
  617MOL0     C83183   2.113   8.841   5.947 -0.4387 -0.3917  0.0552
  617MOL0     O83184   2.228   8.765   5.908 -0.0193 -1.2935 -0.0101
  617MOL0     C83185   2.351   8.817   5.873 -0.3875 -0.3491 -0.5993
  617MOL0     C83186   2.383   8.951   5.851  0.1560 -0.2133  0.5621
  617MOL0     C83187   2.498   8.998   5.794 -0.5425 -0.1040  0.7220
  617MOL0     C83188   2.590   8.911   5.736 -0.3701  0.5509  0.5186
  617MOL0     C83189   2.708   8.950   5.654  0.6726  1.0592  0.0648
  617MOL0     O83190   2.785   8.854   5.586 -0.1371 -0.1129  0.3966
  617MOL0     C83191   2.916   8.872   5.549  0.0440 -0.1523  0.2946
  617MOL0     C83192   2.982   8.819   5.438  0.1311 -0.6208 -0.3312
  617MOL0     C83193   3.117   8.839   5.409  0.0304  0.1478  0.1824
  617MOL0     C83194   3.203   8.916   5.498 -0.0743 -0.5247  0.4097
  617MOL0     O83195   3.334   8.946   5.474 -0.1242  0.3960  0.5880
  617MOL0     C83196   3.412   8.837   5.420  0.0498 -0.1680  0.1941
  617MOL0     C83197   3.488   8.763   5.535  0.4693 -0.4842  0.6545
  617MOL0     C83198   3.548   8.838   5.651 -0.8263 -0.2018 -0.3477
  617MOL0     C83199   3.632   8.960   5.605 -0.0880  0.3255  0.1487
  617MOL0     C83200   3.695   9.037   5.720  0.1809 -0.0952 -0.3626
  617MOL0     C83201   3.783   8.951   5.821 -0.5102 -0.7813 -0.2748
  617MOL0     C83202   3.880   9.048   5.897 -0.0195 -0.0828  0.0846
  617MOL0     C83203   3.939   8.982   6.017 -0.0121 -0.3341  0.7582
  617MOL0    Cl83204   4.058   9.082   6.097 -0.2518  0.1535 -0.4813
  617MOL0     C83205   3.142   8.949   5.616 -0.2381 -0.1606  0.5481
  617MOL0     C83206   3.005   8.931   5.641  0.2376 -0.3909 -0.0608
  617MOL0     O83207   2.717   9.070   5.641  0.0482  0.5301  0.1525
  617MOL0     C83208   2.567   8.769   5.763 -0.1130 -0.3516  0.2493
  617MOL0     C83209   2.453   8.727   5.837  0.0992  0.2476 -0.8828
  617MOL0     N83210   1.776   8.772   6.440  0.2067  0.3425  1.0226
  617MOL0     N83211   1.682   8.823   6.507  0.1117 -0.0076  0.4855
  617MOL0     C83212   0.554   8.807   6.765 -0.0296 -0.3356  0.4416
  617MOL0     C83213   0.417   8.817   6.767  0.5706 -0.2276 -0.2826
  617MOL0     C83214  -0.005   8.896   6.939  0.8461 -0.1607  0.2251
  617MOL0     C83215  -0.091   8.835   6.849 -0.0964  0.1647  0.8958
  617MOL0     C83216  -0.220   8.879   6.824  0.3156  0.6199  0.4068
  617MOL0     C83217  -0.271   8.986   6.900  0.3901 -0.0104  0.2303
  617MOL0     O83218  -0.397   9.043   6.901 -0.0718 -0.4190  1.0477
  617MOL0     C83219  -0.459   9.080   6.771  0.5754  0.1158 -0.1831
  617MOL0     C83220  -0.560   8.970   6.747 -0.0081 -0.0910 -0.2737
  617MOL0     C83221  -0.670   8.956   6.849  0.1110 -0.9096 -1.3079
  617MOL0     C83222  -0.744   9.086   6.876 -0.5920 -0.5583 -0.7843
  617MOL0     C83223  -0.886   9.070   6.912 -0.3465  0.2089 -0.3476
  617MOL0     C83224  -1.011   9.076   6.916  0.1218  0.6529 -0.1175
  617MOL0     C83225  -0.196   9.042   6.992  0.2062 -0.4792 -0.1025
  617MOL0     C83226  -0.063   9.002   7.009  0.4077  0.0116 -0.7649
  617MOL0     C83227   0.004   9.074   7.122 -0.2548 -0.2155  0.0150
  617MOL0     H83228   0.329   8.621   7.036  0.4031  0.4820 -0.2314
  617MOL0     H83229   0.572   8.595   7.032  1.2181  0.5458  0.9973
  617MOL0     H83230   0.709   8.901   6.987 -1.3795 -0.3824 -1.7336
  617MOL0     H83231   0.870   8.818   7.018 -1.0904 -2.3715  0.6146
  617MOL0     H83232   0.949   8.992   6.897  1.1617  0.5257 -2.1032
  617MOL0     H83233   0.802   8.989   6.794 -2.1765 -0.4316  2.2969
  617MOL0     H83234   0.886   8.800   6.665 -1.1233  1.7490 -0.1766
  617MOL0     H83235   1.016   8.774   6.785 -0.4187  0.8524  1.7784
  617MOL0     H83236   0.967   9.009   6.592 -0.0876  2.7794  1.8576
  617MOL0     H83237   1.083   9.022   6.716 -1.8434  2.7838 -1.6889
  617MOL0     H83238   1.092   8.779   6.529 -1.7076 -0.3802  2.1425
  617MOL0     H83239   1.151   8.936   6.475  0.8609  0.4172  1.6257
  617MOL0     H83240   1.302   8.918   6.692  0.0432 -1.8234  1.9560
  617MOL0     H83241   1.250   8.755   6.702  3.0060 -1.0043  0.1316
  617MOL0     H83242   1.315   8.723   6.453 -3.5410  2.6861  1.0781
  617MOL0     H83243   1.443   8.723   6.578 -0.4601 -0.8749 -0.4255
  617MOL0     H83244   1.389   8.940   6.367  1.0655 -1.6187 -0.8841
  617MOL0     H83245   1.455   8.988   6.522  1.0025  1.1921 -1.6282
  617MOL0     H83246   1.568   8.813   6.197 -0.2124  1.9948  0.5015
  617MOL0     H83247   1.902   8.635   6.216 -1.1965 -1.6734 -1.0267
  617MOL0     H83248   1.766   8.702   6.108 -1.3146 -0.6597  1.1181
  617MOL0     H83249   1.861   8.883   6.054 -2.4245 -2.7888 -1.3376
  617MOL0     H83250   1.961   8.902   6.188 -0.9410 -0.3017  0.9903
  617MOL0     H83251   2.008   8.667   6.015 -1.9608  1.2652  0.2299
  617MOL0     H83252   2.118   8.731   6.138 -0.6516  0.0618  1.5642
  617MOL0     H83253   2.146   8.934   5.994 -1.5273  2.3067 -3.9494
  617MOL0     H83254   2.039   8.864   5.869 -0.0721 -1.2403 -0.5511
  617MOL0     H83255   2.306   9.025   5.870 -2.9956 -2.9652 -0.4683
  617MOL0     H83256   2.515   9.104   5.781 -0.5280 -0.3440 -1.8077
  617MOL0     H83257   2.928   8.765   5.361  0.6842 -1.2318 -0.2971
  617MOL0     H83258   3.158   8.795   5.319  0.7119  0.4822  0.3181
  617MOL0     H83259   3.349   8.769   5.362 -4.0943  2.0858  1.5834
  617MOL0     H83260   3.481   8.879   5.347 -1.3052  1.6217 -0.1308
  617MOL0     H83261   3.412   8.699   5.580 -0.7310  0.4434  0.0149
  617MOL0     H83262   3.560   8.706   5.475 -0.4581 -1.6542  0.6148
  617MOL0     H83263   3.458   8.874   5.703 -1.9698 -1.1060 -1.6274
  617MOL0     H83264   3.608   8.773   5.715  1.3340  1.0494 -1.0173
  617MOL0     H83265   3.566   9.027   5.550  0.1235 -0.7585 -1.5144
  617MOL0     H83266   3.701   8.926   5.527  0.1715  2.8901 -0.8229
  617MOL0     H83267   3.611   9.087   5.770  0.3947  1.7694 -1.7394
  617MOL0     H83268   3.762   9.113   5.679  1.3934 -1.1510 -0.3774
  617MOL0     H83269   3.715   8.903   5.892 -2.2104 -0.1682 -1.4409
  617MOL0     H83270   3.851   8.878   5.775  1.0768  0.2796  0.2721
  617MOL0     H83271   3.825   9.125   5.952 -0.0319 -3.1777  5.0401
  617MOL0     H83272   3.962   9.082   5.833 -1.4244 -0.5156 -2.0558
  617MOL0     H83273   3.858   8.967   6.089 -0.4679  1.1945  0.5821
  617MOL0     H83274   3.991   8.888   5.997  3.0056  0.0612  5.1681
  617MOL0     H83275   3.196   8.995   5.698 -1.9998  0.7410  1.2480
  617MOL0     H83276   2.975   8.957   5.741  0.0904  2.0200 -0.6613
  617MOL0     H83277   2.622   8.688   5.716  0.5601  0.3065 -0.1140
  617MOL0     H83278   2.438   8.622   5.864 -0.0109  0.6436  0.6705
  617MOL0     H83279   0.621   8.867   6.703 -1.0022  0.9323  0.5749
  617MOL0     H83280   0.383   8.878   6.684  1.4712  0.7567  0.0545
  617MOL0     H83281  -0.054   8.758   6.783 -0.4271  1.1118 -0.4422
  617MOL0     H83282  -0.277   8.835   6.743 -2.3256  2.7570  0.9542
  617MOL0     H83283  -0.390   9.090   6.687 -0.6251 -0.4318 -1.2751
  617MOL0     H83284  -0.516   9.173   6.768 -2.6038 -1.6552  0.7200
  617MOL0     H83285  -0.497   8.881   6.739 -0.2661 -0.3446  0.4407
  617MOL0     H83286  -0.615   8.969   6.652  1.4765 -2.4762 -1.2080
  617MOL0     H83287  -0.635   8.917   6.945  3.0332 -2.6278 -2.9577
  617MOL0     H83288  -0.744   8.879   6.828 -0.9164 -0.6597  0.9987
  617MOL0     H83289  -0.703   9.138   6.963  0.1286 -2.5219  0.1287
  617MOL0     H83290  -0.748   9.158   6.794  2.3390  0.8382  0.1594
  617MOL0     H83291  -1.117   9.085   6.910 -0.1316 -2.4528 -2.4155
  617MOL0     H83292  -0.229   9.132   7.044  2.9341  1.6287 -1.7971
  617MOL0     H83293  -0.007   9.011   7.211  0.3174 -1.8167 -1.0109
  617MOL0     H83294   0.108   9.102   7.102  0.9382 -1.4894  3.5693
  617MOL0     H83295  -0.056   9.165   7.135 -0.2737  0.1030 -1.9760
  618MOL0     O83296   0.217  10.492  11.282 -0.0269  0.3255 -0.0847
  618MOL0     C83297   0.182  10.515  11.397 -0.2499 -0.2119 -0.1680
  618MOL0     O83298   0.268  10.578  11.488  0.9205 -0.1019 -0.9238
  618MOL0     C83299   0.373  10.645  11.438  0.6425  0.2228 -0.1517
  618MOL0     C83300   0.348  10.757  11.362 -0.1974 -0.0706  0.6190
  618MOL0     C83301   0.458  10.830  11.295  0.9682 -0.3794  0.1116
  618MOL0     C83302   0.588  10.786  11.309  0.5371 -0.2621  0.2768
  618MOL0     O83303   0.689  10.853  11.246 -1.2206  0.5335 -0.9413
  618MOL0     C83304   0.685  10.972  11.167  0.0308  0.6040 -0.0191
  618MOL0     C83305   0.824  11.015  11.124 -0.1263 -0.5641 -0.1680
  618MOL0     C83306   0.905  11.074  11.244  0.8521 -0.1644 -0.7140
  618MOL0     C83307   1.010  11.167  11.183  0.4514  1.5103 -0.2189
  618MOL0     C83308   1.112  11.212  11.296  0.6587  0.5234  0.7182
  618MOL0     C83309   1.228  11.290  11.239 -0.6021  0.1447  0.8020
  618MOL0     C83310   1.326  11.211  11.154  0.0737 -0.5130  0.5060
  618MOL0     C83311   1.437  11.298  11.106 -0.3376 -0.5290 -0.8996
  618MOL0     N83312   1.538  11.241  11.011  0.6647  1.0148  0.7691
  618MOL0     C83313   1.623  11.133  11.034  0.2917 -0.3400 -0.9639
  618MOL0     C83314   1.677  11.103  10.919  0.0618 -0.1322 -0.1271
  618MOL0     C83315   1.798  11.018  10.893  0.0452  0.2911 -0.7585
  618MOL0     C83316   1.917  11.083  10.969 -0.1640 -0.5813  0.2487
  618MOL0     C83317   2.045  10.998  10.950 -0.0638  0.4514 -0.3656
  618MOL0     C83318   2.035  10.886  11.042 -0.3606  0.5349 -0.9601
  618MOL0     O83319   2.150  10.804  11.050  0.2014 -0.0743  0.6000
  618MOL0     C83320   2.267  10.861  11.098 -0.0926 -0.6003  0.2534
  618MOL0     C83321   2.372  10.865  11.008  0.1619  0.2057 -0.9631
  618MOL0     C83322   2.497  10.910  11.046 -0.3526  0.2271 -0.1099
  618MOL0     C83323   2.514  10.966  11.169 -0.1476  0.3230  1.2198
  618MOL0     C83324   2.649  11.022  11.205 -0.3148 -0.4564 -0.0005
  618MOL0     O83325   2.763  10.956  11.155  0.2940 -0.7921  0.5474
  618MOL0     C83326   2.888  11.010  11.192 -0.7470 -0.7176  1.1250
  618MOL0     C83327   2.924  11.144  11.165 -0.1817  0.4940  0.0847
  618MOL0     C83328   3.046  11.195  11.192 -0.4801  0.2963 -0.2144
  618MOL0     C83329   3.153  11.105  11.234  0.5660  0.3471  0.5804
  618MOL0     O83330   3.273  11.174  11.237  0.3303 -0.6404 -0.2700
  618MOL0     C83331   3.370  11.135  11.333  0.5351 -0.8149  0.7616
  618MOL0     C83332   3.504  11.169  11.274 -0.1203  0.7332 -0.6098
  618MOL0     C83333   3.544  11.080  11.155 -0.2053  0.5050  0.5504
  618MOL0     C83334   3.665  11.120  11.068  0.8020 -1.2453 -0.4006
  618MOL0     C83335   3.708  11.003  10.986 -0.3301  0.4296  0.4216
  618MOL0     C83336   3.830  11.039  10.905  0.8850  0.6519  0.0220
  618MOL0     C83337   3.891  10.917  10.837 -0.4571  0.1203 -0.1388
  618MOL0     C83338   3.977  10.962  10.726  0.0213 -0.0326  0.6482
  618MOL0    Cl83339   4.021  10.825  10.618  0.2923 -0.4970 -0.1200
  618MOL0     C83340   3.135  10.967  11.244 -0.4446  0.2228 -0.0433
  618MOL0     C83341   2.997  10.927  11.228  0.1182 -0.0292 -0.2245
  618MOL0     O83342   2.652  11.119  11.278  0.7868 -0.5264 -0.1430
  618MOL0     C83343   2.406  10.966  11.267 -0.6681 -0.2790  0.3660
  618MOL0     C83344   2.279  10.918  11.226  0.3859  0.0140  0.1446
  618MOL0     N83345   1.629  11.189  10.820  0.6357  0.5525  0.0148
  618MOL0     N83346   1.543  11.272  10.877 -0.4331 -0.5910 -0.4130
  618MOL0     C83347   0.605  10.660  11.370 -0.3994  0.3166 -0.0908
  618MOL0     C83348   0.506  10.599  11.438 -0.1060  0.2317 -0.4276
  618MOL0     C83349   0.055  10.466  11.455 -0.0829  0.3719 -0.0263
  618MOL0     C83350   0.063  10.422  11.587 -0.2202 -0.1445  0.3687
  618MOL0     C83351  -0.039  10.353  11.645 -0.4660 -0.0954 -0.4669
  618MOL0     C83352  -0.159  10.335  11.579  0.6477  0.7993  0.0826
  618MOL0     O83353  -0.273  10.274  11.627 -0.6930 -0.2822  0.5707
  618MOL0     C83354  -0.246  10.195  11.746  0.1529 -0.4017  0.1556
  618MOL0     C83355  -0.385  10.137  11.792  0.1832  0.1796 -0.8210
  618MOL0     C83356  -0.477  10.236  11.856  0.5873 -0.8560 -0.4237
  618MOL0     C83357  -0.609  10.176  11.895  0.2557 -0.4073  0.8080
  618MOL0     C83358  -0.693  10.125  11.786  0.7102 -0.2114  0.2605
  618MOL0     C83359  -0.755  10.074  11.696  0.0243  0.2573  0.1133
  618MOL0     C83360  -0.179  10.388  11.448 -0.3650 -0.6267 -0.3648
  618MOL0     C83361  -0.068  10.453  11.382 -1.3359  0.2050 -0.6895
  618MOL0     C83362  -0.095  10.506  11.241  0.0666 -0.6109  0.6977
  618MOL0     H83363   0.250  10.797  11.340 -0.2067  0.3012  1.3038
  618MOL0     H83364   0.427  10.913  11.233 -1.2529 -0.5986  0.8307
  618MOL0     H83365   0.624  10.957  11.077 -2.4661 -1.6924  1.8762
  618MOL0     H83366   0.632  11.048  11.225 -3.4109  0.2893 -2.4179
  618MOL0     H83367   0.802  11.096  11.053  1.8312 -0.7471 -1.0272
  618MOL0     H83368   0.873  10.938  11.064 -0.4300  1.4508 -3.2435
  618MOL0     H83369   0.958  10.990  11.290 -0.1262 -0.1517  0.4763
  618MOL0     H83370   0.849  11.111  11.329 -0.1399 -0.6362 -1.1450
  618MOL0     H83371   1.057  11.118  11.097 -1.4099  0.1902 -0.5289
  618MOL0     H83372   0.969  11.257  11.137  0.5075  1.3245 -0.6352
  618MOL0     H83373   1.059  11.277  11.366 -1.0544  0.1039 -0.1115
  618MOL0     H83374   1.133  11.119  11.349  0.1320  0.6270  1.1219
  618MOL0     H83375   1.193  11.369  11.171 -0.0430 -0.0756  0.2515
  618MOL0     H83376   1.286  11.330  11.322  0.2165 -0.2162  0.4206
  618MOL0     H83377   1.264  11.174  11.072 -0.1180  1.1857 -0.1570
  618MOL0     H83378   1.368  11.121  11.201 -1.8354 -1.3681  0.7024
  618MOL0     H83379   1.383  11.378  11.054 -1.8738  0.4941  2.0381
  618MOL0     H83380   1.501  11.339  11.184  3.3630 -4.5995 -1.4615
  618MOL0     H83381   1.639  11.071  11.122  0.6645 -0.8797 -1.4043
  618MOL0     H83382   1.769  10.917  10.920 -1.4725 -0.0149 -3.2207
  618MOL0     H83383   1.825  11.019  10.787 -0.5444 -1.6327 -0.9551
  618MOL0     H83384   1.932  11.179  10.919 -2.0020 -0.8783 -1.0126
  618MOL0     H83385   1.903  11.094  11.077  0.2739  0.7927  0.1875
  618MOL0     H83386   2.135  11.054  10.977  0.0118 -0.3822  1.1830
  618MOL0     H83387   2.055  10.967  10.845  1.0448 -0.3188 -0.0517
  618MOL0     H83388   1.957  10.813  11.017  0.3501 -0.4716 -0.3303
  618MOL0     H83389   2.017  10.921  11.144 -3.3895 -1.0833 -0.8244
  618MOL0     H83390   2.359  10.826  10.907 -1.8460 -0.3900 -0.5154
  618MOL0     H83391   2.577  10.906  10.972 -0.4056  1.0214 -0.2207
  618MOL0     H83392   2.854  11.219  11.130 -1.9161 -1.0358  0.1331
  618MOL0     H83393   3.064  11.301  11.200 -1.4573  0.3485  2.5989
  618MOL0     H83394   3.344  11.172  11.432  0.5748  3.5407 -0.6385
  618MOL0     H83395   3.372  11.027  11.351 -1.8438 -0.9330  0.6039
  618MOL0     H83396   3.506  11.274  11.244  1.8431  0.3673 -2.0174
  618MOL0     H83397   3.575  11.158  11.356 -0.3475 -2.7671 -0.7286
  618MOL0     H83398   3.568  10.983  11.199 -2.3354  0.4190  1.6636
  618MOL0     H83399   3.457  11.061  11.092  2.7393 -2.2688 -3.1982
  618MOL0     H83400   3.739  11.133  11.147  0.2121  1.9469 -0.2230
  618MOL0     H83401   3.661  11.211  11.008  3.7212 -0.8471 -0.1055
  618MOL0     H83402   3.629  10.960  10.923  0.8517  0.4099 -1.0792
  618MOL0     H83403   3.731  10.917  11.051  2.4765 -1.0170 -2.2623
  618MOL0     H83404   3.799  11.107  10.825  2.7120  0.0590 -1.2645
  618MOL0     H83405   3.897  11.090  10.975  0.1348  3.5586 -1.2182
  618MOL0     H83406   3.813  10.856  10.790 -0.9472  1.8231 -1.6079
  618MOL0     H83407   3.944  10.849  10.904 -1.7448 -1.1614 -0.3748
  618MOL0     H83408   3.928  11.040  10.668  1.2868  0.6227  0.4248
  618MOL0     H83409   4.065  11.016  10.763 -0.4655  0.5194  1.0217
  618MOL0     H83410   3.217  10.898  11.265 -0.4407 -0.0657 -0.9894
  618MOL0     H83411   2.976  10.821  11.232  0.2557 -0.0669 -0.4880
  618MOL0     H83412   2.430  11.006  11.365  3.9675 -1.6112  0.0152
  618MOL0     H83413   2.191  10.907  11.288 -0.9422 -0.3330 -1.7149
  618MOL0     H83414   0.699  10.606  11.379 -0.4617  0.1369 -0.4925
  618MOL0     H83415   0.527  10.508  11.493 -0.2530 -0.7165 -1.8832
  618MOL0     H83416   0.160  10.421  11.634 -0.0690  1.5889  0.1388
  618MOL0     H83417  -0.005  10.326  11.744  3.2063  1.3523 -1.1601
  618MOL0     H83418  -0.211  10.255  11.831 -1.6966 -1.1263  1.5013
  618MOL0     H83419  -0.171  10.116  11.738 -0.7350 -1.2420 -0.1946
  618MOL0     H83420  -0.365  10.062  11.868  0.4462  0.5266 -0.5429
  618MOL0     H83421  -0.436  10.087  11.709  0.9182 -0.2527 -1.0197
  618MOL0     H83422  -0.489  10.329  11.800  1.4674  1.9183  3.5918
  618MOL0     H83423  -0.421  10.259  11.947  0.8797 -0.8817 -0.5941
  618MOL0     H83424  -0.589  10.099  11.970 -2.1000 -1.2341  0.6517
  618MOL0     H83425  -0.670  10.254  11.942  1.9671  0.4959  1.6219
  618MOL0     H83426  -0.824  10.029  11.628  0.3477 -2.5651  1.4851
  618MOL0     H83427  -0.281  10.393  11.410  0.1544 -3.0553 -2.3089
  618MOL0     H83428  -0.030  10.453  11.171  1.1237  1.7662 -0.2458
  618MOL0     H83429  -0.202  10.509  11.222  0.2137  2.1530 -0.1628
  618MOL0     H83430  -0.067  10.612  11.233 -2.5702  0.2203  1.5490
  619MOL0     O83431   7.076   8.250   8.998 -0.0770  1.1644  0.7717
  619MOL0     C83432   7.085   8.246   9.119  0.6944  0.1893 -0.1892
  619MOL0     O83433   7.194   8.263   9.198  0.2986  0.3579  0.2382
  619MOL0     C83434   7.312   8.311   9.143 -0.4985 -0.4617  0.1566
  619MOL0     C83435   7.395   8.208   9.086  0.0711 -0.2796  0.7015
  619MOL0     C83436   7.532   8.237   9.045 -0.3080  1.2890 -0.0161
  619MOL0     C83437   7.585   8.367   9.061  0.2052 -0.1033  0.4785
  619MOL0     O83438   7.717   8.395   9.038 -0.0529 -0.4655  0.5892
  619MOL0     C83439   7.812   8.295   9.072 -0.0920 -0.6236  0.0171
  619MOL0     C83440   7.934   8.329   8.985 -0.2789 -0.2519 -0.5625
  619MOL0     C83441   8.065   8.315   9.050 -0.8434  0.3478  0.4073
  619MOL0     C83442   8.168   8.386   8.968 -0.7011  0.4864  0.4671
  619MOL0     C83443   8.296   8.391   9.049 -0.1578 -0.4081 -0.2184
  619MOL0     C83444   8.417   8.434   8.966  0.5586  0.1679  0.2999
  619MOL0     C83445   8.553   8.382   9.012  0.5084  0.0112  0.1728
  619MOL0     C83446   8.685   8.436   8.940  0.1152  0.1483 -0.0978
  619MOL0     N83447   8.824   8.408   9.002  0.2230 -1.1327  0.1579
  619MOL0     C83448   8.863   8.491   9.105  0.0228 -0.0745 -0.7937
  619MOL0     C83449   8.991   8.459   9.124  0.2829  0.0574  0.4545
  619MOL0     C83450   9.084   8.523   9.222  0.3136  0.0659 -0.2100
  619MOL0     C83451   9.229   8.487   9.201 -0.2125  0.4171  0.2633
  619MOL0     C83452   9.317   8.553   9.299 -0.5837  0.3745 -1.0611
  619MOL0     C83453   9.463   8.554   9.255  0.2020  0.2816 -0.4916
  619MOL0     O83454   9.510   8.424   9.263 -0.2102  0.5275  0.3583
  619MOL0     C83455   9.642   8.404   9.222 -0.0986  0.5580  0.3433
  619MOL0     C83456   9.731   8.506   9.175  0.0943 -0.3751 -0.2088
  619MOL0     C83457   9.859   8.471   9.134  0.8858 -0.6338 -0.4717
  619MOL0     C83458   9.907   8.342   9.157 -0.0370  0.4433 -0.0690
  619MOL0     C83459  10.050   8.298   9.118  0.0109 -0.1501 -0.7515
  619MOL0     O83460  10.085   8.169   9.140 -0.1507 -0.0403  0.3470
  619MOL0     C83461  10.221   8.136   9.140  0.4884 -0.4350  0.4420
  619MOL0     C83462  10.259   8.059   9.250 -0.8706  0.0683  0.3823
  619MOL0     C83463  10.387   7.998   9.260  0.5597  1.3838  1.2734
  619MOL0     C83464  10.473   8.005   9.149 -0.2588 -0.6450  0.2603
  619MOL0     O83465  10.591   7.939   9.148  0.7804  1.0317  0.7970
  619MOL0     C83466  10.667   7.922   9.028  0.4673  1.0517 -0.7529
  619MOL0     C83467  10.778   8.026   9.022 -1.0854 -0.4162  0.8143
  619MOL0     C83468  10.819   8.045   8.867  0.4028 -0.4026 -0.0335
  619MOL0     C83469  10.883   7.908   8.810  0.7811 -0.7453  1.3215
  619MOL0     C83470  10.997   7.859   8.890  0.0783 -0.1387  0.0192
  619MOL0     C83471  11.053   7.735   8.812  0.3475 -0.3496 -0.2466
  619MOL0     C83472  11.179   7.675   8.872 -0.2468 -0.4741 -0.1258
  619MOL0     C83473  11.279   7.643   8.761 -0.1507 -0.4666 -0.1361
  619MOL0    Cl83474  11.423   7.587   8.839 -0.0958  0.1130 -0.1361
  619MOL0     C83475  10.430   8.079   9.034  0.5097  0.7587 -0.7005
  619MOL0     C83476  10.311   8.153   9.034  0.8869  1.3479 -0.4213
  619MOL0     O83477  10.132   8.386   9.097 -0.8019 -0.4229  1.3771
  619MOL0     C83478   9.823   8.246   9.208 -0.1093  0.3203  0.3914
  619MOL0     C83479   9.693   8.273   9.232  0.6060 -0.1783  0.2202
  619MOL0     N83480   9.024   8.359   9.033  0.8639 -0.4963  0.1637
  619MOL0     N83481   8.925   8.326   8.960 -0.4580  0.3165 -0.4579
  619MOL0     C83482   7.500   8.466   9.118 -0.2458  0.1764 -0.4230
  619MOL0     C83483   7.366   8.438   9.154  0.1681 -0.2192 -0.4124
  619MOL0     C83484   6.967   8.201   9.206 -0.6569 -0.4360  0.2626
  619MOL0     C83485   6.847   8.268   9.184  0.7477  0.5876 -0.1465
  619MOL0     C83486   6.734   8.222   9.254  0.5581  0.0505 -0.1815
  619MOL0     C83487   6.741   8.115   9.346  1.3643 -0.4244 -0.0061
  619MOL0     O83488   6.624   8.068   9.395  0.7916 -0.0456  0.3631
  619MOL0     C83489   6.632   8.016   9.526 -0.5044 -0.9841 -0.1734
  619MOL0     C83490   6.492   7.962   9.564 -0.1256  0.0189 -0.2788
  619MOL0     C83491   6.457   7.832   9.487 -0.2765  0.3218 -0.5522
  619MOL0     C83492   6.514   7.708   9.559 -0.9348  0.5968 -0.6522
  619MOL0     C83493   6.480   7.584   9.499 -0.0393 -0.1523  0.6625
  619MOL0     C83494   6.443   7.483   9.437 -0.4911 -0.6153  0.4650
  619MOL0     C83495   6.867   8.053   9.368  0.3752  0.4449  0.3724
  619MOL0     C83496   6.980   8.089   9.294  0.8903  0.0945 -0.2357
  619MOL0     C83497   7.105   8.006   9.318 -0.7516 -0.2681 -0.1370
  619MOL0     H83498   7.355   8.107   9.079 -1.7295  0.5012 -2.3851
  619MOL0     H83499   7.586   8.148   9.013 -1.3844  0.6365 -0.0749
  619MOL0     H83500   7.836   8.308   9.179 -1.4023  1.0283  0.1604
  619MOL0     H83501   7.791   8.190   9.053  1.0773 -0.9998  0.6976
  619MOL0     H83502   7.924   8.432   8.948  4.2153  0.7415  0.4080
  619MOL0     H83503   7.926   8.266   8.896 -2.7082 -1.8796  0.7002
  619MOL0     H83504   8.088   8.209   9.061 -0.8663  0.4530  1.5779
  619MOL0     H83505   8.069   8.363   9.149  0.6571 -0.5968  0.8437
  619MOL0     H83506   8.190   8.327   8.879  3.2588 -2.8737  3.2581
  619MOL0     H83507   8.139   8.490   8.950  0.4475  0.6134 -0.8179
  619MOL0     H83508   8.284   8.464   9.129 -1.7982  1.7626 -2.2716
  619MOL0     H83509   8.309   8.294   9.097 -0.6375 -0.1916  0.3565
  619MOL0     H83510   8.409   8.408   8.860  0.5347  2.1958 -0.2257
  619MOL0     H83511   8.432   8.541   8.976  2.1675  0.0418 -0.4314
  619MOL0     H83512   8.561   8.275   8.989  2.7788  0.6658 -2.6776
  619MOL0     H83513   8.565   8.381   9.120 -0.6134 -1.7904  0.3240
  619MOL0     H83514   8.702   8.411   8.835 -2.3438 -0.8577 -0.3144
  619MOL0     H83515   8.663   8.543   8.940  0.6080  0.2542  0.0548
  619MOL0     H83516   8.810   8.561   9.170  2.2356  3.5054 -2.5026
  619MOL0     H83517   9.066   8.631   9.216  0.7342  0.0831 -1.3957
  619MOL0     H83518   9.047   8.492   9.320  0.4255  4.6807  1.5174
  619MOL0     H83519   9.246   8.379   9.208 -2.1009 -0.0808 -1.6908
  619MOL0     H83520   9.248   8.517   9.097 -0.2549 -2.2715 -0.5931
  619MOL0     H83521   9.316   8.514   9.401  1.5353 -0.1287 -1.1854
  619MOL0     H83522   9.288   8.656   9.320 -0.7272  0.1165  0.0334
  619MOL0     H83523   9.522   8.616   9.323 -1.4609  1.3216  0.0609
  619MOL0     H83524   9.463   8.593   9.153 -1.0057  0.9212 -0.2634
  619MOL0     H83525   9.704   8.611   9.170  1.8430  0.0799 -0.7466
  619MOL0     H83526   9.921   8.543   9.081 -0.5809  0.6513 -0.5055
  619MOL0     H83527  10.189   8.031   9.328 -1.0941  0.6718  0.4056
  619MOL0     H83528  10.411   7.938   9.347  0.6771 -2.2231 -1.0292
  619MOL0     H83529  10.717   7.827   9.050  1.3184  2.0581  2.2186
  619MOL0     H83530  10.604   7.919   8.939  1.0291  0.6290 -1.1513
  619MOL0     H83531  10.749   8.124   9.062 -0.8884 -0.1644  0.3594
  619MOL0     H83532  10.863   7.993   9.081 -1.1360  1.6288  2.1146
  619MOL0     H83533  10.741   8.090   8.806  0.3273  0.3560  0.6098
  619MOL0     H83534  10.891   8.125   8.883 -1.0332  0.3561  3.5925
  619MOL0     H83535  10.917   7.936   8.710 -1.5257 -0.2387  0.6060
  619MOL0     H83536  10.798   7.839   8.801 -0.0133  0.4846 -1.9716
  619MOL0     H83537  10.974   7.835   8.994 -1.3174 -0.2639 -0.3031
  619MOL0     H83538  11.082   7.928   8.899 -0.9158  0.8300  4.0470
  619MOL0     H83539  10.993   7.646   8.833  1.4013 -0.8231  0.9374
  619MOL0     H83540  11.072   7.758   8.707  0.9820  1.1773  0.1650
  619MOL0     H83541  11.157   7.586   8.932 -1.5607  1.0577  1.7811
  619MOL0     H83542  11.231   7.741   8.942  0.4792 -1.1773  0.0045
  619MOL0     H83543  11.257   7.563   8.690 -0.5140  0.3209 -0.9359
  619MOL0     H83544  11.301   7.736   8.708  0.8076  1.8496  3.9475
  619MOL0     H83545  10.499   8.105   8.955  0.9416  0.4428 -0.4346
  619MOL0     H83546  10.282   8.203   8.942  0.2763 -0.9907 -1.5632
  619MOL0     H83547   9.870   8.149   9.213  1.9784  1.2328 -0.5181
  619MOL0     H83548   9.636   8.187   9.265  0.0984 -0.4608 -1.2890
  619MOL0     H83549   7.548   8.560   9.141  0.0479  0.3250 -1.5796
  619MOL0     H83550   7.299   8.510   9.199 -3.0286 -0.7258 -3.8930
  619MOL0     H83551   6.833   8.345   9.110 -1.2369 -0.2111 -0.6696
  619MOL0     H83552   6.637   8.267   9.234 -0.0579 -0.2466  1.9481
  619MOL0     H83553   6.668   8.094   9.593 -2.8012 -0.7352  0.8538
  619MOL0     H83554   6.694   7.926   9.531 -2.0711 -2.1394 -0.6855
  619MOL0     H83555   6.429   8.047   9.535 -2.2084 -0.3298  2.7519
  619MOL0     H83556   6.486   7.950   9.672  4.4147 -0.7047  0.0739
  619MOL0     H83557   6.506   7.840   9.390  2.7631 -1.3934  0.6961
  619MOL0     H83558   6.350   7.812   9.472  0.3190 -3.1927 -0.8632
  619MOL0     H83559   6.624   7.703   9.562 -0.7198  3.3937 -1.3503
  619MOL0     H83560   6.476   7.696   9.661 -0.9813  0.1924 -0.7181
  619MOL0     H83561   6.415   7.385   9.406 -0.2967  0.3109 -3.0003
  619MOL0     H83562   6.876   7.969   9.436  0.5906  1.7966  2.1009
  619MOL0     H83563   7.096   7.897   9.310  0.4727 -0.5766  1.8288
  619MOL0     H83564   7.183   8.025   9.244 -0.1058 -2.6338 -0.1388
  619MOL0     H83565   7.143   8.024   9.420  1.3103 -0.8357 -0.7516
  620MOL0     O83566   3.465   0.885   4.050  0.1489  0.0376  0.0822
  620MOL0     C83567   3.399   0.834   4.135  0.3084  0.3283 -0.4250
  620MOL0     O83568   3.439   0.807   4.265 -0.3711  0.2597 -1.2480
  620MOL0     C83569   3.569   0.838   4.302 -0.2870  0.5632  0.0069
  620MOL0     C83570   3.662   0.734   4.310 -0.3145 -0.4341 -0.3866
  620MOL0     C83571   3.785   0.754   4.364 -0.1879 -0.0484 -0.1246
  620MOL0     C83572   3.815   0.884   4.421  0.8617 -0.7130 -0.9446
  620MOL0     O83573   3.934   0.908   4.478 -0.3665 -0.5358  0.4923
  620MOL0     C83574   4.033   0.806   4.480  0.2392 -0.2533 -0.2561
  620MOL0     C83575   4.155   0.872   4.537 -0.2565  0.2495  0.4932
  620MOL0     C83576   4.251   0.750   4.559 -0.1130 -0.2074  0.7788
  620MOL0     C83577   4.389   0.803   4.605  0.4562 -0.4001  0.0938
  620MOL0     C83578   4.506   0.712   4.564  0.4714  0.0451  0.2324
  620MOL0     C83579   4.638   0.769   4.612  0.8767 -0.8412  0.8163
  620MOL0     C83580   4.745   0.690   4.537 -0.1907  0.0159 -0.5037
  620MOL0     C83581   4.889   0.758   4.552 -0.5670  0.1088  0.3506
  620MOL0     N83582   5.000   0.662   4.557 -0.2397 -0.6032 -0.5611
  620MOL0     C83583   5.000   0.539   4.497 -0.8500  0.0770 -0.0798
  620MOL0     C83584   5.123   0.482   4.528 -0.2855  0.1438  0.3837
  620MOL0     C83585   5.176   0.344   4.492  0.1750 -1.3332 -0.6346
  620MOL0     C83586   5.217   0.248   4.602  0.4459 -0.0523 -0.1477
  620MOL0     C83587   5.293   0.298   4.718 -0.7794 -1.0402 -0.4571
  620MOL0     C83588   5.427   0.365   4.681 -0.0642 -0.8306  0.9739
  620MOL0     O83589   5.512   0.259   4.628  0.1906  0.4011 -0.0929
  620MOL0     C83590   5.646   0.267   4.641  0.3785  0.1097  0.0732
  620MOL0     C83591   5.721   0.148   4.615  0.2033 -0.6915 -0.8246
  620MOL0     C83592   5.868   0.145   4.620  0.0101  0.3289  0.0835
  620MOL0     C83593   5.935   0.263   4.640  0.1613  0.3816 -0.8291
  620MOL0     C83594   6.079   0.265   4.635 -0.5215 -1.1013  0.3732
  620MOL0     O83595   6.143   0.394   4.637  0.0583 -0.0954  0.6574
  620MOL0     C83596   6.277   0.393   4.663  0.8665  0.1979  0.3492
  620MOL0     C83597   6.379   0.320   4.596 -0.0881  0.4992  0.3788
  620MOL0     C83598   6.513   0.344   4.617 -0.1352 -0.0052 -0.0172
  620MOL0     C83599   6.547   0.435   4.717 -0.9950 -0.0417  0.1440
  620MOL0     O83600   6.680   0.450   4.745 -0.9513  0.5778 -0.0192
  620MOL0     C83601   6.782   0.445   4.636 -0.1156  0.6272 -0.2813
  620MOL0     C83602   6.919   0.494   4.671 -0.3644 -0.4710 -0.0726
  620MOL0     C83603   7.024   0.496   4.549 -0.2677 -0.5613 -0.3823
  620MOL0     C83604   7.139   0.595   4.569 -0.3311  0.3411 -0.6225
  620MOL0     C83605   7.109   0.728   4.505 -0.1822 -0.7458 -0.4952
  620MOL0     C83606   7.214   0.836   4.501  0.1773  0.1742  0.1780
  620MOL0     C83607   7.251   0.860   4.356  0.7224  0.4443  0.4103
  620MOL0     C83608   7.322   0.989   4.342 -0.2116  0.0829  0.5958
  620MOL0    Cl83609   7.475   0.972   4.445 -0.4749  0.1521  0.6172
  620MOL0     C83610   6.451   0.501   4.791 -0.2094  0.0338 -0.3066
  620MOL0     C83611   6.320   0.479   4.763 -0.3452 -0.4148  0.9830
  620MOL0     O83612   6.129   0.159   4.626  0.2453  0.7029 -0.2670
  620MOL0     C83613   5.856   0.380   4.680 -0.3742 -0.0806 -0.8395
  620MOL0     C83614   5.715   0.376   4.682 -0.0002 -0.2018 -0.5873
  620MOL0     N83615   5.196   0.568   4.610 -0.2545 -0.7766 -0.5031
  620MOL0     N83616   5.121   0.676   4.629  0.2598 -0.1316  0.3128
  620MOL0     C83617   3.714   0.985   4.410 -0.0899 -0.3028  0.7445
  620MOL0     C83618   3.597   0.964   4.349  0.2246 -0.3851  0.6884
  620MOL0     C83619   3.260   0.823   4.105 -0.1087 -0.7876  0.9821
  620MOL0     C83620   3.209   0.691   4.097  0.2526 -0.2243  0.3427
  620MOL0     C83621   3.080   0.659   4.054 -0.7551 -0.5779  0.2458
  620MOL0     C83622   2.990   0.762   4.036  0.5618 -0.2955 -0.6230
  620MOL0     O83623   2.872   0.723   3.980  0.5075  0.2850 -0.1920
  620MOL0     C83624   2.775   0.810   3.910 -0.0891  0.1807 -0.8920
  620MOL0     C83625   2.817   0.842   3.763 -0.0473 -0.9301 -0.1147
  620MOL0     C83626   2.709   0.904   3.668  0.6753 -0.2058  0.2441
  620MOL0     C83627   2.685   1.050   3.697  0.1887  0.6598  0.2435
  620MOL0     C83628   2.617   1.086   3.823  0.5607 -0.0740  0.3150
  620MOL0     C83629   2.570   1.116   3.930 -0.2765  0.3317  0.0760
  620MOL0     C83630   3.030   0.891   4.050 -1.0797 -0.5333 -1.1420
  620MOL0     C83631   3.164   0.931   4.076 -0.8821 -0.1320  0.1146
  620MOL0     C83632   3.205   1.078   4.080  0.1962  0.7471 -0.7756
  620MOL0     H83633   3.644   0.633   4.275  1.1769  0.0166 -2.7216
  620MOL0     H83634   3.854   0.671   4.371  2.4326  2.1172  1.7134
  620MOL0     H83635   3.987   0.725   4.538 -1.0851 -0.4120 -1.4579
  620MOL0     H83636   4.058   0.773   4.379  0.3718 -3.5451  0.7109
  620MOL0     H83637   4.125   0.921   4.630 -0.5458 -0.0268  0.5462
  620MOL0     H83638   4.203   0.937   4.463 -2.6224  0.6024 -0.8307
  620MOL0     H83639   4.261   0.692   4.467  1.0583  0.2014  0.6373
  620MOL0     H83640   4.203   0.686   4.634  0.2081 -1.6305 -0.1828
  620MOL0     H83641   4.406   0.907   4.578 -0.9566 -0.0276  0.5679
  620MOL0     H83642   4.381   0.794   4.713 -1.3699 -2.5797 -0.1418
  620MOL0     H83643   4.497   0.608   4.598  0.2000  0.4100  1.3197
  620MOL0     H83644   4.513   0.709   4.455  1.7371  0.0112  0.2977
  620MOL0     H83645   4.648   0.874   4.583 -1.6088 -1.2407 -2.0134
  620MOL0     H83646   4.637   0.759   4.721  1.0100 -2.2444  0.7105
  620MOL0     H83647   4.719   0.686   4.431 -2.4358 -2.6174  0.0030
  620MOL0     H83648   4.741   0.588   4.577 -4.1943  0.3485  0.4560
  620MOL0     H83649   4.910   0.828   4.471 -0.4856  1.4047  1.4500
  620MOL0     H83650   4.893   0.824   4.640  1.2310 -0.7338  0.9483
  620MOL0     H83651   4.917   0.493   4.445 -0.7419 -0.8348  0.5320
  620MOL0     H83652   5.104   0.290   4.429  0.9695 -4.4325  0.9407
  620MOL0     H83653   5.265   0.352   4.428 -0.0096 -0.5463 -0.8118
  620MOL0     H83654   5.127   0.205   4.646  2.4436 -3.5180  1.0157
  620MOL0     H83655   5.268   0.162   4.558  0.0222  0.5878 -1.9952
  620MOL0     H83656   5.307   0.216   4.788 -0.7400 -1.7794 -1.3179
  620MOL0     H83657   5.241   0.384   4.764 -1.9098 -0.6474 -2.3659
  620MOL0     H83658   5.473   0.407   4.771 -1.1632 -2.0385  2.1235
  620MOL0     H83659   5.410   0.447   4.611 -2.9904 -1.3325  0.9846
  620MOL0     H83660   5.670   0.056   4.591  0.2195 -0.5687 -1.3354
  620MOL0     H83661   5.919   0.051   4.609 -1.4730 -0.8169  2.2047
  620MOL0     H83662   6.356   0.238   4.530  0.7673 -1.1318  2.0131
  620MOL0     H83663   6.591   0.294   4.561  0.3403  1.7622 -1.0125
  620MOL0     H83664   6.790   0.341   4.604  0.5562  0.8052 -0.6970
  620MOL0     H83665   6.747   0.508   4.554  1.8662  1.4263 -0.5743
  620MOL0     H83666   6.912   0.599   4.699  2.7132  0.3242 -1.7718
  620MOL0     H83667   6.960   0.437   4.755  2.0658  1.2200 -0.0084
  620MOL0     H83668   7.077   0.400   4.544  1.0475  0.0822  0.4997
  620MOL0     H83669   6.974   0.518   4.454 -1.7935  0.8602  0.6806
  620MOL0     H83670   7.233   0.558   4.527 -1.0466 -0.6324 -1.4382
  620MOL0     H83671   7.154   0.606   4.677  3.0404  1.0294 -1.0470
  620MOL0     H83672   7.028   0.776   4.561 -1.6263 -1.6471 -1.6902
  620MOL0     H83673   7.061   0.703   4.409  0.1845 -2.1552 -0.3392
  620MOL0     H83674   7.177   0.929   4.545  0.9082  0.1532  0.8647
  620MOL0     H83675   7.302   0.799   4.554  0.8072 -1.4818 -1.9156
  620MOL0     H83676   7.164   0.870   4.289  0.9920 -1.0931 -0.2012
  620MOL0     H83677   7.316   0.780   4.321 -1.3701 -1.0965 -0.1294
  620MOL0     H83678   7.348   1.006   4.237  2.1793  0.4302  1.1945
  620MOL0     H83679   7.262   1.075   4.373  1.9374  2.0268 -0.3729
  620MOL0     H83680   6.464   0.566   4.876 -1.6638 -1.7794  1.4033
  620MOL0     H83681   6.250   0.535   4.825 -1.0013 -2.6063  2.3708
  620MOL0     H83682   5.896   0.478   4.704  0.7685  0.4571 -4.4619
  620MOL0     H83683   5.656   0.460   4.718  1.2683  1.5111 -2.2918
  620MOL0     H83684   3.737   1.085   4.445  1.5988 -0.4184  0.0405
  620MOL0     H83685   3.503   1.016   4.337 -0.7557 -2.5470 -1.8168
  620MOL0     H83686   3.274   0.606   4.115 -0.3360 -1.0016 -1.0029
  620MOL0     H83687   3.052   0.554   4.049  1.3593 -1.2780  1.8705
  620MOL0     H83688   2.772   0.907   3.961 -0.7811 -1.2888  2.0910
  620MOL0     H83689   2.672   0.776   3.907 -0.2651  0.7370 -1.6193
  620MOL0     H83690   2.854   0.747   3.723  1.7681  0.0710 -0.9260
  620MOL0     H83691   2.906   0.904   3.772 -1.0081  0.3741  0.9169
  620MOL0     H83692   2.617   0.845   3.661  0.9853 -0.8074  1.0535
  620MOL0     H83693   2.744   0.903   3.564  2.4774  0.6087  0.8000
  620MOL0     H83694   2.782   1.100   3.690  0.2390  0.4623 -0.5838
  620MOL0     H83695   2.618   1.083   3.618 -0.3681 -1.7111 -0.3499
  620MOL0     H83696   2.544   1.143   4.030  0.2196 -0.1440  0.3331
  620MOL0     H83697   2.963   0.976   4.044  0.3767  0.6472 -1.3115
  620MOL0     H83698   3.293   1.100   4.018  0.5641  3.2867  0.4988
  620MOL0     H83699   3.127   1.142   4.037 -1.3225 -0.2619  0.4147
  620MOL0     H83700   3.228   1.109   4.182 -1.7009 -0.7268  0.1615
  621MOL0     O83701   4.615   9.478   0.407 -0.2923 -0.4914  0.3851
  621MOL0     C83702   4.595   9.493   0.524  0.2056 -1.2388 -0.3857
  621MOL0     O83703   4.630   9.595   0.601  0.3134  0.9808 -0.7602
  621MOL0     C83704   4.673   9.711   0.538 -0.6627  0.2815  0.5228
  621MOL0     C83705   4.799   9.761   0.570 -1.5720 -0.1203  0.1746
  621MOL0     C83706   4.861   9.862   0.501 -0.0630  0.0629 -1.0403
  621MOL0     C83707   4.795   9.902   0.381 -0.0005 -0.2254 -0.1108
  621MOL0     O83708   4.855   9.993   0.300  0.2348  0.6634 -0.6308
  621MOL0     C83709   5.001   9.986   0.288  0.7354 -0.2431 -0.2279
  621MOL0     C83710   5.043   9.963   0.146  0.5475 -0.3833 -0.0212
  621MOL0     C83711   5.195   9.988   0.129  0.8600  0.3193  0.2565
  621MOL0     C83712   5.209  10.145   0.126 -0.3952  0.3613 -0.9932
  621MOL0     C83713   5.337  10.206   0.063 -0.0285 -0.2998  0.2978
  621MOL0     C83714   5.342  10.358   0.057 -0.4077 -1.2576 -0.1337
  621MOL0     C83715   5.472  10.411  -0.001 -0.2113  0.5721 -0.7462
  621MOL0     C83716   5.507  10.559   0.034 -0.1791 -0.2052  0.5752
  621MOL0     N83717   5.417  10.644  -0.052 -0.4047 -0.0192 -0.3909
  621MOL0     C83718   5.438  10.666  -0.185 -0.4246  0.2440 -0.5462
  621MOL0     C83719   5.323  10.723  -0.232 -0.2124  0.5754  0.9099
  621MOL0     C83720   5.293  10.753  -0.374  0.0244  0.3551 -0.3918
  621MOL0     C83721   5.197  10.879  -0.388  0.1581  0.4522  0.0045
  621MOL0     C83722   5.147  10.891  -0.532  1.1605  0.3210  0.3962
  621MOL0     C83723   5.204  11.002  -0.617  0.1176 -0.1998  0.6019
  621MOL0     O83724   5.190  10.973  -0.757  1.2040  0.0019  0.5039
  621MOL0     C83725   5.249  11.060  -0.843 -0.8849 -0.4221  1.0292
  621MOL0     C83726   5.163  11.132  -0.925 -0.8338  0.3908 -0.0107
  621MOL0     C83727   5.209  11.216  -1.024  0.0377  0.0215 -0.1228
  621MOL0     C83728   5.348  11.250  -1.013  0.0925  0.8168  0.2501
  621MOL0     C83729   5.407  11.350  -1.104  0.1582  0.8984  0.6807
  621MOL0     O83730   5.356  11.353  -1.231 -1.0436 -0.6158 -0.4442
  621MOL0     C83731   5.425  11.433  -1.322 -0.2845  0.2456 -0.2123
  621MOL0     C83732   5.452  11.377  -1.449  0.0466 -0.3135 -0.8667
  621MOL0     C83733   5.522  11.446  -1.542 -0.1723 -1.0272  0.1342
  621MOL0     C83734   5.568  11.577  -1.511 -0.1931 -0.5357  0.1497
  621MOL0     O83735   5.652  11.648  -1.601  0.1625  0.2114  0.2948
  621MOL0     C83736   5.767  11.706  -1.540 -0.3528  0.2600 -1.0680
  621MOL0     C83737   5.859  11.766  -1.649 -0.4576  0.1258 -0.0872
  621MOL0     C83738   5.784  11.858  -1.752 -0.6209 -0.0848 -0.7914
  621MOL0     C83739   5.678  11.951  -1.695 -0.7158  0.2013  0.2228
  621MOL0     C83740   5.638  12.060  -1.801  1.2970  0.3029  0.6702
  621MOL0     C83741   5.738  12.171  -1.845  0.3940 -0.4692 -0.1698
  621MOL0     C83742   5.722  12.216  -1.994  0.9814  0.4491  0.2262
  621MOL0     C83743   5.580  12.261  -2.025  0.2816 -0.2725  0.1175
  621MOL0    Cl83744   5.526  12.400  -1.917 -0.2844 -0.0981 -0.0208
  621MOL0     C83745   5.532  11.641  -1.389  0.0010 -0.0718  0.3124
  621MOL0     C83746   5.468  11.560  -1.294  0.2371 -0.5997  0.3214
  621MOL0     O83747   5.506  11.410  -1.063  0.2332 -0.7195  0.2291
  621MOL0     C83748   5.430  11.188  -0.921 -0.1076 -1.0243  0.7789
  621MOL0     C83749   5.382  11.097  -0.837 -0.5283  0.1404 -0.3306
  621MOL0     N83750   5.236  10.737  -0.129 -0.3543 -0.7217 -0.5477
  621MOL0     N83751   5.296  10.695  -0.022 -0.1895 -0.0635 -0.2808
  621MOL0     C83752   4.667   9.864   0.353  0.2125 -0.7389 -0.3988
  621MOL0     C83753   4.601   9.769   0.434 -1.6035 -0.0756  0.0512
  621MOL0     C83754   4.505   9.393   0.594 -0.4098  0.0478 -0.6298
  621MOL0     C83755   4.409   9.324   0.516  0.5590  0.6606 -0.1581
  621MOL0     C83756   4.318   9.238   0.566 -1.1267  0.3200  0.5653
  621MOL0     C83757   4.310   9.218   0.701  0.7546  0.3318  0.1577
  621MOL0     O83758   4.207   9.143   0.759 -0.0857 -0.2065 -0.3215
  621MOL0     C83759   4.125   9.056   0.682  0.2180  0.0213  0.1298
  621MOL0     C83760   4.073   8.947   0.768 -0.1864  0.0906 -0.1270
  621MOL0     C83761   3.977   8.852   0.686  0.0120  0.1290  0.5033
  621MOL0     C83762   3.835   8.904   0.673 -0.4202 -0.8781  0.0259
  621MOL0     C83763   3.754   8.815   0.586 -0.2089  0.7484 -1.0553
  621MOL0     C83764   3.683   8.722   0.538  0.7245 -0.1975 -0.3708
  621MOL0     C83765   4.401   9.286   0.783  0.1447  0.4482 -0.3964
  621MOL0     C83766   4.504   9.368   0.732  0.6915  0.5558  0.2022
  621MOL0     C83767   4.589   9.438   0.831 -0.8293  0.2646  0.0773
  621MOL0     H83768   4.853   9.714   0.651 -0.3142 -2.8031 -2.0628
  621MOL0     H83769   4.946   9.912   0.545 -1.5683  2.3316 -0.5371
  621MOL0     H83770   5.046  10.076   0.329 -0.6888  0.2914  0.2454
  621MOL0     H83771   5.047   9.900   0.337  2.5859  0.1521 -1.2020
  621MOL0     H83772   4.986  10.018   0.070 -3.1277 -2.3674  1.0261
  621MOL0     H83773   5.026   9.860   0.112 -0.5595 -0.2305  0.0238
  621MOL0     H83774   5.230   9.953   0.031  1.2152  4.0134 -1.0932
  621MOL0     H83775   5.242   9.939   0.215 -1.4094  1.1735  2.0855
  621MOL0     H83776   5.126  10.187   0.069  0.3289 -1.1903 -3.3018
  621MOL0     H83777   5.201  10.184   0.228  1.5250 -0.2684 -0.5582
  621MOL0     H83778   5.426  10.165   0.112  0.5850  2.2541  1.4368
  621MOL0     H83779   5.341  10.175  -0.042 -0.8832 -0.9497  0.4472
  621MOL0     H83780   5.257  10.407   0.009  1.0499 -0.3002 -1.8462
  621MOL0     H83781   5.341  10.381   0.164 -0.9700  0.5470 -0.4850
  621MOL0     H83782   5.480  10.397  -0.110 -2.1651  2.2628 -1.1806
  621MOL0     H83783   5.546  10.353   0.053 -1.6626 -2.5846 -1.8733
  621MOL0     H83784   5.488  10.585   0.139 -1.9494 -0.9242  0.4555
  621MOL0     H83785   5.609  10.585   0.003 -1.5338 -1.1107 -6.1294
  621MOL0     H83786   5.517  10.644  -0.255 -0.8632 -0.4020 -0.8379
  621MOL0     H83787   5.387  10.762  -0.429 -0.3576  4.7150 -0.6498
  621MOL0     H83788   5.239  10.669  -0.420  0.1834  0.1125 -0.1425
  621MOL0     H83789   5.113  10.869  -0.319  0.2664 -0.6983 -0.0131
  621MOL0     H83790   5.244  10.975  -0.364  0.6413  0.0333  0.7942
  621MOL0     H83791   5.039  10.892  -0.547  1.4428  0.0359 -2.0614
  621MOL0     H83792   5.174  10.799  -0.585 -3.8836 -0.7429 -0.8528
  621MOL0     H83793   5.310  11.017  -0.593  1.1622  1.1792 -3.8645
  621MOL0     H83794   5.156  11.095  -0.589 -0.7867 -0.9533  1.6340
  621MOL0     H83795   5.057  11.111  -0.912 -0.9042  0.9049  0.2742
  621MOL0     H83796   5.136  11.254  -1.095  0.9190 -1.1385 -1.7233
  621MOL0     H83797   5.424  11.276  -1.475  0.7217 -0.3774 -1.3744
  621MOL0     H83798   5.547  11.394  -1.633 -0.4194 -0.0579 -0.5075
  621MOL0     H83799   5.733  11.788  -1.476  3.7366  0.5040  1.1441
  621MOL0     H83800   5.822  11.637  -1.475 -1.2384  0.0244 -0.5526
  621MOL0     H83801   5.943  11.822  -1.607  0.8017 -1.4678 -0.3434
  621MOL0     H83802   5.905  11.678  -1.696 -2.1311 -0.3422 -0.9337
  621MOL0     H83803   5.866  11.920  -1.787 -0.6414  2.0654  2.5094
  621MOL0     H83804   5.735  11.792  -1.825 -1.6643 -0.0661 -0.1367
  621MOL0     H83805   5.727  12.002  -1.611 -0.3300  1.5252 -0.7720
  621MOL0     H83806   5.592  11.895  -1.657  0.0649 -0.8526  0.4885
  621MOL0     H83807   5.550  12.116  -1.769  2.2196  0.2180  3.6765
  621MOL0     H83808   5.604  12.016  -1.895 -1.9996  4.1395 -0.2266
  621MOL0     H83809   5.723  12.259  -1.781  1.3826  0.0686 -0.6483
  621MOL0     H83810   5.841  12.143  -1.824 -0.7527 -2.3603  3.8540
  621MOL0     H83811   5.736  12.133  -2.065 -1.8332  0.9089 -1.0202
  621MOL0     H83812   5.784  12.302  -2.024 -0.6842  1.9382  0.8813
  621MOL0     H83813   5.572  12.298  -2.127  1.8230  3.2611  1.1254
  621MOL0     H83814   5.506  12.182  -2.007 -0.2931  0.2534  0.0837
  621MOL0     H83815   5.561  11.744  -1.367  1.3766 -0.0202 -1.4782
  621MOL0     H83816   5.445  11.609  -1.200  1.8670 -1.9043  1.4539
  621MOL0     H83817   5.534  11.213  -0.906 -0.0523 -1.1196  0.5515
  621MOL0     H83818   5.444  11.060  -0.756  0.1481 -0.0696 -0.9318
  621MOL0     H83819   4.622   9.903   0.262  1.7952 -0.2010 -0.9754
  621MOL0     H83820   4.500   9.755   0.397 -0.2971 -1.9805 -3.1552
  621MOL0     H83821   4.372   9.358   0.420 -1.5596  0.3135  0.4845
  621MOL0     H83822   4.251   9.185   0.498 -0.1421  0.7812 -0.8053
  621MOL0     H83823   4.190   9.005   0.609  1.6052  3.5254 -1.3197
  621MOL0     H83824   4.040   9.102   0.631 -0.6871  0.1477  1.7196
  621MOL0     H83825   4.038   8.985   0.864 -2.0954 -1.7191 -0.0049
  621MOL0     H83826   4.151   8.874   0.789 -0.8562 -0.4492  0.5814
  621MOL0     H83827   3.953   8.756   0.734 -1.6693 -0.1752 -0.8523
  621MOL0     H83828   4.028   8.826   0.593 -0.5325  0.8428  0.0011
  621MOL0     H83829   3.806   8.910   0.778 -0.2883 -1.6173  0.1127
  621MOL0     H83830   3.829   9.002   0.624  0.5389 -1.6549 -1.7529
  621MOL0     H83831   3.626   8.641   0.497  0.2158 -0.6303  1.1278
  621MOL0     H83832   4.373   9.298   0.888 -0.9353  0.7742 -0.6998
  621MOL0     H83833   4.691   9.414   0.799 -1.0047 -2.4029  1.2729
  621MOL0     H83834   4.574   9.546   0.837 -0.8747  0.2375  0.5486
  621MOL0     H83835   4.569   9.395   0.930  0.9762 -0.3490  0.2274
  622MOL0     O83836   4.189   9.858   7.755 -1.0339 -0.1494  1.0109
  622MOL0     C83837   4.101   9.775   7.783  0.1638 -0.2767 -0.9969
  622MOL0     O83838   4.097   9.648   7.732 -0.1049  0.3629  0.3846
  622MOL0     C83839   4.219   9.593   7.702 -0.0765  0.1080  1.0866
  622MOL0     C83840   4.232   9.548   7.573 -0.4886  0.0853 -0.1533
  622MOL0     C83841   4.350   9.488   7.521 -0.1036 -0.1922 -0.4312
  622MOL0     C83842   4.458   9.475   7.611 -0.1335  0.1532  0.5944
  622MOL0     O83843   4.566   9.401   7.586 -0.4478 -0.5160 -0.1974
  622MOL0     C83844   4.598   9.370   7.446  0.2642  0.1920  0.4264
  622MOL0     C83845   4.705   9.271   7.449 -0.4738  0.2410 -0.5877
  622MOL0     C83846   4.832   9.328   7.517  0.0548 -0.6813  1.2263
  622MOL0     C83847   4.945   9.223   7.523  0.7986 -0.7667  0.1758
  622MOL0     C83848   5.028   9.220   7.648 -0.0630 -0.3363 -0.4613
  622MOL0     C83849   5.128   9.096   7.653  0.0906  0.5846  0.9861
  622MOL0     C83850   5.064   8.951   7.631  0.4182 -0.2272 -0.1470
  622MOL0     C83851   4.949   8.914   7.729  0.8582  0.6008 -0.5804
  622MOL0     N83852   4.985   8.869   7.862 -0.1354  0.1383 -0.4816
  622MOL0     C83853   5.100   8.807   7.903 -0.4881  0.3115  0.3031
  622MOL0     C83854   5.095   8.814   8.038  0.2306 -0.2500 -0.2407
  622MOL0     C83855   5.223   8.809   8.121  0.1791 -0.2435 -0.4062
  622MOL0     C83856   5.282   8.942   8.165  0.4398 -0.8080  0.2159
  622MOL0     C83857   5.270   9.061   8.073  0.5116 -0.4877 -0.4378
  622MOL0     C83858   5.376   9.057   7.956  1.2492  1.3550 -0.2542
  622MOL0     O83859   5.510   9.042   8.018 -0.7563  0.0864 -0.5275
  622MOL0     C83860   5.621   9.024   7.941 -0.9911  0.5233  0.7293
  622MOL0     C83861   5.621   9.054   7.803 -0.5789  0.7736 -0.2301
  622MOL0     C83862   5.742   9.038   7.731  0.0847 -0.3622  0.1382
  622MOL0     C83863   5.860   8.990   7.794  0.0274  0.0829 -0.2559
  622MOL0     C83864   5.986   8.985   7.724 -0.9292  1.1356  1.0907
  622MOL0     O83865   5.996   9.006   7.589  0.1719  0.0946  0.8327
  622MOL0     C83866   6.121   8.993   7.532  0.5242 -0.3054 -0.0020
  622MOL0     C83867   6.212   8.887   7.555  0.6698 -0.4426 -0.3104
  622MOL0     C83868   6.337   8.882   7.487 -0.3559 -0.5084  0.7468
  622MOL0     C83869   6.383   8.990   7.405 -0.4467  0.4536  0.5582
  622MOL0     O83870   6.500   8.978   7.325  0.5367 -0.1552 -0.1956
  622MOL0     C83871   6.552   9.097   7.268  0.9915 -0.4892 -0.2541
  622MOL0     C83872   6.687   9.070   7.196 -0.4693 -0.2437  0.0546
  622MOL0     C83873   6.751   9.197   7.151 -0.2126 -0.2045  0.2498
  622MOL0     C83874   6.884   9.172   7.077  0.0284  0.4600 -0.3454
  622MOL0     C83875   6.949   9.308   7.051 -1.0536  0.7001  0.0217
  622MOL0     C83876   7.090   9.290   6.982  0.4173  0.0521  0.0921
  622MOL0     C83877   7.138   9.433   6.938 -0.1751 -0.3149 -0.7459
  622MOL0     C83878   7.287   9.452   6.965  1.0768  0.4532  0.1133
  622MOL0    Cl83879   7.378   9.319   6.886 -0.3722 -0.0964  0.2714
  622MOL0     C83880   6.291   9.090   7.379  0.2084 -0.0094 -0.6922
  622MOL0     C83881   6.160   9.091   7.437  0.3081  0.5872  0.0382
  622MOL0     O83882   6.082   8.976   7.795 -0.1439 -0.0861  0.5435
  622MOL0     C83883   5.853   8.961   7.939 -0.0250  1.2913  0.3896
  622MOL0     C83884   5.740   8.986   8.005  0.5410 -0.3276  0.2480
  622MOL0     N83885   4.969   8.859   8.066 -0.6689  0.4233  0.9317
  622MOL0     N83886   4.911   8.897   7.963 -0.0016 -0.5691 -0.3690
  622MOL0     C83887   4.456   9.526   7.737  0.3528 -0.3871 -0.6169
  622MOL0     C83888   4.341   9.586   7.778  0.0354 -0.4057  0.4828
  622MOL0     C83889   3.975   9.834   7.837  0.4260  0.0149  0.2324
  622MOL0     C83890   3.901   9.942   7.777 -0.0368 -0.0124 -0.2668
  622MOL0     C83891   3.776   9.979   7.828 -0.0465  1.2170  0.2048
  622MOL0     C83892   3.725   9.929   7.947 -0.5257 -0.4756 -0.0933
  622MOL0     O83893   3.616   9.986   7.988  0.0657  0.0584  0.3373
  622MOL0     C83894   3.530   9.908   8.069  0.3034 -0.7136 -0.2676
  622MOL0     C83895   3.400   9.969   8.086  0.2920 -0.3938  0.1906
  622MOL0     C83896   3.410  10.121   8.143 -0.4984  0.4872 -0.0504
  622MOL0     C83897   3.274  10.187   8.129  0.5602 -0.6007  0.3535
  622MOL0     C83898   3.240  10.222   7.987 -0.4653  0.0077 -0.5165
  622MOL0     C83899   3.221  10.260   7.871 -0.4407 -0.3298 -1.0244
  622MOL0     C83900   3.798   9.832   8.008  0.0000  0.6813  0.6091
  622MOL0     C83901   3.923   9.786   7.952  0.2985 -0.0917  0.3094
  622MOL0     C83902   4.000   9.689   8.034 -0.0561  0.1250 -0.1389
  622MOL0     H83903   4.148   9.553   7.504  0.3728  0.7373 -1.1822
  622MOL0     H83904   4.337   9.442   7.423 -3.9934 -0.8250  0.1926
  622MOL0     H83905   4.511   9.325   7.397  0.7248 -0.0973 -0.1429
  622MOL0     H83906   4.623   9.458   7.385  1.7267  1.7679  3.1138
  622MOL0     H83907   4.725   9.245   7.345 -1.4040  0.9579 -0.9643
  622MOL0     H83908   4.666   9.190   7.511 -0.4915  1.7021  1.4193
  622MOL0     H83909   4.811   9.359   7.620 -2.8134 -0.6845  0.7207
  622MOL0     H83910   4.877   9.404   7.453  0.4822 -0.5261  1.7068
  622MOL0     H83911   4.908   9.120   7.516  1.9563 -1.2116  0.2928
  622MOL0     H83912   5.000   9.229   7.429  0.4826  0.1647  0.0470
  622MOL0     H83913   5.084   9.313   7.661 -2.6668  1.2479  0.2520
  622MOL0     H83914   4.949   9.211   7.723  2.4109 -0.3808  2.3294
  622MOL0     H83915   5.209   9.113   7.581  0.3109 -3.8621 -0.1169
  622MOL0     H83916   5.182   9.091   7.748  1.4746 -0.1010  0.2061
  622MOL0     H83917   5.155   8.892   7.642 -0.3955 -1.2601  1.3462
  622MOL0     H83918   5.035   8.944   7.525 -0.8534 -1.6838  0.2593
  622MOL0     H83919   4.883   8.998   7.751  1.8034  1.4151 -0.7706
  622MOL0     H83920   4.888   8.829   7.697 -1.1293  0.2256  3.5683
  622MOL0     H83921   5.186   8.776   7.844 -0.8485  0.5668 -0.3707
  622MOL0     H83922   5.208   8.742   8.206  0.4758  0.4183  0.1707
  622MOL0     H83923   5.299   8.768   8.053 -0.8575 -1.3771 -0.9300
  622MOL0     H83924   5.231   8.974   8.257  1.1267  0.9642  0.0252
  622MOL0     H83925   5.387   8.932   8.196  0.3947 -0.8415  0.3605
  622MOL0     H83926   5.291   9.153   8.129  2.0085 -1.2741  0.3618
  622MOL0     H83927   5.173   9.075   8.024  1.0577  0.3384 -1.3238
  622MOL0     H83928   5.371   9.150   7.899 -3.8069  1.3228 -0.3352
  622MOL0     H83929   5.361   8.970   7.891  2.8186 -0.4931  1.7072
  622MOL0     H83930   5.541   9.097   7.745 -2.6713 -0.4587  1.5724
  622MOL0     H83931   5.756   9.051   7.624  2.7848  0.3386  0.4983
  622MOL0     H83932   6.187   8.807   7.625 -1.9353  2.2114  2.0643
  622MOL0     H83933   6.410   8.802   7.497 -1.1231 -1.1300  1.4801
  622MOL0     H83934   6.483   9.137   7.194  1.9781 -0.7123 -1.3431
  622MOL0     H83935   6.573   9.166   7.350 -0.6813  0.0405 -0.2526
  622MOL0     H83936   6.755   9.022   7.268  0.6989  2.1338  0.6568
  622MOL0     H83937   6.677   9.005   7.109  5.4610 -1.9733  0.2248
  622MOL0     H83938   6.677   9.248   7.088 -0.2484  0.4432  0.8076
  622MOL0     H83939   6.774   9.252   7.242 -1.3504 -0.2766  0.5973
  622MOL0     H83940   6.869   9.120   6.982 -0.4768 -0.0186 -0.0123
  622MOL0     H83941   6.940   9.108   7.146 -1.1351  0.5466  0.7299
  622MOL0     H83942   6.961   9.367   7.142 -1.2870 -0.3163  0.7369
  622MOL0     H83943   6.886   9.364   6.982 -1.4529 -0.7251 -0.8217
  622MOL0     H83944   7.154   9.238   7.053 -1.9905 -0.6336  1.8566
  622MOL0     H83945   7.089   9.216   6.902  1.1550 -2.4522  2.2877
  622MOL0     H83946   7.077   9.503   6.997  2.0398  2.4721 -1.5280
  622MOL0     H83947   7.123   9.463   6.834  1.6392 -2.1129 -1.5903
  622MOL0     H83948   7.321   9.546   6.921  0.0173  0.1660 -1.4140
  622MOL0     H83949   7.297   9.453   7.073  1.7519 -1.9452  0.1231
  622MOL0     H83950   6.309   9.176   7.316  0.4279 -0.4335 -1.2222
  622MOL0     H83951   6.090   9.171   7.415  0.1441 -0.0228 -1.8390
  622MOL0     H83952   5.940   8.932   7.999 -1.0223 -0.1040  1.2131
  622MOL0     H83953   5.750   8.984   8.113  0.2656 -1.6957  0.2751
  622MOL0     H83954   4.531   9.517   7.815 -2.7612 -4.9330  2.3619
  622MOL0     H83955   4.335   9.622   7.880 -1.9785 -3.0636  1.4131
  622MOL0     H83956   3.935   9.981   7.682 -2.8329  1.2591 -0.8507
  622MOL0     H83957   3.717  10.048   7.768  0.9857 -0.0791 -2.4407
  622MOL0     H83958   3.574   9.872   8.163  2.5190 -0.0623 -0.9835
  622MOL0     H83959   3.496   9.815   8.021 -3.3375 -0.5118  1.5862
  622MOL0     H83960   3.351   9.903   8.158  1.6848 -1.6723  0.0084
  622MOL0     H83961   3.339   9.964   7.995 -2.9161  1.3733  2.0690
  622MOL0     H83962   3.481  10.182   8.087 -0.0533  0.2251  0.2199
  622MOL0     H83963   3.444  10.121   8.247  0.7743  1.5427 -0.4385
  622MOL0     H83964   3.195  10.119   8.163 -0.9684  1.2540  0.6965
  622MOL0     H83965   3.276  10.278   8.190  2.1345 -0.1506 -0.3270
  622MOL0     H83966   3.203  10.300   7.773 -0.4251 -0.0509 -0.9144
  622MOL0     H83967   3.759   9.773   8.091  3.1257 -4.3409 -0.9862
  622MOL0     H83968   4.065   9.753   8.094 -0.5929  0.3056  0.2450
  622MOL0     H83969   3.935   9.638   8.105 -0.5994  0.1611 -0.6061
  622MOL0     H83970   4.060   9.611   7.986 -0.5513 -2.7064  3.4303
  623MOL0     O83971   7.179   2.513   8.642 -0.3020  0.0548  0.1582
  623MOL0     C83972   7.120   2.480   8.535  0.0162 -1.0242 -0.7158
  623MOL0     O83973   7.175   2.463   8.418 -0.2586 -0.1397 -0.0559
  623MOL0     C83974   7.306   2.441   8.390 -0.1765 -0.0569  0.0730
  623MOL0     C83975   7.344   2.465   8.261  0.0533 -0.3582 -0.3144
  623MOL0     C83976   7.481   2.444   8.227 -1.1742  0.5407 -0.1635
  623MOL0     C83977   7.575   2.386   8.310  0.3135 -0.5158 -0.5151
  623MOL0     O83978   7.701   2.377   8.256  0.1639  0.5775 -0.1926
  623MOL0     C83979   7.813   2.410   8.339 -0.9330 -0.1409 -0.0089
  623MOL0     C83980   7.945   2.403   8.272  0.1163 -0.5454  0.1579
  623MOL0     C83981   8.060   2.436   8.365 -0.0014 -0.1436  0.4578
  623MOL0     C83982   8.186   2.457   8.280  0.7550  0.1645 -0.9295
  623MOL0     C83983   8.308   2.471   8.378 -0.0574 -0.2060 -0.8861
  623MOL0     C83984   8.436   2.472   8.298 -0.2739  0.6093  0.2949
  623MOL0     C83985   8.558   2.474   8.397  0.4342 -0.2673 -0.5589
  623MOL0     C83986   8.684   2.410   8.330 -0.9235  0.6667 -0.0224
  623MOL0     N83987   8.812   2.484   8.354 -0.4489  0.3435  0.3930
  623MOL0     C83988   8.888   2.538   8.250  0.4631 -0.5760  0.5358
  623MOL0     C83989   8.969   2.633   8.299  0.7546  0.4424  0.6104
  623MOL0     C83990   9.044   2.730   8.204  0.0884  1.0911  0.5933
  623MOL0     C83991   9.205   2.731   8.227  0.0129  0.1532 -0.0871
  623MOL0     C83992   9.268   2.607   8.173 -0.3852  0.3486  0.4968
  623MOL0     C83993   9.413   2.584   8.209 -0.8348 -0.0310  0.0161
  623MOL0     O83994   9.489   2.685   8.150 -0.3067 -0.0444 -0.5314
  623MOL0     C83995   9.615   2.695   8.189  0.2936  0.4557  0.2720
  623MOL0     C83996   9.659   2.809   8.257 -0.1199 -0.7161 -0.2369
  623MOL0     C83997   9.793   2.836   8.293 -0.7103 -0.5377  0.6718
  623MOL0     C83998   9.898   2.747   8.250  1.0164  0.5655  0.8606
  623MOL0     C83999  10.046   2.770   8.280  0.2126 -0.6860 -0.1838
  623MOL0     O84000  10.134   2.714   8.192 -0.0598  0.3669 -1.4148
  623MOL0     C84001  10.268   2.739   8.212 -0.3235  0.4728  0.1589
  623MOL0     C84002  10.353   2.623   8.211 -0.3851 -0.7756  0.8077
  623MOL0     C84003  10.494   2.642   8.238 -0.7194 -1.0952 -0.5561
  623MOL0     C84004  10.549   2.768   8.253 -0.3304  0.2481  0.5245
  623MOL0     O84005  10.675   2.808   8.271 -0.0259  0.4783  0.0859
  623MOL0     C84006  10.771   2.717   8.329  0.1182  0.3580  0.5687
  623MOL0     C84007  10.782   2.764   8.477 -0.6026 -0.1549 -0.6310
  623MOL0     C84008  10.912   2.715   8.551 -0.0521  0.0542  0.3208
  623MOL0     C84009  11.025   2.820   8.558 -0.3825  0.3270 -0.7232
  623MOL0     C84010  11.152   2.773   8.622  0.4418 -0.0413  0.2451
  623MOL0     C84011  11.251   2.879   8.650  0.3820  1.4735  0.1994
  623MOL0     C84012  11.368   2.822   8.725 -0.3739 -0.6625 -0.1587
  623MOL0     C84013  11.468   2.943   8.728 -0.4013  1.1061  0.6180
  623MOL0    Cl84014  11.625   2.884   8.792 -0.4474 -0.4185 -0.2631
  623MOL0     C84015  10.456   2.877   8.246 -1.5130  0.3127 -0.8605
  623MOL0     C84016  10.323   2.864   8.222 -0.2928  0.6878  0.0060
  623MOL0     O84017  10.075   2.845   8.372  0.0336 -0.6267  0.4860
  623MOL0     C84018   9.855   2.639   8.168 -0.2796  0.5690  0.3046
  623MOL0     C84019   9.717   2.614   8.138 -0.3219 -0.3555  0.6371
  623MOL0     N84020   8.952   2.632   8.437 -0.0307 -0.8765  0.1449
  623MOL0     N84021   8.861   2.548   8.466  0.3206 -0.0259  0.0182
  623MOL0     C84022   7.539   2.375   8.446  0.4923 -0.2970 -0.4647
  623MOL0     C84023   7.403   2.391   8.481 -0.2522  0.1090 -0.2292
  623MOL0     C84024   6.970   2.465   8.555  0.4404 -1.1730  0.2813
  623MOL0     C84025   6.906   2.551   8.644 -0.0148  0.4586 -0.0057
  623MOL0     C84026   6.764   2.535   8.658 -0.0941  0.3551  0.0177
  623MOL0     C84027   6.686   2.435   8.604  0.3952  0.1551 -0.3673
  623MOL0     O84028   6.552   2.420   8.622 -0.1265  0.2373 -0.2613
  623MOL0     C84029   6.494   2.482   8.743  0.2946  0.4181 -0.8235
  623MOL0     C84030   6.352   2.429   8.762  0.4837  1.0879  0.1022
  623MOL0     C84031   6.301   2.440   8.907 -0.3141  0.1168  0.7147
  623MOL0     C84032   6.165   2.376   8.913 -0.0501  0.5292 -0.7712
  623MOL0     C84033   6.097   2.417   9.036  0.6380 -1.2090  0.0768
  623MOL0     C84034   6.049   2.443   9.146 -0.3302  0.3828  0.1519
  623MOL0     C84035   6.757   2.354   8.508  0.0523 -0.5369 -0.0654
  623MOL0     C84036   6.893   2.373   8.479  0.1755 -0.1092 -0.4199
  623MOL0     C84037   6.953   2.279   8.374 -0.2249  0.8096 -1.1136
  623MOL0     H84038   7.273   2.511   8.192 -1.5974  1.1874  2.2335
  623MOL0     H84039   7.511   2.467   8.125  2.2264  0.4310  0.7087
  623MOL0     H84040   7.809   2.514   8.374  2.0081 -0.0628  0.3968
  623MOL0     H84041   7.805   2.363   8.437 -0.9491  0.4975  0.3019
  623MOL0     H84042   7.950   2.483   8.197 -0.3041 -2.1379 -1.6609
  623MOL0     H84043   7.956   2.310   8.215 -2.6886  1.3270 -3.9265
  623MOL0     H84044   8.084   2.354   8.433  1.1732 -0.7035 -0.5823
  623MOL0     H84045   8.027   2.521   8.426 -1.3958 -0.4465  0.1639
  623MOL0     H84046   8.192   2.372   8.212 -1.3116 -1.8516  1.2283
  623MOL0     H84047   8.192   2.554   8.230  2.3130  0.5197 -0.1299
  623MOL0     H84048   8.302   2.563   8.436 -1.3714 -1.1958  0.6415
  623MOL0     H84049   8.313   2.391   8.452  1.4135  1.4015  0.8329
  623MOL0     H84050   8.424   2.378   8.243  0.2044  2.1485 -2.5849
  623MOL0     H84051   8.444   2.551   8.224 -0.8826 -2.7574 -3.7382
  623MOL0     H84052   8.536   2.427   8.494 -0.5954 -1.4209 -1.3225
  623MOL0     H84053   8.579   2.579   8.416 -0.1556  0.2735 -2.6368
  623MOL0     H84054   8.694   2.305   8.357  0.1628  0.7198 -0.2078
  623MOL0     H84055   8.658   2.414   8.224 -2.4936  3.8275  0.3641
  623MOL0     H84056   8.881   2.519   8.144  1.7677 -0.8586  0.4825
  623MOL0     H84057   9.033   2.693   8.101  3.2084 -1.2161  0.9444
  623MOL0     H84058   9.010   2.834   8.213 -1.2031  0.7545 -0.0910
  623MOL0     H84059   9.239   2.814   8.164 -0.6163  3.0553  3.1024
  623MOL0     H84060   9.239   2.740   8.330 -0.3520  2.1616 -0.1037
  623MOL0     H84061   9.248   2.594   8.066 -0.7717  0.4703  0.5549
  623MOL0     H84062   9.207   2.524   8.209  0.8819 -0.6421  0.4526
  623MOL0     H84063   9.443   2.488   8.164 -1.8017 -0.5738  0.5029
  623MOL0     H84064   9.408   2.575   8.318  1.4472 -0.0206  0.1702
  623MOL0     H84065   9.583   2.876   8.296  1.4917  1.9080 -1.3118
  623MOL0     H84066   9.815   2.927   8.349 -0.3866  0.0038 -0.3101
  623MOL0     H84067  10.312   2.523   8.201 -1.1882 -0.3285 -0.5647
  623MOL0     H84068  10.565   2.561   8.248  0.1456 -0.1146  1.9467
  623MOL0     H84069  10.735   2.614   8.330 -1.2766  0.7170 -2.7258
  623MOL0     H84070  10.864   2.737   8.275 -0.7088 -0.2250 -1.1126
  623MOL0     H84071  10.797   2.873   8.475 -1.7136 -0.0009 -0.9098
  623MOL0     H84072  10.693   2.744   8.536  0.9271 -0.7897  1.5675
  623MOL0     H84073  10.890   2.673   8.650 -2.9471  0.5220 -0.0476
  623MOL0     H84074  10.953   2.638   8.484 -0.5858  0.6784 -0.7398
  623MOL0     H84075  10.973   2.895   8.619 -0.9499  0.4558 -1.3441
  623MOL0     H84076  11.037   2.858   8.456 -3.8306 -1.0091 -1.7624
  623MOL0     H84077  11.193   2.697   8.554 -0.4928  1.4607 -2.1607
  623MOL0     H84078  11.121   2.725   8.715 -2.1529  3.3499  1.3389
  623MOL0     H84079  11.273   2.926   8.553 -1.5092  1.7174 -0.1450
  623MOL0     H84080  11.204   2.954   8.714 -1.1729  0.1104  0.7228
  623MOL0     H84081  11.405   2.733   8.672 -0.0703 -0.6673  0.0622
  623MOL0     H84082  11.340   2.793   8.827 -2.9370  1.1300 -0.2509
  623MOL0     H84083  11.481   2.983   8.627 -0.2400 -0.2424  0.0914
  623MOL0     H84084  11.434   3.024   8.793  1.5919  0.9183  1.9606
  623MOL0     H84085  10.495   2.976   8.264  2.1782 -0.9478 -1.1665
  623MOL0     H84086  10.246   2.941   8.216 -1.5765 -0.2977  2.3909
  623MOL0     H84087   9.929   2.577   8.120 -0.9239  0.3365 -0.4004
  623MOL0     H84088   9.682   2.532   8.076 -2.5190 -0.0594  1.3828
  623MOL0     H84089   7.617   2.343   8.515  0.7969 -0.7519 -1.0070
  623MOL0     H84090   7.386   2.364   8.585 -1.1497  0.7436 -0.1961
  623MOL0     H84091   6.971   2.623   8.693  1.9046 -0.8677 -0.5214
  623MOL0     H84092   6.716   2.605   8.725 -3.6824 -1.4510 -0.4755
  623MOL0     H84093   6.487   2.591   8.740 -1.5824  0.3928  0.6525
  623MOL0     H84094   6.558   2.454   8.827  0.6969  0.6080 -1.0594
  623MOL0     H84095   6.357   2.323   8.735  0.0867  1.2968 -0.8258
  623MOL0     H84096   6.276   2.479   8.702 -4.5972 -3.1595  2.2600
  623MOL0     H84097   6.300   2.542   8.946  0.2889  0.5736 -0.3880
  623MOL0     H84098   6.368   2.380   8.969 -0.2184 -0.4304  0.0920
  623MOL0     H84099   6.109   2.412   8.827  1.0654 -1.7090 -2.5232
  623MOL0     H84100   6.175   2.267   8.912 -1.2962  0.3732  0.4047
  623MOL0     H84101   6.017   2.472   9.244  1.4698 -0.6065  1.0727
  623MOL0     H84102   6.706   2.273   8.457 -1.3588  0.9571 -1.1163
  623MOL0     H84103   7.009   2.344   8.305 -0.5909  0.1778 -2.0240
  623MOL0     H84104   7.017   2.211   8.431 -1.7885  1.8909  2.1922
  623MOL0     H84105   6.874   2.218   8.330  0.3112 -3.1828  2.7459
  624MOL0     O84106   7.574   0.574   0.884 -0.1956  0.4205 -0.0965
  624MOL0     C84107   7.527   0.645   0.973 -0.1218  0.1612 -0.2011
  624MOL0     O84108   7.602   0.722   1.055  0.0373  0.6925 -0.3225
  624MOL0     C84109   7.739   0.719   1.072  0.7965 -0.2326  0.6702
  624MOL0     C84110   7.776   0.791   1.186  0.4083 -0.0616  0.1551
  624MOL0     C84111   7.920   0.800   1.213  0.7010 -0.9287 -0.3400
  624MOL0     C84112   8.017   0.738   1.145  0.2299  0.6480  0.1693
  624MOL0     O84113   8.141   0.769   1.193 -0.4242  0.0122 -0.2293
  624MOL0     C84114   8.255   0.763   1.098  0.3494  0.4565  0.6877
  624MOL0     C84115   8.384   0.797   1.178  0.7781 -0.1438  0.4092
  624MOL0     C84116   8.496   0.814   1.089 -0.1709 -1.3520  0.1596
  624MOL0     C84117   8.633   0.851   1.164  0.5408  0.7839  0.5738
  624MOL0     C84118   8.651   0.978   1.236  1.2878 -0.5334 -0.2656
  624MOL0     C84119   8.729   1.089   1.157  0.3014 -0.2932 -0.8127
  624MOL0     C84120   8.807   1.193   1.238 -0.2251 -0.6640 -0.3628
  624MOL0     C84121   8.712   1.292   1.313  0.6909 -0.3311 -0.2403
  624MOL0     N84122   8.779   1.410   1.357 -0.6068 -0.2777 -0.3770
  624MOL0     C84123   8.740   1.511   1.449  0.9299  1.7371  0.6600
  624MOL0     C84124   8.825   1.609   1.436  0.1314 -0.5437  0.0759
  624MOL0     C84125   8.828   1.744   1.501 -1.1236 -0.6664 -0.3169
  624MOL0     C84126   8.964   1.783   1.559  0.0272  0.4675 -0.3697
  624MOL0     C84127   8.964   1.939   1.570 -0.0775 -0.7382 -0.0797
  624MOL0     C84128   9.093   1.984   1.637 -0.7067  0.0568 -0.9203
  624MOL0     O84129   9.130   2.109   1.578 -0.1881  0.8355  0.4203
  624MOL0     C84130   9.260   2.123   1.546 -0.6571 -0.3169 -0.1957
  624MOL0     C84131   9.368   2.074   1.624 -0.5799  0.3353  0.8753
  624MOL0     C84132   9.499   2.092   1.579 -0.2865  0.7144 -0.2484
  624MOL0     C84133   9.526   2.171   1.461 -0.6011  0.0403 -0.8823
  624MOL0     C84134   9.666   2.192   1.421  0.9998 -0.3695  0.2976
  624MOL0     O84135   9.683   2.250   1.291  0.5598 -0.0687  0.1645
  624MOL0     C84136   9.808   2.277   1.248 -0.0705  0.0459 -0.5260
  624MOL0     C84137   9.917   2.185   1.254  0.1554 -0.1297 -0.3626
  624MOL0     C84138  10.046   2.231   1.234 -0.1062 -0.0898 -0.2723
  624MOL0     C84139  10.075   2.374   1.222  0.4038  0.0770 -0.5416
  624MOL0     O84140  10.194   2.432   1.200  0.0895 -0.8464 -0.1251
  624MOL0     C84141  10.308   2.343   1.201  0.7393 -0.0767  0.2994
  624MOL0     C84142  10.436   2.417   1.194  0.6372  0.2080 -0.1170
  624MOL0     C84143  10.551   2.324   1.238 -0.1189 -0.2580  0.0244
  624MOL0     C84144  10.682   2.396   1.195  0.1088  0.3546  0.6471
  624MOL0     C84145  10.804   2.308   1.196  0.7370 -0.1484  0.3692
  624MOL0     C84146  10.922   2.392   1.131  0.7522  0.2983  0.1882
  624MOL0     C84147  11.026   2.324   1.046 -0.6253  0.4452  0.5908
  624MOL0     C84148  11.146   2.426   1.037  0.3825  0.6803 -0.3326
  624MOL0    Cl84149  11.296   2.362   0.980 -0.4055  0.4258  0.1540
  624MOL0     C84150   9.967   2.462   1.208 -0.0899 -0.5967 -0.1550
  624MOL0     C84151   9.842   2.415   1.226  0.1277  0.1995 -0.2594
  624MOL0     O84152   9.750   2.152   1.491 -0.4732  0.3873 -0.4001
  624MOL0     C84153   9.416   2.227   1.390  0.5821  0.4689  0.6836
  624MOL0     C84154   9.284   2.191   1.429 -0.4466 -0.1663 -0.2262
  624MOL0     N84155   8.909   1.580   1.338 -0.2640 -0.3205 -0.6078
  624MOL0     N84156   8.887   1.463   1.291 -0.1287  0.2279 -0.4692
  624MOL0     C84157   7.973   0.655   1.040  0.6017  1.3053  0.6285
  624MOL0     C84158   7.836   0.648   1.002  1.1852 -0.0840  0.6053
  624MOL0     C84159   7.387   0.659   1.003  0.3225  0.7538 -0.2153
  624MOL0     C84160   7.347   0.687   1.135  1.4775 -0.2713  0.0150
  624MOL0     C84161   7.207   0.713   1.173 -0.5834  0.2417 -0.2122
  624MOL0     C84162   7.116   0.706   1.079  0.2905  0.4021 -0.0012
  624MOL0     O84163   6.998   0.751   1.111  0.3445  0.7406 -0.5852
  624MOL0     C84164   6.883   0.723   1.036  0.4110  0.1838 -0.0257
  624MOL0     C84165   6.844   0.581   1.025 -0.0169  0.6141 -0.3736
  624MOL0     C84166   6.693   0.583   0.977  0.5411  0.2282  0.4384
  624MOL0     C84167   6.580   0.643   1.071  0.1388 -0.3413  0.3763
  624MOL0     C84168   6.442   0.609   1.017  0.5285 -0.0399 -0.9635
  624MOL0     C84169   6.332   0.588   0.972 -0.1277  0.4220 -0.1717
  624MOL0     C84170   7.156   0.658   0.955  0.4376  0.3408 -0.0913
  624MOL0     C84171   7.284   0.634   0.905  1.5781  0.8860  0.2967
  624MOL0     C84172   7.304   0.604   0.756  0.4603  0.4017  0.5492
  624MOL0     H84173   7.703   0.845   1.244 -0.2290 -0.0026 -0.6723
  624MOL0     H84174   7.956   0.861   1.295 -2.0793 -2.2156  2.0453
  624MOL0     H84175   8.254   0.660   1.062  3.9573  1.4716 -3.0928
  624MOL0     H84176   8.242   0.838   1.019 -0.2724  0.2744  0.6168
  624MOL0     H84177   8.412   0.718   1.248  2.4797 -0.0168 -0.0835
  624MOL0     H84178   8.361   0.888   1.235 -1.7642 -0.4217 -0.0404
  624MOL0     H84179   8.481   0.910   1.038 -4.2572 -1.1507  1.4405
  624MOL0     H84180   8.492   0.729   1.021 -2.5930 -2.0395  1.0486
  624MOL0     H84181   8.639   0.771   1.239 -0.8812  0.9926  0.9421
  624MOL0     H84182   8.707   0.833   1.086 -0.8262 -0.3655 -0.5044
  624MOL0     H84183   8.554   1.020   1.267  1.1450 -1.9464  1.3277
  624MOL0     H84184   8.690   0.947   1.333 -1.5068  1.1756  1.5702
  624MOL0     H84185   8.807   1.041   1.097  0.2853 -1.2512 -0.0814
  624MOL0     H84186   8.658   1.138   1.090 -2.6388 -0.8243  1.6955
  624MOL0     H84187   8.846   1.255   1.157  0.5343  0.1975  0.6262
  624MOL0     H84188   8.887   1.160   1.304 -1.0815  0.9607  1.6210
  624MOL0     H84189   8.640   1.324   1.238  1.9455  1.6849 -0.6602
  624MOL0     H84190   8.659   1.243   1.396  0.8221  1.5902  1.0358
  624MOL0     H84191   8.650   1.515   1.510 -0.9168  1.3458 -1.8689
  624MOL0     H84192   8.808   1.812   1.418 -1.3573  0.8354  0.9339
  624MOL0     H84193   8.751   1.752   1.578 -1.2423 -1.7691 -0.3000
  624MOL0     H84194   8.978   1.733   1.655  0.0431 -0.6830 -0.9548
  624MOL0     H84195   9.040   1.755   1.486 -0.6804 -1.3118 -0.4652
  624MOL0     H84196   8.879   1.976   1.629 -1.5230 -2.5942 -0.9206
  624MOL0     H84197   8.972   1.981   1.470 -0.8744  5.6871  2.0432
  624MOL0     H84198   9.174   1.913   1.617  0.0699  0.1938  1.3861
  624MOL0     H84199   9.072   1.990   1.744 -0.7173  0.7181 -0.9600
  624MOL0     H84200   9.349   2.026   1.719  3.2188 -0.1115  1.5956
  624MOL0     H84201   9.579   2.051   1.639  0.2182 -0.8973 -1.9400
  624MOL0     H84202   9.890   2.080   1.249  1.4407 -0.4270 -1.8900
  624MOL0     H84203  10.133   2.167   1.222 -0.0219  0.3575 -2.3706
  624MOL0     H84204  10.316   2.300   1.301  2.2232  1.5074  0.9171
  624MOL0     H84205  10.312   2.260   1.129 -1.7866 -1.9827  2.1837
  624MOL0     H84206  10.441   2.467   1.097 -2.5661 -0.9978 -1.0145
  624MOL0     H84207  10.416   2.488   1.274 -3.7359  0.8393 -1.5101
  624MOL0     H84208  10.553   2.307   1.346 -2.5648 -0.6055  0.0581
  624MOL0     H84209  10.539   2.223   1.198  0.9502  0.1103 -1.2946
  624MOL0     H84210  10.708   2.481   1.260  2.6536  0.8279 -0.8894
  624MOL0     H84211  10.669   2.427   1.091  1.6978  1.0831  0.6317
  624MOL0     H84212  10.784   2.218   1.137  2.8377  0.5828 -1.6335
  624MOL0     H84213  10.815   2.276   1.300  1.8176 -1.6302 -0.1759
  624MOL0     H84214  10.878   2.477   1.077 -2.1352 -0.5188  1.0537
  624MOL0     H84215  10.970   2.447   1.213  0.8849  0.9703 -0.3284
  624MOL0     H84216  10.987   2.301   0.947  0.3475  1.5924 -0.0830
  624MOL0     H84217  11.057   2.225   1.081 -1.9191 -0.0848  0.3145
  624MOL0     H84218  11.124   2.521   0.988 -0.2936  0.4279 -0.5305
  624MOL0     H84219  11.174   2.458   1.138 -0.4356 -0.7544  0.3955
  624MOL0     H84220   9.982   2.565   1.177 -0.0684 -1.0094 -1.5873
  624MOL0     H84221   9.759   2.483   1.214 -0.4126 -0.4246 -0.0916
  624MOL0     H84222   9.435   2.296   1.309 -3.5068 -0.0215 -0.9501
  624MOL0     H84223   9.194   2.228   1.382 -0.4138  0.0294 -0.1331
  624MOL0     H84224   8.049   0.598   0.988 -1.5565 -1.6326  0.4441
  624MOL0     H84225   7.797   0.588   0.920  0.6256 -0.6077  1.2438
  624MOL0     H84226   7.421   0.690   1.215  1.3994 -1.6689  0.1762
  624MOL0     H84227   7.190   0.754   1.272 -0.1351  1.0567 -0.4635
  624MOL0     H84228   6.884   0.778   0.942 -0.2085 -0.2523 -0.2870
  624MOL0     H84229   6.813   0.780   1.098 -0.1449 -0.4683 -0.0447
  624MOL0     H84230   6.865   0.531   1.120  1.8675 -1.7126 -1.8895
  624MOL0     H84231   6.902   0.528   0.949  0.1500 -1.6366  1.2314
  624MOL0     H84232   6.671   0.480   0.947 -1.7352  0.9756 -0.6650
  624MOL0     H84233   6.684   0.635   0.881  0.4316  0.4069  0.5468
  624MOL0     H84234   6.595   0.603   1.172 -1.1242  1.8267  1.4940
  624MOL0     H84235   6.575   0.752   1.064  0.4941 -0.4175 -1.8731
  624MOL0     H84236   6.233   0.579   0.932  0.3548  2.3485 -1.9681
  624MOL0     H84237   7.083   0.639   0.876  0.1923  4.5185 -1.1146
  624MOL0     H84238   7.224   0.649   0.696 -0.0495 -1.4830 -0.2678
  624MOL0     H84239   7.400   0.642   0.723 -0.4425  1.2132 -1.2448
  624MOL0     H84240   7.306   0.496   0.742 -0.6676  0.4048  0.2260
  625MOL0     O84241   6.700   3.097   7.551 -0.1686 -0.2386  0.1560
  625MOL0     C84242   6.656   2.996   7.501  0.3279  0.9090  0.5077
  625MOL0     O84243   6.682   2.866   7.537 -0.1230  0.3636 -0.3972
  625MOL0     C84244   6.810   2.838   7.578 -0.5359  0.9142  0.0300
  625MOL0     C84245   6.826   2.729   7.664 -0.0052  0.3839 -0.1610
  625MOL0     C84246   6.952   2.706   7.714 -0.4024  1.2630 -0.6691
  625MOL0     C84247   7.069   2.766   7.669 -0.6700 -0.3008  0.2963
  625MOL0     O84248   7.194   2.732   7.722  0.1816  0.2740  0.3212
  625MOL0     C84249   7.214   2.652   7.839 -0.1943 -0.2281  0.1741
  625MOL0     C84250   7.358   2.624   7.871  0.9441  0.2962  0.0214
  625MOL0     C84251   7.456   2.741   7.882 -0.0867 -0.8440 -0.0693
  625MOL0     C84252   7.600   2.718   7.818 -0.3041 -0.2633 -0.6699
  625MOL0     C84253   7.672   2.593   7.868  1.3921  0.2670 -0.4998
  625MOL0     C84254   7.810   2.583   7.812  0.0531 -0.0520  0.3061
  625MOL0     C84255   7.865   2.444   7.822  0.2573  0.1307  0.0288
  625MOL0     C84256   7.991   2.417   7.724 -0.4556 -0.4767 -0.6705
  625MOL0     N84257   8.105   2.504   7.760  0.3561  0.1150 -0.3319
  625MOL0     C84258   8.203   2.480   7.854 -0.0398 -0.0544 -0.7686
  625MOL0     C84259   8.271   2.590   7.870  0.0461 -0.5965 -0.3616
  625MOL0     C84260   8.389   2.606   7.961  0.2551  0.6474 -0.0454
  625MOL0     C84261   8.506   2.674   7.897  0.0443  0.7134  0.2426
  625MOL0     C84262   8.641   2.662   7.975 -0.3254 -0.1927 -0.9697
  625MOL0     C84263   8.755   2.744   7.917 -0.1027  0.7700  0.3071
  625MOL0     O84264   8.749   2.876   7.966  0.2519 -0.1448  0.3656
  625MOL0     C84265   8.858   2.953   7.973  0.4594  0.2997  0.1049
  625MOL0     C84266   8.977   2.924   7.910  0.4498 -0.6745  0.2919
  625MOL0     C84267   9.089   3.006   7.932  0.9189  0.2357 -0.3161
  625MOL0     C84268   9.081   3.119   8.016 -0.9987  0.1440  0.2570
  625MOL0     C84269   9.203   3.194   8.052 -0.2954 -0.7561  0.0410
  625MOL0     O84270   9.195   3.295   8.141 -0.4363  0.1182 -0.1394
  625MOL0     C84271   9.306   3.376   8.168  0.3512 -0.1101 -0.4563
  625MOL0     C84272   9.278   3.467   8.268  0.3198  0.6868 -1.0301
  625MOL0     C84273   9.375   3.556   8.318  0.2114 -0.0586  0.9241
  625MOL0     C84274   9.492   3.570   8.257 -0.3788  0.0912 -0.0157
  625MOL0     O84275   9.567   3.672   8.297  0.4039  0.3740 -0.5505
  625MOL0     C84276   9.680   3.697   8.208 -0.1056  0.5989  1.1127
  625MOL0     C84277   9.733   3.845   8.232  0.4281  1.6448 -0.1502
  625MOL0     C84278   9.838   3.894   8.128  0.7048  0.7666 -0.1777
  625MOL0     C84279   9.970   3.814   8.122  0.6010  0.3334  0.4245
  625MOL0     C84280  10.067   3.862   8.014 -0.3023 -0.1838  0.2436
  625MOL0     C84281  10.197   3.779   8.019 -0.8496 -0.1343 -0.1013
  625MOL0     C84282  10.316   3.859   7.966 -0.5634  0.8960 -0.9781
  625MOL0     C84283  10.449   3.788   8.004  0.1671 -0.0950 -0.5590
  625MOL0    Cl84284  10.478   3.775   8.183 -0.1554  0.3353 -0.1398
  625MOL0     C84285   9.534   3.470   8.167  0.3226  0.5359 -0.2377
  625MOL0     C84286   9.439   3.375   8.121 -0.1407  0.2822 -0.1074
  625MOL0     O84287   9.301   3.154   7.994 -0.3398 -0.1163  0.6689
  625MOL0     C84288   8.964   3.145   8.083  0.0864  0.9589 -0.3876
  625MOL0     C84289   8.857   3.051   8.069 -0.1667 -0.4093  0.4758
  625MOL0     N84290   8.228   2.678   7.775 -0.4139  0.4470  0.6897
  625MOL0     N84291   8.130   2.627   7.706  1.4029  0.1952 -0.1485
  625MOL0     C84292   7.051   2.865   7.570  0.6455  0.0573 -0.4298
  625MOL0     C84293   6.925   2.908   7.532  0.3194  0.2012 -0.0875
  625MOL0     C84294   6.556   3.017   7.399  0.5809 -0.3524  1.4021
  625MOL0     C84295   6.521   3.149   7.358  0.3205  0.5825 -1.5885
  625MOL0     C84296   6.443   3.173   7.250  0.9912 -0.0692 -1.2777
  625MOL0     C84297   6.382   3.083   7.176  0.1448 -1.2933 -0.0218
  625MOL0     O84298   6.336   3.122   7.053 -1.3168  0.3199 -0.8562
  625MOL0     C84299   6.266   3.022   6.977 -0.0959  0.5796 -0.4524
  625MOL0     C84300   6.232   3.102   6.843  1.2061  0.4595 -1.4357
  625MOL0     C84301   6.351   3.092   6.744 -0.2610 -1.3833  0.5312
  625MOL0     C84302   6.448   3.211   6.750  0.4024  0.3065 -0.7231
  625MOL0     C84303   6.529   3.211   6.633  0.0459  0.1618  0.1509
  625MOL0     C84304   6.607   3.213   6.541 -0.0996  0.0460 -0.1497
  625MOL0     C84305   6.401   2.951   7.222  0.0412  0.5567 -0.4274
  625MOL0     C84306   6.487   2.915   7.326 -0.3031 -0.0268 -0.3243
  625MOL0     C84307   6.520   2.774   7.329 -0.5154 -0.1047  0.2793
  625MOL0     H84308   6.745   2.667   7.698  1.0189  1.2099  4.3920
  625MOL0     H84309   6.968   2.615   7.772 -3.9446 -1.0105 -2.8416
  625MOL0     H84310   7.172   2.704   7.925 -0.8550 -1.7755  0.8199
  625MOL0     H84311   7.167   2.553   7.830 -1.5074  0.4347 -0.4590
  625MOL0     H84312   7.399   2.557   7.795  4.3022  4.1187 -1.9241
  625MOL0     H84313   7.347   2.570   7.965  0.8885  0.4837  0.1240
  625MOL0     H84314   7.458   2.761   7.989  0.3427  0.5544 -0.3157
  625MOL0     H84315   7.410   2.823   7.825 -0.0153 -0.0041  1.0402
  625MOL0     H84316   7.592   2.722   7.709  0.2020 -1.2242 -0.7439
  625MOL0     H84317   7.667   2.803   7.836 -1.3548  0.9528 -2.1399
  625MOL0     H84318   7.691   2.599   7.975 -1.6187  0.8563  0.0691
  625MOL0     H84319   7.603   2.509   7.855  1.2829  0.4243 -0.9648
  625MOL0     H84320   7.815   2.607   7.705  1.5812 -2.1932 -0.1707
  625MOL0     H84321   7.873   2.643   7.878 -0.3065 -1.1365  1.6831
  625MOL0     H84322   7.774   2.383   7.812 -1.9590  2.9759  1.1563
  625MOL0     H84323   7.903   2.420   7.922  0.1635 -1.1323 -0.2149
  625MOL0     H84324   8.022   2.312   7.727  1.5968  0.0524 -1.6931
  625MOL0     H84325   7.958   2.431   7.621 -0.9063  0.2960 -0.4316
  625MOL0     H84326   8.212   2.390   7.915  3.0345 -1.5705 -3.1932
  625MOL0     H84327   8.357   2.662   8.049 -2.0902 -0.5870 -0.0364
  625MOL0     H84328   8.412   2.504   7.993  0.9621  0.4739 -1.0545
  625MOL0     H84329   8.518   2.626   7.799 -0.1294 -0.5235  0.8089
  625MOL0     H84330   8.482   2.778   7.872 -1.2428 -0.0116 -1.9044
  625MOL0     H84331   8.674   2.558   7.975  1.4443  0.3435 -1.5925
  625MOL0     H84332   8.627   2.687   8.081 -5.0086  0.6986 -1.5782
  625MOL0     H84333   8.758   2.748   7.808  2.1187  2.0768  0.3607
  625MOL0     H84334   8.843   2.692   7.956 -2.1833 -2.2991  1.2736
  625MOL0     H84335   8.979   2.844   7.837 -1.0111  0.7450 -1.4000
  625MOL0     H84336   9.172   2.980   7.868  0.1441 -0.8565 -0.9278
  625MOL0     H84337   9.178   3.470   8.311  0.8792  0.0447  0.3895
  625MOL0     H84338   9.336   3.631   8.385 -2.6610 -0.5400 -0.0224
  625MOL0     H84339   9.753   3.619   8.231 -1.9792 -0.8800  2.3991
  625MOL0     H84340   9.635   3.694   8.109 -2.4538  1.2275  2.0723
  625MOL0     H84341   9.654   3.918   8.247 -2.5269 -1.4123  0.2922
  625MOL0     H84342   9.791   3.829   8.323  0.6829  0.6320 -0.4748
  625MOL0     H84343   9.811   3.881   8.022  3.4710  0.0934 -0.8731
  625MOL0     H84344   9.855   4.000   8.146  1.8965  0.6529 -0.5381
  625MOL0     H84345   9.950   3.710   8.099 -3.0740  1.0749 -0.2482
  625MOL0     H84346  10.024   3.825   8.217  0.2725  3.0047  0.4052
  625MOL0     H84347  10.084   3.967   8.040 -2.6432  0.2930  0.1130
  625MOL0     H84348  10.020   3.863   7.915 -1.1850 -0.9888  0.6352
  625MOL0     H84349  10.217   3.754   8.123  1.0949 -0.1827 -0.4493
  625MOL0     H84350  10.202   3.687   7.960  4.1963 -0.1584 -0.1033
  625MOL0     H84351  10.324   3.958   8.011  1.3788 -0.2861  1.5687
  625MOL0     H84352  10.309   3.869   7.857  1.1447  1.0077 -1.1040
  625MOL0     H84353  10.470   3.689   7.962 -2.4994 -0.5402 -0.9609
  625MOL0     H84354  10.529   3.852   7.967 -0.2190  0.2409 -0.8122
  625MOL0     H84355   9.638   3.448   8.146 -0.2823 -2.1629 -0.8230
  625MOL0     H84356   9.470   3.301   8.049  2.3537 -1.3352  2.4243
  625MOL0     H84357   8.964   3.233   8.147  0.1665  0.2452  0.6132
  625MOL0     H84358   8.772   3.066   8.135 -0.7409  0.2718 -0.3948
  625MOL0     H84359   7.140   2.922   7.545 -0.6840  2.9554  1.0332
  625MOL0     H84360   6.918   2.989   7.461 -0.0186 -1.0051 -1.4905
  625MOL0     H84361   6.555   3.239   7.409 -3.1212  1.0849  0.1317
  625MOL0     H84362   6.436   3.278   7.223  1.5893  0.1625 -0.5604
  625MOL0     H84363   6.172   2.987   7.020  0.3846 -0.1915 -0.0192
  625MOL0     H84364   6.326   2.935   6.949 -1.2092  0.4728 -2.6896
  625MOL0     H84365   6.206   3.205   6.867  0.0349 -0.1058 -0.1474
  625MOL0     H84366   6.140   3.061   6.801  0.7130 -0.1162  0.1356
  625MOL0     H84367   6.310   3.082   6.643  0.1924  2.1671 -0.1211
  625MOL0     H84368   6.399   2.996   6.766 -0.3631 -1.9033 -1.3192
  625MOL0     H84369   6.385   3.301   6.745 -2.3048 -1.3919  0.6605
  625MOL0     H84370   6.497   3.201   6.847 -1.9099 -0.2967  0.4483
  625MOL0     H84371   6.676   3.213   6.459 -1.3179 -1.8580 -1.2556
  625MOL0     H84372   6.354   2.868   7.172 -1.3739  0.3095  1.2337
  625MOL0     H84373   6.490   2.736   7.427 -3.4183  0.1761 -0.4116
  625MOL0     H84374   6.459   2.713   7.262 -0.9811  0.8104 -0.1534
  625MOL0     H84375   6.623   2.746   7.305 -1.3503 -1.4634 -2.0728
  626MOL0     O84376   2.166   7.520   0.850 -0.0177 -0.5575  0.2703
  626MOL0     C84377   2.163   7.432   0.935  0.0988  0.9422  0.9627
  626MOL0     O84378   2.148   7.462   1.066 -0.0547 -0.4283  0.0117
  626MOL0     C84379   2.087   7.580   1.104  0.7812 -0.5956 -0.0372
  626MOL0     C84380   1.992   7.571   1.204  0.5098 -0.5428  0.0598
  626MOL0     C84381   1.920   7.684   1.250 -0.0170  1.0034 -0.4920
  626MOL0     C84382   1.952   7.806   1.200  0.4850  0.7077  0.3085
  626MOL0     O84383   1.891   7.916   1.257 -0.1276  0.7643 -0.7747
  626MOL0     C84384   1.867   8.033   1.175 -0.4549  0.7622 -0.2038
  626MOL0     C84385   1.844   8.156   1.263 -0.2832 -1.8554 -0.1793
  626MOL0     C84386   1.961   8.182   1.353  1.0206 -0.4543 -0.8196
  626MOL0     C84387   2.080   8.252   1.288  0.6217 -0.2649 -0.1943
  626MOL0     C84388   2.219   8.173   1.281 -0.3102  0.2073  0.2123
  626MOL0     C84389   2.319   8.249   1.197  0.3035 -0.2948  0.1511
  626MOL0     C84390   2.464   8.210   1.224  0.4091  0.1656  0.1552
  626MOL0     C84391   2.562   8.322   1.193  0.1759 -0.1668 -0.8547
  626MOL0     N84392   2.567   8.438   1.282  0.3951  0.1747  0.5422
  626MOL0     C84393   2.655   8.448   1.387 -0.1428  0.7385  0.6978
  626MOL0     C84394   2.615   8.561   1.450  0.0982  0.7413 -0.0127
  626MOL0     C84395   2.657   8.593   1.585 -0.9402  0.1192 -0.5231
  626MOL0     C84396   2.805   8.618   1.610  0.5075  0.6825  0.8639
  626MOL0     C84397   2.857   8.764   1.558 -0.4906 -0.4038 -0.3623
  626MOL0     C84398   2.996   8.805   1.602 -0.2811 -0.5349  0.5632
  626MOL0     O84399   3.102   8.729   1.534  0.1549  0.2873  0.0345
  626MOL0     C84400   3.227   8.760   1.587 -0.3286 -0.0259 -0.5159
  626MOL0     C84401   3.260   8.872   1.665  0.2968 -0.2051  0.1731
  626MOL0     C84402   3.392   8.889   1.706 -0.2095 -0.0021  0.1610
  626MOL0     C84403   3.491   8.797   1.682 -0.1950 -0.5467 -0.5124
  626MOL0     C84404   3.628   8.807   1.741 -0.7654  0.6852  0.4459
  626MOL0     O84405   3.724   8.719   1.682  0.1540  0.1072  0.7152
  626MOL0     C84406   3.858   8.723   1.724 -1.2063  0.1712  0.4104
  626MOL0     C84407   3.926   8.820   1.792  0.2546 -0.5342  0.5627
  626MOL0     C84408   4.052   8.799   1.839  0.0349  0.1156 -0.0615
  626MOL0     C84409   4.118   8.677   1.815  0.5159 -0.0291 -0.8825
  626MOL0     O84410   4.245   8.657   1.865 -0.2590 -0.3831  1.0779
  626MOL0     C84411   4.339   8.582   1.787  0.0442 -0.6959 -0.5500
  626MOL0     C84412   4.482   8.641   1.817 -0.3428 -0.3979 -0.2601
  626MOL0     C84413   4.532   8.583   1.959  0.8765  0.2616  0.0330
  626MOL0     C84414   4.679   8.630   1.973 -0.0161  0.7665 -0.2291
  626MOL0     C84415   4.738   8.556   2.090  0.8295 -0.5763 -0.1559
  626MOL0     C84416   4.868   8.627   2.148 -0.7792 -0.0681 -0.6822
  626MOL0     C84417   4.991   8.656   2.055 -0.4129 -0.3120 -0.4382
  626MOL0     C84418   5.101   8.741   2.119  0.0326  0.4639 -1.2658
  626MOL0    Cl84419   5.191   8.626   2.239 -0.6249 -0.2803 -0.1509
  626MOL0     C84420   4.049   8.575   1.753 -0.0374  0.8119 -0.1266
  626MOL0     C84421   3.929   8.609   1.701  0.6950 -0.2478 -0.2619
  626MOL0     O84422   3.653   8.895   1.822  1.0256  0.1941  0.9000
  626MOL0     C84423   3.459   8.688   1.602 -0.6174 -0.1678 -0.4534
  626MOL0     C84424   3.329   8.670   1.547  0.7238 -0.5417 -0.5018
  626MOL0     N84425   2.528   8.633   1.365  0.4851 -0.4455 -0.5771
  626MOL0     N84426   2.502   8.555   1.266 -1.0882 -0.4174 -0.3591
  626MOL0     C84427   2.046   7.825   1.097 -0.9693 -0.1356 -0.4381
  626MOL0     C84428   2.113   7.705   1.055  0.2303 -0.9412 -0.6148
  626MOL0     C84429   2.174   7.287   0.896  0.8933 -0.6800  0.3699
  626MOL0     C84430   2.249   7.201   0.968 -1.4383 -0.3458 -0.9363
  626MOL0     C84431   2.270   7.064   0.935  1.0244  0.5721  0.3723
  626MOL0     C84432   2.214   7.007   0.820 -0.5931  0.1582 -0.4719
  626MOL0     O84433   2.225   6.874   0.807  0.4347 -0.8223  0.3829
  626MOL0     C84434   2.171   6.803   0.691  0.3388  0.2217 -0.1995
  626MOL0     C84435   2.233   6.834   0.558 -0.5406  0.2513  0.0570
  626MOL0     C84436   2.380   6.782   0.557  0.8271 -0.0450 -0.6798
  626MOL0     C84437   2.458   6.818   0.438  0.6403  0.2054  0.6064
  626MOL0     C84438   2.597   6.767   0.455  0.1840  0.7753  0.5870
  626MOL0     C84439   2.702   6.707   0.461 -0.2703 -0.1542 -0.2108
  626MOL0     C84440   2.142   7.096   0.740 -0.2932 -0.6070 -0.0887
  626MOL0     C84441   2.111   7.230   0.782  0.4874 -0.0630 -0.3675
  626MOL0     C84442   2.008   7.294   0.696  0.5101 -0.7044 -0.0130
  626MOL0     H84443   1.955   7.472   1.229 -1.8014  0.5229  1.1466
  626MOL0     H84444   1.846   7.661   1.326  1.0928 -1.4877 -0.0812
  626MOL0     H84445   1.947   8.050   1.103 -1.1990 -0.5231 -1.3861
  626MOL0     H84446   1.780   8.009   1.112 -1.2243  0.3161  0.9799
  626MOL0     H84447   1.752   8.149   1.323 -0.2656  2.3805  0.6572
  626MOL0     H84448   1.828   8.238   1.192 -0.6325 -1.4746  0.3321
  626MOL0     H84449   1.993   8.087   1.396 -3.2056 -1.1904  1.2254
  626MOL0     H84450   1.930   8.257   1.426  2.3837  1.0232 -1.6825
  626MOL0     H84451   2.057   8.268   1.182  1.4594 -0.0256 -0.3458
  626MOL0     H84452   2.093   8.353   1.328 -2.8171  1.2237 -2.3381
  626MOL0     H84453   2.258   8.174   1.383  0.4029  1.4697 -0.0475
  626MOL0     H84454   2.185   8.075   1.248 -1.6192 -0.3262  2.9345
  626MOL0     H84455   2.300   8.229   1.092  1.0522 -0.5368  0.0526
  626MOL0     H84456   2.300   8.354   1.219 -2.1428 -0.9028  1.3393
  626MOL0     H84457   2.482   8.120   1.164 -0.3425  0.6256 -0.7982
  626MOL0     H84458   2.474   8.194   1.332 -0.4506 -0.5526  0.1444
  626MOL0     H84459   2.668   8.295   1.190  0.5571  1.1446  0.1234
  626MOL0     H84460   2.534   8.363   1.095 -0.4780 -1.0569 -1.0572
  626MOL0     H84461   2.723   8.375   1.429  0.5023  1.2291  0.5240
  626MOL0     H84462   2.597   8.674   1.627 -1.9820 -1.7520  1.8805
  626MOL0     H84463   2.653   8.503   1.648  0.7372  0.6077  0.3397
  626MOL0     H84464   2.828   8.619   1.717 -0.3230 -0.2183  1.0643
  626MOL0     H84465   2.865   8.539   1.563  0.4484  0.0043  1.8828
  626MOL0     H84466   2.783   8.833   1.600 -2.3647 -1.7596 -1.2503
  626MOL0     H84467   2.857   8.763   1.448  0.8577 -0.2120 -0.3754
  626MOL0     H84468   3.009   8.798   1.710  0.0403 -0.1013  0.5549
  626MOL0     H84469   2.997   8.903   1.553 -0.7473 -1.9258 -2.5158
  626MOL0     H84470   3.191   8.954   1.681 -0.1617 -0.3595 -0.9671
  626MOL0     H84471   3.420   8.983   1.752  0.9120  0.1834 -0.8439
  626MOL0     H84472   3.877   8.912   1.822 -0.9362  0.1078 -2.9114
  626MOL0     H84473   4.092   8.886   1.890  0.4765  0.4087 -0.8779
  626MOL0     H84474   4.323   8.477   1.814  0.3069 -0.4906  0.4155
  626MOL0     H84475   4.315   8.593   1.681 -1.6957 -1.1259 -0.2462
  626MOL0     H84476   4.548   8.595   1.742 -0.4842 -3.2745  1.2139
  626MOL0     H84477   4.490   8.749   1.809  1.3269 -0.5128 -0.5668
  626MOL0     H84478   4.468   8.610   2.044  1.7585 -3.0948  1.9189
  626MOL0     H84479   4.530   8.474   1.969  0.4108  0.3001  0.4265
  626MOL0     H84480   4.673   8.738   1.993 -2.1537  0.7355 -0.5072
  626MOL0     H84481   4.731   8.612   1.878  0.1912  1.1806 -0.1998
  626MOL0     H84482   4.772   8.455   2.064  2.3141  0.3257 -1.9659
  626MOL0     H84483   4.666   8.534   2.169  2.3136  0.5111  1.5995
  626MOL0     H84484   4.829   8.720   2.190  1.3903  0.6609 -0.1975
  626MOL0     H84485   4.909   8.563   2.226  0.2375 -0.7632 -1.7480
  626MOL0     H84486   4.962   8.697   1.958  1.3832 -1.1300 -1.3837
  626MOL0     H84487   5.039   8.561   2.028  0.5203  0.9748 -3.7615
  626MOL0     H84488   5.167   8.776   2.038  1.4435 -0.5138 -0.5857
  626MOL0     H84489   5.065   8.833   2.167 -0.0135 -0.7614  1.1802
  626MOL0     H84490   4.092   8.477   1.734 -2.4746 -0.3526 -0.0196
  626MOL0     H84491   3.865   8.535   1.653  0.0012  0.5376 -0.5533
  626MOL0     H84492   3.540   8.619   1.581 -2.0649 -2.1876  0.2140
  626MOL0     H84493   3.297   8.585   1.487 -3.6730  0.5618 -0.0661
  626MOL0     H84494   2.070   7.921   1.053 -1.5105  0.3949  0.3995
  626MOL0     H84495   2.186   7.714   0.975  2.9101 -0.2582  1.7291
  626MOL0     H84496   2.292   7.236   1.062 -0.9408 -1.3865 -0.7565
  626MOL0     H84497   2.336   7.008   1.000  0.3205 -1.0614 -0.2625
  626MOL0     H84498   2.066   6.832   0.701 -0.7004 -1.9236 -3.4636
  626MOL0     H84499   2.168   6.696   0.710  0.5830  0.1893 -0.3412
  626MOL0     H84500   2.230   6.942   0.544  0.7188 -0.1678 -5.6193
  626MOL0     H84501   2.172   6.786   0.482 -0.8309  2.0941 -0.9046
  626MOL0     H84502   2.380   6.673   0.563  0.3186 -0.1617 -2.2855
  626MOL0     H84503   2.428   6.828   0.644 -0.1932  0.9137 -0.5903
  626MOL0     H84504   2.394   6.774   0.361  0.9346 -0.4474  0.7325
  626MOL0     H84505   2.446   6.925   0.420 -2.3262  0.0071  0.8930
  626MOL0     H84506   2.792   6.650   0.455 -0.3536 -0.2457 -0.6122
  626MOL0     H84507   2.106   7.069   0.641 -0.0862  2.2379 -1.0134
  626MOL0     H84508   2.046   7.305   0.594  3.6608 -0.3945  1.0761
  626MOL0     H84509   1.923   7.224   0.697  0.7784 -1.0715 -1.1931
  626MOL0     H84510   1.976   7.390   0.737 -1.2223 -0.6991 -1.2493
  627MOL0     O84511   7.595   0.615   1.384  0.1942 -0.8872 -0.0975
  627MOL0     C84512   7.516   0.555   1.458 -0.3310 -0.3341  0.5310
  627MOL0     O84513   7.524   0.417   1.481  0.6514  0.4003 -0.2171
  627MOL0     C84514   7.617   0.338   1.422  0.1396 -0.1964 -0.1943
  627MOL0     C84515   7.759   0.361   1.418 -0.2859  0.3338  0.7214
  627MOL0     C84516   7.852   0.265   1.365  0.1546  0.4215 -0.1604
  627MOL0     C84517   7.814   0.138   1.338  0.1295 -0.8241  0.6187
  627MOL0     O84518   7.912   0.053   1.286 -0.6528  0.7253  0.6627
  627MOL0     C84519   7.876  -0.082   1.243 -0.2729 -0.7606 -0.4383
  627MOL0     C84520   7.868  -0.170   1.374 -0.8506 -0.0861  0.8578
  627MOL0     C84521   7.816  -0.314   1.333  0.1159 -0.0771  0.6513
  627MOL0     C84522   7.666  -0.311   1.318 -0.4828 -0.0425  0.1401
  627MOL0     C84523   7.604  -0.333   1.452 -0.0294  0.1694  0.2080
  627MOL0     C84524   7.452  -0.325   1.432 -0.1545  0.5006 -0.0740
  627MOL0     C84525   7.407  -0.182   1.403 -0.3676 -0.0813  0.6412
  627MOL0     C84526   7.274  -0.150   1.475  0.3043  0.0684 -0.3274
  627MOL0     N84527   7.243  -0.010   1.446  0.2381  0.1952  0.5882
  627MOL0     C84528   7.198   0.043   1.322  0.6733 -0.4101  0.2912
  627MOL0     C84529   7.179   0.171   1.338  0.2431  0.6075  0.0291
  627MOL0     C84530   7.113   0.258   1.234 -0.4112  0.5278 -0.0502
  627MOL0     C84531   7.188   0.248   1.097  0.8956 -0.0779  0.0223
  627MOL0     C84532   7.320   0.300   1.072 -0.4362  0.3748 -0.2708
  627MOL0     C84533   7.360   0.248   0.928  0.0305 -0.6994 -0.5426
  627MOL0     O84534   7.463   0.154   0.940  0.1470  0.7958 -0.2322
  627MOL0     C84535   7.592   0.187   0.940 -1.2719  0.1352  0.3778
  627MOL0     C84536   7.647   0.280   1.028  0.1224 -1.0891 -0.0288
  627MOL0     C84537   7.784   0.303   1.035 -1.1922 -0.5267 -1.0732
  627MOL0     C84538   7.877   0.226   0.970 -0.2360 -0.4959  0.0555
  627MOL0     C84539   8.030   0.246   0.994 -0.8865 -0.3292 -0.1334
  627MOL0     O84540   8.063   0.359   1.068  0.0025 -0.3506  0.8548
  627MOL0     C84541   8.200   0.377   1.084 -0.4648  0.5725 -0.0727
  627MOL0     C84542   8.234   0.410   1.215  0.6075 -0.4825 -0.2152
  627MOL0     C84543   8.366   0.440   1.249 -0.0803 -0.5140 -0.6792
  627MOL0     C84544   8.467   0.437   1.151 -0.7909  0.0484 -0.8750
  627MOL0     O84545   8.595   0.460   1.193  0.3693 -0.2346 -0.0002
  627MOL0     C84546   8.714   0.453   1.093  0.5590 -0.0633 -0.3760
  627MOL0     C84547   8.842   0.473   1.170  0.1570  0.7066 -0.3945
  627MOL0     C84548   8.940   0.578   1.115  0.7382  0.5254  0.8714
  627MOL0     C84549   9.038   0.623   1.216 -0.5877 -0.1800 -0.6765
  627MOL0     C84550   9.127   0.734   1.171 -0.7086 -0.2429  0.5417
  627MOL0     C84551   9.064   0.871   1.178  0.2412  0.4069 -0.3400
  627MOL0     C84552   9.165   0.980   1.155 -0.5354  0.7003  0.0668
  627MOL0     C84553   9.215   1.000   1.011  0.3368  0.8197 -0.1046
  627MOL0    Cl84554   9.079   1.068   0.911  0.1190  0.1110 -0.2300
  627MOL0     C84555   8.437   0.404   1.020  0.1281  0.7968 -0.0828
  627MOL0     C84556   8.303   0.373   0.992  0.8744  0.5077  0.2097
  627MOL0     O84557   8.110   0.159   0.962 -0.7638  0.1900  0.2300
  627MOL0     C84558   7.839   0.131   0.879 -0.5252  0.3661  0.2568
  627MOL0     C84559   7.695   0.111   0.859 -0.2871 -0.0306 -0.7534
  627MOL0     N84560   7.205   0.193   1.475 -0.6831  0.7109 -1.0169
  627MOL0     N84561   7.251   0.092   1.534  0.0222  0.0688  0.2776
  627MOL0     C84562   7.675   0.104   1.358 -1.5553  0.2912 -0.6634
  627MOL0     C84563   7.577   0.201   1.396  0.0223  0.3593 -1.4994
  627MOL0     C84564   7.384   0.617   1.496  0.2692 -0.2703 -0.1876
  627MOL0     C84565   7.269   0.536   1.485  0.4448 -0.5563 -0.2910
  627MOL0     C84566   7.142   0.593   1.514  0.1851 -0.3260 -0.7404
  627MOL0     C84567   7.123   0.725   1.554 -0.4964 -0.4899 -0.1197
  627MOL0     O84568   7.019   0.767   1.623  0.3102 -0.3475  0.6237
  627MOL0     C84569   6.923   0.860   1.579 -0.6493 -0.0796  0.7214
  627MOL0     C84570   6.849   0.804   1.459  0.3552 -0.1514  0.4388
  627MOL0     C84571   6.728   0.889   1.403 -1.1154  0.6686 -0.5205
  627MOL0     C84572   6.663   0.976   1.510  0.3929 -0.6122 -0.2141
  627MOL0     C84573   6.536   1.008   1.447  0.0975  0.9632 -0.1162
  627MOL0     C84574   6.429   1.004   1.401 -0.6616  0.7549  0.0682
  627MOL0     C84575   7.239   0.801   1.567  0.0960 -0.1295 -0.1934
  627MOL0     C84576   7.366   0.756   1.535 -0.0199 -0.3500  0.6723
  627MOL0     C84577   7.480   0.851   1.565 -0.3897  0.1409  0.3112
  627MOL0     H84578   7.800   0.459   1.443 -1.4416  0.7820  0.9268
  627MOL0     H84579   7.955   0.297   1.364  0.6750 -1.0943 -1.8876
  627MOL0     H84580   7.779  -0.078   1.193 -0.7550 -1.1908  0.4385
  627MOL0     H84581   7.950  -0.117   1.171  0.2345 -1.4613  0.4005
  627MOL0     H84582   7.801  -0.125   1.448 -2.4565 -1.9463  0.6219
  627MOL0     H84583   7.962  -0.178   1.429 -0.4706  1.2412  0.4148
  627MOL0     H84584   7.854  -0.390   1.402 -0.4380 -0.0515  0.9835
  627MOL0     H84585   7.851  -0.348   1.235  0.2589  0.6440  0.4455
  627MOL0     H84586   7.640  -0.217   1.270  1.0542  0.7735  0.8293
  627MOL0     H84587   7.642  -0.400   1.259 -2.5175 -0.3356  1.3194
  627MOL0     H84588   7.631  -0.433   1.488  1.4360  1.2446  2.2581
  627MOL0     H84589   7.648  -0.266   1.526 -0.1049 -0.8103  1.1649
  627MOL0     H84590   7.418  -0.395   1.355 -1.3514  1.6637 -0.6432
  627MOL0     H84591   7.411  -0.358   1.527  1.0678  0.4076  0.4458
  627MOL0     H84592   7.398  -0.164   1.295  0.6005 -0.0231  0.5671
  627MOL0     H84593   7.482  -0.111   1.438 -1.0504  0.7981  0.3590
  627MOL0     H84594   7.194  -0.212   1.432 -2.4629  3.6834 -0.9564
  627MOL0     H84595   7.286  -0.173   1.582 -1.3841  0.7396  0.0422
  627MOL0     H84596   7.180  -0.021   1.236 -0.1642  1.9129 -1.3517
  627MOL0     H84597   7.015   0.218   1.208 -0.1874  0.4898 -0.8513
  627MOL0     H84598   7.101   0.364   1.258 -0.8701  0.5857 -0.5218
  627MOL0     H84599   7.173   0.145   1.065 -3.3776  0.6056 -0.7305
  627MOL0     H84600   7.129   0.297   1.020  0.2249  0.2629  0.7363
  627MOL0     H84601   7.386   0.281   1.157 -3.0506 -2.6728  1.2890
  627MOL0     H84602   7.308   0.409   1.077  1.4211  0.5581  1.4862
  627MOL0     H84603   7.389   0.335   0.868 -3.7565  2.2193  1.4205
  627MOL0     H84604   7.271   0.204   0.883 -1.7255  1.6586  0.3880
  627MOL0     H84605   7.582   0.349   1.081  1.9111 -0.2066  1.0912
  627MOL0     H84606   7.818   0.374   1.111  2.1847 -1.9604 -1.1006
  627MOL0     H84607   8.150   0.413   1.283 -0.0055 -1.6269 -0.9027
  627MOL0     H84608   8.393   0.457   1.353  2.6508 -0.9509 -1.2306
  627MOL0     H84609   8.723   0.360   1.036  0.9437  0.3877 -1.0721
  627MOL0     H84610   8.705   0.532   1.017 -0.2523 -1.2967 -1.6349
  627MOL0     H84611   8.825   0.482   1.278 -0.6907 -0.1056 -0.4460
  627MOL0     H84612   8.899   0.379   1.178  1.9505  1.6126 -1.8078
  627MOL0     H84613   8.992   0.530   1.031 -0.0833  0.9489  0.1036
  627MOL0     H84614   8.893   0.672   1.087 -3.2902 -1.1295  1.4265
  627MOL0     H84615   9.102   0.547   1.262  1.1476  1.2899 -0.5096
  627MOL0     H84616   8.984   0.648   1.308  1.1928 -2.5279  1.1467
  627MOL0     H84617   9.173   0.724   1.072 -0.5136  1.4700  0.4250
  627MOL0     H84618   9.213   0.737   1.239  0.9924  0.5758 -1.5288
  627MOL0     H84619   8.991   0.872   1.097  1.2341  0.6294 -1.2607
  627MOL0     H84620   9.008   0.885   1.271 -0.1797 -1.0449 -0.3522
  627MOL0     H84621   9.258   0.962   1.210 -0.6530 -0.2696 -0.0376
  627MOL0     H84622   9.118   1.073   1.188  0.2660  0.6361  1.4392
  627MOL0     H84623   9.304   1.064   1.007  1.2578 -0.4766 -1.6167
  627MOL0     H84624   9.237   0.904   0.964  0.3319  2.6903 -4.4307
  627MOL0     H84625   8.514   0.396   0.944  1.3639  1.3630  1.0654
  627MOL0     H84626   8.261   0.344   0.895 -1.1333  1.6306  0.6783
  627MOL0     H84627   7.915   0.080   0.822 -1.2835  3.3877 -3.8613
  627MOL0     H84628   7.672   0.033   0.787  4.4269 -1.9411 -0.5427
  627MOL0     H84629   7.643   0.004   1.333  1.5776 -0.2354 -3.3688
  627MOL0     H84630   7.480   0.161   1.420  0.7070  0.6012  2.1911
  627MOL0     H84631   7.274   0.435   1.447  0.9949 -1.3147  1.7151
  627MOL0     H84632   7.050   0.536   1.511  0.0488 -0.1000 -0.8565
  627MOL0     H84633   6.970   0.954   1.549  1.0203 -0.6817  1.3571
  627MOL0     H84634   6.845   0.867   1.655 -1.3587  0.4311 -0.0473
  627MOL0     H84635   6.803   0.709   1.489 -1.7037  1.0007  1.1007
  627MOL0     H84636   6.921   0.784   1.378 -0.0620  3.8554 -1.1512
  627MOL0     H84637   6.663   0.816   1.354  0.9855 -1.1611 -0.7478
  627MOL0     H84638   6.771   0.956   1.329  0.1110  1.4403  0.8307
  627MOL0     H84639   6.641   0.931   1.607 -1.2643  0.8313  0.1352
  627MOL0     H84640   6.708   1.074   1.528  0.1141 -0.2670 -1.2965
  627MOL0     H84641   6.331   0.982   1.362 -0.2396  0.9170 -1.1280
  627MOL0     H84642   7.222   0.902   1.604  0.1361 -0.9325  2.2031
  627MOL0     H84643   7.474   0.873   1.672 -0.7153 -0.7454  0.4880
  627MOL0     H84644   7.578   0.803   1.554 -0.4725  0.3068 -1.4332
  627MOL0     H84645   7.472   0.938   1.500  2.7247 -0.2725 -0.7991
  628MOL0     O84646   1.575   0.924   2.965  0.0756  0.2446  0.1001
  628MOL0     C84647   1.460   0.880   2.953  1.2609 -0.2787 -0.1806
  628MOL0     O84648   1.410   0.834   2.833  0.5711 -0.3836  0.1963
  628MOL0     C84649   1.470   0.834   2.712  0.1355 -0.2659 -0.3728
  628MOL0     C84650   1.412   0.741   2.621 -0.4756 -0.2475 -0.9967
  628MOL0     C84651   1.460   0.720   2.499 -0.2553 -0.3955 -1.0070
  628MOL0     C84652   1.564   0.796   2.452 -0.4124 -0.3223  0.2167
  628MOL0     O84653   1.631   0.780   2.336  0.3599  0.6485  0.1105
  628MOL0     C84654   1.573   0.695   2.231  1.0124  0.8862  0.3272
  628MOL0     C84655   1.671   0.704   2.105 -0.2445 -0.8889  0.0891
  628MOL0     C84656   1.738   0.846   2.092 -0.4159  0.4627  0.1118
  628MOL0     C84657   1.791   0.870   1.947  0.4313  0.1939  0.9150
  628MOL0     C84658   1.867   1.003   1.912  0.4812 -0.5027 -0.2873
  628MOL0     C84659   1.905   1.008   1.765 -0.6284 -0.0831  0.1244
  628MOL0     C84660   1.974   1.134   1.728 -0.3657  0.3768 -0.1676
  628MOL0     C84661   2.037   1.118   1.593 -0.0223 -0.2802 -0.1396
  628MOL0     N84662   2.100   1.243   1.532  0.5781  0.9708 -0.5077
  628MOL0     C84663   2.193   1.307   1.596 -0.0061 -0.1585  0.2773
  628MOL0     C84664   2.216   1.426   1.529  0.2720  0.4003 -1.2622
  628MOL0     C84665   2.317   1.538   1.566  0.3791  0.6499 -0.8544
  628MOL0     C84666   2.463   1.484   1.589  0.7165  0.2329  0.5804
  628MOL0     C84667   2.560   1.470   1.463 -0.2318 -0.8396  0.0538
  628MOL0     C84668   2.510   1.409   1.331  0.7828  0.3087 -1.8599
  628MOL0     O84669   2.599   1.424   1.223  0.7462  0.3001  0.8284
  628MOL0     C84670   2.571   1.355   1.107 -0.9832 -0.2075  0.4891
  628MOL0     C84671   2.665   1.366   0.998 -0.7010 -0.7727  0.1953
  628MOL0     C84672   2.656   1.288   0.875  1.1615 -0.8536  0.6195
  628MOL0     C84673   2.537   1.217   0.846  1.3022 -0.8111  0.0316
  628MOL0     C84674   2.511   1.157   0.717 -0.9431  0.0635  0.5615
  628MOL0     O84675   2.633   1.127   0.648 -0.3121 -0.3443  0.2879
  628MOL0     C84676   2.618   1.058   0.526  0.2296  0.0603  0.0163
  628MOL0     C84677   2.535   1.107   0.424 -0.3909 -0.0211  0.1995
  628MOL0     C84678   2.540   1.054   0.298 -0.0151 -0.2672  1.2410
  628MOL0     C84679   2.630   0.951   0.270  0.3966  0.5331  0.4091
  628MOL0     O84680   2.655   0.906   0.143  0.5504 -0.1686  0.4882
  628MOL0     C84681   2.770   0.839   0.106 -0.0839 -0.3021 -0.1317
  628MOL0     C84682   2.794   0.837  -0.041  1.0228  0.0190 -0.5025
  628MOL0     C84683   2.810   0.973  -0.102  0.0117 -0.4727 -0.3523
  628MOL0     C84684   2.946   0.980  -0.180 -1.5450 -0.2044  0.3468
  628MOL0     C84685   2.981   1.122  -0.230  0.1003 -1.1268 -0.0335
  628MOL0     C84686   3.100   1.115  -0.327  0.1905 -0.0468 -0.2408
  628MOL0     C84687   3.145   1.261  -0.361 -0.9829  0.1809 -0.6771
  628MOL0     C84688   3.281   1.248  -0.439 -0.0391 -0.0022  0.2679
  628MOL0    Cl84689   3.358   1.411  -0.440 -0.0389  0.1659 -0.3173
  628MOL0     C84690   2.706   0.898   0.373  0.1127 -0.1277 -0.0167
  628MOL0     C84691   2.701   0.955   0.500 -0.2729 -0.1398  1.1566
  628MOL0     O84692   2.403   1.106   0.693 -0.4339 -0.6136 -0.2084
  628MOL0     C84693   2.443   1.212   0.954  0.2076 -0.3808  0.4186
  628MOL0     C84694   2.460   1.273   1.076 -1.1805 -0.8187 -0.2871
  628MOL0     N84695   2.137   1.422   1.420  0.3943  0.3454 -0.5356
  628MOL0     N84696   2.069   1.313   1.424 -0.6428 -0.2177  1.4441
  628MOL0     C84697   1.615   0.904   2.527  0.8070  0.9074 -0.1741
  628MOL0     C84698   1.569   0.922   2.664  0.2621  0.4352  0.9496
  628MOL0     C84699   1.365   0.872   3.071  0.7039 -0.0198 -0.4530
  628MOL0     C84700   1.244   0.818   3.045 -0.5535  0.4381 -0.0748
  628MOL0     C84701   1.150   0.793   3.146  0.3564  0.2396 -0.1689
  628MOL0     C84702   1.177   0.823   3.280 -0.1628 -0.6739 -0.1873
  628MOL0     O84703   1.086   0.799   3.376  0.7330  0.3342 -0.0500
  628MOL0     C84704   1.110   0.841   3.510  0.1430  0.0822  0.6206
  628MOL0     C84705   0.971   0.865   3.573 -0.2663  0.4320 -0.3650
  628MOL0     C84706   0.901   0.995   3.516 -1.2148 -0.2917 -0.1833
  628MOL0     C84707   0.789   1.047   3.598  1.0119  0.8792  0.4380
  628MOL0     C84708   0.675   0.949   3.581  0.1895 -0.9519  0.7282
  628MOL0     C84709   0.584   0.865   3.578 -0.5314 -1.0553 -0.1079
  628MOL0     C84710   1.305   0.886   3.304 -0.0772 -0.3768 -0.3056
  628MOL0     C84711   1.399   0.908   3.205 -0.1427 -0.3186 -0.4715
  628MOL0     C84712   1.523   0.990   3.241 -0.3651 -0.0322 -0.6237
  628MOL0     H84713   1.337   0.674   2.663 -0.4219 -0.1866 -0.8009
  628MOL0     H84714   1.420   0.632   2.449 -2.0364  0.0988 -0.4875
  628MOL0     H84715   1.549   0.593   2.262 -0.4780  0.8345 -0.9369
  628MOL0     H84716   1.473   0.733   2.213  0.8158  1.5437  2.5002
  628MOL0     H84717   1.623   0.677   2.011 -1.0515  3.3449 -0.9139
  628MOL0     H84718   1.749   0.629   2.121 -1.0150 -1.9939 -1.1348
  628MOL0     H84719   1.821   0.853   2.163 -0.3347 -2.2721  0.3741
  628MOL0     H84720   1.665   0.926   2.104  1.5814  2.5123 -0.5086
  628MOL0     H84721   1.859   0.786   1.928  1.2895  0.6852  1.7311
  628MOL0     H84722   1.705   0.855   1.881  1.6719 -1.3140 -0.4307
  628MOL0     H84723   1.804   1.092   1.921 -1.6652 -1.4863 -3.6348
  628MOL0     H84724   1.957   1.008   1.974  1.2814 -0.3953 -1.4326
  628MOL0     H84725   1.964   0.919   1.742 -0.9963 -0.4552  0.5983
  628MOL0     H84726   1.818   0.994   1.700  1.1056 -1.2802 -2.0867
  628MOL0     H84727   2.051   1.151   1.804 -0.7855  1.6570 -0.0192
  628MOL0     H84728   1.897   1.211   1.723 -0.3198  0.3457 -1.8110
  628MOL0     H84729   2.112   1.039   1.602  1.2041  0.7650 -0.8463
  628MOL0     H84730   1.960   1.080   1.525 -1.0709 -0.3360  1.0611
  628MOL0     H84731   2.242   1.274   1.687  4.0496 -0.5590 -1.8306
  628MOL0     H84732   2.321   1.615   1.489  1.2277 -1.6431 -3.2584
  628MOL0     H84733   2.282   1.578   1.662  0.1604 -3.0554  0.8092
  628MOL0     H84734   2.499   1.555   1.664  0.8154 -0.3584  1.0930
  628MOL0     H84735   2.450   1.383   1.628 -1.4841  0.5675  0.8308
  628MOL0     H84736   2.653   1.419   1.492 -0.4282 -1.6801 -0.7639
  628MOL0     H84737   2.574   1.574   1.433 -1.5353 -1.1830 -1.9244
  628MOL0     H84738   2.412   1.451   1.307  1.0138  1.2737 -1.1858
  628MOL0     H84739   2.489   1.304   1.357  2.2922  0.1781 -1.0586
  628MOL0     H84740   2.753   1.425   1.019 -0.7559 -1.2544  2.0029
  628MOL0     H84741   2.737   1.295   0.803 -0.3168  0.0712 -1.0308
  628MOL0     H84742   2.454   1.176   0.446 -1.6583 -2.0212  2.4089
  628MOL0     H84743   2.460   1.092   0.236 -0.4444  1.4178  2.7359
  628MOL0     H84744   2.846   0.898   0.159  0.0246 -1.3391  0.8997
  628MOL0     H84745   2.773   0.736   0.141 -0.2666 -1.5124 -3.3608
  628MOL0     H84746   2.883   0.773  -0.044 -0.0765 -1.5274 -1.4478
  628MOL0     H84747   2.709   0.786  -0.086  0.5993  0.1362  0.1556
  628MOL0     H84748   2.727   0.990  -0.172 -0.1052  2.4506  0.3966
  628MOL0     H84749   2.810   1.053  -0.029  1.0103  0.0542 -0.9100
  628MOL0     H84750   2.933   0.912  -0.265  0.6252  1.7982 -1.7641
  628MOL0     H84751   3.032   0.942  -0.124 -0.0035 -0.6155 -2.1369
  628MOL0     H84752   3.002   1.190  -0.147 -0.6896 -1.5785  0.5492
  628MOL0     H84753   2.898   1.164  -0.288  1.7183  2.2013 -0.1751
  628MOL0     H84754   3.173   1.049  -0.279  1.6875  0.4706 -1.7304
  628MOL0     H84755   3.083   1.080  -0.429  1.1752  2.3536 -1.3244
  628MOL0     H84756   3.166   1.325  -0.275 -4.5070  0.3253  0.2131
  628MOL0     H84757   3.069   1.306  -0.425 -1.8348  1.6581  1.2980
  628MOL0     H84758   3.349   1.178  -0.390  1.1926  0.2162 -1.0441
  628MOL0     H84759   3.254   1.215  -0.540 -1.1433 -2.2334  1.2172
  628MOL0     H84760   2.767   0.810   0.356  1.7624  0.9402  0.1745
  628MOL0     H84761   2.767   0.920   0.578 -1.4041  0.5639  2.4787
  628MOL0     H84762   2.350   1.158   0.940  1.4314 -3.4959  2.9295
  628MOL0     H84763   2.396   1.246   1.159 -0.0214  1.6656  1.5576
  628MOL0     H84764   1.699   0.962   2.489 -0.2077  1.4370 -1.6924
  628MOL0     H84765   1.605   1.008   2.720 -2.9128  2.1166  0.6057
  628MOL0     H84766   1.211   0.785   2.947 -0.3529  4.1942 -1.6026
  628MOL0     H84767   1.051   0.756   3.121 -0.0908  1.3853 -0.1531
  628MOL0     H84768   1.168   0.934   3.512  1.1682 -0.3424 -3.0793
  628MOL0     H84769   1.166   0.760   3.558 -1.2979 -0.8981  0.7144
  628MOL0     H84770   0.998   0.876   3.679  3.6320 -0.9481 -1.0511
  628MOL0     H84771   0.903   0.780   3.564 -0.6133  0.6725 -0.0583
  628MOL0     H84772   0.873   0.960   3.417  0.0106 -0.7354 -0.3950
  628MOL0     H84773   0.979   1.071   3.512 -0.7441 -0.8070 -1.1918
  628MOL0     H84774   0.806   1.054   3.706  4.3472 -1.9296  0.2614
  628MOL0     H84775   0.759   1.144   3.558 -3.5561 -0.0987  0.9336
  628MOL0     H84776   0.499   0.800   3.568  1.2093 -3.2245 -1.7269
  628MOL0     H84777   1.339   0.923   3.400  0.7899  0.7934 -1.0316
  628MOL0     H84778   1.623   0.948   3.222  2.4124  6.2180 -2.3172
  628MOL0     H84779   1.516   1.073   3.170  5.1744 -1.9871 -4.2102
  628MOL0     H84780   1.533   1.031   3.341  5.0559 -0.4017 -0.6916
  629MOL0     O84781   8.763   0.487   8.556 -0.1440 -0.3016  0.0043
  629MOL0     C84782   8.746   0.378   8.599 -0.1024  0.7170 -0.4762
  629MOL0     O84783   8.827   0.269   8.583  0.1578 -0.8266  0.6131
  629MOL0     C84784   8.954   0.278   8.519  0.3162 -0.4064 -0.1070
  629MOL0     C84785   8.976   0.346   8.394 -0.6264  0.1073 -0.6012
  629MOL0     C84786   9.098   0.332   8.324  0.2150 -0.6520 -0.6518
  629MOL0     C84787   9.192   0.241   8.375 -0.4174  0.3665  0.1753
  629MOL0     O84788   9.305   0.199   8.315 -0.5704  0.2109 -0.2964
  629MOL0     C84789   9.347   0.268   8.200 -0.3949  0.4281 -0.4012
  629MOL0     C84790   9.451   0.186   8.133  0.2120 -0.2510  0.6696
  629MOL0     C84791   9.492   0.246   8.000 -0.5380  0.1729  0.6026
  629MOL0     C84792   9.591   0.377   8.014  0.0059  0.7870 -0.3090
  629MOL0     C84793   9.658   0.411   7.877 -0.3625  0.0516 -0.0324
  629MOL0     C84794   9.753   0.533   7.898 -0.2973  0.3063  0.0467
  629MOL0     C84795   9.868   0.536   7.791  0.2788 -0.8095  0.1879
  629MOL0     C84796   9.975   0.425   7.804 -0.1819 -0.2495  0.4566
  629MOL0     N84797  10.102   0.458   7.736 -0.0629 -0.3169 -0.8298
  629MOL0     C84798  10.128   0.438   7.603  0.4819  0.4724 -0.6877
  629MOL0     C84799  10.258   0.443   7.599  0.3289  0.4270 -0.0584
  629MOL0     C84800  10.338   0.409   7.476  0.7601  0.9998 -0.0555
  629MOL0     C84801  10.482   0.372   7.498 -0.2498  0.3375 -0.0406
  629MOL0     C84802  10.556   0.341   7.365 -0.2298 -0.6130  0.1926
  629MOL0     C84803  10.709   0.357   7.389 -1.0599  0.4187 -0.3985
  629MOL0     O84804  10.761   0.254   7.483 -0.0712 -0.0772  0.2582
  629MOL0     C84805  10.894   0.257   7.497  0.5364  0.2263 -0.4179
  629MOL0     C84806  10.969   0.376   7.519  0.5481  0.3238 -0.3708
  629MOL0     C84807  11.106   0.372   7.543  0.3753  0.1830  0.3660
  629MOL0     C84808  11.171   0.247   7.557  0.4058 -0.4248 -0.2880
  629MOL0     C84809  11.310   0.245   7.609 -0.5705 -0.4345 -0.0410
  629MOL0     O84810  11.377   0.133   7.588 -0.8075  0.1946  0.4704
  629MOL0     C84811  11.508   0.120   7.633  0.3399  0.2121  0.0234
  629MOL0     C84812  11.613   0.148   7.555  0.1084  0.0841  0.2046
  629MOL0     C84813  11.737   0.098   7.587 -0.3504 -0.0591  0.1086
  629MOL0     C84814  11.777   0.060   7.714 -0.2599  0.8778  0.7508
  629MOL0     O84815  11.905   0.022   7.749 -0.3852  0.0970  0.4440
  629MOL0     C84816  12.002   0.117   7.705 -0.1747 -0.4743  0.0381
  629MOL0     C84817  12.089   0.152   7.815  0.3216 -0.4078 -1.3127
  629MOL0     C84818  12.196   0.252   7.790  0.3044 -0.3541 -0.9690
  629MOL0     C84819  12.279   0.272   7.922 -0.1232  0.5199  0.0502
  629MOL0     C84820  12.405   0.364   7.907 -0.1820  0.7505  0.9096
  629MOL0     C84821  12.497   0.314   7.804  0.1012 -0.1919  0.6244
  629MOL0     C84822  12.637   0.390   7.795 -0.4807  0.5476  0.6506
  629MOL0     C84823  12.731   0.346   7.670  0.2003 -0.5364 -0.9997
  629MOL0    Cl84824  12.786   0.183   7.701  0.5354  0.2049 -0.0647
  629MOL0     C84825  11.667   0.045   7.802  0.5811  0.0444  0.6814
  629MOL0     C84826  11.534   0.061   7.757  0.6270 -0.4559  0.5748
  629MOL0     O84827  11.353   0.346   7.666  0.3582  0.1366 -0.1664
  629MOL0     C84828  11.097   0.126   7.540  0.8093  0.0849 -0.3194
  629MOL0     C84829  10.957   0.131   7.504  0.0647  0.5337 -0.6268
  629MOL0     N84830  10.305   0.496   7.714  0.0599  0.0079 -0.3735
  629MOL0     N84831  10.209   0.517   7.798 -0.6409 -0.2485 -0.2666
  629MOL0     C84832   9.178   0.180   8.499 -0.0931  0.0368  0.1757
  629MOL0     C84833   9.059   0.192   8.569  0.2648  0.1702 -0.0713
  629MOL0     C84834   8.617   0.345   8.680 -0.1091 -0.5478 -0.5372
  629MOL0     C84835   8.617   0.232   8.770 -0.5649 -0.4848 -0.0377
  629MOL0     C84836   8.501   0.198   8.849 -0.3257  0.4513  0.6094
  629MOL0     C84837   8.396   0.284   8.849  0.6678  0.2589  1.3875
  629MOL0     O84838   8.278   0.271   8.918 -1.2984  0.7265 -0.4240
  629MOL0     C84839   8.305   0.310   9.053 -0.0600  0.2104  0.3457
  629MOL0     C84840   8.195   0.401   9.094  0.3397  0.3230 -0.0805
  629MOL0     C84841   8.066   0.329   9.128  0.5760  0.5349  0.2481
  629MOL0     C84842   7.942   0.418   9.143  0.5016  0.0168 -0.1667
  629MOL0     C84843   7.835   0.325   9.159  0.1194 -0.3058 -0.1443
  629MOL0     C84844   7.748   0.251   9.161  0.1861  0.2631  0.1745
  629MOL0     C84845   8.390   0.379   8.750  0.2117 -0.2439 -0.6195
  629MOL0     C84846   8.491   0.420   8.672  0.8460  0.2665  0.1351
  629MOL0     C84847   8.462   0.504   8.550  0.3334  0.2714  0.3005
  629MOL0     H84848   8.904   0.406   8.340 -1.4050 -0.8895 -0.6883
  629MOL0     H84849   9.121   0.384   8.232  2.3062 -0.7268 -0.2211
  629MOL0     H84850   9.268   0.290   8.127 -0.6594  2.5376  0.4481
  629MOL0     H84851   9.386   0.364   8.235  1.5334 -0.2345 -0.6264
  629MOL0     H84852   9.417   0.083   8.127 -0.3927 -0.3265  3.6849
  629MOL0     H84853   9.538   0.169   8.197  0.6368 -3.2987 -0.5610
  629MOL0     H84854   9.409   0.273   7.936 -0.7331 -1.3784  0.1518
  629MOL0     H84855   9.543   0.165   7.947 -0.7218  0.1675  0.4345
  629MOL0     H84856   9.527   0.463   8.035  0.1965  1.0044 -0.6213
  629MOL0     H84857   9.657   0.365   8.101 -1.7057  0.7140  1.0361
  629MOL0     H84858   9.710   0.322   7.839  0.3249  0.6747 -0.5738
  629MOL0     H84859   9.585   0.434   7.800 -2.5127 -0.6010  1.7067
  629MOL0     H84860   9.708   0.632   7.892  2.2728  1.5218 -0.5961
  629MOL0     H84861   9.809   0.525   7.992 -1.5543  2.2535  1.0094
  629MOL0     H84862   9.918   0.633   7.796 -1.7008  0.6767 -4.0601
  629MOL0     H84863   9.836   0.521   7.687  2.2925  0.7369 -0.7403
  629MOL0     H84864   9.999   0.417   7.911  4.1421 -0.0925 -0.3339
  629MOL0     H84865   9.939   0.325   7.777  2.6802 -0.7009 -2.3673
  629MOL0     H84866  10.056   0.409   7.528 -5.2612  1.6958  3.7121
  629MOL0     H84867  10.282   0.331   7.423 -0.3893  2.4973 -1.1105
  629MOL0     H84868  10.332   0.490   7.403  0.0442  0.1851 -0.9180
  629MOL0     H84869  10.530   0.463   7.536  0.1847  0.2328 -0.3250
  629MOL0     H84870  10.483   0.287   7.567 -0.0299 -1.9361 -2.6747
  629MOL0     H84871  10.525   0.414   7.290 -1.0380  0.8531  1.8688
  629MOL0     H84872  10.527   0.243   7.327 -1.7535 -1.2344  2.6791
  629MOL0     H84873  10.732   0.453   7.435 -0.7957 -0.3162  1.0563
  629MOL0     H84874  10.773   0.348   7.301  0.8247  1.4958  0.7856
  629MOL0     H84875  10.923   0.474   7.514 -0.4588 -0.1853 -1.4115
  629MOL0     H84876  11.163   0.464   7.551  2.9131 -1.3235  0.7429
  629MOL0     H84877  11.606   0.193   7.456  1.9846  0.5179  0.2135
  629MOL0     H84878  11.823   0.108   7.521  0.9902  0.4850  1.8481
  629MOL0     H84879  12.062   0.087   7.618  2.2647 -0.8064  1.7347
  629MOL0     H84880  11.961   0.215   7.682 -0.2656  0.6915  4.3154
  629MOL0     H84881  12.034   0.186   7.904  1.8097  1.0576 -0.8958
  629MOL0     H84882  12.134   0.062   7.858 -0.0525 -0.3370 -0.7467
  629MOL0     H84883  12.263   0.216   7.712  1.2988 -2.5086  0.7808
  629MOL0     H84884  12.163   0.351   7.755  3.3769  1.2800  0.3352
  629MOL0     H84885  12.317   0.174   7.954  2.3580  1.6751  0.9406
  629MOL0     H84886  12.212   0.309   7.999 -0.5049  0.1887 -0.1205
  629MOL0     H84887  12.458   0.361   8.002 -1.2758 -0.9451  1.5078
  629MOL0     H84888  12.372   0.466   7.882  1.3550  1.4249  1.5102
  629MOL0     H84889  12.524   0.209   7.822  2.1501 -0.0663 -1.3166
  629MOL0     H84890  12.452   0.328   7.705  1.9763 -0.9620 -0.3794
  629MOL0     H84891  12.700   0.379   7.883  2.4758  0.2116 -1.3571
  629MOL0     H84892  12.619   0.498   7.798  1.2809  0.8445  1.6509
  629MOL0     H84893  12.675   0.357   7.577  2.6631  1.1913 -2.3678
  629MOL0     H84894  12.814   0.414   7.651 -0.5352  0.8201  0.3657
  629MOL0     H84895  11.694   0.027   7.906  0.7018 -1.2132  0.4431
  629MOL0     H84896  11.451   0.027   7.818  0.0372 -0.4660 -0.2110
  629MOL0     H84897  11.151   0.033   7.549 -0.4143 -0.5856  0.3240
  629MOL0     H84898  10.909   0.040   7.471 -1.5468  0.9976  0.3602
  629MOL0     H84899   9.252   0.107   8.529 -1.2985 -1.7657 -1.0334
  629MOL0     H84900   9.043   0.124   8.651  1.3435  1.1467  0.9792
  629MOL0     H84901   8.709   0.175   8.771  0.0836  0.4448 -2.1065
  629MOL0     H84902   8.507   0.101   8.897  0.3485 -0.7697 -1.8080
  629MOL0     H84903   8.401   0.362   9.059  0.0929  0.0773 -0.7785
  629MOL0     H84904   8.309   0.218   9.113  1.7547 -0.9096 -1.3676
  629MOL0     H84905   8.182   0.481   9.021 -0.0604  0.4453  0.1205
  629MOL0     H84906   8.222   0.454   9.186 -0.0859 -2.2487  1.6298
  629MOL0     H84907   8.076   0.269   9.219 -1.4188  0.3834  0.4115
  629MOL0     H84908   8.041   0.260   9.046 -1.2684 -2.1480  2.8543
  629MOL0     H84909   7.948   0.473   9.237  2.8927 -3.3102  1.8511
  629MOL0     H84910   7.920   0.480   9.056 -1.2996  2.2733  1.7820
  629MOL0     H84911   7.666   0.184   9.145  1.9140 -1.8519 -0.2229
  629MOL0     H84912   8.296   0.433   8.745  1.2335  1.6739 -0.0072
  629MOL0     H84913   8.361   0.493   8.509  0.4613 -0.3181  0.1473
  629MOL0     H84914   8.481   0.608   8.581  1.5067  0.0205  0.4637
  629MOL0     H84915   8.544   0.489   8.480  1.9592 -4.7893  2.8086
  630MOL0     O84916   7.106   3.813   5.065  0.6232 -0.2484 -0.9688
  630MOL0     C84917   7.143   3.874   4.962 -0.3669 -0.6956  0.1863
  630MOL0     O84918   7.266   3.885   4.919  0.2831  0.3892 -0.2956
  630MOL0     C84919   7.373   3.802   4.965 -0.0698  0.7967  0.0162
  630MOL0     C84920   7.359   3.678   5.034 -0.0087  0.5288  0.1731
  630MOL0     C84921   7.475   3.608   5.089  0.6967 -0.0169 -0.0202
  630MOL0     C84922   7.598   3.666   5.074  0.4170 -0.3645  0.4551
  630MOL0     O84923   7.719   3.614   5.127  0.5620 -0.6017  0.5167
  630MOL0     C84924   7.711   3.493   5.188 -0.0915 -0.6590  0.1670
  630MOL0     C84925   7.845   3.426   5.202 -0.2087  0.3520  0.3262
  630MOL0     C84926   7.933   3.513   5.301  0.4520  0.7903 -0.5620
  630MOL0     C84927   8.079   3.459   5.298 -0.3246 -0.6826 -0.1289
  630MOL0     C84928   8.176   3.540   5.389  0.2894 -0.2105  0.2753
  630MOL0     C84929   8.299   3.462   5.434  0.9771 -0.2411 -0.6298
  630MOL0     C84930   8.394   3.546   5.525  0.4226 -0.7850 -0.4889
  630MOL0     C84931   8.501   3.461   5.575 -0.3885 -0.4860  0.3273
  630MOL0     N84932   8.596   3.530   5.668 -0.4135 -0.4093 -0.7417
  630MOL0     C84933   8.708   3.602   5.639  0.2995 -0.1169 -0.1211
  630MOL0     C84934   8.762   3.650   5.750  1.0417  0.9050 -0.0719
  630MOL0     C84935   8.883   3.734   5.767 -1.1859  0.2241 -0.6935
  630MOL0     C84936   9.008   3.659   5.824  0.5222 -0.0397 -0.4074
  630MOL0     C84937   9.096   3.587   5.724 -0.4781  0.0166  0.2234
  630MOL0     C84938   9.227   3.547   5.789  0.1276  0.6127  0.4788
  630MOL0     O84939   9.297   3.673   5.820  0.2862 -0.7337  0.2781
  630MOL0     C84940   9.413   3.646   5.885 -0.5820 -0.1050  0.7858
  630MOL0     C84941   9.414   3.594   6.014  0.3615 -0.7015 -0.1867
  630MOL0     C84942   9.531   3.569   6.093 -0.4731 -0.1670  0.3880
  630MOL0     C84943   9.654   3.595   6.027  0.5247 -0.2450  1.3229
  630MOL0     C84944   9.782   3.577   6.100  0.0767  0.2931 -0.0106
  630MOL0     O84945   9.780   3.544   6.229 -0.1939 -0.6535  0.4023
  630MOL0     C84946   9.888   3.576   6.301 -0.3283  0.0839  0.0927
  630MOL0     C84947   9.898   3.698   6.361  0.0599 -0.2229 -0.1433
  630MOL0     C84948  10.020   3.741   6.408  0.0264 -0.2214  0.2796
  630MOL0     C84949  10.132   3.659   6.396  0.4588 -1.2242  0.0076
  630MOL0     O84950  10.253   3.714   6.432  0.0748  0.2989  0.3996
  630MOL0     C84951  10.377   3.637   6.442  0.8399 -0.0144 -1.1854
  630MOL0     C84952  10.416   3.611   6.592 -0.4349  0.8383  0.2667
  630MOL0     C84953  10.316   3.513   6.657 -1.4073 -0.0272 -0.9701
  630MOL0     C84954  10.297   3.524   6.808  0.0076 -1.3677  0.0677
  630MOL0     C84955  10.393   3.441   6.886 -0.8210 -0.0659  0.2134
  630MOL0     C84956  10.374   3.470   7.039  0.3587 -0.6434 -1.0692
  630MOL0     C84957  10.229   3.445   7.078 -0.2144 -0.2078  0.6320
  630MOL0     C84958  10.207   3.429   7.229  0.0494  0.2888 -0.3446
  630MOL0    Cl84959  10.241   3.586   7.307  0.1705  0.0815  0.1934
  630MOL0     C84960  10.118   3.533   6.345  0.0337  0.1794 -0.2857
  630MOL0     C84961   9.991   3.486   6.292  0.3159 -0.0138  0.5039
  630MOL0     O84962   9.881   3.591   6.029 -0.3477 -0.0043  0.2221
  630MOL0     C84963   9.655   3.623   5.885  0.8920  0.2861 -0.2585
  630MOL0     C84964   9.534   3.649   5.825 -0.3794 -0.6419  0.4012
  630MOL0     N84965   8.676   3.613   5.852  0.3701 -0.0379  0.9243
  630MOL0     N84966   8.569   3.554   5.801  0.0034 -0.1181 -0.0896
  630MOL0     C84967   7.611   3.787   5.008 -0.7081 -0.2282  0.6953
  630MOL0     C84968   7.501   3.851   4.954 -1.2059 -0.1935  0.2868
  630MOL0     C84969   7.045   3.938   4.871  0.4928  0.4729  0.7535
  630MOL0     C84970   7.012   3.868   4.759  1.1476  0.2494 -0.1537
  630MOL0     C84971   6.922   3.918   4.673  0.3682  0.8069  0.0675
  630MOL0     C84972   6.864   4.043   4.695  0.0264 -0.2432 -0.6129
  630MOL0     O84973   6.771   4.103   4.605 -0.1541 -0.0280  0.1658
  630MOL0     C84974   6.711   4.015   4.511 -0.6565  0.0045  0.2353
  630MOL0     C84975   6.591   4.078   4.456 -0.0091 -0.2530  0.2378
  630MOL0     C84976   6.608   4.190   4.354 -0.7227  0.1863 -0.5979
  630MOL0     C84977   6.471   4.247   4.306  0.6834 -1.1044  0.5121
  630MOL0     C84978   6.487   4.359   4.205 -0.5371 -0.7843  0.1424
  630MOL0     C84979   6.494   4.444   4.116 -0.3998 -0.4439  0.4435
  630MOL0     C84980   6.887   4.112   4.810 -0.1012  0.1997  0.0445
  630MOL0     C84981   6.985   4.063   4.897  0.5372 -0.4591 -0.6975
  630MOL0     C84982   7.024   4.140   5.018 -0.8196 -0.4689 -0.2441
  630MOL0     H84983   7.266   3.627   5.055  0.9435 -0.0978  3.3854
  630MOL0     H84984   7.469   3.510   5.136  1.2680  0.8340  1.8979
  630MOL0     H84985   7.673   3.503   5.290 -0.3992  0.5320 -0.0503
  630MOL0     H84986   7.651   3.418   5.136 -0.2695 -0.8088  0.5843
  630MOL0     H84987   7.894   3.438   5.105 -1.3428 -0.9699 -0.4357
  630MOL0     H84988   7.827   3.321   5.228 -0.2761 -0.3630 -2.3357
  630MOL0     H84989   7.891   3.504   5.402  0.3588  1.2150 -0.5574
  630MOL0     H84990   7.936   3.617   5.267  2.3783  0.6417 -0.9547
  630MOL0     H84991   8.076   3.355   5.332 -0.9358 -1.3291 -2.0605
  630MOL0     H84992   8.108   3.458   5.193 -2.0066  0.3842 -0.6466
  630MOL0     H84993   8.217   3.632   5.346  1.0964 -0.8135 -0.2727
  630MOL0     H84994   8.117   3.575   5.474 -1.3899  1.8476 -1.5891
  630MOL0     H84995   8.256   3.378   5.491 -0.1989 -0.3528 -1.6417
  630MOL0     H84996   8.356   3.429   5.347  1.7807  2.5985 -1.2792
  630MOL0     H84997   8.339   3.590   5.609 -0.2232  1.0928 -1.8377
  630MOL0     H84998   8.433   3.626   5.462  4.3492 -1.1224  1.1951
  630MOL0     H84999   8.461   3.367   5.614  0.2299 -1.4558 -1.2676
  630MOL0     H85000   8.562   3.442   5.487  2.5369 -0.8856  2.2820
  630MOL0     H85001   8.761   3.616   5.545  1.2635  0.2371  0.4524
  630MOL0     H85002   8.909   3.787   5.675 -0.8658  1.7941  0.2513
  630MOL0     H85003   8.860   3.812   5.840  0.4975 -1.9199  2.3581
  630MOL0     H85004   9.064   3.736   5.878 -0.2072  0.2416 -0.0398
  630MOL0     H85005   8.975   3.592   5.904 -2.8763  2.7555  0.7702
  630MOL0     H85006   9.114   3.658   5.643 -0.5565  0.3872  0.5307
  630MOL0     H85007   9.046   3.507   5.668  1.4273  0.9571 -3.1071
  630MOL0     H85008   9.293   3.483   5.730  0.0709  0.6080  0.4190
  630MOL0     H85009   9.210   3.494   5.883  0.7495 -2.4513 -1.0171
  630MOL0     H85010   9.322   3.604   6.071  2.1866  1.5971  2.6483
  630MOL0     H85011   9.525   3.532   6.195  3.2065  0.6980  1.0536
  630MOL0     H85012   9.807   3.757   6.365 -0.3598 -0.7800 -1.0105
  630MOL0     H85013  10.031   3.838   6.454  0.2803  0.3983 -1.0568
  630MOL0     H85014  10.376   3.544   6.384  0.1374 -0.0234 -1.1574
  630MOL0     H85015  10.450   3.709   6.402  1.3550 -1.2336 -2.5449
  630MOL0     H85016  10.521   3.578   6.594 -0.4432  0.2979 -3.1261
  630MOL0     H85017  10.408   3.714   6.628  0.1660  1.1616 -0.4920
  630MOL0     H85018  10.217   3.528   6.612 -1.1985  0.0824 -1.3954
  630MOL0     H85019  10.334   3.408   6.637 -1.8802 -0.9308  2.6604
  630MOL0     H85020  10.195   3.491   6.830 -0.0119 -0.6092  1.1724
  630MOL0     H85021  10.311   3.627   6.842 -0.9425 -0.7506 -1.3161
  630MOL0     H85022  10.496   3.457   6.855 -0.2313 -0.8272  1.7005
  630MOL0     H85023  10.384   3.334   6.863  1.1831 -0.2117 -0.0122
  630MOL0     H85024  10.436   3.410   7.106 -2.1246  1.6659  3.8833
  630MOL0     H85025  10.399   3.572   7.070 -0.4359 -1.3751  2.5223
  630MOL0     H85026  10.184   3.361   7.024 -0.9237  0.6442 -0.1454
  630MOL0     H85027  10.171   3.530   7.040  2.0895  0.4250 -1.7580
  630MOL0     H85028  10.103   3.411   7.257  0.0614 -0.1152 -0.5525
  630MOL0     H85029  10.266   3.344   7.264  0.7425  0.0738 -1.9728
  630MOL0     H85030  10.199   3.461   6.338 -0.0443  0.1415 -0.7994
  630MOL0     H85031   9.982   3.383   6.261 -1.7852  0.0035  0.9495
  630MOL0     H85032   9.753   3.635   5.841 -0.4063  2.5549 -2.8139
  630MOL0     H85033   9.546   3.695   5.728  0.2397  3.3612  2.1515
  630MOL0     H85034   7.706   3.838   4.996 -0.6945 -0.2829  0.5683
  630MOL0     H85035   7.513   3.944   4.899 -0.1621 -0.9336 -0.7874
  630MOL0     H85036   7.058   3.770   4.753  0.9613 -0.0038  1.8730
  630MOL0     H85037   6.883   3.852   4.596  0.7283  0.5829  0.0760
  630MOL0     H85038   6.672   3.921   4.549 -0.4960 -0.4261 -0.6413
  630MOL0     H85039   6.769   3.995   4.420 -1.5465 -0.3317 -0.2655
  630MOL0     H85040   6.540   4.121   4.543  0.8842  0.2062  0.5459
  630MOL0     H85041   6.526   3.997   4.421  1.3067 -0.6986 -1.2758
  630MOL0     H85042   6.681   4.158   4.278  1.7632  1.0591  1.3022
  630MOL0     H85043   6.656   4.273   4.404 -5.2924  1.6561  1.9489
  630MOL0     H85044   6.418   4.159   4.268  0.4945 -2.1042  2.9376
  630MOL0     H85045   6.411   4.288   4.387 -0.3309 -3.2182  0.8999
  630MOL0     H85046   6.510   4.527   4.051  1.5636  0.9113  2.4927
  630MOL0     H85047   6.833   4.204   4.830  1.5364  1.1388  0.3805
  630MOL0     H85048   6.972   4.236   5.026 -2.7696 -1.5590  6.1531
  630MOL0     H85049   7.005   4.084   5.110  3.3640 -0.5225  0.7825
  630MOL0     H85050   7.132   4.149   5.031 -0.5358  0.4048 -2.7708
  631MOL0     O85051   2.534  10.849   3.811  0.4137 -0.1827  0.1943
  631MOL0     C85052   2.510  10.886   3.698 -0.6353 -0.2216  0.4116
  631MOL0     O85053   2.609  10.937   3.605  0.5832  0.1579  0.0698
  631MOL0     C85054   2.750  10.930   3.632  0.3512  0.1746 -0.6425
  631MOL0     C85055   2.833  10.946   3.521  0.0311 -0.2938 -0.1629
  631MOL0     C85056   2.974  10.915   3.530 -0.2957 -0.6575  0.0968
  631MOL0     C85057   3.036  10.882   3.652  0.6109  0.2685  0.5453
  631MOL0     O85058   3.168  10.871   3.646  0.2307  0.2645 -0.6671
  631MOL0     C85059   3.241  10.819   3.760 -0.3321  0.6001 -0.1872
  631MOL0     C85060   3.384  10.800   3.733 -0.4944  0.0640 -0.3785
  631MOL0     C85061   3.461  10.928   3.749  0.1108  0.1562 -0.4405
  631MOL0     C85062   3.434  11.039   3.649 -0.0436  1.1894 -0.7576
  631MOL0     C85063   3.526  11.159   3.663 -0.4234 -0.1978  0.1016
  631MOL0     C85064   3.474  11.234   3.783  0.6529 -0.2670 -0.2597
  631MOL0     C85065   3.573  11.347   3.816  0.5643 -0.2295  0.0760
  631MOL0     C85066   3.708  11.291   3.872 -0.0908  0.1214 -0.2027
  631MOL0     N85067   3.799  11.405   3.899 -0.1021 -0.9112 -1.2150
  631MOL0     C85068   3.854  11.488   3.811  0.1238 -0.6887  0.5801
  631MOL0     C85069   3.948  11.554   3.876 -0.5249  0.2726  0.0918
  631MOL0     C85070   4.027  11.667   3.812 -0.0005 -0.0607 -0.4364
  631MOL0     C85071   4.184  11.656   3.821  0.2880 -0.3589 -0.3047
  631MOL0     C85072   4.234  11.674   3.963 -0.2006  0.3951 -0.5932
  631MOL0     C85073   4.377  11.693   3.972  0.3947  0.0582 -0.1941
  631MOL0     O85074   4.453  11.586   3.914  0.6870  0.0979 -0.1112
  631MOL0     C85075   4.576  11.616   3.862  0.1082 -0.9140 -0.0216
  631MOL0     C85076   4.648  11.510   3.809  1.6609 -0.0927 -0.2426
  631MOL0     C85077   4.789  11.523   3.763 -0.0711 -0.4494  1.2220
  631MOL0     C85078   4.850  11.648   3.769  0.8329 -0.8752 -1.0667
  631MOL0     C85079   4.995  11.659   3.733 -0.6030 -1.1680 -0.8697
  631MOL0     O85080   5.066  11.558   3.667 -0.1689  0.0868  0.0215
  631MOL0     C85081   5.197  11.564   3.630  0.3189 -0.4402  0.7858
  631MOL0     C85082   5.249  11.693   3.574  0.4766 -0.2475  0.1493
  631MOL0     C85083   5.384  11.701   3.541  0.1973 -0.6918 -0.5931
  631MOL0     C85084   5.475  11.601   3.580  0.0931  0.7480  0.0743
  631MOL0     O85085   5.611  11.624   3.562 -0.8144  0.0818  0.2984
  631MOL0     C85086   5.698  11.554   3.648 -0.3236  0.0082 -0.9265
  631MOL0     C85087   5.852  11.612   3.628  0.3418 -0.4149 -0.2882
  631MOL0     C85088   5.899  11.592   3.485  0.7461  0.2015  0.2389
  631MOL0     C85089   6.049  11.627   3.471  0.3588 -0.4994  0.6525
  631MOL0     C85090   6.103  11.608   3.332 -0.0316  0.1350  0.4331
  631MOL0     C85091   6.242  11.674   3.319  0.6326 -0.5309  0.2249
  631MOL0     C85092   6.292  11.640   3.181 -1.0017 -0.1039 -0.5924
  631MOL0     C85093   6.439  11.694   3.169 -0.7040  0.5740 -2.1212
  631MOL0    Cl85094   6.420  11.860   3.167  0.2680  0.1173  0.2544
  631MOL0     C85095   5.418  11.481   3.618  0.3187  0.2615  0.4441
  631MOL0     C85096   5.281  11.461   3.637 -0.4627  0.7394  1.4844
  631MOL0     O85097   5.049  11.762   3.776  0.4538 -0.1621 -0.5054
  631MOL0     C85098   4.775  11.752   3.827 -0.6400 -0.3328 -0.7078
  631MOL0     C85099   4.640  11.739   3.866 -0.2814  1.0092  0.3992
  631MOL0     N85100   3.947  11.513   4.012 -0.5665  0.3479 -0.6132
  631MOL0     N85101   3.855  11.427   4.022 -0.3304  0.5603  0.6577
  631MOL0     C85102   2.948  10.858   3.758  0.2256 -0.4810  0.7435
  631MOL0     C85103   2.806  10.891   3.759  0.4387 -0.2444  0.1600
  631MOL0     C85104   2.364  10.879   3.662  0.8171 -0.7608 -1.0164
  631MOL0     C85105   2.275  10.828   3.763 -0.3901  0.3706 -0.2000
  631MOL0     C85106   2.136  10.814   3.738 -0.7101  0.1500  0.7905
  631MOL0     C85107   2.076  10.841   3.613  0.1502  0.9115  0.4183
  631MOL0     O85108   1.944  10.820   3.594  0.5257 -0.1997  0.3843
  631MOL0     C85109   1.874  10.811   3.462  0.4102 -0.3044  0.3952
  631MOL0     C85110   1.726  10.768   3.484 -0.0648  0.0337 -0.0246
  631MOL0     C85111   1.731  10.633   3.553  0.0011 -0.1981 -0.1308
  631MOL0     C85112   1.607  10.548   3.519 -0.5892 -0.4155  0.2150
  631MOL0     C85113   1.488  10.619   3.575 -0.5701 -1.2414  0.1960
  631MOL0     C85114   1.399  10.672   3.630  0.4678  0.1224  1.3127
  631MOL0     C85115   2.166  10.885   3.515  0.4233 -0.1900 -0.2809
  631MOL0     C85116   2.305  10.899   3.534 -0.3280 -0.7758  0.2485
  631MOL0     C85117   2.388  10.920   3.395  0.7015  0.4021 -0.4050
  631MOL0     H85118   2.778  10.979   3.434 -3.7649 -1.3350  1.6214
  631MOL0     H85119   3.039  10.943   3.448 -1.0350  0.5672 -0.1080
  631MOL0     H85120   3.234  10.875   3.853 -0.8420 -1.1931  0.8900
  631MOL0     H85121   3.202  10.720   3.786  1.8058 -0.4822 -0.8481
  631MOL0     H85122   3.403  10.753   3.636  2.0438  4.3916 -2.2436
  631MOL0     H85123   3.431  10.740   3.811  2.4926  2.7034  0.0445
  631MOL0     H85124   3.569  10.910   3.747  0.5868  2.1894  1.7647
  631MOL0     H85125   3.443  10.958   3.853  0.4870 -0.8845 -0.0672
  631MOL0     H85126   3.457  10.990   3.554  1.6876  1.1847 -0.3645
  631MOL0     H85127   3.327  11.063   3.650 -0.7130 -1.4210 -0.0668
  631MOL0     H85128   3.632  11.135   3.679 -0.1550  0.1346 -1.1245
  631MOL0     H85129   3.523  11.227   3.578 -1.6683  1.9993  1.7908
  631MOL0     H85130   3.378  11.277   3.752  2.4988  2.1419 -3.1710
  631MOL0     H85131   3.462  11.168   3.869  1.7444 -0.9554 -0.6113
  631MOL0     H85132   3.528  11.413   3.890  1.9048 -2.2458  2.8574
  631MOL0     H85133   3.591  11.407   3.726  1.0981  0.9687  0.9512
  631MOL0     H85134   3.699  11.231   3.963  3.9475  2.5531  2.1424
  631MOL0     H85135   3.765  11.231   3.800  0.4191 -1.2585  1.2778
  631MOL0     H85136   3.839  11.482   3.703  1.1920 -4.1674  0.4899
  631MOL0     H85137   4.003  11.664   3.705 -1.3329  1.9258 -0.2510
  631MOL0     H85138   3.987  11.765   3.838  0.5330  0.2734 -0.8701
  631MOL0     H85139   4.214  11.560   3.780  0.9236 -0.8402  1.2138
  631MOL0     H85140   4.226  11.735   3.757 -2.6933 -0.4897 -2.6413
  631MOL0     H85141   4.205  11.593   4.030  1.9996  1.4184  1.7678
  631MOL0     H85142   4.198  11.766   4.010 -2.4207 -0.5974 -0.2391
  631MOL0     H85143   4.398  11.706   4.078  0.2641 -0.8355 -0.0529
  631MOL0     H85144   4.407  11.781   3.914 -0.9937  1.1220  0.6534
  631MOL0     H85145   4.606  11.410   3.808  3.1513 -0.7413  0.1213
  631MOL0     H85146   4.839  11.432   3.733 -0.8934 -0.7153  0.6267
  631MOL0     H85147   5.185  11.780   3.559 -1.6487 -1.6106  0.8333
  631MOL0     H85148   5.420  11.797   3.504  0.5628 -0.7111 -0.2967
  631MOL0     H85149   5.668  11.562   3.753  0.3835  0.9109 -0.7769
  631MOL0     H85150   5.705  11.449   3.618  3.4683  0.4608 -2.1643
  631MOL0     H85151   5.859  11.719   3.650 -1.1355 -0.3996  0.2149
  631MOL0     H85152   5.915  11.562   3.702 -1.4276 -2.0333  0.2161
  631MOL0     H85153   5.885  11.487   3.457 -1.3108  0.1896  1.0876
  631MOL0     H85154   5.835  11.649   3.417 -1.9022 -0.5333  1.9579
  631MOL0     H85155   6.115  11.570   3.537 -0.9363 -0.9514  1.5837
  631MOL0     H85156   6.051  11.733   3.497  0.2878 -0.4292  0.3787
  631MOL0     H85157   6.042  11.664   3.261  1.6185  1.5973  0.0768
  631MOL0     H85158   6.104  11.503   3.304  0.5745  0.7440 -2.0922
  631MOL0     H85159   6.230  11.778   3.350 -4.8203 -1.0641  0.9033
  631MOL0     H85160   6.297  11.620   3.397 -3.0593  0.8628  4.2377
  631MOL0     H85161   6.233  11.677   3.096  1.5748  1.2802 -1.9075
  631MOL0     H85162   6.300  11.531   3.173  0.6092  0.0466 -1.4675
  631MOL0     H85163   6.498  11.659   3.255  0.3388  0.9939 -2.6485
  631MOL0     H85164   6.491  11.666   3.077  0.8369 -2.8074 -0.4369
  631MOL0     H85165   5.483  11.396   3.633  1.7123  1.2053 -0.0607
  631MOL0     H85166   5.237  11.365   3.661 -1.5168  1.1898  1.4103
  631MOL0     H85167   4.815  11.849   3.851 -1.5859  0.1479 -1.0287
  631MOL0     H85168   4.596  11.827   3.912 -2.3859 -0.4469  1.4058
  631MOL0     H85169   2.988  10.818   3.851 -1.9529 -2.4063  0.9280
  631MOL0     H85170   2.754  10.887   3.854 -1.6901 -0.5487 -0.9572
  631MOL0     H85171   2.305  10.811   3.866  0.5355 -1.5433 -0.7359
  631MOL0     H85172   2.079  10.762   3.814 -3.0302  1.6788  0.1736
  631MOL0     H85173   1.933  10.745   3.398 -0.4421  0.7216 -1.5667
  631MOL0     H85174   1.861  10.909   3.413  2.3876 -0.5377 -0.7061
  631MOL0     H85175   1.679  10.753   3.387 -0.5558 -0.3792  0.2680
  631MOL0     H85176   1.674  10.846   3.540 -0.0565 -1.1130  1.6708
  631MOL0     H85177   1.733  10.654   3.660 -0.8729  3.2316 -0.6626
  631MOL0     H85178   1.817  10.579   3.511 -0.4873 -1.0355 -0.0558
  631MOL0     H85179   1.597  10.530   3.412 -3.4246  0.6877  0.2054
  631MOL0     H85180   1.615  10.455   3.576  2.7353  1.0023  2.4260
  631MOL0     H85181   1.312  10.721   3.669 -0.8605  0.8854 -2.2309
  631MOL0     H85182   2.132  10.891   3.412  2.6919  3.1898 -0.9861
  631MOL0     H85183   2.449  11.008   3.414 -0.3503  0.7864  1.3961
  631MOL0     H85184   2.440  10.829   3.364 -0.3464  0.4358 -2.4630
  631MOL0     H85185   2.315  10.936   3.315 -0.3360 -1.2589  0.1556
  632MOL0     O85186   7.118  10.462   8.213  0.0299 -0.1198 -0.5216
  632MOL0     C85187   7.054  10.389   8.299 -0.9197 -0.1125  0.0539
  632MOL0     O85188   7.114  10.325   8.403 -0.2674  0.4759 -0.2067
  632MOL0     C85189   7.239  10.361   8.446  0.7564 -0.6411  0.8355
  632MOL0     C85190   7.350  10.351   8.364 -0.4327  0.4868  0.8090
  632MOL0     C85191   7.472  10.413   8.403 -0.5390  0.0303 -0.2679
  632MOL0     C85192   7.472  10.484   8.527  0.7941 -0.6643 -0.5818
  632MOL0     O85193   7.587  10.532   8.585 -0.2484 -0.8239 -0.1098
  632MOL0     C85194   7.711  10.515   8.517 -0.0672  0.6557 -0.4066
  632MOL0     C85195   7.813  10.596   8.599 -0.5638 -0.3526 -1.2484
  632MOL0     C85196   7.946  10.621   8.537  0.4584  0.1096  1.1329
  632MOL0     C85197   8.038  10.504   8.538  0.0010 -0.7276 -0.3986
  632MOL0     C85198   8.137  10.513   8.426  0.1426 -0.6295  0.2192
  632MOL0     C85199   8.239  10.386   8.439  0.3788  0.2987 -0.2781
  632MOL0     C85200   8.321  10.360   8.311 -0.1692 -0.2041 -0.2067
  632MOL0     C85201   8.377  10.220   8.316  0.5380  0.1064  1.4761
  632MOL0     N85202   8.479  10.201   8.212 -0.0407  0.6351  0.3366
  632MOL0     C85203   8.477  10.104   8.114  0.1941  0.9078 -0.3842
  632MOL0     C85204   8.570  10.135   8.020  0.0986 -0.1571 -0.5007
  632MOL0     C85205   8.605  10.090   7.879  0.6019  0.1357  0.4840
  632MOL0     C85206   8.485  10.133   7.792  0.0589  0.2301  0.2239
  632MOL0     C85207   8.529  10.148   7.651 -0.5356  0.1417 -0.0066
  632MOL0     C85208   8.412  10.157   7.547  0.1750  1.1432 -1.0738
  632MOL0     O85209   8.348  10.029   7.553  0.3296  0.6041  1.0000
  632MOL0     C85210   8.274   9.986   7.444  0.8129 -0.1854  0.2293
  632MOL0     C85211   8.272   9.846   7.423  0.5775 -0.3307 -0.2044
  632MOL0     C85212   8.198   9.795   7.320 -0.2982 -0.0740  0.1235
  632MOL0     C85213   8.125   9.877   7.225  0.9447  0.3865 -0.5910
  632MOL0     C85214   8.045   9.821   7.114 -0.2675  0.0037  0.8511
  632MOL0     O85215   7.953   9.913   7.056 -0.7977 -0.0439 -0.0861
  632MOL0     C85216   7.881   9.884   6.944  0.1586  0.3025  0.5006
  632MOL0     C85217   7.940   9.811   6.838  0.4772 -1.3563  0.6961
  632MOL0     C85218   7.877   9.804   6.713 -0.0194  1.3176 -0.7673
  632MOL0     C85219   7.743   9.844   6.705 -0.1976  0.9340 -0.2234
  632MOL0     O85220   7.655   9.824   6.600  0.6028  0.2784 -0.3986
  632MOL0     C85221   7.707   9.730   6.501  0.8828  0.4108  0.6894
  632MOL0     C85222   7.589   9.692   6.416 -0.3646 -0.0910  0.0392
  632MOL0     C85223   7.632   9.629   6.289  0.4582  0.0238 -0.0019
  632MOL0     C85224   7.678   9.721   6.179 -0.0229  0.2299  0.2911
  632MOL0     C85225   7.683   9.665   6.037  0.1281 -0.3558 -0.0500
  632MOL0     C85226   7.550   9.632   5.971  0.2019  0.4084  0.0127
  632MOL0     C85227   7.568   9.601   5.825  1.7132  0.6012 -0.7373
  632MOL0     C85228   7.431   9.556   5.761  0.1944  1.2510  0.7075
  632MOL0    Cl85229   7.466   9.514   5.588  0.5722  0.0418  0.0179
  632MOL0     C85230   7.679   9.897   6.821 -0.5560 -0.2738  0.1031
  632MOL0     C85231   7.753   9.923   6.938  0.1113 -0.4049  0.6210
  632MOL0     O85232   8.060   9.706   7.081  0.2259  0.0013 -0.1167
  632MOL0     C85233   8.120  10.019   7.249 -0.2188  0.7826 -0.1396
  632MOL0     C85234   8.197  10.061   7.361 -0.1847  0.6018 -0.1429
  632MOL0     N85235   8.641  10.246   8.072  0.1789  0.5395 -0.5009
  632MOL0     N85236   8.580  10.287   8.186 -0.0474  0.2863 -0.0255
  632MOL0     C85237   7.357  10.490   8.612  0.4256 -0.6542  0.0679
  632MOL0     C85238   7.240  10.428   8.565 -0.0257  0.0491  0.5199
  632MOL0     C85239   6.907  10.380   8.292  0.5834  0.0551 -0.0938
  632MOL0     C85240   6.843  10.451   8.194 -0.7839 -0.3634 -0.0229
  632MOL0     C85241   6.708  10.454   8.174 -0.0241  0.3305  0.4430
  632MOL0     C85242   6.629  10.369   8.254  0.1927  0.1398  0.6209
  632MOL0     O85243   6.488  10.364   8.253  0.3193 -0.4012 -0.6385
  632MOL0     C85244   6.410  10.461   8.179 -0.3777  0.3586 -0.1030
  632MOL0     C85245   6.266  10.466   8.226 -0.3436  0.3803 -0.1230
  632MOL0     C85246   6.192  10.335   8.210 -0.0841  0.3214 -0.2145
  632MOL0     C85247   6.041  10.373   8.226 -0.0446 -0.0351 -0.0387
  632MOL0     C85248   5.971  10.249   8.201 -0.4383  0.3599 -0.0649
  632MOL0     C85249   5.913  10.146   8.182  0.0996 -0.0411  0.1557
  632MOL0     C85250   6.689  10.291   8.351 -0.4068  0.3586  0.4997
  632MOL0     C85251   6.826  10.288   8.373  0.6036  0.0454 -0.5185
  632MOL0     C85252   6.871  10.199   8.482  0.2100  0.3581  0.5307
  632MOL0     H85253   7.345  10.315   8.262  3.9369  2.5741 -0.3736
  632MOL0     H85254   7.562  10.419   8.343  1.3160 -0.1871  2.3699
  632MOL0     H85255   7.740  10.410   8.501 -2.3679  0.1381 -1.5858
  632MOL0     H85256   7.699  10.556   8.416  0.1086 -2.2265 -1.6944
  632MOL0     H85257   7.833  10.548   8.695 -2.7446  0.1469 -0.5096
  632MOL0     H85258   7.765  10.691   8.625 -0.7541 -1.5197  3.5837
  632MOL0     H85259   7.991  10.708   8.585  1.7411 -0.4896  1.0528
  632MOL0     H85260   7.912  10.652   8.437 -2.2147  1.8708  2.4780
  632MOL0     H85261   8.082  10.501   8.638  0.7860  0.6835 -0.6780
  632MOL0     H85262   7.984  10.409   8.525 -0.0308 -0.8145  0.3065
  632MOL0     H85263   8.083  10.512   8.331  0.5028  0.9743 -0.0283
  632MOL0     H85264   8.184  10.612   8.431  1.9561 -1.4897  1.9149
  632MOL0     H85265   8.300  10.403   8.528 -2.0068 -0.6638  1.6491
  632MOL0     H85266   8.181  10.296   8.463  0.3981 -0.0690 -1.5324
  632MOL0     H85267   8.404  10.432   8.310 -0.9384  0.7045 -1.1081
  632MOL0     H85268   8.268  10.375   8.216 -0.0449  1.0113 -0.1035
  632MOL0     H85269   8.422  10.223   8.416  1.7816  0.1207  0.9372
  632MOL0     H85270   8.299  10.144   8.305  2.1833 -1.2539 -3.8372
  632MOL0     H85271   8.399  10.028   8.109 -0.6679  1.8006 -0.8876
  632MOL0     H85272   8.698  10.131   7.840  0.4393 -1.2783 -1.6082
  632MOL0     H85273   8.603   9.980   7.872 -3.5197  0.1121 -1.2496
  632MOL0     H85274   8.406  10.058   7.791 -0.6178  0.7457  3.3604
  632MOL0     H85275   8.444  10.227   7.831 -1.6494 -0.5765  0.4775
  632MOL0     H85276   8.590  10.060   7.630 -0.4810  0.2524 -0.3160
  632MOL0     H85277   8.588  10.237   7.630 -1.5417  0.3846 -2.1119
  632MOL0     H85278   8.464  10.174   7.453  1.1812 -0.0621 -0.7544
  632MOL0     H85279   8.349  10.243   7.575 -0.3525  0.4601 -0.0728
  632MOL0     H85280   8.330   9.786   7.493  2.0929 -1.1181 -2.0582
  632MOL0     H85281   8.190   9.688   7.307 -1.3152  0.1409 -1.3269
  632MOL0     H85282   8.041   9.773   6.848  1.0645 -0.0165  0.0514
  632MOL0     H85283   7.932   9.759   6.631 -0.2156  1.2217 -0.8484
  632MOL0     H85284   7.791   9.781   6.453 -0.3603  1.6552 -0.2544
  632MOL0     H85285   7.742   9.637   6.546 -2.1740 -1.4176 -0.3720
  632MOL0     H85286   7.522   9.624   6.470  1.1865 -1.8984 -0.2061
  632MOL0     H85287   7.526   9.778   6.390 -0.2695 -0.3541 -1.1043
  632MOL0     H85288   7.705   9.550   6.308  1.5750  1.1181  0.4044
  632MOL0     H85289   7.540   9.581   6.253 -0.1253  0.4783  0.8670
  632MOL0     H85290   7.775   9.759   6.211 -0.4336  0.4050  1.3692
  632MOL0     H85291   7.613   9.809   6.173 -2.1474 -1.1332  1.8498
  632MOL0     H85292   7.747   9.576   6.036 -0.3277 -0.6838 -0.5239
  632MOL0     H85293   7.729   9.744   5.976  0.3651 -1.0603 -0.8052
  632MOL0     H85294   7.499   9.552   6.025  3.9854 -1.9826  0.4219
  632MOL0     H85295   7.491   9.724   5.978 -0.3516  0.0261  0.4154
  632MOL0     H85296   7.627   9.510   5.811  0.3677 -0.1039 -2.2120
  632MOL0     H85297   7.618   9.680   5.768  4.0505 -1.5965 -1.9264
  632MOL0     H85298   7.407   9.465   5.816  2.2783 -0.4445 -0.9955
  632MOL0     H85299   7.343   9.619   5.778 -3.5187 -3.0858 -0.3737
  632MOL0     H85300   7.573   9.921   6.816 -0.4695  0.6867  1.9514
  632MOL0     H85301   7.707   9.966   7.026  1.0427  0.4807  0.6913
  632MOL0     H85302   8.058  10.096   7.203 -2.8243 -1.3679 -0.4873
  632MOL0     H85303   8.198  10.169   7.377 -0.4225  0.5929 -0.0506
  632MOL0     H85304   7.348  10.565   8.690 -1.7469 -1.0711  0.3040
  632MOL0     H85305   7.145  10.431   8.618 -0.8466 -0.5709 -0.8531
  632MOL0     H85306   6.904  10.521   8.138  1.5523 -1.9606  0.3892
  632MOL0     H85307   6.667  10.512   8.093 -0.7970 -0.7383  0.0356
  632MOL0     H85308   6.399  10.429   8.076 -0.9147  1.3169 -0.3611
  632MOL0     H85309   6.445  10.565   8.181 -1.1836  0.6400 -0.0485
  632MOL0     H85310   6.210  10.541   8.171  1.4792  0.5669 -1.8266
  632MOL0     H85311   6.262  10.484   8.334 -1.8863 -1.8943  0.2804
  632MOL0     H85312   6.220  10.264   8.288  1.9340 -0.6025 -1.6875
  632MOL0     H85313   6.217  10.284   8.117 -1.0097 -3.9211  1.6528
  632MOL0     H85314   6.014  10.406   8.327  0.5302 -0.5709  0.2999
  632MOL0     H85315   6.016  10.448   8.150  4.3443  2.0352  0.2718
  632MOL0     H85316   5.850  10.063   8.158 -1.0410  1.0687 -0.8616
  632MOL0     H85317   6.622  10.228   8.409  0.6805 -2.5208 -1.2074
  632MOL0     H85318   6.959  10.155   8.435  1.0853  3.1579 -0.6970
  632MOL0     H85319   6.899  10.248   8.575 -0.3302  1.3255  0.2027
  632MOL0     H85320   6.790  10.127   8.498  1.5855 -1.1451  0.8790
  633MOL0     O85321   3.694   3.386   7.777  0.5721 -0.0412 -0.1249
  633MOL0     C85322   3.684   3.447   7.671  0.4581  0.5183  0.2658
  633MOL0     O85323   3.575   3.486   7.609  0.3323 -0.4511  0.1518
  633MOL0     C85324   3.446   3.471   7.659  0.2214  0.8451 -1.1715
  633MOL0     C85325   3.417   3.475   7.796  0.4449 -0.1667 -0.1360
  633MOL0     C85326   3.276   3.475   7.838 -0.6644 -0.2006 -0.0762
  633MOL0     C85327   3.174   3.469   7.748  1.0034  0.1907  0.2930
  633MOL0     O85328   3.038   3.459   7.782 -0.4318  0.3196  0.0954
  633MOL0     C85329   2.986   3.511   7.912  0.8472 -0.5895  0.2796
  633MOL0     C85330   2.835   3.478   7.926  0.9418  0.4899 -0.0639
  633MOL0     C85331   2.735   3.499   7.818 -0.2089 -0.1011  0.3157
  633MOL0     C85332   2.582   3.469   7.856 -0.1596 -0.2049 -0.3351
  633MOL0     C85333   2.536   3.526   7.999  0.2876  0.2037  0.2990
  633MOL0     C85334   2.389   3.488   8.029 -0.6006  1.3680 -0.3754
  633MOL0     C85335   2.325   3.570   8.143 -0.8995 -0.0124 -0.5689
  633MOL0     C85336   2.170   3.573   8.124 -0.4890  0.6834  0.3802
  633MOL0     N85337   2.102   3.636   8.241 -0.4029 -0.5825 -0.5277
  633MOL0     C85338   2.049   3.762   8.240 -0.4169  0.7100 -0.3586
  633MOL0     C85339   1.991   3.778   8.367  0.1906  0.2978  0.4703
  633MOL0     C85340   1.911   3.893   8.418 -0.9569  0.4592  0.4843
  633MOL0     C85341   1.773   3.833   8.459 -0.7664 -0.2439 -0.0108
  633MOL0     C85342   1.707   3.735   8.360 -0.1054  0.2739 -0.0242
  633MOL0     C85343   1.554   3.730   8.391 -0.3430  0.2310 -0.0014
  633MOL0     O85344   1.514   3.611   8.316 -0.6513 -0.7069 -0.4608
  633MOL0     C85345   1.433   3.517   8.376  0.7477 -0.3689  0.3490
  633MOL0     C85346   1.494   3.391   8.384  1.4299  0.1469  0.4246
  633MOL0     C85347   1.424   3.278   8.440  1.2311  0.0563  0.0728
  633MOL0     C85348   1.290   3.299   8.486  0.0184  0.6244 -0.4433
  633MOL0     C85349   1.214   3.191   8.550 -0.1861  0.8118  0.5251
  633MOL0     O85350   1.079   3.170   8.520  0.2289 -0.5939  0.1538
  633MOL0     C85351   1.009   3.058   8.520 -1.3574  0.1290  0.6046
  633MOL0     C85352   0.885   3.072   8.457 -0.3311  0.6109  0.4197
  633MOL0     C85353   0.795   2.969   8.445  0.8314  0.3875  0.1671
  633MOL0     C85354   0.827   2.852   8.505  0.7444  0.0669  0.0065
  633MOL0     O85355   0.735   2.754   8.517  0.3701  0.7395 -0.9042
  633MOL0     C85356   0.652   2.757   8.634 -0.3464  0.3713 -0.3769
  633MOL0     C85357   0.538   2.667   8.619 -0.9823 -0.8027 -0.2879
  633MOL0     C85358   0.463   2.692   8.486  0.8302 -0.1160 -0.8401
  633MOL0     C85359   0.320   2.622   8.505 -0.5566  0.4880  0.1282
  633MOL0     C85360   0.225   2.670   8.397  0.0483  0.2511  0.2569
  633MOL0     C85361   0.099   2.565   8.397 -0.0519  0.0754  0.0976
  633MOL0     C85362  -0.017   2.612   8.294 -0.2003  1.1535 -0.4537
  633MOL0     C85363  -0.142   2.531   8.308 -0.2668  0.2902  0.1028
  633MOL0    Cl85364  -0.137   2.350   8.273  0.3049 -0.1659  0.1341
  633MOL0     C85365   0.956   2.833   8.568 -0.1214  0.0148  0.4454
  633MOL0     C85366   1.053   2.933   8.574  0.1322 -0.0806  0.5663
  633MOL0     O85367   1.285   3.116   8.617 -0.4536 -0.6048  0.4910
  633MOL0     C85368   1.237   3.426   8.484  1.4450  0.0028 -0.4109
  633MOL0     C85369   1.308   3.539   8.430  0.3622  0.1147 -0.0661
  633MOL0     N85370   2.014   3.668   8.448  0.5597  0.3133  0.2720
  633MOL0     N85371   2.081   3.582   8.373  0.9783  0.9671 -0.5124
  633MOL0     C85372   3.211   3.457   7.611  0.0798 -0.3054  0.7420
  633MOL0     C85373   3.342   3.460   7.565 -0.3831 -0.4767 -0.1101
  633MOL0     C85374   3.814   3.465   7.611 -0.0586 -0.2382 -0.4541
  633MOL0     C85375   3.914   3.532   7.681 -0.3773  1.0618 -0.5629
  633MOL0     C85376   4.039   3.571   7.622  0.0205  0.6534  0.2373
  633MOL0     C85377   4.069   3.526   7.491 -0.0818  0.5345  0.3822
  633MOL0     O85378   4.194   3.559   7.437  0.0260  0.0168 -0.0151
  633MOL0     C85379   4.233   3.500   7.315 -0.3413  0.3686 -0.4817
  633MOL0     C85380   4.386   3.511   7.309 -0.2146  0.2843 -0.8634
  633MOL0     C85381   4.442   3.656   7.341 -0.0875  0.3341  0.1837
  633MOL0     C85382   4.591   3.661   7.366  0.3500  0.3922  0.3011
  633MOL0     C85383   4.665   3.612   7.249 -0.0747  0.0949 -0.7596
  633MOL0     C85384   4.711   3.549   7.161  0.6122 -0.5560 -1.3770
  633MOL0     C85385   3.971   3.454   7.418 -0.3679 -0.1178 -0.3053
  633MOL0     C85386   3.836   3.430   7.474  0.6505 -0.2826  0.1443
  633MOL0     C85387   3.729   3.364   7.392  0.4684  0.4888 -0.2224
  633MOL0     H85388   3.494   3.474   7.873  1.1475 -2.4595 -0.7913
  633MOL0     H85389   3.257   3.492   7.944 -1.5560  1.0411 -0.4038
  633MOL0     H85390   3.038   3.481   8.004  0.1401  2.0067  1.6470
  633MOL0     H85391   2.989   3.620   7.921  1.4787 -0.6879  1.4227
  633MOL0     H85392   2.801   3.536   8.013  1.4466 -1.3218  1.4102
  633MOL0     H85393   2.825   3.373   7.955 -0.7294  0.7643  0.5131
  633MOL0     H85394   2.765   3.438   7.732 -2.6400  3.3052 -3.3065
  633MOL0     H85395   2.745   3.601   7.781  0.3846 -0.1839  0.2337
  633MOL0     H85396   2.526   3.523   7.779  1.5932  2.2889  0.0357
  633MOL0     H85397   2.570   3.360   7.858  1.2943 -0.5330  4.6813
  633MOL0     H85398   2.597   3.492   8.082  0.7870 -0.6416 -0.4039
  633MOL0     H85399   2.549   3.635   7.999 -2.4849  0.6260 -1.1359
  633MOL0     H85400   2.335   3.512   7.937 -1.5337 -0.3286 -0.3043
  633MOL0     H85401   2.384   3.379   8.029  2.8400  0.9693  3.3733
  633MOL0     H85402   2.361   3.673   8.142  1.9772 -0.8863  1.2949
  633MOL0     H85403   2.345   3.525   8.241  0.1786 -0.9000 -1.1727
  633MOL0     H85404   2.144   3.623   8.030 -4.5135 -1.5026  0.0771
  633MOL0     H85405   2.144   3.466   8.121  3.6213 -0.4636 -1.4194
  633MOL0     H85406   2.045   3.831   8.156  3.5284  0.7800 -0.7085
  633MOL0     H85407   1.957   3.963   8.488  1.7536  0.5579 -1.2683
  633MOL0     H85408   1.884   3.962   8.337  2.0475  2.0324  0.6806
  633MOL0     H85409   1.782   3.801   8.563  2.0336 -1.0876 -0.4377
  633MOL0     H85410   1.705   3.918   8.466 -2.1245 -1.4527  2.9321
  633MOL0     H85411   1.750   3.637   8.381  1.6163  1.1722  0.8290
  633MOL0     H85412   1.726   3.761   8.255  1.4676 -1.7499 -0.2860
  633MOL0     H85413   1.488   3.805   8.345 -1.0471 -0.8094 -0.7589
  633MOL0     H85414   1.525   3.719   8.495  1.8071 -0.4200  0.5759
  633MOL0     H85415   1.592   3.380   8.338  0.3660 -0.4035 -1.8393
  633MOL0     H85416   1.477   3.183   8.442  1.4936  0.2068  1.6881
  633MOL0     H85417   0.849   3.171   8.433  0.1860  0.6393 -0.2998
  633MOL0     H85418   0.697   2.986   8.402  0.6805  0.3518  0.4952
  633MOL0     H85419   0.708   2.726   8.723  1.1322 -0.0546 -1.4307
  633MOL0     H85420   0.616   2.860   8.637 -3.0109 -0.4803 -0.4097
  633MOL0     H85421   0.585   2.569   8.614 -0.1149 -0.4316  0.2882
  633MOL0     H85422   0.479   2.683   8.710 -0.5772  2.8281 -0.5060
  633MOL0     H85423   0.452   2.798   8.466 -0.5956  0.1859  1.2486
  633MOL0     H85424   0.509   2.649   8.396 -0.4191 -1.0109 -1.0741
  633MOL0     H85425   0.271   2.641   8.601 -0.9120 -0.2806  0.1059
  633MOL0     H85426   0.338   2.515   8.493  0.2011  0.2804  2.5767
  633MOL0     H85427   0.270   2.672   8.297 -1.6041 -0.8048 -0.5526
  633MOL0     H85428   0.196   2.772   8.424  1.1501 -0.2029  3.6401
  633MOL0     H85429   0.126   2.464   8.363 -2.8385 -0.5553 -0.5042
  633MOL0     H85430   0.062   2.549   8.498  0.4310  1.4616  0.5101
  633MOL0     H85431   0.025   2.611   8.193  0.0607  0.3112 -0.3462
  633MOL0     H85432  -0.044   2.713   8.327 -3.6222  0.7219 -1.5608
  633MOL0     H85433  -0.174   2.541   8.411  2.3501 -1.6146  1.2237
  633MOL0     H85434  -0.219   2.576   8.245 -3.3625 -3.9096  0.4925
  633MOL0     H85435   0.970   2.742   8.626  0.1085  0.0218  0.4010
  633MOL0     H85436   1.137   2.916   8.641 -0.7877 -1.8649  1.3084
  633MOL0     H85437   1.139   3.450   8.524  0.7988 -3.6520  0.5811
  633MOL0     H85438   1.259   3.636   8.432  2.5801  1.3087 -0.2692
  633MOL0     H85439   3.134   3.445   7.535 -2.6445 -1.3530  3.4219
  633MOL0     H85440   3.381   3.459   7.464  2.3483 -0.4228  0.8614
  633MOL0     H85441   3.898   3.554   7.786 -1.4555 -2.3483  0.0876
  633MOL0     H85442   4.112   3.628   7.680 -0.9766  2.9671 -0.6681
  633MOL0     H85443   4.182   3.550   7.232  1.2338  3.7953  0.4132
  633MOL0     H85444   4.218   3.392   7.313  0.7024  0.1747  0.8746
  633MOL0     H85445   4.419   3.449   7.225 -1.1179 -2.4975  0.6856
  633MOL0     H85446   4.412   3.452   7.398 -1.3572  1.5450  0.3613
  633MOL0     H85447   4.398   3.706   7.428 -0.4678  1.9557 -0.8823
  633MOL0     H85448   4.410   3.726   7.263 -2.8142 -0.7590  0.1917
  633MOL0     H85449   4.604   3.768   7.385 -0.5363  0.9500 -1.9558
  633MOL0     H85450   4.619   3.590   7.444 -2.3908 -1.1058  0.0369
  633MOL0     H85451   4.742   3.500   7.071  2.2443  0.2597 -1.3002
  633MOL0     H85452   3.993   3.411   7.321 -1.3745 -1.1650 -0.0877
  633MOL0     H85453   3.669   3.294   7.450 -1.4790  1.4406 -0.9754
  633MOL0     H85454   3.666   3.443   7.348 -1.4559 -1.6291 -1.4774
  633MOL0     H85455   3.773   3.317   7.303 -0.5760 -1.1991  0.1122
  634MOL0     O85456   0.918   5.461   3.367 -0.3116 -0.4189  0.5067
  634MOL0     C85457   0.974   5.564   3.403  0.2004  0.1048  0.3713
  634MOL0     O85458   1.091   5.608   3.352 -0.0332 -0.8910  0.5421
  634MOL0     C85459   1.135   5.566   3.230 -0.2050  0.7109 -0.9106
  634MOL0     C85460   1.055   5.535   3.119  0.5551 -0.2411 -0.0796
  634MOL0     C85461   1.113   5.480   3.000  0.2483  0.4162 -0.0057
  634MOL0     C85462   1.257   5.463   2.994 -0.4422 -0.2444  0.2756
  634MOL0     O85463   1.337   5.425   2.892  0.6267  0.2399  0.7726
  634MOL0     C85464   1.265   5.401   2.766 -0.7659 -0.2249 -0.8319
  634MOL0     C85465   1.350   5.329   2.660 -0.6306 -0.7108 -0.1361
  634MOL0     C85466   1.458   5.426   2.599 -0.1954  0.7236  1.1004
  634MOL0     C85467   1.545   5.352   2.492  0.3288  0.1892 -0.3351
  634MOL0     C85468   1.678   5.432   2.467 -0.9549  0.3554  0.6056
  634MOL0     C85469   1.664   5.553   2.374 -0.5980  1.1925  0.3199
  634MOL0     C85470   1.779   5.577   2.272 -0.0677 -0.0256 -1.2600
  634MOL0     C85471   1.908   5.628   2.341  0.4914 -0.4593 -0.9723
  634MOL0     N85472   2.004   5.622   2.234 -0.6945  0.0637  0.4516
  634MOL0     C85473   2.038   5.728   2.153 -0.2285 -0.4263 -0.1154
  634MOL0     C85474   2.127   5.677   2.067 -0.0249  0.4310 -0.5928
  634MOL0     C85475   2.176   5.744   1.946 -0.0742 -0.4865  0.5207
  634MOL0     C85476   2.325   5.731   1.927  0.7062  0.0938  1.0971
  634MOL0     C85477   2.408   5.800   2.038 -1.0860 -0.3389  0.7684
  634MOL0     C85478   2.559   5.777   2.016  0.5382  0.5583  0.2066
  634MOL0     O85479   2.623   5.773   2.141  0.5524  0.0697  0.1544
  634MOL0     C85480   2.741   5.848   2.143 -1.1681  0.8613 -0.2520
  634MOL0     C85481   2.856   5.770   2.141  0.3280 -0.3237  0.0351
  634MOL0     C85482   2.979   5.833   2.131  0.5578  1.0088  0.2164
  634MOL0     C85483   2.984   5.976   2.113 -1.0774 -0.3371 -0.6455
  634MOL0     C85484   3.116   6.038   2.080 -0.5747  0.5234 -0.3210
  634MOL0     O85485   3.233   5.966   2.117  0.6971 -0.3083  0.1868
  634MOL0     C85486   3.357   6.013   2.105 -1.1537 -0.9552 -0.2270
  634MOL0     C85487   3.410   6.064   1.983 -0.3791 -0.6669  0.1806
  634MOL0     C85488   3.556   6.069   1.974  0.8062  0.1616  0.4391
  634MOL0     C85489   3.645   6.043   2.085 -0.4134  1.0384 -0.4453
  634MOL0     O85490   3.778   6.063   2.059  0.5490 -0.0916  0.2316
  634MOL0     C85491   3.873   6.058   2.170  0.4901 -0.4610  0.3421
  634MOL0     C85492   4.006   6.101   2.110  1.3055  0.0550  0.4366
  634MOL0     C85493   4.053   5.998   2.009 -0.1503 -1.2431  0.9029
  634MOL0     C85494   4.172   6.052   1.933  0.1914  0.5163 -0.6759
  634MOL0     C85495   4.240   5.941   1.845  0.3509 -0.1899  0.6390
  634MOL0     C85496   4.365   5.987   1.775  0.2982 -0.2974  0.8724
  634MOL0     C85497   4.457   5.872   1.735 -0.2433  0.9635 -0.1300
  634MOL0     C85498   4.608   5.900   1.772  0.2366  0.5908  0.6426
  634MOL0    Cl85499   4.633   5.911   1.944  0.3778 -0.3307 -0.1857
  634MOL0     C85500   3.583   6.006   2.205  0.6622  0.4122  0.4796
  634MOL0     C85501   3.437   5.988   2.211 -0.2314  0.0068 -0.0730
  634MOL0     O85502   3.110   6.153   2.033 -0.5520 -0.9218  0.1581
  634MOL0     C85503   2.867   6.050   2.111 -0.2700 -0.6203 -0.7027
  634MOL0     C85504   2.749   5.990   2.139  0.4890 -0.7684  1.0678
  634MOL0     N85505   2.147   5.546   2.104 -0.3144  0.5485  0.0337
  634MOL0     N85506   2.072   5.516   2.205  0.0894  0.5828  0.4844
  634MOL0     C85507   1.333   5.499   3.108 -0.2186  0.7526 -0.0663
  634MOL0     C85508   1.270   5.538   3.220 -0.8291 -0.5203 -0.3782
  634MOL0     C85509   0.916   5.630   3.516 -0.2915  0.0069 -1.1461
  634MOL0     C85510   1.000   5.698   3.608 -0.0662 -1.0340 -0.3598
  634MOL0     C85511   0.955   5.763   3.727 -0.1095 -0.2159 -0.0181
  634MOL0     C85512   0.819   5.761   3.754  0.3574  0.6061  0.2118
  634MOL0     O85513   0.768   5.824   3.866 -0.8430  0.5090  0.1408
  634MOL0     C85514   0.767   5.737   3.985  0.6144  0.0431 -0.4281
  634MOL0     C85515   0.828   5.794   4.109 -1.0541 -0.5102  0.0160
  634MOL0     C85516   0.984   5.801   4.084 -0.5835 -0.9898  1.0667
  634MOL0     C85517   1.059   5.842   4.216 -0.4268 -0.4496 -0.1242
  634MOL0     C85518   1.068   5.725   4.305 -1.1860 -0.2874  0.3322
  634MOL0     C85519   1.083   5.630   4.382  0.4269 -0.4807 -0.9719
  634MOL0     C85520   0.729   5.708   3.665 -0.8739  0.5707  0.9642
  634MOL0     C85521   0.780   5.639   3.547  0.2187  0.2446  0.2572
  634MOL0     C85522   0.668   5.607   3.449  0.8430  0.5221 -0.1841
  634MOL0     H85523   0.947   5.542   3.128  0.0767 -1.8291 -3.1381
  634MOL0     H85524   1.046   5.456   2.919 -1.0914  0.4669  1.0460
  634MOL0     H85525   1.176   5.341   2.786  0.0728 -1.6989 -1.2959
  634MOL0     H85526   1.226   5.497   2.731  0.7038  0.4180 -0.7814
  634MOL0     H85527   1.284   5.279   2.589  1.5346 -4.9261  0.4826
  634MOL0     H85528   1.411   5.244   2.690  2.0376 -0.0696 -3.1893
  634MOL0     H85529   1.522   5.459   2.681  2.4571 -3.2475  0.8792
  634MOL0     H85530   1.412   5.517   2.558  0.1677  0.5844  0.3597
  634MOL0     H85531   1.573   5.257   2.537  0.5321  1.1388  1.6780
  634MOL0     H85532   1.479   5.334   2.407 -2.9711 -2.5015  2.4886
  634MOL0     H85533   1.729   5.459   2.560 -1.3125  3.2789  0.0357
  634MOL0     H85534   1.733   5.352   2.416 -1.8960 -0.7349  1.2510
  634MOL0     H85535   1.573   5.540   2.316 -0.2261  0.1881 -0.0655
  634MOL0     H85536   1.641   5.639   2.438  0.0889 -1.2536  4.1985
  634MOL0     H85537   1.741   5.656   2.207 -1.1323 -0.8312 -1.6459
  634MOL0     H85538   1.799   5.490   2.209 -0.1902 -0.3839 -0.8138
  634MOL0     H85539   1.887   5.734   2.361  1.6144 -0.2382 -0.9261
  634MOL0     H85540   1.936   5.579   2.435  2.8459  1.7794 -0.3821
  634MOL0     H85541   2.007   5.832   2.161  1.2351  0.0294 -0.2153
  634MOL0     H85542   2.134   5.705   1.853  2.8684  1.0458 -1.6044
  634MOL0     H85543   2.147   5.849   1.950 -1.7273 -0.9033  0.2048
  634MOL0     H85544   2.358   5.627   1.922  4.4802  1.0355  2.5789
  634MOL0     H85545   2.341   5.780   1.831 -1.9817  0.0784  0.5615
  634MOL0     H85546   2.378   5.753   2.132 -1.0088 -4.3121 -0.9911
  634MOL0     H85547   2.395   5.908   2.032  2.6750  0.2200  0.7029
  634MOL0     H85548   2.595   5.855   1.949  0.9017 -0.9582 -1.4416
  634MOL0     H85549   2.575   5.682   1.964  3.8056  1.8989 -1.4324
  634MOL0     H85550   2.859   5.663   2.161  0.6888 -0.7790 -2.2572
  634MOL0     H85551   3.074   5.781   2.139  0.0194  0.0459  0.5099
  634MOL0     H85552   3.346   6.075   1.896  0.9027 -4.4961 -1.4927
  634MOL0     H85553   3.602   6.104   1.882 -4.9169 -2.0234 -3.8416
  634MOL0     H85554   3.837   6.134   2.240 -2.0754  0.1687 -1.5291
  634MOL0     H85555   3.887   5.962   2.220  1.2798  0.3098  1.6354
  634MOL0     H85556   3.989   6.200   2.067  2.8862  0.3042  0.3523
  634MOL0     H85557   4.083   6.125   2.184  2.7079 -0.6243 -0.7551
  634MOL0     H85558   4.084   5.912   2.068 -1.0036 -1.0607  1.6430
  634MOL0     H85559   3.985   5.985   1.924  0.3981  4.7644 -0.9676
  634MOL0     H85560   4.250   6.082   2.004  0.0462  1.1654 -0.7838
  634MOL0     H85561   4.147   6.144   1.880  1.7941  1.3225 -0.1036
  634MOL0     H85562   4.173   5.914   1.762 -0.9803 -0.5901  1.8007
  634MOL0     H85563   4.253   5.849   1.903 -1.2717 -1.7510 -1.3008
  634MOL0     H85564   4.345   6.048   1.686  0.5562  0.6967  1.4822
  634MOL0     H85565   4.423   6.061   1.829  0.2169  0.3758  0.0576
  634MOL0     H85566   4.450   5.849   1.628  1.0236  0.3598 -0.1072
  634MOL0     H85567   4.425   5.783   1.789 -2.1534  1.9152  0.4017
  634MOL0     H85568   4.664   5.820   1.724 -0.9514  0.8394 -1.2774
  634MOL0     H85569   4.649   5.995   1.737  0.1658  0.4918  0.2841
  634MOL0     H85570   3.648   5.975   2.286  0.2531 -1.7552  0.0389
  634MOL0     H85571   3.387   5.961   2.303  0.1355  1.7527  0.6637
  634MOL0     H85572   2.869   6.157   2.095  2.0000 -0.5856 -0.6101
  634MOL0     H85573   2.657   6.044   2.124  0.5526  0.0541  3.2625
  634MOL0     H85574   1.440   5.482   3.099 -0.0765  1.6399 -0.2104
  634MOL0     H85575   1.330   5.551   3.310 -2.2203 -2.1132  0.8373
  634MOL0     H85576   1.106   5.702   3.584 -0.4833  1.4045 -2.1307
  634MOL0     H85577   1.028   5.802   3.797 -0.0884  0.3405 -0.3412
  634MOL0     H85578   0.814   5.639   3.974 -1.4410 -0.9930 -0.4590
  634MOL0     H85579   0.661   5.722   4.010  1.1172 -3.2419  0.2100
  634MOL0     H85580   0.808   5.717   4.184 -3.3939  0.0606  0.0489
  634MOL0     H85581   0.800   5.893   4.146  3.1939  0.4890  1.0945
  634MOL0     H85582   1.007   5.874   4.006 -0.3229 -2.3522 -0.1584
  634MOL0     H85583   1.025   5.703   4.058  1.3307  0.6165 -2.7597
  634MOL0     H85584   1.162   5.871   4.191  0.1962 -1.3176  1.3015
  634MOL0     H85585   1.017   5.930   4.267  3.0349  0.8625  0.7422
  634MOL0     H85586   1.117   5.564   4.458 -0.7092 -1.9186 -1.6709
  634MOL0     H85587   0.621   5.710   3.676 -1.4269  0.0057 -2.9123
  634MOL0     H85588   0.607   5.518   3.466 -1.2472  1.2256 -3.1604
  634MOL0     H85589   0.598   5.692   3.453  0.8832  0.5678  3.4771
  634MOL0     H85590   0.708   5.597   3.348  1.7166  1.0951  0.0973
  635MOL0     O85591   1.505   8.550   4.755  0.2309  0.2847 -0.7804
  635MOL0     C85592   1.435   8.641   4.770  0.1519 -0.6390 -0.1370
  635MOL0     O85593   1.468   8.773   4.757 -0.5895 -0.8543  0.4012
  635MOL0     C85594   1.590   8.811   4.689  0.4183 -0.2488 -0.2294
  635MOL0     C85595   1.606   8.762   4.558 -0.1057  0.4456  0.0559
  635MOL0     C85596   1.731   8.781   4.501 -0.5270  0.7223 -0.1499
  635MOL0     C85597   1.843   8.842   4.562 -0.6170 -0.0543 -1.2996
  635MOL0     O85598   1.962   8.845   4.501 -0.0545 -0.4135 -0.2753
  635MOL0     C85599   1.960   8.844   4.352 -0.2948 -0.0088 -0.9846
  635MOL0     C85600   2.094   8.895   4.284 -0.4106  0.9692 -0.8660
  635MOL0     C85601   2.219   8.837   4.354 -0.5264  0.0604 -0.3464
  635MOL0     C85602   2.333   8.854   4.253 -0.2579  0.0651  0.0672
  635MOL0     C85603   2.457   8.814   4.328  0.2926 -0.9905  0.3222
  635MOL0     C85604   2.577   8.829   4.241 -0.5286 -0.0024  0.2194
  635MOL0     C85605   2.706   8.803   4.324 -0.2837 -0.1304 -0.2265
  635MOL0     C85606   2.720   8.649   4.353  0.0899 -0.3876  0.3311
  635MOL0     N85607   2.859   8.630   4.394 -0.7423 -0.0949  0.4212
  635MOL0     C85608   2.915   8.666   4.513 -0.4420 -0.3223  0.1347
  635MOL0     C85609   3.039   8.615   4.523 -0.6648 -0.1076 -0.2969
  635MOL0     C85610   3.131   8.595   4.644 -0.3821  0.1218  0.4741
  635MOL0     C85611   3.277   8.556   4.595  0.6465  0.6516  0.6632
  635MOL0     C85612   3.349   8.689   4.562  0.0992 -1.1307 -0.1545
  635MOL0     C85613   3.497   8.669   4.523 -0.2208 -1.0047 -0.5794
  635MOL0     O85614   3.492   8.565   4.420 -0.2289  0.1504  0.0155
  635MOL0     C85615   3.588   8.573   4.318  0.1763  0.0899 -0.4399
  635MOL0     C85616   3.709   8.631   4.351 -0.1796  0.3501 -0.2687
  635MOL0     C85617   3.805   8.648   4.254  0.5624 -0.9945  1.0342
  635MOL0     C85618   3.777   8.602   4.118 -0.4698 -0.1898  1.2476
  635MOL0     C85619   3.882   8.595   4.009 -0.5469  0.4331  0.2262
  635MOL0     O85620   4.012   8.593   4.052 -0.8753 -0.0232 -0.2728
  635MOL0     C85621   4.119   8.565   3.973 -0.3853  0.1820  0.1636
  635MOL0     C85622   4.128   8.566   3.832 -1.0398  0.0305 -0.8416
  635MOL0     C85623   4.250   8.535   3.763  0.2746  0.1338 -0.1087
  635MOL0     C85624   4.357   8.490   3.834  0.1840  0.1625  0.0697
  635MOL0     O85625   4.469   8.451   3.771 -0.3880 -0.6462 -0.0704
  635MOL0     C85626   4.596   8.468   3.838  0.3993 -0.0524  0.5428
  635MOL0     C85627   4.704   8.396   3.767  0.0601  0.4976 -0.1874
  635MOL0     C85628   4.736   8.455   3.638  0.2620 -0.3514 -0.4843
  635MOL0     C85629   4.845   8.372   3.563  0.1458 -0.0806 -0.3749
  635MOL0     C85630   4.979   8.338   3.633 -0.7958 -0.6153 -0.1374
  635MOL0     C85631   5.080   8.449   3.641  0.3206 -0.2996  0.0644
  635MOL0     C85632   5.204   8.407   3.726 -0.1005 -0.3474 -1.1069
  635MOL0     C85633   5.292   8.535   3.753 -0.1357  0.7481  0.5785
  635MOL0    Cl85634   5.335   8.613   3.596 -0.6341  0.0475  0.0054
  635MOL0     C85635   4.342   8.483   3.972 -0.8434 -0.2823 -0.1441
  635MOL0     C85636   4.234   8.528   4.039  0.3205 -1.0282  0.4961
  635MOL0     O85637   3.850   8.585   3.893  0.4134  0.2493  0.4727
  635MOL0     C85638   3.656   8.542   4.092  0.0531 -1.5164 -0.2270
  635MOL0     C85639   3.567   8.520   4.192  0.3631  0.0728  0.3509
  635MOL0     N85640   3.056   8.544   4.396  0.7742 -0.2704  0.3712
  635MOL0     N85641   2.952   8.567   4.327  0.3425 -0.3093  0.3933
  635MOL0     C85642   1.823   8.889   4.690 -0.0941 -0.9043 -0.4247
  635MOL0     C85643   1.695   8.875   4.755  0.6278  0.5101  0.0622
  635MOL0     C85644   1.281   8.622   4.779  0.0084  0.1302  0.8442
  635MOL0     C85645   1.194   8.731   4.761  0.0415  0.3790  0.3541
  635MOL0     C85646   1.049   8.714   4.775 -0.2114 -0.2696  1.0105
  635MOL0     C85647   0.990   8.592   4.805 -0.2535 -0.1385 -0.7418
  635MOL0     O85648   0.853   8.569   4.825  0.4417  0.7094  0.2959
  635MOL0     C85649   0.775   8.584   4.700  0.6941  0.1238  0.1805
  635MOL0     C85650   0.664   8.683   4.712 -0.5300  0.5631 -0.5491
  635MOL0     C85651   0.556   8.663   4.830  0.4931 -0.3241  0.3337
  635MOL0     C85652   0.419   8.707   4.783  0.4780 -0.1913 -0.0662
  635MOL0     C85653   0.365   8.600   4.701 -0.3681  0.3125 -0.5386
  635MOL0     C85654   0.317   8.509   4.629  0.2709  0.6301 -0.4731
  635MOL0     C85655   1.078   8.483   4.827  0.4047  0.4345 -0.4747
  635MOL0     C85656   1.221   8.496   4.817  0.1219  0.3463 -0.3469
  635MOL0     C85657   1.308   8.372   4.845 -0.8729 -0.1980 -0.7053
  635MOL0     H85658   1.528   8.714   4.499  1.8984  0.9957 -3.3145
  635MOL0     H85659   1.733   8.720   4.411  0.6861  0.7569 -0.1742
  635MOL0     H85660   1.942   8.744   4.313  0.5225 -1.3378  1.7683
  635MOL0     H85661   1.888   8.915   4.309  2.3868  2.1204 -2.2694
  635MOL0     H85662   2.101   9.004   4.291 -0.0278  1.1088 -2.9931
  635MOL0     H85663   2.100   8.863   4.180 -0.3990 -0.1244 -0.5520
  635MOL0     H85664   2.197   8.732   4.376  3.1307 -0.7072  0.4634
  635MOL0     H85665   2.243   8.880   4.452 -1.2255  0.2055 -0.2354
  635MOL0     H85666   2.305   8.792   4.167 -0.0882  1.3805 -0.9542
  635MOL0     H85667   2.337   8.957   4.218  1.6426 -0.2043 -0.6018
  635MOL0     H85668   2.462   8.879   4.416 -0.7833  0.7347 -0.8290
  635MOL0     H85669   2.460   8.708   4.355 -0.8385 -1.8203 -2.4665
  635MOL0     H85670   2.577   8.763   4.154  0.7884  1.3864 -0.8899
  635MOL0     H85671   2.575   8.931   4.201  3.0313  0.8083  1.6867
  635MOL0     H85672   2.707   8.859   4.418 -2.7742 -1.4950  0.7272
  635MOL0     H85673   2.801   8.832   4.280 -0.2277  1.2851  0.7685
  635MOL0     H85674   2.646   8.618   4.428 -3.2541  1.4727 -1.9193
  635MOL0     H85675   2.700   8.582   4.269 -2.9921 -0.1045  0.7278
  635MOL0     H85676   2.867   8.724   4.590 -2.5537  0.2485 -1.5306
  635MOL0     H85677   3.138   8.687   4.702  1.0402  1.3738 -1.5178
  635MOL0     H85678   3.089   8.523   4.714  3.2645  0.8517  3.7426
  635MOL0     H85679   3.318   8.489   4.671 -0.2536 -1.2909 -0.4775
  635MOL0     H85680   3.274   8.490   4.507  1.3029  1.9575 -0.3854
  635MOL0     H85681   3.340   8.765   4.640 -3.3514  1.0599 -2.4148
  635MOL0     H85682   3.302   8.730   4.472  2.0877  1.1709 -0.2606
  635MOL0     H85683   3.561   8.642   4.608  0.6797  1.7731 -0.2762
  635MOL0     H85684   3.525   8.764   4.478  6.7361 -1.8932  0.8429
  635MOL0     H85685   3.730   8.671   4.449 -2.4721  0.7432  0.1143
  635MOL0     H85686   3.899   8.702   4.265 -1.1016  2.4614 -0.3777
  635MOL0     H85687   4.052   8.603   3.763  0.0954  3.9887 -0.2632
  635MOL0     H85688   4.234   8.518   3.657 -2.2326 -0.3680  0.2721
  635MOL0     H85689   4.614   8.575   3.848  1.2780  0.3688 -3.6032
  635MOL0     H85690   4.599   8.408   3.929 -1.0232 -1.0338 -0.0244
  635MOL0     H85691   4.796   8.396   3.825  0.1937 -0.3977 -0.3817
  635MOL0     H85692   4.687   8.288   3.774  0.8273  0.4846  2.8500
  635MOL0     H85693   4.649   8.453   3.571  2.8055 -0.0188 -4.0998
  635MOL0     H85694   4.774   8.557   3.649  0.8518 -0.5902 -0.3003
  635MOL0     H85695   4.857   8.430   3.470 -3.3808  0.5541 -0.6066
  635MOL0     H85696   4.796   8.275   3.549 -1.9888  0.5057  2.2874
  635MOL0     H85697   5.029   8.250   3.591  5.7542  2.1565  0.6500
  635MOL0     H85698   4.968   8.306   3.737  5.2753 -0.9842  0.8044
  635MOL0     H85699   5.126   8.467   3.543  2.4155 -1.8208  0.6922
  635MOL0     H85700   5.034   8.543   3.673  0.7245 -0.2601  0.5426
  635MOL0     H85701   5.267   8.332   3.678 -1.8098  0.3368 -4.7700
  635MOL0     H85702   5.169   8.373   3.824 -0.3107  2.4950 -0.0851
  635MOL0     H85703   5.242   8.612   3.812  0.2023  0.5606  1.1211
  635MOL0     H85704   5.384   8.501   3.802 -0.8208 -0.6114  0.9633
  635MOL0     H85705   4.427   8.447   4.030  0.2404 -1.8013 -2.4962
  635MOL0     H85706   4.240   8.544   4.146  0.4573  0.4360  0.2960
  635MOL0     H85707   3.639   8.509   3.990 -1.1988  0.1773 -0.5896
  635MOL0     H85708   3.468   8.486   4.166  0.2627  1.1389 -0.7137
  635MOL0     H85709   1.890   8.958   4.740 -3.1927  0.8207  1.7716
  635MOL0     H85710   1.678   8.895   4.861  3.3990 -1.1323  0.9328
  635MOL0     H85711   1.227   8.828   4.724 -1.2841  0.8537  0.3902
  635MOL0     H85712   0.996   8.809   4.766  2.2577  1.1731  0.8086
  635MOL0     H85713   0.748   8.480   4.678  1.1439  0.0552 -0.0599
  635MOL0     H85714   0.840   8.614   4.617 -0.6107  1.6788 -0.3438
  635MOL0     H85715   0.614   8.684   4.615  0.4213 -1.0109 -1.0930
  635MOL0     H85716   0.710   8.782   4.721 -3.8046  2.1357  0.0051
  635MOL0     H85717   0.591   8.717   4.919  0.2189 -0.9530  0.8316
  635MOL0     H85718   0.549   8.562   4.871 -3.5203 -0.2597  0.1860
  635MOL0     H85719   0.352   8.726   4.867 -0.0966 -0.4321 -0.4660
  635MOL0     H85720   0.424   8.802   4.729  0.2304  0.8825  1.7000
  635MOL0     H85721   0.275   8.424   4.580  0.1253 -0.4690  1.4311
  635MOL0     H85722   1.031   8.386   4.840  2.3721 -0.3312  1.3592
  635MOL0     H85723   1.352   8.340   4.750 -0.2073 -1.7663  0.0986
  635MOL0     H85724   1.382   8.403   4.920  0.3656 -0.7609 -1.6602
  635MOL0     H85725   1.252   8.286   4.882 -0.3037 -0.5942 -0.7487
  636MOL0     O85726   9.584   9.129  11.141 -0.2550  0.2069  0.3066
  636MOL0     C85727   9.561   9.012  11.172 -0.3160  0.4343  0.2651
  636MOL0     O85728   9.656   8.915  11.200  0.0133 -0.9157  0.3666
  636MOL0     C85729   9.776   8.910  11.135 -0.8551 -0.8457  0.4854
  636MOL0     C85730   9.902   8.889  11.194  1.0424  0.5506  0.2050
  636MOL0     C85731  10.020   8.886  11.123  0.0056 -0.4964  0.6562
  636MOL0     C85732  10.018   8.901  10.980  1.7505 -0.2010 -1.2595
  636MOL0     O85733  10.123   8.906  10.888  0.4211 -0.1809 -0.2877
  636MOL0     C85734  10.245   8.902  10.953 -0.2969 -0.3825  0.2997
  636MOL0     C85735  10.354   8.948  10.863  0.1870  0.5280 -0.1907
  636MOL0     C85736  10.486   8.974  10.938 -0.8121  0.3834  0.0027
  636MOL0     C85737  10.601   9.004  10.835  0.4689 -0.9233 -0.6660
  636MOL0     C85738  10.734   8.979  10.913 -0.0320 -0.5989 -0.0556
  636MOL0     C85739  10.842   9.043  10.824 -0.1798 -0.0279 -0.3253
  636MOL0     C85740  10.965   9.020  10.917 -0.5474  0.3192  0.7710
  636MOL0     C85741  11.083   9.013  10.820  0.1253  0.1596  0.3965
  636MOL0     N85742  11.218   9.017  10.884  0.3455  0.2437 -0.1711
  636MOL0     C85743  11.296   9.126  10.915 -0.0097  0.2367  0.4325
  636MOL0     C85744  11.407   9.082  10.979 -0.3484  0.4244  0.6818
  636MOL0     C85745  11.523   9.162  11.027 -0.3111 -0.9533  0.8743
  636MOL0     C85746  11.647   9.088  10.982  0.0696 -0.3118  0.2460
  636MOL0     C85747  11.779   9.150  11.051  0.2297 -0.0073 -0.3816
  636MOL0     C85748  11.855   9.257  10.971  0.0374 -0.5376  0.1909
  636MOL0     O85749  11.940   9.194  10.872  0.4105  0.4364 -0.2060
  636MOL0     C85750  12.065   9.146  10.902  0.7060  0.2795 -0.3152
  636MOL0     C85751  12.148   9.117  10.789 -0.7327 -0.4743 -0.1549
  636MOL0     C85752  12.279   9.072  10.800 -0.1581 -0.1384 -0.1538
  636MOL0     C85753  12.333   9.052  10.932 -0.2907  0.3454  0.2684
  636MOL0     C85754  12.471   8.996  10.946 -1.3614 -0.6827 -1.6622
  636MOL0     O85755  12.542   8.970  10.835  0.2458 -0.4110  0.1294
  636MOL0     C85756  12.669   8.920  10.841 -0.1805  0.1746  0.5453
  636MOL0     C85757  12.688   8.832  10.730 -0.3348  0.6387 -0.1935
  636MOL0     C85758  12.810   8.768  10.713 -0.7656  0.1695  1.1582
  636MOL0     C85759  12.917   8.790  10.797  0.5917 -0.1384 -0.6195
  636MOL0     O85760  13.034   8.729  10.787  0.1787 -0.2068 -0.8056
  636MOL0     C85761  13.042   8.588  10.755 -0.2722  0.4439 -0.2251
  636MOL0     C85762  13.161   8.519  10.817 -0.0389  0.1418 -0.2695
  636MOL0     C85763  13.153   8.487  10.962 -0.2592  0.2225 -0.3675
  636MOL0     C85764  13.284   8.429  11.027  0.4978  0.8043 -0.0687
  636MOL0     C85765  13.309   8.492  11.163 -0.3985  0.7585 -0.2929
  636MOL0     C85766  13.386   8.389  11.256  0.5435  0.2839  0.0388
  636MOL0     C85767  13.371   8.443  11.405 -0.3815  0.9871  0.2720
  636MOL0     C85768  13.437   8.347  11.500 -0.5201  0.3029 -0.2447
  636MOL0    Cl85769  13.308   8.242  11.560  0.2598 -0.2225 -0.3178
  636MOL0     C85770  12.896   8.881  10.909  0.2119  0.4810 -0.8167
  636MOL0     C85771  12.777   8.953  10.921  0.2986 -0.5009  0.4493
  636MOL0     O85772  12.521   8.991  11.061 -0.3903 -0.0303 -0.0178
  636MOL0     C85773  12.262   9.095  11.044 -0.5974  0.1241 -0.4448
  636MOL0     C85774  12.125   9.134  11.030  0.3205 -0.5315 -0.7991
  636MOL0     N85775  11.385   8.942  10.995 -0.5717 -0.3979  0.0803
  636MOL0     N85776  11.280   8.909  10.929  0.2769  0.0620  0.7677
  636MOL0     C85777   9.889   8.916  10.932 -0.6625  0.4065 -0.2150
  636MOL0     C85778   9.771   8.921  10.997 -0.7784 -0.6544  0.6146
  636MOL0     C85779   9.423   8.954  11.169  0.4950 -0.0744  0.3721
  636MOL0     C85780   9.408   8.810  11.159  0.2601  0.3723  0.2239
  636MOL0     C85781   9.275   8.751  11.153 -0.5588  0.2413 -0.1099
  636MOL0     C85782   9.169   8.826  11.174 -0.1890  0.1795  1.0341
  636MOL0     O85783   9.047   8.778  11.191  0.2585  0.1558 -0.4353
  636MOL0     C85784   8.972   8.743  11.072 -0.5054 -0.0324 -0.3321
  636MOL0     C85785   8.882   8.858  11.040 -0.4049  0.0304 -1.0400
  636MOL0     C85786   8.782   8.887  11.151 -0.4077  0.0497 -0.5702
  636MOL0     C85787   8.704   8.759  11.186 -0.3732 -0.1858  0.6240
  636MOL0     C85788   8.607   8.708  11.088  0.3810  0.2685 -0.3271
  636MOL0     C85789   8.522   8.650  11.018 -0.1195  0.0139  0.3238
  636MOL0     C85790   9.182   8.969  11.176  0.5423 -0.5278 -0.2649
  636MOL0     C85791   9.307   9.029  11.180  0.7180 -0.2868  0.8618
  636MOL0     C85792   9.315   9.180  11.199 -0.2100  0.6285  1.0863
  636MOL0     H85793   9.894   8.877  11.302 -1.3971  0.6191  0.0881
  636MOL0     H85794  10.113   8.883  11.179  0.1591 -2.9633  0.3677
  636MOL0     H85795  10.229   8.969  11.038 -0.8562 -1.2435  0.8802
  636MOL0     H85796  10.260   8.799  10.985 -0.6579 -0.5291 -0.0009
  636MOL0     H85797  10.321   9.033  10.801 -0.4783 -1.0226 -2.0537
  636MOL0     H85798  10.373   8.870  10.789 -0.8938  0.6046 -0.5607
  636MOL0     H85799  10.520   8.885  10.992 -2.9934 -0.0806  0.6973
  636MOL0     H85800  10.475   9.057  11.008 -0.8742  1.0814 -0.8204
  636MOL0     H85801  10.605   8.938  10.747  0.9262  0.4924 -1.7435
  636MOL0     H85802  10.592   9.111  10.815  1.8759 -0.0955  2.4840
  636MOL0     H85803  10.739   9.030  11.010 -0.2934 -0.6378 -0.0207
  636MOL0     H85804  10.742   8.871  10.929 -2.1700 -0.4074  3.4261
  636MOL0     H85805  10.852   8.990  10.729 -0.5071  0.1831 -0.4784
  636MOL0     H85806  10.819   9.148  10.803 -0.8973  0.0542  0.8028
  636MOL0     H85807  10.970   8.927  10.974 -2.4446 -0.3080  0.0020
  636MOL0     H85808  10.958   9.104  10.987 -2.0158  1.2228 -0.3781
  636MOL0     H85809  11.072   8.924  10.758  1.3851  0.8497 -0.8819
  636MOL0     H85810  11.083   9.106  10.762 -2.1733  0.7575  1.2530
  636MOL0     H85811  11.275   9.230  10.890  0.4527 -0.1507 -1.7014
  636MOL0     H85812  11.529   9.260  10.979  2.1702 -1.9842 -1.1577
  636MOL0     H85813  11.532   9.184  11.134  1.3535 -0.8377  0.7363
  636MOL0     H85814  11.637   8.985  11.017  0.8393 -0.7400 -0.7231
  636MOL0     H85815  11.660   9.082  10.873 -1.1627  0.3045  0.0530
  636MOL0     H85816  11.840   9.061  11.070 -1.9752 -0.7189  5.3627
  636MOL0     H85817  11.755   9.198  11.146 -1.6904  0.6274 -1.1368
  636MOL0     H85818  11.914   9.329  11.028 -0.6838 -0.1665  0.4827
  636MOL0     H85819  11.779   9.312  10.915 -0.1287  0.6471  1.5141
  636MOL0     H85820  12.105   9.124  10.690  1.7229  0.9671 -1.2177
  636MOL0     H85821  12.342   9.076  10.712  0.1860  3.2370  0.1537
  636MOL0     H85822  12.615   8.833  10.649 -0.1472  3.4329 -0.4006
  636MOL0     H85823  12.822   8.717  10.618  1.3605  0.9260  0.9685
  636MOL0     H85824  12.955   8.526  10.774 -0.8122  0.9340 -1.0431
  636MOL0     H85825  13.062   8.584  10.648  0.7601 -1.5830 -0.0018
  636MOL0     H85826  13.167   8.427  10.757  0.5995 -1.1077  1.6201
  636MOL0     H85827  13.256   8.573  10.817  0.4657 -0.7179  0.2111
  636MOL0     H85828  13.111   8.572  11.016 -1.5947 -0.5802 -0.0907
  636MOL0     H85829  13.083   8.404  10.977  0.4321 -0.4193 -0.6187
  636MOL0     H85830  13.367   8.443  10.958  0.0684  0.4628 -0.6632
  636MOL0     H85831  13.260   8.324  11.047  0.3767  0.5147 -1.6675
  636MOL0     H85832  13.213   8.508  11.214 -0.4473  1.0927 -0.4863
  636MOL0     H85833  13.367   8.582  11.143 -1.9131  2.0284  0.7683
  636MOL0     H85834  13.349   8.286  11.250 -1.6873  0.8875  2.0331
  636MOL0     H85835  13.490   8.389  11.223  0.8753  2.4558  0.9481
  636MOL0     H85836  13.270   8.474  11.435 -0.7801 -1.3245  1.5737
  636MOL0     H85837  13.433   8.534  11.409  4.4329 -1.9920  2.4504
  636MOL0     H85838  13.516   8.290  11.450  0.4675  1.5225 -0.1324
  636MOL0     H85839  13.486   8.406  11.579 -1.8870 -1.1273  1.7652
  636MOL0     H85840  12.978   8.899  10.977 -0.9898  0.6123  0.6440
  636MOL0     H85841  12.757   9.022  11.003 -0.0615  1.7379 -1.4188
  636MOL0     H85842  12.310   9.100  11.141 -1.5273 -1.2855  0.1257
  636MOL0     H85843  12.072   9.166  11.119  1.5448  2.6757 -1.0650
  636MOL0     H85844   9.883   8.925  10.824  0.7805 -0.7799 -0.4229
  636MOL0     H85845   9.672   8.931  10.952  1.1797 -1.6050 -4.5784
  636MOL0     H85846   9.488   8.740  11.139  0.9091  1.0211  0.4893
  636MOL0     H85847   9.264   8.645  11.134 -0.7863  0.3056 -0.3450
  636MOL0     H85848   8.928   8.643  11.069 -0.9146  0.1368 -3.0865
  636MOL0     H85849   9.048   8.738  10.993  1.0969  1.5600  1.0375
  636MOL0     H85850   8.823   8.843  10.949 -1.6558  0.6021 -0.3619
  636MOL0     H85851   8.940   8.949  11.022  2.8042 -1.9289 -1.4055
  636MOL0     H85852   8.716   8.971  11.129 -0.0623  1.6183  3.4353
  636MOL0     H85853   8.835   8.906  11.245 -2.3066 -0.3359  0.6544
  636MOL0     H85854   8.777   8.686  11.223  4.3775  3.5132 -0.5360
  636MOL0     H85855   8.642   8.788  11.271  0.7074  0.7482  1.1081
  636MOL0     H85856   8.439   8.599  10.973 -0.3401  0.5403  0.1335
  636MOL0     H85857   9.098   9.038  11.176  1.3237  0.4842  1.5146
  636MOL0     H85858   9.378   9.213  11.282  0.7556  1.8844 -0.0897
  636MOL0     H85859   9.343   9.224  11.103 -1.5468  1.6336  1.1242
  636MOL0     H85860   9.214   9.214  11.225 -0.3884  2.1628 -1.3004
  637MOL0     O85861  10.221  10.573   9.412  0.2267  0.4739  0.0907
  637MOL0     C85862  10.118  10.588   9.346 -0.1256  0.1724  0.8292
  637MOL0     O85863  10.098  10.530   9.220 -0.5989  0.0610 -0.4095
  637MOL0     C85864  10.216  10.487   9.164 -0.3654  0.1019 -0.1168
  637MOL0     C85865  10.313  10.577   9.108 -0.0914 -0.4363  0.3571
  637MOL0     C85866  10.440  10.540   9.071  0.0417  0.9048  0.3571
  637MOL0     C85867  10.472  10.406   9.084 -0.5517 -0.0384 -0.1258
  637MOL0     O85868  10.598  10.370   9.041  0.0836 -0.7506  0.3121
  637MOL0     C85869  10.656  10.243   9.082 -0.5213  0.5410 -0.0004
  637MOL0     C85870  10.792  10.238   9.010  1.0007 -0.5970  0.7930
  637MOL0     C85871  10.902  10.341   9.055 -0.4453 -0.0499 -0.2217
  637MOL0     C85872  11.017  10.347   8.954 -0.4418 -0.5318 -0.9306
  637MOL0     C85873  11.142  10.434   8.995  0.4284  0.0256  0.1949
  637MOL0     C85874  11.227  10.403   9.119  0.0920 -1.0073 -1.1243
  637MOL0     C85875  11.335  10.515   9.129  0.6835 -0.3926  0.0840
  637MOL0     C85876  11.432  10.502   9.246  0.0770 -0.6605 -0.0575
  637MOL0     N85877  11.510  10.381   9.243 -0.3340  0.0354 -0.5542
  637MOL0     C85878  11.594  10.330   9.152 -0.3342  0.4029  0.2166
  637MOL0     C85879  11.639  10.210   9.210  0.1214 -0.1929  1.0608
  637MOL0     C85880  11.733  10.114   9.148 -0.5449  0.3868 -0.5154
  637MOL0     C85881  11.871  10.135   9.214 -0.4664 -0.6477  0.0175
  637MOL0     C85882  11.951  10.244   9.134 -0.3434 -0.0136  0.6140
  637MOL0     C85883  12.038  10.183   9.030  0.4337  0.1176  0.0555
  637MOL0     O85884  12.142  10.097   9.083 -1.1756  0.5989  0.2212
  637MOL0     C85885  12.261  10.150   9.126 -0.4319 -0.3625 -0.1450
  637MOL0     C85886  12.348  10.059   9.192  1.0524 -0.5469  0.7785
  637MOL0     C85887  12.466  10.097   9.245 -0.6721 -0.5780  0.8758
  637MOL0     C85888  12.525  10.217   9.200 -0.4487 -0.6956  1.2486
  637MOL0     C85889  12.670  10.244   9.226  0.6528  0.7906  0.2522
  637MOL0     O85890  12.710  10.371   9.188 -0.6468  0.5933 -0.7711
  637MOL0     C85891  12.842  10.406   9.222  0.2869  0.4382 -0.0509
  637MOL0     C85892  12.887  10.430   9.351  1.0148 -0.3325  1.1782
  637MOL0     C85893  13.019  10.455   9.383 -0.0861 -0.3535  0.1581
  637MOL0     C85894  13.107  10.467   9.274 -0.6634  0.2062 -0.0449
  637MOL0     O85895  13.242  10.489   9.291 -0.4782  0.1053  1.2937
  637MOL0     C85896  13.296  10.445   9.411 -0.2210 -0.9995  1.0283
  637MOL0     C85897  13.435  10.387   9.374 -0.5016 -0.4765 -0.1727
  637MOL0     C85898  13.504  10.308   9.493  0.4540 -0.6600  0.4543
  637MOL0     C85899  13.589  10.400   9.573 -0.1356 -1.0040  0.0044
  637MOL0     C85900  13.691  10.481   9.500  0.4140  0.6543  0.1247
  637MOL0     C85901  13.809  10.502   9.590 -0.3251  0.9170  0.0514
  637MOL0     C85902  13.928  10.566   9.519 -1.4798 -0.2054  0.2682
  637MOL0     C85903  14.058  10.581   9.606  0.2680 -0.0683  0.5604
  637MOL0    Cl85904  14.169  10.447   9.597  0.6089 -0.1369 -0.2162
  637MOL0     C85905  13.067  10.437   9.143 -0.3619  0.3649 -0.3681
  637MOL0     C85906  12.936  10.403   9.115  0.5589  0.1653  0.4484
  637MOL0     O85907  12.739  10.166   9.296  1.2120 -0.0119 -0.1043
  637MOL0     C85908  12.439  10.318   9.135 -0.1721 -0.4974 -0.0148
  637MOL0     C85909  12.308  10.275   9.094  0.1660  0.5538 -0.0849
  637MOL0     N85910  11.573  10.184   9.330  0.1509 -0.5574  0.1381
  637MOL0     N85911  11.497  10.286   9.341 -1.5261  0.5975 -0.5005
  637MOL0     C85912  10.381  10.312   9.136 -0.0248 -0.7608  0.1582
  637MOL0     C85913  10.249  10.353   9.186  0.5170 -1.3624 -0.0994
  637MOL0     C85914   9.998  10.653   9.405  1.1171 -1.3478  0.9462
  637MOL0     C85915  10.039  10.749   9.499  0.4645 -0.3604  0.2518
  637MOL0     C85916   9.943  10.833   9.563 -0.3803  0.0748 -0.3315
  637MOL0     C85917   9.806  10.816   9.536 -0.8146  0.4755 -0.8849
  637MOL0     O85918   9.712  10.893   9.590  0.0511 -0.6205  0.9628
  637MOL0     C85919   9.696  10.899   9.725 -0.9130  0.3100  0.4519
  637MOL0     C85920   9.549  10.882   9.769  0.7057 -0.1036  0.4810
  637MOL0     C85921   9.446  10.968   9.693  0.0960 -0.1030  0.1810
  637MOL0     C85922   9.306  10.976   9.766 -0.8062  0.3745  0.4986
  637MOL0     C85923   9.230  10.848   9.776  0.6291 -0.3665  0.2238
  637MOL0     C85924   9.184  10.734   9.781  1.2246  0.1742  0.5630
  637MOL0     C85925   9.762  10.713   9.447 -0.2462  0.3515 -0.4945
  637MOL0     C85926   9.860  10.634   9.377 -0.1485 -0.2115 -0.6301
  637MOL0     C85927   9.811  10.529   9.283  1.0683  0.1906  0.2632
  637MOL0     H85928  10.297  10.683   9.090 -1.1441 -0.9548 -2.1700
  637MOL0     H85929  10.504  10.613   9.022 -1.8477  2.4798  0.1407
  637MOL0     H85930  10.670  10.243   9.191  0.4503 -1.9548 -0.0633
  637MOL0     H85931  10.587  10.163   9.052 -1.6251  1.2340  0.6102
  637MOL0     H85932  10.767  10.246   8.904  1.8171  0.9632  0.6936
  637MOL0     H85933  10.824  10.134   9.020 -2.1889 -1.5186  2.9853
  637MOL0     H85934  10.934  10.317   9.156 -4.4030  1.1862  1.5283
  637MOL0     H85935  10.864  10.443   9.068 -1.0130 -0.3154  0.2101
  637MOL0     H85936  11.058  10.247   8.932 -1.4649 -0.8710 -1.3449
  637MOL0     H85937  10.975  10.388   8.862  0.6360  1.6706 -0.5078
  637MOL0     H85938  11.214  10.435   8.913 -0.6729  0.0894 -0.7929
  637MOL0     H85939  11.114  10.540   9.004 -0.3496 -0.1596  0.0147
  637MOL0     H85940  11.171  10.393   9.212  2.1362 -2.9153 -0.0189
  637MOL0     H85941  11.290  10.314   9.111  3.0677  0.8917 -0.1632
  637MOL0     H85942  11.286  10.613   9.129  1.4562  0.0254 -1.7180
  637MOL0     H85943  11.396  10.511   9.038 -0.4086 -2.4699 -0.6079
  637MOL0     H85944  11.512  10.578   9.242 -0.1653 -0.2428  1.9908
  637MOL0     H85945  11.386  10.508   9.345  2.6693 -1.7378  1.3175
  637MOL0     H85946  11.626  10.370   9.056 -0.3392 -3.9893 -1.8907
  637MOL0     H85947  11.699  10.011   9.158  0.0976  0.1063 -1.1376
  637MOL0     H85948  11.738  10.118   9.039 -0.3711 -0.4328 -0.5369
  637MOL0     H85949  11.857  10.172   9.316 -3.1841  0.2925 -0.6291
  637MOL0     H85950  11.928  10.042   9.224  1.1229  0.2459 -0.3149
  637MOL0     H85951  12.021  10.303   9.194 -1.5286  0.2787  1.7286
  637MOL0     H85952  11.892  10.329   9.098  1.3070  0.2287 -1.7682
  637MOL0     H85953  12.076  10.261   8.963 -2.9954  1.5286 -0.4733
  637MOL0     H85954  11.972  10.124   8.966  0.2410 -0.0919  0.4465
  637MOL0     H85955  12.307   9.960   9.211 -2.6554  1.2783  3.7163
  637MOL0     H85956  12.521  10.036   9.316  1.1163 -0.1183 -0.0237
  637MOL0     H85957  12.813  10.441   9.430 -0.5601  1.5808 -0.4606
  637MOL0     H85958  13.039  10.463   9.489  1.1871  0.7503 -0.1443
  637MOL0     H85959  13.301  10.527   9.483 -1.5859  0.6158 -0.6067
  637MOL0     H85960  13.237  10.368   9.460 -0.2141 -1.7849 -0.1423
  637MOL0     H85961  13.426  10.310   9.297 -0.6081 -1.5131  0.8466
  637MOL0     H85962  13.499  10.464   9.330  0.0541 -0.9843 -0.2815
  637MOL0     H85963  13.431  10.253   9.553 -3.2268 -0.5692 -3.5250
  637MOL0     H85964  13.565  10.239   9.434 -2.4889 -2.3887 -0.7491
  637MOL0     H85965  13.634  10.328   9.642 -0.9946  0.2921  1.9869
  637MOL0     H85966  13.530  10.467   9.636  1.4478  2.1852 -1.6020
  637MOL0     H85967  13.642  10.571   9.462 -2.4334  0.1263  2.1702
  637MOL0     H85968  13.721  10.423   9.412 -1.5027 -0.9666  0.4520
  637MOL0     H85969  13.779  10.562   9.676 -0.2055  0.4708  0.4102
  637MOL0     H85970  13.854  10.411   9.630  2.0361  1.5881 -0.9009
  637MOL0     H85971  13.886  10.662   9.486 -1.3239  0.0279  0.7368
  637MOL0     H85972  13.968  10.500   9.442 -0.0687 -0.5560  1.2793
  637MOL0     H85973  14.121  10.663   9.572  2.6769 -1.6468  0.9436
  637MOL0     H85974  14.034  10.609   9.709  0.4947 -0.3660  0.6954
  637MOL0     H85975  13.136  10.452   9.061  0.1659  2.2783  0.3779
  637MOL0     H85976  12.904  10.386   9.012  2.3918 -1.6422  0.1077
  637MOL0     H85977  12.472  10.421   9.123  0.2259 -0.4500  1.3018
  637MOL0     H85978  12.249  10.347   9.038  1.1180  1.2686 -0.2102
  637MOL0     H85979  10.402  10.206   9.151 -0.2574 -0.5437  2.3239
  637MOL0     H85980  10.181  10.280   9.228  1.3527 -2.4510 -0.5576
  637MOL0     H85981  10.142  10.762   9.530  0.2657 -1.5810  1.5246
  637MOL0     H85982   9.977  10.899   9.642  1.1153  2.7201 -2.9829
  637MOL0     H85983   9.731  10.997   9.759  2.2531 -0.6021  0.1437
  637MOL0     H85984   9.757  10.820   9.771 -0.5639 -1.1660 -2.3184
  637MOL0     H85985   9.549  10.903   9.876 -0.5916  0.1475  0.4505
  637MOL0     H85986   9.528  10.775   9.764  1.5784 -0.2673  0.0862
  637MOL0     H85987   9.435  10.934   9.590 -2.0290 -0.0832  0.3533
  637MOL0     H85988   9.482  11.071   9.680 -2.6834  0.5342 -6.3383
  637MOL0     H85989   9.327  11.035   9.856 -2.6199  4.6511 -1.5798
  637MOL0     H85990   9.250  11.042   9.699  2.4648  3.0562  0.0728
  637MOL0     H85991   9.152  10.632   9.786  1.6189 -0.1761 -2.3470
  637MOL0     H85992   9.656  10.707   9.427 -0.7415  0.7343  1.8092
  637MOL0     H85993   9.839  10.425   9.305 -6.3575 -2.1712  1.1709
  637MOL0     H85994   9.703  10.530   9.296  1.3958  1.1955  4.6806
  637MOL0     H85995   9.824  10.562   9.180 -1.0909 -1.1267 -0.4776
  638MOL0     O85996   5.134   3.475   1.788 -0.4757 -0.4034 -0.4953
  638MOL0     C85997   5.218   3.556   1.766 -0.8519 -0.7359  0.1501
  638MOL0     O85998   5.190   3.676   1.705 -0.5043  0.0562 -0.4036
  638MOL0     C85999   5.059   3.711   1.702 -0.6767  0.4409 -0.7777
  638MOL0     C86000   4.961   3.652   1.620  0.4211 -0.3101 -0.1708
  638MOL0     C86001   4.833   3.699   1.593  0.7969 -0.5312 -0.2037
  638MOL0     C86002   4.790   3.809   1.665 -0.7832  0.1328  0.6093
  638MOL0     O86003   4.660   3.847   1.645 -0.3578  0.5072 -0.3788
  638MOL0     C86004   4.591   3.943   1.743 -0.1869  0.9681 -0.1247
  638MOL0     C86005   4.502   3.868   1.840 -0.3269  0.7721  0.5869
  638MOL0     C86006   4.394   3.779   1.768 -0.8444 -0.7224 -0.3699
  638MOL0     C86007   4.254   3.840   1.782  0.6370  0.2469 -0.6115
  638MOL0     C86008   4.133   3.742   1.758 -0.3954 -0.6606 -0.1852
  638MOL0     C86009   4.119   3.710   1.604  1.0311  0.0687 -0.1399
  638MOL0     C86010   4.130   3.827   1.503 -0.0524 -0.4753  0.0400
  638MOL0     C86011   4.036   3.953   1.539 -0.0747  0.1426 -0.2880
  638MOL0     N86012   3.898   3.916   1.531 -0.7922  0.1617  0.1848
  638MOL0     C86013   3.845   3.901   1.407  0.5481  0.8934 -0.5662
  638MOL0     C86014   3.733   3.830   1.439 -0.1367 -0.4303 -0.1665
  638MOL0     C86015   3.628   3.777   1.346 -0.1907 -0.2429 -0.0971
  638MOL0     C86016   3.496   3.843   1.361 -0.7878 -0.1198 -0.2875
  638MOL0     C86017   3.378   3.781   1.290 -0.8240  0.0639  0.5774
  638MOL0     C86018   3.250   3.864   1.312  0.4332 -0.2941  0.5778
  638MOL0     O86019   3.142   3.786   1.270  0.2390  0.0163 -0.8625
  638MOL0     C86020   3.098   3.816   1.141 -0.1713  0.4870 -0.0733
  638MOL0     C86021   3.144   3.735   1.041 -0.7464  0.4178 -0.3702
  638MOL0     C86022   3.103   3.759   0.912 -0.0794 -0.7172 -0.0560
  638MOL0     C86023   3.020   3.863   0.880  1.0479 -0.5955  0.4754
  638MOL0     C86024   2.990   3.894   0.736 -0.9814  0.8131  0.7224
  638MOL0     O86025   3.065   3.819   0.650  0.4335  0.2182  0.9399
  638MOL0     C86026   3.061   3.864   0.514 -0.3981  0.5404  0.5793
  638MOL0     C86027   3.084   4.001   0.486 -0.3106 -0.1738 -0.5060
  638MOL0     C86028   3.098   4.042   0.357  0.3017  0.5424  0.0235
  638MOL0     C86029   3.085   3.953   0.252  0.3135  0.4100 -0.6096
  638MOL0     O86030   3.072   4.016   0.134  0.1731 -0.8162 -0.1336
  638MOL0     C86031   3.147   3.958   0.030  0.7669  0.3716  0.6295
  638MOL0     C86032   3.106   4.032  -0.107  0.4279  0.3597  0.2038
  638MOL0     C86033   2.948   4.044  -0.135  0.7121 -0.2481 -0.1931
  638MOL0     C86034   2.904   4.150  -0.227  0.5449  0.1332 -0.1625
  638MOL0     C86035   2.758   4.196  -0.217  0.1835 -0.1029 -0.9048
  638MOL0     C86036   2.716   4.293  -0.329  0.2240  0.1951 -0.2172
  638MOL0     C86037   2.568   4.278  -0.366 -0.2727 -0.3445 -0.4151
  638MOL0     C86038   2.529   4.383  -0.470 -0.0201  0.1280 -0.3080
  638MOL0    Cl86039   2.497   4.537  -0.381  0.3545  0.2597 -0.4568
  638MOL0     C86040   3.055   3.820   0.274  0.1035  0.2518 -0.9677
  638MOL0     C86041   3.039   3.775   0.407 -0.6241  0.5820 -0.3339
  638MOL0     O86042   2.904   3.983   0.714 -0.1262 -0.1755  0.1777
  638MOL0     C86043   2.980   3.947   0.976 -0.1318  0.0071 -0.0185
  638MOL0     C86044   3.009   3.919   1.108 -0.3056  0.6046 -0.2558
  638MOL0     N86045   3.733   3.804   1.578  0.3270 -0.2100 -0.9755
  638MOL0     N86046   3.825   3.862   1.632 -0.3982 -0.1022  0.3007
  638MOL0     C86047   4.883   3.878   1.747  0.2697 -0.3116 -0.1292
  638MOL0     C86048   5.016   3.821   1.762  0.9202  0.1143 -0.6467
  638MOL0     C86049   5.363   3.520   1.798  0.5623  0.5403 -0.0993
  638MOL0     C86050   5.464   3.596   1.739 -0.0580 -0.7816 -0.0206
  638MOL0     C86051   5.599   3.565   1.760 -0.1399 -1.3414 -0.4612
  638MOL0     C86052   5.644   3.451   1.824 -0.5358  0.6289  0.0817
  638MOL0     O86053   5.781   3.446   1.836  0.0166  0.0092  0.1538
  638MOL0     C86054   5.839   3.351   1.928  1.0982  0.1518 -0.4711
  638MOL0     C86055   5.839   3.405   2.065 -0.9084 -0.1684  0.2435
  638MOL0     C86056   5.915   3.321   2.178 -0.4772 -1.4671  0.0327
  638MOL0     C86057   6.054   3.375   2.212 -1.5075  1.1014 -0.9176
  638MOL0     C86058   6.143   3.324   2.111 -0.2713 -0.0809  0.5513
  638MOL0     C86059   6.206   3.276   2.021 -0.0902 -0.4461 -0.0699
  638MOL0     C86060   5.549   3.364   1.870 -0.5455  0.3067 -0.1797
  638MOL0     C86061   5.415   3.400   1.866  0.0281 -0.4546  0.3074
  638MOL0     C86062   5.327   3.284   1.909  0.6490 -0.7705 -0.2189
  638MOL0     H86063   4.995   3.567   1.560 -1.5639  0.6690 -2.8829
  638MOL0     H86064   4.765   3.657   1.520 -0.0080 -2.2097  1.4703
  638MOL0     H86065   4.657   4.011   1.799  0.5848  1.1681 -1.2634
  638MOL0     H86066   4.527   4.007   1.681  1.2619  1.5140 -1.1067
  638MOL0     H86067   4.450   3.937   1.908 -1.4752  1.6477 -1.0988
  638MOL0     H86068   4.568   3.802   1.896  1.6092  0.2799 -2.0996
  638MOL0     H86069   4.392   3.685   1.822  1.7858 -0.2036  0.7894
  638MOL0     H86070   4.425   3.754   1.666  0.1389 -2.0019  0.2226
  638MOL0     H86071   4.246   3.852   1.890 -1.5817  1.2014 -0.8097
  638MOL0     H86072   4.240   3.939   1.736 -1.1992 -0.6439 -2.1060
  638MOL0     H86073   4.155   3.651   1.815  1.6558  0.0041  0.1898
  638MOL0     H86074   4.035   3.774   1.795 -0.4562 -0.5589 -0.4345
  638MOL0     H86075   4.198   3.641   1.572 -1.6997 -2.6762 -1.5415
  638MOL0     H86076   4.025   3.654   1.595  0.5388  0.8607 -0.0361
  638MOL0     H86077   4.112   3.771   1.410  2.0319 -1.7472  0.3436
  638MOL0     H86078   4.234   3.859   1.491  0.2352 -0.6378  1.9247
  638MOL0     H86079   4.057   3.996   1.637 -0.5157 -0.5682  0.1298
  638MOL0     H86080   4.050   4.030   1.463  0.6233 -2.1418 -2.6339
  638MOL0     H86081   3.869   3.937   1.308 -0.7708 -1.4687 -1.8394
  638MOL0     H86082   3.659   3.787   1.242 -0.6878  0.6640 -0.1723
  638MOL0     H86083   3.620   3.676   1.388  2.5548 -0.4802  0.0307
  638MOL0     H86084   3.467   3.856   1.466 -1.1044  0.3555 -0.4286
  638MOL0     H86085   3.521   3.938   1.312 -0.2535 -1.3766 -2.5804
  638MOL0     H86086   3.370   3.680   1.331  0.4075 -2.0113 -3.6469
  638MOL0     H86087   3.412   3.769   1.186  0.2736 -1.7725  1.1027
  638MOL0     H86088   3.272   3.954   1.252  0.4795  0.3163  1.4928
  638MOL0     H86089   3.253   3.887   1.418  1.5853  0.1834  0.4639
  638MOL0     H86090   3.224   3.663   1.056 -0.8970  0.8164  3.2009
  638MOL0     H86091   3.154   3.715   0.827 -0.1212  0.1711 -0.5461
  638MOL0     H86092   3.094   4.079   0.561  1.0442 -0.5005 -0.3280
  638MOL0     H86093   3.109   4.149   0.345 -0.3111  0.5267 -0.8119
  638MOL0     H86094   3.250   3.990   0.049  0.7491  0.8460 -0.0493
  638MOL0     H86095   3.140   3.849   0.029  0.9274  0.3224  1.9713
  638MOL0     H86096   3.156   4.129  -0.097 -0.3224  0.7438  0.2794
  638MOL0     H86097   3.153   3.976  -0.188  0.3491  2.3775 -1.3149
  638MOL0     H86098   2.903   3.952  -0.173  0.1176 -0.8454  1.8591
  638MOL0     H86099   2.890   4.062  -0.044 -0.7766  0.0276 -1.1601
  638MOL0     H86100   2.920   4.121  -0.332  1.3937  1.6404 -0.4756
  638MOL0     H86101   2.958   4.243  -0.207  1.4826 -0.7142  1.4188
  638MOL0     H86102   2.727   4.239  -0.122  0.1100  0.4014 -1.1532
  638MOL0     H86103   2.691   4.110  -0.229 -2.4704  1.9977 -2.2209
  638MOL0     H86104   2.732   4.396  -0.297 -1.0197 -0.2066  1.8664
  638MOL0     H86105   2.770   4.275  -0.423  0.2926 -1.5286  0.1157
  638MOL0     H86106   2.496   4.298  -0.286 -1.5358  0.6407 -1.7520
  638MOL0     H86107   2.552   4.178  -0.407  0.1962 -0.8185  0.5182
  638MOL0     H86108   2.608   4.395  -0.544  1.0800  0.5964  0.8989
  638MOL0     H86109   2.443   4.345  -0.526  0.8052  0.4159 -1.8381
  638MOL0     H86110   3.039   3.753   0.190 -4.4288  1.1270 -1.0802
  638MOL0     H86111   3.031   3.668   0.426  4.0722 -0.6173 -3.4562
  638MOL0     H86112   2.913   4.032   0.961  2.5339  2.5204  1.4664
  638MOL0     H86113   2.965   3.965   1.197 -0.9339  2.5812 -1.5336
  638MOL0     H86114   4.867   3.975   1.792  0.8406 -0.4664  0.4338
  638MOL0     H86115   5.089   3.878   1.819 -0.6482  1.4214  0.1311
  638MOL0     H86116   5.440   3.683   1.679 -0.6708 -0.9864 -0.0837
  638MOL0     H86117   5.676   3.634   1.727 -1.4183  1.8376  2.5683
  638MOL0     H86118   5.942   3.327   1.898  1.5034  1.4352 -0.1698
  638MOL0     H86119   5.784   3.257   1.927 -1.4065  1.4996  0.8276
  638MOL0     H86120   5.735   3.417   2.096 -1.3523 -1.3969 -0.7291
  638MOL0     H86121   5.873   3.509   2.058 -2.3894  0.2209 -2.3284
  638MOL0     H86122   5.909   3.214   2.154 -1.3338 -1.1439 -1.2936
  638MOL0     H86123   5.864   3.330   2.274  1.2418  1.3528  0.7858
  638MOL0     H86124   6.063   3.484   2.218 -0.6724  0.9640  1.1491
  638MOL0     H86125   6.099   3.334   2.303 -0.5453 -1.6161 -2.4795
  638MOL0     H86126   6.244   3.227   1.934  0.1990 -3.4524  1.6316
  638MOL0     H86127   5.584   3.275   1.921  1.0399 -1.8042 -4.4492
  638MOL0     H86128   5.264   3.318   1.991 -0.0268  0.0007 -1.0391
  638MOL0     H86129   5.250   3.260   1.835 -2.2392 -1.0089  2.6818
  638MOL0     H86130   5.378   3.189   1.924 -0.3397 -1.8512 -2.9701
  639MOL0     O86131   3.545   2.684  11.203  0.3752 -0.0451 -0.3904
  639MOL0     C86132   3.512   2.798  11.167 -0.5989 -0.2451  0.8470
  639MOL0     O86133   3.597   2.894  11.137 -0.5965 -0.0514  0.3810
  639MOL0     C86134   3.722   2.888  11.202 -0.7306  0.0765  0.9276
  639MOL0     C86135   3.725   2.916  11.337 -0.2981 -0.0518  0.3755
  639MOL0     C86136   3.852   2.904  11.405  0.3469  1.8499  0.6185
  639MOL0     C86137   3.969   2.873  11.328 -0.0272 -0.8823  0.2676
  639MOL0     O86138   4.085   2.866  11.398 -0.1719 -0.5928 -0.9151
  639MOL0     C86139   4.196   2.793  11.327  0.1518 -1.0113  0.5208
  639MOL0     C86140   4.296   2.745  11.431 -0.4847  0.2974  0.2240
  639MOL0     C86141   4.420   2.678  11.363 -0.2036 -0.6117  0.1261
  639MOL0     C86142   4.520   2.781  11.294  0.4351  0.1757 -0.5823
  639MOL0     C86143   4.658   2.723  11.284  0.2798  0.3610  0.6637
  639MOL0     C86144   4.729   2.695  11.421  0.9633 -0.5577  0.0195
  639MOL0     C86145   4.723   2.806  11.530  0.0185  0.6483 -0.6364
  639MOL0     C86146   4.797   2.927  11.471  0.0216  0.6874 -0.1444
  639MOL0     N86147   4.815   3.042  11.552  0.6669  0.3309  0.2855
  639MOL0     C86148   4.889   3.036  11.666  0.3760  0.3171 -0.1443
  639MOL0     C86149   4.870   3.157  11.723  0.1489  0.5013 -0.2516
  639MOL0     C86150   4.927   3.194  11.850 -0.3069  0.0150  0.0849
  639MOL0     C86151   5.067   3.134  11.881  0.0804 -0.3642 -0.7417
  639MOL0     C86152   5.189   3.171  11.789  0.1035 -0.7005  0.4651
  639MOL0     C86153   5.310   3.103  11.831 -0.1981  0.4023 -0.0910
  639MOL0     O86154   5.406   3.110  11.726 -0.9925 -0.2016 -0.5623
  639MOL0     C86155   5.535   3.090  11.761  0.0448 -0.2236  0.3428
  639MOL0     C86156   5.571   3.005  11.862 -0.5910 -0.0894  0.1976
  639MOL0     C86157   5.711   2.992  11.895 -0.3519  0.3096  0.6791
  639MOL0     C86158   5.808   3.049  11.805  0.1119 -0.7039  0.7319
  639MOL0     C86159   5.944   3.042  11.849  0.1484  0.4050 -0.2293
  639MOL0     O86160   5.964   2.990  11.981 -0.4294 -0.1010  0.0866
  639MOL0     C86161   6.089   2.984  12.039  0.2294  0.1456  0.1918
  639MOL0     C86162   6.217   2.985  11.985  0.2747  0.9192 -0.0638
  639MOL0     C86163   6.331   2.973  12.060 -0.3178 -0.4970  0.2677
  639MOL0     C86164   6.326   2.989  12.195 -0.1227  0.4891  0.1565
  639MOL0     O86165   6.434   2.994  12.273 -0.0477  0.0359 -0.0935
  639MOL0     C86166   6.468   3.136  12.305 -0.6973  0.1967  0.8628
  639MOL0     C86167   6.609   3.118  12.366 -0.5224  0.2332  1.3593
  639MOL0     C86168   6.680   3.243  12.428  0.2779  0.0135  0.8230
  639MOL0     C86169   6.818   3.201  12.464 -0.5515 -0.6302  0.2420
  639MOL0     C86170   6.894   3.325  12.509 -0.1153  0.6233 -0.5060
  639MOL0     C86171   7.023   3.280  12.586  0.0768  0.7546  0.0628
  639MOL0     C86172   7.132   3.386  12.588  0.7547 -0.4520 -0.2210
  639MOL0     C86173   7.092   3.519  12.654 -0.1784  0.5088 -0.1989
  639MOL0    Cl86174   7.245   3.604  12.730  0.2696  0.0343 -0.1821
  639MOL0     C86175   6.204   3.007  12.260  0.1153  0.1894 -0.3262
  639MOL0     C86176   6.086   3.012  12.181  0.4237 -0.2784  0.3795
  639MOL0     O86177   6.015   3.108  11.786 -0.5033  0.4847 -0.2937
  639MOL0     C86178   5.763   3.103  11.684 -0.6973 -0.6360 -0.1657
  639MOL0     C86179   5.625   3.134  11.670 -0.2830 -0.3741 -0.4249
  639MOL0     N86180   4.803   3.235  11.631 -1.2097 -0.4323 -0.1777
  639MOL0     N86181   4.774   3.169  11.525  0.6845 -0.1827  0.0980
  639MOL0     C86182   3.959   2.852  11.190 -0.9259 -0.3796 -0.4008
  639MOL0     C86183   3.839   2.857  11.125 -0.5747 -0.5055 -0.5114
  639MOL0     C86184   3.375   2.810  11.119 -0.7963 -0.7851  0.1242
  639MOL0     C86185   3.350   2.888  11.011 -0.3116 -0.2694 -0.2128
  639MOL0     C86186   3.220   2.906  10.972  0.0957  0.0528  0.9881
  639MOL0     C86187   3.114   2.838  11.026  1.3485 -0.7217  0.7726
  639MOL0     O86188   2.984   2.844  10.978 -0.5638 -0.4233 -0.2225
  639MOL0     C86189   2.949   2.954  10.889 -0.0715  0.5232 -0.8303
  639MOL0     C86190   2.796   2.943  10.862 -0.9079 -0.1734  0.6636
  639MOL0     C86191   2.711   2.990  10.983 -0.4297  0.2164  0.5623
  639MOL0     C86192   2.658   3.126  10.962 -0.3246 -0.4385  0.3109
  639MOL0     C86193   2.556   3.142  10.855 -0.3303  0.1418 -0.3880
  639MOL0     C86194   2.463   3.153  10.778  0.6710  0.2659 -0.2671
  639MOL0     C86195   3.137   2.746  11.128  0.4142  0.2199 -0.8152
  639MOL0     C86196   3.267   2.732  11.177 -0.2237  0.5465  0.8841
  639MOL0     C86197   3.296   2.658  11.311 -0.2397  0.9185  0.0865
  639MOL0     H86198   3.630   2.934  11.385  0.3198 -1.1670  2.1065
  639MOL0     H86199   3.855   2.899  11.513  0.8741  2.8081  0.6599
  639MOL0     H86200   4.163   2.710  11.265 -2.1143  0.3934 -0.3003
  639MOL0     H86201   4.256   2.857  11.262 -0.7965  0.4919  1.0664
  639MOL0     H86202   4.244   2.672  11.493  0.8975 -1.3970 -0.5333
  639MOL0     H86203   4.319   2.829  11.498 -2.4253 -0.9198  2.5751
  639MOL0     H86204   4.395   2.620  11.273  1.9041  1.2998 -1.8166
  639MOL0     H86205   4.450   2.609  11.443 -0.5639  0.5049  1.2523
  639MOL0     H86206   4.476   2.793  11.194 -0.0274 -0.5583 -0.4804
  639MOL0     H86207   4.523   2.884  11.328 -1.2218 -0.7212  2.6635
  639MOL0     H86208   4.655   2.634  11.220  0.2267  0.3020  0.7484
  639MOL0     H86209   4.716   2.797  11.228 -0.1629  0.1551 -0.0965
  639MOL0     H86210   4.681   2.610  11.470  0.8815  0.4982  1.8504
  639MOL0     H86211   4.834   2.679  11.397  0.7623  1.0384 -2.3976
  639MOL0     H86212   4.781   2.764  11.613 -0.9264 -0.8101 -0.6744
  639MOL0     H86213   4.623   2.835  11.566  0.6438  0.4294  1.3880
  639MOL0     H86214   4.898   2.893  11.446 -1.7781 -2.8749 -3.6163
  639MOL0     H86215   4.742   2.954  11.380 -2.5389 -0.1295  1.0813
  639MOL0     H86216   4.945   2.952  11.705  0.3512 -0.2482 -1.2739
  639MOL0     H86217   4.939   3.303  11.854 -1.9249  0.2902 -1.4423
  639MOL0     H86218   4.856   3.161  11.927 -1.2011  0.7134 -0.4182
  639MOL0     H86219   5.093   3.147  11.986 -1.8115  1.8465 -0.4693
  639MOL0     H86220   5.051   3.026  11.888  1.5096 -0.4878  1.1472
  639MOL0     H86221   5.213   3.278  11.793 -1.4710 -0.2647 -0.7948
  639MOL0     H86222   5.167   3.155  11.683  0.0180 -1.5593  0.6063
  639MOL0     H86223   5.285   2.998  11.850 -1.8778  1.5762  6.0144
  639MOL0     H86224   5.346   3.140  11.927 -1.8065 -0.5014  0.8883
  639MOL0     H86225   5.499   2.950  11.922  1.0383  0.3214  2.6765
  639MOL0     H86226   5.733   2.916  11.969 -1.5346 -0.6193  0.1111
  639MOL0     H86227   6.221   2.984  11.877 -1.8308  1.5737 -0.1993
  639MOL0     H86228   6.424   2.963  12.006  0.7680 -1.0298  2.1342
  639MOL0     H86229   6.465   3.194  12.213 -2.1894  0.4403  1.0441
  639MOL0     H86230   6.405   3.178  12.384 -0.0059 -0.5977  1.8744
  639MOL0     H86231   6.604   3.039  12.442  2.8422 -0.5383  0.9229
  639MOL0     H86232   6.673   3.074  12.289 -2.8476 -2.2545  0.6982
  639MOL0     H86233   6.672   3.325  12.357 -0.6308 -0.0639  0.8164
  639MOL0     H86234   6.632   3.265  12.524 -2.1755 -3.3714  0.5934
  639MOL0     H86235   6.865   3.159  12.375 -0.4982 -1.0268  0.4550
  639MOL0     H86236   6.820   3.117  12.534  0.5762 -2.4594 -1.8813
  639MOL0     H86237   6.838   3.381  12.585 -0.7489  0.2231 -0.6720
  639MOL0     H86238   6.921   3.383  12.421 -0.5725 -1.7243 -2.2964
  639MOL0     H86239   6.986   3.266  12.688  0.9677  0.2584  0.3236
  639MOL0     H86240   7.063   3.189  12.541  1.1036  0.1415  2.1259
  639MOL0     H86241   7.178   3.398  12.489  1.4440 -1.1495  0.0096
  639MOL0     H86242   7.214   3.344  12.646  0.8579 -1.7918 -1.2968
  639MOL0     H86243   7.043   3.582  12.579 -1.0538  1.4405  1.1064
  639MOL0     H86244   7.015   3.500  12.729 -0.7048 -0.5317 -0.9738
  639MOL0     H86245   6.224   3.012  12.367  2.9088 -1.9918 -0.6138
  639MOL0     H86246   5.992   3.032  12.231  1.0038 -1.5510  2.1190
  639MOL0     H86247   5.838   3.151  11.621  1.5372  0.7291  3.2642
  639MOL0     H86248   5.600   3.190  11.580  2.8070 -0.6679 -1.5641
  639MOL0     H86249   4.046   2.847  11.125 -2.0871  0.5362 -2.0983
  639MOL0     H86250   3.847   2.848  11.017  3.4245  2.2413 -0.6554
  639MOL0     H86251   3.422   2.944  10.951  0.1886 -2.1907 -1.4685
  639MOL0     H86252   3.200   2.971  10.887 -2.5312 -1.1411  0.5730
  639MOL0     H86253   3.004   2.926  10.798 -0.5450 -4.0395  0.0088
  639MOL0     H86254   2.981   3.050  10.931 -1.7287  1.0959 -0.8159
  639MOL0     H86255   2.772   2.837  10.848 -0.5097 -0.3225  1.0924
  639MOL0     H86256   2.783   3.006  10.773  3.1200 -0.1673 -0.0853
  639MOL0     H86257   2.778   2.992  11.069  0.9250 -3.2161 -0.2484
  639MOL0     H86258   2.631   2.920  11.010  1.3056 -1.2803  2.1192
  639MOL0     H86259   2.605   3.160  11.051  0.5108  0.4376  0.4885
  639MOL0     H86260   2.741   3.197  10.954 -1.4296  0.9564  0.7841
  639MOL0     H86261   2.384   3.138  10.707  0.8952 -1.8563 -0.1375
  639MOL0     H86262   3.055   2.699  11.181  0.8149  2.4226  2.0363
  639MOL0     H86263   3.362   2.709  11.382  0.8541 -0.8416  0.3686
  639MOL0     H86264   3.202   2.641  11.364  0.4902 -1.7646  0.6453
  639MOL0     H86265   3.332   2.557  11.294  0.4117  0.4405  3.5581
  640MOL0     O86266   5.868   1.335   1.822  0.6774 -0.1933 -0.6569
  640MOL0     C86267   5.780   1.267   1.870  0.2917  1.0572  0.0310
  640MOL0     O86268   5.799   1.157   1.950  0.0191  0.5267 -0.0875
  640MOL0     C86269   5.916   1.099   1.940 -0.5169 -0.0404 -0.4711
  640MOL0     C86270   6.021   1.150   2.012  0.2924  0.4732 -0.7565
  640MOL0     C86271   6.150   1.082   2.011 -0.2712  0.1413 -0.0071
  640MOL0     C86272   6.156   0.959   1.937  0.1509  0.1976 -0.4259
  640MOL0     O86273   6.272   0.896   1.933 -0.1280 -0.0149 -0.3315
  640MOL0     C86274   6.347   0.902   1.806 -0.5260  0.4587  0.0507
  640MOL0     C86275   6.357   0.752   1.755  0.5624  0.1967 -0.6468
  640MOL0     C86276   6.468   0.673   1.830  1.2065  0.6444  0.1933
  640MOL0     C86277   6.580   0.635   1.740 -0.7360  0.7716 -0.3109
  640MOL0     C86278   6.663   0.522   1.795 -0.3117 -0.3278 -1.1169
  640MOL0     C86279   6.801   0.586   1.834 -0.0211  0.9666 -0.3306
  640MOL0     C86280   6.907   0.477   1.852 -0.0311  0.5603  0.4406
  640MOL0     C86281   7.036   0.529   1.902  0.2129  0.0660  0.8673
  640MOL0     N86282   7.133   0.425   1.895 -0.5733  0.5716 -0.4439
  640MOL0     C86283   7.220   0.385   1.792  0.2944  0.7094 -0.1142
  640MOL0     C86284   7.313   0.309   1.850 -0.3567  0.3203 -0.1627
  640MOL0     C86285   7.437   0.246   1.786 -0.0532  0.1265 -0.0669
  640MOL0     C86286   7.567   0.327   1.810  0.2874 -0.3404 -0.0609
  640MOL0     C86287   7.687   0.230   1.840  0.1323 -0.6042 -0.0863
  640MOL0     C86288   7.744   0.162   1.718  0.5009 -0.4523 -0.3955
  640MOL0     O86289   7.858   0.089   1.762  0.6633  0.0748  0.1674
  640MOL0     C86290   7.979   0.150   1.743  1.0971 -0.0932 -0.3000
  640MOL0     C86291   8.035   0.219   1.849  0.0224 -0.5204  0.3473
  640MOL0     C86292   8.158   0.282   1.834 -0.3736  0.4069 -0.5191
  640MOL0     C86293   8.228   0.282   1.709  0.0232  0.6307 -0.5249
  640MOL0     C86294   8.355   0.353   1.703 -0.2144 -1.0559  0.2458
  640MOL0     O86295   8.430   0.323   1.594 -0.0324  0.0893  0.8371
  640MOL0     C86296   8.565   0.358   1.610  0.2923 -1.2635  0.0300
  640MOL0     C86297   8.620   0.472   1.548 -0.4141 -0.6813 -0.0543
  640MOL0     C86298   8.753   0.501   1.575 -0.3474  0.2103  0.4392
  640MOL0     C86299   8.830   0.419   1.657 -0.7539  0.1072  0.2318
  640MOL0     O86300   8.968   0.442   1.679  0.1750  0.1207  0.2183
  640MOL0     C86301   9.045   0.526   1.593 -0.8958 -0.1082  0.3892
  640MOL0     C86302   9.188   0.546   1.636 -1.2417  0.4833  0.2801
  640MOL0     C86303   9.275   0.412   1.635  0.4807 -0.2547 -0.9206
  640MOL0     C86304   9.411   0.428   1.712  0.4321  1.0093  0.0012
  640MOL0     C86305   9.492   0.305   1.683 -0.0569 -0.6894  0.6602
  640MOL0     C86306   9.636   0.332   1.651  0.1745  0.8582 -0.8392
  640MOL0     C86307   9.714   0.402   1.757  0.5589  0.0051  0.3293
  640MOL0     C86308   9.838   0.318   1.790  0.7133  0.0225  0.4465
  640MOL0    Cl86309   9.924   0.397   1.920 -0.1859 -0.1584  0.0692
  640MOL0     C86310   8.785   0.296   1.702 -0.3245 -0.1816  0.4302
  640MOL0     C86311   8.650   0.268   1.677 -0.2099  0.2225 -0.2633
  640MOL0     O86312   8.375   0.444   1.787 -0.3246 -0.0664  0.2014
  640MOL0     C86313   8.179   0.194   1.610 -0.0287 -0.3982 -0.2634
  640MOL0     C86314   8.051   0.139   1.626  0.0917  0.2191  0.0534
  640MOL0     N86315   7.291   0.297   1.989 -0.1010 -0.6115  0.2808
  640MOL0     N86316   7.186   0.368   2.013 -0.7172  0.0638  0.1837
  640MOL0     C86317   6.044   0.906   1.870 -0.5714  0.0171  0.5124
  640MOL0     C86318   5.932   0.976   1.872  0.7027  1.1339  0.1683
  640MOL0     C86319   5.640   1.313   1.843  0.4766  0.3100 -0.4341
  640MOL0     C86320   5.536   1.267   1.926  0.0734 -1.2924 -0.8521
  640MOL0     C86321   5.406   1.310   1.911 -0.3337  0.6968  0.3641
  640MOL0     C86322   5.366   1.408   1.818 -0.1789  0.6538  0.8819
  640MOL0     O86323   5.234   1.437   1.794 -0.3748  0.3902  0.2699
  640MOL0     C86324   5.126   1.391   1.879 -0.0782  0.1709 -0.0682
  640MOL0     C86325   5.003   1.467   1.835  0.3709 -1.1496  1.0073
  640MOL0     C86326   4.867   1.421   1.907 -0.4841  0.4127 -0.8429
  640MOL0     C86327   4.751   1.514   1.860 -0.4956 -0.4068  0.8686
  640MOL0     C86328   4.702   1.498   1.721 -0.5249 -0.6580 -0.2040
  640MOL0     C86329   4.669   1.472   1.606 -0.4879 -0.1437 -0.3928
  640MOL0     C86330   5.473   1.472   1.740  0.1499 -0.5895  0.3066
  640MOL0     C86331   5.602   1.422   1.745 -0.0435  0.3314 -0.2038
  640MOL0     C86332   5.698   1.493   1.652 -0.3329  0.0629  0.9204
  640MOL0     H86333   6.013   1.253   2.045 -0.3960  0.1155  0.2110
  640MOL0     H86334   6.242   1.105   2.065 -1.5022  0.2643  2.1425
  640MOL0     H86335   6.301   0.956   1.723  0.7860  2.7635  0.7400
  640MOL0     H86336   6.443   0.946   1.833 -0.6159  0.2944  0.6758
  640MOL0     H86337   6.368   0.752   1.646 -2.0133 -0.1776 -0.9825
  640MOL0     H86338   6.260   0.704   1.770  0.7112 -0.5960 -2.0326
  640MOL0     H86339   6.421   0.588   1.879 -1.6291  1.3016 -1.1566
  640MOL0     H86340   6.499   0.728   1.919  0.9974 -0.9829  1.3113
  640MOL0     H86341   6.531   0.591   1.652  0.9544 -2.7395  0.3619
  640MOL0     H86342   6.631   0.727   1.710  2.1772 -0.4947  0.4260
  640MOL0     H86343   6.616   0.484   1.886 -1.8145  1.9867 -0.8361
  640MOL0     H86344   6.669   0.441   1.722 -1.1229 -3.3084  1.8705
  640MOL0     H86345   6.835   0.662   1.764 -1.8062  2.6749  0.5722
  640MOL0     H86346   6.795   0.641   1.928 -0.9580  3.4245 -1.7465
  640MOL0     H86347   6.912   0.421   1.758 -0.1202  0.8886  0.2377
  640MOL0     H86348   6.882   0.406   1.931 -3.7488  0.5469 -0.5528
  640MOL0     H86349   7.054   0.613   1.835  1.1722  1.3757  2.6750
  640MOL0     H86350   7.023   0.570   2.003  1.1371  2.1283  0.1906
  640MOL0     H86351   7.206   0.401   1.685 -0.2709 -1.2711 -0.3746
  640MOL0     H86352   7.450   0.140   1.811  0.1871  0.1891  0.0776
  640MOL0     H86353   7.412   0.246   1.680 -1.6553 -1.9458  0.2450
  640MOL0     H86354   7.596   0.382   1.720 -0.5059  0.6876  0.2887
  640MOL0     H86355   7.571   0.383   1.903  0.1883  0.8662 -0.7610
  640MOL0     H86356   7.659   0.156   1.916  0.0608 -1.0104 -0.4993
  640MOL0     H86357   7.773   0.287   1.875 -1.4452  2.8589 -1.4482
  640MOL0     H86358   7.787   0.247   1.664  0.0647  2.0916  2.9542
  640MOL0     H86359   7.675   0.102   1.658  0.0925  1.2622 -1.7150
  640MOL0     H86360   7.996   0.213   1.950  2.9091  1.3283  1.7106
  640MOL0     H86361   8.199   0.329   1.922 -0.1197 -0.2232 -0.2959
  640MOL0     H86362   8.558   0.540   1.489  1.4930  0.1184 -1.2412
  640MOL0     H86363   8.797   0.596   1.543 -0.3649  0.1944  0.3664
  640MOL0     H86364   9.047   0.487   1.491 -0.0003 -3.4360  1.5679
  640MOL0     H86365   9.006   0.629   1.599  0.4229  0.5011 -0.9194
  640MOL0     H86366   9.229   0.614   1.561  0.9652 -1.9235 -0.8563
  640MOL0     H86367   9.199   0.592   1.735  3.1595 -1.8902  1.1519
  640MOL0     H86368   9.219   0.327   1.675 -0.8363  1.5124  1.2776
  640MOL0     H86369   9.297   0.399   1.529  2.4117  0.3529 -0.6225
  640MOL0     H86370   9.398   0.433   1.821 -1.6182  0.3664 -0.1672
  640MOL0     H86371   9.468   0.512   1.671 -0.5662  1.7115  0.0171
  640MOL0     H86372   9.457   0.271   1.585 -0.2251  0.4389  0.3143
  640MOL0     H86373   9.485   0.236   1.768  2.2257 -0.2404  1.2706
  640MOL0     H86374   9.696   0.241   1.640  0.4597  0.5140  2.4651
  640MOL0     H86375   9.644   0.378   1.552 -1.6717 -1.1275 -2.0100
  640MOL0     H86376   9.660   0.423   1.850 -1.1641  3.4594 -1.2775
  640MOL0     H86377   9.747   0.496   1.714 -0.1603  0.9071  1.6783
  640MOL0     H86378   9.817   0.213   1.811  0.3142 -0.1790 -0.8507
  640MOL0     H86379   9.903   0.319   1.702 -0.1195 -3.5700 -0.3948
  640MOL0     H86380   8.848   0.236   1.767  3.1955  2.9751  0.2506
  640MOL0     H86381   8.614   0.173   1.716  0.8544  0.4737  1.4578
  640MOL0     H86382   8.227   0.181   1.514 -0.1141 -1.3297 -0.1851
  640MOL0     H86383   8.004   0.082   1.546  2.9085  0.1081 -1.6645
  640MOL0     H86384   6.040   0.806   1.829 -1.7870 -1.0694  3.0236
  640MOL0     H86385   5.849   0.942   1.812  3.0624 -1.0083 -2.1345
  640MOL0     H86386   5.553   1.194   2.005  0.0486 -2.1794 -1.6452
  640MOL0     H86387   5.320   1.288   1.973 -2.3761  1.1337 -2.1314
  640MOL0     H86388   5.151   1.407   1.985  0.7824 -0.2326 -0.2020
  640MOL0     H86389   5.107   1.286   1.855  1.1645 -0.6266  2.0929
  640MOL0     H86390   4.980   1.445   1.730 -1.9766  0.1426  1.1748
  640MOL0     H86391   5.011   1.575   1.846  0.5315 -0.7775 -1.9458
  640MOL0     H86392   4.872   1.440   2.014  1.3023  0.1596 -0.8614
  640MOL0     H86393   4.831   1.319   1.891  1.9592 -0.2044 -3.0579
  640MOL0     H86394   4.670   1.493   1.930 -1.0000  1.1802  0.8085
  640MOL0     H86395   4.778   1.620   1.867 -0.6227 -0.1069 -2.1247
  640MOL0     H86396   4.662   1.430   1.507  2.2196  0.6787 -1.0171
  640MOL0     H86397   5.439   1.550   1.673  1.9149  0.2726  0.3499
  640MOL0     H86398   5.730   1.583   1.705 -1.4353  1.2793 -0.3948
  640MOL0     H86399   5.779   1.426   1.622  0.4245  0.1845  2.5866
  640MOL0     H86400   5.648   1.533   1.563  0.2250 -0.6972  0.2578
  641MOL0     O86401   6.019   8.418   7.243  0.7144  0.9815 -0.4495
  641MOL0     C86402   5.983   8.527   7.285  0.1913  0.3900 -0.1780
  641MOL0     O86403   6.019   8.647   7.224 -0.4261  0.0631 -0.1223
  641MOL0     C86404   6.144   8.644   7.158  0.0676  0.3860  0.7525
  641MOL0     C86405   6.141   8.619   7.022  0.3241 -0.2107  1.7111
  641MOL0     C86406   6.254   8.608   6.949 -0.3778  0.3777 -0.3193
  641MOL0     C86407   6.383   8.618   7.015 -0.3778  0.7132 -0.2541
  641MOL0     O86408   6.498   8.618   6.947 -0.4248 -0.5633  0.3565
  641MOL0     C86409   6.600   8.700   6.996  0.2864 -0.2088  0.1400
  641MOL0     C86410   6.710   8.702   6.882 -0.0485  0.3273 -0.3499
  641MOL0     C86411   6.840   8.756   6.932  0.7126  0.0153  0.7390
  641MOL0     C86412   6.949   8.762   6.823 -0.4924  0.0251 -1.1993
  641MOL0     C86413   7.019   8.898   6.801 -0.5109 -0.3712  0.7778
  641MOL0     C86414   7.127   8.898   6.691  0.5666  0.6618  0.0177
  641MOL0     C86415   7.195   9.041   6.683  0.0110 -0.2896  1.3524
  641MOL0     C86416   7.283   9.036   6.553 -0.2305 -0.5062  0.0973
  641MOL0     N86417   7.376   9.155   6.538  0.0672 -0.3921  0.2425
  641MOL0     C86418   7.486   9.173   6.617 -0.3988 -0.4003 -0.2623
  641MOL0     C86419   7.534   9.294   6.571  0.2607  0.1518 -0.8742
  641MOL0     C86420   7.667   9.358   6.618  0.5048  0.3617  0.5097
  641MOL0     C86421   7.687   9.372   6.769  0.3492 -0.0429  0.9859
  641MOL0     C86422   7.834   9.384   6.808  0.0266 -0.4876 -0.2792
  641MOL0     C86423   7.855   9.453   6.948  0.3974  0.2778  0.5657
  641MOL0     O86424   7.766   9.401   7.049  0.0805  0.6182 -0.1507
  641MOL0     C86425   7.782   9.268   7.086  0.2874 -0.0582  0.3691
  641MOL0     C86426   7.675   9.204   7.159  0.1685 -0.1103  0.7637
  641MOL0     C86427   7.681   9.065   7.181 -0.2918  0.0760 -0.0325
  641MOL0     C86428   7.794   8.988   7.159 -0.6305 -0.1031 -0.0972
  641MOL0     C86429   7.801   8.853   7.206 -0.7776  0.8032  0.1915
  641MOL0     O86430   7.703   8.795   7.285 -0.0743  0.5090 -0.4413
  641MOL0     C86431   7.694   8.664   7.312  0.4583  0.5558  0.2152
  641MOL0     C86432   7.629   8.633   7.427  0.3848 -0.1329  0.3734
  641MOL0     C86433   7.599   8.501   7.469 -0.0697  0.1235  0.1911
  641MOL0     C86434   7.648   8.394   7.393  0.2073 -0.1236  0.1539
  641MOL0     O86435   7.617   8.263   7.427 -0.0201 -0.1330  0.2963
  641MOL0     C86436   7.602   8.214   7.560 -0.3263 -0.3898  0.3178
  641MOL0     C86437   7.734   8.173   7.635 -0.7041  0.0489  0.8726
  641MOL0     C86438   7.796   8.037   7.590  0.9481  0.0364  1.0639
  641MOL0     C86439   7.912   7.992   7.671 -0.3534 -1.0684 -0.2306
  641MOL0     C86440   8.007   7.901   7.592  0.1229 -0.5752  0.1445
  641MOL0     C86441   8.146   7.876   7.654 -0.8435  0.4575 -0.1094
  641MOL0     C86442   8.229   7.799   7.546  0.3449 -0.1179  0.0213
  641MOL0     C86443   8.343   7.709   7.598  0.1389  0.5062 -0.7510
  641MOL0    Cl86444   8.454   7.804   7.689  0.2049  0.1443  0.3982
  641MOL0     C86445   7.726   8.416   7.282 -0.6537  0.3415  0.3236
  641MOL0     C86446   7.741   8.553   7.241 -0.3096  0.8353  0.2450
  641MOL0     O86447   7.900   8.792   7.175 -0.0183 -0.0374  0.0327
  641MOL0     C86448   7.912   9.050   7.101 -0.2093 -0.2839  0.0251
  641MOL0     C86449   7.905   9.189   7.065  0.1575 -0.1887 -0.6548
  641MOL0     N86450   7.447   9.340   6.470  0.2772 -0.0924 -0.8535
  641MOL0     N86451   7.357   9.258   6.457  1.0570  0.0904  0.2232
  641MOL0     C86452   6.381   8.637   7.150  0.0627 -0.7518 -0.2759
  641MOL0     C86453   6.264   8.644   7.223 -0.6210 -0.1854  0.2059
  641MOL0     C86454   5.894   8.524   7.396  0.6162  0.0390 -0.2251
  641MOL0     C86455   5.915   8.625   7.485 -0.4110 -0.4115  0.1238
  641MOL0     C86456   5.856   8.623   7.615  0.9152 -0.3987  0.4219
  641MOL0     C86457   5.766   8.528   7.637 -0.0045 -0.9691  0.0057
  641MOL0     O86458   5.693   8.523   7.752  0.0791 -0.2689 -0.1982
  641MOL0     C86459   5.656   8.651   7.804  0.0827 -0.4965 -0.7920
  641MOL0     C86460   5.548   8.647   7.918 -0.4554 -0.4500  0.0685
  641MOL0     C86461   5.585   8.546   8.028  0.3185 -0.7603  0.4121
  641MOL0     C86462   5.482   8.557   8.144  0.2627 -0.3184 -0.6288
  641MOL0     C86463   5.501   8.431   8.231  0.1612  0.3594  0.4854
  641MOL0     C86464   5.509   8.334   8.304 -0.3107 -0.5463  0.2775
  641MOL0     C86465   5.734   8.425   7.544 -0.5515 -0.6587 -0.0958
  641MOL0     C86466   5.798   8.424   7.422 -0.8862 -1.0085  0.1163
  641MOL0     C86467   5.758   8.311   7.330  0.0935  0.9949  0.2584
  641MOL0     H86468   6.054   8.587   6.965  0.3217  2.7514 -0.1991
  641MOL0     H86469   6.247   8.583   6.843 -1.7263  1.7688 -0.5931
  641MOL0     H86470   6.565   8.801   7.024 -4.0587 -1.6857  0.8668
  641MOL0     H86471   6.627   8.657   7.093 -2.8540 -2.9880 -0.0328
  641MOL0     H86472   6.671   8.760   6.798 -0.1577  2.3779  1.0358
  641MOL0     H86473   6.731   8.601   6.845  3.1610  0.6490  0.3626
  641MOL0     H86474   6.862   8.691   7.017  0.5380 -1.2640 -0.1602
  641MOL0     H86475   6.823   8.861   6.959  1.4003 -0.0658  1.4986
  641MOL0     H86476   7.041   8.705   6.839  0.3874  1.1146 -2.1430
  641MOL0     H86477   6.905   8.713   6.736  0.5162 -3.3920  0.0551
  641MOL0     H86478   6.938   8.964   6.771 -1.4894 -1.6887  0.4303
  641MOL0     H86479   7.045   8.924   6.904 -0.6529 -2.2974  1.3346
  641MOL0     H86480   7.206   8.831   6.727 -1.4123 -1.4894  0.5960
  641MOL0     H86481   7.084   8.859   6.598 -0.5551  4.2696 -1.1279
  641MOL0     H86482   7.266   9.049   6.765  0.9230  1.2930  0.4540
  641MOL0     H86483   7.122   9.123   6.678 -1.2653 -1.4520 -1.4310
  641MOL0     H86484   7.335   8.940   6.555  1.0439  0.0556 -2.1773
  641MOL0     H86485   7.226   9.025   6.461  2.7789  0.6149 -2.0616
  641MOL0     H86486   7.523   9.104   6.693 -1.4659 -0.4866  0.2075
  641MOL0     H86487   7.746   9.292   6.584  0.0756  0.8707 -1.6072
  641MOL0     H86488   7.689   9.455   6.573  0.3938  0.2060  0.1134
  641MOL0     H86489   7.632   9.458   6.806 -0.5727  0.8815 -2.1793
  641MOL0     H86490   7.645   9.284   6.818 -0.0470 -1.2293 -1.3280
  641MOL0     H86491   7.885   9.440   6.729  0.5484 -1.3327 -0.5495
  641MOL0     H86492   7.881   9.285   6.813 -1.2676 -1.3824 -3.2196
  641MOL0     H86493   7.840   9.559   6.928 -0.9510 -0.5167 -3.5156
  641MOL0     H86494   7.956   9.453   6.990  0.8710  3.9363 -0.2103
  641MOL0     H86495   7.581   9.251   7.186  0.5041  0.2814  1.2781
  641MOL0     H86496   7.589   9.027   7.225 -0.9483  0.8823 -0.6758
  641MOL0     H86497   7.610   8.712   7.499 -0.2439  2.1515 -2.1616
  641MOL0     H86498   7.540   8.489   7.559 -0.0496 -3.0512 -0.1172
  641MOL0     H86499   7.548   8.286   7.621  0.6667  1.1873 -0.6066
  641MOL0     H86500   7.535   8.128   7.550  1.5526 -1.9558  0.5108
  641MOL0     H86501   7.806   8.250   7.607 -1.6872  1.1111  1.1948
  641MOL0     H86502   7.728   8.182   7.744 -4.5899  0.2749  0.7774
  641MOL0     H86503   7.727   7.953   7.598  2.0567 -1.4453 -2.7539
  641MOL0     H86504   7.821   8.050   7.485 -2.7524 -1.4842 -0.1653
  641MOL0     H86505   7.871   7.953   7.765 -0.9844  0.5892  0.2107
  641MOL0     H86506   7.964   8.078   7.713 -0.0034 -1.8986  1.0832
  641MOL0     H86507   8.019   7.949   7.494  1.4978 -0.1383  0.5102
  641MOL0     H86508   7.957   7.804   7.583  1.0613 -1.2849  2.0791
  641MOL0     H86509   8.198   7.964   7.692  0.3034 -0.3151  0.1697
  641MOL0     H86510   8.149   7.811   7.742 -0.0594 -0.5541 -0.8502
  641MOL0     H86511   8.257   7.877   7.474  0.8547  0.0640  0.4128
  641MOL0     H86512   8.176   7.721   7.491 -0.6044  1.3894 -1.2807
  641MOL0     H86513   8.309   7.628   7.665 -2.5986  2.3578  0.2469
  641MOL0     H86514   8.403   7.673   7.514  1.6030 -0.4971  0.6530
  641MOL0     H86515   7.775   8.339   7.224 -1.5885 -0.8032  1.0222
  641MOL0     H86516   7.794   8.568   7.147 -0.4152  0.1112  0.0646
  641MOL0     H86517   8.001   8.997   7.069  0.0033  0.1120 -0.0526
  641MOL0     H86518   7.982   9.221   6.995  1.8760  1.9189  1.9914
  641MOL0     H86519   6.463   8.645   7.220 -0.0635  3.3227 -0.3975
  641MOL0     H86520   6.272   8.645   7.331 -0.7096  0.0818  0.2110
  641MOL0     H86521   5.984   8.706   7.466 -1.0295 -0.1366 -1.0823
  641MOL0     H86522   5.874   8.697   7.692 -1.1852 -1.9900  2.6079
  641MOL0     H86523   5.619   8.716   7.726 -1.1451  1.9557  1.6630
  641MOL0     H86524   5.748   8.693   7.846  1.2104 -0.2875 -3.2865
  641MOL0     H86525   5.448   8.624   7.880 -0.7964  1.6297 -0.4368
  641MOL0     H86526   5.540   8.749   7.957  0.3131  0.6401 -2.4401
  641MOL0     H86527   5.686   8.557   8.069  0.5879 -3.0499  0.5337
  641MOL0     H86528   5.575   8.454   7.970  0.1192  0.2605 -1.2243
  641MOL0     H86529   5.505   8.645   8.206  3.0678 -2.2984  1.3979
  641MOL0     H86530   5.375   8.558   8.123 -0.8276  0.9942  3.7884
  641MOL0     H86531   5.521   8.262   8.382 -0.3416  0.8684  1.6297
  641MOL0     H86532   5.654   8.361   7.579 -0.7772 -0.1406  0.3417
  641MOL0     H86533   5.763   8.220   7.390 -2.1802 -1.0361 -2.3159
  641MOL0     H86534   5.655   8.328   7.296  0.5996  1.2546 -1.2143
  641MOL0     H86535   5.815   8.289   7.239 -1.8863  2.5558 -1.4814
  642MOL0     O86536   8.956   9.849   1.892 -0.0009 -0.0176  0.3920
  642MOL0     C86537   9.003   9.776   1.802  0.3834 -0.1701 -0.1820
  642MOL0     O86538   9.129   9.724   1.799  0.2308 -0.1468  0.8233
  642MOL0     C86539   9.237   9.781   1.859 -1.0667 -0.3349  0.0607
  642MOL0     C86540   9.244   9.899   1.939  0.8826 -0.5695 -0.2377
  642MOL0     C86541   9.370   9.951   1.979  0.3356 -0.1435  0.0669
  642MOL0     C86542   9.493   9.888   1.951 -0.2379  0.6132 -0.0945
  642MOL0     O86543   9.621   9.925   1.981  0.1650  0.0716 -0.3106
  642MOL0     C86544   9.641  10.053   2.049  0.3663 -0.0540 -0.6946
  642MOL0     C86545   9.789  10.090   2.065  0.1433  0.2894  0.2817
  642MOL0     C86546   9.870  10.001   2.157 -0.4232  0.1450  0.1223
  642MOL0     C86547   9.988   9.946   2.073 -0.3612 -0.3203 -0.1980
  642MOL0     C86548  10.084  10.059   2.035 -0.2750  0.3143  1.1352
  642MOL0     C86549  10.225  10.008   1.995  0.9150  0.2482  0.0878
  642MOL0     C86550  10.310  10.113   1.917 -0.1917 -0.1854 -0.3676
  642MOL0     C86551  10.460  10.081   1.924  0.5386 -0.4574 -1.0274
  642MOL0     N86552  10.496   9.939   1.937  0.6544  0.8429  0.0688
  642MOL0     C86553  10.550   9.880   2.055 -1.1132  0.2006 -0.1483
  642MOL0     C86554  10.563   9.748   2.014  0.4178 -0.6500 -0.6900
  642MOL0     C86555  10.641   9.636   2.078  0.2158 -0.4924 -0.4137
  642MOL0     C86556  10.793   9.644   2.032 -0.2259 -0.8090 -0.1553
  642MOL0     C86557  10.879   9.712   2.132  0.6273 -0.8311 -0.5814
  642MOL0     C86558  11.021   9.718   2.078  0.4005  0.0768 -0.1699
  642MOL0     O86559  11.098   9.790   2.171 -0.1757 -0.3278 -0.0471
  642MOL0     C86560  11.232   9.770   2.159 -0.8790  0.5156  0.4366
  642MOL0     C86561  11.303   9.796   2.041  0.4177  0.4613 -0.5514
  642MOL0     C86562  11.442   9.780   2.036 -0.3004  0.1183 -0.6300
  642MOL0     C86563  11.511   9.741   2.150 -0.2006 -0.5928 -1.0628
  642MOL0     C86564  11.653   9.710   2.149  0.1689 -0.3522 -0.1849
  642MOL0     O86565  11.722   9.746   2.041 -0.1304 -0.7368 -0.0759
  642MOL0     C86566  11.855   9.713   2.033  0.2127 -0.3479  1.3566
  642MOL0     C86567  11.949   9.819   2.028  0.2531 -0.1630  0.6660
  642MOL0     C86568  12.085   9.800   2.026  0.4315 -0.5453 -0.0762
  642MOL0     C86569  12.135   9.671   2.038 -0.5429  0.4003  0.0585
  642MOL0     O86570  12.274   9.653   2.059 -0.8611 -0.2678 -0.3035
  642MOL0     C86571  12.355   9.706   1.954 -0.9274 -0.0869  1.0008
  642MOL0     C86572  12.493   9.642   1.945  0.3190 -0.2906  0.4669
  642MOL0     C86573  12.592   9.711   2.036 -0.0152  0.0288  0.8278
  642MOL0     C86574  12.557   9.672   2.186 -1.0652 -0.6487 -0.1637
  642MOL0     C86575  12.657   9.710   2.302 -0.0420  0.2377 -0.0910
  642MOL0     C86576  12.806   9.679   2.276  0.2619 -0.6291  0.5546
  642MOL0     C86577  12.829   9.529   2.241  0.2241  0.1757 -0.2901
  642MOL0     C86578  12.973   9.487   2.244 -0.1653  0.6869  0.2320
  642MOL0    Cl86579  13.074   9.588   2.143  0.2180  0.2721 -0.0089
  642MOL0     C86580  12.048   9.565   2.036 -0.6034 -0.1091 -0.5221
  642MOL0     C86581  11.910   9.582   2.032  1.3416  0.0308 -0.2075
  642MOL0     O86582  11.692   9.640   2.239  0.1759 -0.0554  0.3108
  642MOL0     C86583  11.443   9.714   2.273 -0.3569 -0.5544 -0.0243
  642MOL0     C86584  11.304   9.733   2.275 -0.2117 -0.1765  0.2881
  642MOL0     N86585  10.509   9.726   1.889  0.0128 -0.2831 -0.4700
  642MOL0     N86586  10.467   9.842   1.852  0.6654 -0.6686  0.5018
  642MOL0     C86587   9.483   9.768   1.890 -0.9169  0.0104 -0.0464
  642MOL0     C86588   9.363   9.714   1.847 -0.3080 -0.2255  1.0753
  642MOL0     C86589   8.899   9.698   1.712 -0.0256 -0.1997 -0.4807
  642MOL0     C86590   8.937   9.570   1.666 -0.0566 -0.2416  0.1747
  642MOL0     C86591   8.854   9.475   1.595  0.7637  0.2964 -0.1444
  642MOL0     C86592   8.718   9.508   1.571 -0.4520 -0.3752 -0.7279
  642MOL0     O86593   8.651   9.431   1.484 -0.6332  0.5492 -0.6517
  642MOL0     C86594   8.516   9.384   1.516  0.9870 -0.7333 -0.0529
  642MOL0     C86595   8.526   9.283   1.628  0.4634  0.6049 -0.1192
  642MOL0     C86596   8.640   9.175   1.615  0.0097 -0.6464 -0.0588
  642MOL0     C86597   8.613   9.069   1.724 -0.3203 -0.2638  0.2410
  642MOL0     C86598   8.712   8.959   1.702 -0.0635  0.0762  0.6470
  642MOL0     C86599   8.780   8.861   1.666  0.2622  0.0162 -0.5292
  642MOL0     C86600   8.670   9.635   1.616 -0.9131 -0.1219 -0.0747
  642MOL0     C86601   8.759   9.724   1.688 -0.0472 -0.3773  0.5370
  642MOL0     C86602   8.698   9.852   1.735  0.7599  1.1001 -0.3155
  642MOL0     H86603   9.153   9.946   1.977  0.3463 -1.4652 -0.3841
  642MOL0     H86604   9.352  10.049   2.023 -0.5760  0.7355 -2.1394
  642MOL0     H86605   9.593  10.136   1.996  0.5421  0.5262  0.0346
  642MOL0     H86606   9.600  10.039   2.149  0.3508  1.1617 -0.5171
  642MOL0     H86607   9.799  10.193   2.100  1.3824  0.3938 -0.3200
  642MOL0     H86608   9.819  10.097   1.960 -2.1166 -0.2205 -0.4453
  642MOL0     H86609   9.803   9.929   2.204  0.4510  0.4619  1.9266
  642MOL0     H86610   9.912  10.066   2.234 -2.0600  1.2625  0.1145
  642MOL0     H86611  10.053   9.880   2.130  1.8208 -0.2939 -2.5060
  642MOL0     H86612   9.943   9.890   1.990  1.8956 -0.8228 -1.1363
  642MOL0     H86613  10.029  10.108   1.954  0.9917  1.6553  1.0413
  642MOL0     H86614  10.097  10.131   2.116 -1.9344  1.6968  0.2297
  642MOL0     H86615  10.267   9.978   2.091 -1.0426  0.8628  1.2048
  642MOL0     H86616  10.213   9.913   1.943  0.0594  1.3261 -1.8167
  642MOL0     H86617  10.299  10.218   1.948 -1.4877 -0.2854 -0.4339
  642MOL0     H86618  10.285  10.116   1.811 -0.7396  0.5645 -0.2308
  642MOL0     H86619  10.502  10.133   1.836 -1.6302  4.4689  0.4997
  642MOL0     H86620  10.504  10.130   2.012 -0.8004 -0.1194 -0.5321
  642MOL0     H86621  10.595   9.923   2.144 -2.0209 -1.9822  1.4578
  642MOL0     H86622  10.639   9.636   2.187  0.2900  2.7584 -0.3092
  642MOL0     H86623  10.614   9.545   2.024  1.1221 -0.5273 -0.8289
  642MOL0     H86624  10.829   9.542   2.015 -0.4150 -0.7506 -0.9381
  642MOL0     H86625  10.801   9.699   1.938  1.0968  1.3362  1.1275
  642MOL0     H86626  10.887   9.659   2.228  1.6205  1.1310  0.4808
  642MOL0     H86627  10.837   9.811   2.152 -0.9384 -1.2754 -1.4886
  642MOL0     H86628  11.014   9.757   1.976 -2.4480 -0.4879 -0.2763
  642MOL0     H86629  11.063   9.617   2.071 -2.6077 -1.4133  1.6735
  642MOL0     H86630  11.240   9.819   1.956 -1.1190  2.0351  0.9082
  642MOL0     H86631  11.499   9.798   1.945  3.3392 -1.5046  1.0922
  642MOL0     H86632  11.903   9.917   2.028 -0.3518 -0.2528 -3.4197
  642MOL0     H86633  12.151   9.886   2.031 -0.8229  0.3627  1.6925
  642MOL0     H86634  12.302   9.690   1.860 -2.6274 -0.6575  2.0160
  642MOL0     H86635  12.370   9.814   1.957  2.1690 -0.0703 -3.6074
  642MOL0     H86636  12.497   9.533   1.948  0.6839 -0.5262 -3.4081
  642MOL0     H86637  12.525   9.664   1.843 -0.9105 -3.4433 -0.7158
  642MOL0     H86638  12.693   9.672   2.019 -0.4320 -0.1135 -1.7127
  642MOL0     H86639  12.599   9.820   2.029 -0.5442  0.0153  0.0368
  642MOL0     H86640  12.537   9.565   2.177  1.5321 -1.0387 -3.6913
  642MOL0     H86641  12.460   9.714   2.212 -0.2215  0.2137  1.8492
  642MOL0     H86642  12.623   9.664   2.395  0.4179 -1.7112 -0.8262
  642MOL0     H86643  12.647   9.818   2.300 -3.8362  0.0058 -1.7018
  642MOL0     H86644  12.841   9.729   2.185 -0.5674 -1.2974 -0.1598
  642MOL0     H86645  12.871   9.720   2.353 -1.5286 -0.1230  1.8528
  642MOL0     H86646  12.794   9.501   2.141  0.9759 -0.9038 -0.2719
  642MOL0     H86647  12.765   9.471   2.309  0.9627 -1.2728 -0.7940
  642MOL0     H86648  13.009   9.494   2.347  0.6740 -2.3919  0.2363
  642MOL0     H86649  12.988   9.382   2.219 -0.1781  0.0147  2.7392
  642MOL0     H86650  12.088   9.464   2.040  1.4638  0.6929  2.1714
  642MOL0     H86651  11.850   9.492   2.039  0.1678  0.9144  2.4942
  642MOL0     H86652  11.486   9.684   2.367 -0.3963 -2.7549 -0.6608
  642MOL0     H86653  11.248   9.713   2.366 -1.8101 -3.0942 -1.1879
  642MOL0     H86654   9.574   9.718   1.857 -0.1132  2.7218 -2.2639
  642MOL0     H86655   9.346   9.620   1.797 -3.8360  0.2207  1.1842
  642MOL0     H86656   9.041   9.544   1.682 -0.6957 -2.6816  0.7409
  642MOL0     H86657   8.881   9.378   1.555  0.4138  0.0279  0.2642
  642MOL0     H86658   8.463   9.348   1.427  1.9622  1.1792 -1.4724
  642MOL0     H86659   8.458   9.474   1.541  0.4240 -0.3475 -2.4407
  642MOL0     H86660   8.432   9.234   1.655 -0.1020  0.6950 -1.7893
  642MOL0     H86661   8.553   9.330   1.723  0.6656  1.4620 -0.5936
  642MOL0     H86662   8.737   9.218   1.643 -0.0007 -1.7710  1.8614
  642MOL0     H86663   8.640   9.123   1.519 -1.5828  0.9453 -0.9847
  642MOL0     H86664   8.634   9.104   1.825 -0.2551  1.2204 -0.2697
  642MOL0     H86665   8.515   9.021   1.715 -0.1913 -0.2413 -1.7475
  642MOL0     H86666   8.826   8.775   1.621  1.1851  1.0889 -1.6988
  642MOL0     H86667   8.566   9.667   1.607 -0.8275  0.2286  0.1693
  642MOL0     H86668   8.679   9.851   1.843  0.5216  0.9432 -0.3575
  642MOL0     H86669   8.766   9.933   1.706  2.0652  0.0191 -0.3677
  642MOL0     H86670   8.603   9.873   1.685 -0.9893 -4.4049  0.0726
  643MOL0     O86671   7.275   7.725   1.490  0.5831  0.0043  0.2072
  643MOL0     C86672   7.319   7.809   1.412 -0.0806  1.1167  0.2271
  643MOL0     O86673   7.266   7.833   1.292 -0.5335  0.2176  0.4426
  643MOL0     C86674   7.188   7.742   1.228 -0.1078  1.5673 -0.3056
  643MOL0     C86675   7.088   7.785   1.150  0.1699 -0.5147  0.0014
  643MOL0     C86676   6.995   7.699   1.086 -0.6164 -0.2878 -0.3110
  643MOL0     C86677   7.014   7.560   1.094 -0.2031  0.2090  0.0194
  643MOL0     O86678   6.916   7.478   1.041  0.5039 -0.9145 -0.5758
  643MOL0     C86679   6.972   7.365   0.983 -0.2998 -0.7792 -0.2460
  643MOL0     C86680   6.875   7.338   0.879  0.6830  0.2350 -0.2744
  643MOL0     C86681   6.905   7.193   0.840  0.5855  0.1765 -0.6205
  643MOL0     C86682   6.833   7.174   0.709 -0.1144  0.6141  0.6766
  643MOL0     C86683   6.860   7.039   0.646 -0.0548  0.4522  0.1840
  643MOL0     C86684   6.799   6.920   0.711 -0.2358  0.2895 -0.2054
  643MOL0     C86685   6.643   6.908   0.719  0.4735  0.7987 -0.8637
  643MOL0     C86686   6.608   6.757   0.749 -0.3157  0.7126 -1.0025
  643MOL0     N86687   6.457   6.764   0.768 -0.3437  0.8535 -0.4667
  643MOL0     C86688   6.392   6.740   0.885  0.8052  0.5684  0.1962
  643MOL0     C86689   6.263   6.759   0.855  0.0046 -0.7995  0.3515
  643MOL0     C86690   6.149   6.736   0.945 -0.4306 -0.2261  0.7548
  643MOL0     C86691   6.046   6.852   0.949 -0.0257  0.1173 -0.2378
  643MOL0     C86692   6.077   6.961   1.050 -0.7149  0.4130  0.0444
  643MOL0     C86693   6.109   7.100   0.978 -0.1580  1.0409 -1.0107
  643MOL0     O86694   6.152   7.201   1.078  0.1924 -0.3857 -0.0320
  643MOL0     C86695   6.278   7.190   1.126 -0.2616 -0.1248  0.6799
  643MOL0     C86696   6.309   7.285   1.227 -0.0123 -0.2487 -0.5404
  643MOL0     C86697   6.444   7.285   1.284 -0.0702  0.8868 -0.3469
  643MOL0     C86698   6.542   7.193   1.231 -0.9176 -0.6927 -0.5310
  643MOL0     C86699   6.682   7.189   1.288 -0.8096  0.1177 -0.1456
  643MOL0     O86700   6.690   7.266   1.400  0.0769 -0.3431 -0.7261
  643MOL0     C86701   6.801   7.274   1.471  0.0223 -0.0409 -0.4233
  643MOL0     C86702   6.810   7.216   1.595  0.3880 -0.0653  0.2451
  643MOL0     C86703   6.923   7.248   1.679  0.3180 -0.0244  0.1685
  643MOL0     C86704   7.011   7.350   1.635  0.2454  0.2240 -0.5103
  643MOL0     O86705   7.109   7.388   1.733  0.1379 -0.0685  0.8765
  643MOL0     C86706   7.222   7.465   1.677  0.0567 -0.5267 -0.1282
  643MOL0     C86707   7.320   7.480   1.791 -0.9298 -0.3906  0.4824
  643MOL0     C86708   7.425   7.362   1.782 -0.3510  0.2128  0.0448
  643MOL0     C86709   7.527   7.381   1.890 -0.1327  1.0327  0.6453
  643MOL0     C86710   7.653   7.303   1.849  0.3891 -0.3690  0.2156
  643MOL0     C86711   7.773   7.359   1.936 -0.5735  0.1405  0.3939
  643MOL0     C86712   7.918   7.321   1.892 -0.8115  0.0330 -0.1462
  643MOL0     C86713   8.020   7.406   1.956 -0.6477  0.2321  0.2710
  643MOL0    Cl86714   8.001   7.580   1.916  0.3797 -0.4864  0.7193
  643MOL0     C86715   7.001   7.406   1.507  0.2186  0.1176  0.1245
  643MOL0     C86716   6.897   7.367   1.424  0.4250 -0.2305 -1.7036
  643MOL0     O86717   6.778   7.129   1.237 -0.3584  0.4509  0.0281
  643MOL0     C86718   6.516   7.109   1.117  0.1252  0.4658  0.0568
  643MOL0     C86719   6.378   7.104   1.074  0.1046 -0.1278  1.0444
  643MOL0     N86720   6.250   6.800   0.725 -0.5450 -0.0083  0.2758
  643MOL0     N86721   6.367   6.798   0.672 -0.6599 -0.1704 -0.1137
  643MOL0     C86722   7.123   7.509   1.173  0.0122  0.3638  0.1997
  643MOL0     C86723   7.201   7.601   1.240  0.3463  0.3540  0.0390
  643MOL0     C86724   7.419   7.904   1.466 -0.2418 -0.1766  0.6122
  643MOL0     C86725   7.497   7.976   1.373 -1.6218  0.9254 -0.5322
  643MOL0     C86726   7.598   8.067   1.409 -0.3467 -1.0227  0.1834
  643MOL0     C86727   7.618   8.106   1.541 -0.6960  0.2485  0.0371
  643MOL0     O86728   7.727   8.179   1.591  0.2065  0.1413  0.4587
  643MOL0     C86729   7.821   8.229   1.503 -0.9161  0.5585  0.0156
  643MOL0     C86730   7.768   8.342   1.416 -0.2003 -0.2903 -0.3817
  643MOL0     C86731   7.861   8.375   1.295 -0.3119 -0.3319  0.3755
  643MOL0     C86732   7.996   8.430   1.345 -0.3255  0.8630  0.8831
  643MOL0     C86733   8.087   8.452   1.231  0.4423  0.0870 -0.4041
  643MOL0     C86734   8.189   8.459   1.165 -0.2354  0.4740  0.6405
  643MOL0     C86735   7.535   8.049   1.635  0.0067  0.1694 -0.4923
  643MOL0     C86736   7.442   7.943   1.600  0.4615 -0.5823 -0.6355
  643MOL0     C86737   7.362   7.900   1.718  0.5196  0.5448 -0.5294
  643MOL0     H86738   7.075   7.892   1.137 -0.4714 -0.6646 -0.7133
  643MOL0     H86739   6.912   7.729   1.023  0.3103  1.5465 -0.7224
  643MOL0     H86740   7.074   7.375   0.943 -0.1264 -0.6508  0.2208
  643MOL0     H86741   6.965   7.283   1.055  0.0422 -0.7009 -0.1212
  643MOL0     H86742   6.899   7.400   0.792  0.8080 -1.5570 -1.5571
  643MOL0     H86743   6.774   7.356   0.917  0.5203  2.4089 -1.5558
  643MOL0     H86744   6.866   7.127   0.918  0.0452  1.0069 -0.1745
  643MOL0     H86745   7.013   7.173   0.841  0.4360 -0.9836  2.1223
  643MOL0     H86746   6.726   7.199   0.712 -0.3039  0.3882 -2.0083
  643MOL0     H86747   6.870   7.248   0.637 -2.1553  2.4816  1.4186
  643MOL0     H86748   6.827   7.035   0.541  0.2027 -1.2317  0.1459
  643MOL0     H86749   6.969   7.037   0.653  0.0277 -1.2959 -1.0929
  643MOL0     H86750   6.829   6.829   0.657 -1.9010  0.6281 -1.8266
  643MOL0     H86751   6.842   6.912   0.811  3.2399  0.7008 -1.5396
  643MOL0     H86752   6.597   6.941   0.625  0.7037 -2.4332 -2.2411
  643MOL0     H86753   6.614   6.976   0.799 -1.2415 -1.2633  0.3756
  643MOL0     H86754   6.621   6.690   0.664 -1.1912  0.5803 -1.0455
  643MOL0     H86755   6.664   6.718   0.834  0.3272  1.7742 -0.9171
  643MOL0     H86756   6.436   6.705   0.978  1.3784 -0.2156 -0.3612
  643MOL0     H86757   6.106   6.644   0.905  0.9543 -0.5654 -0.0075
  643MOL0     H86758   6.174   6.702   1.045  1.4580 -1.2516 -0.0255
  643MOL0     H86759   6.044   6.903   0.853 -0.5961 -2.7553 -1.8605
  643MOL0     H86760   5.941   6.823   0.960 -0.6672  0.8329 -3.5236
  643MOL0     H86761   6.157   6.934   1.119 -0.9927  2.4082  1.2290
  643MOL0     H86762   5.988   6.976   1.111  0.5429 -1.1567  2.4131
  643MOL0     H86763   6.013   7.135   0.938 -0.0643  2.6878  0.0934
  643MOL0     H86764   6.183   7.100   0.897  0.5345  1.3705 -0.3829
  643MOL0     H86765   6.235   7.364   1.229 -0.4030 -0.6177 -0.2417
  643MOL0     H86766   6.481   7.347   1.366  2.4084 -1.6227  0.5895
  643MOL0     H86767   6.734   7.147   1.630  1.0970 -1.1817 -0.3317
  643MOL0     H86768   6.938   7.212   1.780  0.8462 -2.3353 -0.6689
  643MOL0     H86769   7.262   7.412   1.590 -0.8077 -0.7180 -0.4207
  643MOL0     H86770   7.205   7.570   1.653  2.4630 -0.2541 -0.9658
  643MOL0     H86771   7.377   7.572   1.778  1.0820 -1.7344 -0.9576
  643MOL0     H86772   7.271   7.483   1.888 -1.3726  2.3831  0.2406
  643MOL0     H86773   7.381   7.264   1.802 -1.6746  0.8165  0.1971
  643MOL0     H86774   7.470   7.380   1.684 -1.4968 -0.7074 -0.6746
  643MOL0     H86775   7.508   7.340   1.990  3.3113 -1.0120  0.6020
  643MOL0     H86776   7.564   7.484   1.887  3.0525 -0.0209 -1.1600
  643MOL0     H86777   7.670   7.319   1.742  1.1745  1.2818  0.5468
  643MOL0     H86778   7.643   7.194   1.858  1.4311 -0.3887  1.3520
  643MOL0     H86779   7.764   7.466   1.952 -1.5034  0.0849  0.3045
  643MOL0     H86780   7.750   7.328   2.039 -1.2049  0.1587  0.2622
  643MOL0     H86781   7.926   7.342   1.785  3.0879  0.5161  0.1031
  643MOL0     H86782   7.946   7.217   1.909  1.2720  0.8328  1.8384
  643MOL0     H86783   8.003   7.402   2.064 -0.1087  1.6404  0.4328
  643MOL0     H86784   8.122   7.373   1.932 -0.9564  0.1701 -1.0025
  643MOL0     H86785   7.072   7.478   1.467 -1.2416  0.9031 -1.1733
  643MOL0     H86786   6.881   7.433   1.339 -0.0855  0.9886 -0.6958
  643MOL0     H86787   6.595   7.043   1.082 -0.2253 -1.2651  2.2691
  643MOL0     H86788   6.366   7.038   0.988 -3.2979  0.3456  1.0479
  643MOL0     H86789   7.146   7.405   1.190  4.0051  1.1785  0.8499
  643MOL0     H86790   7.281   7.561   1.301  1.4057  1.3090 -0.6735
  643MOL0     H86791   7.485   7.971   1.265  2.1417  2.1039 -1.1617
  643MOL0     H86792   7.646   8.125   1.330 -1.2031 -1.8592 -0.9888
  643MOL0     H86793   7.858   8.143   1.447 -0.8932  0.8369 -0.4013
  643MOL0     H86794   7.909   8.269   1.556 -1.4556  1.3365  0.3422
  643MOL0     H86795   7.758   8.434   1.474 -0.5714  1.5070 -3.0645
  643MOL0     H86796   7.667   8.322   1.379 -0.9114 -1.1051  1.8687
  643MOL0     H86797   7.815   8.442   1.223 -0.2914  1.7003  2.1444
  643MOL0     H86798   7.889   8.283   1.242 -1.4898 -2.4029  3.0665
  643MOL0     H86799   7.985   8.523   1.402 -0.1066  1.5643 -0.1836
  643MOL0     H86800   8.050   8.356   1.404  0.4841  0.6356 -0.1101
  643MOL0     H86801   8.289   8.461   1.127  0.9497  0.3002  3.5042
  643MOL0     H86802   7.548   8.071   1.740  1.3187 -2.8112  0.0752
  643MOL0     H86803   7.405   7.921   1.816  3.9032 -0.0446 -1.7464
  643MOL0     H86804   7.262   7.941   1.702 -0.6283 -1.6705  0.4526
  643MOL0     H86805   7.343   7.792   1.714 -2.1699  0.9277 -4.3683
  644MOL0     O86806   6.191  10.816   7.965  0.1884  0.0809  0.2113
  644MOL0     C86807   6.092  10.807   7.896 -0.2418 -0.4314 -0.3297
  644MOL0     O86808   6.087  10.756   7.767 -0.1584  0.2840  0.6755
  644MOL0     C86809   6.214  10.734   7.722 -0.0167 -0.1940  0.3462
  644MOL0     C86810   6.294  10.635   7.768 -0.6729  0.5723 -0.2604
  644MOL0     C86811   6.423  10.614   7.727 -0.2605  0.1677  0.3773
  644MOL0     C86812   6.485  10.702   7.636  0.1107  0.0269 -0.7162
  644MOL0     O86813   6.625  10.681   7.621 -0.3432 -0.1059  0.5718
  644MOL0     C86814   6.670  10.744   7.498 -0.2193 -0.6596  1.0909
  644MOL0     C86815   6.819  10.709   7.477  0.4209  0.6076 -0.7731
  644MOL0     C86816   6.902  10.802   7.384  0.8437  0.2354  0.2581
  644MOL0     C86817   7.051  10.779   7.401  0.2461 -0.1163  0.0098
  644MOL0     C86818   7.097  10.644   7.348  0.1670 -0.1410 -0.1542
  644MOL0     C86819   7.238  10.651   7.285 -0.1002 -0.3240  0.4009
  644MOL0     C86820   7.272  10.508   7.229 -1.0866  0.7671  0.2610
  644MOL0     C86821   7.228  10.499   7.088 -0.1390  0.1577  0.8426
  644MOL0     N86822   7.283  10.379   7.025  0.6608  0.1872 -0.4375
  644MOL0     C86823   7.210  10.257   7.017 -0.1460 -0.5629  0.6582
  644MOL0     C86824   7.297  10.158   7.001  0.0046 -0.4543  0.6971
  644MOL0     C86825   7.271  10.014   6.998 -0.1217  0.1089  0.8924
  644MOL0     C86826   7.392   9.945   7.073  0.0077 -0.8829  0.0580
  644MOL0     C86827   7.361   9.803   7.105  0.4066  1.1315 -0.7013
  644MOL0     C86828   7.494   9.736   7.140 -0.5164 -0.6529  0.2075
  644MOL0     O86829   7.527   9.770   7.272  0.2557 -0.0938  0.1515
  644MOL0     C86830   7.647   9.742   7.320 -0.3893  0.0603 -0.2450
  644MOL0     C86831   7.676   9.781   7.453 -0.8350 -0.0695 -0.4212
  644MOL0     C86832   7.786   9.732   7.525  0.0580  0.6276 -0.4163
  644MOL0     C86833   7.877   9.655   7.466 -0.2032 -0.0208 -0.1413
  644MOL0     C86834   7.993   9.611   7.540 -0.0010  0.1969  1.2970
  644MOL0     O86835   8.029   9.484   7.519  0.3213  0.4444 -0.0801
  644MOL0     C86836   8.139   9.431   7.580  0.1019  0.7932 -0.1278
  644MOL0     C86837   8.131   9.338   7.685  0.3318 -0.7891 -0.5207
  644MOL0     C86838   8.247   9.284   7.734 -0.5644 -0.4141  0.6930
  644MOL0     C86839   8.375   9.308   7.672  0.9936 -0.1026  0.5184
  644MOL0     O86840   8.482   9.255   7.742 -0.7139 -0.0743 -0.6975
  644MOL0     C86841   8.614   9.250   7.680  0.0790 -0.9849  0.9871
  644MOL0     C86842   8.707   9.195   7.789  0.3381 -0.0754  0.2633
  644MOL0     C86843   8.860   9.175   7.752  0.2373 -0.3429 -0.2693
  644MOL0     C86844   8.905   9.028   7.766  0.5085 -0.2008 -0.8470
  644MOL0     C86845   9.061   9.020   7.754  0.0683 -0.1973  0.3897
  644MOL0     C86846   9.119   9.062   7.610  0.5937  0.5130 -0.8048
  644MOL0     C86847   9.269   9.027   7.618 -0.0789  0.2690 -1.3239
  644MOL0     C86848   9.358   9.104   7.712  0.1369 -0.4879 -0.3071
  644MOL0    Cl86849   9.528   9.096   7.660 -0.4162 -0.1538  0.0931
  644MOL0     C86850   8.373   9.386   7.555  0.2781  0.4022 -0.0602
  644MOL0     C86851   8.256   9.455   7.515 -0.1254 -0.4801 -0.3962
  644MOL0     O86852   8.055   9.694   7.607 -0.2456 -0.0239 -0.3446
  644MOL0     C86853   7.856   9.621   7.332 -0.3135 -0.2138  0.2033
  644MOL0     C86854   7.747   9.664   7.259  0.5500 -0.0191 -0.5016
  644MOL0     N86855   7.424  10.213   6.985 -0.0188  0.4500 -0.5831
  644MOL0     N86856   7.412  10.348   7.001  0.8816  0.5620  0.2433
  644MOL0     C86857   6.409  10.812   7.590  0.4841 -0.6417  0.3678
  644MOL0     C86858   6.271  10.822   7.631  0.7722  0.5857 -0.7651
  644MOL0     C86859   5.958  10.856   7.954 -0.6734 -0.3015 -0.2596
  644MOL0     C86860   5.920  10.819   8.084 -0.4137  1.6467 -0.0548
  644MOL0     C86861   5.793  10.838   8.146  0.0079 -0.4483  0.0709
  644MOL0     C86862   5.689  10.884   8.063 -0.8972 -0.5206 -0.3675
  644MOL0     O86863   5.562  10.894   8.119  0.1973  0.2999 -0.4737
  644MOL0     C86864   5.451  10.922   8.034  0.3891 -0.2110  0.6626
  644MOL0     C86865   5.428  10.800   7.947 -0.1633  0.3521 -0.2356
  644MOL0     C86866   5.317  10.841   7.848  0.2244  0.3611  0.4832
  644MOL0     C86867   5.295  10.742   7.739  0.3417 -1.1537  0.2767
  644MOL0     C86868   5.205  10.636   7.784  1.0337  0.4837 -0.6082
  644MOL0     C86869   5.127  10.551   7.828  0.1095  0.1686 -0.3058
  644MOL0     C86870   5.724  10.917   7.924  0.1967 -0.1219 -0.7556
  644MOL0     C86871   5.855  10.910   7.875  0.3947 -0.7278 -0.2186
  644MOL0     C86872   5.863  10.951   7.726 -0.5523  0.3095 -0.3651
  644MOL0     H86873   6.252  10.575   7.848 -0.5097 -1.4435 -1.6234
  644MOL0     H86874   6.483  10.540   7.778 -0.5830  0.4729  1.2102
  644MOL0     H86875   6.623  10.700   7.410  1.1483 -0.4269  0.2206
  644MOL0     H86876   6.666  10.854   7.500  4.0695 -0.3094  0.4081
  644MOL0     H86877   6.821  10.607   7.439 -0.6446  0.1211  0.4081
  644MOL0     H86878   6.871  10.709   7.572  1.6618 -0.0040 -1.4289
  644MOL0     H86879   6.880  10.903   7.421 -0.5781 -0.4843  1.5083
  644MOL0     H86880   6.877  10.797   7.278 -1.4958 -2.2967  0.8045
  644MOL0     H86881   7.095  10.867   7.354  0.4318 -0.0309  0.3406
  644MOL0     H86882   7.079  10.796   7.505  1.8150 -1.3143 -0.1701
  644MOL0     H86883   7.079  10.566   7.423 -0.3156 -0.9169 -1.0543
  644MOL0     H86884   7.025  10.618   7.270 -1.4562  0.1902  1.1667
  644MOL0     H86885   7.237  10.721   7.201  3.3088  1.7449  1.8608
  644MOL0     H86886   7.309  10.698   7.353 -0.1097  3.5155 -1.9174
  644MOL0     H86887   7.229  10.429   7.290  2.0995  1.0144  3.1391
  644MOL0     H86888   7.379  10.500   7.250 -1.4166 -1.8011  1.3316
  644MOL0     H86889   7.120  10.496   7.073 -0.1142  0.4024  0.5983
  644MOL0     H86890   7.267  10.582   7.028 -1.9079 -0.0988 -0.7533
  644MOL0     H86891   7.102  10.248   7.030 -0.2301  0.3167  0.6403
  644MOL0     H86892   7.177   9.989   7.047 -0.3093 -1.1134 -0.0362
  644MOL0     H86893   7.259   9.996   6.891 -1.1441 -1.5146  1.2466
  644MOL0     H86894   7.489   9.958   7.025  1.4222 -2.4005  2.3306
  644MOL0     H86895   7.417   9.998   7.165  1.8739 -0.3073 -0.7368
  644MOL0     H86896   7.315   9.758   7.016 -1.5067 -0.9699  1.2110
  644MOL0     H86897   7.284   9.791   7.182  0.7346  0.3516 -0.4906
  644MOL0     H86898   7.576   9.767   7.074 -0.2862  0.6852  1.0924
  644MOL0     H86899   7.480   9.628   7.128  2.5427 -1.0929 -0.2029
  644MOL0     H86900   7.597   9.837   7.503 -1.9450 -0.7561 -1.3517
  644MOL0     H86901   7.801   9.755   7.630  0.8242 -1.6650  0.0208
  644MOL0     H86902   8.038   9.305   7.731  1.1993 -0.1244  1.8292
  644MOL0     H86903   8.235   9.213   7.816 -2.1135  0.3709  1.1816
  644MOL0     H86904   8.619   9.190   7.589  0.9090  0.8998 -0.2768
  644MOL0     H86905   8.655   9.347   7.649 -1.6097 -0.4042  0.4739
  644MOL0     H86906   8.682   9.264   7.870 -0.7095  0.5771 -0.5825
  644MOL0     H86907   8.678   9.095   7.821  1.7722  0.2864  3.0228
  644MOL0     H86908   8.863   9.188   7.643  1.5830  0.0520 -0.2078
  644MOL0     H86909   8.917   9.251   7.807 -0.6348  0.1416 -0.0052
  644MOL0     H86910   8.849   8.957   7.704  0.1389 -1.6749  1.0691
  644MOL0     H86911   8.893   8.998   7.870 -1.3359 -0.4732 -1.0937
  644MOL0     H86912   9.075   8.912   7.758 -2.8682 -0.7728 -1.4803
  644MOL0     H86913   9.112   9.068   7.839 -3.3714  1.9212  1.5121
  644MOL0     H86914   9.072   8.997   7.535  2.2001 -0.4541 -1.0237
  644MOL0     H86915   9.105   9.168   7.590  0.6533  0.2859 -2.1818
  644MOL0     H86916   9.320   9.043   7.523  0.7994 -3.7534 -1.6931
  644MOL0     H86917   9.290   8.921   7.635  0.0305  0.4868 -0.0351
  644MOL0     H86918   9.327   9.208   7.724  0.4125 -0.6044  1.8953
  644MOL0     H86919   9.357   9.070   7.816  1.4242  0.5297  0.0701
  644MOL0     H86920   8.462   9.405   7.496  0.5756  1.4069  0.6847
  644MOL0     H86921   8.261   9.531   7.438 -0.3914  1.7800  1.6831
  644MOL0     H86922   7.930   9.551   7.296 -1.5043 -0.7665 -1.3069
  644MOL0     H86923   7.749   9.637   7.154  0.5754 -0.9919 -0.2563
  644MOL0     H86924   6.449  10.889   7.524  0.9009 -0.7185  0.5293
  644MOL0     H86925   6.215  10.890   7.567 -0.3325  1.3627  0.9745
  644MOL0     H86926   5.992  10.778   8.154 -1.4892 -0.0860  0.0715
  644MOL0     H86927   5.777  10.817   8.251  1.0246 -1.4243  0.0474
  644MOL0     H86928   5.472  11.012   7.975 -3.1315  0.2453 -0.1075
  644MOL0     H86929   5.360  10.942   8.089 -1.5146 -0.2296 -2.2424
  644MOL0     H86930   5.392  10.726   8.019 -0.8722  0.1470 -0.7871
  644MOL0     H86931   5.515  10.757   7.896 -1.8881 -0.1385 -2.9718
  644MOL0     H86932   5.331  10.942   7.808  3.1626  0.3275  1.2443
  644MOL0     H86933   5.225  10.845   7.907 -0.0499  2.5808 -0.0044
  644MOL0     H86934   5.254  10.795   7.652  2.6953  2.8442  1.3082
  644MOL0     H86935   5.392  10.703   7.706  0.5265  0.3539 -1.1545
  644MOL0     H86936   5.066  10.476   7.874 -0.1694 -0.5580 -1.8020
  644MOL0     H86937   5.649  10.960   7.858  0.0799  1.8303  0.5587
  644MOL0     H86938   5.962  10.960   7.682  0.3093 -2.0640  0.9175
  644MOL0     H86939   5.819  10.867   7.671  0.8032 -1.1971  0.7797
  644MOL0     H86940   5.816  11.045   7.696  0.2855  0.2787 -1.8856
  645MOL0     O86941   2.911   8.574   7.154 -0.4763  0.2498 -0.4574
  645MOL0     C86942   2.907   8.537   7.274 -0.0616  0.4861 -0.3802
  645MOL0     O86943   2.985   8.442   7.340 -0.1467  0.3328  0.9646
  645MOL0     C86944   3.073   8.363   7.271 -0.1018 -0.1561 -0.3046
  645MOL0     C86945   3.151   8.406   7.169 -0.2080 -0.0092 -0.2177
  645MOL0     C86946   3.245   8.321   7.116 -0.2625  0.7602 -0.4094
  645MOL0     C86947   3.263   8.190   7.162  0.3473  0.1816  1.0694
  645MOL0     O86948   3.361   8.128   7.094 -0.0101 -0.3631 -0.6947
  645MOL0     C86949   3.343   7.985   7.076 -0.5571 -0.2677 -0.5473
  645MOL0     C86950   3.442   7.920   7.171  0.4096  0.0600 -0.2838
  645MOL0     C86951   3.411   7.768   7.200  0.9749 -0.5596 -0.3037
  645MOL0     C86952   3.487   7.706   7.318 -0.6358  0.0111  0.0128
  645MOL0     C86953   3.632   7.717   7.287  0.7819 -0.5492 -0.4943
  645MOL0     C86954   3.678   7.635   7.162 -0.1685  0.2105 -1.1931
  645MOL0     C86955   3.828   7.661   7.142  0.2305 -0.5121  0.6999
  645MOL0     C86956   3.889   7.608   7.012 -0.2473  0.3660 -0.1674
  645MOL0     N86957   4.019   7.650   6.985 -0.3057 -0.5330 -0.3451
  645MOL0     C86958   4.069   7.782   6.961  0.0157  0.6821  0.0615
  645MOL0     C86959   4.200   7.767   6.930  0.2571 -0.2912  0.8427
  645MOL0     C86960   4.285   7.891   6.891  0.6153 -0.3116  0.5859
  645MOL0     C86961   4.397   7.908   6.990 -0.0804  0.2926 -0.4314
  645MOL0     C86962   4.467   8.040   6.968 -0.5006 -0.4374  0.2987
  645MOL0     C86963   4.601   8.041   7.048  0.6359  0.8211 -0.2169
  645MOL0     O86964   4.643   8.170   7.023  0.1264 -0.4523 -0.3153
  645MOL0     C86965   4.773   8.209   7.032 -1.0242  1.2004 -0.6134
  645MOL0     C86966   4.867   8.141   7.114 -0.3306 -0.2347 -0.4525
  645MOL0     C86967   4.991   8.193   7.134 -0.5527 -0.6375 -0.1755
  645MOL0     C86968   5.032   8.315   7.081  0.7971 -0.4491  0.3010
  645MOL0     C86969   5.169   8.367   7.101 -0.7696  0.7414  0.7304
  645MOL0     O86970   5.213   8.466   7.026 -0.0363 -0.4995 -0.6938
  645MOL0     C86971   5.346   8.509   7.017  0.1954  0.0478  0.3673
  645MOL0     C86972   5.359   8.587   6.905  0.6251  0.3370 -0.6002
  645MOL0     C86973   5.481   8.642   6.867  1.0853  0.3026 -0.2067
  645MOL0     C86974   5.586   8.616   6.948  0.6639  0.0192 -0.9879
  645MOL0     O86975   5.711   8.668   6.911 -0.2975  0.0060 -0.0721
  645MOL0     C86976   5.738   8.710   6.772 -1.0790 -0.6370 -0.5199
  645MOL0     C86977   5.887   8.746   6.757  0.4049 -0.1067 -0.1849
  645MOL0     C86978   5.919   8.859   6.661 -0.0837 -0.6224 -0.0521
  645MOL0     C86979   6.063   8.912   6.669 -0.0878  0.7496  0.8339
  645MOL0     C86980   6.159   8.812   6.613 -0.2278 -0.5431  0.3296
  645MOL0     C86981   6.296   8.877   6.631  0.3266  0.3831  0.3965
  645MOL0     C86982   6.405   8.790   6.564 -0.5806 -0.0842  0.8912
  645MOL0     C86983   6.536   8.866   6.534  0.4946  0.1155 -0.4202
  645MOL0    Cl86984   6.523   8.929   6.368 -0.0538  0.0085  0.2776
  645MOL0     C86985   5.573   8.541   7.065  0.8726  0.2218  0.2487
  645MOL0     C86986   5.453   8.485   7.105  0.0392  0.7130 -1.4936
  645MOL0     O86987   5.238   8.292   7.171  0.5424  0.6464 -0.5596
  645MOL0     C86988   4.933   8.389   7.011 -0.0770  0.2421 -0.3524
  645MOL0     C86989   4.802   8.340   6.992 -0.4274 -0.6594  0.0939
  645MOL0     N86990   4.225   7.635   6.921  0.0804  0.1405 -0.7046
  645MOL0     N86991   4.123   7.568   6.965 -0.5297  0.0051 -0.3658
  645MOL0     C86992   3.187   8.145   7.271 -0.0632  0.8918  0.0510
  645MOL0     C86993   3.091   8.234   7.328  0.1907 -0.3786  0.0354
  645MOL0     C86994   2.816   8.616   7.357  0.1618 -0.5076 -0.3561
  645MOL0     C86995   2.836   8.755   7.356 -0.5881  0.1089  0.5375
  645MOL0     C86996   2.772   8.840   7.442  0.4944 -0.1644 -0.3350
  645MOL0     C86997   2.685   8.777   7.544 -0.5111 -0.3638 -0.0812
  645MOL0     O86998   2.618   8.858   7.629 -0.5517  0.1249  0.4953
  645MOL0     C86999   2.573   8.804   7.749 -0.4493 -0.3442  0.5432
  645MOL0     C87000   2.553   8.906   7.856 -0.8210 -0.8611 -0.2368
  645MOL0     C87001   2.430   8.991   7.843  0.2869 -0.1678 -0.3436
  645MOL0     C87002   2.446   9.085   7.717  0.5561  0.1642 -0.4211
  645MOL0     C87003   2.320   9.167   7.713  0.4006  0.2836  0.5278
  645MOL0     C87004   2.225   9.241   7.707  0.4766  0.4982  0.3327
  645MOL0     C87005   2.668   8.643   7.548 -0.0703  0.3990  0.0600
  645MOL0     C87006   2.735   8.556   7.451  0.9203  0.1026 -1.1229
  645MOL0     C87007   2.715   8.410   7.464  0.2220 -0.2568  0.9195
  645MOL0     H87008   3.155   8.509   7.137  1.2763 -0.2863 -0.9935
  645MOL0     H87009   3.294   8.354   7.024  2.1145  2.2239  1.2605
  645MOL0     H87010   3.240   7.954   7.099 -0.9441  0.4847 -1.2282
  645MOL0     H87011   3.359   7.957   6.971  0.1039 -0.5293 -0.3805
  645MOL0     H87012   3.451   7.978   7.262  1.4793 -2.6411  1.4468
  645MOL0     H87013   3.541   7.917   7.124  0.8243 -0.1158  0.5979
  645MOL0     H87014   3.412   7.706   7.110 -1.0835  0.0302 -0.7996
  645MOL0     H87015   3.309   7.782   7.237  0.9646  0.1348 -0.5622
  645MOL0     H87016   3.464   7.760   7.410 -1.1150  0.6610 -0.4806
  645MOL0     H87017   3.451   7.603   7.320 -2.8946  0.7621  1.5070
  645MOL0     H87018   3.654   7.823   7.274 -1.7051  0.3789  1.8841
  645MOL0     H87019   3.679   7.674   7.376 -1.1687 -2.0594 -0.1339
  645MOL0     H87020   3.653   7.530   7.177  0.5961  0.3564  1.8548
  645MOL0     H87021   3.623   7.662   7.071 -0.3345 -0.8299 -1.4073
  645MOL0     H87022   3.886   7.620   7.226  0.3345  0.3576  1.0558
  645MOL0     H87023   3.834   7.769   7.151 -2.8577 -0.2352  0.6332
  645MOL0     H87024   3.881   7.499   7.010  1.5542  0.1933  0.5869
  645MOL0     H87025   3.834   7.662   6.934 -0.7051  2.1813  1.3530
  645MOL0     H87026   4.020   7.879   6.952 -0.7818  0.3649  0.8097
  645MOL0     H87027   4.347   7.882   6.801 -1.0221  2.5723 -0.9469
  645MOL0     H87028   4.224   7.981   6.879  0.1127 -0.7124  0.0744
  645MOL0     H87029   4.360   7.886   7.091 -2.2914  0.2115 -1.1849
  645MOL0     H87030   4.475   7.838   6.958  0.1300 -0.5205  1.6849
  645MOL0     H87031   4.416   8.133   6.996  3.6022  2.4438 -0.8084
  645MOL0     H87032   4.487   8.053   6.861 -0.5592 -0.1381  0.3239
  645MOL0     H87033   4.667   7.965   7.006 -0.3083  0.3281 -0.8206
  645MOL0     H87034   4.584   8.008   7.151  1.9336 -2.6777 -0.9988
  645MOL0     H87035   4.846   8.045   7.159  1.6166  0.3674  1.9641
  645MOL0     H87036   5.064   8.126   7.179  2.1552  1.3343 -1.3227
  645MOL0     H87037   5.272   8.608   6.843 -0.4233  5.1191  1.9518
  645MOL0     H87038   5.489   8.689   6.769 -1.4381  0.2377 -0.5045
  645MOL0     H87039   5.711   8.631   6.701 -0.1592  0.6664 -2.3836
  645MOL0     H87040   5.673   8.795   6.750 -3.7551 -2.5159 -0.4233
  645MOL0     H87041   5.913   8.786   6.855 -0.2767 -1.2996  0.5070
  645MOL0     H87042   5.956   8.665   6.731  0.3045  0.3308 -1.9237
  645MOL0     H87043   5.892   8.828   6.560  1.4218  2.0062 -1.3430
  645MOL0     H87044   5.856   8.945   6.684 -0.0495 -0.5109 -0.3763
  645MOL0     H87045   6.091   8.946   6.769  0.7485  1.2571  0.4368
  645MOL0     H87046   6.074   9.000   6.605  0.6743  0.1353  0.0992
  645MOL0     H87047   6.147   8.805   6.505  0.1291 -1.8008  0.3614
  645MOL0     H87048   6.155   8.711   6.656 -4.2239 -0.4165  0.6178
  645MOL0     H87049   6.302   8.976   6.585 -0.3184  0.7219  1.0327
  645MOL0     H87050   6.314   8.890   6.738 -2.9411 -0.5270  1.1670
  645MOL0     H87051   6.364   8.760   6.467  2.9437 -1.5531 -0.2884
  645MOL0     H87052   6.425   8.701   6.624  0.6865 -1.0661 -0.8875
  645MOL0     H87053   6.543   8.942   6.613 -1.1363 -0.1609  0.0267
  645MOL0     H87054   6.627   8.805   6.539  0.2926 -0.2096 -0.7016
  645MOL0     H87055   5.662   8.529   7.126  2.5325  1.7265 -1.7610
  645MOL0     H87056   5.453   8.444   7.205  1.0767  2.8560 -0.5243
  645MOL0     H87057   4.947   8.486   6.964  0.4187  0.2781 -0.1387
  645MOL0     H87058   4.724   8.403   6.949  0.1087 -0.5270 -0.7124
  645MOL0     H87059   3.208   8.049   7.318 -0.5842  0.4698 -0.5517
  645MOL0     H87060   3.047   8.214   7.425  0.2479  0.4519  0.2423
  645MOL0     H87061   2.899   8.813   7.288 -1.5672 -1.0455 -1.4431
  645MOL0     H87062   2.778   8.948   7.437  1.1172 -0.2388 -1.6253
  645MOL0     H87063   2.652   8.741   7.790  1.8071  2.5532  0.9506
  645MOL0     H87064   2.487   8.737   7.744  1.3545 -2.9202  2.0599
  645MOL0     H87065   2.644   8.967   7.868 -0.6079 -1.2449  0.1225
  645MOL0     H87066   2.550   8.851   7.950  0.3772 -3.0850 -1.4109
  645MOL0     H87067   2.413   9.056   7.929 -0.9796  0.0089 -0.7126
  645MOL0     H87068   2.346   8.922   7.850  0.3522 -0.2374 -0.2371
  645MOL0     H87069   2.539   9.143   7.717  0.5273  0.3575 -3.5118
  645MOL0     H87070   2.449   9.016   7.633  0.1457 -3.2244  2.1358
  645MOL0     H87071   2.143   9.309   7.718 -1.6256 -2.1058  2.3333
  645MOL0     H87072   2.600   8.591   7.615 -2.1000 -0.3030 -2.4046
  645MOL0     H87073   2.643   8.390   7.544  0.3603  0.8489  1.3407
  645MOL0     H87074   2.682   8.363   7.371  0.1933  0.5790  0.4953
  645MOL0     H87075   2.813   8.373   7.494  0.6958  0.5446  0.3925
  646MOL0     O87076   1.548  10.978   1.661  0.3385  0.2810  0.0040
  646MOL0     C87077   1.440  10.920   1.644 -0.0045  0.2644 -0.9148
  646MOL0     O87078   1.429  10.790   1.600  0.2432 -0.6123  0.7999
  646MOL0     C87079   1.539  10.713   1.570  0.3920 -0.4915  0.5353
  646MOL0     C87080   1.667  10.756   1.542 -0.4949  0.0705 -0.2030
  646MOL0     C87081   1.762  10.671   1.495  0.0337 -0.1867 -0.4410
  646MOL0     C87082   1.748  10.539   1.479 -0.4933  0.1841  0.6326
  646MOL0     O87083   1.855  10.464   1.444 -0.7519  0.0927  0.5134
  646MOL0     C87084   1.864  10.441   1.304 -0.0412  0.4968 -0.5916
  646MOL0     C87085   1.923  10.544   1.209  0.1471  0.3482  0.8200
  646MOL0     C87086   1.890  10.494   1.067 -0.1553  0.1054 -0.2695
  646MOL0     C87087   1.961  10.563   0.950 -0.1916 -0.4090 -0.7792
  646MOL0     C87088   1.921  10.501   0.812  0.8262 -0.9010 -1.0584
  646MOL0     C87089   2.008  10.380   0.776  0.6846 -0.4935 -0.5407
  646MOL0     C87090   1.997  10.339   0.631  0.8134 -0.7403 -0.3951
  646MOL0     C87091   2.132  10.276   0.595 -0.6778 -0.1446 -0.7875
  646MOL0     N87092   2.132  10.234   0.461 -0.5946 -0.8203  0.1010
  646MOL0     C87093   2.163  10.107   0.426 -0.0469  0.0661  0.7762
  646MOL0     C87094   2.189  10.108   0.294  0.3513  0.3040  0.0733
  646MOL0     C87095   2.218   9.984   0.215  0.3402  0.9443  0.3248
  646MOL0     C87096   2.290   9.986   0.077  0.1126 -0.6404 -0.7734
  646MOL0     C87097   2.403  10.096   0.055 -0.2973 -0.5745 -1.2861
  646MOL0     C87098   2.502  10.108   0.177  1.0118  0.1130  0.7163
  646MOL0     O87099   2.576   9.986   0.183 -0.7478  0.4218 -0.7989
  646MOL0     C87100   2.699   9.970   0.116 -0.6390  0.7593 -0.2681
  646MOL0     C87101   2.750  10.046   0.013  0.5067 -1.0885 -0.3550
  646MOL0     C87102   2.869  10.025  -0.051  0.6666  1.3113 -0.1900
  646MOL0     C87103   2.957   9.911  -0.023 -0.4734 -0.3789  0.5648
  646MOL0     C87104   3.092   9.917  -0.077 -0.1641 -0.7070  0.9493
  646MOL0     O87105   3.125  10.008  -0.182 -0.1205 -0.0566 -0.3569
  646MOL0     C87106   3.250  10.006  -0.238  0.0966  0.6748 -0.3392
  646MOL0     C87107   3.359  10.074  -0.176 -0.4441  0.2578 -0.5086
  646MOL0     C87108   3.477  10.092  -0.246 -0.6837 -0.3247 -0.5306
  646MOL0     C87109   3.500  10.028  -0.374 -0.4494  0.3122 -0.7073
  646MOL0     O87110   3.614  10.034  -0.453 -0.3626  0.5037 -0.8178
  646MOL0     C87111   3.737  10.052  -0.378 -0.8261 -0.2862 -0.0606
  646MOL0     C87112   3.856  10.035  -0.479  0.1855 -0.2341 -0.1988
  646MOL0     C87113   3.990  10.069  -0.427  0.3486 -0.5996 -0.3183
  646MOL0     C87114   4.025   9.976  -0.309  1.5175 -0.8279  0.6389
  646MOL0     C87115   4.173   9.980  -0.270  0.0350  0.6798 -0.2477
  646MOL0     C87116   4.190   9.915  -0.129  1.2771  0.7247  0.4681
  646MOL0     C87117   4.337   9.922  -0.084  0.6957 -0.0944  0.8455
  646MOL0     C87118   4.443   9.849  -0.185 -0.2361  0.2916 -0.0693
  646MOL0    Cl87119   4.611   9.862  -0.128 -0.3849  0.4365  0.4204
  646MOL0     C87120   3.397   9.950  -0.432  0.0233 -0.8652 -0.7983
  646MOL0     C87121   3.276   9.943  -0.357  0.2854 -1.1332 -0.1125
  646MOL0     O87122   3.167   9.835  -0.028 -0.4098  0.6140  0.3250
  646MOL0     C87123   2.911   9.828   0.079  0.4592 -0.2054  0.0625
  646MOL0     C87124   2.786   9.855   0.147 -0.4213 -1.5487 -0.0474
  646MOL0     N87125   2.187  10.242   0.252 -0.1159 -0.1137  0.2310
  646MOL0     N87126   2.153  10.315   0.359  0.0487 -0.2523 -0.5682
  646MOL0     C87127   1.625  10.484   1.509  0.3191  0.0360  0.4087
  646MOL0     C87128   1.522  10.576   1.547  0.4109 -0.2816 -0.0162
  646MOL0     C87129   1.315  10.997   1.653  0.8508 -0.3835 -0.4412
  646MOL0     C87130   1.195  10.935   1.608  0.5928 -0.0749 -0.1788
  646MOL0     C87131   1.074  11.010   1.607 -0.4051  0.4121 -0.1236
  646MOL0     C87132   1.069  11.142   1.652 -0.0790 -0.2966  0.2378
  646MOL0     O87133   0.943  11.190   1.650  0.3332  0.0548 -0.7173
  646MOL0     C87134   0.914  11.307   1.726 -0.3221  0.3044  0.2339
  646MOL0     C87135   0.767  11.323   1.753 -0.7684  0.1925 -1.2656
  646MOL0     C87136   0.741  11.404   1.879 -0.6751  0.4455 -0.8090
  646MOL0     C87137   0.757  11.549   1.854  0.3118  0.0699  0.4222
  646MOL0     C87138   0.634  11.586   1.785 -0.3687 -0.9730 -0.3404
  646MOL0     C87139   0.532  11.634   1.737 -0.5861  0.4970  0.0017
  646MOL0     C87140   1.182  11.199   1.705 -0.5280  0.6689 -0.3899
  646MOL0     C87141   1.309  11.131   1.695 -0.3139 -0.0237  0.0970
  646MOL0     C87142   1.430  11.197   1.769 -0.6398 -0.1342 -0.2908
  646MOL0     H87143   1.692  10.861   1.551 -3.4835  0.7214  2.1216
  646MOL0     H87144   1.859  10.710   1.465  0.3932 -3.1935 -3.8618
  646MOL0     H87145   1.911  10.343   1.290 -2.6283 -1.7030  3.8184
  646MOL0     H87146   1.763  10.426   1.265 -0.8973  0.6919  1.4051
  646MOL0     H87147   2.032  10.541   1.217  0.0599  1.3184  3.4908
  646MOL0     H87148   1.874  10.639   1.232 -2.4399 -0.7805  0.2786
  646MOL0     H87149   1.782  10.497   1.050  0.0206  1.7144 -1.3412
  646MOL0     H87150   1.904  10.386   1.060 -4.2171 -0.5426 -1.0183
  646MOL0     H87151   1.933  10.669   0.943  1.3620  0.1015  0.3285
  646MOL0     H87152   2.068  10.569   0.969 -0.4106  0.4383  0.2508
  646MOL0     H87153   1.814  10.478   0.810  0.5836  0.1405 -0.5269
  646MOL0     H87154   1.939  10.567   0.726  2.5192 -0.1826 -0.1969
  646MOL0     H87155   2.112  10.409   0.794  0.2499  0.4350  0.6057
  646MOL0     H87156   1.974  10.302   0.844 -2.0005 -1.0031 -2.3099
  646MOL0     H87157   1.972  10.427   0.571 -0.3388 -1.3397 -0.8293
  646MOL0     H87158   1.913  10.270   0.623  1.1029 -1.3266  1.2466
  646MOL0     H87159   2.217  10.342   0.615 -1.7142  1.2163 -0.7129
  646MOL0     H87160   2.148  10.190   0.660 -0.3957  0.9970  0.7278
  646MOL0     H87161   2.160  10.022   0.495 -1.4462 -0.5909 -0.0430
  646MOL0     H87162   2.266   9.913   0.284 -2.9937 -2.0998 -0.1502
  646MOL0     H87163   2.122   9.931   0.208  0.3467  0.9596  0.1200
  646MOL0     H87164   2.336   9.889   0.056 -1.2303 -1.5596  0.3538
  646MOL0     H87165   2.208   9.996   0.005 -0.8442 -1.0466  0.2252
  646MOL0     H87166   2.351  10.191   0.050 -0.7151 -0.7387 -0.3028
  646MOL0     H87167   2.460  10.086  -0.038  2.9923 -3.5949  0.7545
  646MOL0     H87168   2.443  10.125   0.268  0.3904  0.5859  0.2410
  646MOL0     H87169   2.565  10.197   0.164 -1.7410  2.3093  1.3465
  646MOL0     H87170   2.703  10.137  -0.021 -0.8561 -1.8165 -0.4861
  646MOL0     H87171   2.886  10.099  -0.129 -0.8325 -0.1743 -2.0370
  646MOL0     H87172   3.341  10.128  -0.083  0.3066  2.3640 -1.5085
  646MOL0     H87173   3.557  10.148  -0.198 -2.5467 -0.8886  3.5999
  646MOL0     H87174   3.752  10.154  -0.340  0.1079  0.0317 -1.2149
  646MOL0     H87175   3.738   9.981  -0.294  2.4398  0.3222  0.5713
  646MOL0     H87176   3.860   9.933  -0.518  2.3613  0.6050 -2.3971
  646MOL0     H87177   3.837  10.099  -0.566  0.6424  2.2813  1.4641
  646MOL0     H87178   4.070  10.060  -0.500  1.6888 -3.2638  1.3133
  646MOL0     H87179   3.989  10.170  -0.385  2.0335 -0.5898 -0.2379
  646MOL0     H87180   4.005   9.873  -0.340  4.3932 -0.1828 -4.6011
  646MOL0     H87181   3.958  10.002  -0.226  0.0600 -2.1603 -0.0609
  646MOL0     H87182   4.201  10.085  -0.267 -0.3692  0.7694  0.6954
  646MOL0     H87183   4.235   9.932  -0.347 -1.8629 -0.4855 -1.1194
  646MOL0     H87184   4.125   9.971  -0.062  0.0627 -0.2437  0.1366
  646MOL0     H87185   4.156   9.811  -0.136 -2.4261  1.7454  1.3318
  646MOL0     H87186   4.353   9.904   0.023 -1.4880 -0.2294  1.1811
  646MOL0     H87187   4.365  10.028  -0.094  1.3210 -0.4694 -2.1189
  646MOL0     H87188   4.430   9.741  -0.191 -2.3415  0.5080 -0.1954
  646MOL0     H87189   4.430   9.897  -0.283 -1.0901  0.1681 -0.0296
  646MOL0     H87190   3.411   9.908  -0.531  0.9115 -0.8637 -0.6825
  646MOL0     H87191   3.187   9.889  -0.389  0.0137 -0.1560 -1.0603
  646MOL0     H87192   2.971   9.747   0.120  0.6854 -0.0459  0.0479
  646MOL0     H87193   2.757   9.794   0.232  1.3992 -0.9106  1.0905
  646MOL0     H87194   1.598  10.379   1.514 -0.0711  0.1925  2.2000
  646MOL0     H87195   1.420  10.539   1.546 -0.3246  1.5757 -2.8208
  646MOL0     H87196   1.174  10.830   1.587  0.4993 -1.0616  3.9038
  646MOL0     H87197   0.978  10.969   1.578  0.0668  0.0689 -1.2712
  646MOL0     H87198   0.956  11.394   1.675  2.9820 -2.1191 -1.5478
  646MOL0     H87199   0.968  11.316   1.821 -0.5105 -0.3528  0.4109
  646MOL0     H87200   0.708  11.231   1.762 -2.9804  1.6738  0.7106
  646MOL0     H87201   0.719  11.378   1.671 -0.0636 -0.0249 -1.8384
  646MOL0     H87202   0.805  11.358   1.955 -0.8520 -0.3962 -1.1539
  646MOL0     H87203   0.645  11.396   1.932  0.1721  4.5186  1.7984
  646MOL0     H87204   0.774  11.596   1.952  1.2616 -1.1284  0.8605
  646MOL0     H87205   0.838  11.571   1.784 -0.0675  2.1276  0.5403
  646MOL0     H87206   0.446  11.667   1.682 -0.4492 -1.5568 -1.5642
  646MOL0     H87207   1.171  11.294   1.755  0.5342 -0.1859  1.5924
  646MOL0     H87208   1.475  11.122   1.835  0.6217  0.5347 -0.3653
  646MOL0     H87209   1.501  11.215   1.688  0.9737 -4.1526  0.0117
  646MOL0     H87210   1.400  11.289   1.820  0.8017 -0.3476  1.0118
  647MOL0     O87211   8.962   0.826   2.253 -0.1418  0.1789  0.2546
  647MOL0     C87212   8.870   0.859   2.332 -1.0755  0.2097 -0.0924
  647MOL0     O87213   8.899   0.905   2.464 -0.0399  0.2055 -0.3183
  647MOL0     C87214   9.023   0.870   2.508  1.4329  0.3439 -0.2726
  647MOL0     C87215   9.037   0.729   2.525  0.5495 -0.3475  0.1969
  647MOL0     C87216   9.144   0.678   2.600  0.6316 -0.4240  0.6582
  647MOL0     C87217   9.240   0.766   2.655 -0.1265  0.0820 -0.5754
  647MOL0     O87218   9.336   0.710   2.743 -0.2849 -0.5085  0.0940
  647MOL0     C87219   9.471   0.763   2.731 -0.4305 -0.1608 -0.5433
  647MOL0     C87220   9.551   0.662   2.800 -0.1530  0.2260  0.0401
  647MOL0     C87221   9.701   0.661   2.773 -0.5780 -0.1423  0.1104
  647MOL0     C87222   9.785   0.613   2.904  0.3115  0.3849  0.2833
  647MOL0     C87223   9.936   0.572   2.904  0.2725  0.3533  0.7669
  647MOL0     C87224  10.030   0.682   2.859 -0.8549 -0.0794 -0.2182
  647MOL0     C87225  10.012   0.829   2.904  0.0794  0.0601  0.2302
  647MOL0     C87226  10.068   0.864   3.045  0.5034  0.5896  0.2079
  647MOL0     N87227  10.212   0.843   3.061  0.3485  0.1243 -0.2087
  647MOL0     C87228  10.275   0.803   3.173 -0.2828  0.2995 -0.1526
  647MOL0     C87229  10.407   0.766   3.147 -0.0049 -0.1110  0.1170
  647MOL0     C87230  10.489   0.706   3.255 -0.3001 -0.3751  0.3270
  647MOL0     C87231  10.643   0.689   3.240 -0.6380 -0.7660  0.0329
  647MOL0     C87232  10.677   0.581   3.144  0.4709  1.1574  0.9919
  647MOL0     C87233  10.828   0.561   3.137 -0.8391  0.0036  0.3981
  647MOL0     O87234  10.899   0.593   3.259 -0.3488  0.4418  0.4904
  647MOL0     C87235  10.943   0.502   3.356  0.7670 -0.1153  0.6090
  647MOL0     C87236  11.053   0.539   3.442 -0.1845  0.2198 -0.4476
  647MOL0     C87237  11.086   0.448   3.546 -1.2131 -0.3332  0.1124
  647MOL0     C87238  11.014   0.326   3.563 -0.3088  0.0742 -0.5152
  647MOL0     C87239  11.052   0.225   3.659  0.4534 -0.2541  0.0358
  647MOL0     O87240  11.128   0.273   3.761 -0.2127  0.0437 -0.0529
  647MOL0     C87241  11.157   0.188   3.874  0.3925 -1.4316  0.7551
  647MOL0     C87242  11.288   0.175   3.905 -0.4660  0.9187  1.3050
  647MOL0     C87243  11.334   0.109   4.015  0.3456 -0.4446  0.2843
  647MOL0     C87244  11.244   0.033   4.098 -0.2016  0.0731  0.3938
  647MOL0     O87245  11.312  -0.039   4.199  0.1747  0.2512 -0.1390
  647MOL0     C87246  11.223  -0.112   4.284 -0.5108  0.0682  0.3481
  647MOL0     C87247  11.315  -0.178   4.392  0.5486 -0.6936  0.1751
  647MOL0     C87248  11.430  -0.258   4.338 -0.4792  0.5697  0.1700
  647MOL0     C87249  11.509  -0.313   4.452  0.6117 -0.2236 -0.7890
  647MOL0     C87250  11.621  -0.408   4.405 -0.0624 -1.6177 -0.3490
  647MOL0     C87251  11.744  -0.306   4.368  0.3215  0.7567  0.0524
  647MOL0     C87252  11.839  -0.376   4.276 -0.0869 -0.0784  0.7600
  647MOL0     C87253  11.958  -0.286   4.255 -0.1812 -0.5081  0.6686
  647MOL0    Cl87254  12.084  -0.314   4.375  0.0836 -0.2027 -0.5053
  647MOL0     C87255  11.108   0.036   4.062  0.2038  0.5035 -0.7176
  647MOL0     C87256  11.066   0.123   3.963  0.1890  0.0360  0.6833
  647MOL0     O87257  11.008   0.115   3.649 -0.1863  0.2303 -0.4325
  647MOL0     C87258  10.911   0.296   3.472 -0.5402 -0.2336  0.3102
  647MOL0     C87259  10.878   0.380   3.368 -0.8691  0.0591  1.1552
  647MOL0     N87260  10.416   0.772   3.011 -1.4723 -0.4197 -0.2238
  647MOL0     N87261  10.304   0.825   2.966  0.0787  0.2824  0.3696
  647MOL0     C87262   9.224   0.907   2.626 -0.6654 -0.1611  0.0921
  647MOL0     C87263   9.120   0.960   2.558  0.7026  0.0134 -0.0389
  647MOL0     C87264   8.733   0.855   2.276  0.4281 -0.5747 -1.5923
  647MOL0     C87265   8.724   0.863   2.138  0.5573 -0.6724  0.2177
  647MOL0     C87266   8.592   0.838   2.085  0.5037  0.7564  0.3198
  647MOL0     C87267   8.479   0.800   2.159  0.0533 -0.1862 -0.0501
  647MOL0     O87268   8.353   0.780   2.110  0.4457 -0.3606 -0.2608
  647MOL0     C87269   8.340   0.695   1.996 -0.2256 -0.1867 -0.0581
  647MOL0     C87270   8.194   0.693   1.945  0.0137  0.6079 -1.1774
  647MOL0     C87271   8.099   0.629   2.055 -0.0551 -0.0966  0.1055
  647MOL0     C87272   7.958   0.679   2.020  1.0038  0.3230  0.3027
  647MOL0     C87273   7.914   0.594   1.911 -0.4692  0.4475 -0.4656
  647MOL0     C87274   7.895   0.519   1.819 -0.0625 -0.7863 -0.1756
  647MOL0     C87275   8.497   0.797   2.294  0.3952 -0.0254 -0.1683
  647MOL0     C87276   8.622   0.823   2.353  0.1194 -0.6339  0.4344
  647MOL0     C87277   8.637   0.793   2.498 -0.4179 -0.0712  0.0601
  647MOL0     H87278   8.966   0.653   2.493  0.0121 -1.1439  2.9732
  647MOL0     H87279   9.149   0.571   2.616  0.9251 -1.0201 -2.6352
  647MOL0     H87280   9.509   0.773   2.629  1.7967  0.5402  0.2972
  647MOL0     H87281   9.484   0.860   2.779 -1.8133  1.9066 -3.9478
  647MOL0     H87282   9.514   0.562   2.776 -2.5954  1.0598  0.1445
  647MOL0     H87283   9.529   0.676   2.906  0.7299  0.1679  0.2451
  647MOL0     H87284   9.734   0.763   2.750 -0.3952 -0.4734 -1.1762
  647MOL0     H87285   9.731   0.589   2.696  1.4819  1.7672 -0.9990
  647MOL0     H87286   9.775   0.698   2.972  1.3704  0.5154  0.2807
  647MOL0     H87287   9.721   0.532   2.939 -1.2994  0.3643 -2.3602
  647MOL0     H87288   9.967   0.531   3.001 -0.1176 -4.3525 -0.8523
  647MOL0     H87289   9.945   0.480   2.846 -3.0155 -0.6853  1.6517
  647MOL0     H87290  10.134   0.650   2.870 -1.2467 -1.2955  0.1605
  647MOL0     H87291  10.021   0.686   2.750  1.3688  0.8160 -0.4233
  647MOL0     H87292   9.904   0.845   2.908 -0.0333 -0.6971  0.2203
  647MOL0     H87293  10.056   0.889   2.824 -1.8058 -0.2484 -1.0963
  647MOL0     H87294  10.054   0.973   3.050 -0.4864  0.4161  2.1024
  647MOL0     H87295  10.001   0.818   3.118 -0.3218  2.0266  0.4123
  647MOL0     H87296  10.241   0.808   3.276  3.3826 -0.8335  1.2782
  647MOL0     H87297  10.496   0.780   3.335  1.6658  0.0876 -0.1911
  647MOL0     H87298  10.435   0.623   3.300  0.3495 -1.2586 -0.4701
  647MOL0     H87299  10.682   0.782   3.198 -3.3901  0.6789  0.4139
  647MOL0     H87300  10.683   0.671   3.340  0.2511  2.8842  0.4692
  647MOL0     H87301  10.638   0.615   3.048  0.7644  1.4155  0.9623
  647MOL0     H87302  10.637   0.482   3.171 -1.2087  2.0134  1.8349
  647MOL0     H87303  10.877   0.618   3.058  0.0438  1.0007  1.6230
  647MOL0     H87304  10.851   0.463   3.095  0.9371  1.3835 -2.0549
  647MOL0     H87305  11.094   0.639   3.440 -0.5947  0.4672  1.3132
  647MOL0     H87306  11.162   0.475   3.617 -1.3611  1.8864 -0.5084
  647MOL0     H87307  11.366   0.221   3.844 -1.7183 -0.4049 -1.4858
  647MOL0     H87308  11.433   0.127   4.056 -1.3163  1.7117  3.9127
  647MOL0     H87309  11.150  -0.043   4.328  0.3687  1.0751  0.2925
  647MOL0     H87310  11.160  -0.182   4.230 -2.1572  2.9095 -1.6891
  647MOL0     H87311  11.354  -0.088   4.440 -3.0536  1.2086 -0.0817
  647MOL0     H87312  11.263  -0.238   4.468  1.7792  1.0522  2.5046
  647MOL0     H87313  11.389  -0.342   4.282 -0.0353  0.6517 -0.2855
  647MOL0     H87314  11.491  -0.192   4.275  0.1970 -0.6843 -0.5224
  647MOL0     H87315  11.440  -0.372   4.512  1.7116 -0.1846  0.5903
  647MOL0     H87316  11.543  -0.227   4.512 -1.5813  0.6300 -0.6715
  647MOL0     H87317  11.606  -0.472   4.317  0.2212 -2.1463 -0.0192
  647MOL0     H87318  11.657  -0.477   4.481 -1.1438 -1.8167 -0.0031
  647MOL0     H87319  11.701  -0.222   4.312  0.1374  0.2097 -0.6459
  647MOL0     H87320  11.789  -0.269   4.460 -0.0363  1.1704  0.0606
  647MOL0     H87321  11.800  -0.393   4.176 -2.9593  0.5481  1.6820
  647MOL0     H87322  11.880  -0.467   4.321 -0.0569 -0.7252 -0.5536
  647MOL0     H87323  12.004  -0.291   4.156 -1.7304  2.0155 -0.2902
  647MOL0     H87324  11.929  -0.181   4.267  1.0063 -0.1674  0.6941
  647MOL0     H87325  11.036  -0.027   4.113  2.3972 -0.8045  0.9639
  647MOL0     H87326  10.962   0.138   3.937  0.5221  0.6262 -0.3854
  647MOL0     H87327  10.866   0.197   3.478 -0.7800 -0.0226  2.5479
  647MOL0     H87328  10.790   0.360   3.307  1.1753  0.6376 -2.2675
  647MOL0     H87329   9.286   0.980   2.679  1.0422 -0.8895 -0.8227
  647MOL0     H87330   9.105   1.067   2.552  0.1703  0.1680  2.6579
  647MOL0     H87331   8.810   0.879   2.074 -1.7749  2.9670 -2.3471
  647MOL0     H87332   8.583   0.841   1.977 -0.1055 -3.0514  0.1248
  647MOL0     H87333   8.369   0.592   2.020 -1.0649 -0.8483 -1.7362
  647MOL0     H87334   8.409   0.726   1.917 -0.9287 -3.5662 -2.2073
  647MOL0     H87335   8.190   0.641   1.849  2.1205  0.3152 -1.1616
  647MOL0     H87336   8.157   0.792   1.920 -2.1078  0.4200  0.8795
  647MOL0     H87337   8.114   0.670   2.155 -2.1729  1.3158 -0.0701
  647MOL0     H87338   8.103   0.520   2.053 -2.3908 -0.2516  0.7292
  647MOL0     H87339   7.911   0.653   2.115  3.4662 -4.8696  0.4096
  647MOL0     H87340   7.948   0.787   2.000 -1.1129 -0.0499 -1.0299
  647MOL0     H87341   7.886   0.448   1.739 -2.3932  2.0905 -2.7000
  647MOL0     H87342   8.411   0.769   2.355 -0.9276  0.1192 -1.8929
  647MOL0     H87343   8.716   0.721   2.520 -1.5992 -1.4246 -0.0375
  647MOL0     H87344   8.665   0.885   2.550  6.4944  0.2384 -3.1390
  647MOL0     H87345   8.547   0.760   2.550  0.4658 -1.1801  0.9316
  648MOL0     O87346   3.524   4.078   8.105 -0.4641  0.5498 -0.3684
  648MOL0     C87347   3.451   3.979   8.085 -0.4104 -0.2083  0.6008
  648MOL0     O87348   3.497   3.848   8.041  0.8730 -0.6367  0.0869
  648MOL0     C87349   3.631   3.839   8.024  0.1542 -0.1556  0.3266
  648MOL0     C87350   3.731   3.767   8.099  0.1634 -0.4027 -0.2329
  648MOL0     C87351   3.864   3.786   8.077  0.6785 -0.0121  0.4873
  648MOL0     C87352   3.910   3.853   7.969  0.1795  0.3629  0.0917
  648MOL0     O87353   4.042   3.872   7.968  0.0870 -0.4270  0.1088
  648MOL0     C87354   4.104   3.945   7.864  0.1305  0.7491 -0.7358
  648MOL0     C87355   4.243   3.886   7.845 -0.1665 -0.0844 -0.8297
  648MOL0     C87356   4.312   3.952   7.732 -1.1963 -0.8640  0.2265
  648MOL0     C87357   4.462   3.892   7.726  0.1889  0.6419 -1.0153
  648MOL0     C87358   4.546   3.993   7.646  0.8499 -0.0992 -0.9249
  648MOL0     C87359   4.688   3.950   7.657 -0.3666  0.2071 -0.4593
  648MOL0     C87360   4.763   4.027   7.545 -0.3830  0.3790  0.6608
  648MOL0     C87361   4.919   4.003   7.525  0.8846  1.3313 -0.0767
  648MOL0     N87362   4.946   3.854   7.521  0.1843 -0.8132  0.3180
  648MOL0     C87363   4.984   3.776   7.627  0.9976 -0.0254  0.0197
  648MOL0     C87364   4.988   3.649   7.581  0.1539 -0.6358 -0.3529
  648MOL0     C87365   5.016   3.533   7.665 -0.0765  0.1507 -0.1439
  648MOL0     C87366   4.943   3.408   7.617 -0.2315 -0.8790  0.3957
  648MOL0     C87367   4.935   3.312   7.744 -0.8306  0.4616 -0.1385
  648MOL0     C87368   4.867   3.182   7.711  0.7338  0.1650  1.3161
  648MOL0     O87369   4.939   3.117   7.605  0.7261  0.0081  1.0007
  648MOL0     C87370   4.904   2.988   7.576  0.0274  0.5719 -0.4923
  648MOL0     C87371   5.005   2.912   7.517 -0.0790  0.3566 -0.2556
  648MOL0     C87372   4.991   2.772   7.506  0.7959 -0.7421  0.5805
  648MOL0     C87373   4.875   2.708   7.552 -0.1244  0.3286  0.4238
  648MOL0     C87374   4.860   2.559   7.535 -0.0133 -0.4713  0.3252
  648MOL0     O87375   4.798   2.480   7.626 -0.3748  0.1278  0.1945
  648MOL0     C87376   4.793   2.340   7.608  0.8597  0.3501  0.7127
  648MOL0     C87377   4.854   2.254   7.694 -0.4233  0.4164 -0.1179
  648MOL0     C87378   4.847   2.117   7.689 -0.5178 -0.1938 -1.6483
  648MOL0     C87379   4.789   2.059   7.581  0.0808  0.1321 -1.0628
  648MOL0     O87380   4.774   1.920   7.556 -0.3670 -0.2822  0.0578
  648MOL0     C87381   4.896   1.837   7.540  0.3083 -0.7987  0.1521
  648MOL0     C87382   4.919   1.837   7.382 -0.2649 -0.7916 -0.3438
  648MOL0     C87383   4.834   1.739   7.299  0.3883  0.3870  1.2806
  648MOL0     C87384   4.682   1.757   7.306 -0.3881 -0.3598 -0.5761
  648MOL0     C87385   4.621   1.657   7.205  0.0967  0.7849 -0.2565
  648MOL0     C87386   4.471   1.630   7.220 -0.4478 -0.0924 -0.1187
  648MOL0     C87387   4.409   1.531   7.129  0.3204  0.2735  0.0647
  648MOL0     C87388   4.268   1.518   7.180  0.1648 -0.0300  0.5093
  648MOL0    Cl87389   4.172   1.412   7.065 -0.3439 -0.2066  0.1424
  648MOL0     C87390   4.731   2.143   7.479  0.2289 -0.3014 -0.4678
  648MOL0     C87391   4.725   2.285   7.496  0.8322 -0.1713 -0.2809
  648MOL0     O87392   4.908   2.526   7.431 -0.1096 -0.7355 -0.0449
  648MOL0     C87393   4.769   2.783   7.603  0.3955  0.9886  0.2889
  648MOL0     C87394   4.784   2.922   7.622 -1.3031 -0.1722 -0.0785
  648MOL0     N87395   4.961   3.657   7.449  0.3921 -0.1949  0.0660
  648MOL0     N87396   4.935   3.779   7.411 -0.4601 -0.3963 -0.2227
  648MOL0     C87397   3.816   3.915   7.883 -0.9480 -0.0094 -0.6117
  648MOL0     C87398   3.677   3.907   7.912  0.0399  0.1028 -0.2169
  648MOL0     C87399   3.312   3.999   8.128  0.8367 -0.6731  0.9433
  648MOL0     C87400   3.264   4.126   8.155  0.2052 -0.0859 -0.5605
  648MOL0     C87401   3.141   4.155   8.214  0.5583  0.7084 -1.4229
  648MOL0     C87402   3.055   4.050   8.251  0.4281 -0.1331 -0.6388
  648MOL0     O87403   2.942   4.069   8.322 -0.2812 -0.2480  0.6260
  648MOL0     C87404   2.949   4.055   8.466 -0.7229 -0.3974 -0.5945
  648MOL0     C87405   2.914   3.915   8.510 -1.1500 -0.1333 -0.5067
  648MOL0     C87406   2.780   3.866   8.456  0.3048  0.1255 -0.3764
  648MOL0     C87407   2.656   3.939   8.523 -0.4710  0.3334 -0.0020
  648MOL0     C87408   2.533   3.884   8.469 -0.5000  0.3782  0.0148
  648MOL0     C87409   2.421   3.850   8.437  0.5647 -1.0338 -0.7607
  648MOL0     C87410   3.091   3.926   8.203  0.0649 -0.1455 -0.0343
  648MOL0     C87411   3.218   3.894   8.147  0.5302  0.2098 -0.1669
  648MOL0     C87412   3.223   3.755   8.103  0.0931 -0.7838  0.5479
  648MOL0     H87413   3.702   3.713   8.188  1.0752  2.4738  1.9652
  648MOL0     H87414   3.933   3.739   8.146 -2.0832 -3.4650  1.2315
  648MOL0     H87415   4.049   3.939   7.770 -1.1637  4.1993 -0.3581
  648MOL0     H87416   4.125   4.049   7.893  1.0849 -0.2217  2.3972
  648MOL0     H87417   4.247   3.780   7.816  3.2536  0.3139 -2.3430
  648MOL0     H87418   4.308   3.888   7.934 -0.9230 -0.1207 -0.2682
  648MOL0     H87419   4.324   4.059   7.754  1.0222 -0.2349 -3.2324
  648MOL0     H87420   4.260   3.944   7.636 -1.4559 -0.7702  0.3584
  648MOL0     H87421   4.509   3.890   7.824  0.4730 -0.1675 -1.1584
  648MOL0     H87422   4.473   3.787   7.697 -0.2524 -0.7026  3.1180
  648MOL0     H87423   4.503   3.991   7.546 -0.5539  0.0610 -0.3577
  648MOL0     H87424   4.533   4.094   7.687 -3.5106 -1.1883  0.9238
  648MOL0     H87425   4.734   3.981   7.752 -0.6608 -0.1280 -0.2040
  648MOL0     H87426   4.694   3.841   7.646  0.1756  0.1500  0.2981
  648MOL0     H87427   4.736   4.129   7.572 -0.0006  1.4676 -2.5987
  648MOL0     H87428   4.723   4.007   7.445  3.5481 -1.8337 -0.6892
  648MOL0     H87429   4.955   4.034   7.427 -0.2363  0.1408 -0.8952
  648MOL0     H87430   4.979   4.050   7.603  1.8418  0.3578 -0.2073
  648MOL0     H87431   4.981   3.797   7.734 -2.6211 -1.3278  0.3339
  648MOL0     H87432   5.123   3.514   7.654 -0.1928  0.5281 -2.5228
  648MOL0     H87433   4.981   3.551   7.767 -1.7394  1.6897 -0.9238
  648MOL0     H87434   4.838   3.428   7.592 -0.7766 -0.8752  2.5063
  648MOL0     H87435   4.995   3.366   7.531 -0.6381 -1.6636  0.5250
  648MOL0     H87436   4.877   3.369   7.817  0.3388  2.3170 -0.5933
  648MOL0     H87437   5.030   3.279   7.787  0.0825  0.0408 -2.3594
  648MOL0     H87438   4.761   3.194   7.686  0.8049 -4.4919 -2.6422
  648MOL0     H87439   4.868   3.121   7.802  1.8828 -1.5900  0.1839
  648MOL0     H87440   5.091   2.967   7.480 -0.9509  1.6102 -0.4794
  648MOL0     H87441   5.080   2.733   7.457 -0.4452 -1.1584 -1.4537
  648MOL0     H87442   4.897   2.298   7.783 -1.1273  2.4484 -0.7344
  648MOL0     H87443   4.893   2.058   7.768 -1.3961  1.9247  0.5687
  648MOL0     H87444   4.982   1.885   7.587  1.2983 -0.9497 -1.4351
  648MOL0     H87445   4.867   1.739   7.578 -3.1033  0.5986  1.5926
  648MOL0     H87446   4.896   1.930   7.329 -0.7230 -1.3044 -1.0604
  648MOL0     H87447   5.027   1.830   7.365 -0.3671  0.3994 -1.7193
  648MOL0     H87448   4.871   1.759   7.198 -0.3849  0.0195  0.9187
  648MOL0     H87449   4.871   1.638   7.318  0.6956 -0.2914 -2.2725
  648MOL0     H87450   4.652   1.860   7.286 -1.3441 -0.6559 -0.7103
  648MOL0     H87451   4.652   1.731   7.408 -1.8262 -0.4241 -0.9900
  648MOL0     H87452   4.675   1.562   7.201 -0.8873  0.2246 -0.3934
  648MOL0     H87453   4.642   1.699   7.106  2.6245  1.3875  0.4522
  648MOL0     H87454   4.466   1.586   7.320 -0.4930 -2.8211 -1.2326
  648MOL0     H87455   4.409   1.720   7.215 -0.9366 -0.4016  0.2314
  648MOL0     H87456   4.473   1.442   7.134 -0.2160 -0.2082 -1.2455
  648MOL0     H87457   4.411   1.574   7.029  2.0592  1.1330  0.4197
  648MOL0     H87458   4.265   1.473   7.280 -1.3777  1.8688  1.3696
  648MOL0     H87459   4.224   1.617   7.191  0.0700  0.1628 -1.3625
  648MOL0     H87460   4.686   2.097   7.392  2.1111 -2.8884 -0.1905
  648MOL0     H87461   4.668   2.329   7.415  0.3479  2.5780  1.4033
  648MOL0     H87462   4.677   2.743   7.642  1.7141 -1.2549  1.3268
  648MOL0     H87463   4.700   2.974   7.666 -1.8862 -1.7337  0.7666
  648MOL0     H87464   3.836   3.986   7.803 -1.7127  0.9793  0.0488
  648MOL0     H87465   3.605   3.960   7.851  0.6671  0.9415 -0.2422
  648MOL0     H87466   3.328   4.211   8.130  0.2783 -0.3689 -1.3499
  648MOL0     H87467   3.112   4.255   8.247 -2.2312 -0.2556 -0.6346
  648MOL0     H87468   2.880   4.129   8.507 -1.0257 -0.5104 -0.9000
  648MOL0     H87469   3.048   4.079   8.506  0.0819 -0.5354 -2.4136
  648MOL0     H87470   2.927   3.921   8.618  0.1047 -0.6677 -0.6194
  648MOL0     H87471   2.999   3.855   8.476 -0.1193  0.4404  0.9564
  648MOL0     H87472   2.788   3.757   8.461  2.8374  0.1664 -1.9129
  648MOL0     H87473   2.776   3.883   8.348  0.8707 -2.3602 -0.8522
  648MOL0     H87474   2.659   3.929   8.632  3.6739 -1.6210 -0.0792
  648MOL0     H87475   2.661   4.045   8.497 -0.0861  0.8748  2.1027
  648MOL0     H87476   2.330   3.815   8.392  0.6675 -1.1371 -0.8877
  648MOL0     H87477   3.007   3.857   8.203  0.3932 -0.5981  1.8264
  648MOL0     H87478   3.226   3.746   7.994 -3.9363 -1.8307  0.3836
  648MOL0     H87479   3.308   3.700   8.144  0.0080 -0.3364  1.3357
  648MOL0     H87480   3.140   3.693   8.136 -1.0217 -1.0809 -2.4568
  649MOL0     O87481  10.287   4.470   0.829 -0.1337  0.6884  0.5842
  649MOL0     C87482  10.325   4.585   0.851  0.1076 -0.2181 -0.4185
  649MOL0     O87483  10.454   4.622   0.888  0.7084 -0.3368 -0.4719
  649MOL0     C87484  10.554   4.527   0.888  0.3383 -0.1530 -0.4688
  649MOL0     C87485  10.535   4.395   0.942 -0.0521  0.1997 -0.2828
  649MOL0     C87486  10.648   4.316   0.969  0.3943 -0.1434 -0.2459
  649MOL0     C87487  10.773   4.362   0.929 -0.6098 -0.3565 -0.3666
  649MOL0     O87488  10.870   4.273   0.960  0.2751 -0.0629 -0.0446
  649MOL0     C87489  11.007   4.306   0.926 -1.2850 -1.5537 -0.1527
  649MOL0     C87490  11.092   4.221   1.027 -0.4816 -0.3230  0.0292
  649MOL0     C87491  11.240   4.235   0.992  0.2830  0.6414 -0.4342
  649MOL0     C87492  11.341   4.193   1.094 -0.2935 -0.0728  0.1941
  649MOL0     C87493  11.482   4.174   1.035  0.7924 -0.8051 -0.9669
  649MOL0     C87494  11.580   4.188   1.147  0.2277 -0.8537 -0.1026
  649MOL0     C87495  11.720   4.166   1.084 -0.0262  0.1902  0.7599
  649MOL0     C87496  11.824   4.124   1.192  0.2408  0.2613  0.5724
  649MOL0     N87497  11.969   4.119   1.154 -0.9351 -0.1394  1.2514
  649MOL0     C87498  12.034   4.015   1.093 -0.3032 -0.0397 -0.8966
  649MOL0     C87499  12.170   4.053   1.078 -0.2777 -0.0969 -0.6115
  649MOL0     C87500  12.268   3.948   1.025  0.4632 -0.1932  0.1355
  649MOL0     C87501  12.396   3.961   1.115 -0.2341  0.3936  0.7722
  649MOL0     C87502  12.513   3.887   1.053 -0.8717 -0.7099  0.1646
  649MOL0     C87503  12.652   3.912   1.118 -0.3057  0.5497  0.2060
  649MOL0     O87504  12.754   3.849   1.031  0.7045 -0.9157  0.2021
  649MOL0     C87505  12.804   3.929   0.926  0.2342  0.5191  0.7183
  649MOL0     C87506  12.891   3.867   0.843 -1.1759 -0.3591  0.4428
  649MOL0     C87507  12.942   3.923   0.733  0.4785 -0.0523 -0.3311
  649MOL0     C87508  12.898   4.052   0.691 -0.2154  0.1612  0.2647
  649MOL0     C87509  12.943   4.116   0.563 -0.0114  0.5209  0.2784
  649MOL0     O87510  13.049   4.051   0.497 -0.8096  0.1060  0.0814
  649MOL0     C87511  13.093   4.124   0.382  0.4929  0.8347 -0.6898
  649MOL0     C87512  13.191   4.216   0.405  0.7724  0.0413  0.7027
  649MOL0     C87513  13.252   4.279   0.291 -0.4825 -0.0274 -0.4120
  649MOL0     C87514  13.223   4.242   0.163 -0.7356  0.5305 -0.1002
  649MOL0     O87515  13.280   4.290   0.049 -0.5497 -0.7989 -0.1447
  649MOL0     C87516  13.425   4.287   0.045  0.9144 -0.0381  0.1770
  649MOL0     C87517  13.476   4.399  -0.042  0.7696  0.0334 -0.2793
  649MOL0     C87518  13.445   4.396  -0.193  0.6423  0.1590  0.8232
  649MOL0     C87519  13.514   4.273  -0.260  0.0403 -0.4022  0.1676
  649MOL0     C87520  13.482   4.277  -0.410 -0.4475  0.4104  0.3069
  649MOL0     C87521  13.567   4.168  -0.485 -0.0127 -0.4863  0.0712
  649MOL0     C87522  13.514   4.030  -0.466 -0.0030 -0.4746 -0.0592
  649MOL0     C87523  13.610   3.930  -0.522 -0.4060  0.3532 -0.0245
  649MOL0    Cl87524  13.652   3.968  -0.692  0.1340 -0.1377 -0.0800
  649MOL0     C87525  13.120   4.146   0.149  0.7602 -1.1358  1.3734
  649MOL0     C87526  13.053   4.091   0.252 -0.7165 -0.4656 -0.5093
  649MOL0     O87527  12.893   4.223   0.532 -0.3536 -0.8742  0.9590
  649MOL0     C87528  12.812   4.118   0.779  0.1833  0.0588 -0.4237
  649MOL0     C87529  12.768   4.058   0.897 -1.0973 -0.6640  0.8736
  649MOL0     N87530  12.184   4.181   1.118 -0.4833  0.0983  0.5876
  649MOL0     N87531  12.066   4.222   1.157  0.5888  0.5655  0.5307
  649MOL0     C87532  10.790   4.483   0.863 -0.2967 -0.5939  0.6056
  649MOL0     C87533  10.683   4.566   0.845  0.0468  0.7218  0.2522
  649MOL0     C87534  10.216   4.684   0.849 -0.8926 -0.3299  0.7130
  649MOL0     C87535  10.232   4.803   0.926  0.5571  0.1402 -0.3736
  649MOL0     C87536  10.129   4.886   0.954 -0.1984  0.6175  0.4442
  649MOL0     C87537  10.004   4.873   0.899  0.0247 -0.7319 -0.5062
  649MOL0     O87538   9.891   4.930   0.946  0.0124  0.0252  0.5393
  649MOL0     C87539   9.828   4.878   1.066  0.2505 -0.8863  0.1999
  649MOL0     C87540   9.730   4.764   1.047  0.0772  0.2392 -0.2851
  649MOL0     C87541   9.626   4.780   0.932  0.2770  0.1523  0.8403
  649MOL0     C87542   9.533   4.897   0.956  0.2730 -0.1040  0.8205
  649MOL0     C87543   9.417   4.857   1.037 -0.1085 -0.4425  0.1517
  649MOL0     C87544   9.315   4.841   1.101 -0.7345 -0.3112 -0.0026
  649MOL0     C87545   9.989   4.770   0.811  0.1687  0.3596  0.4164
  649MOL0     C87546  10.094   4.677   0.778 -0.6993 -0.5391  0.2812
  649MOL0     C87547  10.054   4.561   0.688  0.7633  0.5496  0.7079
  649MOL0     H87548  10.439   4.351   0.968  1.1503 -1.5050  1.4821
  649MOL0     H87549  10.637   4.224   1.026  1.2530  0.7597  1.4408
  649MOL0     H87550  11.025   4.274   0.823  1.1137 -2.3251  0.4317
  649MOL0     H87551  11.025   4.412   0.947 -1.4936 -1.1820 -1.7956
  649MOL0     H87552  11.066   4.116   1.014  0.8621 -0.5773 -0.7986
  649MOL0     H87553  11.079   4.260   1.129  2.1699  0.0353  0.2971
  649MOL0     H87554  11.267   4.340   0.977  1.4520  0.3942 -0.1505
  649MOL0     H87555  11.255   4.190   0.893 -0.5041 -0.1794 -0.1879
  649MOL0     H87556  11.351   4.277   1.164 -2.1970  0.4641 -0.1183
  649MOL0     H87557  11.317   4.100   1.146 -1.8422 -1.1639 -2.2832
  649MOL0     H87558  11.492   4.081   0.979 -0.9787 -1.1239 -0.7814
  649MOL0     H87559  11.501   4.257   0.966 -4.0190 -0.4257 -2.2056
  649MOL0     H87560  11.569   4.282   1.202 -0.4190  0.2626 -2.0173
  649MOL0     H87561  11.565   4.100   1.209  0.4866 -0.9155 -0.1246
  649MOL0     H87562  11.745   4.262   1.037  0.9741 -0.4539 -0.0637
  649MOL0     H87563  11.715   4.086   1.010  0.2749 -0.4381  1.4136
  649MOL0     H87564  11.816   4.213   1.255  0.6310  1.3541 -0.8785
  649MOL0     H87565  11.796   4.031   1.243  4.4345 -2.6516 -1.7827
  649MOL0     H87566  12.000   3.917   1.062  1.7257 -1.4052  0.9163
  649MOL0     H87567  12.226   3.849   1.047 -0.9599  0.4827  0.6338
  649MOL0     H87568  12.286   3.954   0.917 -1.8098 -2.2062 -0.4463
  649MOL0     H87569  12.423   4.066   1.128 -2.0188  0.8616  0.9952
  649MOL0     H87570  12.376   3.913   1.211  0.2800 -0.3330  0.5346
  649MOL0     H87571  12.525   3.931   0.954 -0.0398 -0.7848  0.2185
  649MOL0     H87572  12.491   3.780   1.048 -0.7092 -0.7527  0.3486
  649MOL0     H87573  12.659   3.872   1.220  1.7661 -1.2578 -0.5705
  649MOL0     H87574  12.664   4.019   1.136 -2.6826  1.3326 -2.1327
  649MOL0     H87575  12.929   3.768   0.866 -1.6543 -0.4181  1.0076
  649MOL0     H87576  13.013   3.864   0.677  1.0039  2.3016 -2.2986
  649MOL0     H87577  13.219   4.232   0.508  0.4425 -0.4589  0.8681
  649MOL0     H87578  13.321   4.361   0.309  1.5340 -1.7965  0.3248
  649MOL0     H87579  13.470   4.298   0.144  0.0010 -1.7403  0.8276
  649MOL0     H87580  13.443   4.184   0.011 -1.7469 -0.4867 -0.1309
  649MOL0     H87581  13.453   4.500  -0.007 -0.6346  0.7855 -3.0806
  649MOL0     H87582  13.583   4.381  -0.029  0.4554 -0.6717  1.4850
  649MOL0     H87583  13.337   4.395  -0.204  0.5135  1.8367  1.5770
  649MOL0     H87584  13.478   4.492  -0.235 -1.4875 -0.0249 -1.4746
  649MOL0     H87585  13.470   4.179  -0.225 -1.9250  0.9055  1.3998
  649MOL0     H87586  13.622   4.266  -0.241  0.7909 -2.0127 -3.6984
  649MOL0     H87587  13.494   4.381  -0.445 -0.9383  0.0428 -1.0209
  649MOL0     H87588  13.375   4.269  -0.431 -0.6100 -0.2873  1.3604
  649MOL0     H87589  13.566   4.188  -0.593  2.4275  2.9023  0.5012
  649MOL0     H87590  13.672   4.173  -0.454 -0.2074 -0.4906  0.7422
  649MOL0     H87591  13.418   4.030  -0.517  0.1223 -0.7604 -0.2945
  649MOL0     H87592  13.492   4.002  -0.362 -2.5969 -0.1410 -0.4513
  649MOL0     H87593  13.699   3.926  -0.459 -1.6040 -0.5021  1.7033
  649MOL0     H87594  13.558   3.833  -0.524 -0.4674  0.3919 -0.4308
  649MOL0     H87595  13.076   4.119   0.054 -4.3044 -0.7178  3.2968
  649MOL0     H87596  12.969   4.024   0.234 -1.5114  0.8695 -2.0434
  649MOL0     H87597  12.772   4.218   0.767  1.2675  0.9924  2.7149
  649MOL0     H87598  12.701   4.117   0.959  0.0421  0.0552  1.4429
  649MOL0     H87599  10.885   4.518   0.822 -0.7924  0.2742  0.1678
  649MOL0     H87600  10.703   4.663   0.799  2.4223 -1.1390 -3.0835
  649MOL0     H87601  10.328   4.812   0.976  2.0398 -0.4975 -2.9356
  649MOL0     H87602  10.145   4.941   1.046 -0.3727  2.6585 -0.6832
  649MOL0     H87603   9.766   4.961   1.100 -1.5414 -0.6449 -3.2319
  649MOL0     H87604   9.894   4.855   1.150 -1.0961  0.5127  1.7335
  649MOL0     H87605   9.696   4.744   1.150  1.7601 -0.3413  0.1901
  649MOL0     H87606   9.781   4.675   1.010  1.7648  0.8015  0.6114
  649MOL0     H87607   9.560   4.693   0.925 -0.8738  0.2150  6.1218
  649MOL0     H87608   9.680   4.801   0.840  2.1284  1.0879  2.0674
  649MOL0     H87609   9.592   4.979   0.996  2.0142  0.4713 -2.5908
  649MOL0     H87610   9.500   4.936   0.859  2.4936  0.4358  0.2430
  649MOL0     H87611   9.222   4.821   1.150 -0.9018 -1.0263 -0.5799
  649MOL0     H87612   9.891   4.766   0.765  1.1825  1.8682 -2.1025
  649MOL0     H87613   9.969   4.598   0.629  1.9588  0.4036 -1.2092
  649MOL0     H87614  10.137   4.545   0.619  0.8785  1.0643  0.7198
  649MOL0     H87615  10.027   4.469   0.740  0.8791  0.7220  1.0768
  650MOL0     O87616   1.360   8.702  10.393 -0.5568 -0.3192  0.8135
  650MOL0     C87617   1.427   8.608  10.369  0.0288 -0.1371  0.0694
  650MOL0     O87618   1.565   8.604  10.350 -0.2532  0.0717  0.1999
  650MOL0     C87619   1.627   8.714  10.286 -0.1004  0.3304  0.5134
  650MOL0     C87620   1.766   8.740  10.297  0.3939  0.1527 -0.1400
  650MOL0     C87621   1.826   8.854  10.234  0.5717  0.1500  0.1745
  650MOL0     C87622   1.747   8.942  10.160 -0.7317  0.1422  0.0956
  650MOL0     O87623   1.807   9.038  10.094 -0.9376  0.4155  0.3215
  650MOL0     C87624   1.841   9.018   9.958  0.6009  0.2602  0.0796
  650MOL0     C87625   1.981   8.969   9.955  0.0287 -0.0430 -0.2655
  650MOL0     C87626   2.083   9.072  10.006  0.8811  1.0817  0.2914
  650MOL0     C87627   2.216   9.009  10.011  0.4298 -0.2515  0.1762
  650MOL0     C87628   2.319   9.118  10.056  0.3629 -0.0136  0.5173
  650MOL0     C87629   2.455   9.055  10.103 -0.8865 -0.0879 -0.6765
  650MOL0     C87630   2.560   9.171  10.128  0.0798 -0.0191  0.1660
  650MOL0     C87631   2.694   9.109  10.175  0.6572  0.5399 -0.7749
  650MOL0     N87632   2.800   9.210  10.197  0.2508 -0.7500 -0.8428
  650MOL0     C87633   2.861   9.287  10.099 -1.1572  0.2264 -0.3817
  650MOL0     C87634   2.959   9.355  10.168 -0.7536 -0.4647  0.2673
  650MOL0     C87635   3.045   9.460  10.097 -0.0383  0.3810  0.2331
  650MOL0     C87636   3.163   9.501  10.186  0.2288 -0.2403 -0.6376
  650MOL0     C87637   3.277   9.392  10.205 -0.2687 -0.3769  0.3678
  650MOL0     C87638   3.385   9.457  10.295  0.2013 -0.1648 -0.4294
  650MOL0     O87639   3.447   9.562  10.231  0.0306  0.3028 -1.0951
  650MOL0     C87640   3.571   9.538  10.183  1.0843  0.1823 -0.2133
  650MOL0     C87641   3.611   9.609  10.074  0.2808  0.4239  0.4230
  650MOL0     C87642   3.742   9.600  10.016 -0.5513 -0.1542  0.2858
  650MOL0     C87643   3.833   9.514  10.070  0.2557  0.9224 -0.0014
  650MOL0     C87644   3.966   9.487  10.013  0.4499 -0.2065  0.0319
  650MOL0     O87645   4.004   9.567   9.906 -0.2028 -0.3283 -0.0819
  650MOL0     C87646   4.124   9.558   9.843  0.4687 -0.0031  1.1956
  650MOL0     C87647   4.126   9.561   9.706  0.0044  0.7442  1.2782
  650MOL0     C87648   4.244   9.564   9.633  0.0144  0.3117  0.3914
  650MOL0     C87649   4.368   9.585   9.701  0.4972 -0.0087  0.2405
  650MOL0     O87650   4.482   9.606   9.635 -0.2989  0.4653 -0.8361
  650MOL0     C87651   4.517   9.742   9.615 -0.1496  0.0504  0.7867
  650MOL0     C87652   4.669   9.758   9.608 -0.0213 -0.2205  0.1417
  650MOL0     C87653   4.713   9.905   9.594  0.9835 -0.1526  0.7693
  650MOL0     C87654   4.847   9.917   9.532 -0.1607  0.7606 -0.1426
  650MOL0     C87655   4.900  10.057   9.554 -0.3329  0.0795 -0.3030
  650MOL0     C87656   5.033  10.084   9.479 -0.2654 -0.3430  1.0536
  650MOL0     C87657   5.091  10.220   9.488 -0.2092  0.1178 -0.4753
  650MOL0     C87658   5.226  10.257   9.430 -0.3906 -0.2335  0.0009
  650MOL0    Cl87659   5.367  10.185   9.527  0.0870 -0.1120  0.7405
  650MOL0     C87660   4.370   9.561   9.834  0.5812 -1.3158  0.6920
  650MOL0     C87661   4.248   9.563   9.901  0.6615  0.1533  0.0433
  650MOL0     O87662   4.027   9.389  10.049 -0.2993 -0.4743 -0.4225
  650MOL0     C87663   3.792   9.451  10.194  0.0238  0.1274 -0.7429
  650MOL0     C87664   3.665   9.459  10.249 -0.5058  0.1982  0.0532
  650MOL0     N87665   2.938   9.320  10.305 -0.0627 -0.2219  0.8048
  650MOL0     N87666   2.841   9.243  10.326 -0.4877  0.7524  0.4380
  650MOL0     C87667   1.615   8.912  10.141  0.1457 -0.6041 -0.3939
  650MOL0     C87668   1.554   8.808  10.206  0.5405 -0.5116  0.3751
  650MOL0     C87669   1.346   8.482  10.340  0.0131  0.5318 -0.3685
  650MOL0     C87670   1.375   8.424  10.222  0.5438  0.6248  1.1086
  650MOL0     C87671   1.323   8.302  10.176 -0.4245 -0.1349  0.0365
  650MOL0     C87672   1.240   8.238  10.268  0.7940  0.6097  0.5581
  650MOL0     O87673   1.160   8.132  10.241  0.2038 -0.3142  0.8252
  650MOL0     C87674   1.178   8.047  10.130  0.4998  0.8275  0.5177
  650MOL0     C87675   1.311   7.970  10.128  0.4240  0.3767 -0.2935
  650MOL0     C87676   1.347   7.912  10.270  0.0153 -0.1778 -0.1172
  650MOL0     C87677   1.446   7.806  10.280  0.4055 -0.1448  0.5280
  650MOL0     C87678   1.482   7.776  10.420 -0.3487  0.4342  0.0162
  650MOL0     C87679   1.490   7.758  10.539  0.3279  0.7882  0.1980
  650MOL0     C87680   1.210   8.298  10.390 -0.0803 -0.8143 -0.2078
  650MOL0     C87681   1.266   8.421  10.436  0.5418 -0.2210 -0.4145
  650MOL0     C87682   1.230   8.472  10.572  0.5185  0.1761  0.3319
  650MOL0     H87683   1.824   8.654  10.330  0.3183  1.1249  2.8466
  650MOL0     H87684   1.934   8.859  10.239  0.8597 -2.3515 -1.8796
  650MOL0     H87685   1.771   8.945   9.915 -1.6660  2.3710 -0.0393
  650MOL0     H87686   1.856   9.110   9.902  1.1142  0.7445  0.9768
  650MOL0     H87687   2.003   8.947   9.850 -1.3249  0.0733 -0.5995
  650MOL0     H87688   1.986   8.875  10.012 -4.5515 -0.9014 -0.9039
  650MOL0     H87689   2.067   9.102  10.110  1.2068 -1.7992  1.2765
  650MOL0     H87690   2.084   9.164   9.947  0.9117 -0.1087 -1.6681
  650MOL0     H87691   2.221   8.945  10.100  2.1238  0.4983  0.6789
  650MOL0     H87692   2.240   8.949   9.923  1.6338  0.2323  0.1539
  650MOL0     H87693   2.332   9.186   9.972  0.7857 -2.3085 -1.3727
  650MOL0     H87694   2.287   9.188  10.134 -1.6639  0.2172 -0.4601
  650MOL0     H87695   2.451   8.988  10.189  3.2884 -1.7943 -1.5729
  650MOL0     H87696   2.502   9.002  10.020 -0.3360 -0.2055 -0.2926
  650MOL0     H87697   2.525   9.234  10.210  2.3499 -1.1339  2.1103
  650MOL0     H87698   2.570   9.229  10.036 -1.6778  1.1858  0.7030
  650MOL0     H87699   2.676   9.058  10.270 -0.9695  0.7702 -0.9328
  650MOL0     H87700   2.722   9.029  10.106  0.7840  3.1447 -4.0190
  650MOL0     H87701   2.844   9.312   9.995  4.5725 -0.1419 -1.7044
  650MOL0     H87702   3.072   9.403  10.007 -4.0495 -1.7174  0.1293
  650MOL0     H87703   2.983   9.547  10.075 -0.4642  0.5057  1.8002
  650MOL0     H87704   3.204   9.576  10.117  2.0577 -2.5855 -2.2245
  650MOL0     H87705   3.129   9.551  10.278  1.2420  1.4052 -1.0996
  650MOL0     H87706   3.320   9.355  10.112  0.4663 -2.7074  1.5393
  650MOL0     H87707   3.230   9.303  10.249  1.0471 -0.4465  1.7030
  650MOL0     H87708   3.456   9.377  10.316  0.7955  0.3563 -0.4005
  650MOL0     H87709   3.334   9.476  10.389 -1.2496  0.7183 -1.3540
  650MOL0     H87710   3.541   9.675  10.024 -1.1492 -0.7450  0.8165
  650MOL0     H87711   3.760   9.655   9.923 -2.8724  1.2675  0.5870
  650MOL0     H87712   4.030   9.555   9.658  0.3073 -2.0265  0.8889
  650MOL0     H87713   4.230   9.561   9.526 -1.6726  0.0169  0.6031
  650MOL0     H87714   4.480   9.769   9.516  0.5364  0.3748  0.6071
  650MOL0     H87715   4.470   9.809   9.687  0.7940  3.0915 -1.2216
  650MOL0     H87716   4.718   9.721   9.699 -1.0403 -0.3322  0.6660
  650MOL0     H87717   4.706   9.695   9.527 -0.9265  1.9588 -2.0558
  650MOL0     H87718   4.645   9.968   9.535  0.5326 -1.3175  0.0083
  650MOL0     H87719   4.708   9.948   9.695 -2.9786 -0.7692  1.0261
  650MOL0     H87720   4.851   9.881   9.429  1.2316 -1.6360  0.6525
  650MOL0     H87721   4.913   9.859   9.598  0.7011  2.3406  0.4366
  650MOL0     H87722   4.925  10.070   9.660 -2.0614  1.7016 -0.0401
  650MOL0     H87723   4.825  10.130   9.520  0.1229 -0.3699 -2.3702
  650MOL0     H87724   5.100  10.005   9.516 -0.6993 -0.8867  0.6917
  650MOL0     H87725   5.016  10.072   9.372  0.9264  1.6249  0.5951
  650MOL0     H87726   5.106  10.245   9.594  3.6687 -2.8136 -0.1024
  650MOL0     H87727   5.028  10.291   9.434 -1.1026 -0.2299  0.0947
  650MOL0     H87728   5.227  10.241   9.322 -1.6188 -0.0550 -0.0527
  650MOL0     H87729   5.238  10.365   9.444  2.6526 -0.6715  1.5599
  650MOL0     H87730   4.464   9.567   9.888  0.4694 -3.1785  1.1515
  650MOL0     H87731   4.250   9.583  10.007 -0.2128  5.1521 -0.6569
  650MOL0     H87732   3.855   9.376  10.239  0.2923 -0.7765 -2.5070
  650MOL0     H87733   3.660   9.414  10.348  2.6142 -0.2317  0.1279
  650MOL0     H87734   1.562   8.988  10.084  1.5362 -0.5783 -1.6999
  650MOL0     H87735   1.449   8.790  10.184  0.4494  1.5148 -1.0861
  650MOL0     H87736   1.437   8.478  10.150  4.4136  0.5245  4.0336
  650MOL0     H87737   1.323   8.281  10.070 -1.8526 -2.3980  0.4215
  650MOL0     H87738   1.167   8.112  10.043  0.4095  2.5823  1.7853
  650MOL0     H87739   1.100   7.971  10.121  2.1073 -0.6664 -1.8036
  650MOL0     H87740   1.392   8.039  10.104 -0.6022  0.4953 -4.1324
  650MOL0     H87741   1.298   7.897  10.048  0.2800 -0.7327  0.7138
  650MOL0     H87742   1.254   7.870  10.310  0.5276 -0.7031  0.5454
  650MOL0     H87743   1.375   7.985  10.347 -0.2438 -2.4372  2.2672
  650MOL0     H87744   1.396   7.720  10.236 -1.9216  2.1526 -1.6664
  650MOL0     H87745   1.530   7.838  10.217 -1.0152 -3.1214 -3.1757
  650MOL0     H87746   1.494   7.745  10.645  2.7001  1.9538  0.3155
  650MOL0     H87747   1.143   8.239  10.453 -1.1421 -1.1481 -1.6006
  650MOL0     H87748   1.147   8.413  10.611  0.5748 -0.8146 -0.9641
  650MOL0     H87749   1.310   8.457  10.645  0.3934  1.0256  0.6555
  650MOL0     H87750   1.202   8.578  10.566 -2.8899 -0.4992  2.1554
  651MOL0     O87751   2.306   9.012   3.508 -0.0534 -0.1460  0.5124
  651MOL0     C87752   2.371   8.926   3.449 -0.1060 -0.1589 -0.5245
  651MOL0     O87753   2.309   8.819   3.382  0.2034  0.2249 -0.4866
  651MOL0     C87754   2.170   8.822   3.377 -0.4193 -0.2372  0.6332
  651MOL0     C87755   2.114   8.831   3.253  0.3173 -0.3310 -0.0672
  651MOL0     C87756   1.976   8.821   3.243 -0.0159 -0.7092 -0.5023
  651MOL0     C87757   1.887   8.818   3.351 -0.3827 -0.0037  0.3483
  651MOL0     O87758   1.749   8.815   3.342  0.1176  0.1876 -0.5980
  651MOL0     C87759   1.661   8.768   3.444 -0.1093 -0.6156 -0.9800
  651MOL0     C87760   1.522   8.738   3.385  0.0863  0.0071 -0.4829
  651MOL0     C87761   1.448   8.865   3.351 -0.5273 -0.2763  0.1982
  651MOL0     C87762   1.337   8.826   3.250  0.5812  0.5896 -0.4191
  651MOL0     C87763   1.235   8.945   3.240 -0.1434  0.3872 -0.6490
  651MOL0     C87764   1.139   8.936   3.352  0.9056  1.0765  0.2339
  651MOL0     C87765   1.033   9.048   3.330  0.3638  0.6113  0.3094
  651MOL0     C87766   0.912   9.059   3.434 -0.4045  0.2092  0.4084
  651MOL0     N87767   0.960   9.128   3.546  0.1397  0.3685 -0.5725
  651MOL0     C87768   0.944   9.265   3.559  0.4862  0.0770 -0.2720
  651MOL0     C87769   0.990   9.287   3.687  0.3482  0.0247  0.2018
  651MOL0     C87770   0.983   9.420   3.758 -0.1920 -0.0430  0.2657
  651MOL0     C87771   1.122   9.483   3.735 -0.6616 -0.2868  1.3160
  651MOL0     C87772   1.122   9.629   3.786 -0.5908  0.2917  0.0922
  651MOL0     C87773   1.249   9.702   3.736  0.3543  0.3436  0.8583
  651MOL0     O87774   1.374   9.652   3.778  0.4396 -0.3384  0.4109
  651MOL0     C87775   1.490   9.702   3.723 -0.0573  0.4779 -0.8191
  651MOL0     C87776   1.494   9.778   3.605  0.1006  0.1439 -1.0401
  651MOL0     C87777   1.617   9.828   3.553 -0.1742  0.7636  0.9806
  651MOL0     C87778   1.736   9.795   3.615 -0.8414 -0.4223  0.5415
  651MOL0     C87779   1.871   9.860   3.567 -1.1712  0.3578  0.1111
  651MOL0     O87780   1.991   9.799   3.593 -0.0874 -0.0353 -0.2977
  651MOL0     C87781   2.114   9.858   3.565 -0.2137 -0.3602  1.2637
  651MOL0     C87782   2.163   9.987   3.585 -0.0155  0.0958 -0.0103
  651MOL0     C87783   2.302  10.022   3.568 -0.5313 -0.1083 -0.3022
  651MOL0     C87784   2.387   9.921   3.530 -0.6919  0.2119  0.2420
  651MOL0     O87785   2.519   9.951   3.524  0.9099 -0.9786  0.4968
  651MOL0     C87786   2.619   9.848   3.506 -1.0500  0.0182 -0.0355
  651MOL0     C87787   2.762   9.911   3.486 -0.6998 -0.7492  0.2415
  651MOL0     C87788   2.874   9.818   3.543  0.5907  0.7434  0.5030
  651MOL0     C87789   3.007   9.884   3.504  0.6542 -0.6317 -0.2348
  651MOL0     C87790   3.131   9.815   3.566  0.4668  0.9284  0.8843
  651MOL0     C87791   3.251   9.912   3.572  0.6480 -0.3336 -0.1018
  651MOL0     C87792   3.385   9.851   3.626  0.1349 -0.6973 -0.9473
  651MOL0     C87793   3.478   9.980   3.635  1.1995  0.9060 -0.5446
  651MOL0    Cl87794   3.649   9.942   3.672 -0.4276 -0.0803  0.4763
  651MOL0     C87795   2.334   9.791   3.502 -0.2280  0.1344 -0.4656
  651MOL0     C87796   2.198   9.759   3.518 -1.0667 -0.1257  0.1991
  651MOL0     O87797   1.861   9.964   3.500 -0.6431 -0.0401 -0.5356
  651MOL0     C87798   1.735   9.712   3.731  0.0464  0.2580  0.5647
  651MOL0     C87799   1.614   9.664   3.776  1.1626 -0.1366 -0.2400
  651MOL0     N87800   1.024   9.166   3.748 -0.1430  0.5389  0.2252
  651MOL0     N87801   1.015   9.071   3.657 -0.0789  0.1701 -0.4893
  651MOL0     C87802   1.943   8.806   3.480  0.3774  0.0964  0.0281
  651MOL0     C87803   2.086   8.808   3.490  0.2096 -0.6885  0.7018
  651MOL0     C87804   2.520   8.928   3.440  0.4248  0.6639 -0.3835
  651MOL0     C87805   2.581   8.838   3.351  0.1582 -0.9225  0.0003
  651MOL0     C87806   2.717   8.828   3.343  0.1169 -0.3349  0.0276
  651MOL0     C87807   2.798   8.902   3.427  0.1800 -0.3624 -0.2607
  651MOL0     O87808   2.932   8.884   3.400  0.3665 -0.4197  0.3051
  651MOL0     C87809   3.016   8.972   3.475 -0.1985 -0.7965 -0.9384
  651MOL0     C87810   3.164   8.963   3.433  0.3114 -0.8315  0.1309
  651MOL0     C87811   3.253   8.951   3.561 -0.7645  0.0373  0.2973
  651MOL0     C87812   3.398   8.910   3.528 -0.7159  0.3145  0.9505
  651MOL0     C87813   3.398   8.779   3.458 -0.6594  0.0657  1.2626
  651MOL0     C87814   3.398   8.667   3.412 -0.2460  0.8386 -0.1505
  651MOL0     C87815   2.741   8.992   3.517 -0.4986 -0.3570  0.7779
  651MOL0     C87816   2.598   9.008   3.528 -0.0430 -0.2404 -0.9216
  651MOL0     C87817   2.543   9.112   3.630  0.0323 -0.2458  0.6826
  651MOL0     H87818   2.159   8.829   3.154 -0.6710 -2.7802 -0.5577
  651MOL0     H87819   1.943   8.821   3.139  0.2339  1.4435 -0.6269
  651MOL0     H87820   1.692   8.677   3.496 -2.5690 -0.0949  1.6789
  651MOL0     H87821   1.646   8.852   3.513 -1.0982  3.1195 -5.2273
  651MOL0     H87822   1.468   8.679   3.460  2.2405 -0.8910  0.4250
  651MOL0     H87823   1.545   8.679   3.296 -1.1683 -1.2289 -0.0371
  651MOL0     H87824   1.522   8.925   3.298  2.2918 -2.2773  1.5868
  651MOL0     H87825   1.403   8.911   3.440  1.2413  1.1754  0.3742
  651MOL0     H87826   1.389   8.799   3.157  4.3197 -0.0664  1.6430
  651MOL0     H87827   1.288   8.733   3.279  1.9215  0.3646  1.2887
  651MOL0     H87828   1.283   9.042   3.248 -0.2902  0.5329 -1.4165
  651MOL0     H87829   1.166   8.939   3.155 -0.7821  3.6186 -0.4796
  651MOL0     H87830   1.091   8.838   3.356  2.3865  0.3461  0.8317
  651MOL0     H87831   1.187   8.956   3.448  0.9054  1.0907  0.2310
  651MOL0     H87832   1.005   9.043   3.224  0.2342 -0.5492  0.3879
  651MOL0     H87833   1.091   9.140   3.336  0.7872  0.3503  0.2148
  651MOL0     H87834   0.822   9.111   3.402  0.9033  3.0294  0.9499
  651MOL0     H87835   0.884   8.963   3.477  0.8933  0.6989  2.4843
  651MOL0     H87836   0.906   9.328   3.479  4.2782  1.1423 -1.4639
  651MOL0     H87837   0.893   9.475   3.729 -0.0041 -1.0719 -2.5927
  651MOL0     H87838   0.975   9.396   3.865 -0.7562 -2.2675 -0.2208
  651MOL0     H87839   1.202   9.425   3.780 -1.1263 -1.1258  1.0819
  651MOL0     H87840   1.138   9.495   3.627 -0.4759  1.0747  1.4755
  651MOL0     H87841   1.118   9.634   3.895  2.7728 -4.1315  0.7255
  651MOL0     H87842   1.036   9.674   3.736  0.1844  0.0334 -1.5550
  651MOL0     H87843   1.242   9.808   3.764 -0.0610  0.2173  1.2569
  651MOL0     H87844   1.241   9.704   3.627 -0.1877  1.0877  0.9016
  651MOL0     H87845   1.402   9.797   3.551  0.8268  0.0770 -2.3337
  651MOL0     H87846   1.607   9.903   3.474 -2.4199 -0.4102  0.0483
  651MOL0     H87847   2.094  10.058   3.630 -1.6460 -0.6342 -1.2756
  651MOL0     H87848   2.344  10.117   3.601 -0.8567 -0.6227  1.7292
  651MOL0     H87849   2.620   9.783   3.594  1.4202 -0.9434 -0.6907
  651MOL0     H87850   2.596   9.789   3.416  0.8595  0.2734 -0.7283
  651MOL0     H87851   2.780   9.932   3.380  1.3486  2.0553  1.0303
  651MOL0     H87852   2.770  10.011   3.528 -0.9393 -0.3599 -0.6350
  651MOL0     H87853   2.863   9.804   3.650  1.8938 -1.1384  0.4346
  651MOL0     H87854   2.875   9.717   3.500 -2.8200  0.5570  0.5136
  651MOL0     H87855   2.998   9.988   3.538  0.0673 -0.1535 -1.7495
  651MOL0     H87856   3.025   9.888   3.396  1.0535  1.2338 -0.1389
  651MOL0     H87857   3.147   9.723   3.508 -2.6591 -0.1717  1.5474
  651MOL0     H87858   3.111   9.788   3.670 -0.5139  1.2259  0.7812
  651MOL0     H87859   3.277   9.941   3.470 -1.5339 -1.3641 -1.0394
  651MOL0     H87860   3.235  10.000   3.635  0.6548  0.6831 -1.4661
  651MOL0     H87861   3.425   9.791   3.543 -0.0668 -2.1484 -0.0281
  651MOL0     H87862   3.374   9.806   3.725  0.1706  1.6939  0.1894
  651MOL0     H87863   3.470  10.046   3.548  0.7576  2.8186  0.8766
  651MOL0     H87864   3.435  10.045   3.712 -1.5199 -2.2332  0.8517
  651MOL0     H87865   2.402   9.717   3.462 -0.3980 -0.8679  1.0143
  651MOL0     H87866   2.163   9.658   3.503  1.3758 -1.0385  0.1388
  651MOL0     H87867   1.827   9.674   3.775  1.1752  0.8491 -1.1855
  651MOL0     H87868   1.624   9.590   3.856 -1.0068 -1.3298 -0.9593
  651MOL0     H87869   1.884   8.814   3.570 -1.9247  0.6583 -1.4428
  651MOL0     H87870   2.126   8.808   3.590 -0.1280  1.1897  0.8743
  651MOL0     H87871   2.525   8.786   3.273  0.1490  1.1421 -1.4465
  651MOL0     H87872   2.766   8.773   3.263 -3.0196  2.4262 -4.2506
  651MOL0     H87873   3.004   8.956   3.582 -2.3817  2.7950 -0.4985
  651MOL0     H87874   2.979   9.074   3.459 -0.7556 -1.2346 -2.7158
  651MOL0     H87875   3.205   9.052   3.384  2.0468  0.2917  3.2785
  651MOL0     H87876   3.176   8.886   3.357 -4.2869 -1.3308 -0.3563
  651MOL0     H87877   3.212   8.880   3.633 -0.9998 -0.6126 -0.4621
  651MOL0     H87878   3.255   9.049   3.609 -0.5425  0.7155 -1.0522
  651MOL0     H87879   3.445   8.985   3.463 -0.6852 -1.4745 -1.2440
  651MOL0     H87880   3.456   8.894   3.619  1.1204 -1.1593 -0.3975
  651MOL0     H87881   3.401   8.568   3.371 -0.5448  0.4073  0.8254
  651MOL0     H87882   2.811   9.047   3.580  0.1835  1.3030 -1.3154
  651MOL0     H87883   2.625   9.156   3.687 -0.3248 -0.4538  1.3687
  651MOL0     H87884   2.487   9.178   3.563 -0.1317 -2.2322 -1.2710
  651MOL0     H87885   2.480   9.064   3.706  0.8440  0.0808  1.5772
  652MOL0     O87886   6.988   7.230   7.011  0.7733  0.0776  0.0367
  652MOL0     C87887   6.977   7.215   6.888 -1.5043  0.2805 -0.7337
  652MOL0     O87888   7.083   7.192   6.811 -0.1369  1.0138 -0.3307
  652MOL0     C87889   7.210   7.151   6.857  1.1202  0.5554  0.6693
  652MOL0     C87890   7.274   7.205   6.966  0.5203  0.8829  0.1006
  652MOL0     C87891   7.405   7.164   6.995 -0.5236  0.3599  0.1005
  652MOL0     C87892   7.477   7.076   6.920 -1.2764 -0.1914  0.8862
  652MOL0     O87893   7.605   7.031   6.959 -0.2882 -0.4333 -0.0442
  652MOL0     C87894   7.659   6.913   6.897 -0.1341  0.1509  0.7028
  652MOL0     C87895   7.766   6.854   6.978  0.6070 -0.1279 -0.5461
  652MOL0     C87896   7.894   6.946   6.981 -0.0568  0.5113 -0.1762
  652MOL0     C87897   8.011   6.880   7.049 -0.4904 -0.6134  0.5415
  652MOL0     C87898   8.125   6.981   7.085 -0.7556 -1.0029 -0.4769
  652MOL0     C87899   8.238   6.920   7.174 -0.3091  0.2656  0.0974
  652MOL0     C87900   8.335   6.843   7.079 -0.5179 -0.4469 -0.1880
  652MOL0     C87901   8.445   6.760   7.144 -0.2230 -0.8231  0.5117
  652MOL0     N87902   8.514   6.824   7.260 -0.6985 -0.6676 -0.5818
  652MOL0     C87903   8.465   6.861   7.385  1.5069  0.6022  0.0016
  652MOL0     C87904   8.556   6.942   7.445  0.2385 -0.4269  0.4314
  652MOL0     C87905   8.544   7.002   7.579  0.7534  0.1290  0.5128
  652MOL0     C87906   8.412   7.084   7.607  0.1061 -0.6089 -1.1923
  652MOL0     C87907   8.381   7.185   7.500  0.8174  0.7498 -0.7910
  652MOL0     C87908   8.257   7.258   7.552  0.1410 -0.3605  0.1933
  652MOL0     O87909   8.231   7.358   7.452 -0.0955 -0.4107  0.9189
  652MOL0     C87910   8.106   7.404   7.428  0.4552 -0.8987  0.0238
  652MOL0     C87911   7.991   7.379   7.501  0.5387  0.2546  0.5724
  652MOL0     C87912   7.867   7.440   7.465  0.0641  0.7226  0.4182
  652MOL0     C87913   7.861   7.532   7.363  0.2701  1.0855  0.7654
  652MOL0     C87914   7.734   7.616   7.337 -0.4619 -0.3560  0.9908
  652MOL0     O87915   7.733   7.679   7.208 -0.1338 -0.0880 -1.2636
  652MOL0     C87916   7.648   7.777   7.179 -0.2519 -0.9501 -0.4047
  652MOL0     C87917   7.686   7.915   7.211  0.1617  0.4727 -1.3741
  652MOL0     C87918   7.596   8.011   7.200  0.0123 -0.3373  0.2062
  652MOL0     C87919   7.474   7.995   7.126  0.6637 -0.1062 -0.7003
  652MOL0     O87920   7.371   8.089   7.111  0.6938 -0.0802  0.5556
  652MOL0     C87921   7.413   8.218   7.148 -0.9641 -1.3232 -1.0591
  652MOL0     C87922   7.288   8.305   7.168  1.6628 -0.1091  0.0017
  652MOL0     C87923   7.326   8.454   7.182  0.1908 -0.1792  0.4619
  652MOL0     C87924   7.209   8.545   7.208  0.2024  1.1113  0.5989
  652MOL0     C87925   7.259   8.682   7.228 -0.1060 -0.9175 -0.4933
  652MOL0     C87926   7.142   8.778   7.242 -0.1940 -0.1297  1.1925
  652MOL0     C87927   7.198   8.918   7.268 -0.1478  0.0854  0.3489
  652MOL0     C87928   7.218   8.945   7.415  0.5342 -0.7703  0.6505
  652MOL0    Cl87929   7.288   8.821   7.528 -0.0937 -0.3046 -0.0897
  652MOL0     C87930   7.436   7.867   7.093 -0.1046  0.6991  1.0586
  652MOL0     C87931   7.526   7.758   7.120  1.0987 -0.1074 -0.5690
  652MOL0     O87932   7.639   7.605   7.412 -0.7807 -0.5683  1.0027
  652MOL0     C87933   7.976   7.557   7.290 -0.4309 -0.1359  0.6555
  652MOL0     C87934   8.099   7.494   7.321 -0.1777 -0.6530 -0.5609
  652MOL0     N87935   8.661   6.948   7.353 -0.1284 -0.0051 -0.8620
  652MOL0     N87936   8.639   6.885   7.246  0.0715 -0.1944  0.2740
  652MOL0     C87937   7.421   7.039   6.792 -0.3401 -0.4965 -0.2869
  652MOL0     C87938   7.286   7.071   6.774 -0.4496  0.1232  0.3954
  652MOL0     C87939   6.841   7.214   6.823 -0.7768 -0.1185 -0.3212
  652MOL0     C87940   6.835   7.189   6.685 -0.9012 -0.7487  1.0527
  652MOL0     C87941   6.721   7.218   6.614  0.6605  0.1750  0.5958
  652MOL0     C87942   6.605   7.267   6.677  0.3293 -0.4768  0.1374
  652MOL0     O87943   6.491   7.269   6.601 -0.1536  0.8353  0.0655
  652MOL0     C87944   6.372   7.336   6.650  0.1754 -0.4583 -1.0415
  652MOL0     C87945   6.272   7.324   6.536 -0.7143  0.6170 -0.0057
  652MOL0     C87946   6.227   7.178   6.530  0.5302  0.5291 -0.3786
  652MOL0     C87947   6.115   7.173   6.429  0.7191  0.1175 -0.2155
  652MOL0     C87948   6.154   7.206   6.294 -0.3494 -1.0630  0.2357
  652MOL0     C87949   6.204   7.233   6.188 -0.1399 -0.3464  0.4333
  652MOL0     C87950   6.599   7.275   6.813 -0.0984 -0.9518 -0.1107
  652MOL0     C87951   6.716   7.254   6.888 -0.5511 -0.9285  0.4693
  652MOL0     C87952   6.692   7.249   7.039 -0.9488  0.9754 -0.1117
  652MOL0     H87953   7.222   7.284   7.020 -1.0320 -0.3535  0.4935
  652MOL0     H87954   7.464   7.210   7.073 -2.2092  0.7677  1.1864
  652MOL0     H87955   7.579   6.839   6.886  0.2326 -0.6131  2.7256
  652MOL0     H87956   7.692   6.933   6.795 -3.2782 -0.9128 -0.6382
  652MOL0     H87957   7.799   6.757   6.941 -0.2526 -1.0112  0.8987
  652MOL0     H87958   7.749   6.852   7.086  2.9151  0.4087 -0.1129
  652MOL0     H87959   7.876   7.034   7.044 -0.6317  0.8636 -0.8154
  652MOL0     H87960   7.916   6.974   6.878  0.7000 -5.4525 -1.9883
  652MOL0     H87961   7.979   6.842   7.146  1.0968 -0.0777  1.3175
  652MOL0     H87962   8.054   6.796   6.993 -1.0924 -1.4238  1.2744
  652MOL0     H87963   8.168   7.041   7.004 -0.6868  2.1033  1.6755
  652MOL0     H87964   8.075   7.063   7.137 -3.1350 -1.7085 -1.5056
  652MOL0     H87965   8.280   7.008   7.224 -3.0899  1.7999 -0.0170
  652MOL0     H87966   8.201   6.845   7.245 -0.6171  0.5231  0.2149
  652MOL0     H87967   8.389   6.917   7.019  2.4091 -2.7830 -0.7091
  652MOL0     H87968   8.286   6.780   7.005  3.3878 -0.1134 -3.3740
  652MOL0     H87969   8.404   6.664   7.175  1.3971 -1.4558  0.8026
  652MOL0     H87970   8.520   6.724   7.072 -0.2732 -1.2088  0.6511
  652MOL0     H87971   8.368   6.839   7.427  2.3582 -0.5183  1.4620
  652MOL0     H87972   8.562   6.923   7.653 -0.5798 -1.5063 -0.8528
  652MOL0     H87973   8.632   7.067   7.582  1.1090 -0.1682 -1.8638
  652MOL0     H87974   8.329   7.013   7.613 -0.5491  0.2010 -0.4050
  652MOL0     H87975   8.417   7.134   7.704 -1.7986  1.4961 -2.0902
  652MOL0     H87976   8.363   7.131   7.407 -0.2812 -0.4071  0.0572
  652MOL0     H87977   8.465   7.255   7.493  0.2307  1.6552  0.7829
  652MOL0     H87978   8.276   7.302   7.651 -1.8734 -0.4007  0.6465
  652MOL0     H87979   8.177   7.184   7.557 -0.7651  0.6599  2.0492
  652MOL0     H87980   7.990   7.295   7.569  1.6863  0.1676  0.4910
  652MOL0     H87981   7.778   7.414   7.521 -1.2160  0.4088 -1.6723
  652MOL0     H87982   7.778   7.953   7.254  0.0014  1.6076 -1.9964
  652MOL0     H87983   7.630   8.105   7.242  1.3409 -0.9745  0.5865
  652MOL0     H87984   7.461   8.225   7.246  0.7030  1.6605 -1.9486
  652MOL0     H87985   7.480   8.262   7.074  1.3942 -0.7812  1.2467
  652MOL0     H87986   7.214   8.305   7.087  2.5228  0.6428 -0.8180
  652MOL0     H87987   7.250   8.280   7.267 -2.0502  2.2082 -0.6378
  652MOL0     H87988   7.404   8.464   7.258  2.3161 -2.4589 -1.2679
  652MOL0     H87989   7.376   8.482   7.088 -3.1360 -2.7807 -2.3635
  652MOL0     H87990   7.144   8.506   7.287 -1.2900  2.7804  0.2557
  652MOL0     H87991   7.150   8.538   7.116  1.0538  0.2753  0.0990
  652MOL0     H87992   7.327   8.713   7.148 -0.1379  0.5170  0.0026
  652MOL0     H87993   7.324   8.695   7.315 -1.3637 -1.6460  0.5970
  652MOL0     H87994   7.082   8.787   7.151  2.0884  2.3235 -0.2121
  652MOL0     H87995   7.082   8.754   7.330 -0.1670  1.3925  1.6709
  652MOL0     H87996   7.136   8.988   7.212 -2.0685 -3.1242 -1.8635
  652MOL0     H87997   7.300   8.927   7.229  0.3137  0.9548  1.6700
  652MOL0     H87998   7.286   9.031   7.417 -2.1155  1.5411 -0.7732
  652MOL0     H87999   7.115   8.972   7.441  0.1669  1.9097 -2.7786
  652MOL0     H88000   7.338   7.842   7.054  0.7448 -0.1621 -0.5907
  652MOL0     H88001   7.499   7.657   7.092 -0.3301  0.1642 -0.2832
  652MOL0     H88002   7.985   7.628   7.208  0.8361 -0.1928  0.7277
  652MOL0     H88003   8.184   7.528   7.264 -1.2726 -0.1766 -1.9616
  652MOL0     H88004   7.480   6.989   6.716  0.1623  0.9287 -0.8683
  652MOL0     H88005   7.241   7.040   6.680  1.2901  0.2862 -0.5257
  652MOL0     H88006   6.920   7.145   6.634 -3.1220 -3.8540 -0.2838
  652MOL0     H88007   6.717   7.211   6.506 -2.5200  2.8465  0.3721
  652MOL0     H88008   6.378   7.443   6.674 -3.5444 -0.3957  0.4117
  652MOL0     H88009   6.338   7.307   6.750 -2.4758  1.2768 -1.3224
  652MOL0     H88010   6.315   7.356   6.441  0.1209  0.3917  0.2804
  652MOL0     H88011   6.185   7.387   6.553 -0.6930  1.5235 -2.8363
  652MOL0     H88012   6.199   7.156   6.633  0.7127  1.5592 -0.1046
  652MOL0     H88013   6.308   7.110   6.501  0.1701 -1.6389  3.0555
  652MOL0     H88014   6.074   7.072   6.429  0.5225  0.1585  1.9346
  652MOL0     H88015   6.035   7.241   6.462 -0.1137 -1.4038  1.0117
  652MOL0     H88016   6.234   7.249   6.087  0.3305 -2.7157  0.1405
  652MOL0     H88017   6.507   7.285   6.869  0.0438 -2.0677  0.3400
  652MOL0     H88018   6.755   7.171   7.082  0.2656  1.2209 -1.3788
  652MOL0     H88019   6.718   7.344   7.088  2.2755 -0.4198  1.1272
  652MOL0     H88020   6.588   7.230   7.069  0.0762  0.3056  3.5460
  653MOL0     O88021   7.494  10.107   1.379  0.3626 -0.4053  0.3368
  653MOL0     C88022   7.502  10.001   1.316  0.9362  0.3714 -0.1353
  653MOL0     O88023   7.604   9.919   1.328  0.4240  0.2745  0.5086
  653MOL0     C88024   7.725   9.964   1.371 -0.1313  0.7948 -0.5428
  653MOL0     C88025   7.786  10.068   1.303  0.6184  0.1606 -0.5886
  653MOL0     C88026   7.911  10.109   1.342  0.3764 -0.4352 -0.4789
  653MOL0     C88027   7.988  10.049   1.445  0.1724  0.1863 -0.1397
  653MOL0     O88028   8.111  10.097   1.484 -0.5971  0.2204  0.2456
  653MOL0     C88029   8.169  10.049   1.607 -0.4362  0.4412  0.4345
  653MOL0     C88030   8.269  10.141   1.655 -0.1949 -0.1047  0.2245
  653MOL0     C88031   8.411  10.141   1.597 -0.3856 -0.7900  0.6206
  653MOL0     C88032   8.473  10.282   1.627  1.3871  0.7249 -0.3469
  653MOL0     C88033   8.620  10.301   1.581  0.3250 -0.1003 -0.3086
  653MOL0     C88034   8.709  10.244   1.682 -0.2304  0.1371 -0.6342
  653MOL0     C88035   8.851  10.281   1.640 -0.0586 -0.0043  0.4260
  653MOL0     C88036   8.960  10.208   1.720  0.2076 -0.7008  0.4985
  653MOL0     N88037   9.087  10.283   1.728  0.1632  0.1026  0.2112
  653MOL0     C88038   9.198  10.236   1.795  0.9110 -0.0051  0.9167
  653MOL0     C88039   9.296  10.318   1.772  0.2379 -0.3036  0.1209
  653MOL0     C88040   9.442  10.321   1.816 -0.6689 -0.2719 -1.5172
  653MOL0     C88041   9.533  10.452   1.798  0.3853 -0.2862 -0.0048
  653MOL0     C88042   9.553  10.495   1.652 -0.6343  0.2318  0.2559
  653MOL0     C88043   9.640  10.625   1.647  0.0453 -0.3383  1.0348
  653MOL0     O88044   9.700  10.630   1.514 -0.1833  0.2508 -0.2152
  653MOL0     C88045   9.803  10.727   1.494  1.1424  0.3368 -1.0575
  653MOL0     C88046   9.883  10.778   1.599 -1.0673  0.4908  0.2469
  653MOL0     C88047   9.989  10.866   1.580 -0.2743  0.2095 -0.6374
  653MOL0     C88048  10.023  10.901   1.446 -0.5248  1.1543 -0.1486
  653MOL0     C88049  10.141  10.984   1.413 -0.5264  0.3231 -0.3197
  653MOL0     O88050  10.162  11.037   1.289 -0.1303 -1.0088  0.1469
  653MOL0     C88051  10.261  11.127   1.278  0.3167  0.4591  0.1001
  653MOL0     C88052  10.246  11.259   1.300  0.5434  0.5641 -0.2067
  653MOL0     C88053  10.347  11.353   1.270  0.5267  0.8275 -0.1423
  653MOL0     C88054  10.469  11.313   1.219 -0.0184  0.0034  0.2435
  653MOL0     O88055  10.561  11.404   1.189 -0.0884 -0.1746 -0.2868
  653MOL0     C88056  10.697  11.371   1.170 -0.0237  0.1533  0.2808
  653MOL0     C88057  10.792  11.499   1.165  0.8040 -0.4204  0.6886
  653MOL0     C88058  10.908  11.465   1.073 -0.1517  0.7731 -0.2316
  653MOL0     C88059  10.999  11.585   1.062  0.1499 -0.4230  0.9117
  653MOL0     C88060  11.134  11.533   1.020  0.4481 -0.0698  0.5649
  653MOL0     C88061  11.249  11.627   1.044 -0.2262  1.2574 -0.0455
  653MOL0     C88062  11.376  11.567   0.975  0.2023 -0.1582  0.0915
  653MOL0     C88063  11.496  11.664   0.985  0.5963  0.7457 -0.5461
  653MOL0    Cl88064  11.629  11.584   0.913 -0.0080  0.7655 -0.0496
  653MOL0     C88065  10.490  11.177   1.206 -0.5421 -0.0352  0.1791
  653MOL0     C88066  10.388  11.081   1.232 -0.3396 -0.0717 -1.2027
  653MOL0     O88067  10.213  10.993   1.511 -0.9626  0.0122 -0.0475
  653MOL0     C88068   9.947  10.848   1.343  0.9100 -0.0925 -0.8356
  653MOL0     C88069   9.838  10.766   1.367 -0.0350 -0.3264 -1.1245
  653MOL0     N88070   9.250  10.404   1.668  0.2478  0.3164 -0.5085
  653MOL0     N88071   9.122  10.377   1.645 -0.5845  0.7446 -0.8525
  653MOL0     C88072   7.932   9.936   1.512 -0.7485 -0.2359  0.2569
  653MOL0     C88073   7.801   9.895   1.469  0.0335 -0.1760  0.2166
  653MOL0     C88074   7.378   9.958   1.237  1.3145 -0.0409 -1.0819
  653MOL0     C88075   7.389   9.827   1.182  0.8689 -0.7523 -0.8462
  653MOL0     C88076   7.287   9.773   1.102  0.5803 -0.0082 -0.1487
  653MOL0     C88077   7.167   9.839   1.084  0.1603  0.1220 -0.2709
  653MOL0     O88078   7.065   9.777   1.017  0.0147 -0.8728  0.4558
  653MOL0     C88079   7.014   9.854   0.901 -0.4054  1.0303 -0.0038
  653MOL0     C88080   6.968   9.769   0.786 -0.3663 -0.2347 -0.4690
  653MOL0     C88081   7.077   9.738   0.678 -0.2689 -0.1167 -0.7695
  653MOL0     C88082   7.181   9.636   0.712  0.5648  0.2654  0.1561
  653MOL0     C88083   7.131   9.494   0.711  0.5567 -0.0481  0.1572
  653MOL0     C88084   7.110   9.379   0.737 -0.2955  0.3147 -0.7375
  653MOL0     C88085   7.161   9.966   1.141 -0.9491  0.1681  0.0418
  653MOL0     C88086   7.261  10.026   1.216 -0.2147 -0.6161  0.1786
  653MOL0     C88087   7.231  10.170   1.269 -0.0441 -0.4196  0.5798
  653MOL0     H88088   7.732  10.132   1.234 -0.8150 -0.6820 -0.2804
  653MOL0     H88089   7.948  10.203   1.303  3.0114 -1.0159  0.4157
  653MOL0     H88090   8.097  10.040   1.689 -0.2918  0.9555  0.6232
  653MOL0     H88091   8.208   9.950   1.582 -2.9099 -0.0599 -1.9750
  653MOL0     H88092   8.275  10.126   1.763 -1.8745  0.9417  0.5140
  653MOL0     H88093   8.226  10.241   1.643  1.3666  1.4758  5.3684
  653MOL0     H88094   8.419  10.136   1.488  4.7140  2.2648  0.4996
  653MOL0     H88095   8.477  10.060   1.627  1.5010  0.2851 -0.3933
  653MOL0     H88096   8.404  10.357   1.588 -0.0458  0.3705  1.3921
  653MOL0     H88097   8.483  10.311   1.732 -1.2785  2.2439 -0.4150
  653MOL0     H88098   8.635  10.260   1.481  1.3779  0.2083 -0.2877
  653MOL0     H88099   8.639  10.407   1.565 -0.9798 -0.0659 -1.8472
  653MOL0     H88100   8.684  10.275   1.784 -2.6293 -0.3876 -1.0022
  653MOL0     H88101   8.697  10.136   1.699 -0.9617  0.3490  0.2894
  653MOL0     H88102   8.856  10.388   1.661  1.5470  0.2277 -0.9623
  653MOL0     H88103   8.871  10.269   1.534 -0.9945  0.1944  0.2155
  653MOL0     H88104   8.927  10.189   1.823  2.2818  3.0784  2.0741
  653MOL0     H88105   8.974  10.107   1.681  0.5051 -0.7795  0.8064
  653MOL0     H88106   9.204  10.142   1.849 -0.9799 -1.0585 -0.5844
  653MOL0     H88107   9.435  10.302   1.924 -1.0117  0.1737 -1.4605
  653MOL0     H88108   9.504  10.244   1.769  0.9259 -0.5029  0.7658
  653MOL0     H88109   9.486  10.532   1.855  0.9661  0.7676 -0.9573
  653MOL0     H88110   9.629  10.427   1.844  0.6149 -0.4305 -0.5587
  653MOL0     H88111   9.453  10.500   1.607 -0.1122  1.5848 -0.8167
  653MOL0     H88112   9.608  10.410   1.611  1.4788  1.7805 -0.2684
  653MOL0     H88113   9.722  10.613   1.719 -0.4652  0.4648  1.7767
  653MOL0     H88114   9.578  10.712   1.670  0.5034  0.0364  0.8671
  653MOL0     H88115   9.856  10.758   1.702  1.6886  0.3583  1.0105
  653MOL0     H88116  10.044  10.902   1.667  2.0313 -4.5254  0.2199
  653MOL0     H88117  10.149  11.284   1.344  1.1877  1.0750  0.9841
  653MOL0     H88118  10.330  11.459   1.290  2.2462  1.1945 -0.4234
  653MOL0     H88119  10.728  11.303   1.249 -1.1860 -1.1970 -0.3859
  653MOL0     H88120  10.712  11.321   1.074 -0.9098 -0.1946  0.3082
  653MOL0     H88121  10.732  11.578   1.119 -1.3878 -0.3701  3.3969
  653MOL0     H88122  10.828  11.522   1.265 -0.5808  1.5773  0.7871
  653MOL0     H88123  10.966  11.386   1.121 -1.0954 -0.1805 -0.6050
  653MOL0     H88124  10.875  11.421   0.978  0.0023 -2.1638  0.9967
  653MOL0     H88125  11.009  11.629   1.162 -0.7064  1.3160  0.2832
  653MOL0     H88126  10.968  11.661   0.989  0.5352 -3.1232 -2.3036
  653MOL0     H88127  11.118  11.509   0.915 -1.3743 -1.5682  1.1092
  653MOL0     H88128  11.158  11.439   1.071  0.1293 -0.0066  0.8413
  653MOL0     H88129  11.237  11.729   1.006 -0.8427  0.8297 -1.0248
  653MOL0     H88130  11.264  11.631   1.153 -1.7100  0.5656  0.2077
  653MOL0     H88131  11.355  11.555   0.868 -0.8904 -1.1716  0.3965
  653MOL0     H88132  11.406  11.470   1.014  0.3557 -1.1638 -2.3270
  653MOL0     H88133  11.472  11.761   0.940 -1.5763  0.1425 -0.8104
  653MOL0     H88134  11.521  11.686   1.089 -0.2514  1.3566 -0.4531
  653MOL0     H88135  10.586  11.138   1.173 -1.9761 -2.6867 -1.1938
  653MOL0     H88136  10.401  10.974   1.215  0.7580 -0.8367  3.1257
  653MOL0     H88137   9.955  10.867   1.236 -1.4056 -2.3620 -1.5490
  653MOL0     H88138   9.771  10.741   1.285 -0.6094  1.8731 -1.3927
  653MOL0     H88139   7.985   9.880   1.589  1.8021  0.0808 -1.1577
  653MOL0     H88140   7.763   9.815   1.532  0.5660 -0.1927  0.5207
  653MOL0     H88141   7.470   9.756   1.194 -0.6567 -2.6859 -1.3061
  653MOL0     H88142   7.310   9.675   1.062  3.6358  0.5336  0.0124
  653MOL0     H88143   7.092   9.925   0.872 -0.1664  0.5519 -0.5506
  653MOL0     H88144   6.928   9.910   0.937 -1.4850 -0.1927 -0.5960
  653MOL0     H88145   6.889   9.813   0.725 -0.9951 -1.3589 -0.4924
  653MOL0     H88146   6.923   9.682   0.835  0.3196 -0.3121  0.0569
  653MOL0     H88147   7.137   9.830   0.669 -0.3099  0.0878  0.8960
  653MOL0     H88148   7.027   9.720   0.582 -1.6010  2.0381 -0.5416
  653MOL0     H88149   7.261   9.642   0.638  2.1554  3.2833  1.9109
  653MOL0     H88150   7.215   9.663   0.813  0.5488  0.9444 -0.0167
  653MOL0     H88151   7.102   9.274   0.753  1.0632  0.5541  1.9579
  653MOL0     H88152   7.062  10.011   1.136 -1.2295 -0.6018 -2.5934
  653MOL0     H88153   7.136  10.211   1.235  1.4848  1.2813 -1.9816
  653MOL0     H88154   7.231  10.179   1.378 -0.3076  5.2736  0.3841
  653MOL0     H88155   7.316  10.227   1.231 -0.8337  0.9185  0.7428
  654MOL0     O88156   5.605  10.854   8.602 -0.7376 -0.1506 -0.0337
  654MOL0     C88157   5.594  10.741   8.641 -0.2708  0.9675  0.1917
  654MOL0     O88158   5.476  10.670   8.660 -0.6306 -0.9862 -0.2900
  654MOL0     C88159   5.362  10.736   8.667  0.2468  0.3470  1.0127
  654MOL0     C88160   5.254  10.662   8.629  0.1778  0.3728 -0.4026
  654MOL0     C88161   5.124  10.709   8.647  0.1318  0.2277  0.2496
  654MOL0     C88162   5.097  10.824   8.721 -0.2297 -0.0018  1.4910
  654MOL0     O88163   4.974  10.869   8.761 -0.4386  0.3644 -0.3525
  654MOL0     C88164   4.877  10.775   8.811 -0.2942  0.5437 -0.1413
  654MOL0     C88165   4.772  10.751   8.706  0.5708  0.3033  0.4722
  654MOL0     C88166   4.680  10.628   8.752  0.7461  0.7086  0.2664
  654MOL0     C88167   4.554  10.621   8.666 -0.2073 -1.2557  0.0432
  654MOL0     C88168   4.500  10.481   8.679 -0.3870  0.6542  0.4399
  654MOL0     C88169   4.389  10.453   8.578 -0.8055 -0.6838 -0.0522
  654MOL0     C88170   4.264  10.377   8.648 -0.1551 -0.2313  0.3274
  654MOL0     C88171   4.194  10.451   8.769 -0.2230  0.5364  0.1859
  654MOL0     N88172   4.086  10.377   8.841 -0.7654  1.0217  0.1765
  654MOL0     C88173   3.969  10.333   8.785  0.5638 -0.5287 -0.2453
  654MOL0     C88174   3.910  10.268   8.883  1.0406  0.1791 -0.8582
  654MOL0     C88175   3.785  10.189   8.872  0.2508 -0.1602 -0.2418
  654MOL0     C88176   3.661  10.254   8.932  0.8512  0.0964  0.5047
  654MOL0     C88177   3.549  10.165   8.915  0.7456 -0.2523 -1.2150
  654MOL0     C88178   3.425  10.224   8.990 -0.4718 -0.8848 -0.5609
  654MOL0     O88179   3.331  10.119   8.959  0.6951 -0.4254  0.2365
  654MOL0     C88180   3.201  10.146   8.969 -0.9355  0.2155  0.2454
  654MOL0     C88181   3.140  10.241   9.048 -0.2443 -0.5033  0.1092
  654MOL0     C88182   3.006  10.258   9.055  0.4556 -0.2920 -0.3465
  654MOL0     C88183   2.920  10.177   8.968  0.2586 -0.1166 -0.0411
  654MOL0     C88184   2.773  10.193   8.978 -0.3081 -1.1339  0.2873
  654MOL0     O88185   2.727  10.316   9.010 -0.2413  0.4052 -0.0372
  654MOL0     C88186   2.596  10.331   9.015  0.6483  0.5438 -1.1730
  654MOL0     C88187   2.516  10.300   9.126  0.2928 -0.1541 -0.4067
  654MOL0     C88188   2.376  10.322   9.130 -0.4187  0.3011  0.0825
  654MOL0     C88189   2.317  10.391   9.017 -0.6204  0.4697 -0.8228
  654MOL0     O88190   2.192  10.431   9.019 -0.2267  0.1196 -0.1180
  654MOL0     C88191   2.087  10.348   8.983 -0.4957  0.1785  0.0484
  654MOL0     C88192   2.073  10.353   8.833  0.2378 -0.0437  0.0308
  654MOL0     C88193   1.945  10.416   8.784 -0.0979 -0.2290 -0.2363
  654MOL0     C88194   1.923  10.565   8.831 -0.7110  0.0384  0.5138
  654MOL0     C88195   1.784  10.614   8.786 -0.5120 -0.3220  0.3724
  654MOL0     C88196   1.783  10.663   8.640 -0.5466 -0.4543  0.4871
  654MOL0     C88197   1.640  10.708   8.613  0.3353  0.2318 -0.6188
  654MOL0     C88198   1.571  10.603   8.530  0.2882  0.3622 -0.8311
  654MOL0    Cl88199   1.440  10.679   8.423 -0.1901 -0.5107  0.1491
  654MOL0     C88200   2.402  10.439   8.923 -0.7909 -0.5452  0.4533
  654MOL0     C88201   2.537  10.409   8.916 -0.3317 -0.1928 -0.4207
  654MOL0     O88202   2.702  10.099   8.937  0.4645 -0.5759  0.5677
  654MOL0     C88203   2.982  10.089   8.878  0.5263 -0.8415  0.0028
  654MOL0     C88204   3.119  10.066   8.884 -0.4009 -0.5005  1.0190
  654MOL0     N88205   3.985  10.274   8.997 -0.6793 -0.2605 -0.4906
  654MOL0     N88206   4.092  10.341   8.967  0.4922 -0.0781  0.3084
  654MOL0     C88207   5.205  10.902   8.750  0.6050 -1.0028  0.4625
  654MOL0     C88208   5.337  10.857   8.721 -0.3814 -0.3006 -0.8287
  654MOL0     C88209   5.710  10.663   8.661  0.7685 -0.1468 -0.5773
  654MOL0     C88210   5.792  10.638   8.550 -0.4827  0.2060 -1.0727
  654MOL0     C88211   5.916  10.587   8.557 -0.5464  0.1522 -0.0358
  654MOL0     C88212   5.977  10.555   8.680  0.3663  0.0686  0.3376
  654MOL0     O88213   6.111  10.530   8.675 -0.1639  0.2767 -0.1846
  654MOL0     C88214   6.183  10.586   8.779  0.1749 -0.2213 -0.5367
  654MOL0     C88215   6.342  10.582   8.743  0.0464  1.2512  0.0600
  654MOL0     C88216   6.374  10.684   8.626  0.0024  0.2655  0.2882
  654MOL0     C88217   6.477  10.636   8.517  0.5649  0.7946 -0.3034
  654MOL0     C88218   6.602  10.577   8.580 -0.1721  0.5936  0.0696
  654MOL0     C88219   6.712  10.536   8.620  0.6886 -0.8682  0.8219
  654MOL0     C88220   5.895  10.573   8.790  0.2202 -0.8107 -0.5778
  654MOL0     C88221   5.762  10.633   8.787  0.8668 -0.4569  0.2030
  654MOL0     C88222   5.673  10.640   8.913 -0.8300  0.2309 -0.0363
  654MOL0     H88223   5.266  10.569   8.574 -1.9180 -0.4455  0.4296
  654MOL0     H88224   5.047  10.645   8.603  1.7569 -2.6119  1.2339
  654MOL0     H88225   4.925  10.681   8.839  0.0519 -0.2804 -3.0756
  654MOL0     H88226   4.836  10.833   8.893  0.3989 -0.4457  0.9358
  654MOL0     H88227   4.828  10.730   8.615  2.0416  2.1551  0.8877
  654MOL0     H88228   4.710  10.840   8.694  2.9489  2.0359  0.2843
  654MOL0     H88229   4.649  10.628   8.857 -3.5163 -1.6406 -0.7640
  654MOL0     H88230   4.737  10.536   8.739  0.1678 -0.0300  2.5257
  654MOL0     H88231   4.480  10.689   8.708  1.8181  1.9802 -1.2419
  654MOL0     H88232   4.570  10.648   8.561 -2.7305  0.1548 -0.0481
  654MOL0     H88233   4.580  10.407   8.678 -0.3936  0.6461  0.5422
  654MOL0     H88234   4.458  10.475   8.780  1.5087 -2.4663  1.1748
  654MOL0     H88235   4.358  10.545   8.529 -3.1257 -0.5681  1.5031
  654MOL0     H88236   4.426  10.392   8.494 -3.1000 -0.7488 -1.0779
  654MOL0     H88237   4.288  10.278   8.687  0.3308  0.3228  1.4781
  654MOL0     H88238   4.196  10.371   8.562  2.1516 -1.0003 -1.5557
  654MOL0     H88239   4.269  10.476   8.845  0.2011  2.3111 -0.7749
  654MOL0     H88240   4.156  10.547   8.735  1.7594  0.6143 -2.0580
  654MOL0     H88241   3.933  10.335   8.683 -2.1568  2.6102  0.5681
  654MOL0     H88242   3.760  10.143   8.776 -4.7902 -0.8318  1.1224
  654MOL0     H88243   3.803  10.106   8.942  0.0863 -0.3091 -0.3749
  654MOL0     H88244   3.673  10.271   9.039 -2.3607  0.9233  0.8120
  654MOL0     H88245   3.629  10.345   8.879  2.0232  1.0169  1.3293
  654MOL0     H88246   3.579  10.069   8.959  3.5692  1.3010  0.6076
  654MOL0     H88247   3.513  10.164   8.812 -2.4234 -2.0863 -0.2151
  654MOL0     H88248   3.398  10.324   8.957 -1.2445  0.0795  2.6280
  654MOL0     H88249   3.434  10.233   9.098  2.5413  1.1563 -0.8753
  654MOL0     H88250   3.197  10.305   9.115 -3.0144  1.5728  0.6714
  654MOL0     H88251   2.958  10.324   9.126  2.5071 -1.1613  1.9849
  654MOL0     H88252   2.541  10.251   9.220 -2.1752  2.4058  1.7494
  654MOL0     H88253   2.317  10.286   9.214  0.0839 -1.8263 -0.4088
  654MOL0     H88254   2.103  10.246   9.018 -0.9417 -0.3095 -1.1246
  654MOL0     H88255   1.989  10.375   9.025  0.8229 -0.3331  3.9213
  654MOL0     H88256   2.146  10.419   8.785 -2.1833  3.6352  0.9644
  654MOL0     H88257   2.078  10.251   8.795 -0.9083  0.7733 -2.4985
  654MOL0     H88258   1.941  10.409   8.675 -3.2410 -1.0673 -0.1849
  654MOL0     H88259   1.862  10.360   8.829  0.0753 -0.0880  0.2670
  654MOL0     H88260   2.008  10.623   8.794  1.3352 -3.0129 -0.0077
  654MOL0     H88261   1.917  10.574   8.939 -1.7667 -0.9702  0.5648
  654MOL0     H88262   1.752  10.700   8.846 -1.8398 -0.5348 -0.0081
  654MOL0     H88263   1.719  10.528   8.805  0.5263 -1.1826  0.1237
  654MOL0     H88264   1.852  10.747   8.625 -1.1456 -0.0332 -0.0074
  654MOL0     H88265   1.812  10.584   8.570 -0.9579 -1.0874  1.0196
  654MOL0     H88266   1.642  10.800   8.554  3.9066 -0.4739 -1.8395
  654MOL0     H88267   1.580  10.723   8.703  1.7199 -2.5846  0.9370
  654MOL0     H88268   1.641  10.555   8.460 -3.2670 -4.7141 -1.4674
  654MOL0     H88269   1.527  10.516   8.578  1.8995 -1.3048 -2.2153
  654MOL0     H88270   2.361  10.498   8.841  1.3225 -0.3280 -0.5244
  654MOL0     H88271   2.593  10.450   8.833 -0.5753 -0.3789 -0.6813
  654MOL0     H88272   2.930  10.026   8.806 -2.4215  1.4448 -0.0837
  654MOL0     H88273   3.163   9.994   8.816  0.5746  1.3297 -0.4107
  654MOL0     H88274   5.190  10.995   8.805 -0.9701 -1.0786  0.1987
  654MOL0     H88275   5.411  10.920   8.769  0.5997 -1.0143 -1.3573
  654MOL0     H88276   5.761  10.670   8.451  0.6073  0.4562 -1.3533
  654MOL0     H88277   5.970  10.584   8.463  2.9700 -0.1546  1.8520
  654MOL0     H88278   6.162  10.533   8.873 -3.2296 -0.7235 -1.4731
  654MOL0     H88279   6.146  10.688   8.788 -2.5312 -1.0911 -0.8650
  654MOL0     H88280   6.358  10.478   8.713  0.8934  1.2845  0.3503
  654MOL0     H88281   6.404  10.605   8.831  0.7222  1.8760 -0.5707
  654MOL0     H88282   6.390  10.786   8.662 -0.2390  0.6283 -0.6017
  654MOL0     H88283   6.282  10.692   8.567  0.1862  1.0031  0.0891
  654MOL0     H88284   6.428  10.562   8.452  0.6258 -0.5409  1.1321
  654MOL0     H88285   6.509  10.726   8.462  3.0672  0.5830  0.6719
  654MOL0     H88286   6.806  10.498   8.653  1.2543  1.3655  1.9629
  654MOL0     H88287   5.944  10.559   8.886 -0.6306  1.5831  0.2760
  654MOL0     H88288   5.599  10.721   8.914 -1.1933 -0.0870 -0.5263
  654MOL0     H88289   5.620  10.545   8.924 -2.1572  1.1442  2.2002
  654MOL0     H88290   5.739  10.660   8.998  1.3578 -0.8442 -1.3955
  655MOL0     O88291   1.516   5.123   3.477  0.6370 -0.6268  0.0900
  655MOL0     C88292   1.473   5.155   3.366 -0.0446 -0.3954  0.5658
  655MOL0     O88293   1.533   5.253   3.290  0.5201  0.1876  0.2040
  655MOL0     C88294   1.647   5.306   3.331  0.7206 -0.9477 -0.2245
  655MOL0     C88295   1.766   5.251   3.313 -0.6345  0.1613  0.6118
  655MOL0     C88296   1.883   5.316   3.336 -0.4049  0.2477 -0.8707
  655MOL0     C88297   1.883   5.446   3.402  0.2013  0.9504 -0.0254
  655MOL0     O88298   2.002   5.500   3.455 -0.5637 -0.4997 -0.3507
  655MOL0     C88299   2.003   5.626   3.528  0.3011  0.2711 -0.6100
  655MOL0     C88300   2.026   5.743   3.436 -0.2987 -0.3014 -0.4034
  655MOL0     C88301   2.169   5.751   3.404 -0.3949 -0.3201  0.8618
  655MOL0     C88302   2.190   5.863   3.287  1.0386  0.9802 -1.6565
  655MOL0     C88303   2.336   5.899   3.262 -0.8635 -0.2226  0.5826
  655MOL0     C88304   2.367   6.024   3.174  0.1213 -0.6313  0.3864
  655MOL0     C88305   2.346   6.020   3.023 -0.5639  0.6267 -0.0453
  655MOL0     C88306   2.423   5.907   2.954 -0.9353  0.0880  0.4395
  655MOL0     N88307   2.572   5.901   2.988 -0.0934  0.5949  0.0861
  655MOL0     C88308   2.658   6.009   2.983  0.4619 -0.6355  0.1710
  655MOL0     C88309   2.775   5.948   3.000  0.2625  0.4364  0.1438
  655MOL0     C88310   2.906   6.024   2.996 -0.1734  0.3228  0.7793
  655MOL0     C88311   3.028   5.922   3.011 -0.2792 -0.4569 -0.3585
  655MOL0     C88312   3.162   5.982   2.984 -0.2969 -0.9455 -0.0883
  655MOL0     C88313   3.277   5.893   2.983  0.1311  0.5281  0.6760
  655MOL0     O88314   3.388   5.986   2.991  0.0996  0.2292 -0.1383
  655MOL0     C88315   3.516   5.944   2.973  0.0574 -0.6466  0.3054
  655MOL0     C88316   3.607   6.043   2.981 -0.3546 -0.6665  1.1001
  655MOL0     C88317   3.744   6.033   2.953 -0.0605  0.3158 -0.7815
  655MOL0     C88318   3.798   5.907   2.933  0.6353 -0.6643  0.4405
  655MOL0     C88319   3.941   5.881   2.915 -0.3049 -0.1015 -0.2336
  655MOL0     O88320   4.033   5.980   2.944  0.3615  0.2710 -0.0684
  655MOL0     C88321   4.162   5.941   2.919 -0.1757 -1.0565 -1.0958
  655MOL0     C88322   4.213   5.909   2.792  0.4628  0.3823 -1.1154
  655MOL0     C88323   4.346   5.880   2.770  0.7147 -0.8932 -0.6539
  655MOL0     C88324   4.438   5.898   2.876  1.1026 -0.1863  0.1398
  655MOL0     O88325   4.576   5.884   2.852  0.0507  0.6621 -0.4999
  655MOL0     C88326   4.624   5.745   2.833  0.1759 -0.6739  0.3727
  655MOL0     C88327   4.771   5.753   2.790 -0.4202  0.2332  0.5080
  655MOL0     C88328   4.863   5.839   2.884 -0.3563  0.2759  0.9289
  655MOL0     C88329   5.008   5.846   2.844  0.1685  0.0477  1.2067
  655MOL0     C88330   5.097   5.939   2.933  0.0111  0.1602 -0.4174
  655MOL0     C88331   5.101   6.081   2.884 -0.4888 -1.2336 -0.2225
  655MOL0     C88332   5.213   6.167   2.949  0.5264  0.2727  0.4874
  655MOL0     C88333   5.201   6.311   2.891  0.0481  1.0089 -0.7604
  655MOL0    Cl88334   5.252   6.316   2.726  0.6555 -0.2961 -0.5895
  655MOL0     C88335   4.391   5.930   3.008  0.3050 -0.1231 -0.0059
  655MOL0     C88336   4.255   5.957   3.029 -0.5943 -0.2350  0.0825
  655MOL0     O88337   3.968   5.766   2.874 -0.0905 -0.3020  1.0428
  655MOL0     C88338   3.705   5.798   2.931 -0.4824  0.4876  0.6291
  655MOL0     C88339   3.563   5.817   2.942 -0.1249 -0.8108 -0.2106
  655MOL0     N88340   2.759   5.811   3.026  0.0377  0.5854 -0.4673
  655MOL0     N88341   2.637   5.790   3.033  0.3365  0.2174 -0.8760
  655MOL0     C88342   1.764   5.501   3.436  0.5397  0.3817 -0.7742
  655MOL0     C88343   1.644   5.439   3.388 -0.5581 -0.2954  0.7447
  655MOL0     C88344   1.343   5.104   3.316  0.0598 -0.4626 -0.1086
  655MOL0     C88345   1.300   5.167   3.194  0.0906 -0.2033 -0.3221
  655MOL0     C88346   1.182   5.131   3.136 -0.1776  1.0188 -0.6772
  655MOL0     C88347   1.084   5.062   3.206 -0.5914  0.0083  0.5574
  655MOL0     O88348   0.954   5.044   3.162  0.2238  0.9015  0.7872
  655MOL0     C88349   0.860   5.145   3.199  0.2816  0.0560 -0.4024
  655MOL0     C88350   0.733   5.089   3.123 -0.8002 -0.4390  0.2739
  655MOL0     C88351   0.609   5.182   3.152 -0.1221 -0.6416  0.7807
  655MOL0     C88352   0.484   5.146   3.075  0.6734  0.0578  0.5550
  655MOL0     C88353   0.507   5.166   2.936 -0.8073  0.1384  0.2621
  655MOL0     C88354   0.536   5.182   2.819 -0.2605  0.2403  0.1419
  655MOL0     C88355   1.117   5.010   3.330 -0.1372  0.6230  0.2450
  655MOL0     C88356   1.252   5.017   3.375  0.5645  0.3368 -0.6863
  655MOL0     C88357   1.297   4.932   3.495  0.6125 -0.3894  0.4698
  655MOL0     H88358   1.757   5.155   3.264 -2.7628  1.2479 -1.3337
  655MOL0     H88359   1.972   5.255   3.323 -1.5676 -1.8558  0.5779
  655MOL0     H88360   1.925   5.639   3.603  0.7439  1.4767 -0.3437
  655MOL0     H88361   2.087   5.619   3.597 -0.5860 -0.0652  0.4577
  655MOL0     H88362   2.007   5.840   3.484 -1.3721 -0.9440  0.5167
  655MOL0     H88363   1.967   5.740   3.345 -2.8227 -0.6759  1.1541
  655MOL0     H88364   2.215   5.658   3.371 -0.4708  0.1320 -0.5832
  655MOL0     H88365   2.223   5.789   3.491  0.0510  0.6368  0.1813
  655MOL0     H88366   2.142   5.811   3.203  0.9410 -2.5665  0.4090
  655MOL0     H88367   2.135   5.956   3.303  0.5796  0.5581 -0.7592
  655MOL0     H88368   2.389   5.905   3.358 -1.8254  0.6270  1.0823
  655MOL0     H88369   2.366   5.809   3.209 -0.5318 -0.0532  0.4811
  655MOL0     H88370   2.320   6.116   3.211 -2.1610 -1.5397 -0.0430
  655MOL0     H88371   2.473   6.045   3.185 -0.2313  0.4784  1.8190
  655MOL0     H88372   2.365   6.119   2.981 -1.7015  0.5895 -0.7097
  655MOL0     H88373   2.240   5.991   3.025 -0.4651  0.2682  0.1193
  655MOL0     H88374   2.381   5.806   2.954 -1.2535  0.1140 -2.8645
  655MOL0     H88375   2.425   5.933   2.848  0.5905  1.4480  0.7440
  655MOL0     H88376   2.624   6.109   2.957 -3.3347 -1.9962 -0.7462
  655MOL0     H88377   2.913   6.077   2.901  1.8638 -1.9177 -0.4632
  655MOL0     H88378   2.903   6.097   3.078 -4.8392  0.8940  0.3456
  655MOL0     H88379   3.019   5.878   3.111  0.7676  1.6149  0.7079
  655MOL0     H88380   3.017   5.844   2.935  2.7329  0.0779 -1.4476
  655MOL0     H88381   3.193   6.052   3.062 -0.6264  0.6395 -1.3232
  655MOL0     H88382   3.151   6.033   2.888  1.8520  1.7829  0.9940
  655MOL0     H88383   3.276   5.835   2.891  0.8963 -1.5704  1.9139
  655MOL0     H88384   3.272   5.813   3.058 -0.3307  1.2894  1.4864
  655MOL0     H88385   3.570   6.143   3.000  0.5854 -0.1052  0.0919
  655MOL0     H88386   3.804   6.123   2.950  2.2090 -1.1383 -2.1948
  655MOL0     H88387   4.140   5.921   2.713 -1.5348 -1.3440  0.3455
  655MOL0     H88388   4.383   5.853   2.671 -0.3801 -0.3437 -1.2222
  655MOL0     H88389   4.625   5.684   2.924  0.6021 -0.4502  0.5180
  655MOL0     H88390   4.566   5.694   2.756 -0.4383  0.4684  0.0650
  655MOL0     H88391   4.809   5.652   2.773 -2.2128 -0.2541 -0.8203
  655MOL0     H88392   4.773   5.798   2.690  2.2817  0.9823  0.7974
  655MOL0     H88393   4.822   5.935   2.917  0.3152 -0.1100  3.0419
  655MOL0     H88394   4.866   5.781   2.976  2.1959  3.2120  2.8752
  655MOL0     H88395   5.013   5.877   2.739 -1.7092 -3.7682 -0.2128
  655MOL0     H88396   5.053   5.747   2.854  2.5055  0.3529 -3.6218
  655MOL0     H88397   5.200   5.906   2.918 -0.0062 -0.6900  1.1750
  655MOL0     H88398   5.068   5.926   3.038  3.3728  1.9014  0.8660
  655MOL0     H88399   5.119   6.095   2.777 -1.2676  2.7334  0.0092
  655MOL0     H88400   4.999   6.115   2.905 -0.4367 -1.4976  0.4972
  655MOL0     H88401   5.308   6.117   2.926 -0.3427 -0.2190 -2.4863
  655MOL0     H88402   5.201   6.172   3.057  5.3388  0.9972  1.2266
  655MOL0     H88403   5.094   6.334   2.900 -0.3478 -0.7762 -0.4888
  655MOL0     H88404   5.251   6.390   2.947 -1.5087  2.5706 -1.4586
  655MOL0     H88405   4.459   5.953   3.088  0.6305 -1.0213 -0.0075
  655MOL0     H88406   4.224   5.996   3.126 -0.0759 -1.0812  0.5965
  655MOL0     H88407   3.755   5.702   2.922  0.7109  0.8782  2.4381
  655MOL0     H88408   3.492   5.735   2.943 -2.6878  1.2485  0.3889
  655MOL0     H88409   1.746   5.594   3.489 -2.6156  1.4672 -3.4375
  655MOL0     H88410   1.549   5.492   3.398 -0.7875 -0.3796 -0.7395
  655MOL0     H88411   1.349   5.247   3.139 -1.1821  1.8387  1.3390
  655MOL0     H88412   1.167   5.156   3.031  0.0670 -0.3289 -1.0553
  655MOL0     H88413   0.876   5.247   3.164 -3.2390  0.8668 -0.0574
  655MOL0     H88414   0.835   5.142   3.306  1.1844  3.0311 -0.0302
  655MOL0     H88415   0.709   4.989   3.161 -0.4696 -0.4710  0.3975
  655MOL0     H88416   0.743   5.080   3.014 -0.8664  1.6659  0.0546
  655MOL0     H88417   0.644   5.284   3.132 -1.2036 -0.6977 -1.8509
  655MOL0     H88418   0.597   5.178   3.260  1.5450 -0.8643  0.9850
  655MOL0     H88419   0.459   5.041   3.090  3.1937 -0.7432 -0.3415
  655MOL0     H88420   0.390   5.195   3.103  1.5571  1.5538  0.9852
  655MOL0     H88421   0.562   5.200   2.716 -0.5782  0.8702  0.1677
  655MOL0     H88422   1.046   4.941   3.374  1.1508 -1.9643 -1.4427
  655MOL0     H88423   1.334   4.993   3.578  1.3153  0.6306 -0.5689
  655MOL0     H88424   1.211   4.883   3.542 -0.3736  0.3121 -0.5716
  655MOL0     H88425   1.383   4.869   3.472  2.0100  1.5117  0.2555
  656MOL0     O88426   9.386   2.786   2.031  0.1646 -0.7911 -0.1058
  656MOL0     C88427   9.408   2.864   1.941  0.0919  0.0900 -0.2129
  656MOL0     O88428   9.315   2.949   1.881  0.1584 -0.0138  0.4204
  656MOL0     C88429   9.184   2.901   1.864  1.4474  0.0420  1.6981
  656MOL0     C88430   9.073   2.980   1.862  0.1520  0.3696 -0.5905
  656MOL0     C88431   8.943   2.938   1.842 -0.4037  0.7884 -0.0342
  656MOL0     C88432   8.918   2.802   1.812  0.3262 -1.0175  0.0761
  656MOL0     O88433   8.788   2.770   1.783  0.1177  0.0330  0.0087
  656MOL0     C88434   8.744   2.658   1.871 -0.3349  0.6464  1.1413
  656MOL0     C88435   8.591   2.645   1.868  0.2198  0.0743  0.5224
  656MOL0     C88436   8.535   2.607   1.723  0.6197 -0.2198 -0.1445
  656MOL0     C88437   8.386   2.594   1.718  0.1784 -0.3486 -0.4037
  656MOL0     C88438   8.348   2.461   1.787  0.7740  0.8130 -0.1687
  656MOL0     C88439   8.203   2.414   1.742 -0.3100 -0.0204  0.4212
  656MOL0     C88440   8.158   2.306   1.838 -0.5479 -0.0828  0.0392
  656MOL0     C88441   8.056   2.222   1.770  0.5293  0.2775  0.2407
  656MOL0     N88442   8.017   2.110   1.862  0.1062 -0.6499 -0.8754
  656MOL0     C88443   7.905   2.107   1.942 -0.8110  1.0582  0.0702
  656MOL0     C88444   7.920   1.984   2.005  0.1238  1.1144 -0.0419
  656MOL0     C88445   7.814   1.934   2.114 -0.6844  0.4083  0.4397
  656MOL0     C88446   7.795   2.035   2.221 -0.4638  0.4220 -0.3535
  656MOL0     C88447   7.903   2.029   2.337  0.5159 -0.4145  0.4195
  656MOL0     C88448   8.051   2.057   2.299 -0.2364  0.2074 -0.4457
  656MOL0     O88449   8.070   2.189   2.237  0.1499  0.2962 -0.7103
  656MOL0     C88450   8.205   2.212   2.212 -0.0942  0.5964 -0.7723
  656MOL0     C88451   8.292   2.122   2.147  1.1127  0.2682  0.5534
  656MOL0     C88452   8.429   2.152   2.112  1.1468 -0.5061 -0.2820
  656MOL0     C88453   8.480   2.282   2.147 -0.1297  0.7330 -0.6163
  656MOL0     C88454   8.615   2.322   2.113  0.5349 -0.0855  0.5995
  656MOL0     O88455   8.678   2.236   2.025 -0.5755 -0.1564  0.3167
  656MOL0     C88456   8.800   2.277   1.957 -0.0991  0.1594 -0.1227
  656MOL0     C88457   8.913   2.278   2.038 -0.3995 -0.7846 -0.0248
  656MOL0     C88458   9.036   2.319   1.994 -0.2194  0.4155 -0.0735
  656MOL0     C88459   9.043   2.364   1.861  0.0018 -0.3068 -0.2284
  656MOL0     O88460   9.162   2.411   1.804 -0.7017 -0.1116  0.3701
  656MOL0     C88461   9.280   2.353   1.858 -0.1933  0.3961  0.1387
  656MOL0     C88462   9.388   2.414   1.772 -0.4112  0.5740 -0.1195
  656MOL0     C88463   9.540   2.387   1.812 -0.0895 -0.1963 -0.0853
  656MOL0     C88464   9.629   2.456   1.709  1.2256  0.3582  0.8126
  656MOL0     C88465   9.788   2.440   1.732  0.7253  0.3858 -0.2606
  656MOL0     C88466   9.845   2.519   1.623 -0.2468  0.8597 -0.5563
  656MOL0     C88467   9.994   2.542   1.648 -0.1375  0.4897 -0.4486
  656MOL0     C88468  10.080   2.412   1.651 -0.3982 -0.4700 -0.5197
  656MOL0    Cl88469  10.255   2.465   1.650  0.0951  0.3263 -0.0143
  656MOL0     C88470   8.928   2.364   1.778 -0.9519  0.1597  0.7202
  656MOL0     C88471   8.805   2.324   1.827  0.5924  1.2131  0.3018
  656MOL0     O88472   8.657   2.435   2.148  0.1647  0.2998  0.7573
  656MOL0     C88473   8.396   2.365   2.219 -0.6358 -0.6706  0.7123
  656MOL0     C88474   8.261   2.334   2.251  0.0974 -0.0849 -0.2045
  656MOL0     N88475   8.035   1.927   1.968 -0.9409  0.4830 -0.3216
  656MOL0     N88476   8.099   2.001   1.882 -0.4785  0.3232  0.1321
  656MOL0     C88477   9.033   2.717   1.815  0.1704  0.5271 -0.8669
  656MOL0     C88478   9.159   2.764   1.840  0.1369 -0.0033 -0.2045
  656MOL0     C88479   9.542   2.859   1.875  0.3470  1.6135 -0.0247
  656MOL0     C88480   9.567   2.931   1.752 -0.9018 -0.1170  0.4135
  656MOL0     C88481   9.689   2.940   1.693 -0.3669 -0.3533 -0.9043
  656MOL0     C88482   9.794   2.872   1.740 -0.1066 -0.3073  0.2968
  656MOL0     O88483   9.921   2.877   1.691  0.4531  0.8463  0.2413
  656MOL0     C88484   9.953   2.959   1.581  0.0513  0.3721  0.2315
  656MOL0     C88485  10.100   2.941   1.560 -0.9961  0.5910  1.0566
  656MOL0     C88486  10.153   3.030   1.445  0.6903 -0.1814  0.2708
  656MOL0     C88487  10.305   3.034   1.444 -0.6630 -0.3290  0.2109
  656MOL0     C88488  10.357   3.080   1.578 -0.4936  0.6081  0.7861
  656MOL0     C88489  10.382   3.126   1.684 -0.1158 -1.7503  0.7368
  656MOL0     C88490   9.776   2.794   1.852 -0.1714  0.3446 -0.0479
  656MOL0     C88491   9.656   2.791   1.923  0.1756 -0.1474 -0.2675
  656MOL0     C88492   9.668   2.726   2.056  0.4862  0.2402 -0.5971
  656MOL0     H88493   9.074   3.088   1.855 -2.2650  0.5247  0.4979
  656MOL0     H88494   8.855   3.000   1.847 -1.6418 -0.8919  0.0219
  656MOL0     H88495   8.793   2.563   1.848 -0.1038  1.2103 -0.8584
  656MOL0     H88496   8.775   2.684   1.973  2.6286  2.3049 -0.0627
  656MOL0     H88497   8.547   2.742   1.895  0.7845  1.1377 -2.0745
  656MOL0     H88498   8.563   2.569   1.941  2.1680  1.4694  2.8868
  656MOL0     H88499   8.590   2.517   1.692  1.1110  0.6125 -1.7803
  656MOL0     H88500   8.554   2.687   1.652  0.9007 -2.5264 -2.8409
  656MOL0     H88501   8.347   2.680   1.774 -0.4284  0.0564 -1.4249
  656MOL0     H88502   8.348   2.599   1.615 -2.3374  2.6700  0.4939
  656MOL0     H88503   8.425   2.386   1.765 -0.0694  0.4714 -2.1800
  656MOL0     H88504   8.349   2.473   1.896 -1.0272  0.5668 -0.0896
  656MOL0     H88505   8.130   2.495   1.748 -0.1422  0.3808 -1.9967
  656MOL0     H88506   8.202   2.376   1.640  0.3818  1.9010 -0.3374
  656MOL0     H88507   8.098   2.341   1.922 -0.4249 -1.8466  0.9166
  656MOL0     H88508   8.240   2.258   1.892 -0.5588  0.1843  0.2965
  656MOL0     H88509   7.971   2.289   1.750  0.6928  1.4914  3.1197
  656MOL0     H88510   8.080   2.180   1.672  0.0476 -2.4347  1.2102
  656MOL0     H88511   7.826   2.179   1.960 -0.8001  1.6418 -2.0155
  656MOL0     H88512   7.722   1.918   2.057  1.7392 -1.4623 -3.3864
  656MOL0     H88513   7.843   1.837   2.156 -2.2678  0.5597  2.0181
  656MOL0     H88514   7.800   2.139   2.187 -0.0521  0.6985  0.5155
  656MOL0     H88515   7.700   2.026   2.274  0.1874  0.0232  0.7923
  656MOL0     H88516   7.893   1.930   2.381  0.3093  0.1962  1.7958
  656MOL0     H88517   7.866   2.092   2.419  0.8807 -0.6856  0.7929
  656MOL0     H88518   8.081   1.978   2.230  0.5548 -0.8920  1.0995
  656MOL0     H88519   8.122   2.052   2.382  1.7130 -1.3561 -2.1093
  656MOL0     H88520   8.243   2.035   2.107  0.9710  0.3163  0.6210
  656MOL0     H88521   8.491   2.085   2.052  2.1378  0.6210 -0.5475
  656MOL0     H88522   8.900   2.240   2.139 -1.0242  0.0890  0.2310
  656MOL0     H88523   9.125   2.323   2.057 -0.3782  0.3219  0.1555
  656MOL0     H88524   9.289   2.396   1.958 -1.5674  2.0401 -0.4117
  656MOL0     H88525   9.287   2.244   1.856  2.8044  0.5062 -0.9961
  656MOL0     H88526   9.373   2.371   1.673 -3.7677  0.3893  0.3779
  656MOL0     H88527   9.368   2.521   1.759 -0.8203  0.1113 -5.6127
  656MOL0     H88528   9.556   2.429   1.912 -3.3894 -1.2036  0.9692
  656MOL0     H88529   9.556   2.280   1.822  0.6959  0.0741  2.2344
  656MOL0     H88530   9.598   2.561   1.710  0.8488  0.2875 -0.5053
  656MOL0     H88531   9.598   2.425   1.608  1.5073 -2.7296  1.5772
  656MOL0     H88532   9.819   2.337   1.717 -2.3183 -0.5073 -1.3139
  656MOL0     H88533   9.813   2.474   1.833 -0.6107  1.8626 -0.3744
  656MOL0     H88534   9.822   2.477   1.524 -0.9579 -3.0111  1.0581
  656MOL0     H88535   9.804   2.620   1.622  0.6148  1.2376  0.3710
  656MOL0     H88536   9.999   2.596   1.742  1.1705  0.7599 -0.6504
  656MOL0     H88537  10.033   2.613   1.574  1.5491  2.7720  2.4114
  656MOL0     H88538  10.059   2.356   1.742 -0.1657 -2.1911 -1.4864
  656MOL0     H88539  10.054   2.346   1.568 -0.9535 -0.3501 -0.4469
  656MOL0     H88540   8.945   2.387   1.673  2.5915 -0.1462  1.0980
  656MOL0     H88541   8.724   2.324   1.756  0.9148  0.2578 -0.0879
  656MOL0     H88542   8.422   2.470   2.229 -2.0545 -0.2120 -0.0798
  656MOL0     H88543   8.188   2.407   2.284 -1.2880 -1.0356 -1.0300
  656MOL0     H88544   9.011   2.613   1.793 -2.7801  0.3262  2.1999
  656MOL0     H88545   9.235   2.687   1.829 -0.2231 -0.4441  0.3387
  656MOL0     H88546   9.484   2.982   1.704 -1.9708  0.0698  2.3698
  656MOL0     H88547   9.702   3.000   1.604  0.9926 -0.5309 -0.8558
  656MOL0     H88548   9.925   3.063   1.598  3.5691  1.6476 -1.0063
  656MOL0     H88549   9.882   2.935   1.502 -2.6726 -0.6502  2.7779
  656MOL0     H88550  10.137   2.843   1.530  2.3683  1.6916  1.2349
  656MOL0     H88551  10.156   2.946   1.654  0.5565  0.1636  0.1928
  656MOL0     H88552  10.118   3.133   1.452 -0.2705 -0.4207 -0.8246
  656MOL0     H88553  10.123   2.992   1.347 -0.3312  0.6114  0.2600
  656MOL0     H88554  10.348   2.936   1.421  2.9192  0.9793  0.6099
  656MOL0     H88555  10.340   3.098   1.362 -1.2336  0.4530  0.5690
  656MOL0     H88556  10.406   3.164   1.781 -4.4589 -0.8576  1.6685
  656MOL0     H88557   9.869   2.745   1.878 -0.7561 -0.9606 -0.3520
  656MOL0     H88558   9.667   2.803   2.134 -0.4755  0.5848 -0.9358
  656MOL0     H88559   9.582   2.658   2.062  0.0969  0.8563  2.0969
  656MOL0     H88560   9.758   2.664   2.065  1.1133  1.0772 -1.0183
  657MOL0     O88561   5.172   7.492   6.276  0.1204  0.0998  0.1489
  657MOL0     C88562   5.177   7.558   6.376  0.5898 -0.2082 -0.0612
  657MOL0     O88563   5.289   7.577   6.448  0.0631 -0.4939 -0.8589
  657MOL0     C88564   5.392   7.483   6.448  0.7184 -1.2288  0.4892
  657MOL0     C88565   5.523   7.533   6.459 -0.3637  0.4103 -0.0840
  657MOL0     C88566   5.635   7.455   6.476 -0.3042 -1.0530 -0.1391
  657MOL0     C88567   5.618   7.324   6.460 -0.0132  0.6682 -0.4558
  657MOL0     O88568   5.738   7.257   6.482  0.3490  0.4748  0.5386
  657MOL0     C88569   5.742   7.125   6.439  0.0997 -0.1534 -0.4910
  657MOL0     C88570   5.779   7.126   6.295 -0.1817  0.4082  0.7118
  657MOL0     C88571   5.779   6.986   6.240  0.2354 -0.0964 -0.0288
  657MOL0     C88572   5.632   6.946   6.200  0.1902  0.2896 -0.0432
  657MOL0     C88573   5.620   6.802   6.162 -0.6898 -0.0757 -0.2953
  657MOL0     C88574   5.480   6.775   6.102 -0.5187 -0.2874 -0.2941
  657MOL0     C88575   5.459   6.634   6.062 -0.6316  0.7535 -0.5668
  657MOL0     C88576   5.368   6.558   6.170 -0.0077 -0.2876 -0.6529
  657MOL0     N88577   5.449   6.527   6.294  0.2760  0.8246 -0.3802
  657MOL0     C88578   5.575   6.461   6.304 -0.4099  0.3746  0.7625
  657MOL0     C88579   5.595   6.442   6.430  1.0265  0.0017 -1.1532
  657MOL0     C88580   5.713   6.373   6.487 -0.6632 -0.2781 -0.7108
  657MOL0     C88581   5.840   6.463   6.495 -0.1010 -1.4115  0.0099
  657MOL0     C88582   5.941   6.404   6.593  0.0477 -0.2603 -0.1854
  657MOL0     C88583   5.936   6.454   6.744 -1.0010  0.1601  0.8670
  657MOL0     O88584   6.009   6.370   6.829 -0.3326  0.4692  0.7324
  657MOL0     C88585   6.143   6.370   6.832 -0.2265  0.6312  0.2601
  657MOL0     C88586   6.200   6.267   6.896 -0.5728  0.1537 -0.4163
  657MOL0     C88587   6.336   6.252   6.902 -0.2758 -1.1802 -0.6312
  657MOL0     C88588   6.426   6.336   6.839 -0.7417 -0.4784 -0.3280
  657MOL0     C88589   6.567   6.310   6.848 -0.8128 -0.0152 -0.0056
  657MOL0     O88590   6.646   6.408   6.791  0.3034  0.4996 -0.3148
  657MOL0     C88591   6.781   6.387   6.790 -0.6182 -0.5949 -0.1214
  657MOL0     C88592   6.863   6.479   6.855  0.5381 -0.3295 -0.4550
  657MOL0     C88593   7.005   6.465   6.854  0.2322  0.0588  0.4979
  657MOL0     C88594   7.061   6.374   6.771  0.2497  1.1797  0.0188
  657MOL0     O88595   7.198   6.376   6.766 -0.5480  0.1749  0.1934
  657MOL0     C88596   7.266   6.324   6.653 -0.4506 -0.0024  0.6680
  657MOL0     C88597   7.412   6.343   6.672 -0.1529  0.5858 -0.0218
  657MOL0     C88598   7.476   6.284   6.542 -0.4119  1.2635  0.2922
  657MOL0     C88599   7.623   6.284   6.545 -0.0953  0.4856  0.0443
  657MOL0     C88600   7.689   6.243   6.408  0.2778 -0.9047  0.3479
  657MOL0     C88601   7.841   6.287   6.401  0.0387  0.0887 -0.1048
  657MOL0     C88602   7.905   6.197   6.502  0.2782  1.0853 -0.0252
  657MOL0     C88603   8.056   6.196   6.494 -0.8579 -0.0429  0.2655
  657MOL0    Cl88604   8.122   6.112   6.346 -0.0980 -0.1228  0.1904
  657MOL0     C88605   6.981   6.280   6.704 -0.8701  0.5066 -0.5106
  657MOL0     C88606   6.844   6.284   6.715 -0.5780  0.6922  0.0943
  657MOL0     O88607   6.608   6.217   6.920  0.5216  0.2995 -0.3074
  657MOL0     C88608   6.369   6.448   6.782  0.3552 -0.0172  0.8646
  657MOL0     C88609   6.226   6.464   6.775 -0.2785 -0.3619  0.5678
  657MOL0     N88610   5.497   6.505   6.507 -0.7849 -0.3585  0.5000
  657MOL0     N88611   5.414   6.554   6.425  0.2301 -0.8394 -0.1551
  657MOL0     C88612   5.492   7.272   6.436  0.4871  0.3726 -0.1195
  657MOL0     C88613   5.378   7.346   6.435 -0.8274 -0.2913 -0.5124
  657MOL0     C88614   5.051   7.619   6.434  0.0293 -0.1769  0.4099
  657MOL0     C88615   5.061   7.737   6.505  0.6433  1.0787 -0.3453
  657MOL0     C88616   4.946   7.803   6.550 -0.3179  0.1931  0.3766
  657MOL0     C88617   4.822   7.744   6.542  0.8773 -0.5553 -0.2888
  657MOL0     O88618   4.717   7.814   6.597 -0.4983  0.2588 -0.7330
  657MOL0     C88619   4.588   7.757   6.605 -0.0305 -0.2095  0.7220
  657MOL0     C88620   4.500   7.784   6.483  0.3856 -0.1844  0.2057
  657MOL0     C88621   4.353   7.800   6.530 -0.4668 -0.1273  0.1996
  657MOL0     C88622   4.286   7.668   6.589  0.5174 -0.0571  0.0402
  657MOL0     C88623   4.324   7.557   6.505  0.5911  0.7888 -0.5274
  657MOL0     C88624   4.366   7.458   6.436  0.2513  0.5234 -0.3940
  657MOL0     C88625   4.812   7.624   6.473  0.5331 -1.1813  0.4056
  657MOL0     C88626   4.923   7.564   6.410 -0.4740  0.1201 -0.0651
  657MOL0     C88627   4.890   7.433   6.339 -0.9374  0.7258 -0.1197
  657MOL0     H88628   5.538   7.640   6.474 -1.1831  0.3830  1.0713
  657MOL0     H88629   5.725   7.507   6.508 -1.6290  1.3432 -0.0855
  657MOL0     H88630   5.825   7.081   6.495 -2.0142 -1.9078  1.4866
  657MOL0     H88631   5.648   7.076   6.469 -0.8367  1.9227  0.1592
  657MOL0     H88632   5.880   7.159   6.272  1.5762 -4.0307  1.0059
  657MOL0     H88633   5.709   7.193   6.244 -2.1573 -0.0046  2.7375
  657MOL0     H88634   5.815   6.921   6.320 -0.9286  1.1489  1.5729
  657MOL0     H88635   5.843   6.979   6.152 -0.2520 -0.7447 -0.3416
  657MOL0     H88636   5.560   6.964   6.280  0.4046  1.8609 -0.1735
  657MOL0     H88637   5.609   7.008   6.112  1.0410 -2.1398 -2.1050
  657MOL0     H88638   5.693   6.794   6.082 -0.4776  1.1235 -0.2491
  657MOL0     H88639   5.648   6.744   6.250  3.0590  2.6584  0.5611
  657MOL0     H88640   5.402   6.797   6.175 -1.0282 -0.2938 -0.8226
  657MOL0     H88641   5.470   6.834   6.010 -1.6649 -2.3510 -1.5430
  657MOL0     H88642   5.555   6.584   6.051 -1.9629 -2.3282  0.7936
  657MOL0     H88643   5.400   6.631   5.971 -0.0751  0.7961 -0.9337
  657MOL0     H88644   5.277   6.613   6.192  1.4190  1.4311  1.3339
  657MOL0     H88645   5.329   6.464   6.131 -0.6228 -1.2854  2.1381
  657MOL0     H88646   5.644   6.438   6.223 -1.7878 -1.8475  0.1353
  657MOL0     H88647   5.674   6.341   6.584  0.9671  0.4437  0.2265
  657MOL0     H88648   5.738   6.282   6.432  0.5735  1.8592 -4.0156
  657MOL0     H88649   5.889   6.472   6.398 -1.1818 -3.4407 -0.7735
  657MOL0     H88650   5.819   6.560   6.541  1.1587 -2.7589  3.8811
  657MOL0     H88651   6.040   6.428   6.553 -0.8125 -0.6954 -2.7795
  657MOL0     H88652   5.928   6.295   6.592  0.1163 -0.2771  0.4647
  657MOL0     H88653   5.834   6.450   6.782 -1.5457  1.3081 -0.4082
  657MOL0     H88654   5.957   6.561   6.752 -1.0566  0.0986  1.8768
  657MOL0     H88655   6.129   6.205   6.950 -1.2420  0.4322 -0.9711
  657MOL0     H88656   6.373   6.178   6.972  1.0117 -2.0956 -2.2004
  657MOL0     H88657   6.821   6.556   6.919  2.2027 -0.8258  1.3419
  657MOL0     H88658   7.068   6.526   6.917 -0.4726 -1.2568  2.5857
  657MOL0     H88659   7.234   6.222   6.629 -0.2122  0.4361 -1.7724
  657MOL0     H88660   7.242   6.376   6.560 -0.5887 -3.0369 -1.1122
  657MOL0     H88661   7.439   6.449   6.673  0.6515  0.5701  5.0754
  657MOL0     H88662   7.454   6.289   6.758 -1.6784 -0.4296  0.1168
  657MOL0     H88663   7.435   6.184   6.527  0.4112  1.2347 -2.2054
  657MOL0     H88664   7.443   6.343   6.457 -0.1703  0.4427 -0.3828
  657MOL0     H88665   7.656   6.208   6.617  2.2194  0.2138 -1.1782
  657MOL0     H88666   7.655   6.383   6.578 -3.8657  0.8596  3.3692
  657MOL0     H88667   7.632   6.298   6.333  0.5188 -2.4674 -1.0435
  657MOL0     H88668   7.683   6.135   6.391  0.9176 -1.1153  1.3396
  657MOL0     H88669   7.882   6.265   6.302 -1.3519  0.5798 -0.8235
  657MOL0     H88670   7.861   6.393   6.419 -1.6556  0.0871  2.1947
  657MOL0     H88671   7.881   6.091   6.500  1.2979  0.8383  0.1087
  657MOL0     H88672   7.876   6.224   6.604  2.3294 -0.1043  0.9300
  657MOL0     H88673   8.099   6.296   6.503 -2.8713  0.7994  1.0987
  657MOL0     H88674   8.094   6.154   6.587  2.3916  0.8037 -0.5390
  657MOL0     H88675   7.025   6.212   6.632  0.7618 -1.6398  2.2609
  657MOL0     H88676   6.795   6.206   6.659 -1.9800 -0.9324  3.2906
  657MOL0     H88677   6.426   6.526   6.733  0.5969  1.7301  3.7420
  657MOL0     H88678   6.185   6.553   6.728 -2.3414 -0.4194  2.0892
  657MOL0     H88679   5.485   7.164   6.427 -0.3710  0.3315  0.8319
  657MOL0     H88680   5.284   7.294   6.447 -1.3123  0.3264 -1.4357
  657MOL0     H88681   5.155   7.790   6.516  0.9171  1.7169 -4.2006
  657MOL0     H88682   4.960   7.900   6.596 -1.1544  1.4139 -1.8229
  657MOL0     H88683   4.553   7.801   6.699 -0.2609  2.0882 -0.3729
  657MOL0     H88684   4.586   7.652   6.635 -1.4473 -0.5261 -0.3427
  657MOL0     H88685   4.519   7.705   6.409  0.0392 -0.5808  0.5299
  657MOL0     H88686   4.535   7.877   6.439  4.0643 -0.5134  1.9886
  657MOL0     H88687   4.290   7.832   6.446  1.2093  0.0910 -1.0219
  657MOL0     H88688   4.342   7.887   6.596 -0.4156  0.8573 -1.0439
  657MOL0     H88689   4.340   7.654   6.683  0.4046  0.0898  0.1277
  657MOL0     H88690   4.178   7.684   6.593 -0.0004 -2.5975 -1.6015
  657MOL0     H88691   4.380   7.382   6.361 -0.8016 -0.2525  0.1704
  657MOL0     H88692   4.709   7.589   6.465 -1.4608  3.8764  0.2584
  657MOL0     H88693   4.902   7.432   6.231 -3.2953 -0.3409 -0.4235
  657MOL0     H88694   4.951   7.362   6.396 -1.8583  1.7386  2.3073
  657MOL0     H88695   4.787   7.398   6.344 -0.6311 -0.7011 -2.4963
  658MOL0     O88696   2.279   4.592   0.202 -0.6258 -0.3686  0.1492
  658MOL0     C88697   2.369   4.510   0.186  0.2415 -0.4657  0.7145
  658MOL0     O88698   2.486   4.534   0.109  0.3886  0.5575  0.0809
  658MOL0     C88699   2.509   4.660   0.077 -0.3400  0.1201 -0.3057
  658MOL0     C88700   2.569   4.742   0.177 -0.3541  0.1978  0.4278
  658MOL0     C88701   2.606   4.879   0.152  1.3133  0.9865 -0.3729
  658MOL0     C88702   2.561   4.938   0.032  0.1077 -0.4451 -0.2549
  658MOL0     O88703   2.598   5.063   0.012 -0.7589 -0.9921  0.2068
  658MOL0     C88704   2.540   5.146  -0.095  0.3137 -0.6891  0.5682
  658MOL0     C88705   2.616   5.279  -0.083 -0.7032  0.1419  0.3785
  658MOL0     C88706   2.771   5.266  -0.101  0.5254  0.1012  0.0896
  658MOL0     C88707   2.836   5.408  -0.090 -0.2886  0.2356 -0.4150
  658MOL0     C88708   2.988   5.389  -0.107  0.4926  0.9243  0.6630
  658MOL0     C88709   3.056   5.506  -0.068 -0.2317 -0.5335  1.1286
  658MOL0     C88710   3.185   5.521  -0.157  1.1832 -0.6128  1.1920
  658MOL0     C88711   3.281   5.640  -0.111  0.1264  0.4355  0.0679
  658MOL0     N88712   3.371   5.664  -0.222 -0.0802  0.1287  0.5674
  658MOL0     C88713   3.453   5.569  -0.286 -0.2924 -0.1027 -0.1423
  658MOL0     C88714   3.499   5.621  -0.400  0.6990  1.0177  0.6592
  658MOL0     C88715   3.595   5.559  -0.504  0.1560 -0.4249  0.6237
  658MOL0     C88716   3.734   5.641  -0.510 -0.1145  0.0021 -0.2954
  658MOL0     C88717   3.823   5.621  -0.634  0.4941  0.3836 -0.8149
  658MOL0     C88718   3.974   5.657  -0.620 -0.9295 -0.7263 -0.1122
  658MOL0     O88719   4.027   5.723  -0.743  0.0161  0.5936  0.1737
  658MOL0     C88720   4.165   5.740  -0.750 -0.3044 -0.0173 -0.2338
  658MOL0     C88721   4.262   5.691  -0.667 -0.6111 -0.6449 -0.1546
  658MOL0     C88722   4.400   5.720  -0.692  0.2638 -0.1644 -0.3559
  658MOL0     C88723   4.432   5.795  -0.804  0.5667  0.1657 -0.2636
  658MOL0     C88724   4.567   5.825  -0.834  0.5344 -0.3128 -0.4775
  658MOL0     O88725   4.593   5.953  -0.864  0.0657  0.3469  0.3018
  658MOL0     C88726   4.705   5.998  -0.927 -0.5493  0.5939  0.2707
  658MOL0     C88727   4.707   6.061  -1.058  0.1527 -0.1541 -0.5376
  658MOL0     C88728   4.824   6.099  -1.130 -0.3348  0.5622  0.3362
  658MOL0     C88729   4.947   6.069  -1.072  0.5421  0.1459  0.2639
  658MOL0     O88730   5.074   6.102  -1.120  0.1265 -0.3989  0.0222
  658MOL0     C88731   5.093   6.248  -1.138 -0.2073  0.1389 -0.4899
  658MOL0     C88732   5.106   6.318  -0.998  0.0173 -0.5582  0.4347
  658MOL0     C88733   4.971   6.385  -0.959  0.1863  0.6865 -0.7175
  658MOL0     C88734   4.955   6.394  -0.802 -0.0798 -0.5773  0.6342
  658MOL0     C88735   4.871   6.515  -0.746  0.3344  1.3143  0.2430
  658MOL0     C88736   4.729   6.514  -0.798 -0.1130 -0.7474 -0.2037
  658MOL0     C88737   4.642   6.386  -0.787 -1.0420 -0.4107  0.4752
  658MOL0     C88738   4.490   6.396  -0.758 -0.3629  0.0199 -0.6270
  658MOL0    Cl88739   4.421   6.549  -0.822 -0.0184 -0.2322  0.1123
  658MOL0     C88740   4.947   5.988  -0.959 -0.2542 -0.5797  0.2770
  658MOL0     C88741   4.830   5.962  -0.892 -0.1508  0.1161 -0.7039
  658MOL0     O88742   4.652   5.742  -0.798  0.4099 -1.0459  0.0646
  658MOL0     C88743   4.324   5.841  -0.889 -0.7222 -0.3454 -0.7182
  658MOL0     C88744   4.199   5.819  -0.852  0.5276  0.4438  0.3010
  658MOL0     N88745   3.435   5.742  -0.413  0.5787  0.3920  0.3717
  658MOL0     N88746   3.357   5.770  -0.309  0.2549 -0.0950  0.7912
  658MOL0     C88747   2.505   4.852  -0.064  0.3861 -0.6127 -0.3949
  658MOL0     C88748   2.472   4.721  -0.038 -0.9921  0.1723 -0.6679
  658MOL0     C88749   2.341   4.375   0.250 -0.6015 -0.8597 -0.1859
  658MOL0     C88750   2.382   4.270   0.176 -0.7038 -0.2707  0.6100
  658MOL0     C88751   2.352   4.142   0.224  0.2782  0.3090  0.4644
  658MOL0     C88752   2.287   4.127   0.346 -0.2438  0.1810  0.2760
  658MOL0     O88753   2.251   4.001   0.374 -0.5159  0.7306 -0.2974
  658MOL0     C88754   2.126   3.985   0.324  0.2551  0.9711  0.1814
  658MOL0     C88755   2.048   3.882   0.408 -0.2429  0.5615  1.0360
  658MOL0     C88756   2.047   3.924   0.554  0.1343  0.1386  0.0602
  658MOL0     C88757   1.973   3.816   0.644  0.2736  0.9959 -0.0754
  658MOL0     C88758   2.036   3.690   0.654 -0.1079 -0.3955 -0.0672
  658MOL0     C88759   2.100   3.584   0.663 -0.6805  0.0835  0.1399
  658MOL0     C88760   2.248   4.230   0.426  0.6498  0.6089 -0.2069
  658MOL0     C88761   2.259   4.356   0.376 -0.3617 -1.2043  0.2421
  658MOL0     C88762   2.199   4.477   0.458  0.2208 -0.2805 -0.5709
  658MOL0     H88763   2.585   4.696   0.275  0.9390 -1.5384 -0.5256
  658MOL0     H88764   2.643   4.940   0.234  3.7913 -0.2866 -0.4737
  658MOL0     H88765   2.559   5.093  -0.189 -0.6292  0.1179 -0.0977
  658MOL0     H88766   2.433   5.154  -0.073  0.6079 -0.5601  2.0564
  658MOL0     H88767   2.584   5.327   0.010 -1.0048  2.1498 -0.7055
  658MOL0     H88768   2.577   5.352  -0.155  0.6414  0.5483  0.0502
  658MOL0     H88769   2.787   5.225  -0.201 -1.0659 -2.1289  0.6637
  658MOL0     H88770   2.800   5.203  -0.016  0.0756 -1.6407 -0.9806
  658MOL0     H88771   2.792   5.476  -0.164  0.1014  2.3389  1.1737
  658MOL0     H88772   2.816   5.452   0.008  0.9749  0.4425 -0.2391
  658MOL0     H88773   3.032   5.307  -0.051 -1.2162  0.2697  1.1027
  658MOL0     H88774   3.006   5.384  -0.215 -0.7367  1.3335  0.4187
  658MOL0     H88775   2.992   5.594  -0.076 -1.4364 -1.2763  2.1702
  658MOL0     H88776   3.079   5.507   0.039  0.9499 -2.3365  0.9325
  658MOL0     H88777   3.148   5.546  -0.257  1.3256 -1.4596  0.9190
  658MOL0     H88778   3.235   5.424  -0.161 -1.9364 -2.3099 -1.0699
  658MOL0     H88779   3.218   5.726  -0.087  1.4385  2.5631 -3.3343
  658MOL0     H88780   3.337   5.617  -0.020 -1.9488 -0.4690  1.1777
  658MOL0     H88781   3.500   5.485  -0.235 -1.5502 -0.1127  1.0654
  658MOL0     H88782   3.620   5.455  -0.483 -0.0776 -0.2247  1.9539
  658MOL0     H88783   3.543   5.553  -0.600  2.8458  0.5867 -1.0078
  658MOL0     H88784   3.698   5.743  -0.501 -3.3295 -1.1173  0.9863
  658MOL0     H88785   3.783   5.607  -0.418 -0.0931 -3.2343 -1.3594
  658MOL0     H88786   3.771   5.681  -0.709 -0.7768 -0.0674 -0.3109
  658MOL0     H88787   3.817   5.516  -0.662 -1.1283  0.2537 -0.0837
  658MOL0     H88788   4.029   5.566  -0.593 -0.7587 -0.1555  1.5874
  658MOL0     H88789   3.992   5.718  -0.530  2.1987 -2.3124  0.4904
  658MOL0     H88790   4.258   5.640  -0.571  0.5150  1.4556  1.0645
  658MOL0     H88791   4.478   5.677  -0.629  3.4579 -1.3291 -4.6233
  658MOL0     H88792   4.610   6.090  -1.097 -1.5896 -2.7832  1.5054
  658MOL0     H88793   4.818   6.157  -1.222 -0.0591  1.1871  0.7072
  658MOL0     H88794   5.192   6.252  -1.185 -0.3519 -1.5550 -0.9901
  658MOL0     H88795   5.027   6.297  -1.210  1.7286  1.1224 -1.6864
  658MOL0     H88796   5.141   6.240  -0.929  0.3987  3.3175  5.1914
  658MOL0     H88797   5.188   6.388  -0.985  1.7414 -2.3341 -0.4557
  658MOL0     H88798   4.969   6.485  -1.003 -0.8137  1.6467  1.3651
  658MOL0     H88799   4.886   6.329  -0.998  0.9242 -0.8521 -0.2084
  658MOL0     H88800   5.056   6.411  -0.763 -0.5247  3.4292  0.4527
  658MOL0     H88801   4.907   6.298  -0.778  1.0940 -0.9253  1.6678
  658MOL0     H88802   4.919   6.608  -0.777  0.6225  1.7953  2.0293
  658MOL0     H88803   4.881   6.511  -0.637  1.0533 -0.9961  0.1565
  658MOL0     H88804   4.672   6.604  -0.776  1.8590  0.0299  2.1403
  658MOL0     H88805   4.744   6.523  -0.906  0.4521  0.0658 -0.0670
  658MOL0     H88806   4.682   6.322  -0.707 -1.4009  1.8507  2.5717
  658MOL0     H88807   4.655   6.342  -0.886  1.1530 -0.3465  0.6835
  658MOL0     H88808   4.438   6.308  -0.798 -0.1272  0.2891 -1.5569
  658MOL0     H88809   4.481   6.391  -0.649 -1.3995  0.5559 -0.6775
  658MOL0     H88810   5.036   5.941  -0.918  0.7674 -0.8889 -2.1310
  658MOL0     H88811   4.838   5.890  -0.812 -0.6189  2.9347  2.0445
  658MOL0     H88812   4.338   5.886  -0.986 -0.8431  0.2355 -0.4675
  658MOL0     H88813   4.123   5.849  -0.923  1.3087  0.9114 -0.3561
  658MOL0     H88814   2.486   4.879  -0.168 -2.9152 -4.0187 -0.9103
  658MOL0     H88815   2.438   4.659  -0.120 -0.4242 -2.0510  0.7068
  658MOL0     H88816   2.437   4.295   0.087  2.5457  2.3243  3.1123
  658MOL0     H88817   2.381   4.052   0.171  0.5809  0.1666  0.8641
  658MOL0     H88818   2.137   3.940   0.225  1.9667  0.4681  0.5702
  658MOL0     H88819   2.064   4.075   0.316 -1.6968 -0.3385 -0.2905
  658MOL0     H88820   2.074   3.779   0.385  3.2328  1.6508 -0.6103
  658MOL0     H88821   1.950   3.890   0.360  1.2311 -1.5336 -2.7540
  658MOL0     H88822   1.992   4.018   0.551 -1.7303 -0.9145 -0.6416
  658MOL0     H88823   2.147   3.936   0.597 -0.7098 -0.0871  2.2009
  658MOL0     H88824   1.956   3.854   0.745  0.7539  0.6260  0.1481
  658MOL0     H88825   1.872   3.798   0.607  0.7317 -0.8774 -0.5141
  658MOL0     H88826   2.147   3.492   0.690  2.0032  2.0616  3.0513
  658MOL0     H88827   2.178   4.225   0.508 -1.1368  2.1185 -1.5418
  658MOL0     H88828   2.097   4.497   0.423 -1.3815 -3.1650  1.9487
  658MOL0     H88829   2.193   4.436   0.559 -1.0321 -2.4511 -1.4558
  658MOL0     H88830   2.266   4.563   0.450 -0.3563  0.4522  1.7065
  659MOL0     O88831   2.678   5.706   6.794  0.0070 -0.0191  0.0076
  659MOL0     C88832   2.654   5.778   6.695 -0.4737  0.5291  0.2077
  659MOL0     O88833   2.761   5.853   6.640  0.7741  0.0178  0.3100
  659MOL0     C88834   2.873   5.872   6.712 -0.3039  0.3434 -0.4874
  659MOL0     C88835   2.996   5.878   6.650 -0.2686 -0.4832  0.1998
  659MOL0     C88836   3.115   5.923   6.718  0.3414  0.3367  0.9707
  659MOL0     C88837   3.114   5.944   6.859 -0.7518 -0.0370  1.0270
  659MOL0     O88838   3.234   5.957   6.922 -0.3800  0.0972  0.0688
  659MOL0     C88839   3.240   5.982   7.062  0.2574 -0.0252  0.3370
  659MOL0     C88840   3.368   5.934   7.126  0.7152  0.7081 -0.6398
  659MOL0     C88841   3.372   5.970   7.277 -0.0280  0.4113  0.1198
  659MOL0     C88842   3.515   5.973   7.343 -0.0617  0.1096  0.2911
  659MOL0     C88843   3.588   6.106   7.333  0.0492 -0.3797  0.5774
  659MOL0     C88844   3.707   6.117   7.435 -0.1530 -1.3524 -0.3675
  659MOL0     C88845   3.792   6.237   7.405 -0.1081  0.5569 -0.0977
  659MOL0     C88846   3.724   6.377   7.432 -1.0234  0.4788 -0.1033
  659MOL0     N88847   3.814   6.480   7.367 -0.6475  0.1893  0.3667
  659MOL0     C88848   3.938   6.524   7.406 -0.1265  0.1781 -0.0347
  659MOL0     C88849   3.985   6.602   7.308  0.4453 -1.3793 -0.3307
  659MOL0     C88850   4.111   6.675   7.293  0.0585 -0.6125  0.6774
  659MOL0     C88851   4.135   6.772   7.417 -0.2409 -0.2003  0.0695
  659MOL0     C88852   4.279   6.831   7.406 -0.2847 -0.9353  0.1115
  659MOL0     C88853   4.314   6.932   7.520 -0.5786  0.2607 -0.9200
  659MOL0     O88854   4.306   6.870   7.653  0.6591 -0.2868  0.1975
  659MOL0     C88855   4.420   6.828   7.712 -0.7947  0.2412 -0.6135
  659MOL0     C88856   4.419   6.830   7.854 -0.5239  0.0017  0.7291
  659MOL0     C88857   4.540   6.803   7.923  0.2073 -0.0348 -0.1764
  659MOL0     C88858   4.654   6.753   7.851 -0.1440 -0.5032  0.5527
  659MOL0     C88859   4.777   6.711   7.930  1.4441 -0.2629 -0.5085
  659MOL0     O88860   4.869   6.643   7.873  0.1139  0.3028 -0.1214
  659MOL0     C88861   4.988   6.606   7.934 -1.3189  0.2002 -0.0837
  659MOL0     C88862   5.069   6.501   7.881  0.0213 -0.6160 -0.6005
  659MOL0     C88863   5.197   6.461   7.930  0.1258  0.6047  0.4553
  659MOL0     C88864   5.259   6.538   8.024 -0.0542  0.6212 -0.7520
  659MOL0     O88865   5.389   6.496   8.050  0.4008  0.1998 -0.1989
  659MOL0     C88866   5.476   6.573   8.135  0.1112  0.0223  0.2307
  659MOL0     C88867   5.609   6.503   8.168 -0.3970  0.3213 -0.3860
  659MOL0     C88868   5.686   6.462   8.031 -0.8284 -0.1304  0.2596
  659MOL0     C88869   5.818   6.401   8.067  0.5596 -0.3130  0.6974
  659MOL0     C88870   5.895   6.321   7.954  0.2150 -0.3853 -0.3334
  659MOL0     C88871   5.960   6.413   7.845 -0.1838  0.0549  0.0856
  659MOL0     C88872   6.033   6.538   7.901 -0.3560  0.0964  0.0361
  659MOL0     C88873   6.096   6.611   7.786  0.4835  0.0938  0.2340
  659MOL0    Cl88874   6.190   6.754   7.860 -0.4640  0.2850  0.4075
  659MOL0     C88875   5.184   6.653   8.078 -0.1624 -1.0672 -0.2842
  659MOL0     C88876   5.055   6.688   8.032 -0.0494  0.0902  1.0427
  659MOL0     O88877   4.767   6.752   8.044 -0.6531 -0.7655  0.1532
  659MOL0     C88878   4.647   6.737   7.709 -1.0034  0.0071 -0.8784
  659MOL0     C88879   4.533   6.780   7.649  1.1524  0.9553 -0.6442
  659MOL0     N88880   3.883   6.605   7.213 -0.2829  0.2469  0.2985
  659MOL0     N88881   3.786   6.525   7.243 -0.4497 -0.2677  0.0121
  659MOL0     C88882   2.987   5.938   6.922  0.0416  1.1627  0.7921
  659MOL0     C88883   2.867   5.911   6.853 -0.7068  0.0433 -0.6626
  659MOL0     C88884   2.523   5.771   6.630 -0.1222 -1.0593 -0.4624
  659MOL0     C88885   2.517   5.767   6.495  1.1185 -0.1153  0.3340
  659MOL0     C88886   2.394   5.764   6.424  0.4472 -0.0076 -0.0746
  659MOL0     C88887   2.271   5.735   6.499 -0.3238  0.0313  0.0375
  659MOL0     O88888   2.148   5.699   6.446 -0.1974  0.2858 -0.1363
  659MOL0     C88889   2.142   5.654   6.314  0.2288  0.0818 -0.1495
  659MOL0     C88890   2.008   5.600   6.275 -0.3885  0.8673  1.0012
  659MOL0     C88891   1.891   5.698   6.261  0.5999 -1.1880 -0.0053
  659MOL0     C88892   1.853   5.746   6.402 -1.2396 -0.3617 -0.8570
  659MOL0     C88893   1.713   5.803   6.398  0.4794  0.0675 -0.7765
  659MOL0     C88894   1.596   5.841   6.408 -0.1297  0.1064  0.4375
  659MOL0     C88895   2.277   5.743   6.636 -0.3003 -0.3439 -0.0456
  659MOL0     C88896   2.399   5.765   6.703  0.3947  0.5735  0.1403
  659MOL0     C88897   2.399   5.793   6.852  0.0235 -0.3433  0.3938
  659MOL0     H88898   3.017   5.863   6.544  1.3958  0.4182  0.3648
  659MOL0     H88899   3.205   5.927   6.657 -0.1539 -2.0375 -0.0095
  659MOL0     H88900   3.214   6.088   7.069  0.4647  0.2569 -2.2798
  659MOL0     H88901   3.167   5.925   7.120  2.2825 -1.4184  1.6467
  659MOL0     H88902   3.447   5.981   7.067  1.3695 -0.2679 -0.5707
  659MOL0     H88903   3.393   5.829   7.108 -0.2778 -0.2080  2.6513
  659MOL0     H88904   3.310   5.908   7.343  1.2752  1.1465  2.1482
  659MOL0     H88905   3.322   6.064   7.304  2.9784  1.6091  2.0965
  659MOL0     H88906   3.503   5.963   7.451 -1.5027  1.5608  0.3009
  659MOL0     H88907   3.576   5.889   7.308 -0.2241 -0.0393  0.3726
  659MOL0     H88908   3.626   6.112   7.230 -3.1492  0.3002 -0.6721
  659MOL0     H88909   3.517   6.188   7.347 -0.3978 -0.4038 -1.3063
  659MOL0     H88910   3.665   6.111   7.535 -0.2986 -4.1947 -0.5244
  659MOL0     H88911   3.771   6.029   7.438 -0.4270 -1.5807  3.5616
  659MOL0     H88912   3.818   6.234   7.299  0.8459 -0.4355  0.1520
  659MOL0     H88913   3.887   6.243   7.459 -0.8904  5.0494  1.2145
  659MOL0     H88914   3.629   6.388   7.378 -2.4431  1.6275  2.4312
  659MOL0     H88915   3.706   6.404   7.536 -2.4135  1.2501 -0.5150
  659MOL0     H88916   3.994   6.500   7.496 -0.4251  0.9908  0.3712
  659MOL0     H88917   4.199   6.610   7.281  2.2016  2.0728  1.0046
  659MOL0     H88918   4.115   6.739   7.204  2.6525 -2.2930 -0.5586
  659MOL0     H88919   4.057   6.849   7.413 -0.2198 -0.0194  2.2726
  659MOL0     H88920   4.126   6.725   7.515 -0.2387 -0.2879  0.0278
  659MOL0     H88921   4.296   6.894   7.318 -1.2194 -0.5326  0.2067
  659MOL0     H88922   4.358   6.756   7.396  4.0713  3.1502 -0.0756
  659MOL0     H88923   4.254   7.023   7.527 -1.3864 -0.3256 -0.0547
  659MOL0     H88924   4.418   6.966   7.510  0.2380 -1.8942 -0.3670
  659MOL0     H88925   4.324   6.852   7.902  1.1380  1.1966  3.6852
  659MOL0     H88926   4.544   6.816   8.030 -1.0210  2.6630 -0.3732
  659MOL0     H88927   5.010   6.459   7.801 -0.7397  0.5215 -0.6579
  659MOL0     H88928   5.256   6.385   7.880  1.0721  1.0251  0.9094
  659MOL0     H88929   5.504   6.656   8.069 -1.9257  0.6395  0.0749
  659MOL0     H88930   5.422   6.607   8.223  0.2120  0.7293  0.0263
  659MOL0     H88931   5.671   6.568   8.230  2.5231 -2.1533 -0.4774
  659MOL0     H88932   5.570   6.417   8.223 -2.3045  2.0064  1.0513
  659MOL0     H88933   5.625   6.395   7.969 -0.0351  0.6442 -1.3951
  659MOL0     H88934   5.707   6.547   7.967 -0.2325 -1.6344 -1.6247
  659MOL0     H88935   5.795   6.326   8.142 -0.5034  0.4013  1.1006
  659MOL0     H88936   5.890   6.470   8.112  3.1077 -1.7297 -0.9329
  659MOL0     H88937   5.828   6.251   7.902 -3.3243  1.9038  0.7785
  659MOL0     H88938   5.983   6.267   7.990  0.1836 -0.1368  0.1192
  659MOL0     H88939   6.036   6.351   7.797 -1.4678 -1.3650 -0.1634
  659MOL0     H88940   5.887   6.442   7.770  1.4144  1.4604 -1.0077
  659MOL0     H88941   6.114   6.502   7.966 -0.7400  0.2267  0.5960
  659MOL0     H88942   5.965   6.597   7.963 -1.8113 -0.8597 -0.5888
  659MOL0     H88943   6.162   6.551   7.724 -0.7660 -0.4327 -0.6320
  659MOL0     H88944   6.019   6.647   7.717 -0.4115 -0.7861  0.7537
  659MOL0     H88945   5.237   6.720   8.144  2.2251  0.1303 -3.2180
  659MOL0     H88946   5.004   6.779   8.064 -6.0135 -1.6546 -1.9918
  659MOL0     H88947   4.734   6.695   7.661  2.2462  3.3528  1.5125
  659MOL0     H88948   4.538   6.763   7.542  3.2468  1.3566 -0.6509
  659MOL0     H88949   2.969   5.959   7.027 -2.0462  0.4920  0.6103
  659MOL0     H88950   2.770   5.926   6.900 -1.0258 -0.2946 -1.2024
  659MOL0     H88951   2.609   5.756   6.439  1.0607  1.2339 -0.0633
  659MOL0     H88952   2.404   5.783   6.318  2.0650  0.7233  0.1743
  659MOL0     H88953   2.225   5.582   6.308  0.5415  0.2958  1.2318
  659MOL0     H88954   2.174   5.734   6.247  1.4433 -1.2435 -1.2415
  659MOL0     H88955   1.980   5.522   6.346 -1.5499 -1.7932 -2.1140
  659MOL0     H88956   2.019   5.554   6.176  0.3445  0.5785  1.2058
  659MOL0     H88957   1.808   5.662   6.200  0.8278  0.0394 -1.0760
  659MOL0     H88958   1.921   5.791   6.212 -2.7694  0.1239  0.1408
  659MOL0     H88959   1.849   5.657   6.466 -1.2871 -1.7275 -2.6768
  659MOL0     H88960   1.918   5.825   6.441 -0.5786  1.0273 -4.3834
  659MOL0     H88961   1.493   5.869   6.398 -0.3767 -1.2989 -1.6503
  659MOL0     H88962   2.179   5.737   6.682 -1.0554 -0.7905 -1.6276
  659MOL0     H88963   2.296   5.815   6.881  0.2538  1.3813  0.0024
  659MOL0     H88964   2.451   5.716   6.911  1.0575  1.0668  1.4088
  659MOL0     H88965   2.456   5.885   6.872 -0.0130  0.5281 -3.0184
  660MOL0     O88966   0.448   2.651   2.213  1.0587 -0.2589  0.2486
  660MOL0     C88967   0.439   2.527   2.211  0.2314 -0.4325 -0.2417
  660MOL0     O88968   0.516   2.447   2.278 -0.6953 -0.2374  0.4549
  660MOL0     C88969   0.629   2.487   2.333  0.1511 -0.6512 -0.2597
  660MOL0     C88970   0.662   2.429   2.456 -0.4778 -0.7964 -0.0133
  660MOL0     C88971   0.780   2.469   2.524 -0.3109 -0.7540 -0.3490
  660MOL0     C88972   0.854   2.575   2.472 -0.7215 -0.2127  0.7401
  660MOL0     O88973   0.951   2.623   2.554 -0.7273  0.3503  0.0035
  660MOL0     C88974   1.074   2.680   2.495  0.3784 -0.6515 -0.7944
  660MOL0     C88975   1.172   2.571   2.475  0.7261  0.2931  0.3158
  660MOL0     C88976   1.317   2.622   2.490  0.6524  0.1141  0.1640
  660MOL0     C88977   1.424   2.512   2.489  0.2556  0.1759 -0.6037
  660MOL0     C88978   1.561   2.578   2.474  0.0159  0.0212 -0.0530
  660MOL0     C88979   1.669   2.470   2.485  0.6587  0.4582 -0.7958
  660MOL0     C88980   1.795   2.522   2.414  0.7897 -0.7681 -0.1250
  660MOL0     C88981   1.922   2.438   2.438 -0.5745 -0.4808  0.2611
  660MOL0     N88982   2.044   2.515   2.434  0.0412  0.8167 -0.2745
  660MOL0     C88983   2.066   2.598   2.327 -0.1428 -1.1232  0.7602
  660MOL0     C88984   2.198   2.629   2.340 -0.3690 -0.4894 -0.3383
  660MOL0     C88985   2.268   2.744   2.270 -0.7190  0.1488  0.0527
  660MOL0     C88986   2.427   2.737   2.257 -0.4357  0.6796 -0.2234
  660MOL0     C88987   2.486   2.867   2.206 -0.1618  0.0085 -0.2241
  660MOL0     C88988   2.631   2.853   2.175 -0.2477  0.7360 -0.0759
  660MOL0     O88989   2.710   2.861   2.294 -0.3542  0.1720 -0.1722
  660MOL0     C88990   2.838   2.806   2.298 -0.2160  0.1006  0.0182
  660MOL0     C88991   2.921   2.784   2.187  0.9018  0.1489 -0.0831
  660MOL0     C88992   3.051   2.740   2.203 -0.4345 -0.1995  0.5392
  660MOL0     C88993   3.106   2.708   2.324 -0.5132 -0.5537  0.3361
  660MOL0     C88994   3.239   2.655   2.346  0.1627 -0.2339 -0.8018
  660MOL0     O88995   3.294   2.593   2.233  0.6427 -0.5745  0.0898
  660MOL0     C88996   3.425   2.545   2.236 -0.3602  0.6114  0.4381
  660MOL0     C88997   3.531   2.618   2.277  0.6835 -0.9146  0.2024
  660MOL0     C88998   3.664   2.566   2.275 -0.1827  0.4901 -1.0016
  660MOL0     C88999   3.691   2.431   2.236  0.5293  0.1147 -0.0177
  660MOL0     O89000   3.817   2.387   2.226  0.6414 -0.2477 -0.2843
  660MOL0     C89001   3.850   2.248   2.206 -0.4947 -0.4919 -0.1620
  660MOL0     C89002   4.008   2.259   2.172  0.4916 -0.0848  0.6037
  660MOL0     C89003   4.025   2.286   2.025 -0.2842  0.7134  0.0970
  660MOL0     C89004   4.179   2.316   1.999  0.0412 -0.3555 -0.4289
  660MOL0     C89005   4.257   2.186   1.979 -0.5046 -0.4280 -0.6055
  660MOL0     C89006   4.404   2.218   1.961  0.8933  0.0428  0.3135
  660MOL0     C89007   4.471   2.082   1.924 -0.1818  0.6727  0.4591
  660MOL0     C89008   4.600   2.100   1.850  0.1174 -0.1973  0.4692
  660MOL0    Cl89009   4.698   1.955   1.803  0.3213  0.0262  0.1088
  660MOL0     C89010   3.575   2.356   2.202 -0.4898 -0.2961  0.0086
  660MOL0     C89011   3.444   2.413   2.203  0.3900  0.3432 -0.9901
  660MOL0     O89012   3.295   2.662   2.455  0.5973 -0.3195  0.0344
  660MOL0     C89013   3.022   2.720   2.434  0.9027  0.0939 -0.2261
  660MOL0     C89014   2.890   2.772   2.423 -0.3094 -0.0462  0.0722
  660MOL0     N89015   2.255   2.554   2.440  0.9130 -0.0068  0.7492
  660MOL0     N89016   2.157   2.485   2.497 -0.0512 -0.4344  1.0193
  660MOL0     C89017   0.826   2.627   2.345 -0.0416  0.7937  0.3519
  660MOL0     C89018   0.709   2.589   2.273 -0.4962  0.6910 -0.3480
  660MOL0     C89019   0.343   2.454   2.124 -0.5317  0.1103  0.7156
  660MOL0     C89020   0.370   2.316   2.104 -0.2400 -0.6796  0.1053
  660MOL0     C89021   0.284   2.231   2.048 -0.2329  0.7489 -0.2562
  660MOL0     C89022   0.156   2.283   2.020  0.1454 -0.4713  0.1765
  660MOL0     O89023   0.056   2.211   1.963 -0.1527 -0.0073  0.6691
  660MOL0     C89024   0.051   2.065   1.968 -0.0925  0.0846 -0.1019
  660MOL0     C89025  -0.086   2.006   1.992 -0.7999 -0.0823 -0.3069
  660MOL0     C89026  -0.060   1.857   2.021 -0.7056 -0.0859  0.3061
  660MOL0     C89027  -0.202   1.791   2.042 -0.3296 -0.2653  0.8406
  660MOL0     C89028  -0.198   1.649   2.086 -0.1945 -0.1005 -0.4223
  660MOL0     C89029  -0.191   1.537   2.111  0.5561 -0.0787  1.0026
  660MOL0     C89030   0.127   2.412   2.031 -0.4806  0.1379 -0.1307
  660MOL0     C89031   0.218   2.503   2.082  0.5013 -0.1823  0.6407
  660MOL0     C89032   0.173   2.646   2.108 -0.6217  0.6426 -0.0375
  660MOL0     H89033   0.600   2.352   2.501  0.0708 -1.7984 -0.9346
  660MOL0     H89034   0.821   2.431   2.617 -1.3365  1.1962  0.9554
  660MOL0     H89035   1.044   2.729   2.402 -0.7437 -1.7714 -1.0603
  660MOL0     H89036   1.108   2.753   2.568 -0.0179  2.7680 -3.7703
  660MOL0     H89037   1.152   2.532   2.375 -0.2878  2.3391 -0.3457
  660MOL0     H89038   1.143   2.494   2.547 -1.2311 -1.2780 -1.9996
  660MOL0     H89039   1.315   2.694   2.573 -0.2248  0.1821  0.0939
  660MOL0     H89040   1.333   2.679   2.398  1.1634 -2.2722 -1.3106
  660MOL0     H89041   1.422   2.468   2.590 -0.7030  2.2968  0.3419
  660MOL0     H89042   1.390   2.437   2.417 -2.1982  0.7921 -0.1614
  660MOL0     H89043   1.575   2.611   2.371  0.0506 -0.3663 -0.1728
  660MOL0     H89044   1.573   2.664   2.541  0.2640 -2.2887  3.0655
  660MOL0     H89045   1.687   2.443   2.589 -2.3482 -1.4829 -0.6317
  660MOL0     H89046   1.627   2.383   2.432 -0.9961  0.2226  0.8124
  660MOL0     H89047   1.814   2.620   2.461  1.1167  0.6552 -3.0244
  660MOL0     H89048   1.779   2.543   2.308  0.3395 -1.3351 -0.1722
  660MOL0     H89049   1.914   2.396   2.539  1.2279 -1.2354  0.1164
  660MOL0     H89050   1.935   2.364   2.358  0.3849  0.5668 -0.5734
  660MOL0     H89051   1.995   2.646   2.261 -1.9481 -4.3446  0.1475
  660MOL0     H89052   2.224   2.748   2.170 -0.8748  1.3158  0.1562
  660MOL0     H89053   2.260   2.839   2.323  3.6706  1.9604 -2.0071
  660MOL0     H89054   2.473   2.712   2.353 -1.6132  1.3398  0.5479
  660MOL0     H89055   2.447   2.666   2.176 -2.4257  1.2336 -1.2814
  660MOL0     H89056   2.472   2.941   2.286 -0.0618 -0.1313 -0.0748
  660MOL0     H89057   2.423   2.902   2.123 -0.2232  1.0478  0.2405
  660MOL0     H89058   2.666   2.939   2.117  1.1594  1.5210  1.8316
  660MOL0     H89059   2.654   2.763   2.117  0.8768  2.0441 -1.7541
  660MOL0     H89060   2.880   2.807   2.090  0.8826 -0.7659 -0.3004
  660MOL0     H89061   3.121   2.738   2.120  0.4548 -3.1954  1.2405
  660MOL0     H89062   3.516   2.722   2.306  1.2205 -1.3863  2.3707
  660MOL0     H89063   3.747   2.628   2.306  0.6457 -0.2404 -1.7183
  660MOL0     H89064   3.839   2.182   2.292  0.4353  0.2818  0.5685
  660MOL0     H89065   3.805   2.204   2.116 -4.4014  0.8245  0.9786
  660MOL0     H89066   4.039   2.349   2.227  1.2264  1.5159 -2.2299
  660MOL0     H89067   4.065   2.174   2.210  3.0381  2.2733  2.4910
  660MOL0     H89068   3.994   2.203   1.961  0.7185  1.0445 -0.8471
  660MOL0     H89069   3.952   2.366   2.005 -1.5840  0.5560  3.4654
  660MOL0     H89070   4.210   2.379   2.083 -1.0580 -1.8888  1.2076
  660MOL0     H89071   4.180   2.383   1.913 -2.2895 -0.1440 -0.3480
  660MOL0     H89072   4.215   2.139   1.890 -1.2496  0.2829 -0.6442
  660MOL0     H89073   4.248   2.110   2.057 -1.7146 -0.9283 -1.2140
  660MOL0     H89074   4.432   2.305   1.900  0.0988  1.7838  2.3376
  660MOL0     H89075   4.441   2.256   2.056 -0.8908 -0.3652  1.1963
  660MOL0     H89076   4.414   2.017   1.857 -0.2738  1.3332 -0.1223
  660MOL0     H89077   4.499   2.026   2.013 -0.2027 -1.6594 -0.9404
  660MOL0     H89078   4.577   2.166   1.766  0.5875 -1.8462 -1.0104
  660MOL0     H89079   4.664   2.159   1.917  1.7427  0.0796 -1.2348
  660MOL0     H89080   3.594   2.259   2.156  0.4713 -0.0609 -0.1128
  660MOL0     H89081   3.356   2.354   2.178  0.2039  0.6741 -1.1159
  660MOL0     H89082   3.052   2.691   2.534  1.1291 -1.0459 -0.6173
  660MOL0     H89083   2.829   2.784   2.512  1.3027  0.9228  1.1143
  660MOL0     H89084   0.874   2.708   2.292  0.4890  0.3207  0.1012
  660MOL0     H89085   0.668   2.621   2.178 -3.6561 -3.0107 -0.4399
  660MOL0     H89086   0.461   2.274   2.146 -0.5045  0.9510  2.4905
  660MOL0     H89087   0.310   2.126   2.052  0.9562  1.0723  2.1445
  660MOL0     H89088   0.116   2.033   2.051 -1.2827 -0.0778  0.7883
  660MOL0     H89089   0.098   2.029   1.876 -1.5108 -0.0239 -0.8050
  660MOL0     H89090  -0.144   2.027   1.902 -1.0876 -1.3630 -0.4487
  660MOL0     H89091  -0.128   2.059   2.077  0.4450  4.3296 -2.1466
  660MOL0     H89092  -0.002   1.836   2.111 -1.4403 -0.8088  0.6312
  660MOL0     H89093  -0.010   1.813   1.934 -0.3595  1.5194 -0.3426
  660MOL0     H89094  -0.265   1.857   2.101 -0.5242  2.2825 -1.9387
  660MOL0     H89095  -0.239   1.791   1.939  3.1181  1.4844 -0.5800
  660MOL0     H89096  -0.189   1.433   2.138 -0.9043 -1.0537 -2.1488
  660MOL0     H89097   0.027   2.444   2.003 -0.6907 -0.4326 -0.0453
  660MOL0     H89098   0.237   2.724   2.066  4.5474 -1.8038  2.3341
  660MOL0     H89099   0.073   2.658   2.066 -0.6456  2.5468  0.4610
  660MOL0     H89100   0.178   2.654   2.217  2.2858 -2.0032  0.1904
  661MOL0     O89101   7.537  10.356   5.507 -0.2293  0.2859  0.5631
  661MOL0     C89102   7.457  10.435   5.559 -0.8399 -0.6830  0.0058
  661MOL0     O89103   7.492  10.573   5.583 -0.5198 -0.1392 -0.0393
  661MOL0     C89104   7.625  10.602   5.568  0.7671  0.1898  0.1030
  661MOL0     C89105   7.726  10.535   5.634  0.3782  0.1203  0.2891
  661MOL0     C89106   7.860  10.567   5.620  0.6611  0.2193  0.1118
  661MOL0     C89107   7.901  10.679   5.544  0.0599 -0.1491 -0.6536
  661MOL0     O89108   8.034  10.712   5.542 -0.1194 -0.3572  0.1039
  661MOL0     C89109   8.108  10.692   5.427 -0.2128  1.0235  0.2606
  661MOL0     C89110   8.221  10.586   5.437  0.3965  0.2056 -0.3130
  661MOL0     C89111   8.178  10.447   5.493 -0.3771 -1.1433 -0.2006
  661MOL0     C89112   8.274  10.340   5.468  0.0923  0.5577  0.5472
  661MOL0     C89113   8.199  10.205   5.479 -0.4314  0.1895 -0.3188
  661MOL0     C89114   8.279  10.086   5.424 -0.2412 -0.5031 -0.2027
  661MOL0     C89115   8.215   9.955   5.471 -0.7450  0.5109 -0.0539
  661MOL0     C89116   8.313   9.827   5.436 -0.3453  0.0197  0.4192
  661MOL0     N89117   8.410   9.808   5.549 -0.2280  0.5044  0.3917
  661MOL0     C89118   8.390   9.718   5.647 -0.3273  0.2976  1.3385
  661MOL0     C89119   8.507   9.713   5.717 -0.4134  0.3984 -0.2645
  661MOL0     C89120   8.531   9.614   5.837 -0.2123 -0.0084  0.1749
  661MOL0     C89121   8.670   9.632   5.905  0.1504  0.2422  0.6017
  661MOL0     C89122   8.798   9.604   5.823 -0.2387  0.0242 -0.2625
  661MOL0     C89123   8.923   9.628   5.909 -0.6067 -0.6764  0.2511
  661MOL0     O89124   9.038   9.569   5.839 -0.3271 -0.1300 -0.4767
  661MOL0     C89125   9.158   9.599   5.894  0.8085  0.6072 -0.5255
  661MOL0     C89126   9.187   9.583   6.036 -0.2719  0.1706  0.4030
  661MOL0     C89127   9.314   9.609   6.093 -0.3695 -0.0239  0.5387
  661MOL0     C89128   9.411   9.664   6.007 -0.0737 -0.5746 -0.4061
  661MOL0     C89129   9.544   9.709   6.060 -0.4047  0.4615  0.4188
  661MOL0     O89130   9.617   9.782   5.976  1.0893 -0.8002  0.4027
  661MOL0     C89131   9.747   9.819   6.013 -0.0924  0.5242 -0.0066
  661MOL0     C89132   9.859   9.733   6.016 -0.6238  0.2789  0.0301
  661MOL0     C89133   9.996   9.776   6.022  0.4651 -0.5826 -0.0806
  661MOL0     C89134  10.019   9.911   6.033 -0.6589  0.1706  0.4460
  661MOL0     O89135  10.149   9.946   6.057 -0.3936 -0.0247  0.1649
  661MOL0     C89136  10.166  10.046   6.151 -0.4536  0.7364  0.1912
  661MOL0     C89137  10.311  10.044   6.208  0.2066 -0.0938 -0.6730
  661MOL0     C89138  10.361  10.178   6.255 -0.5081 -0.2311  0.6886
  661MOL0     C89139  10.501  10.153   6.328  0.4939  0.1049  0.4443
  661MOL0     C89140  10.584  10.285   6.350  0.1497  0.7341  0.4125
  661MOL0     C89141  10.712  10.245   6.434 -0.6980  0.1282 -0.1541
  661MOL0     C89142  10.820  10.355   6.451 -0.0106 -0.1704  0.1103
  661MOL0     C89143  10.943  10.313   6.527  0.5004  0.8338 -0.1116
  661MOL0    Cl89144  11.022  10.455   6.576  0.2134  0.1886  0.1939
  661MOL0     C89145   9.903   9.996   6.033 -0.8912 -0.3808 -0.2861
  661MOL0     C89146   9.776   9.956   6.014 -0.5360  0.0748 -0.3905
  661MOL0     O89147   9.593   9.655   6.161  0.1773 -0.4520  0.0394
  661MOL0     C89148   9.389   9.672   5.863  0.3167  0.3667 -0.6548
  661MOL0     C89149   9.267   9.638   5.814 -0.0891  0.6101 -0.0927
  661MOL0     N89150   8.592   9.807   5.663 -0.3096 -0.5538  0.1386
  661MOL0     N89151   8.542   9.849   5.552  0.5847  0.4547  1.1409
  661MOL0     C89152   7.805  10.752   5.466  0.0274 -0.6622 -0.9932
  661MOL0     C89153   7.664  10.712   5.483  0.4285 -0.4829 -0.3812
  661MOL0     C89154   7.312  10.408   5.572  0.7990 -0.7321 -1.0415
  661MOL0     C89155   7.259  10.317   5.487  0.3595 -0.2870 -0.3525
  661MOL0     C89156   7.117  10.293   5.491 -0.3937 -0.6756  0.1083
  661MOL0     C89157   7.035  10.351   5.584 -1.3137  0.0190  0.3907
  661MOL0     O89158   6.905  10.313   5.579 -0.4304 -0.5211 -0.1437
  661MOL0     C89159   6.811  10.332   5.688 -0.1889  0.1617  0.2213
  661MOL0     C89160   6.718  10.210   5.708  0.5566 -0.0675 -0.0485
  661MOL0     C89161   6.655  10.171   5.570  1.1267  0.0724  0.4501
  661MOL0     C89162   6.538  10.073   5.604  0.1268  0.1386  0.0620
  661MOL0     C89163   6.455  10.067   5.482  0.0320 -0.5881 -1.0340
  661MOL0     C89164   6.375  10.073   5.386  0.0129  0.2726  0.5064
  661MOL0     C89165   7.091  10.441   5.682 -0.4588 -0.1306 -0.9487
  661MOL0     C89166   7.228  10.464   5.679  0.4393 -0.7422 -0.1013
  661MOL0     C89167   7.298  10.550   5.788  0.2525  0.1399 -0.1566
  661MOL0     H89168   7.698  10.461   5.708  0.6367  0.3470  0.6200
  661MOL0     H89169   7.934  10.505   5.670  3.4374  1.8255 -1.7464
  661MOL0     H89170   8.037  10.663   5.348  0.4895  1.7554 -0.6582
  661MOL0     H89171   8.149  10.792   5.414  2.6969 -0.0894  0.1878
  661MOL0     H89172   8.302  10.623   5.500 -0.1546  2.1315 -0.6450
  661MOL0     H89173   8.258  10.572   5.335 -1.5714  0.7025 -1.1408
  661MOL0     H89174   8.085  10.422   5.441 -3.1400 -0.2746  3.8298
  661MOL0     H89175   8.139  10.452   5.595 -2.5365 -1.5653 -0.9479
  661MOL0     H89176   8.318  10.341   5.368 -0.5988  1.5750  0.2404
  661MOL0     H89177   8.360  10.356   5.535  0.1652  1.6265  0.2185
  661MOL0     H89178   8.184  10.179   5.584 -2.9702 -0.2594 -0.7207
  661MOL0     H89179   8.105  10.195   5.423  0.0534  3.9810 -2.0966
  661MOL0     H89180   8.295  10.101   5.317 -2.0709 -0.1721 -0.4608
  661MOL0     H89181   8.375  10.095   5.475 -1.8100  0.4858  2.8345
  661MOL0     H89182   8.117   9.946   5.423 -1.9141 -0.5770  2.3431
  661MOL0     H89183   8.187   9.950   5.577  0.4742  1.0232  0.3057
  661MOL0     H89184   8.255   9.738   5.411 -0.7132  0.8773 -2.0814
  661MOL0     H89185   8.376   9.852   5.350  0.9104 -0.3850  1.1919
  661MOL0     H89186   8.303   9.655   5.665 -1.7178  2.0041  0.9394
  661MOL0     H89187   8.448   9.626   5.907 -0.8671  2.5581 -0.9185
  661MOL0     H89188   8.528   9.513   5.795 -1.9479 -0.4267  1.1962
  661MOL0     H89189   8.686   9.740   5.919  2.6648  1.1938 -5.9270
  661MOL0     H89190   8.675   9.580   6.001  0.1875  0.4829  0.7342
  661MOL0     H89191   8.795   9.662   5.730 -0.9914  0.9790  0.3375
  661MOL0     H89192   8.797   9.505   5.777 -0.0332 -0.6788  1.2162
  661MOL0     H89193   8.906   9.566   5.998  0.9453 -2.5933 -0.7004
  661MOL0     H89194   8.933   9.734   5.931  1.4849 -0.0061 -3.1350
  661MOL0     H89195   9.102   9.558   6.099 -2.5878 -0.7184 -2.8169
  661MOL0     H89196   9.330   9.600   6.200 -2.3529  0.1952  0.8892
  661MOL0     H89197   9.841   9.626   6.008  1.3479 -0.4253  3.4174
  661MOL0     H89198  10.086   9.716   6.027  0.8201 -0.0111  0.8615
  661MOL0     H89199  10.149  10.139   6.096 -0.7060  1.5789  1.6258
  661MOL0     H89200  10.103  10.040   6.241 -2.6800 -3.3995 -1.3628
  661MOL0     H89201  10.311   9.975   6.293  1.5794  3.3432  2.3804
  661MOL0     H89202  10.380   9.996   6.138  0.9178 -1.5799  0.9872
  661MOL0     H89203  10.366  10.257   6.180 -5.3446 -0.5536 -0.3314
  661MOL0     H89204  10.290  10.219   6.328 -0.2347 -0.1919  0.9307
  661MOL0     H89205  10.560  10.083   6.267  1.0743  0.2176  0.8717
  661MOL0     H89206  10.490  10.101   6.424  1.9188 -3.9173 -1.3529
  661MOL0     H89207  10.522  10.366   6.388 -0.6345  0.9677 -1.2654
  661MOL0     H89208  10.629  10.304   6.252  1.9772  0.0726  1.0660
  661MOL0     H89209  10.662  10.207   6.524  2.1921 -1.2685  0.9864
  661MOL0     H89210  10.762  10.161   6.385  0.0358 -0.0246  0.8442
  661MOL0     H89211  10.772  10.442   6.496  1.8407  0.9266  0.0528
  661MOL0     H89212  10.845  10.367   6.346  0.3697 -1.5457  0.0190
  661MOL0     H89213  10.925  10.268   6.625  1.2730 -1.0905 -0.7920
  661MOL0     H89214  11.011  10.248   6.470  2.8200  1.5993  1.6688
  661MOL0     H89215   9.921  10.103   6.037  1.4809 -0.7593  0.8382
  661MOL0     H89216   9.694  10.027   6.004 -2.4221 -2.0723 -1.2746
  661MOL0     H89217   9.461   9.714   5.794  1.7348 -1.6296 -0.4771
  661MOL0     H89218   9.264   9.664   5.708  4.9837  0.1983 -0.6059
  661MOL0     H89219   7.844  10.830   5.402 -1.4667 -0.7386 -2.0627
  661MOL0     H89220   7.599  10.772   5.420  1.8435 -0.6272 -2.0765
  661MOL0     H89221   7.320  10.266   5.413  0.5059 -0.2813 -0.2367
  661MOL0     H89222   7.071  10.216   5.429  0.7156  0.0524 -1.6750
  661MOL0     H89223   6.755  10.425   5.684 -0.6905 -0.1744 -2.0822
  661MOL0     H89224   6.870  10.333   5.780 -0.3671 -1.7833  0.4064
  661MOL0     H89225   6.644  10.233   5.785  3.4837  4.7904  1.7741
  661MOL0     H89226   6.781  10.127   5.740  0.8688 -0.0621 -0.6304
  661MOL0     H89227   6.733  10.121   5.513  1.7655 -0.5611  1.8139
  661MOL0     H89228   6.618  10.257   5.515  4.1729 -0.2708 -2.4145
  661MOL0     H89229   6.569   9.973   5.637 -1.6609 -0.3181  0.4817
  661MOL0     H89230   6.481  10.115   5.687 -2.5862 -1.1520 -1.0117
  661MOL0     H89231   6.297  10.081   5.313  1.1746 -0.4781 -0.8639
  661MOL0     H89232   7.042  10.477   5.772  0.3238 -1.9777  0.2774
  661MOL0     H89233   7.323  10.648   5.748 -1.2140  0.7374  0.2971
  661MOL0     H89234   7.239  10.546   5.880  1.4777 -0.3821  0.6289
  661MOL0     H89235   7.392  10.505   5.821  1.0265  1.1126 -1.0011
  662MOL0     O89236   2.361   6.845   8.867  0.0587 -0.1482 -0.4874
  662MOL0     C89237   2.246   6.860   8.906 -0.5161 -0.3663 -0.5263
  662MOL0     O89238   2.208   6.813   9.032  1.2879 -0.2667 -0.0920
  662MOL0     C89239   2.287   6.720   9.098  1.0024 -0.9889  0.1183
  662MOL0     C89240   2.234   6.587   9.113  0.8528 -0.5441  0.5304
  662MOL0     C89241   2.294   6.489   9.189 -0.0807  0.6313 -0.3045
  662MOL0     C89242   2.412   6.521   9.252 -0.3576  0.4388  0.6148
  662MOL0     O89243   2.471   6.425   9.321  0.3611  0.1929 -0.2276
  662MOL0     C89244   2.605   6.382   9.313 -0.5974 -0.2938 -0.2264
  662MOL0     C89245   2.627   6.271   9.421  0.6160  0.4800 -0.0455
  662MOL0     C89246   2.774   6.233   9.450  0.2114  0.4029  0.1431
  662MOL0     C89247   2.788   6.145   9.570 -0.5769  0.0120  0.0448
  662MOL0     C89248   2.936   6.143   9.631 -0.1500  0.1507  0.7541
  662MOL0     C89249   3.036   6.086   9.536 -0.1717  1.4883 -0.3683
  662MOL0     C89250   3.013   5.945   9.493 -0.3573  0.0232 -0.5076
  662MOL0     C89251   2.980   5.836   9.609  0.3205 -0.2566 -0.4764
  662MOL0     N89252   3.095   5.815   9.696 -0.4963 -0.8607 -0.4735
  662MOL0     C89253   3.091   5.844   9.829  0.6064  0.4802 -0.5745
  662MOL0     C89254   3.203   5.793   9.883 -1.1501 -0.4080  0.2384
  662MOL0     C89255   3.240   5.778  10.030  0.4066 -0.2310 -0.9834
  662MOL0     C89256   3.199   5.639  10.083 -0.0073 -0.1573  1.4675
  662MOL0     C89257   3.254   5.508  10.007  0.4645  0.1260  0.3717
  662MOL0     C89258   3.407   5.511   9.984  0.3563 -0.7094 -0.1339
  662MOL0     O89259   3.450   5.381  10.011 -0.0873 -0.0159  0.4498
  662MOL0     C89260   3.579   5.348   9.990 -0.2818 -0.2612 -0.0820
  662MOL0     C89261   3.675   5.438   9.945 -0.8160  0.0306 -1.2523
  662MOL0     C89262   3.806   5.389   9.930 -0.1697  0.5822  0.4148
  662MOL0     C89263   3.842   5.252   9.946 -0.5313 -0.2306 -0.6578
  662MOL0     C89264   3.980   5.202   9.934  1.0530 -0.4579  0.6250
  662MOL0     O89265   4.078   5.297   9.932 -0.1312 -0.8214 -0.1771
  662MOL0     C89266   4.215   5.272   9.938  0.8207  0.6471 -0.7658
  662MOL0     C89267   4.273   5.164   9.993 -0.6176  0.7002  0.2026
  662MOL0     C89268   4.414   5.146   9.986  0.9470  0.5947  0.3877
  662MOL0     C89269   4.499   5.241   9.926 -0.0233 -0.3332 -0.2944
  662MOL0     O89270   4.633   5.222   9.929  0.4851  0.0485 -0.8740
  662MOL0     C89271   4.710   5.266   9.813  0.8329  0.5967 -0.0880
  662MOL0     C89272   4.853   5.214   9.820  0.1952  0.5034 -0.1843
  662MOL0     C89273   4.944   5.266   9.710 -0.6024 -0.6910 -0.4024
  662MOL0     C89274   5.094   5.226   9.732 -0.9572  0.0422  0.2179
  662MOL0     C89275   5.193   5.292   9.636 -0.1740 -1.0300  0.2870
  662MOL0     C89276   5.333   5.243   9.660 -0.3756 -0.3670  0.8948
  662MOL0     C89277   5.445   5.289   9.565 -0.4744 -0.3885 -0.4977
  662MOL0     C89278   5.450   5.428   9.531 -0.3778 -0.0092  0.2721
  662MOL0    Cl89279   5.586   5.444   9.424  0.1719 -0.2624  0.0072
  662MOL0     C89280   4.433   5.355   9.875  0.0374  0.4332  0.1978
  662MOL0     C89281   4.291   5.375   9.883  0.7820 -0.6132  0.1803
  662MOL0     O89282   4.000   5.083   9.923 -0.2078 -0.0566 -0.2841
  662MOL0     C89283   3.744   5.166   9.992  0.1741  0.4149  0.0520
  662MOL0     C89284   3.611   5.214  10.008 -0.4161 -0.0759 -0.1891
  662MOL0     N89285   3.273   5.745   9.774 -0.2924 -0.2022 -0.3108
  662MOL0     N89286   3.216   5.765   9.661 -0.8031  0.4040  0.1458
  662MOL0     C89287   2.469   6.645   9.231  1.4554  0.5861  0.6135
  662MOL0     C89288   2.404   6.742   9.159 -0.9359 -0.6457 -0.1449
  662MOL0     C89289   2.154   6.947   8.836 -0.4711 -0.3983  0.9540
  662MOL0     C89290   2.208   7.047   8.754 -1.0280  0.2210  0.4068
  662MOL0     C89291   2.130   7.127   8.670 -1.0713  0.3337  0.8379
  662MOL0     C89292   1.991   7.114   8.671 -0.4326  1.1641  0.1218
  662MOL0     O89293   1.918   7.210   8.606 -0.0210 -0.3508  0.1471
  662MOL0     C89294   1.782   7.195   8.580  0.2622 -0.7735 -0.0241
  662MOL0     C89295   1.762   7.106   8.471  0.1521  0.8834  0.0565
  662MOL0     C89296   1.855   7.120   8.342 -0.1714  0.5554 -0.9527
  662MOL0     C89297   1.767   7.132   8.224 -0.4405  0.4856 -0.3027
  662MOL0     C89298   1.711   7.265   8.205  0.0694  0.0726  0.4058
  662MOL0     C89299   1.667   7.375   8.203 -0.3882  0.0432  0.8750
  662MOL0     C89300   1.934   7.009   8.739 -0.0228 -0.7609 -0.4707
  662MOL0     C89301   2.015   6.927   8.822 -0.3752 -0.6065 -0.0024
  662MOL0     C89302   1.956   6.807   8.878  0.0724  0.3899 -0.1203
  662MOL0     H89303   2.140   6.556   9.068  0.1588  0.1126  1.4720
  662MOL0     H89304   2.257   6.390   9.212  1.7398  0.6340  3.3626
  662MOL0     H89305   2.617   6.340   9.213  4.9913  2.3209 -1.0077
  662MOL0     H89306   2.675   6.464   9.329 -0.4784 -0.8230  2.3944
  662MOL0     H89307   2.594   6.178   9.375  1.0769  0.0715  0.4355
  662MOL0     H89308   2.574   6.292   9.514 -0.8008 -2.5795 -0.0424
  662MOL0     H89309   2.827   6.327   9.471 -1.1091  1.3265 -0.5034
  662MOL0     H89310   2.824   6.178   9.370 -0.2175  1.5130 -0.9207
  662MOL0     H89311   2.730   6.186   9.652  0.4500  2.4485 -0.3663
  662MOL0     H89312   2.753   6.044   9.546  0.9016 -0.6727  0.6243
  662MOL0     H89313   2.974   6.242   9.659  3.2268 -0.9411  0.4506
  662MOL0     H89314   2.939   6.086   9.724  0.9127  0.1708  0.7373
  662MOL0     H89315   3.033   6.151   9.448  0.4711  1.0462 -0.7222
  662MOL0     H89316   3.133   6.091   9.587  0.0472  1.6589 -0.7973
  662MOL0     H89317   3.099   5.917   9.431  2.0323 -0.8258  2.8777
  662MOL0     H89318   2.932   5.940   9.420 -2.4036 -1.5639  1.7125
  662MOL0     H89319   2.888   5.858   9.665  0.2908 -3.2684  0.8589
  662MOL0     H89320   2.968   5.739   9.559  2.5617 -0.6954 -0.2554
  662MOL0     H89321   3.009   5.888   9.885 -1.4966 -1.7034 -1.7682
  662MOL0     H89322   3.346   5.800  10.040 -0.1456  2.6476 -0.7775
  662MOL0     H89323   3.183   5.853  10.085  0.1214 -1.6889  0.8045
  662MOL0     H89324   3.222   5.637  10.190  0.6821  0.3881  1.3344
  662MOL0     H89325   3.090   5.638  10.070 -0.2156  0.5567  2.8956
  662MOL0     H89326   3.205   5.491   9.910  3.0471 -1.0579 -0.8508
  662MOL0     H89327   3.225   5.421  10.066 -2.4581  0.7638  0.0545
  662MOL0     H89328   3.450   5.579  10.058  0.2096  0.3854 -1.0150
  662MOL0     H89329   3.430   5.545   9.882  0.1851 -2.1075 -0.6614
  662MOL0     H89330   3.660   5.546   9.944  0.7379  0.4791  3.3548
  662MOL0     H89331   3.884   5.457   9.897  0.0704  1.1872  2.1262
  662MOL0     H89332   4.218   5.078  10.029  2.2458 -1.4456 -0.1992
  662MOL0     H89333   4.450   5.055  10.033 -3.3357 -1.7533 -0.3652
  662MOL0     H89334   4.664   5.237   9.717  2.7180  0.2899 -0.9348
  662MOL0     H89335   4.719   5.374   9.827  0.1635  0.9076 -1.7517
  662MOL0     H89336   4.899   5.235   9.917 -3.3869 -0.8392  1.9911
  662MOL0     H89337   4.851   5.105   9.815 -0.2475  0.4615  0.7473
  662MOL0     H89338   4.905   5.225   9.616 -2.8330  1.5720 -0.5668
  662MOL0     H89339   4.936   5.375   9.711  0.5438 -0.5469 -2.0329
  662MOL0     H89340   5.104   5.117   9.736 -2.1616 -0.1123 -0.4992
  662MOL0     H89341   5.128   5.263   9.829  1.0234  0.4326 -0.5853
  662MOL0     H89342   5.187   5.401   9.647 -3.8080 -0.7513 -2.6496
  662MOL0     H89343   5.162   5.273   9.533 -0.5881  1.6421 -0.1459
  662MOL0     H89344   5.357   5.261   9.765 -1.7570 -1.5111  1.4532
  662MOL0     H89345   5.340   5.134   9.651  2.2950 -0.3910  2.5006
  662MOL0     H89346   5.450   5.232   9.471  1.9671  0.6469 -1.0850
  662MOL0     H89347   5.540   5.273   9.618 -0.2705 -2.1519 -1.3169
  662MOL0     H89348   5.366   5.462   9.469 -0.0462  1.2980  0.5164
  662MOL0     H89349   5.468   5.496   9.615  0.4483 -0.5232  0.5178
  662MOL0     H89350   4.487   5.439   9.832  2.1425  0.3922  2.5190
  662MOL0     H89351   4.243   5.463   9.842  2.5838  0.9228  1.2155
  662MOL0     H89352   3.761   5.060  10.007 -0.6035 -0.0701 -2.0862
  662MOL0     H89353   3.532   5.143  10.032 -0.0274 -1.0374 -1.6141
  662MOL0     H89354   2.556   6.665   9.293  0.0761  1.5520  2.3149
  662MOL0     H89355   2.441   6.844   9.151 -3.4509  0.4248  0.8530
  662MOL0     H89356   2.315   7.055   8.739 -0.6047 -1.9341  1.8390
  662MOL0     H89357   2.171   7.208   8.611 -1.8333  0.2112  0.1186
  662MOL0     H89358   1.746   7.292   8.545  0.7571 -1.5622 -3.0800
  662MOL0     H89359   1.729   7.161   8.669  2.6519 -2.0064  1.0408
  662MOL0     H89360   1.660   7.122   8.436  0.0613  0.6177  0.1983
  662MOL0     H89361   1.767   6.999   8.495 -1.1017  1.5934  4.3064
  662MOL0     H89362   1.912   7.028   8.328 -1.1478 -0.3345  0.5763
  662MOL0     H89363   1.923   7.206   8.347 -1.7177  1.7606  1.8458
  662MOL0     H89364   1.829   7.112   8.136  0.7741 -2.9827  1.1600
  662MOL0     H89365   1.691   7.053   8.214  1.1507 -0.8766 -3.1495
  662MOL0     H89366   1.634   7.477   8.193  0.4574  0.2798  0.4229
  662MOL0     H89367   1.830   6.985   8.722 -0.9792  2.7556 -0.3690
  662MOL0     H89368   1.865   6.770   8.828  0.0159  2.8259 -1.9817
  662MOL0     H89369   2.020   6.719   8.863 -3.7432 -2.9979  1.4539
  662MOL0     H89370   1.929   6.820   8.983 -3.1708 -3.3158 -0.2701
  663MOL0     O89371   6.135   8.438  10.500  0.0362  0.1310 -0.0178
  663MOL0     C89372   6.143   8.415  10.382 -0.6623 -0.4812 -0.3722
  663MOL0     O89373   6.056   8.342  10.311  0.3748 -0.0389  0.3568
  663MOL0     C89374   5.956   8.290  10.385  0.2581 -0.2535  0.0872
  663MOL0     C89375   5.986   8.177  10.455 -0.3409  0.1766 -0.9553
  663MOL0     C89376   5.899   8.120  10.542  0.8700  0.3232  0.1091
  663MOL0     C89377   5.763   8.169  10.540 -0.3303 -0.0523 -0.0399
  663MOL0     O89378   5.688   8.097  10.625  0.1760 -0.2003 -0.2066
  663MOL0     C89379   5.544   8.117  10.625  0.0620 -0.0822 -0.4766
  663MOL0     C89380   5.490   8.036  10.743 -0.0063 -0.7139  0.1700
  663MOL0     C89381   5.350   8.081  10.770 -0.0917 -0.6958  0.5025
  663MOL0     C89382   5.298   8.001  10.893 -0.0806 -0.3018  0.4565
  663MOL0     C89383   5.158   8.026  10.928  0.4849  0.7037 -0.3307
  663MOL0     C89384   5.062   7.969  10.826 -0.7223  0.7985  0.3203
  663MOL0     C89385   4.924   7.983  10.879  0.3775  0.3054  1.2926
  663MOL0     C89386   4.820   7.924  10.770  0.4097  0.3253 -0.4984
  663MOL0     N89387   4.686   7.900  10.837 -0.7574 -0.1991  0.0877
  663MOL0     C89388   4.573   7.892  10.763  0.2237  0.3997 -0.3404
  663MOL0     C89389   4.470   7.862  10.851 -0.4376  0.2919  0.1128
  663MOL0     C89390   4.323   7.833  10.829  0.3835 -0.5696  0.7560
  663MOL0     C89391   4.240   7.941  10.896 -0.1341  0.8145  0.1132
  663MOL0     C89392   4.194   7.912  11.039 -0.1985 -0.1999 -1.4961
  663MOL0     C89393   4.125   8.034  11.113  0.6006 -0.3330 -0.3122
  663MOL0     O89394   4.040   7.988  11.221  0.5425  0.8012  0.3498
  663MOL0     C89395   3.910   7.936  11.202 -0.7521 -0.2222  0.0748
  663MOL0     C89396   3.860   7.903  11.071  0.9371 -0.4553 -0.4341
  663MOL0     C89397   3.722   7.868  11.065  0.4004 -0.1577  0.6642
  663MOL0     C89398   3.654   7.855  11.176  0.8070 -0.1509 -0.1919
  663MOL0     C89399   3.517   7.804  11.169  1.1529 -0.5968  1.2129
  663MOL0     O89400   3.464   7.786  11.297 -0.0732  0.7301 -0.4218
  663MOL0     C89401   3.351   7.716  11.303  0.9914  0.0813  0.2498
  663MOL0     C89402   3.232   7.784  11.308  0.9010  0.0538  0.7824
  663MOL0     C89403   3.111   7.713  11.320  0.2153 -0.7390 -0.1092
  663MOL0     C89404   3.112   7.569  11.321 -0.3932 -0.9722  0.8693
  663MOL0     O89405   2.986   7.511  11.332 -1.2131  0.1476 -0.2548
  663MOL0     C89406   2.979   7.372  11.331 -0.9555 -0.1696 -0.8360
  663MOL0     C89407   2.974   7.315  11.470  0.2652  0.0175  0.2663
  663MOL0     C89408   2.856   7.380  11.537  0.0536  0.0051 -0.9990
  663MOL0     C89409   2.815   7.311  11.668  0.5564 -0.1665  0.0504
  663MOL0     C89410   2.695   7.386  11.727  0.0703 -0.4737  0.4673
  663MOL0     C89411   2.672   7.362  11.870  0.2745  0.9246 -0.1182
  663MOL0     C89412   2.621   7.207  11.885  0.3238 -0.7974  0.2286
  663MOL0     C89413   2.503   7.201  11.985 -0.3621  0.2505  0.0266
  663MOL0    Cl89414   2.352   7.262  11.899  0.7834  0.9963 -0.7144
  663MOL0     C89415   3.236   7.504  11.341  0.7780  0.5452  0.3698
  663MOL0     C89416   3.353   7.577  11.328  0.7071  0.1108  0.1920
  663MOL0     O89417   3.464   7.769  11.063 -0.0280  0.0601  0.7176
  663MOL0     C89418   3.703   7.892  11.293 -1.1217 -0.1378 -0.7416
  663MOL0     C89419   3.832   7.938  11.313  0.1264  0.8522  0.1942
  663MOL0     N89420   4.529   7.856  10.979  0.3998  0.0069 -0.2932
  663MOL0     N89421   4.651   7.884  10.968 -0.0319  0.6827 -0.3070
  663MOL0     C89422   5.726   8.276  10.465 -0.0257 -0.3477 -0.2929
  663MOL0     C89423   5.822   8.343  10.391 -1.1755 -0.4658  0.0561
  663MOL0     C89424   6.267   8.452  10.313 -0.6031 -0.6727  0.8134
  663MOL0     C89425   6.396   8.420  10.357 -0.1199 -0.0643 -0.0335
  663MOL0     C89426   6.505   8.481  10.295  0.8683  0.1314 -0.5620
  663MOL0     C89427   6.502   8.556  10.176  0.1795  0.0915 -0.6579
  663MOL0     O89428   6.621   8.577  10.108  0.0738 -0.6714 -0.3063
  663MOL0     C89429   6.632   8.675  10.010 -0.3904 -0.2039  0.2109
  663MOL0     C89430   6.774   8.737   9.995 -0.5382  0.3062 -0.7589
  663MOL0     C89431   6.798   8.826  10.117  0.4453 -0.4476  0.1576
  663MOL0     C89432   6.925   8.918  10.121 -0.0297 -0.3152  0.2921
  663MOL0     C89433   6.911   9.038  10.034 -0.9091  0.4310 -0.6849
  663MOL0     C89434   6.927   9.141   9.969 -0.1383 -0.2547  0.0123
  663MOL0     C89435   6.377   8.574  10.129  1.1602 -0.0196 -0.2131
  663MOL0     C89436   6.254   8.533  10.190  0.5089  0.5478  0.0213
  663MOL0     C89437   6.130   8.595  10.144  0.6769 -0.0582  0.0365
  663MOL0     H89438   6.090   8.147  10.460  0.7936  3.2641 -2.8878
  663MOL0     H89439   5.934   8.052  10.619  1.8514  2.6855  1.8715
  663MOL0     H89440   5.515   8.221  10.643 -3.3046 -0.7818 -1.1228
  663MOL0     H89441   5.496   8.082  10.533 -1.9342 -0.9991  0.8549
  663MOL0     H89442   5.554   8.048  10.830 -2.1298  1.0923  1.6130
  663MOL0     H89443   5.486   7.929  10.718 -4.3243 -0.4371 -1.2106
  663MOL0     H89444   5.290   8.068  10.680  0.9206 -2.4471  0.0456
  663MOL0     H89445   5.375   8.184  10.800  2.0291 -0.4885 -1.6808
  663MOL0     H89446   5.312   7.895  10.871  1.4435 -0.3116  1.2693
  663MOL0     H89447   5.359   8.019  10.982 -0.1565 -0.5173  0.5521
  663MOL0     H89448   5.141   7.985  11.028  0.0559 -1.5003 -1.2472
  663MOL0     H89449   5.130   8.131  10.923  4.2463  1.8133 -1.2874
  663MOL0     H89450   5.067   8.030  10.735  0.4936 -0.7900 -0.7545
  663MOL0     H89451   5.098   7.871  10.791  1.1479  0.8120  2.0430
  663MOL0     H89452   4.900   8.087  10.901 -0.3366  0.1984  1.0271
  663MOL0     H89453   4.901   7.929  10.971 -0.4546 -3.9536 -1.1290
  663MOL0     H89454   4.808   7.997  10.690 -0.6831 -0.1986 -0.8455
  663MOL0     H89455   4.847   7.828  10.725 -0.1259 -1.2766  2.3334
  663MOL0     H89456   4.557   7.898  10.655  1.7619 -3.2655 -0.9259
  663MOL0     H89457   4.303   7.842  10.722  1.0802  0.7971  0.7182
  663MOL0     H89458   4.291   7.735  10.866 -0.4871 -0.1171  1.2548
  663MOL0     H89459   4.291   8.038  10.891  4.0935 -1.1140  1.4963
  663MOL0     H89460   4.142   7.952  10.848 -0.0632  0.4350 -0.1180
  663MOL0     H89461   4.283   7.880  11.094  0.5622  1.5916 -1.6095
  663MOL0     H89462   4.130   7.823  11.038  0.8258 -0.9646 -1.1062
  663MOL0     H89463   4.061   8.084  11.040  0.3637 -1.2096 -0.7087
  663MOL0     H89464   4.193   8.110  11.155  0.0324 -0.2402  0.4613
  663MOL0     H89465   3.914   7.912  10.978  0.3024 -0.5496 -0.8208
  663MOL0     H89466   3.671   7.841  10.973 -1.9612 -0.3083  1.9497
  663MOL0     H89467   3.241   7.892  11.301  0.1363  0.0157 -1.1900
  663MOL0     H89468   3.018   7.770  11.323  1.4073  1.6274 -3.2478
  663MOL0     H89469   2.883   7.358  11.281 -3.2788  1.2198  2.8255
  663MOL0     H89470   3.067   7.330  11.282 -0.0490  2.3151 -1.4818
  663MOL0     H89471   2.954   7.208  11.460  0.2130  0.1379 -1.1677
  663MOL0     H89472   3.072   7.326  11.516  0.0766  3.9363  0.1057
  663MOL0     H89473   2.890   7.482  11.560  0.3861 -0.6918  2.0731
  663MOL0     H89474   2.769   7.373  11.471  1.0290 -2.4916 -2.1302
  663MOL0     H89475   2.897   7.315  11.741  0.1521  1.4451  0.4772
  663MOL0     H89476   2.780   7.210  11.646 -1.1150  0.4094 -0.0829
  663MOL0     H89477   2.605   7.362  11.670 -0.9809  0.9997  1.4287
  663MOL0     H89478   2.720   7.493  11.727  0.6147 -0.5980  0.4509
  663MOL0     H89479   2.763   7.370  11.930  1.0358  0.4597 -1.1756
  663MOL0     H89480   2.588   7.418  11.912  0.2937 -1.0318  2.8806
  663MOL0     H89481   2.700   7.151  11.936  1.6899 -0.1734 -1.1116
  663MOL0     H89482   2.596   7.166  11.787 -0.6559 -2.0838  0.9908
  663MOL0     H89483   2.483   7.098  12.017 -0.7094 -0.3808 -2.0635
  663MOL0     H89484   2.521   7.270  12.067 -0.0924 -0.7377  0.8225
  663MOL0     H89485   3.229   7.398  11.365 -3.5164  1.0362  2.2751
  663MOL0     H89486   3.451   7.531  11.337  0.7277  0.2690  0.8200
  663MOL0     H89487   3.658   7.892  11.392  0.1775 -1.3095 -0.1169
  663MOL0     H89488   3.867   7.964  11.412  1.0252  2.2641 -0.4675
  663MOL0     H89489   5.628   8.317  10.483  0.3576 -0.3800  2.2867
  663MOL0     H89490   5.803   8.431  10.331  1.1986 -1.0627 -1.6944
  663MOL0     H89491   6.422   8.367  10.447  2.0985  1.7235  0.4542
  663MOL0     H89492   6.602   8.475  10.343  1.8726 -1.5055 -2.6149
  663MOL0     H89493   6.554   8.750  10.026 -1.5010 -1.1921 -0.4256
  663MOL0     H89494   6.609   8.627   9.914 -0.1309  0.5621 -0.2481
  663MOL0     H89495   6.770   8.815   9.918 -0.4882  1.0862  0.0194
  663MOL0     H89496   6.855   8.665   9.982 -0.1048  0.3390  1.3918
  663MOL0     H89497   6.795   8.758  10.203 -0.2295 -1.1252 -0.3913
  663MOL0     H89498   6.716   8.896  10.137  2.3958  1.4912  1.9103
  663MOL0     H89499   6.925   8.937  10.229 -2.0166  0.2929  0.2162
  663MOL0     H89500   7.009   8.861  10.081 -2.0414 -3.9691  0.7989
  663MOL0     H89501   6.923   9.240   9.928  2.6026  0.3441  1.0470
  663MOL0     H89502   6.362   8.612  10.028 -0.4734 -3.3076 -1.3681
  663MOL0     H89503   6.152   8.676  10.074 -1.0176  1.2653  0.9660
  663MOL0     H89504   6.072   8.519  10.091  1.0272 -0.3864  0.1222
  663MOL0     H89505   6.072   8.630  10.230 -1.9765 -1.5366 -1.0102
  664MOL0     O89506   7.080   9.262   7.587  0.3239  1.5164  0.1904
  664MOL0     C89507   7.023   9.309   7.688  0.2029 -0.6772  0.0750
  664MOL0     O89508   7.080   9.327   7.814  0.5042  0.5363  0.1095
  664MOL0     C89509   7.213   9.293   7.844  0.7720  0.0700 -0.0396
  664MOL0     C89510   7.266   9.162   7.814  0.0204  0.5179  0.4236
  664MOL0     C89511   7.401   9.132   7.854  0.1379 -0.1948 -0.3596
  664MOL0     C89512   7.472   9.219   7.939  0.2347  0.6276  0.1408
  664MOL0     O89513   7.596   9.176   7.974  0.2392  0.0533 -0.0453
  664MOL0     C89514   7.685   9.268   8.040 -0.2670  0.0914 -0.3983
  664MOL0     C89515   7.809   9.191   8.081  0.5425 -0.0602 -0.6406
  664MOL0     C89516   7.920   9.281   8.135 -0.4470 -0.2770  0.5168
  664MOL0     C89517   8.052   9.203   8.146 -0.1948  0.2572  0.2145
  664MOL0     C89518   8.166   9.275   8.219  0.5356 -0.8207  0.3483
  664MOL0     C89519   8.268   9.171   8.270  0.6974 -0.9947 -0.6119
  664MOL0     C89520   8.329   9.068   8.180 -0.3327 -0.7544  0.2250
  664MOL0     C89521   8.407   9.132   8.067  0.0709 -0.4861 -1.3675
  664MOL0     N89522   8.522   9.208   8.125 -0.2777 -0.0166  1.1894
  664MOL0     C89523   8.651   9.159   8.132  0.4609  0.2878  0.0956
  664MOL0     C89524   8.719   9.269   8.178  0.1281  0.0226  0.2808
  664MOL0     C89525   8.854   9.268   8.251  0.2800 -0.3773  0.0521
  664MOL0     C89526   8.967   9.295   8.148 -0.9172 -0.1037  0.0832
  664MOL0     C89527   9.095   9.330   8.221 -0.6767 -0.1936  0.4069
  664MOL0     C89528   9.214   9.313   8.143  0.0771 -0.4313  0.5325
  664MOL0     O89529   9.219   9.425   8.049 -0.7121  0.4285 -0.1369
  664MOL0     C89530   9.329   9.438   7.962 -0.4640 -0.5261 -0.0079
  664MOL0     C89531   9.314   9.524   7.852 -0.5546 -0.5671  0.4419
  664MOL0     C89532   9.414   9.554   7.764  0.5715 -0.0589  0.6550
  664MOL0     C89533   9.528   9.479   7.770 -0.0742 -0.1367  0.1600
  664MOL0     C89534   9.621   9.484   7.660 -0.4043 -0.4690 -0.4606
  664MOL0     O89535   9.711   9.383   7.651  0.6008 -0.1556  0.3501
  664MOL0     C89536   9.823   9.400   7.570 -0.0630  0.6617  0.1683
  664MOL0     C89537   9.894   9.519   7.560 -0.6250 -0.0454  0.0779
  664MOL0     C89538  10.017   9.532   7.488 -0.5020  0.5511 -0.1796
  664MOL0     C89539  10.062   9.421   7.413  0.4080  0.4193  0.9609
  664MOL0     O89540  10.178   9.426   7.336 -0.0962 -0.2515  0.6856
  664MOL0     C89541  10.235   9.293   7.290  0.2512 -0.3285 -0.6393
  664MOL0     C89542  10.385   9.303   7.284  0.3028 -0.4708  1.1873
  664MOL0     C89543  10.435   9.353   7.413 -0.6469  0.0545 -0.8155
  664MOL0     C89544  10.587   9.345   7.431  0.0391  0.4581  0.4060
  664MOL0     C89545  10.629   9.201   7.456 -0.2438 -0.9039  0.0444
  664MOL0     C89546  10.775   9.200   7.483  0.1093 -0.0652 -1.0981
  664MOL0     C89547  10.820   9.060   7.535  0.9842  0.3114 -0.1235
  664MOL0     C89548  10.977   9.048   7.546  0.0733 -0.1626 -0.1115
  664MOL0    Cl89549  11.024   9.028   7.381  0.3712 -0.2797  0.3359
  664MOL0     C89550   9.983   9.312   7.405  0.2904  0.4612 -0.1276
  664MOL0     C89551   9.869   9.292   7.486  0.2875  0.1148  0.5016
  664MOL0     O89552   9.619   9.580   7.584 -0.2958 -0.5740  0.5536
  664MOL0     C89553   9.547   9.397   7.881  0.5142  0.2884  0.1211
  664MOL0     C89554   9.445   9.375   7.976 -0.0280  0.0393  0.0643
  664MOL0     N89555   8.639   9.381   8.183  0.3016 -0.4687 -0.1192
  664MOL0     N89556   8.512   9.341   8.150  0.1449  0.4593 -0.0583
  664MOL0     C89557   7.403   9.331   7.982 -0.7208  0.7504 -0.4725
  664MOL0     C89558   7.283   9.375   7.935  0.2867  0.1123  0.3672
  664MOL0     C89559   6.893   9.365   7.651 -0.4117 -0.0834 -1.3072
  664MOL0     C89560   6.863   9.491   7.701 -0.3245  0.3558 -0.2095
  664MOL0     C89561   6.732   9.549   7.704 -0.2607  0.0553  0.9754
  664MOL0     C89562   6.630   9.480   7.631 -0.0335 -0.3661  0.2032
  664MOL0     O89563   6.503   9.533   7.615  0.3706 -0.1449 -0.1171
  664MOL0     C89564   6.461   9.607   7.723  0.0463  0.1000 -0.3371
  664MOL0     C89565   6.314   9.598   7.706 -0.1711 -0.1593 -0.7835
  664MOL0     C89566   6.243   9.696   7.795 -0.6604 -0.6836  0.8081
  664MOL0     C89567   6.281   9.676   7.940 -0.1465 -0.5352 -0.0476
  664MOL0     C89568   6.198   9.762   8.028 -0.4440 -0.7207  0.7137
  664MOL0     C89569   6.127   9.843   8.087 -0.9987  0.9790 -0.3042
  664MOL0     C89570   6.666   9.357   7.572  0.8455 -0.3793  0.4450
  664MOL0     C89571   6.789   9.293   7.592 -0.1690 -0.0283  0.7119
  664MOL0     C89572   6.799   9.147   7.553 -0.3124  0.4850  0.4776
  664MOL0     H89573   7.208   9.096   7.752  0.4888 -1.1517  1.6879
  664MOL0     H89574   7.441   9.045   7.803 -0.6600 -0.7834 -0.0116
  664MOL0     H89575   7.711   9.355   7.979  0.1437 -0.5539 -1.1420
  664MOL0     H89576   7.632   9.296   8.132  1.4873  0.8167  0.4500
  664MOL0     H89577   7.841   9.140   7.990  1.0059 -0.0101 -0.5067
  664MOL0     H89578   7.796   9.121   8.164  2.7019  0.0353 -0.1667
  664MOL0     H89579   7.892   9.313   8.236  0.4173  1.7618  0.1638
  664MOL0     H89580   7.936   9.368   8.071  2.5224 -0.1638  1.2426
  664MOL0     H89581   8.030   9.105   8.190 -0.7128 -0.2134 -1.0417
  664MOL0     H89582   8.087   9.190   8.043 -1.8905 -2.4378 -0.1430
  664MOL0     H89583   8.197   9.353   8.150 -0.6991 -0.0623  0.6146
  664MOL0     H89584   8.133   9.330   8.308 -0.1192 -2.3200  1.0781
  664MOL0     H89585   8.344   9.232   8.320 -0.6543 -0.2741  0.6687
  664MOL0     H89586   8.211   9.110   8.342  0.4457 -0.1971 -0.1208
  664MOL0     H89587   8.257   9.001   8.133 -0.7105 -0.3056  0.1533
  664MOL0     H89588   8.393   9.006   8.244 -1.0127  0.2621  1.9684
  664MOL0     H89589   8.451   9.051   8.009 -0.4936 -1.8155 -0.0103
  664MOL0     H89590   8.352   9.194   7.996 -1.9870 -3.3053 -2.4006
  664MOL0     H89591   8.688   9.058   8.120 -1.6454 -0.3043 -2.4771
  664MOL0     H89592   8.848   9.344   8.329 -1.3889  0.4410 -0.8155
  664MOL0     H89593   8.875   9.169   8.294  0.3429 -0.4189 -0.0732
  664MOL0     H89594   8.986   9.209   8.083  0.2256 -0.4853  0.8796
  664MOL0     H89595   8.954   9.379   8.081 -4.2327 -0.0340  0.6649
  664MOL0     H89596   9.101   9.274   8.315 -1.1961  1.6808  1.5953
  664MOL0     H89597   9.098   9.438   8.236  1.8455 -0.0374 -0.7315
  664MOL0     H89598   9.207   9.224   8.080  2.8996  1.8276 -3.3898
  664MOL0     H89599   9.292   9.298   8.218  0.7839 -4.8410 -0.8182
  664MOL0     H89600   9.222   9.581   7.864 -0.8829 -0.1785 -2.9069
  664MOL0     H89601   9.383   9.614   7.679 -1.5421 -0.0783  1.3566
  664MOL0     H89602   9.860   9.611   7.607 -0.6703 -0.0015 -0.0400
  664MOL0     H89603  10.081   9.615   7.517  0.9223 -0.4794 -0.2504
  664MOL0     H89604  10.206   9.215   7.361 -1.5486 -0.5281 -1.5392
  664MOL0     H89605  10.186   9.264   7.197 -0.7821 -0.9385  0.0850
  664MOL0     H89606  10.436   9.208   7.266  2.4099  0.5949  1.1664
  664MOL0     H89607  10.419   9.372   7.207  1.1812 -1.1408  0.9535
  664MOL0     H89608  10.408   9.459   7.425 -0.0616  0.0212  1.0800
  664MOL0     H89609  10.383   9.305   7.497  2.6235 -1.3752  0.5817
  664MOL0     H89610  10.614   9.403   7.519  0.3336  1.4878 -0.3467
  664MOL0     H89611  10.629   9.389   7.340  0.3802 -0.1203  0.2768
  664MOL0     H89612  10.613   9.133   7.372  3.8645 -2.7632  0.5316
  664MOL0     H89613  10.566   9.163   7.537 -1.2399  0.4135 -0.0706
  664MOL0     H89614  10.824   9.234   7.392  0.5682 -1.1809 -1.2893
  664MOL0     H89615  10.814   9.262   7.564  2.2938 -1.1532 -1.2279
  664MOL0     H89616  10.779   8.983   7.469 -0.9595 -0.6034  2.0016
  664MOL0     H89617  10.784   9.048   7.637  1.4761 -2.6711 -0.2138
  664MOL0     H89618  11.010   9.139   7.597 -2.2642  0.4849  0.3826
  664MOL0     H89619  11.017   8.968   7.609  1.2298  0.6162  0.1709
  664MOL0     H89620   9.994   9.235   7.329 -2.5053 -0.0590 -0.1098
  664MOL0     H89621   9.814   9.198   7.484  0.1773  0.1869 -0.3223
  664MOL0     H89622   9.635   9.335   7.893 -1.2798 -2.7216 -1.2009
  664MOL0     H89623   9.463   9.297   8.050 -1.8204 -1.6145 -1.1402
  664MOL0     H89624   7.458   9.389   8.055  2.4797 -0.9498 -1.3458
  664MOL0     H89625   7.225   9.460   7.971  0.3857  0.2405  0.2260
  664MOL0     H89626   6.939   9.541   7.760 -0.0377 -0.9195  0.5409
  664MOL0     H89627   6.723   9.649   7.746  0.9075  1.5410 -1.9875
  664MOL0     H89628   6.495   9.710   7.721 -0.7915  0.3849 -0.1823
  664MOL0     H89629   6.485   9.556   7.817 -1.9435 -1.0775 -0.3955
  664MOL0     H89630   6.272   9.499   7.725 -1.6323  0.6017  0.1245
  664MOL0     H89631   6.291   9.630   7.604  0.2773  4.1900  0.3084
  664MOL0     H89632   6.136   9.672   7.785 -0.0729 -2.8228 -1.5368
  664MOL0     H89633   6.264   9.801   7.772  1.4932 -1.3031 -0.3383
  664MOL0     H89634   6.277   9.573   7.978 -0.6403 -0.8314 -0.8810
  664MOL0     H89635   6.386   9.708   7.947 -0.9219  2.5280 -1.0414
  664MOL0     H89636   6.062   9.900   8.150 -0.4039  1.7876 -0.4174
  664MOL0     H89637   6.584   9.306   7.522  0.5150  0.9362 -0.4061
  664MOL0     H89638   6.844   9.133   7.454 -0.4174  2.1540  0.1717
  664MOL0     H89639   6.866   9.090   7.619 -1.0912 -0.7321  0.2486
  664MOL0     H89640   6.706   9.089   7.546  0.2441 -0.6055  1.6962
  665MOL0     O89641  11.003   3.004   2.099  0.7978  0.2907 -0.3082
  665MOL0     C89642  10.992   2.876   2.103 -0.3065 -0.2599 -0.6434
  665MOL0     O89643  11.084   2.796   2.052 -0.8127 -0.1063 -0.3957
  665MOL0     C89644  11.198   2.848   1.985  0.3786  0.7806 -0.1605
  665MOL0     C89645  11.306   2.908   2.046 -0.1992 -0.3610  0.5863
  665MOL0     C89646  11.428   2.907   1.975 -0.1214  0.3641  0.3309
  665MOL0     C89647  11.437   2.865   1.841  0.1722 -0.3717 -0.2253
  665MOL0     O89648  11.555   2.874   1.767 -0.0754 -0.0704 -0.3075
  665MOL0     C89649  11.576   2.788   1.654  0.2394  0.2268 -0.7678
  665MOL0     C89650  11.729   2.764   1.634  0.3210 -0.2633  0.1121
  665MOL0     C89651  11.800   2.695   1.751  0.2275 -0.0020  0.6509
  665MOL0     C89652  11.863   2.792   1.851  0.5919  0.8490 -0.6601
  665MOL0     C89653  12.015   2.832   1.840  0.5086  0.1539  0.1724
  665MOL0     C89654  12.016   2.983   1.890 -0.0606  0.1875 -0.1069
  665MOL0     C89655  12.152   3.055   1.892  0.2867  0.1217  0.0650
  665MOL0     C89656  12.129   3.192   1.947  0.2288 -0.6211  0.1791
  665MOL0     N89657  12.265   3.256   1.950  0.0980  0.2670  0.2108
  665MOL0     C89658  12.318   3.346   1.851 -0.4149 -0.0601 -0.6447
  665MOL0     C89659  12.451   3.364   1.893  0.0877 -0.4223 -0.4701
  665MOL0     C89660  12.542   3.453   1.830  0.0722  0.3283 -0.8718
  665MOL0     C89661  12.559   3.435   1.685  1.1479  1.4942  0.7444
  665MOL0     C89662  12.577   3.568   1.623  0.3824 -0.0620 -0.2688
  665MOL0     C89663  12.579   3.564   1.469  0.4151 -0.1194  0.8127
  665MOL0     O89664  12.652   3.451   1.414  1.1042 -0.0184 -0.2325
  665MOL0     C89665  12.701   3.449   1.286 -0.0208  0.1772  0.3614
  665MOL0     C89666  12.683   3.545   1.185 -0.3393 -1.1306  0.3869
  665MOL0     C89667  12.729   3.525   1.053  0.5129 -0.2541  0.7135
  665MOL0     C89668  12.811   3.416   1.023 -0.7935 -0.3843  1.0385
  665MOL0     C89669  12.882   3.429   0.886  1.0372  0.3294  1.0969
  665MOL0     O89670  12.889   3.551   0.820 -0.2107 -0.1291 -0.2661
  665MOL0     C89671  12.929   3.548   0.692 -0.0498 -0.2093  0.0457
  665MOL0     C89672  13.065   3.548   0.661 -0.5563  1.1803  0.5440
  665MOL0     C89673  13.109   3.538   0.526 -0.7048  0.4061  1.0686
  665MOL0     C89674  13.010   3.550   0.424 -0.0373 -0.0915 -0.1091
  665MOL0     O89675  13.057   3.558   0.295  0.2636  0.7255  0.5666
  665MOL0     C89676  13.145   3.665   0.260 -0.9233 -0.7538 -0.1084
  665MOL0     C89677  13.162   3.649   0.115 -0.0143 -0.0217 -0.4424
  665MOL0     C89678  13.233   3.771   0.061 -0.3755  0.8116  0.6770
  665MOL0     C89679  13.289   3.745  -0.077 -0.2633  0.2160  0.0696
  665MOL0     C89680  13.370   3.864  -0.130 -0.1220  0.2227 -0.0606
  665MOL0     C89681  13.520   3.873  -0.079 -0.0590 -0.4565  0.0088
  665MOL0     C89682  13.642   3.827  -0.163 -0.1896  0.6659 -0.1173
  665MOL0     C89683  13.744   3.946  -0.177  0.3836  0.5950  0.1893
  665MOL0    Cl89684  13.880   3.888  -0.275  0.1026 -0.1457 -0.0701
  665MOL0     C89685  12.877   3.567   0.451 -0.0765 -0.0912  0.5733
  665MOL0     C89686  12.837   3.553   0.588  1.3342  0.1028 -0.0629
  665MOL0     O89687  12.932   3.323   0.841  0.5798  0.6608  0.3358
  665MOL0     C89688  12.842   3.324   1.127 -0.9287  0.8383 -0.1595
  665MOL0     C89689  12.780   3.338   1.250 -0.1332  0.0666 -0.4363
  665MOL0     N89690  12.469   3.279   2.002 -1.0508  0.1762  0.5766
  665MOL0     N89691  12.366   3.219   2.028  0.5964  0.0861  0.8954
  665MOL0     C89692  11.329   2.813   1.779 -0.1409 -0.1917  0.5508
  665MOL0     C89693  11.206   2.799   1.856 -0.9233 -0.3449  0.1707
  665MOL0     C89694  10.870   2.819   2.160 -0.2859  0.8898  0.4099
  665MOL0     C89695  10.797   2.725   2.082 -0.1095 -0.6113 -0.7468
  665MOL0     C89696  10.691   2.659   2.138 -0.5835  0.6212 -0.3785
  665MOL0     C89697  10.648   2.685   2.270 -0.8895 -0.5957  0.1780
  665MOL0     O89698  10.515   2.647   2.294 -0.5796 -0.5886 -0.1843
  665MOL0     C89699  10.471   2.632   2.432  0.4268 -0.0090 -0.7963
  665MOL0     C89700  10.536   2.531   2.521 -0.0501 -0.4316 -0.5540
  665MOL0     C89701  10.481   2.392   2.484 -0.5071  0.2776  0.2590
  665MOL0     C89702  10.525   2.271   2.556  0.3621 -0.1338 -0.1740
  665MOL0     C89703  10.528   2.300   2.696  0.1849 -0.0497 -0.8454
  665MOL0     C89704  10.527   2.335   2.815 -0.1713 -0.5934 -0.2835
  665MOL0     C89705  10.722   2.774   2.344  0.9090  0.1017  0.2714
  665MOL0     C89706  10.834   2.844   2.294  0.6963  0.2552 -0.4666
  665MOL0     C89707  10.900   2.945   2.388  0.5566 -1.1877 -0.1011
  665MOL0     H89708  11.290   2.941   2.148 -1.3765 -0.2414  0.3777
  665MOL0     H89709  11.522   2.925   2.025 -0.6746  1.0675  1.1443
  665MOL0     H89710  11.528   2.691   1.666  0.0803  0.3596 -0.3216
  665MOL0     H89711  11.534   2.831   1.563 -2.5472  1.2159  0.8608
  665MOL0     H89712  11.785   2.856   1.615  2.1668 -1.5389 -0.9476
  665MOL0     H89713  11.750   2.705   1.544  0.0850  2.9326 -2.1959
  665MOL0     H89714  11.877   2.624   1.719  0.1359  0.3036 -0.2738
  665MOL0     H89715  11.719   2.644   1.804  0.2450 -0.6869  0.0331
  665MOL0     H89716  11.806   2.885   1.843 -1.7201 -0.3978  0.4956
  665MOL0     H89717  11.845   2.769   1.956 -1.5874  0.7622 -1.0250
  665MOL0     H89718  12.082   2.775   1.906  0.0313 -0.5827  0.0333
  665MOL0     H89719  12.053   2.831   1.738  1.0793 -1.1242  0.3681
  665MOL0     H89720  11.939   3.035   1.832 -1.5045 -1.8977 -0.1960
  665MOL0     H89721  11.978   2.980   1.993 -0.9239 -1.3042 -0.4446
  665MOL0     H89722  12.203   3.053   1.795 -0.5566 -1.3783 -0.3738
  665MOL0     H89723  12.217   3.003   1.963 -1.6239 -0.1317  1.7041
  665MOL0     H89724  12.067   3.254   1.881  0.1603  2.6561  3.0755
  665MOL0     H89725  12.067   3.196   2.037 -0.6969  1.9500 -0.4784
  665MOL0     H89726  12.270   3.389   1.764 -2.4247  1.3270  1.0527
  665MOL0     H89727  12.513   3.556   1.853  2.7095  0.6818  1.5093
  665MOL0     H89728  12.639   3.451   1.881 -0.5772 -1.3898  0.3670
  665MOL0     H89729  12.639   3.367   1.656 -0.3198  0.8205 -2.0718
  665MOL0     H89730  12.476   3.374   1.649  2.6090 -0.7482  1.0175
  665MOL0     H89731  12.668   3.614   1.661 -1.0570  0.7776  2.3934
  665MOL0     H89732  12.503   3.645   1.647 -0.4414 -0.7089 -0.6821
  665MOL0     H89733  12.637   3.650   1.436  0.6798 -0.6257 -0.0541
  665MOL0     H89734  12.479   3.569   1.424 -0.0662  0.9927  1.9468
  665MOL0     H89735  12.625   3.636   1.195  1.4866  0.2911 -1.1017
  665MOL0     H89736  12.699   3.590   0.972  0.6255  0.4446  1.2168
  665MOL0     H89737  13.136   3.546   0.743  0.9929  0.3428 -0.7600
  665MOL0     H89738  13.214   3.528   0.501 -0.3758 -0.3227  2.6455
  665MOL0     H89739  13.105   3.766   0.270  0.4935 -0.2450  0.6885
  665MOL0     H89740  13.237   3.660   0.318 -1.7773 -0.3919  1.3108
  665MOL0     H89741  13.211   3.555   0.086 -3.2005 -1.3697 -1.9208
  665MOL0     H89742  13.061   3.644   0.073  0.0728  3.0365 -1.2057
  665MOL0     H89743  13.170   3.858   0.044  1.3521  1.8241 -0.8117
  665MOL0     H89744  13.311   3.807   0.128 -1.0693 -1.1815  2.7194
  665MOL0     H89745  13.211   3.711  -0.146  0.1027 -1.1557  0.3105
  665MOL0     H89746  13.363   3.666  -0.067 -0.5172  0.1579  1.9845
  665MOL0     H89747  13.319   3.960  -0.115 -0.4474 -0.0638  0.6987
  665MOL0     H89748  13.381   3.837  -0.235 -0.8602 -0.4976  0.0360
  665MOL0     H89749  13.535   3.976  -0.045 -0.9888 -0.3381  0.1081
  665MOL0     H89750  13.528   3.801   0.003 -3.0018  0.5983  1.3594
  665MOL0     H89751  13.608   3.792  -0.261 -1.7938  2.2177 -0.1627
  665MOL0     H89752  13.694   3.744  -0.113  0.9392  1.0650 -0.5998
  665MOL0     H89753  13.694   4.017  -0.243  0.8673 -0.9077 -1.9013
  665MOL0     H89754  13.779   3.980  -0.079 -3.4061 -0.3466  2.0648
  665MOL0     H89755  12.802   3.588   0.376 -0.0512  2.4730  1.2010
  665MOL0     H89756  12.733   3.555   0.619  0.3959 -1.3304 -2.7856
  665MOL0     H89757  12.909   3.245   1.094 -0.9266  0.1076  1.5265
  665MOL0     H89758  12.800   3.266   1.328 -0.0095  0.5831  0.0090
  665MOL0     H89759  11.327   2.773   1.679 -1.0025 -0.7685  0.7900
  665MOL0     H89760  11.119   2.746   1.818 -1.1460  1.0599 -1.4114
  665MOL0     H89761  10.825   2.704   1.980  1.7608 -0.4478 -0.3189
  665MOL0     H89762  10.636   2.593   2.071  1.0332 -2.1705  0.8627
  665MOL0     H89763  10.362   2.631   2.436  0.4120 -1.0699 -1.0717
  665MOL0     H89764  10.492   2.724   2.487 -0.3979 -1.3781  1.9957
  665MOL0     H89765  10.512   2.555   2.625  0.5907 -2.3396  0.0765
  665MOL0     H89766  10.642   2.556   2.504 -0.5004  4.4353  1.9074
  665MOL0     H89767  10.506   2.378   2.379  2.6738 -1.7885  1.1607
  665MOL0     H89768  10.372   2.397   2.495 -0.4196  1.1553  0.8199
  665MOL0     H89769  10.467   2.180   2.540 -0.4982  0.7334 -2.4922
  665MOL0     H89770  10.627   2.254   2.521  1.3416  0.0023  2.4369
  665MOL0     H89771  10.507   2.362   2.917  2.3097 -0.4356  0.2423
  665MOL0     H89772  10.691   2.797   2.446  1.0695 -3.4191  1.2362
  665MOL0     H89773  10.938   3.037   2.341 -0.6628  0.1377  1.3960
  665MOL0     H89774  10.835   2.986   2.466  1.6933  0.7218 -0.1060
  665MOL0     H89775  10.986   2.905   2.441 -0.6980 -0.7292  2.4226
  666MOL0     O89776  10.853   1.543   7.099  0.8099  0.5699 -0.5981
  666MOL0     C89777  10.852   1.564   6.981 -0.1707 -0.1960 -0.4948
  666MOL0     O89778  10.948   1.606   6.905 -0.6245 -0.1207 -0.3207
  666MOL0     C89779  11.083   1.578   6.936  0.5696  0.2545  0.3403
  666MOL0     C89780  11.156   1.612   7.053  1.4146  0.5658  0.3931
  666MOL0     C89781  11.287   1.570   7.072  0.7049  0.1274 -1.0762
  666MOL0     C89782  11.361   1.510   6.974  0.7742 -0.4004  0.1820
  666MOL0     O89783  11.490   1.467   6.977 -0.3474 -0.4054  0.4660
  666MOL0     C89784  11.576   1.485   7.094  0.0405  0.1351 -1.0088
  666MOL0     C89785  11.700   1.390   7.072 -0.0823  0.5352  0.1462
  666MOL0     C89786  11.831   1.454   7.118  0.0850  0.5074  0.1125
  666MOL0     C89787  11.942   1.360   7.073  0.3935 -0.6359  0.1929
  666MOL0     C89788  12.003   1.406   6.947  0.1224  0.7161 -0.4892
  666MOL0     C89789  12.063   1.548   6.948 -0.8727  0.2398 -0.0463
  666MOL0     C89790  12.179   1.568   6.843  0.6124  0.3353 -0.5372
  666MOL0     C89791  12.305   1.490   6.871  0.3054 -0.1722  0.1928
  666MOL0     N89792  12.409   1.532   6.769 -0.2824 -0.6289  0.2569
  666MOL0     C89793  12.526   1.589   6.788  0.2166 -0.2255  0.2764
  666MOL0     C89794  12.590   1.597   6.668 -0.5413  0.3033 -0.5703
  666MOL0     C89795  12.724   1.662   6.635  0.6147 -0.3177 -0.6009
  666MOL0     C89796  12.825   1.561   6.635 -0.8134  0.7428  0.0570
  666MOL0     C89797  12.941   1.595   6.541 -0.4157 -0.2465 -0.7123
  666MOL0     C89798  13.066   1.497   6.548 -0.3386  0.4894 -0.6647
  666MOL0     O89799  13.154   1.538   6.654  1.0070 -0.5087  0.2073
  666MOL0     C89800  13.266   1.473   6.687  0.1572  0.2811 -0.2922
  666MOL0     C89801  13.333   1.508   6.811  0.9597  0.2535 -0.2599
  666MOL0     C89802  13.459   1.449   6.838 -0.8196 -0.5158 -0.2979
  666MOL0     C89803  13.528   1.374   6.749 -0.2860 -0.2524  0.3481
  666MOL0     C89804  13.666   1.319   6.783  0.0533  0.8038  0.2181
  666MOL0     O89805  13.733   1.265   6.677  0.7337  0.9836  0.5749
  666MOL0     C89806  13.854   1.202   6.667 -0.0143 -0.9412 -0.7357
  666MOL0     C89807  13.934   1.173   6.781 -0.1229  0.0837 -0.9523
  666MOL0     C89808  14.042   1.080   6.763  0.0199  0.7023  0.8915
  666MOL0     C89809  14.076   1.033   6.635 -0.4037 -0.7017  0.2224
  666MOL0     O89810  14.177   0.943   6.625 -0.2592 -0.0698  1.1515
  666MOL0     C89811  14.278   0.909   6.725  0.2843  0.1359  1.0118
  666MOL0     C89812  14.367   1.028   6.752 -0.0184  0.2106 -0.0288
  666MOL0     C89813  14.435   1.080   6.624 -0.0488 -0.0053  0.4095
  666MOL0     C89814  14.542   1.176   6.654  0.3989  0.4639  0.2332
  666MOL0     C89815  14.612   1.234   6.531 -0.4187 -0.5588 -0.6854
  666MOL0     C89816  14.724   1.333   6.582  0.5918 -0.6188  0.0858
  666MOL0     C89817  14.756   1.445   6.472 -0.7274  0.0176  0.8914
  666MOL0     C89818  14.864   1.538   6.516 -0.9729  0.8166 -0.1801
  666MOL0    Cl89819  15.029   1.483   6.485  0.0296 -0.5464  0.3351
  666MOL0     C89820  14.007   1.078   6.524 -0.0381 -0.4182  0.1239
  666MOL0     C89821  13.891   1.161   6.542  0.1368  0.5661 -0.2677
  666MOL0     O89822  13.715   1.358   6.885 -0.3560  0.5411 -0.1452
  666MOL0     C89823  13.465   1.351   6.621 -1.2568  0.5873 -0.2946
  666MOL0     C89824  13.335   1.395   6.595 -0.4762 -0.4576 -0.4018
  666MOL0     N89825  12.499   1.542   6.577  0.5962 -0.4361 -0.4233
  666MOL0     N89826  12.387   1.515   6.636 -0.7611  0.0970 -0.3998
  666MOL0     C89827  11.290   1.481   6.858  0.4612  0.7473  0.0647
  666MOL0     C89828  11.150   1.512   6.844 -0.0047  0.2416  0.4341
  666MOL0     C89829  10.731   1.525   6.905 -0.2231 -0.3710  0.2694
  666MOL0     C89830  10.734   1.523   6.763 -0.2475 -0.1778  0.6433
  666MOL0     C89831  10.632   1.468   6.683  0.4764  0.1388  0.5216
  666MOL0     C89832  10.511   1.438   6.740 -0.3454 -0.4222  0.7334
  666MOL0     O89833  10.405   1.403   6.658  0.1772  0.0713  0.4345
  666MOL0     C89834  10.418   1.275   6.582  0.7786 -0.2637 -1.2446
  666MOL0     C89835  10.364   1.292   6.440  0.1562  0.4752  0.2797
  666MOL0     C89836  10.471   1.348   6.347 -0.7401 -0.1816 -0.5004
  666MOL0     C89837  10.461   1.310   6.204  0.6559  0.2300  0.2067
  666MOL0     C89838  10.541   1.412   6.134 -0.3542  0.2954 -0.1008
  666MOL0     C89839  10.606   1.500   6.082 -1.2284 -0.3586  0.6867
  666MOL0     C89840  10.487   1.460   6.879  0.5594 -1.0422  0.3628
  666MOL0     C89841  10.600   1.498   6.960  0.0150  0.2470  0.0747
  666MOL0     C89842  10.574   1.521   7.105  0.6252  0.0124  0.9090
  666MOL0     H89843  11.111   1.656   7.141 -2.3760 -3.6467  0.9189
  666MOL0     H89844  11.326   1.599   7.169 -2.0610  4.4046 -0.9886
  666MOL0     H89845  11.601   1.591   7.106 -1.4293  0.2883  1.4060
  666MOL0     H89846  11.530   1.462   7.191  2.0866  2.3142  0.5757
  666MOL0     H89847  11.697   1.359   6.967  1.8834  0.7155  0.0042
  666MOL0     H89848  11.682   1.295   7.123 -0.0969 -0.1625 -1.1009
  666MOL0     H89849  11.816   1.459   7.226  0.1476  1.9966  0.0853
  666MOL0     H89850  11.844   1.554   7.074  1.5197 -0.5150 -1.9611
  666MOL0     H89851  12.014   1.374   7.154 -2.3136  1.8463  2.3973
  666MOL0     H89852  11.903   1.258   7.070 -0.0462 -0.6449  3.2023
  666MOL0     H89853  12.071   1.324   6.918 -4.5655 -3.4045 -1.1483
  666MOL0     H89854  11.925   1.395   6.871 -2.9949 -2.6395  2.7768
  666MOL0     H89855  11.985   1.621   6.924 -1.6573 -0.4655  0.2714
  666MOL0     H89856  12.094   1.577   7.049  0.2793  0.3466 -0.4231
  666MOL0     H89857  12.216   1.671   6.849  0.1331  0.4727  0.1928
  666MOL0     H89858  12.136   1.547   6.745 -2.3560  0.8635  0.5646
  666MOL0     H89859  12.335   1.493   6.977  0.1177 -0.4095  0.2540
  666MOL0     H89860  12.276   1.387   6.852 -1.3085  0.4932 -1.2365
  666MOL0     H89861  12.565   1.629   6.882 -0.4227  1.2756 -0.0736
  666MOL0     H89862  12.722   1.708   6.536 -0.8161 -0.8042 -0.8140
  666MOL0     H89863  12.750   1.748   6.698  0.7481 -0.9117  0.1688
  666MOL0     H89864  12.836   1.541   6.742 -4.7785 -1.5073  0.2375
  666MOL0     H89865  12.789   1.471   6.585 -2.1114  0.3988  1.5225
  666MOL0     H89866  12.976   1.699   6.546  0.9345 -0.7280  1.1135
  666MOL0     H89867  12.902   1.584   6.439  0.8206 -0.2584 -1.2135
  666MOL0     H89868  13.115   1.511   6.451  1.2249 -0.5796 -0.0682
  666MOL0     H89869  13.028   1.397   6.568 -0.8359  1.5187  5.3981
  666MOL0     H89870  13.279   1.576   6.875 -0.3789 -0.1507 -0.9234
  666MOL0     H89871  13.504   1.485   6.930  1.8289 -0.2595 -1.5799
  666MOL0     H89872  13.902   1.205   6.880  1.2233  1.7782 -1.0167
  666MOL0     H89873  14.112   1.055   6.843  1.3363  0.1165 -0.3921
  666MOL0     H89874  14.235   0.871   6.819  0.1335 -0.4684  0.7035
  666MOL0     H89875  14.339   0.827   6.685 -2.3196 -0.3876 -2.3561
  666MOL0     H89876  14.315   1.107   6.806 -0.2804  0.3784 -0.5161
  666MOL0     H89877  14.443   1.003   6.827 -1.5723 -1.7129  0.9870
  666MOL0     H89878  14.469   0.993   6.567 -0.9537  2.0142 -3.6300
  666MOL0     H89879  14.359   1.121   6.556  0.5940 -2.7302 -2.1589
  666MOL0     H89880  14.613   1.129   6.722 -1.0683 -0.0057  1.4813
  666MOL0     H89881  14.496   1.256   6.713 -0.5350 -1.2034  1.8702
  666MOL0     H89882  14.533   1.283   6.474 -0.7501 -0.1207  0.1488
  666MOL0     H89883  14.664   1.162   6.467  0.0884 -0.0709 -0.8411
  666MOL0     H89884  14.688   1.396   6.664 -0.0452  0.6653 -1.1585
  666MOL0     H89885  14.808   1.277   6.626  0.8868 -0.0562  0.2603
  666MOL0     H89886  14.662   1.499   6.457 -0.6525  0.1403  0.8665
  666MOL0     H89887  14.782   1.396   6.377 -2.0218 -1.6566  1.3453
  666MOL0     H89888  14.848   1.628   6.456  0.8372 -0.2086 -2.3017
  666MOL0     H89889  14.854   1.566   6.622  0.6336  1.6368 -0.2143
  666MOL0     H89890  14.043   1.058   6.423 -0.3172 -2.1770  0.3362
  666MOL0     H89891  13.831   1.188   6.455  0.9675  0.5033 -0.8800
  666MOL0     H89892  13.524   1.299   6.546 -1.0987  0.2308  0.0744
  666MOL0     H89893  13.287   1.379   6.499 -1.2123  1.0178 -0.3210
  666MOL0     H89894  11.346   1.437   6.776 -1.4514  1.3021 -1.6383
  666MOL0     H89895  11.098   1.486   6.752  0.7661 -0.1069  0.0858
  666MOL0     H89896  10.823   1.543   6.704  1.3342  0.7164  3.1778
  666MOL0     H89897  10.653   1.452   6.578  0.6225  0.3632  0.5176
  666MOL0     H89898  10.356   1.199   6.630 -0.2634  1.7280  0.7865
  666MOL0     H89899  10.519   1.235   6.567  0.8005 -0.0158 -1.7465
  666MOL0     H89900  10.278   1.360   6.443  1.2276  1.8463  1.0526
  666MOL0     H89901  10.334   1.193   6.404 -0.6540  0.6602  0.4319
  666MOL0     H89902  10.575   1.330   6.376  0.3010  2.4311 -2.2628
  666MOL0     H89903  10.463   1.456   6.361  0.9481 -0.0962  0.0800
  666MOL0     H89904  10.492   1.208   6.180 -0.6113  0.1896 -1.4289
  666MOL0     H89905  10.358   1.310   6.167 -0.3280 -0.9160  2.7456
  666MOL0     H89906  10.666   1.576   6.037 -1.7564 -0.1713  0.2964
  666MOL0     H89907  10.393   1.440   6.929  1.6571 -1.4546  2.3561
  666MOL0     H89908  10.473   1.559   7.123  0.1402  1.6226 -3.8934
  666MOL0     H89909  10.590   1.433   7.169  3.3000  0.3708  0.8800
  666MOL0     H89910  10.628   1.605   7.150  0.8802 -0.1416  0.8927
  667MOL0     O89911   7.633   2.479   4.351  0.0491 -0.5953  0.2598
  667MOL0     C89912   7.543   2.540   4.410 -0.0062 -0.2205 -0.5387
  667MOL0     O89913   7.549   2.672   4.442  0.3047 -0.2191 -0.0078
  667MOL0     C89914   7.669   2.737   4.426  0.1335  0.4645  0.1363
  667MOL0     C89915   7.796   2.677   4.469 -0.5245 -1.1308 -0.3208
  667MOL0     C89916   7.916   2.736   4.416 -0.2610 -0.3967  0.2654
  667MOL0     C89917   7.923   2.865   4.355 -0.9214  0.0191  1.1426
  667MOL0     O89918   8.035   2.925   4.296  0.0502 -0.0994  0.0511
  667MOL0     C89919   8.148   2.923   4.382  1.3977  0.2329 -0.0427
  667MOL0     C89920   8.251   3.036   4.339 -0.3987  0.4528  0.3538
  667MOL0     C89921   8.311   2.993   4.202  0.0661 -0.2027 -0.0596
  667MOL0     C89922   8.424   3.095   4.178 -0.3237  0.3206 -0.6846
  667MOL0     C89923   8.512   3.068   4.057 -0.9947 -0.0950 -1.1650
  667MOL0     C89924   8.574   2.922   4.061  0.8473 -0.0624 -0.5098
  667MOL0     C89925   8.685   2.923   3.951 -0.6271  0.2016 -0.3101
  667MOL0     C89926   8.775   2.798   3.958 -0.0314  0.7129  0.7494
  667MOL0     N89927   8.891   2.810   4.051 -0.1529 -1.1416  0.1256
  667MOL0     C89928   8.891   2.791   4.183 -0.9590  0.5369 -0.2268
  667MOL0     C89929   9.023   2.803   4.217 -1.0245  0.6279  1.2890
  667MOL0     C89930   9.081   2.778   4.356 -0.2350  0.0697 -0.0891
  667MOL0     C89931   9.100   2.911   4.437  0.5298  0.0641  0.4264
  667MOL0     C89932   9.181   3.014   4.363 -0.4100 -0.8874 -0.5879
  667MOL0     C89933   9.317   2.959   4.310  0.0622 -0.5398  0.3242
  667MOL0     O89934   9.399   2.906   4.410  0.7774 -0.4967 -0.6835
  667MOL0     C89935   9.491   2.981   4.475 -0.0824  0.6785 -1.3213
  667MOL0     C89936   9.588   2.905   4.545  0.1994 -0.3144  0.6412
  667MOL0     C89937   9.700   2.970   4.596 -0.2672 -0.6769 -0.6026
  667MOL0     C89938   9.728   3.100   4.574 -0.1863 -0.0982 -0.5276
  667MOL0     C89939   9.863   3.155   4.613 -0.0752 -0.2552 -0.7371
  667MOL0     O89940   9.965   3.065   4.634  0.1429 -0.1820 -0.9910
  667MOL0     C89941  10.097   3.097   4.632 -0.6307 -0.7143 -0.1253
  667MOL0     C89942  10.158   3.192   4.548  0.2673  0.6833 -0.1243
  667MOL0     C89943  10.296   3.215   4.556  0.8074 -0.1477  0.6493
  667MOL0     C89944  10.384   3.144   4.627  0.1900  0.0830 -0.3931
  667MOL0     O89945  10.511   3.185   4.624  0.0681 -0.5190 -0.0440
  667MOL0     C89946  10.604   3.088   4.674  0.5706  0.8848  0.6610
  667MOL0     C89947  10.728   3.111   4.595 -0.1770  0.5335  0.6931
  667MOL0     C89948  10.842   3.002   4.622  0.0466  0.2537  0.8090
  667MOL0     C89949  10.804   2.867   4.555 -0.6674  0.0115 -0.2601
  667MOL0     C89950  10.876   2.753   4.621 -0.1440 -0.2956  0.2026
  667MOL0     C89951  10.803   2.618   4.601  0.1406  0.0535 -0.5377
  667MOL0     C89952  10.820   2.556   4.464  0.4756  0.0666  0.3444
  667MOL0     C89953  10.754   2.420   4.464  0.5677  0.2212 -0.9483
  667MOL0    Cl89954  10.585   2.442   4.430 -0.3744 -0.4994 -0.5044
  667MOL0     C89955  10.321   3.045   4.717 -0.4235  0.7287  0.6280
  667MOL0     C89956  10.185   3.024   4.709 -0.1208  0.2273  0.0474
  667MOL0     O89957   9.881   3.270   4.616  0.5341 -0.5051  0.1175
  667MOL0     C89958   9.636   3.177   4.507 -0.4959  0.2863 -0.1451
  667MOL0     C89959   9.518   3.115   4.464 -0.6787  0.1653  0.2504
  667MOL0     N89960   9.100   2.832   4.101 -0.2342 -0.3768 -0.5781
  667MOL0     N89961   9.015   2.837   4.002  0.6445 -0.1774  0.5814
  667MOL0     C89962   7.802   2.920   4.318  0.3248  0.2251 -0.7471
  667MOL0     C89963   7.681   2.858   4.346  0.8361  0.6574  0.4842
  667MOL0     C89964   7.423   2.464   4.447 -0.2310  0.2953 -0.4345
  667MOL0     C89965   7.435   2.326   4.468 -0.1084 -0.2875  0.8601
  667MOL0     C89966   7.320   2.247   4.515 -1.2676 -0.9613  0.0419
  667MOL0     C89967   7.197   2.307   4.532 -0.7067 -0.4733  0.5601
  667MOL0     O89968   7.084   2.251   4.580  1.0240  0.2995  0.1723
  667MOL0     C89969   7.090   2.124   4.642 -0.2211 -0.2791 -0.5998
  667MOL0     C89970   6.954   2.067   4.681 -0.3155  0.2792 -0.2169
  667MOL0     C89971   6.893   2.143   4.796 -0.3857  0.6249  0.1368
  667MOL0     C89972   6.756   2.066   4.826  0.3391  0.4291 -0.3924
  667MOL0     C89973   6.759   1.923   4.838  0.8971  0.9054 -0.7256
  667MOL0     C89974   6.755   1.801   4.838  0.2120 -0.0349 -0.0107
  667MOL0     C89975   7.181   2.443   4.498 -0.1835  0.0270 -0.0622
  667MOL0     C89976   7.296   2.524   4.459  0.4807  0.0111  0.0186
  667MOL0     C89977   7.267   2.663   4.415 -0.1693 -0.5648 -0.7061
  667MOL0     H89978   7.801   2.585   4.525 -1.3462  0.2333  2.1247
  667MOL0     H89979   8.000   2.674   4.446 -0.8598 -0.6733  1.4381
  667MOL0     H89980   8.119   2.949   4.484 -1.1684  4.4093 -1.5537
  667MOL0     H89981   8.197   2.826   4.378 -1.1047 -1.1228  0.3312
  667MOL0     H89982   8.333   3.043   4.411  0.2131  3.2081 -0.4806
  667MOL0     H89983   8.202   3.134   4.334 -0.3379  0.5441  1.4637
  667MOL0     H89984   8.229   3.012   4.132 -1.0688  3.3196  1.9361
  667MOL0     H89985   8.336   2.887   4.202 -2.1566 -0.8038  1.1545
  667MOL0     H89986   8.372   3.185   4.143 -0.6842  0.2689 -0.2834
  667MOL0     H89987   8.494   3.117   4.259  0.6139  1.3151 -1.7262
  667MOL0     H89988   8.451   3.064   3.967 -1.8222 -2.5567 -0.5733
  667MOL0     H89989   8.593   3.141   4.041  1.1274 -1.8863  0.6682
  667MOL0     H89990   8.606   2.908   4.165 -1.5131  2.9445  0.7573
  667MOL0     H89991   8.510   2.837   4.036  3.0102 -2.1194  0.5593
  667MOL0     H89992   8.758   3.004   3.963  0.7617 -1.3869  3.0819
  667MOL0     H89993   8.649   2.925   3.847  1.0558  5.0637 -1.0717
  667MOL0     H89994   8.719   2.708   3.983  0.3294 -0.7594 -3.0680
  667MOL0     H89995   8.816   2.780   3.858  3.2761 -0.1098  2.1268
  667MOL0     H89996   8.810   2.768   4.250 -0.3555 -0.3448  0.2201
  667MOL0     H89997   9.006   2.718   4.409 -2.7888  2.6008 -0.6119
  667MOL0     H89998   9.173   2.721   4.341 -1.5407 -1.7185 -1.9040
  667MOL0     H89999   8.997   2.947   4.453  0.6010  0.5682 -0.2149
  667MOL0     H90000   9.142   2.890   4.536 -0.1810 -0.5211  0.6148
  667MOL0     H90001   9.201   3.100   4.427  2.9398 -2.5248  0.7697
  667MOL0     H90002   9.124   3.050   4.276  3.3751  0.6687 -2.6962
  667MOL0     H90003   9.365   3.037   4.251 -2.9464  0.3112 -1.2478
  667MOL0     H90004   9.296   2.874   4.244  0.8566  0.2872 -1.0301
  667MOL0     H90005   9.577   2.798   4.558 -0.8814 -0.5241 -1.5908
  667MOL0     H90006   9.758   2.899   4.654 -1.9393 -0.8505  0.9374
  667MOL0     H90007  10.092   3.248   4.483 -3.2017 -2.7157  0.1126
  667MOL0     H90008  10.330   3.292   4.488  0.7878 -0.7214 -0.0349
  667MOL0     H90009  10.622   3.102   4.781 -0.8900 -3.0361  1.5829
  667MOL0     H90010  10.559   2.991   4.651 -1.6248  1.9202  0.3505
  667MOL0     H90011  10.699   3.109   4.490  1.1646 -0.9593  0.3142
  667MOL0     H90012  10.769   3.211   4.616  0.2806  0.7119 -0.9144
  667MOL0     H90013  10.937   3.043   4.586 -0.2297 -0.4562 -0.8653
  667MOL0     H90014  10.862   2.985   4.728  0.3334  0.5341  0.8012
  667MOL0     H90015  10.832   2.870   4.449  1.1398  2.6841  0.1798
  667MOL0     H90016  10.696   2.855   4.559 -0.7586  1.0113  0.7845
  667MOL0     H90017  10.890   2.783   4.725 -1.3526  0.9156  0.0534
  667MOL0     H90018  10.977   2.750   4.580 -0.9199  0.8604 -2.0107
  667MOL0     H90019  10.850   2.549   4.673 -2.7584  1.2143  2.7365
  667MOL0     H90020  10.695   2.630   4.614 -0.0348 -0.6922 -1.2438
  667MOL0     H90021  10.923   2.541   4.429 -0.3754 -0.6705 -2.0137
  667MOL0     H90022  10.773   2.616   4.386  0.3344  0.2306  0.5545
  667MOL0     H90023  10.792   2.348   4.391  0.5445 -0.0265 -0.7186
  667MOL0     H90024  10.775   2.367   4.558  2.3751  0.6558 -1.0619
  667MOL0     H90025  10.387   2.980   4.774  0.1816 -1.1719 -2.0181
  667MOL0     H90026  10.144   2.949   4.777  4.0224 -1.1514  1.2989
  667MOL0     H90027   9.649   3.285   4.503  2.9472 -0.0666 -2.7938
  667MOL0     H90028   9.449   3.185   4.417 -0.4784  0.9819  1.1467
  667MOL0     H90029   7.802   3.016   4.268  2.0858 -0.6910 -2.6596
  667MOL0     H90030   7.587   2.903   4.315 -1.4604 -1.2334  4.1257
  667MOL0     H90031   7.526   2.269   4.453 -0.4953 -0.5467 -0.5985
  667MOL0     H90032   7.322   2.139   4.521  3.3815 -1.0455  0.3360
  667MOL0     H90033   7.155   2.125   4.730 -1.2961  1.1656  0.2054
  667MOL0     H90034   7.142   2.057   4.572  3.3161  0.6454  0.9290
  667MOL0     H90035   6.965   1.960   4.703 -0.1418  1.0344  4.3826
  667MOL0     H90036   6.882   2.081   4.600 -0.8367 -2.1106 -0.2329
  667MOL0     H90037   6.877   2.245   4.759 -0.2457 -0.3457 -2.8536
  667MOL0     H90038   6.953   2.134   4.887 -1.7644 -0.2354  0.9867
  667MOL0     H90039   6.711   2.118   4.911 -0.5572  3.0189 -2.2980
  667MOL0     H90040   6.689   2.096   4.744  0.9884  0.0092 -1.0897
  667MOL0     H90041   6.753   1.694   4.824 -1.7138  0.1407 -1.4789
  667MOL0     H90042   7.083   2.484   4.518  0.3840  1.8393 -0.7814
  667MOL0     H90043   7.305   2.693   4.317 -3.1143 -0.2980 -1.8939
  667MOL0     H90044   7.161   2.692   4.416  0.0777  1.0159 -4.1292
  667MOL0     H90045   7.314   2.731   4.487 -2.0579 -1.2609  1.2818
  668MOL0     O90046   0.631   3.327   7.606  0.7524  0.4853 -0.9038
  668MOL0     C90047   0.642   3.445   7.609 -0.5675 -0.8791  0.3779
  668MOL0     O90048   0.747   3.520   7.557 -0.0596  0.0746 -0.5697
  668MOL0     C90049   0.870   3.456   7.535  0.3438 -0.7706 -0.5862
  668MOL0     C90050   0.938   3.511   7.423 -0.0293  0.9740  0.7796
  668MOL0     C90051   1.060   3.458   7.375 -0.4993 -0.2053 -0.6200
  668MOL0     C90052   1.127   3.360   7.459  0.0795 -0.6902  0.6844
  668MOL0     O90053   1.243   3.298   7.428  0.3734  0.6139 -0.7032
  668MOL0     C90054   1.324   3.354   7.331  0.2137  0.1201  0.4055
  668MOL0     C90055   1.470   3.307   7.355 -0.2990 -0.3582  0.3171
  668MOL0     C90056   1.482   3.159   7.308  0.9742  0.3525  0.1927
  668MOL0     C90057   1.577   3.063   7.383 -0.0791  0.8278  0.1432
  668MOL0     C90058   1.608   2.931   7.319 -0.2218  1.2156 -0.2229
  668MOL0     C90059   1.694   2.840   7.396  0.0612 -0.0029  0.2429
  668MOL0     C90060   1.820   2.908   7.443  0.2383 -0.4859 -0.0557
  668MOL0     C90061   1.905   2.800   7.508 -0.2427 -0.2580  0.7202
  668MOL0     N90062   1.942   2.684   7.430  0.1890  0.2907  0.5614
  668MOL0     C90063   2.043   2.680   7.335 -0.1353  0.7893  0.7326
  668MOL0     C90064   2.034   2.555   7.286  0.4430  0.1033  0.6480
  668MOL0     C90065   2.089   2.507   7.159 -0.3885 -0.0417  0.3307
  668MOL0     C90066   2.237   2.538   7.142  0.7212 -0.4353  0.2651
  668MOL0     C90067   2.275   2.499   6.994  0.6120 -0.6987 -0.3354
  668MOL0     C90068   2.418   2.453   6.980 -0.8501  0.6370  0.2733
  668MOL0     O90069   2.516   2.551   7.012  0.7756 -0.0452 -0.0517
  668MOL0     C90070   2.644   2.518   6.983 -0.4732  0.4127 -0.5715
  668MOL0     C90071   2.730   2.514   7.096  0.5003 -0.2322  0.7794
  668MOL0     C90072   2.860   2.456   7.079  0.4573  1.1156  0.1408
  668MOL0     C90073   2.910   2.427   6.949 -0.4013  0.0100 -0.0863
  668MOL0     C90074   3.055   2.405   6.933  0.6412  0.0561 -0.3558
  668MOL0     O90075   3.139   2.419   7.035  0.2813 -0.3339 -0.2088
  668MOL0     C90076   3.264   2.368   7.033 -0.5864  0.4070 -0.9466
  668MOL0     C90077   3.276   2.228   7.032  0.0525 -0.2480  0.3702
  668MOL0     C90078   3.402   2.173   7.039 -0.4471 -0.6136  0.2591
  668MOL0     C90079   3.520   2.245   7.039  0.0443  1.1621 -0.6829
  668MOL0     O90080   3.643   2.189   7.023  0.1810 -0.2776 -0.2594
  668MOL0     C90081   3.667   2.052   6.984  0.3754 -0.0041  0.6575
  668MOL0     C90082   3.806   2.024   7.025 -0.4169  0.7521 -0.6088
  668MOL0     C90083   3.913   2.028   6.911 -0.4367  0.3434  0.5503
  668MOL0     C90084   4.051   1.986   6.967  0.1910  0.1419  0.4223
  668MOL0     C90085   4.151   1.977   6.858  0.3822 -0.0073 -0.0586
  668MOL0     C90086   4.260   1.876   6.897  0.6240  1.1521 -0.0643
  668MOL0     C90087   4.357   1.866   6.786 -0.7826  0.4755 -0.5944
  668MOL0     C90088   4.473   1.762   6.802 -0.1996 -0.2397  0.3839
  668MOL0    Cl90089   4.417   1.594   6.782 -0.0516  0.1753  0.0814
  668MOL0     C90090   3.508   2.384   7.048  0.3463 -0.4511  0.1116
  668MOL0     C90091   3.381   2.444   7.045  0.2016  0.3082  0.1564
  668MOL0     O90092   3.087   2.357   6.827  0.5697 -0.3561 -0.3858
  668MOL0     C90093   2.826   2.447   6.835 -0.6492  1.1378  1.0518
  668MOL0     C90094   2.692   2.478   6.849 -0.3760 -0.6118  0.6881
  668MOL0     N90095   1.930   2.489   7.356 -0.1563  0.8822  0.5723
  668MOL0     N90096   1.878   2.569   7.431 -0.5376  0.5381 -0.2856
  668MOL0     C90097   1.064   3.317   7.575 -0.2738  0.9967  0.1118
  668MOL0     C90098   0.935   3.359   7.612  0.2479 -0.5604  0.1518
  668MOL0     C90099   0.536   3.539   7.657 -0.8535  0.0074  0.3934
  668MOL0     C90100   0.573   3.670   7.710 -0.9708 -0.2658  0.1475
  668MOL0     C90101   0.475   3.756   7.757  0.1636  0.4721 -0.1210
  668MOL0     C90102   0.345   3.715   7.761 -0.1553 -0.3210  0.4609
  668MOL0     O90103   0.243   3.801   7.806 -0.6126 -0.1015 -0.1033
  668MOL0     C90104   0.275   3.941   7.822  0.8966 -0.3112  0.1698
  668MOL0     C90105   0.148   3.999   7.886  0.1743 -0.5481  0.1757
  668MOL0     C90106   0.034   4.026   7.800 -0.3020 -0.5279  0.2808
  668MOL0     C90107  -0.082   4.085   7.880 -0.1845  0.5245 -0.1111
  668MOL0     C90108  -0.153   3.977   7.943  0.1536 -0.1682  0.2828
  668MOL0     C90109  -0.196   3.886   8.009  1.3775 -0.0247 -0.4126
  668MOL0     C90110   0.307   3.596   7.703 -0.8106  0.3611 -0.8902
  668MOL0     C90111   0.402   3.508   7.652  0.0218  0.1941  0.3833
  668MOL0     C90112   0.354   3.365   7.613  0.1671  1.1714 -0.0727
  668MOL0     H90113   0.879   3.588   7.374  1.0103  1.3464  0.0760
  668MOL0     H90114   1.103   3.499   7.284 -2.5943  2.3188 -0.5799
  668MOL0     H90115   1.280   3.321   7.236 -0.8456 -3.4089  1.9789
  668MOL0     H90116   1.327   3.463   7.329 -1.6511  0.3165 -4.1035
  668MOL0     H90117   1.493   3.305   7.462  2.2372 -0.9999 -0.1603
  668MOL0     H90118   1.534   3.371   7.294 -0.1844 -1.5979 -0.9214
  668MOL0     H90119   1.520   3.168   7.206 -1.3660 -0.9542 -0.8737
  668MOL0     H90120   1.383   3.113   7.319  2.5049 -3.8382 -1.7094
  668MOL0     H90121   1.669   3.123   7.387  1.5211 -1.3864 -1.1990
  668MOL0     H90122   1.540   3.047   7.485  2.3148 -2.4457  0.6713
  668MOL0     H90123   1.511   2.891   7.289  0.8083  0.2033 -2.4485
  668MOL0     H90124   1.658   2.951   7.223 -0.5390 -0.3812 -0.7498
  668MOL0     H90125   1.643   2.809   7.488 -0.6049 -2.2304 -0.8165
  668MOL0     H90126   1.718   2.752   7.337 -3.2497 -1.1518  0.4102
  668MOL0     H90127   1.805   2.981   7.523 -0.8251 -1.9029  1.0840
  668MOL0     H90128   1.875   2.962   7.365 -1.3106 -2.0369 -2.3201
  668MOL0     H90129   2.000   2.847   7.532 -0.8973  0.9310  1.0587
  668MOL0     H90130   1.856   2.767   7.600  0.1258  1.8773  1.7311
  668MOL0     H90131   2.099   2.756   7.281 -0.1039 -0.2363 -0.7063
  668MOL0     H90132   2.097   2.398   7.159  1.9340  0.0771  1.0008
  668MOL0     H90133   2.036   2.549   7.073  0.5793  1.3919  0.4065
  668MOL0     H90134   2.270   2.641   7.154  1.2625  0.1598 -4.5839
  668MOL0     H90135   2.298   2.471   7.204 -0.0733 -0.1572  1.3683
  668MOL0     H90136   2.251   2.578   6.922 -3.5259 -0.2986  1.2446
  668MOL0     H90137   2.214   2.413   6.965 -2.1407  1.8458 -2.7543
  668MOL0     H90138   2.443   2.419   6.879  0.2216 -1.2813  1.1474
  668MOL0     H90139   2.432   2.370   7.049  0.3890 -0.5577 -1.3533
  668MOL0     H90140   2.684   2.526   7.194 -2.6864 -3.3997 -0.1126
  668MOL0     H90141   2.925   2.464   7.165 -0.0911 -2.7515  1.0758
  668MOL0     H90142   3.188   2.163   7.036 -0.8658  0.9389  0.0328
  668MOL0     H90143   3.416   2.067   7.059  0.0442 -0.4151  0.9882
  668MOL0     H90144   3.600   1.980   7.031 -0.8061  1.7842  1.8457
  668MOL0     H90145   3.657   2.044   6.875  2.3856  0.7758  0.3823
  668MOL0     H90146   3.836   2.103   7.094 -0.1243 -0.1963  0.3780
  668MOL0     H90147   3.804   1.930   7.081 -0.2659  2.1963  1.9799
  668MOL0     H90148   3.888   1.959   6.830 -0.9374  0.3265  0.7173
  668MOL0     H90149   3.915   2.128   6.866  0.1532  1.7585  3.4628
  668MOL0     H90150   4.042   1.900   7.033 -0.3161 -0.4431 -0.4001
  668MOL0     H90151   4.085   2.071   7.027  0.1970  1.0591 -0.8302
  668MOL0     H90152   4.188   2.079   6.847 -2.1777  0.9936 -0.0219
  668MOL0     H90153   4.110   1.942   6.763  1.7067 -1.5839 -0.0999
  668MOL0     H90154   4.307   1.901   6.992 -0.3940 -0.0171  0.7852
  668MOL0     H90155   4.212   1.778   6.904 -0.6108  1.8291  1.8082
  668MOL0     H90156   4.401   1.966   6.778  0.2970  0.3224  2.1411
  668MOL0     H90157   4.303   1.848   6.693 -2.2528 -3.3925  0.7960
  668MOL0     H90158   4.557   1.788   6.737 -0.9081  2.2947  0.3822
  668MOL0     H90159   4.506   1.759   6.906 -2.2334  0.4301  1.1012
  668MOL0     H90160   3.603   2.436   7.044  0.2541 -0.3483 -1.0204
  668MOL0     H90161   3.370   2.552   7.049 -3.0215  0.0283  2.0750
  668MOL0     H90162   2.869   2.436   6.736 -0.3281  2.1888  1.0625
  668MOL0     H90163   2.632   2.493   6.760  0.9477 -2.7159 -0.6276
  668MOL0     H90164   1.121   3.240   7.627  3.4627  1.7664 -2.4409
  668MOL0     H90165   0.901   3.308   7.701  3.0445 -1.3089  0.9011
  668MOL0     H90166   0.675   3.706   7.719 -1.1530  0.9179 -1.9718
  668MOL0     H90167   0.501   3.854   7.795 -0.8353  0.4135  0.7834
  668MOL0     H90168   0.299   4.004   7.736 -2.5613  0.0105 -0.6750
  668MOL0     H90169   0.359   3.949   7.892  1.2309  3.8342 -0.4832
  668MOL0     H90170   0.182   4.090   7.937  3.1969 -2.6244  2.1861
  668MOL0     H90171   0.112   3.924   7.957 -1.6541 -0.5109 -0.6503
  668MOL0     H90172   0.002   3.926   7.767  0.2837 -1.4381  2.3146
  668MOL0     H90173   0.068   4.101   7.728  1.7588 -1.7422 -0.1180
  668MOL0     H90174  -0.056   4.162   7.953 -1.5942 -0.6702  1.7472
  668MOL0     H90175  -0.155   4.124   7.807 -1.2734 -2.0601 -0.5034
  668MOL0     H90176  -0.246   3.818   8.075 -1.9033 -1.3642 -3.9120
  668MOL0     H90177   0.209   3.553   7.720 -0.1563  0.1818  3.4602
  668MOL0     H90178   0.364   3.346   7.506 -1.4286 -0.4280 -0.0020
  668MOL0     H90179   0.403   3.285   7.670 -0.8968 -0.6548 -1.5880
  668MOL0     H90180   0.246   3.359   7.627 -0.1429  1.2280 -2.1816
  669MOL0     O90181   6.835   6.898   4.998  0.1153  0.4035  0.0246
  669MOL0     C90182   6.793   6.784   5.005  0.1740  0.1894  0.2921
  669MOL0     O90183   6.861   6.672   4.949  0.0988  1.3179 -0.0881
  669MOL0     C90184   6.957   6.696   4.857 -0.1510 -0.0517  1.3790
  669MOL0     C90185   6.929   6.633   4.735  0.0510 -0.2471 -0.7453
  669MOL0     C90186   7.029   6.645   4.638 -0.4336  0.3374  0.4747
  669MOL0     C90187   7.148   6.720   4.658  0.3407  0.6596  0.1693
  669MOL0     O90188   7.237   6.748   4.563  0.2179  0.0208  0.9172
  669MOL0     C90189   7.253   6.657   4.459 -0.0238  0.4404  0.6976
  669MOL0     C90190   7.392   6.685   4.383 -1.1964  0.0289 -0.2128
  669MOL0     C90191   7.464   6.559   4.329 -0.5177 -0.2078 -0.6067
  669MOL0     C90192   7.521   6.461   4.436  0.0691 -0.3620 -0.4983
  669MOL0     C90193   7.600   6.353   4.373  0.6030  0.1420 -0.0544
  669MOL0     C90194   7.695   6.278   4.461 -0.0119  0.3522  0.5553
  669MOL0     C90195   7.623   6.230   4.587  0.1075 -0.4728 -0.8709
  669MOL0     C90196   7.708   6.128   4.660  0.6248  0.3829 -0.1327
  669MOL0     N90197   7.828   6.192   4.713 -0.2707  0.8052 -0.3565
  669MOL0     C90198   7.831   6.285   4.816 -0.4666 -0.0686  0.1963
  669MOL0     C90199   7.959   6.347   4.804 -0.6437  0.6084  0.4825
  669MOL0     C90200   8.006   6.461   4.890  0.3623 -0.7041 -0.4874
  669MOL0     C90201   8.135   6.521   4.838 -1.0822 -0.1041  0.3741
  669MOL0     C90202   8.168   6.654   4.906  0.9381 -0.0519 -0.6474
  669MOL0     C90203   8.194   6.650   5.059 -0.2412 -0.2109 -0.4055
  669MOL0     O90204   8.293   6.561   5.103 -0.1904  0.1528 -0.1651
  669MOL0     C90205   8.424   6.601   5.097  0.2228  0.2548 -0.6897
  669MOL0     C90206   8.493   6.540   5.203  0.0180 -1.7110  0.4749
  669MOL0     C90207   8.629   6.565   5.219 -0.4388 -0.3779 -0.1016
  669MOL0     C90208   8.692   6.646   5.126  0.7806 -0.0019 -0.5256
  669MOL0     C90209   8.836   6.665   5.137  0.8242 -0.4605 -0.7535
  669MOL0     O90210   8.888   6.618   5.250  0.3543  0.6277  1.0607
  669MOL0     C90211   9.014   6.637   5.290  0.3368 -0.3791  0.3229
  669MOL0     C90212   9.038   6.584   5.419  0.3996  0.2833  0.4568
  669MOL0     C90213   9.153   6.602   5.480 -0.7552 -0.1245 -0.3231
  669MOL0     C90214   9.258   6.673   5.420  0.8840  0.0603 -0.1177
  669MOL0     O90215   9.365   6.707   5.496  0.2197 -0.1767  0.0034
  669MOL0     C90216   9.401   6.619   5.602  0.0119  0.6350  0.1313
  669MOL0     C90217   9.540   6.663   5.640 -0.6511  0.4092 -0.3076
  669MOL0     C90218   9.645   6.600   5.537 -0.4810 -0.2502 -0.0781
  669MOL0     C90219   9.784   6.592   5.598  1.0244  0.1010 -0.3879
  669MOL0     C90220   9.892   6.509   5.535  0.3304 -0.0110 -0.2313
  669MOL0     C90221   9.861   6.359   5.538 -0.7746  0.3297  0.0171
  669MOL0     C90222   9.977   6.278   5.470  0.0170 -0.6397  0.3381
  669MOL0     C90223   9.915   6.141   5.428 -0.3947 -0.2689  0.1936
  669MOL0    Cl90224  10.047   6.047   5.355  0.1643  0.1831 -0.0443
  669MOL0     C90225   9.237   6.728   5.288  0.2454  0.2176 -0.8855
  669MOL0     C90226   9.119   6.713   5.227 -0.0275 -0.1025 -0.0311
  669MOL0     O90227   8.892   6.718   5.046  0.2814  0.5121 -0.0653
  669MOL0     C90228   8.616   6.703   5.024  0.2592 -0.1424 -0.1812
  669MOL0     C90229   8.482   6.693   5.020 -0.4796  0.2279  0.7649
  669MOL0     N90230   8.025   6.275   4.706  0.3547 -0.5370 -0.3979
  669MOL0     N90231   7.943   6.195   4.646  0.1345  0.1868  0.1343
  669MOL0     C90232   7.162   6.793   4.774  0.6398 -0.1851 -0.8595
  669MOL0     C90233   7.070   6.780   4.876 -0.1034 -0.1907  0.1363
  669MOL0     C90234   6.661   6.757   5.061 -0.1275  0.9760 -0.0401
  669MOL0     C90235   6.628   6.621   5.082 -0.5710  0.6911 -0.4389
  669MOL0     C90236   6.495   6.577   5.113  0.6289  1.2277  0.5434
  669MOL0     C90237   6.393   6.670   5.132 -1.0798  0.3685  0.9096
  669MOL0     O90238   6.266   6.647   5.171 -0.7488  0.4767 -0.5808
  669MOL0     C90239   6.188   6.554   5.091 -0.1602 -0.0165  0.1514
  669MOL0     C90240   6.157   6.622   4.962 -0.5091 -1.2199 -0.1595
  669MOL0     C90241   6.069   6.541   4.868  0.5426 -0.2470  0.3927
  669MOL0     C90242   6.005   6.620   4.755  0.4404  0.2519  0.4634
  669MOL0     C90243   5.973   6.527   4.638  1.0853  0.2473 -0.7923
  669MOL0     C90244   5.931   6.456   4.551  1.0971  0.5896  0.0571
  669MOL0     C90245   6.428   6.805   5.118  0.7482  0.4884  0.4114
  669MOL0     C90246   6.561   6.854   5.095  0.1719 -0.2867  0.3906
  669MOL0     C90247   6.583   7.003   5.081  0.4945  0.9321 -0.0016
  669MOL0     H90248   6.837   6.578   4.725 -1.3621  1.9795 -0.7362
  669MOL0     H90249   7.003   6.595   4.545 -0.3004  4.4791 -2.0452
  669MOL0     H90250   7.248   6.551   4.485  0.8617  0.1901 -0.0861
  669MOL0     H90251   7.174   6.671   4.384 -0.3014  0.9132  1.0757
  669MOL0     H90252   7.462   6.728   4.454 -3.5498  0.7649  1.7950
  669MOL0     H90253   7.365   6.758   4.307 -1.3418 -0.5716 -0.7464
  669MOL0     H90254   7.539   6.591   4.256 -0.6896 -0.2447 -0.7997
  669MOL0     H90255   7.390   6.500   4.274 -0.9001 -3.4398  2.9486
  669MOL0     H90256   7.578   6.519   4.510 -0.8262  1.7418 -1.3777
  669MOL0     H90257   7.445   6.419   4.503 -1.4461  2.9355  0.0892
  669MOL0     H90258   7.527   6.283   4.330  1.1004 -0.6373  0.3590
  669MOL0     H90259   7.652   6.403   4.291 -1.1055  2.1036 -0.0157
  669MOL0     H90260   7.748   6.201   4.404 -0.0370  0.4147  0.4479
  669MOL0     H90261   7.771   6.350   4.493 -0.2719  1.4132 -1.1396
  669MOL0     H90262   7.528   6.187   4.555 -0.1127 -0.9722  0.3846
  669MOL0     H90263   7.605   6.316   4.653 -0.2375 -3.8501  3.8954
  669MOL0     H90264   7.656   6.085   4.747  0.9182  2.3577  1.0628
  669MOL0     H90265   7.740   6.047   4.593 -0.4023 -2.9424  3.0478
  669MOL0     H90266   7.739   6.299   4.871 -1.0228 -1.4589 -0.3436
  669MOL0     H90267   7.931   6.539   4.872  2.3137  1.5431  0.5886
  669MOL0     H90268   8.019   6.434   4.995  1.1087 -1.9508 -0.8841
  669MOL0     H90269   8.223   6.460   4.862 -0.7237  0.2460 -0.0203
  669MOL0     H90270   8.132   6.533   4.730  1.8305 -0.8047  0.1306
  669MOL0     H90271   8.077   6.714   4.894  0.7276 -0.3040 -0.3325
  669MOL0     H90272   8.258   6.698   4.862  1.9280  1.8478  2.8762
  669MOL0     H90273   8.105   6.607   5.106 -0.7257  0.9847 -0.1898
  669MOL0     H90274   8.202   6.744   5.113 -2.3289 -0.2116  0.0024
  669MOL0     H90275   8.436   6.471   5.264 -2.6723 -1.4229 -1.5046
  669MOL0     H90276   8.684   6.520   5.302 -2.2733  1.4240  2.2383
  669MOL0     H90277   8.967   6.521   5.470  1.1486 -0.9346  0.0507
  669MOL0     H90278   9.169   6.572   5.583  2.3002 -1.0297 -0.9723
  669MOL0     H90279   9.345   6.642   5.693 -0.7248 -0.7241  0.0519
  669MOL0     H90280   9.404   6.511   5.587 -0.2241  0.9010 -2.3651
  669MOL0     H90281   9.553   6.771   5.635  2.7184  0.0985 -0.8320
  669MOL0     H90282   9.568   6.627   5.740 -0.3345  1.1760 -0.1108
  669MOL0     H90283   9.610   6.500   5.507  0.0488 -0.0601 -1.3806
  669MOL0     H90284   9.649   6.653   5.442  0.7911 -2.1363 -1.1347
  669MOL0     H90285   9.770   6.537   5.692  0.1060 -0.7932 -1.0280
  669MOL0     H90286   9.819   6.694   5.617  0.4751  0.3993 -0.9498
  669MOL0     H90287   9.981   6.531   5.594  0.4605  5.5396 -1.9491
  669MOL0     H90288   9.904   6.534   5.429  1.5772  0.6144  0.0442
  669MOL0     H90289   9.854   6.326   5.642  0.9463  2.6400  0.9441
  669MOL0     H90290   9.761   6.348   5.495 -0.8881  0.8389  0.1476
  669MOL0     H90291  10.065   6.267   5.533 -1.0190 -0.6698  1.8504
  669MOL0     H90292  10.008   6.324   5.376  1.6527 -2.3001  0.0073
  669MOL0     H90293   9.869   6.087   5.511 -1.4718  0.0935 -0.1463
  669MOL0     H90294   9.833   6.152   5.356 -2.3557 -0.3990  2.2864
  669MOL0     H90295   9.321   6.784   5.247  2.7342 -1.9020  0.9634
  669MOL0     H90296   9.110   6.772   5.137  0.5986 -0.7377 -0.5222
  669MOL0     H90297   8.660   6.766   4.948  1.0244  1.1297  1.2609
  669MOL0     H90298   8.423   6.762   4.961  1.7716  2.5188  1.0497
  669MOL0     H90299   7.251   6.851   4.797 -0.3422  0.6793  0.9936
  669MOL0     H90300   7.088   6.835   4.968  0.7964 -1.1767  0.5709
  669MOL0     H90301   6.691   6.535   5.064 -1.5836 -0.3404  0.7375
  669MOL0     H90302   6.472   6.474   5.138 -1.3486  2.0909  2.6173
  669MOL0     H90303   6.088   6.542   5.134  0.2197 -1.1815  0.7534
  669MOL0     H90304   6.228   6.452   5.089 -1.2705 -0.4560 -1.2021
  669MOL0     H90305   6.249   6.643   4.907 -0.4454  0.9929  0.6812
  669MOL0     H90306   6.102   6.716   4.975 -2.6574 -2.4555  0.2243
  669MOL0     H90307   5.990   6.494   4.928  0.7093  0.2230  0.9920
  669MOL0     H90308   6.133   6.462   4.829  2.0471  1.6147 -1.0959
  669MOL0     H90309   5.906   6.657   4.785  0.5868 -1.9107  4.4226
  669MOL0     H90310   6.065   6.706   4.725  3.1307 -2.2818 -2.0773
  669MOL0     H90311   5.892   6.393   4.474  0.3598  0.3515  0.6018
  669MOL0     H90312   6.349   6.879   5.130 -0.8899 -1.1012 -0.2388
  669MOL0     H90313   6.565   7.038   4.978  0.7485  0.4753 -0.2041
  669MOL0     H90314   6.510   7.056   5.144  0.4210 -1.2358  1.8403
  669MOL0     H90315   6.675   7.041   5.126 -0.2081 -0.2964  2.6133
  670MOL0     O90316   7.613   9.958   8.509  0.5884  0.1474 -0.5470
  670MOL0     C90317   7.624  10.041   8.422 -0.0118 -0.6860 -0.2388
  670MOL0     O90318   7.739  10.119   8.411  0.1610  0.3205  0.5524
  670MOL0     C90319   7.848  10.077   8.489  0.4431  0.7577  0.6725
  670MOL0     C90320   7.853  10.086   8.626  0.9258  0.3724  0.3207
  670MOL0     C90321   7.970  10.043   8.695  0.6339  0.2704  0.4426
  670MOL0     C90322   8.079  10.009   8.613 -0.7025 -0.6439 -1.2010
  670MOL0     O90323   8.203   9.978   8.673  0.0935 -0.4503  0.0008
  670MOL0     C90324   8.229   9.980   8.811  0.6290  0.4759 -0.0365
  670MOL0     C90325   8.372   9.914   8.826  0.1236  0.0105  0.1219
  670MOL0     C90326   8.483  10.000   8.775 -1.2355  0.6000 -0.9626
  670MOL0     C90327   8.620   9.920   8.747  0.7420  0.0496  0.3360
  670MOL0     C90328   8.733  10.015   8.701 -0.1707  0.6547 -0.7926
  670MOL0     C90329   8.706  10.060   8.553  0.1881  0.8328 -0.2187
  670MOL0     C90330   8.806  10.159   8.488 -0.8671  0.5358  0.0355
  670MOL0     C90331   8.925  10.085   8.429  0.7437  0.3368  0.8548
  670MOL0     N90332   8.996  10.190   8.350 -0.0685 -0.0057 -0.5646
  670MOL0     C90333   8.974  10.212   8.216  0.6548 -0.6558 -0.0703
  670MOL0     C90334   9.073  10.299   8.190 -0.1201  0.8761  0.6114
  670MOL0     C90335   9.121  10.339   8.045 -0.2862 -0.3865 -0.6892
  670MOL0     C90336   9.260  10.276   8.017 -0.1797 -0.2681  0.3791
  670MOL0     C90337   9.332  10.363   7.916 -0.8425  0.5636  0.3099
  670MOL0     C90338   9.474  10.314   7.904 -0.7026 -0.6608  0.1176
  670MOL0     O90339   9.484  10.189   7.847 -0.3780  0.2929 -0.3926
  670MOL0     C90340   9.608  10.132   7.845 -0.7723  1.0768 -0.3141
  670MOL0     C90341   9.735  10.189   7.839  0.3271  0.1208 -0.0329
  670MOL0     C90342   9.847  10.109   7.835  1.0350  0.7162  0.8193
  670MOL0     C90343   9.849   9.976   7.803  0.7382 -0.2090  0.1733
  670MOL0     C90344   9.977   9.894   7.785  0.0900  0.6465  0.1788
  670MOL0     O90345   9.967   9.753   7.811 -0.1456  0.4856  0.8118
  670MOL0     C90346  10.071   9.660   7.811 -1.0527 -0.5337 -0.7746
  670MOL0     C90347  10.201   9.684   7.758  0.3567  0.2187  0.2506
  670MOL0     C90348  10.293   9.574   7.762 -0.7972 -0.0875 -0.1225
  670MOL0     C90349  10.265   9.450   7.808  0.1959  1.0399 -0.6342
  670MOL0     O90350  10.354   9.344   7.816 -1.4107  0.3405  0.2495
  670MOL0     C90351  10.494   9.378   7.838 -0.0223 -0.2210  0.0278
  670MOL0     C90352  10.576   9.248   7.851 -0.0120 -0.5598  0.0234
  670MOL0     C90353  10.697   9.284   7.942 -0.7522 -0.0892 -0.4057
  670MOL0     C90354  10.829   9.193   7.924  0.5675  1.0062  0.1741
  670MOL0     C90355  10.938   9.230   8.016 -0.4398 -0.6876 -0.1833
  670MOL0     C90356  11.083   9.221   7.956  0.6297  0.9629  0.0195
  670MOL0     C90357  11.152   9.087   7.970 -0.5814  0.8810  0.2019
  670MOL0     C90358  11.296   9.074   7.920 -0.8930  0.6266  0.3336
  670MOL0    Cl90359  11.309   9.103   7.752 -0.1875  0.0197 -0.0218
  670MOL0     C90360  10.133   9.421   7.841  0.3343  0.1535  0.7410
  670MOL0     C90361  10.047   9.531   7.853 -0.1632  0.3326  0.3573
  670MOL0     O90362  10.072   9.955   7.744 -0.1773 -0.0478  0.0085
  670MOL0     C90363   9.726   9.911   7.806 -0.2915 -0.2150  0.2068
  670MOL0     C90364   9.609   9.989   7.827  0.0464 -0.0153 -0.0672
  670MOL0     N90365   9.154  10.317   8.296  0.3543 -0.7374  0.0281
  670MOL0     N90366   9.106  10.253   8.391  0.2890 -0.4377 -0.1188
  670MOL0     C90367   8.082  10.014   8.473  0.7412 -0.1326 -0.4706
  670MOL0     C90368   7.960  10.041   8.419 -0.2099  0.0566  0.9486
  670MOL0     C90369   7.530  10.063   8.315 -0.4262  0.2507  0.5333
  670MOL0     C90370   7.577  10.103   8.191 -0.0514  0.4777 -0.1962
  670MOL0     C90371   7.500  10.112   8.077 -0.0249  0.4245  0.3196
  670MOL0     C90372   7.361  10.097   8.083 -0.2870 -0.1659  0.3851
  670MOL0     O90373   7.299  10.114   7.962 -0.0669 -0.1297 -0.7486
  670MOL0     C90374   7.156  10.126   7.982 -0.2666 -0.0350 -0.1662
  670MOL0     C90375   7.081  10.145   7.849  0.1916  0.7949 -0.6016
  670MOL0     C90376   6.942  10.173   7.902  0.5475 -0.0864 -0.1584
  670MOL0     C90377   6.847  10.217   7.792 -0.4702 -0.2780  0.7965
  670MOL0     C90378   6.710  10.255   7.846  0.0929 -0.0759 -0.7100
  670MOL0     C90379   6.600  10.293   7.886  0.0876 -0.2610 -0.6084
  670MOL0     C90380   7.303  10.065   8.207 -0.9764  0.6460  0.3003
  670MOL0     C90381   7.386  10.049   8.322  0.3853  0.0147  0.8776
  670MOL0     C90382   7.314  10.002   8.444  0.3340  0.4050  0.0323
  670MOL0     H90383   7.769  10.115   8.688 -0.9118 -1.0166 -1.3547
  670MOL0     H90384   7.959  10.033   8.802 -0.3772 -1.5105  0.2142
  670MOL0     H90385   8.227  10.083   8.847 -1.3152  0.6424 -0.5175
  670MOL0     H90386   8.148   9.925   8.859 -0.1706  2.1988  0.6598
  670MOL0     H90387   8.366   9.817   8.776 -0.6815 -0.3721  0.9463
  670MOL0     H90388   8.401   9.893   8.929 -0.8831  0.9297  0.6085
  670MOL0     H90389   8.509  10.076   8.850 -0.7910 -1.2402  0.8562
  670MOL0     H90390   8.457  10.042   8.678 -0.0215 -1.1236 -2.0962
  670MOL0     H90391   8.657   9.868   8.836 -0.6278  0.3929  1.1456
  670MOL0     H90392   8.600   9.852   8.664 -1.8006  0.2372  0.7181
  670MOL0     H90393   8.744  10.101   8.768  2.3272 -3.1613  4.4096
  670MOL0     H90394   8.824   9.956   8.708 -1.8051 -2.0045 -0.4491
  670MOL0     H90395   8.705   9.964   8.501  3.8402 -1.3799  3.2160
  670MOL0     H90396   8.605  10.099   8.535  0.5510  2.7534  1.5960
  670MOL0     H90397   8.838  10.221   8.572  0.9499 -0.6728  0.2908
  670MOL0     H90398   8.762  10.227   8.414  0.5502  2.1697  0.6419
  670MOL0     H90399   8.993  10.055   8.508  1.1208 -3.5446 -0.7276
  670MOL0     H90400   8.908   9.991   8.375  0.9647  1.5322 -1.4113
  670MOL0     H90401   8.902  10.174   8.145 -0.1910  1.4011 -0.3749
  670MOL0     H90402   9.050  10.312   7.967  1.0420  1.5502 -2.6679
  670MOL0     H90403   9.125  10.448   8.054 -0.1567 -0.3754 -0.8619
  670MOL0     H90404   9.323  10.271   8.106 -0.9381 -4.6952  0.8923
  670MOL0     H90405   9.255  10.175   7.977  1.9540 -0.2579 -0.0567
  670MOL0     H90406   9.326  10.463   7.960 -0.0864 -0.6785  3.5784
  670MOL0     H90407   9.288  10.361   7.816  1.8951  0.5310 -0.9889
  670MOL0     H90408   9.528  10.317   7.999 -0.8937  0.7834  0.2100
  670MOL0     H90409   9.524  10.389   7.842 -0.3796 -0.9115  0.0753
  670MOL0     H90410   9.741  10.297   7.834 -4.0616  0.6598  1.7658
  670MOL0     H90411   9.946  10.152   7.842  1.0442  1.1193 -1.1928
  670MOL0     H90412  10.236   9.778   7.716 -1.6668  0.6939 -0.4706
  670MOL0     H90413  10.392   9.593   7.720  2.1423 -2.0534  4.9896
  670MOL0     H90414  10.542   9.438   7.761  2.7406  0.8081  2.3961
  670MOL0     H90415  10.498   9.441   7.928  0.2311 -0.4318  0.1652
  670MOL0     H90416  10.513   9.172   7.899 -0.3149  1.3129  2.8387
  670MOL0     H90417  10.609   9.213   7.753  1.7243  0.9452  0.0156
  670MOL0     H90418  10.731   9.386   7.920 -0.2474  0.0476  0.9094
  670MOL0     H90419  10.662   9.272   8.044  3.2797 -0.8461  1.0814
  670MOL0     H90420  10.861   9.209   7.821 -1.2748 -1.5376 -0.8997
  670MOL0     H90421  10.811   9.085   7.929  0.1648  0.8758 -2.4576
  670MOL0     H90422  10.920   9.163   8.101 -2.8603 -0.6035 -0.5583
  670MOL0     H90423  10.931   9.338   8.035  0.6598  0.0241 -3.3078
  670MOL0     H90424  11.080   9.233   7.847 -1.8800 -0.9557 -0.2105
  670MOL0     H90425  11.147   9.296   8.005  0.4648  0.7908  0.5030
  670MOL0     H90426  11.093   9.016   7.911  1.2981  0.6279 -1.4737
  670MOL0     H90427  11.139   9.055   8.074  0.6043  1.0021  0.4066
  670MOL0     H90428  11.370   9.133   7.975 -0.5363 -1.2149  1.9302
  670MOL0     H90429  11.323   8.969   7.929 -1.2990  0.6690  3.4948
  670MOL0     H90430  10.104   9.324   7.879 -0.8944 -1.0962 -2.9592
  670MOL0     H90431   9.944   9.520   7.883 -0.7138 -1.2728 -1.7991
  670MOL0     H90432   9.719   9.803   7.802 -1.5405 -0.2684  2.1787
  670MOL0     H90433   9.511   9.942   7.831  0.3914 -0.6802  2.1450
  670MOL0     H90434   8.170   9.977   8.421  1.7018 -1.5130  1.9544
  670MOL0     H90435   7.957  10.046   8.310  0.8111  2.8833  0.9846
  670MOL0     H90436   7.683  10.114   8.173  0.2816 -4.5921 -3.4329
  670MOL0     H90437   7.555  10.142   7.988 -1.0259  0.6769 -0.2243
  670MOL0     H90438   7.131  10.209   8.048 -2.7340 -1.7489  1.1818
  670MOL0     H90439   7.114  10.032   8.018 -0.6944  0.9717  2.0699
  670MOL0     H90440   7.087  10.056   7.786 -0.2950  1.5204 -1.7086
  670MOL0     H90441   7.127  10.227   7.793 -0.2642  2.4898  1.4127
  670MOL0     H90442   6.936  10.245   7.983 -2.3748  2.8446 -2.7085
  670MOL0     H90443   6.894  10.082   7.941  1.2606 -0.8208 -0.9325
  670MOL0     H90444   6.885  10.307   7.743 -1.7341 -0.7842 -1.2207
  670MOL0     H90445   6.836  10.139   7.717  0.3144  0.8100 -0.4850
  670MOL0     H90446   6.501  10.321   7.915  0.0754 -0.1211 -0.7895
  670MOL0     H90447   7.196  10.047   8.213 -1.6313  3.1797 -1.6850
  670MOL0     H90448   7.218  10.053   8.452  1.7417  3.2858 -0.2787
  670MOL0     H90449   7.287   9.896   8.436 -2.9394  1.1497 -0.3205
  670MOL0     H90450   7.372  10.013   8.535  2.9184 -0.7831 -1.3685
  671MOL0     O90451   2.182   6.100   2.114  0.2088  0.1137 -0.0816
  671MOL0     C90452   2.150   6.213   2.077 -0.7582  1.0051  0.0133
  671MOL0     O90453   2.215   6.292   1.986  1.0102  0.2179  0.1428
  671MOL0     C90454   2.344   6.245   1.950  0.1099 -0.8920  0.1959
  671MOL0     C90455   2.461   6.317   1.999 -0.4509  1.0425  0.8365
  671MOL0     C90456   2.590   6.278   1.946  0.6688  0.3128  0.3764
  671MOL0     C90457   2.612   6.172   1.857  0.1977  0.1083 -0.9729
  671MOL0     O90458   2.742   6.143   1.831 -0.2271  0.4189  0.0670
  671MOL0     C90459   2.779   6.078   1.714 -0.7083  0.5776 -0.1554
  671MOL0     C90460   2.765   6.176   1.582 -0.7210 -0.4837 -0.3436
  671MOL0     C90461   2.855   6.298   1.612  0.5976  0.6497  0.0262
  671MOL0     C90462   3.004   6.249   1.595  0.9045  0.3663 -0.3707
  671MOL0     C90463   3.085   6.362   1.523  0.0458  0.2995 -0.1348
  671MOL0     C90464   3.106   6.489   1.611 -0.6085  0.4989  0.0976
  671MOL0     C90465   3.208   6.583   1.556 -0.1742  1.3681  0.5074
  671MOL0     C90466   3.345   6.559   1.630 -0.2331  0.2872  0.2679
  671MOL0     N90467   3.445   6.475   1.562  0.4511  0.0819  0.5310
  671MOL0     C90468   3.537   6.526   1.471  0.2053 -0.1718 -0.4459
  671MOL0     C90469   3.605   6.415   1.427 -0.2316 -1.1058 -0.1287
  671MOL0     C90470   3.713   6.424   1.317  0.3245  0.3613 -0.5696
  671MOL0     C90471   3.823   6.524   1.354 -0.8260 -0.0624  0.5095
  671MOL0     C90472   3.935   6.517   1.249  0.2084 -0.5426 -0.2931
  671MOL0     C90473   4.008   6.382   1.248  0.1535 -0.3574 -0.2757
  671MOL0     O90474   4.112   6.380   1.143 -0.0832 -0.6717  0.5253
  671MOL0     C90475   4.243   6.419   1.153  0.0995 -0.1196  0.5746
  671MOL0     C90476   4.303   6.494   1.253  0.5401 -0.1754 -0.5414
  671MOL0     C90477   4.436   6.537   1.252  0.1215  0.7562  0.9292
  671MOL0     C90478   4.521   6.512   1.146  0.6465  0.9029  0.7992
  671MOL0     C90479   4.659   6.529   1.147 -0.2457 -0.2843 -0.3764
  671MOL0     O90480   4.705   6.622   1.238  0.3005  0.2826  0.4760
  671MOL0     C90481   4.830   6.660   1.222 -0.1694 -0.6007  1.1449
  671MOL0     C90482   4.861   6.800   1.203  0.2154  0.1582  0.0060
  671MOL0     C90483   4.991   6.849   1.191  0.1279  0.2289 -0.5737
  671MOL0     C90484   5.103   6.765   1.196 -0.4387  0.2419  0.5775
  671MOL0     O90485   5.224   6.819   1.181  0.2217  0.3628 -0.8727
  671MOL0     C90486   5.324   6.770   1.268 -0.3511 -0.0804 -0.0855
  671MOL0     C90487   5.470   6.823   1.219  1.6488  0.0411  0.1696
  671MOL0     C90488   5.516   6.736   1.099 -0.5333  0.8590  0.5609
  671MOL0     C90489   5.656   6.666   1.126 -0.3540  0.0916 -0.7318
  671MOL0     C90490   5.726   6.606   1.001  0.9632 -1.4040 -0.3787
  671MOL0     C90491   5.854   6.524   1.041 -0.3728 -0.2409  0.4275
  671MOL0     C90492   5.825   6.381   1.094  0.7057 -0.1759  0.1336
  671MOL0     C90493   5.954   6.313   1.142  0.9246 -1.2379  0.3394
  671MOL0    Cl90494   6.061   6.308   0.994  0.3217  0.4447 -0.0025
  671MOL0     C90495   5.081   6.629   1.216  0.7261 -0.7591 -0.4322
  671MOL0     C90496   4.951   6.578   1.247  0.0998  0.3627  1.1546
  671MOL0     O90497   4.733   6.467   1.062  0.3434 -0.2346  0.4618
  671MOL0     C90498   4.455   6.442   1.035 -0.2737 -0.0975  0.0545
  671MOL0     C90499   4.318   6.404   1.037  0.4246  0.0906  0.9044
  671MOL0     N90500   3.552   6.307   1.488 -0.0816 -0.5630  0.4476
  671MOL0     N90501   3.458   6.337   1.564 -0.3024  0.2249  0.3917
  671MOL0     C90502   2.502   6.095   1.827  0.0507 -0.0800  1.0123
  671MOL0     C90503   2.371   6.133   1.861  0.0634 -0.2149 -0.5420
  671MOL0     C90504   2.024   6.257   2.143 -0.4345  0.4259 -1.0453
  671MOL0     C90505   1.972   6.189   2.266 -0.7615  0.2254  0.6587
  671MOL0     C90506   1.869   6.244   2.339 -1.0240  0.6616 -0.2912
  671MOL0     C90507   1.800   6.355   2.297  0.5476 -0.7446  0.3350
  671MOL0     O90508   1.714   6.414   2.391  0.1107  0.1173  0.3506
  671MOL0     C90509   1.629   6.528   2.348  0.0277  1.1915  0.5066
  671MOL0     C90510   1.510   6.531   2.429  0.9579 -0.5976  0.0087
  671MOL0     C90511   1.434   6.662   2.390  0.0745  0.3016  0.2703
  671MOL0     C90512   1.297   6.688   2.474 -0.3422 -0.2802  0.5335
  671MOL0     C90513   1.182   6.601   2.436 -0.0907  0.2883 -0.4456
  671MOL0     C90514   1.081   6.536   2.423 -0.4932  0.3253  0.7412
  671MOL0     C90515   1.831   6.405   2.169 -0.4045 -0.3357  0.3740
  671MOL0     C90516   1.946   6.363   2.099 -0.2135  0.2902 -0.9986
  671MOL0     C90517   1.978   6.448   1.971  0.0244  0.3288 -0.6420
  671MOL0     H90518   2.456   6.405   2.063  0.6427  2.9332 -1.5126
  671MOL0     H90519   2.678   6.324   1.989 -0.6361  0.4051  3.2046
  671MOL0     H90520   2.882   6.042   1.728 -0.5609  1.4101  1.0122
  671MOL0     H90521   2.727   5.985   1.689  1.0726 -0.3359 -0.6556
  671MOL0     H90522   2.659   6.205   1.580 -1.0426 -1.5820  0.1075
  671MOL0     H90523   2.795   6.137   1.485 -0.4190 -0.4897 -0.2493
  671MOL0     H90524   2.829   6.339   1.710 -1.9704 -2.3734  0.7821
  671MOL0     H90525   2.830   6.367   1.531  1.9334  0.2169 -0.7709
  671MOL0     H90526   3.050   6.224   1.691 -0.4698 -0.8106  0.0123
  671MOL0     H90527   3.014   6.160   1.533 -0.8649 -0.4396  0.4456
  671MOL0     H90528   3.187   6.323   1.524  0.3186  1.0011  0.2711
  671MOL0     H90529   3.051   6.377   1.420  2.0837 -0.0695 -0.9197
  671MOL0     H90530   3.008   6.537   1.615 -1.3052 -0.7323 -1.1396
  671MOL0     H90531   3.130   6.462   1.714  0.1243  0.8087  0.0121
  671MOL0     H90532   3.175   6.684   1.582 -1.2496  1.8904 -2.4713
  671MOL0     H90533   3.213   6.572   1.448  1.0394  0.5255  0.6383
  671MOL0     H90534   3.396   6.656   1.641 -1.8394  1.1795  0.1413
  671MOL0     H90535   3.341   6.523   1.733  2.6249  0.2792  0.4455
  671MOL0     H90536   3.542   6.620   1.418 -2.8480 -0.3716 -1.2969
  671MOL0     H90537   3.753   6.322   1.315  4.7273  1.8643 -3.1801
  671MOL0     H90538   3.671   6.443   1.218 -0.4622  4.9268  0.4137
  671MOL0     H90539   3.777   6.623   1.353 -4.1301 -1.4743  0.5319
  671MOL0     H90540   3.863   6.502   1.454  2.0780 -0.2096 -0.5977
  671MOL0     H90541   4.002   6.602   1.268 -0.5715 -0.3713  2.0561
  671MOL0     H90542   3.902   6.541   1.148  4.9818  0.7598 -1.8352
  671MOL0     H90543   3.940   6.297   1.234 -2.6263  0.6665  4.6700
  671MOL0     H90544   4.049   6.374   1.349  1.4047  1.8157 -0.5472
  671MOL0     H90545   4.248   6.516   1.344  0.2736  0.4657 -0.8486
  671MOL0     H90546   4.475   6.594   1.336 -2.6606  2.6682  1.0617
  671MOL0     H90547   4.781   6.873   1.193 -0.2344 -0.2626  0.4502
  671MOL0     H90548   5.014   6.952   1.166  1.4934 -0.0203 -0.4478
  671MOL0     H90549   5.303   6.804   1.369 -1.8920 -2.5592  0.5010
  671MOL0     H90550   5.337   6.662   1.273 -3.9905 -0.5681  1.3850
  671MOL0     H90551   5.466   6.930   1.195  1.4613  0.2227  0.9599
  671MOL0     H90552   5.544   6.826   1.300  1.0122 -2.2521  0.9103
  671MOL0     H90553   5.449   6.651   1.084  4.0141 -3.0364 -0.2591
  671MOL0     H90554   5.505   6.787   1.003 -1.1202  1.2690  0.8396
  671MOL0     H90555   5.650   6.592   1.206  1.5371  1.3244  0.6712
  671MOL0     H90556   5.725   6.737   1.173 -1.3184 -1.1287  2.7979
  671MOL0     H90557   5.758   6.698   0.950  1.1679 -0.9876  0.4667
  671MOL0     H90558   5.666   6.549   0.930  0.6198 -3.1965  1.2576
  671MOL0     H90559   5.921   6.528   0.955  2.3420  0.2089  2.4517
  671MOL0     H90560   5.903   6.578   1.122 -2.8805 -1.3434  2.8722
  671MOL0     H90561   5.780   6.324   1.012  1.6452 -2.9930  1.4451
  671MOL0     H90562   5.758   6.379   1.181 -2.0569  1.0423 -1.8272
  671MOL0     H90563   6.011   6.356   1.225 -1.3354 -1.7060  2.2379
  671MOL0     H90564   5.935   6.208   1.162  1.9811 -1.3663  0.7645
  671MOL0     H90565   5.168   6.565   1.216  1.4823  0.2299  0.1264
  671MOL0     H90566   4.952   6.474   1.279  3.5272 -0.5604 -1.3433
  671MOL0     H90567   4.511   6.412   0.947 -2.3954  3.8475 -2.9768
  671MOL0     H90568   4.273   6.364   0.946 -0.2039  2.6013  0.0398
  671MOL0     H90569   2.510   6.004   1.768 -0.5614  0.1061  0.6411
  671MOL0     H90570   2.283   6.079   1.827 -0.1756  0.0636 -0.3762
  671MOL0     H90571   2.027   6.105   2.307  0.2401  0.1650 -0.7585
  671MOL0     H90572   1.846   6.203   2.437  0.1592  0.6014 -0.0171
  671MOL0     H90573   1.610   6.518   2.241 -0.7638  4.6961  0.1990
  671MOL0     H90574   1.686   6.621   2.361 -1.6265  3.1919 -4.3460
  671MOL0     H90575   1.557   6.537   2.528  3.3745 -1.2526 -1.0293
  671MOL0     H90576   1.455   6.438   2.416 -0.7310  0.4551 -0.7731
  671MOL0     H90577   1.423   6.666   2.281  2.8389 -1.3198 -0.1776
  671MOL0     H90578   1.496   6.752   2.397 -0.7409  0.9006 -0.0329
  671MOL0     H90579   1.324   6.675   2.580  1.0448 -1.2612  0.1018
  671MOL0     H90580   1.266   6.792   2.464  0.9342 -0.1062 -3.3360
  671MOL0     H90581   0.995   6.474   2.411 -1.4672  0.7953  4.0537
  671MOL0     H90582   1.787   6.497   2.133  0.2233 -1.1874 -2.9309
  671MOL0     H90583   2.004   6.389   1.883  0.0071 -1.2212  0.3430
  671MOL0     H90584   1.889   6.507   1.948  0.0851  1.1369  1.0434
  671MOL0     H90585   2.061   6.518   1.988 -0.2967  1.1693 -2.3677
  672MOL0     O90586   1.215   5.038   9.535  0.0616 -0.4951 -0.5878
  672MOL0     C90587   1.121   5.119   9.541 -0.0564  0.1137 -0.4710
  672MOL0     O90588   1.132   5.247   9.583 -0.2145 -0.4367  1.2059
  672MOL0     C90589   1.217   5.283   9.681 -0.0645 -0.3368  0.1462
  672MOL0     C90590   1.294   5.212   9.773  0.4926  0.5902  1.2313
  672MOL0     C90591   1.376   5.271   9.870 -0.6667 -0.5888  0.0545
  672MOL0     C90592   1.384   5.409   9.876  0.4222  0.1797  0.4216
  672MOL0     O90593   1.447   5.482   9.969  0.1555  0.2035  0.3372
  672MOL0     C90594   1.562   5.537   9.931 -0.0246  0.3547  0.4393
  672MOL0     C90595   1.657   5.506  10.041  0.0396 -0.6215 -1.0305
  672MOL0     C90596   1.661   5.358  10.066  0.7429  0.8963 -0.3637
  672MOL0     C90597   1.703   5.264   9.950  0.3997  0.2411  0.6441
  672MOL0     C90598   1.685   5.122   9.988 -0.7939  0.9751  0.4059
  672MOL0     C90599   1.820   5.044  10.009 -0.5086  0.4840  0.0190
  672MOL0     C90600   1.907   5.062   9.886  0.3649  0.1046 -0.1291
  672MOL0     C90601   2.023   4.957   9.901 -0.0636 -0.3994 -0.3788
  672MOL0     N90602   2.103   4.928   9.774 -0.4769 -0.2006 -0.9858
  672MOL0     C90603   2.242   4.924   9.759  0.1246  0.1981 -0.4951
  672MOL0     C90604   2.263   4.867   9.633 -0.7976 -0.2365 -0.5317
  672MOL0     C90605   2.393   4.835   9.558  1.3935 -0.2019  0.2201
  672MOL0     C90606   2.511   4.820   9.645 -0.5366 -0.0032  0.1708
  672MOL0     C90607   2.633   4.772   9.567  0.5393 -0.8743 -0.7619
  672MOL0     C90608   2.716   4.895   9.511  0.2339 -0.2589 -0.0659
  672MOL0     O90609   2.827   4.835   9.440  0.4006  0.1016 -0.3587
  672MOL0     C90610   2.954   4.879   9.449 -0.4428  0.1637 -0.0772
  672MOL0     C90611   3.066   4.792   9.411  0.2869 -0.1527  0.1991
  672MOL0     C90612   3.199   4.842   9.421  0.1519 -0.5606  0.8967
  672MOL0     C90613   3.217   4.978   9.456 -0.4109 -0.4342  0.3554
  672MOL0     C90614   3.348   5.047   9.468 -0.0646 -0.2362 -0.4517
  672MOL0     O90615   3.447   4.968   9.454 -0.2186 -0.1077 -0.6241
  672MOL0     C90616   3.574   5.021   9.472  0.0477 -0.4240 -0.2796
  672MOL0     C90617   3.613   5.091   9.590 -0.6335  0.9146 -0.1614
  672MOL0     C90618   3.747   5.138   9.595  0.5703 -0.0424 -1.1281
  672MOL0     C90619   3.845   5.110   9.499 -0.5903 -1.2144  0.4628
  672MOL0     O90620   3.972   5.144   9.535  0.4979 -0.0237 -0.2615
  672MOL0     C90621   4.072   5.054   9.499  0.0737 -0.5015  0.6214
  672MOL0     C90622   4.173   5.048   9.611 -0.3636  0.2031  0.0805
  672MOL0     C90623   4.291   4.957   9.581  0.4399 -0.7910  0.6040
  672MOL0     C90624   4.366   4.938   9.712  0.7850  0.2978 -0.0266
  672MOL0     C90625   4.494   4.870   9.672  0.1270 -0.0094 -1.7507
  672MOL0     C90626   4.577   4.848   9.799  0.5434  0.1683 -0.1811
  672MOL0     C90627   4.722   4.815   9.767  0.8245  0.3833 -0.1844
  672MOL0     C90628   4.796   4.808   9.894 -0.2959 -0.2128 -0.0039
  672MOL0    Cl90629   4.962   4.785   9.852  0.3996  0.2989 -0.7028
  672MOL0     C90630   3.807   5.057   9.375  1.2501 -0.1561  0.4947
  672MOL0     C90631   3.672   5.011   9.365  0.3113 -0.4593  0.0184
  672MOL0     O90632   3.347   5.166   9.509  0.3309  0.0055  0.4470
  672MOL0     C90633   3.102   5.049   9.492  0.3055  0.5503  0.6135
  672MOL0     C90634   2.972   5.006   9.482 -0.4992 -0.0183 -0.1916
  672MOL0     N90635   2.146   4.837   9.580  1.4911 -0.1744 -0.1869
  672MOL0     N90636   2.059   4.890   9.656  0.8823 -0.2871  0.1316
  672MOL0     C90637   1.304   5.496   9.787  0.3510  0.6068  0.2069
  672MOL0     C90638   1.217   5.425   9.692  0.3008  0.0256  0.2974
  672MOL0     C90639   0.986   5.082   9.488  1.1078  0.1745  0.6145
  672MOL0     C90640   0.889   5.181   9.462  0.3323  0.3526  0.1939
  672MOL0     C90641   0.764   5.144   9.408 -0.3593 -1.0720 -0.7966
  672MOL0     C90642   0.725   5.018   9.377  0.0369  0.1799  0.2197
  672MOL0     O90643   0.605   4.978   9.327  0.6508 -0.5284 -0.1740
  672MOL0     C90644   0.516   4.925   9.423  0.6927  0.0924  0.0530
  672MOL0     C90645   0.375   4.912   9.362  0.4344  0.5444  0.9041
  672MOL0     C90646   0.319   5.044   9.299 -0.6375  0.8199  0.3504
  672MOL0     C90647   0.227   5.030   9.171 -0.1055 -0.3156  0.2720
  672MOL0     C90648   0.129   4.922   9.192 -0.6492 -1.0120 -0.2767
  672MOL0     C90649   0.054   4.827   9.186  0.3791  0.1085  0.2253
  672MOL0     C90650   0.814   4.913   9.413 -0.4589 -0.2792 -0.0132
  672MOL0     C90651   0.942   4.939   9.476  0.5442 -1.4683 -0.0990
  672MOL0     C90652   1.022   4.824   9.518  0.3418 -0.1148  0.3085
  672MOL0     H90653   1.293   5.104   9.778 -1.0257  0.5548  0.6558
  672MOL0     H90654   1.441   5.224   9.943  0.5738 -1.5412 -1.5924
  672MOL0     H90655   1.606   5.490   9.843 -1.7597 -1.0416  0.2475
  672MOL0     H90656   1.553   5.644   9.913  0.6654  0.3574  0.0866
  672MOL0     H90657   1.620   5.552  10.133 -0.0657 -0.3003 -1.2314
  672MOL0     H90658   1.758   5.548  10.026  0.4598 -0.3879  1.9222
  672MOL0     H90659   1.571   5.317  10.113  1.8013  0.6425  1.5389
  672MOL0     H90660   1.738   5.340  10.141  0.5318 -0.5425 -0.4679
  672MOL0     H90661   1.657   5.273   9.851  0.6253 -0.8036  0.4352
  672MOL0     H90662   1.804   5.301   9.932 -0.2719  1.5759 -0.6262
  672MOL0     H90663   1.620   5.113  10.075 -1.1808 -1.6642 -0.0728
  672MOL0     H90664   1.627   5.078   9.907 -2.2411  0.2686  1.7795
  672MOL0     H90665   1.867   5.088  10.098 -2.7289 -0.5330  1.7997
  672MOL0     H90666   1.803   4.937  10.023  0.8875  0.1403 -0.7293
  672MOL0     H90667   1.954   5.161   9.883 -0.8429  0.6932 -0.1380
  672MOL0     H90668   1.851   5.047   9.793 -0.4204  0.3535  0.2916
  672MOL0     H90669   2.081   4.994   9.986 -0.3218  0.5104 -0.5865
  672MOL0     H90670   1.982   4.861   9.933 -2.0216  0.8470  1.1159
  672MOL0     H90671   2.310   4.944   9.842 -2.1909 -1.4325  1.9458
  672MOL0     H90672   2.378   4.748   9.493 -1.4801  1.2753 -1.2702
  672MOL0     H90673   2.421   4.921   9.497  0.2863  2.3025  2.9865
  672MOL0     H90674   2.540   4.918   9.685 -0.2845 -0.2516  0.6074
  672MOL0     H90675   2.485   4.753   9.727 -2.2358 -1.7583 -1.7033
  672MOL0     H90676   2.598   4.701   9.492 -2.2905 -0.7840  0.3324
  672MOL0     H90677   2.702   4.727   9.639  2.0774  1.7028 -0.5028
  672MOL0     H90678   2.739   4.956   9.599 -0.7113  1.5305 -1.0218
  672MOL0     H90679   2.654   4.957   9.446 -0.2760 -0.2134  0.4604
  672MOL0     H90680   3.047   4.686   9.393  0.3191 -0.4602  1.8254
  672MOL0     H90681   3.285   4.781   9.394  1.2669  1.7455 -1.0887
  672MOL0     H90682   3.550   5.120   9.674  0.7547  2.8176  0.3094
  672MOL0     H90683   3.785   5.183   9.686 -2.8068 -3.4080  2.3223
  672MOL0     H90684   4.044   4.957   9.456  1.3518 -0.1867 -1.0277
  672MOL0     H90685   4.120   5.097   9.410 -3.7894 -0.7561 -1.8246
  672MOL0     H90686   4.195   5.154   9.629  1.1981 -0.5260  3.2930
  672MOL0     H90687   4.136   5.014   9.709 -2.5913 -2.0239 -1.4092
  672MOL0     H90688   4.254   4.857   9.560 -0.4534 -0.4282  0.4052
  672MOL0     H90689   4.357   5.004   9.507  1.3363 -1.7221  0.7873
  672MOL0     H90690   4.300   4.880   9.777  2.5630  0.6148  2.1868
  672MOL0     H90691   4.386   5.035   9.758  0.4274  0.1162  0.5268
  672MOL0     H90692   4.546   4.938   9.604 -1.4913  1.6712 -1.4064
  672MOL0     H90693   4.482   4.770   9.629 -2.6550 -1.7710  2.4053
  672MOL0     H90694   4.574   4.948   9.843 -3.0866  0.0672  0.0759
  672MOL0     H90695   4.529   4.777   9.867  1.8455  1.6487  2.4314
  672MOL0     H90696   4.761   4.896   9.705 -3.5160  2.7409 -0.2167
  672MOL0     H90697   4.715   4.722   9.710 -1.2844  0.7383 -0.5922
  672MOL0     H90698   4.777   4.903   9.944 -0.9859  0.1056 -0.8369
  672MOL0     H90699   4.756   4.722   9.947  0.2531 -2.7716 -3.3960
  672MOL0     H90700   3.870   5.047   9.287 -0.5954  0.1545 -0.9387
  672MOL0     H90701   3.645   4.972   9.268  0.4733  1.1961 -0.7275
  672MOL0     H90702   3.110   5.155   9.513  0.4126  0.4578  1.0576
  672MOL0     H90703   2.904   5.090   9.487  2.0953  2.3243 -1.2004
  672MOL0     H90704   1.306   5.602   9.807  0.7927  0.6735 -0.1972
  672MOL0     H90705   1.164   5.486   9.620 -0.5114  0.3474  1.1502
  672MOL0     H90706   0.919   5.284   9.472 -2.2053  1.3182 -1.1628
  672MOL0     H90707   0.689   5.219   9.384 -1.3634 -1.3941  1.1149
  672MOL0     H90708   0.498   4.994   9.506 -2.5939  0.7045 -1.0293
  672MOL0     H90709   0.568   4.836   9.459  0.8464 -0.7934 -2.2196
  672MOL0     H90710   0.306   4.874   9.438 -0.0654 -0.7447 -0.1409
  672MOL0     H90711   0.379   4.834   9.285 -0.2740 -1.7491  3.0578
  672MOL0     H90712   0.404   5.106   9.269 -1.0613  1.6167  0.7446
  672MOL0     H90713   0.271   5.111   9.372  2.9361  1.4563  2.3261
  672MOL0     H90714   0.167   5.120   9.153  2.0989  1.0174 -0.7898
  672MOL0     H90715   0.290   5.021   9.082  3.0073  1.0961  2.1631
  672MOL0     H90716  -0.003   4.736   9.179 -1.3123  1.1660 -0.4231
  672MOL0     H90717   0.792   4.809   9.387  3.4299 -0.4650 -3.7710
  672MOL0     H90718   1.108   4.817   9.450 -0.6187  1.7193 -1.2022
  672MOL0     H90719   1.059   4.842   9.620 -0.0000  2.4543  0.0579
  672MOL0     H90720   0.967   4.730   9.511  0.3782 -0.1212  0.1012
  673MOL0     O90721   8.378  10.315   7.151  0.4289  0.0631  0.0292
  673MOL0     C90722   8.376  10.255   7.046 -0.8137 -0.9935  0.2205
  673MOL0     O90723   8.476  10.185   6.995  0.0683 -0.2470  0.0875
  673MOL0     C90724   8.582  10.143   7.065 -0.9163  0.6671 -0.9999
  673MOL0     C90725   8.572  10.083   7.186 -0.1840  0.8708 -0.1618
  673MOL0     C90726   8.678  10.019   7.247 -0.0366 -0.6198 -0.3493
  673MOL0     C90727   8.810  10.017   7.191  0.7385 -0.0165  0.5733
  673MOL0     O90728   8.915   9.963   7.266 -0.3519  0.4935  0.2811
  673MOL0     C90729   9.030   9.937   7.188  0.5281 -0.4136 -0.4900
  673MOL0     C90730   9.091   9.803   7.235 -0.0329  0.4025 -0.2014
  673MOL0     C90731   9.216   9.774   7.157  0.1864  0.0368 -0.6126
  673MOL0     C90732   9.209   9.685   7.032 -0.1242 -0.5220 -0.1085
  673MOL0     C90733   9.347   9.659   6.974 -0.2122 -0.8417 -0.2016
  673MOL0     C90734   9.354   9.519   6.920  0.0365 -0.1609  0.1144
  673MOL0     C90735   9.246   9.487   6.811 -0.0178 -0.4946 -1.1866
  673MOL0     C90736   9.272   9.350   6.760 -0.4615 -0.5498  0.1302
  673MOL0     N90737   9.404   9.322   6.718 -0.3953 -0.0433  0.0670
  673MOL0     C90738   9.477   9.385   6.615 -0.0833 -1.4627 -0.0985
  673MOL0     C90739   9.568   9.295   6.583 -0.1319  0.6732  0.5440
  673MOL0     C90740   9.651   9.320   6.462  0.0832 -1.1719  0.2619
  673MOL0     C90741   9.801   9.332   6.494 -0.9901  0.9124 -0.0034
  673MOL0     C90742   9.877   9.435   6.397 -0.6725  0.1415 -0.3970
  673MOL0     C90743   9.837   9.575   6.428  0.0160 -0.6716 -0.5787
  673MOL0     O90744   9.884   9.608   6.556 -0.6961 -0.2828  0.1210
  673MOL0     C90745  10.010   9.669   6.571  0.5604  0.2480  0.2471
  673MOL0     C90746  10.105   9.674   6.469  0.0085 -0.3792  0.5796
  673MOL0     C90747  10.233   9.725   6.485 -0.2831 -0.5988  0.1318
  673MOL0     C90748  10.270   9.780   6.607 -0.0856  0.4991 -0.3754
  673MOL0     C90749  10.402   9.845   6.619 -0.5556  0.3321 -0.1100
  673MOL0     O90750  10.428   9.914   6.736 -0.3922 -0.1422 -0.5579
  673MOL0     C90751  10.554   9.962   6.769 -1.0242  0.2611  0.4243
  673MOL0     C90752  10.550  10.094   6.808  0.4195  0.1130  1.0011
  673MOL0     C90753  10.671  10.152   6.845 -0.3737  0.2572 -0.6384
  673MOL0     C90754  10.791  10.079   6.842 -0.3315  0.3113 -0.0716
  673MOL0     O90755  10.907  10.149   6.880 -0.5954  0.2859  0.4759
  673MOL0     C90756  11.035  10.084   6.879 -0.3178 -0.1362  0.4231
  673MOL0     C90757  11.141  10.191   6.912  0.3825  0.4577  0.5394
  673MOL0     C90758  11.146  10.236   7.061 -0.6303  0.0841 -0.1085
  673MOL0     C90759  11.294  10.253   7.109  0.0875  0.0019  0.6642
  673MOL0     C90760  11.291  10.309   7.252  0.2411 -0.1411 -0.0437
  673MOL0     C90761  11.429  10.350   7.314  0.2117 -0.4366 -0.4453
  673MOL0     C90762  11.430  10.347   7.472  0.3993 -0.8099 -0.6562
  673MOL0     C90763  11.552  10.278   7.528 -0.6908  0.0993 -0.1815
  673MOL0    Cl90764  11.695  10.326   7.436 -0.1243 -0.1725  0.1876
  673MOL0     C90765  10.793   9.956   6.790 -1.1189  0.2118  0.5886
  673MOL0     C90766  10.674   9.896   6.755 -0.0821 -0.2336  0.5008
  673MOL0     O90767  10.481   9.841   6.527 -0.1222 -0.4940 -0.0913
  673MOL0     C90768  10.176   9.772   6.717  0.8374 -0.4275 -0.0070
  673MOL0     C90769  10.051   9.713   6.696 -0.0917  1.1393 -0.6216
  673MOL0     N90770   9.567   9.186   6.663 -0.1142  0.2933  0.4007
  673MOL0     N90771   9.468   9.200   6.750  0.0207 -0.3027 -0.2409
  673MOL0     C90772   8.826  10.085   7.065  0.1094  0.2036 -0.0091
  673MOL0     C90773   8.713  10.150   7.009 -1.1592 -0.2607  0.3004
  673MOL0     C90774   8.252  10.265   6.971  0.6208 -1.0234  0.0036
  673MOL0     C90775   8.173  10.156   6.959  0.0780 -0.8067  1.0076
  673MOL0     C90776   8.058  10.168   6.877  0.6333 -0.1962  0.2580
  673MOL0     C90777   8.031  10.281   6.801  0.1224 -0.3141 -0.1230
  673MOL0     O90778   7.923  10.295   6.717 -0.1729 -0.3565  0.0743
  673MOL0     C90779   7.855  10.170   6.690 -0.5559 -0.2576  0.0655
  673MOL0     C90780   7.761  10.196   6.571  1.1331  1.0265 -0.2524
  673MOL0     C90781   7.654  10.297   6.612  0.4553  0.0944 -1.2651
  673MOL0     C90782   7.566  10.331   6.496  0.4542 -1.6432 -0.3771
  673MOL0     C90783   7.506  10.220   6.422  0.0026 -0.2133 -1.0659
  673MOL0     C90784   7.457  10.131   6.352 -1.5077 -0.8137 -0.6663
  673MOL0     C90785   8.111  10.390   6.816 -0.1177 -0.5230 -0.5017
  673MOL0     C90786   8.224  10.385   6.897  0.3551  0.1814  0.2250
  673MOL0     C90787   8.315  10.498   6.887  0.9645  0.7411 -0.0461
  673MOL0     H90788   8.472  10.080   7.228  0.1092 -1.2070  0.4958
  673MOL0     H90789   8.658   9.981   7.347 -0.6320 -1.7489 -0.8684
  673MOL0     H90790   9.014   9.917   7.081  0.8072  0.9777 -0.8038
  673MOL0     H90791   9.097  10.023   7.195 -2.8996  2.4409  0.0139
  673MOL0     H90792   9.020   9.723   7.212  0.6101 -0.3673  0.4019
  673MOL0     H90793   9.107   9.809   7.343 -2.6613 -0.4156  0.2900
  673MOL0     H90794   9.280   9.714   7.222  0.4243  0.6328 -0.2957
  673MOL0     H90795   9.271   9.862   7.123 -0.2078  0.6034  0.1750
  673MOL0     H90796   9.165   9.589   7.057  0.8570 -0.7418  0.8588
  673MOL0     H90797   9.151   9.732   6.952  0.2880  1.1077  0.4885
  673MOL0     H90798   9.372   9.746   6.912 -2.9363  1.6999  1.9922
  673MOL0     H90799   9.419   9.659   7.057 -0.6356 -2.7419  0.2101
  673MOL0     H90800   9.456   9.491   6.890 -0.5286  0.5137 -2.6408
  673MOL0     H90801   9.335   9.450   7.003 -2.1978  1.1117  0.7470
  673MOL0     H90802   9.241   9.567   6.737 -3.5191 -0.3618 -0.9579
  673MOL0     H90803   9.149   9.481   6.861  0.1457 -0.6148 -0.8787
  673MOL0     H90804   9.245   9.291   6.847  2.4257 -1.0867  0.7815
  673MOL0     H90805   9.199   9.333   6.680 -0.7010  3.3996 -0.7223
  673MOL0     H90806   9.470   9.486   6.574  2.1718  0.0884  2.9489
  673MOL0     H90807   9.639   9.238   6.392  0.5865 -2.0791  1.2066
  673MOL0     H90808   9.606   9.402   6.406  2.8809  1.1929  1.1939
  673MOL0     H90809   9.814   9.362   6.598  1.6098  1.2546 -0.3451
  673MOL0     H90810   9.846   9.232   6.490 -0.7919  0.9288  1.4410
  673MOL0     H90811   9.858   9.423   6.290 -2.8348  1.2339 -0.2076
  673MOL0     H90812   9.985   9.423   6.411 -0.6774  1.0871  0.6755
  673MOL0     H90813   9.728   9.582   6.429 -0.0746 -1.0028 -3.0107
  673MOL0     H90814   9.859   9.642   6.346 -0.1530 -0.4123 -0.4147
  673MOL0     H90815  10.086   9.628   6.372  2.1146  1.0567 -0.5964
  673MOL0     H90816  10.294   9.727   6.396 -1.1234 -0.7577 -0.4549
  673MOL0     H90817  10.449  10.133   6.818 -0.4083 -1.8066  0.5429
  673MOL0     H90818  10.657  10.251   6.885 -0.3704 -0.4540  1.2013
  673MOL0     H90819  11.027  10.004   6.953 -0.0006 -1.3471 -0.8049
  673MOL0     H90820  11.052  10.038   6.781 -2.5336 -2.6061  1.0680
  673MOL0     H90821  11.237  10.146   6.884 -0.5487 -1.7183  0.7256
  673MOL0     H90822  11.132  10.280   6.848 -1.7835  0.8303  1.2920
  673MOL0     H90823  11.080  10.322   7.080 -1.8125 -1.2302  2.2718
  673MOL0     H90824  11.112  10.151   7.122  3.7817 -0.6054  1.7212
  673MOL0     H90825  11.342  10.325   7.042  0.6422 -0.1659  0.8775
  673MOL0     H90826  11.353  10.161   7.106  1.8198  1.0287  1.6451
  673MOL0     H90827  11.244  10.232   7.313  0.6697 -0.1911  0.2263
  673MOL0     H90828  11.231  10.401   7.254 -1.8403 -1.3582 -1.8377
  673MOL0     H90829  11.495  10.276   7.269 -0.2575  0.4257 -2.6584
  673MOL0     H90830  11.457  10.449   7.277 -2.4459  1.4680  2.2313
  673MOL0     H90831  11.349  10.284   7.510 -1.6142  1.2336 -1.3361
  673MOL0     H90832  11.419  10.447   7.516  1.2226 -1.5787  1.3803
  673MOL0     H90833  11.565  10.302   7.634  0.4278 -1.1752 -0.0043
  673MOL0     H90834  11.544  10.170   7.516 -0.7979  0.3217 -2.5186
  673MOL0     H90835  10.883   9.894   6.796 -1.9433 -0.9577  1.3309
  673MOL0     H90836  10.669   9.797   6.711 -0.5692  0.6368 -1.5076
  673MOL0     H90837  10.212   9.809   6.813  4.4674  0.0413 -1.3672
  673MOL0     H90838   9.985   9.697   6.781 -1.0906  0.0249 -1.5639
  673MOL0     H90839   8.928  10.090   7.029  0.4853 -1.6252  0.6721
  673MOL0     H90840   8.728  10.209   6.919 -3.6283  0.4108  0.2419
  673MOL0     H90841   8.208  10.067   7.010  4.3505  0.4429  0.5996
  673MOL0     H90842   8.003  10.076   6.858  0.9066 -0.5357  1.0643
  673MOL0     H90843   7.801  10.136   6.779 -0.4946 -2.2294 -0.6184
  673MOL0     H90844   7.920  10.087   6.663  0.5438 -0.2876  2.4912
  673MOL0     H90845   7.719  10.100   6.540 -0.9600  1.8235 -0.0188
  673MOL0     H90846   7.823  10.233   6.488  0.0842 -2.8661 -3.0415
  673MOL0     H90847   7.709  10.387   6.639  4.2753 -1.5396 -2.8510
  673MOL0     H90848   7.600  10.251   6.695  1.8892  0.3972 -0.1278
  673MOL0     H90849   7.489  10.398   6.535  1.8525 -1.5670  2.4973
  673MOL0     H90850   7.611  10.399   6.423  2.2605 -1.1722  1.0869
  673MOL0     H90851   7.427  10.037   6.311  3.1082 -2.7646 -0.1525
  673MOL0     H90852   8.081  10.473   6.753  0.0028  0.5353  0.7867
  673MOL0     H90853   8.415  10.457   6.869  0.8748  0.0720  0.8616
  673MOL0     H90854   8.302  10.557   6.796 -0.6308 -3.6236 -2.9931
  673MOL0     H90855   8.313  10.551   6.982  2.1328  1.5106 -0.4394
  674MOL0     O90856   2.805   8.871   9.756 -0.2948 -0.5438  0.2012
  674MOL0     C90857   2.742   8.972   9.746 -0.1668  0.1346  0.4742
  674MOL0     O90858   2.784   9.092   9.797 -0.4788 -0.0480  0.2384
  674MOL0     C90859   2.920   9.115   9.804 -0.5280 -0.5297 -0.1191
  674MOL0     C90860   2.999   9.083   9.913 -0.1131  0.5056  0.4833
  674MOL0     C90861   3.138   9.120   9.920  0.0883  0.6604  0.5409
  674MOL0     C90862   3.199   9.186   9.808 -0.4325  0.7574 -0.4081
  674MOL0     O90863   3.333   9.231   9.808  0.2674  0.2700 -0.6411
  674MOL0     C90864   3.428   9.146   9.877 -0.4916  0.2213 -0.1487
  674MOL0     C90865   3.567   9.193   9.855 -0.4388  0.4373 -0.2177
  674MOL0     C90866   3.673   9.083   9.846  0.5741  0.5930  0.3957
  674MOL0     C90867   3.813   9.127   9.836  0.8018  0.5420  0.1404
  674MOL0     C90868   3.855   9.173   9.689  0.4794  0.7732 -0.5018
  674MOL0     C90869   4.002   9.232   9.689 -0.1974  0.5673  0.3263
  674MOL0     C90870   4.112   9.132   9.739  0.6776 -0.1830 -0.1379
  674MOL0     C90871   4.253   9.176   9.694  0.3363  0.1628 -0.3031
  674MOL0     N90872   4.277   9.149   9.551 -0.3343 -0.1633  0.3153
  674MOL0     C90873   4.376   9.204   9.470 -0.9209 -0.5385  0.8314
  674MOL0     C90874   4.387   9.124   9.359 -0.4434  0.3195 -0.8968
  674MOL0     C90875   4.487   9.141   9.239  0.3581 -1.0218  0.1252
  674MOL0     C90876   4.607   9.231   9.282 -0.2757 -0.5007  0.2253
  674MOL0     C90877   4.579   9.382   9.265 -0.4976  0.5780  0.4553
  674MOL0     C90878   4.704   9.469   9.285  0.0659  0.4961 -0.0832
  674MOL0     O90879   4.687   9.593   9.205  0.5073 -0.2984 -0.6215
  674MOL0     C90880   4.792   9.677   9.171  0.4149 -0.4132 -0.9965
  674MOL0     C90881   4.923   9.658   9.218  0.3159  0.1043  1.0100
  674MOL0     C90882   5.021   9.752   9.184  0.5727 -0.4556 -0.0577
  674MOL0     C90883   4.994   9.869   9.105 -0.1320 -0.1259 -0.4137
  674MOL0     C90884   5.095   9.977   9.075  1.1633 -0.7478 -0.0544
  674MOL0     O90885   5.224   9.928   9.109  0.9145  0.8685  0.3772
  674MOL0     C90886   5.325  10.013   9.070 -0.4005 -0.0004  0.1020
  674MOL0     C90887   5.415  10.075   9.158 -0.0215  0.3000 -0.4852
  674MOL0     C90888   5.535  10.138   9.121  0.9450 -0.9865  0.0274
  674MOL0     C90889   5.571  10.138   8.989 -0.1872 -0.7519 -0.4988
  674MOL0     O90890   5.684  10.212   8.959 -0.9584 -0.1020 -0.4667
  674MOL0     C90891   5.729  10.241   8.828 -0.7850  0.4733 -0.2565
  674MOL0     C90892   5.810  10.130   8.762 -0.2426 -0.0756  1.0195
  674MOL0     C90893   5.899  10.174   8.649 -0.2125 -0.1897 -0.7296
  674MOL0     C90894   5.818  10.256   8.554  1.4178 -0.1993 -0.7133
  674MOL0     C90895   5.700  10.197   8.469  0.7157 -0.1051  0.3029
  674MOL0     C90896   5.641  10.313   8.395 -0.8517  0.3025  0.6393
  674MOL0     C90897   5.501  10.263   8.347 -0.6063  1.1083 -0.3514
  674MOL0     C90898   5.412  10.379   8.318 -0.1228 -0.1852  0.1280
  674MOL0    Cl90899   5.276  10.327   8.226  0.4690 -0.5438 -0.0589
  674MOL0     C90900   5.490  10.075   8.897  0.7504 -1.5031  0.4416
  674MOL0     C90901   5.366  10.017   8.934  0.4845 -0.4901  0.1574
  674MOL0     O90902   5.066  10.075   9.009 -0.6738  0.5811  0.6545
  674MOL0     C90903   4.862   9.877   9.050  0.1813 -0.1029  0.4254
  674MOL0     C90904   4.764   9.782   9.083 -0.2697  1.0962 -0.4389
  674MOL0     N90905   4.304   9.017   9.376  0.2238  0.2513 -0.2192
  674MOL0     N90906   4.245   9.031   9.486  0.3226 -0.8801 -0.2727
  674MOL0     C90907   3.114   9.222   9.701  0.0532 -0.1347  1.1498
  674MOL0     C90908   2.983   9.186   9.703 -0.3295  0.5428  0.1942
  674MOL0     C90909   2.604   8.958   9.702 -0.2797 -0.0807  0.7919
  674MOL0     C90910   2.513   9.063   9.741  0.3597  0.3182 -0.7352
  674MOL0     C90911   2.380   9.059   9.705  1.2290 -0.1768 -0.7733
  674MOL0     C90912   2.324   8.956   9.628  0.3304 -0.0641  0.3752
  674MOL0     O90913   2.194   8.967   9.591 -0.1433 -0.5576 -0.3079
  674MOL0     C90914   2.139   8.864   9.501  0.4717 -0.6796  0.0715
  674MOL0     C90915   1.999   8.906   9.456  0.3882 -0.8966  0.9959
  674MOL0     C90916   1.906   8.920   9.573  0.4583  0.1267  0.4872
  674MOL0     C90917   1.765   8.936   9.529  0.4602  0.9403 -0.3306
  674MOL0     C90918   1.706   8.823   9.447 -0.6881  0.0342 -0.4953
  674MOL0     C90919   1.667   8.722   9.395  0.1496  0.5848  0.1546
  674MOL0     C90920   2.406   8.848   9.602 -0.5130  0.0822  0.3093
  674MOL0     C90921   2.543   8.854   9.635  0.4898  0.0988  0.3006
  674MOL0     C90922   2.623   8.733   9.584  0.8442  0.0241 -0.1012
  674MOL0     H90923   2.951   9.038  10.000  2.0008 -2.9173  0.0558
  674MOL0     H90924   3.200   9.075   9.997 -0.2131  0.1411  0.4828
  674MOL0     H90925   3.404   9.147   9.984 -2.5367 -1.6084 -0.5112
  674MOL0     H90926   3.422   9.045   9.834  0.1830 -0.2296  0.7643
  674MOL0     H90927   3.591   9.265   9.934 -0.8113 -0.9862  1.2555
  674MOL0     H90928   3.579   9.256   9.766  1.8851 -0.8540 -0.9006
  674MOL0     H90929   3.662   9.012   9.763  2.7318  0.9639 -0.2573
  674MOL0     H90930   3.650   9.027   9.936 -1.2136  3.4274  1.8546
  674MOL0     H90931   3.828   9.198   9.918 -1.1331 -0.0333  1.0710
  674MOL0     H90932   3.866   9.037   9.867  0.3542  0.7324  1.5236
  674MOL0     H90933   3.839   9.094   9.615 -1.7739  2.1857 -1.6387
  674MOL0     H90934   3.794   9.258   9.658  0.3209  1.7980  2.3177
  674MOL0     H90935   4.015   9.266   9.586  1.8497 -1.2794 -0.0969
  674MOL0     H90936   4.004   9.315   9.761 -1.7666  0.7114  0.2407
  674MOL0     H90937   4.088   9.030   9.709 -1.1613 -0.5434  2.2398
  674MOL0     H90938   4.108   9.130   9.848 -0.6833  1.1052 -0.1360
  674MOL0     H90939   4.281   9.277   9.724  0.5225 -0.8092  3.3228
  674MOL0     H90940   4.329   9.111   9.740  1.0833  0.9705 -0.3755
  674MOL0     H90941   4.428   9.297   9.487  0.6824 -0.7947 -1.9899
  674MOL0     H90942   4.525   9.041   9.218 -1.2273 -1.4199 -1.0076
  674MOL0     H90943   4.427   9.173   9.153 -1.8024 -1.3118  1.4483
  674MOL0     H90944   4.622   9.224   9.391 -3.2767  2.0275  0.9679
  674MOL0     H90945   4.696   9.199   9.228 -1.7090 -1.0278 -1.9495
  674MOL0     H90946   4.503   9.420   9.334 -0.9800  0.3264  0.0685
  674MOL0     H90947   4.536   9.407   9.168 -0.4736 -0.4552  0.1661
  674MOL0     H90948   4.788   9.411   9.246 -1.3812 -0.9018 -1.3143
  674MOL0     H90949   4.730   9.489   9.389  0.3028  1.5367 -0.3303
  674MOL0     H90950   4.946   9.568   9.274 -2.6992 -0.7985  0.9896
  674MOL0     H90951   5.120   9.725   9.219 -0.5805 -1.9885  2.2329
  674MOL0     H90952   5.375  10.079   9.259 -0.0429  0.7342 -0.5053
  674MOL0     H90953   5.594  10.192   9.194  0.2345  0.1214 -0.1787
  674MOL0     H90954   5.642  10.265   8.767 -0.7408 -0.0433 -0.5262
  674MOL0     H90955   5.795  10.328   8.836 -0.6304  0.4164 -0.8139
  674MOL0     H90956   5.866  10.082   8.843 -2.8046 -2.8521  1.3001
  674MOL0     H90957   5.733  10.058   8.733 -0.4000 -1.5971  4.6520
  674MOL0     H90958   5.982  10.234   8.688 -0.9810  0.2491  0.2757
  674MOL0     H90959   5.945  10.093   8.592 -3.0450 -1.8660 -0.7982
  674MOL0     H90960   5.890  10.296   8.483  2.9210 -0.7252  0.4518
  674MOL0     H90961   5.760  10.334   8.604 -2.0410 -4.0846  2.1091
  674MOL0     H90962   5.631  10.165   8.548  0.2159 -0.9760 -0.4631
  674MOL0     H90963   5.724  10.117   8.398 -0.7667 -0.1164 -0.2119
  674MOL0     H90964   5.632  10.401   8.458  0.2679  1.3656 -0.6216
  674MOL0     H90965   5.710  10.328   8.311  1.2795 -0.9263  2.0672
  674MOL0     H90966   5.458  10.211   8.433 -2.6325  1.1747 -1.2692
  674MOL0     H90967   5.503  10.195   8.261  1.9952  2.1924 -1.2436
  674MOL0     H90968   5.389  10.432   8.410 -1.4100 -2.1511  1.0168
  674MOL0     H90969   5.478  10.444   8.259 -0.2748  2.3767  2.6309
  674MOL0     H90970   5.509  10.080   8.791 -5.9638  0.2646 -1.1133
  674MOL0     H90971   5.300   9.972   8.861 -3.1519  2.2231  1.4466
  674MOL0     H90972   4.841   9.956   8.978  2.0190 -0.7988 -0.9701
  674MOL0     H90973   4.662   9.793   9.048 -0.3661 -2.2366 -1.5279
  674MOL0     H90974   3.140   9.289   9.619 -1.4868 -2.7171 -1.6480
  674MOL0     H90975   2.927   9.239   9.627 -1.0785  0.7581  0.8728
  674MOL0     H90976   2.544   9.150   9.797 -1.6712 -1.4188  3.4755
  674MOL0     H90977   2.312   9.137   9.739  0.1534 -2.1735  2.0489
  674MOL0     H90978   2.131   8.768   9.553  1.3479 -1.2285 -0.7584
  674MOL0     H90979   2.199   8.847   9.411  0.0940  0.5872 -0.4338
  674MOL0     H90980   1.960   8.842   9.377  1.5509 -0.0803 -0.2929
  674MOL0     H90981   2.024   9.004   9.413  3.0056 -2.2030 -0.6788
  674MOL0     H90982   1.924   9.004   9.640 -1.7910  1.5916 -0.6272
  674MOL0     H90983   1.914   8.824   9.627  1.3433 -0.5864 -0.8525
  674MOL0     H90984   1.700   8.952   9.615  0.2325 -0.5655 -0.2039
  674MOL0     H90985   1.770   9.027   9.468  2.4693  0.3966 -1.0551
  674MOL0     H90986   1.655   8.627   9.347  1.4201  0.5369 -0.1038
  674MOL0     H90987   2.372   8.756   9.556 -0.7757  1.8960 -3.5297
  674MOL0     H90988   2.665   8.669   9.662  1.6032 -2.9425 -2.7486
  674MOL0     H90989   2.563   8.660   9.530  1.2331  0.4969 -1.2131
  674MOL0     H90990   2.703   8.759   9.514  0.4560 -0.8565 -0.8778
  675MOL0     O90991   9.413   6.118   9.990  0.1511  0.0256  0.0157
  675MOL0     C90992   9.313   6.185   9.967 -0.3454 -0.0551 -0.1759
  675MOL0     O90993   9.302   6.301   9.891 -0.1429  0.6404 -0.7969
  675MOL0     C90994   9.416   6.361   9.829 -0.3512  0.8012  0.0141
  675MOL0     C90995   9.460   6.489   9.848  0.4532  0.7907  0.0235
  675MOL0     C90996   9.579   6.540   9.787 -0.3897 -0.1629 -0.0304
  675MOL0     C90997   9.657   6.447   9.707  0.5722  0.0271 -0.0794
  675MOL0     O90998   9.766   6.497   9.643  0.9103  0.6045  0.4798
  675MOL0     C90999   9.878   6.405   9.632  0.3364 -0.1294 -0.3704
  675MOL0     C91000  10.011   6.474   9.656 -0.2660 -0.0363  0.0863
  675MOL0     C91001  10.052   6.590   9.560  0.0906  0.2318  0.0019
  675MOL0     C91002  10.173   6.658   9.618 -0.2927 -0.0085  0.9542
  675MOL0     C91003  10.202   6.787   9.544  0.0668 -1.0005  0.2357
  675MOL0     C91004  10.332   6.856   9.621 -0.1766 -0.1737 -0.1183
  675MOL0     C91005  10.381   6.977   9.542 -0.7086 -0.2919 -0.2360
  675MOL0     C91006  10.275   7.079   9.513 -1.0413 -0.6677 -0.4296
  675MOL0     N91007  10.326   7.203   9.440 -0.1986 -0.1793 -0.0460
  675MOL0     C91008  10.249   7.267   9.347  0.3759  0.2600  0.4682
  675MOL0     C91009  10.318   7.378   9.316 -0.0163  0.6775 -0.0346
  675MOL0     C91010  10.289   7.478   9.208 -0.2400  0.2665 -0.5941
  675MOL0     C91011  10.133   7.499   9.174  0.1640  0.2562  0.8090
  675MOL0     C91012  10.060   7.628   9.236  0.2274 -0.3019  0.1504
  675MOL0     C91013   9.904   7.626   9.221  0.3152  0.6266 -0.2992
  675MOL0     O91014   9.852   7.532   9.325  0.1647 -0.3036  0.4539
  675MOL0     C91015   9.725   7.541   9.367  0.4561 -0.4498  0.3636
  675MOL0     C91016   9.686   7.446   9.459 -0.7492 -0.1480 -0.0613
  675MOL0     C91017   9.552   7.429   9.484 -0.0076 -0.6557 -0.4747
  675MOL0     C91018   9.458   7.520   9.426 -0.3089 -0.8211  0.3790
  675MOL0     C91019   9.320   7.522   9.456 -0.0740 -0.4747 -0.1638
  675MOL0     O91020   9.239   7.575   9.361  0.4601 -0.0369 -0.1155
  675MOL0     C91021   9.107   7.535   9.363  1.0161  0.0659  0.5843
  675MOL0     C91022   9.060   7.408   9.382 -0.6499  0.3015  0.2182
  675MOL0     C91023   8.927   7.375   9.363  1.2577  0.7459  0.0794
  675MOL0     C91024   8.831   7.472   9.346  0.2251 -0.1983  0.2173
  675MOL0     O91025   8.699   7.427   9.328  0.3046 -0.4185  0.4530
  675MOL0     C91026   8.599   7.525   9.364  0.1597 -0.2999 -0.9570
  675MOL0     C91027   8.491   7.442   9.435 -0.6649  0.0312 -0.0242
  675MOL0     C91028   8.357   7.507   9.411  0.3742 -0.0828 -0.7157
  675MOL0     C91029   8.318   7.621   9.492  0.1902  0.0371 -0.0574
  675MOL0     C91030   8.277   7.584   9.637 -0.2798 -0.3838  0.4113
  675MOL0     C91031   8.147   7.503   9.641 -0.1825 -0.0477 -0.5237
  675MOL0     C91032   8.121   7.464   9.794  0.3139 -0.0636  0.9092
  675MOL0     C91033   8.009   7.363   9.803  1.0974  0.4844  0.7551
  675MOL0    Cl91034   7.848   7.416   9.730 -0.0398  0.7048 -0.0862
  675MOL0     C91035   8.879   7.607   9.349 -0.1380 -0.4089 -0.3087
  675MOL0     C91036   9.014   7.637   9.347 -0.3876  0.6377  0.3644
  675MOL0     O91037   9.284   7.465   9.562 -0.3338 -0.5398  0.3532
  675MOL0     C91038   9.500   7.615   9.343 -0.3833  0.5151  0.8531
  675MOL0     C91039   9.634   7.625   9.309  0.4382  0.4968  0.3570
  675MOL0     N91040  10.428   7.385   9.398 -0.7550 -0.2002 -0.3535
  675MOL0     N91041  10.423   7.287   9.483 -0.3579  0.5291 -0.1247
  675MOL0     C91042   9.607   6.320   9.673  0.2739 -0.3179  0.6715
  675MOL0     C91043   9.487   6.278   9.733 -0.0295 -0.0354  0.7361
  675MOL0     C91044   9.190   6.143  10.043 -0.2519  1.1525 -0.2175
  675MOL0     C91045   9.073   6.212  10.011 -0.3615 -0.3981  0.7687
  675MOL0     C91046   8.949   6.195  10.079  0.1260  0.7839  0.1150
  675MOL0     C91047   8.937   6.093  10.173 -0.7037 -0.5664  0.6125
  675MOL0     O91048   8.817   6.061  10.234 -0.7745  0.1383 -0.4777
  675MOL0     C91049   8.777   5.921  10.241  0.5741  0.0087 -0.3683
  675MOL0     C91050   8.677   5.874  10.128 -0.0565  0.0729  0.0283
  675MOL0     C91051   8.539   5.952  10.111  0.5436 -0.0454  0.4599
  675MOL0     C91052   8.460   5.875  10.001 -1.1333  0.2836  0.7515
  675MOL0     C91053   8.336   5.943   9.986  0.1066 -0.6877  0.4473
  675MOL0     C91054   8.234   6.004   9.981 -0.6781  0.8952  0.0656
  675MOL0     C91055   9.058   6.024  10.211 -0.3277  0.7315  0.4475
  675MOL0     C91056   9.183   6.048  10.152 -0.6443  0.2424 -0.4452
  675MOL0     C91057   9.307   5.982  10.207 -0.4778  0.2386 -0.2881
  675MOL0     H91058   9.398   6.556   9.907  1.3260  0.9821  0.7424
  675MOL0     H91059   9.611   6.643   9.798 -0.4850  0.2056 -2.6101
  675MOL0     H91060   9.871   6.333   9.713  1.6161  0.0145 -0.1094
  675MOL0     H91061   9.863   6.361   9.533 -3.8801  0.9360 -0.4018
  675MOL0     H91062  10.093   6.402   9.665 -0.9284 -0.5404  2.9648
  675MOL0     H91063  10.016   6.515   9.757 -0.3782 -0.4396  0.2574
  675MOL0     H91064   9.969   6.662   9.554 -0.5298 -0.5975 -2.8196
  675MOL0     H91065  10.071   6.550   9.460  1.6520 -1.6988  0.9925
  675MOL0     H91066  10.158   6.680   9.724  0.4554  2.8609  0.5684
  675MOL0     H91067  10.264   6.598   9.604 -0.7878 -0.3596 -1.0906
  675MOL0     H91068  10.230   6.774   9.439 -0.5409  1.2469 -0.2527
  675MOL0     H91069  10.113   6.850   9.548  0.1544 -0.9416  2.9453
  675MOL0     H91070  10.304   6.897   9.718 -0.3874  1.4024 -0.8060
  675MOL0     H91071  10.408   6.778   9.631 -3.2980 -3.6715 -1.4609
  675MOL0     H91072  10.426   6.940   9.449  0.6407 -0.9303  0.6476
  675MOL0     H91073  10.468   7.016   9.595  1.1552 -3.7504 -0.4141
  675MOL0     H91074  10.198   7.038   9.446 -0.1172 -0.6565 -1.5248
  675MOL0     H91075  10.219   7.110   9.602 -1.3401 -2.9552  0.2431
  675MOL0     H91076  10.160   7.231   9.295  0.7648  2.6313 -2.0780
  675MOL0     H91077  10.336   7.567   9.250  0.3389 -1.2043  2.1062
  675MOL0     H91078  10.327   7.453   9.108 -1.4382 -0.4613 -0.8962
  675MOL0     H91079  10.111   7.507   9.067  0.8752 -1.3093  0.5172
  675MOL0     H91080  10.078   7.409   9.202 -1.1488 -0.8004 -4.2243
  675MOL0     H91081  10.099   7.722   9.197  0.0120 -0.1589  0.2819
  675MOL0     H91082  10.078   7.631   9.343  1.2666 -0.1746 -0.0163
  675MOL0     H91083   9.875   7.592   9.121 -1.6956  1.6305 -0.0973
  675MOL0     H91084   9.877   7.730   9.238  1.7053  1.1767 -1.2664
  675MOL0     H91085   9.764   7.382   9.498  1.0959  1.7164 -0.5022
  675MOL0     H91086   9.510   7.350   9.545 -0.9272 -0.4611 -0.8492
  675MOL0     H91087   9.134   7.329   9.394  0.4763  1.1238 -1.0834
  675MOL0     H91088   8.906   7.269   9.364  0.3676  0.9119  0.4003
  675MOL0     H91089   8.634   7.602   9.435  1.5057 -1.7807  0.0625
  675MOL0     H91090   8.568   7.577   9.273  3.3172  3.6578 -0.0843
  675MOL0     H91091   8.491   7.343   9.388 -2.7263  0.3854 -0.9223
  675MOL0     H91092   8.511   7.427   9.541 -1.8622 -0.9842  0.0773
  675MOL0     H91093   8.341   7.529   9.305 -1.2132 -0.3483 -0.5576
  675MOL0     H91094   8.289   7.422   9.430  1.9112 -1.1259  0.3540
  675MOL0     H91095   8.233   7.670   9.444  1.0570  1.1936 -0.4781
  675MOL0     H91096   8.394   7.699   9.494 -2.6797  3.0629 -0.1228
  675MOL0     H91097   8.268   7.677   9.694  0.4040 -0.3440  0.4641
  675MOL0     H91098   8.365   7.535   9.680 -2.1918 -2.7992  1.8209
  675MOL0     H91099   8.065   7.556   9.592 -0.3296 -0.7998 -1.1057
  675MOL0     H91100   8.159   7.410   9.584  0.2557 -0.3957  0.1267
  675MOL0     H91101   8.101   7.560   9.843  0.6922  0.5956 -0.1858
  675MOL0     H91102   8.215   7.429   9.837 -0.0343 -1.2230  0.7549
  675MOL0     H91103   8.041   7.273   9.748  2.6499  0.4920  1.6014
  675MOL0     H91104   8.007   7.326   9.906  0.2465  1.4924  1.1204
  675MOL0     H91105   8.803   7.685   9.346 -1.9459 -1.8170  2.9335
  675MOL0     H91106   9.050   7.739   9.352  0.6715  0.2856  0.1271
  675MOL0     H91107   9.444   7.682   9.279  1.1093  1.8798  0.9176
  675MOL0     H91108   9.659   7.706   9.240 -0.5189  1.1975  0.8150
  675MOL0     H91109   9.664   6.248   9.616  0.7273  1.2207 -0.8624
  675MOL0     H91110   9.460   6.173   9.721 -0.9922  0.2671  0.1353
  675MOL0     H91111   9.087   6.295   9.942  1.9004 -1.0763  0.3219
  675MOL0     H91112   8.859   6.250  10.055  1.3538  2.9287  0.1537
  675MOL0     H91113   8.720   5.908  10.333 -1.9933  2.9930 -1.3446
  675MOL0     H91114   8.860   5.849  10.243 -1.4963 -2.6880 -2.7976
  675MOL0     H91115   8.657   5.770  10.153  2.0884 -0.5311 -0.5528
  675MOL0     H91116   8.741   5.877  10.039  2.2951 -0.0374  1.6447
  675MOL0     H91117   8.564   6.058  10.101  1.5300 -0.3687 -0.7285
  675MOL0     H91118   8.481   5.948  10.204 -1.9763 -1.4049 -1.0518
  675MOL0     H91119   8.511   5.871   9.904 -1.2019 -2.8542  0.7669
  675MOL0     H91120   8.446   5.769  10.024 -1.4290  0.6604  2.4589
  675MOL0     H91121   8.142   6.049   9.952 -0.7578 -1.0851 -3.2418
  675MOL0     H91122   9.063   5.963  10.300 -2.3713  1.1620  0.9281
  675MOL0     H91123   9.351   5.913  10.134 -0.0384  0.2328 -0.0218
  675MOL0     H91124   9.382   6.056  10.236  1.1740 -2.4138  2.9201
  675MOL0     H91125   9.284   5.913  10.288  1.4522 -2.8166 -2.1170
  676MOL0     O91126   4.582   6.069   3.991 -0.1987  1.0189  0.2489
  676MOL0     C91127   4.526   5.979   4.051  0.4181  0.6127 -0.3259
  676MOL0     O91128   4.578   5.890   4.139  0.3591  0.7664 -0.6586
  676MOL0     C91129   4.709   5.894   4.182  0.3168 -0.3722 -0.0068
  676MOL0     C91130   4.773   6.012   4.222 -0.3488  0.2274  0.4499
  676MOL0     C91131   4.903   6.003   4.280  0.7312  0.5557 -0.7300
  676MOL0     C91132   4.959   5.874   4.308  0.3309 -0.4100  0.1083
  676MOL0     O91133   5.079   5.874   4.370 -0.1677  0.1538  0.3748
  676MOL0     C91134   5.148   5.747   4.369  0.1888 -0.1007 -0.5164
  676MOL0     C91135   5.275   5.754   4.443 -0.7141  0.1166 -0.4867
  676MOL0     C91136   5.393   5.810   4.347  0.5150  0.2459 -0.6182
  676MOL0     C91137   5.532   5.761   4.384  0.6368  0.1393  0.0941
  676MOL0     C91138   5.637   5.789   4.273 -0.2693  0.4048 -0.0335
  676MOL0     C91139   5.767   5.706   4.294 -0.1044 -0.4819 -0.5918
  676MOL0     C91140   5.831   5.731   4.432 -0.6374 -0.3092  1.1444
  676MOL0     C91141   5.968   5.667   4.427  0.6953 -0.7383  0.5402
  676MOL0     N91142   6.032   5.645   4.557  0.3893 -0.3629  0.4200
  676MOL0     C91143   6.060   5.522   4.602  0.6597 -0.4573 -0.7760
  676MOL0     C91144   6.134   5.544   4.710  0.2371  0.5172  0.2545
  676MOL0     C91145   6.187   5.434   4.798 -0.1886 -0.0074  1.2050
  676MOL0     C91146   6.332   5.452   4.839  0.5791 -0.8840 -0.3711
  676MOL0     C91147   6.430   5.415   4.735  0.2676 -0.3775 -1.1832
  676MOL0     C91148   6.462   5.512   4.619 -0.2732 -0.1111 -0.5284
  676MOL0     O91149   6.532   5.631   4.670  0.0704 -0.1242  0.1965
  676MOL0     C91150   6.666   5.643   4.663 -0.0475 -0.3587 -0.1607
  676MOL0     C91151   6.715   5.765   4.719 -0.3730  0.4710 -0.3556
  676MOL0     C91152   6.847   5.796   4.715 -0.2747  0.2549  1.2411
  676MOL0     C91153   6.943   5.707   4.663 -0.4374  1.0245 -0.5274
  676MOL0     C91154   7.089   5.751   4.649  0.7010  0.3431 -0.6167
  676MOL0     O91155   7.178   5.661   4.604 -0.5436  0.1695 -0.9031
  676MOL0     C91156   7.316   5.666   4.633 -0.2222 -0.7830  0.2407
  676MOL0     C91157   7.355   5.584   4.736  0.6448 -0.8380 -0.3485
  676MOL0     C91158   7.489   5.579   4.781  0.4022 -1.2267 -0.0565
  676MOL0     C91159   7.588   5.660   4.723 -0.0023 -0.4265  0.0385
  676MOL0     O91160   7.710   5.664   4.788 -0.1885  0.0318  0.4440
  676MOL0     C91161   7.808   5.750   4.734 -0.0249 -0.3980 -0.4394
  676MOL0     C91162   7.914   5.754   4.836 -0.3403  1.0611  1.2393
  676MOL0     C91163   8.008   5.871   4.824  0.3026 -0.5330  0.1595
  676MOL0     C91164   8.087   5.915   4.953 -0.6950  0.3033  0.0860
  676MOL0     C91165   8.177   6.030   4.910 -0.8829 -0.1632 -0.7933
  676MOL0     C91166   8.272   6.053   5.027 -0.0126  0.4842 -0.3062
  676MOL0     C91167   8.385   6.151   4.989  0.7995  0.6341 -0.0348
  676MOL0     C91168   8.479   6.128   4.869  0.6181 -0.3405 -0.1944
  676MOL0    Cl91169   8.399   6.213   4.730  0.4528 -0.2139  0.2148
  676MOL0     C91170   7.549   5.734   4.608  0.1368  0.3497  0.9207
  676MOL0     C91171   7.418   5.738   4.563 -0.0161 -0.7540 -0.2616
  676MOL0     O91172   7.118   5.867   4.675  1.0794  0.2139  0.6615
  676MOL0     C91173   6.904   5.578   4.622 -0.0942  0.1174 -0.5185
  676MOL0     C91174   6.762   5.541   4.629  0.2143 -0.1542 -0.1044
  676MOL0     N91175   6.141   5.678   4.733 -0.6573 -0.8641  0.1655
  676MOL0     N91176   6.078   5.740   4.642  0.4230  0.5678  0.4938
  676MOL0     C91177   4.892   5.761   4.269  0.3797  0.7275  0.7659
  676MOL0     C91178   4.770   5.774   4.198  0.6743  0.7326 -0.3264
  676MOL0     C91179   4.384   5.967   4.028 -0.1903  0.6352  0.0081
  676MOL0     C91180   4.309   5.907   4.132 -0.0343  0.2492  0.6968
  676MOL0     C91181   4.169   5.897   4.120 -0.3436 -0.2439 -0.8740
  676MOL0     C91182   4.101   5.947   4.014 -0.6106  0.2255  0.0027
  676MOL0     O91183   3.965   5.929   4.020  1.0742  0.3181 -0.6724
  676MOL0     C91184   3.895   5.951   3.889 -0.5340 -0.3937  0.0826
  676MOL0     C91185   3.746   5.937   3.910 -0.3030 -0.6448 -0.1272
  676MOL0     C91186   3.706   5.786   3.912  0.5669 -0.0096 -0.5002
  676MOL0     C91187   3.564   5.772   3.977 -0.3132  0.8723  0.3666
  676MOL0     C91188   3.535   5.636   4.025  0.6226 -0.6588 -0.3260
  676MOL0     C91189   3.519   5.521   4.058 -0.0110  0.1316  0.6467
  676MOL0     C91190   4.178   6.012   3.915  0.0336  0.0243  0.2799
  676MOL0     C91191   4.314   6.026   3.924  0.3863 -0.2936 -0.5884
  676MOL0     C91192   4.379   6.100   3.806 -0.2556  0.2725  0.4670
  676MOL0     H91193   4.724   6.109   4.211  1.2417  1.0904  0.7266
  676MOL0     H91194   4.951   6.093   4.317 -0.0244  0.7937 -0.2914
  676MOL0     H91195   5.085   5.670   4.416 -0.8067  1.6389  1.1197
  676MOL0     H91196   5.169   5.715   4.266  1.5601 -1.2424  0.0835
  676MOL0     H91197   5.304   5.653   4.471 -2.7510 -0.8333 -1.5551
  676MOL0     H91198   5.268   5.824   4.527 -1.7201  0.0162 -0.4819
  676MOL0     H91199   5.387   5.919   4.338  2.4096  0.3614 -0.7702
  676MOL0     H91200   5.370   5.771   4.247 -2.9869 -1.5224  0.7006
  676MOL0     H91201   5.564   5.801   4.481  0.5409  1.1395 -0.2735
  676MOL0     H91202   5.515   5.653   4.387 -1.6628  0.4753  2.1725
  676MOL0     H91203   5.592   5.770   4.175 -2.9489  1.3793  0.9132
  676MOL0     H91204   5.664   5.895   4.275  2.3406 -0.1970  1.0098
  676MOL0     H91205   5.763   5.599   4.273  2.6714 -0.5945 -0.8827
  676MOL0     H91206   5.835   5.744   4.217 -0.1962 -3.6259 -2.3893
  676MOL0     H91207   5.772   5.692   4.515 -0.9747  0.6685  1.3800
  676MOL0     H91208   5.854   5.838   4.445 -1.5504  0.0654 -0.1687
  676MOL0     H91209   5.948   5.569   4.382  1.6184 -0.3502 -0.8077
  676MOL0     H91210   6.038   5.725   4.365 -0.8635  1.0112  0.3208
  676MOL0     H91211   6.020   5.432   4.556 -1.2137 -0.7297  1.2194
  676MOL0     H91212   6.120   5.428   4.884  0.8550  3.0866  2.3727
  676MOL0     H91213   6.166   5.341   4.743 -4.8719  1.2345  0.4383
  676MOL0     H91214   6.351   5.558   4.857  0.2089 -1.1143  1.5722
  676MOL0     H91215   6.358   5.390   4.926 -0.6304  0.2593  0.8447
  676MOL0     H91216   6.397   5.317   4.701 -0.7971 -1.4192  2.3895
  676MOL0     H91217   6.527   5.410   4.784 -0.5350  0.3235  0.5738
  676MOL0     H91218   6.364   5.549   4.587 -0.4809 -0.0050  0.2095
  676MOL0     H91219   6.508   5.468   4.530 -1.1068  0.9221 -1.4888
  676MOL0     H91220   6.642   5.825   4.772 -2.1851 -0.6556 -1.5076
  676MOL0     H91221   6.875   5.890   4.760 -3.6775  0.8998  2.3114
  676MOL0     H91222   7.277   5.526   4.785  0.0376 -0.4394 -0.8249
  676MOL0     H91223   7.522   5.519   4.865 -0.1928  1.2003  2.0110
  676MOL0     H91224   7.842   5.710   4.638 -0.6815 -0.8089 -0.5052
  676MOL0     H91225   7.771   5.849   4.708 -1.3157 -1.1370 -1.4749
  676MOL0     H91226   7.869   5.758   4.936 -0.3573  2.1514  1.1971
  676MOL0     H91227   7.964   5.657   4.831  0.5312  1.5489  0.2255
  676MOL0     H91228   8.078   5.853   4.742 -1.7653  0.0088 -1.8496
  676MOL0     H91229   7.955   5.960   4.787  0.1615 -0.7037 -0.0541
  676MOL0     H91230   8.152   5.829   4.971 -0.7032  0.5208  1.2404
  676MOL0     H91231   8.020   5.934   5.037  1.9475 -1.6122  2.8587
  676MOL0     H91232   8.121   6.124   4.902 -0.3882  0.1130 -1.0809
  676MOL0     H91233   8.231   5.998   4.821 -3.2856 -1.0397 -2.0096
  676MOL0     H91234   8.209   6.100   5.103  0.5584 -2.5204  2.1821
  676MOL0     H91235   8.323   5.965   5.066  0.7816  0.3745 -1.5186
  676MOL0     H91236   8.455   6.157   5.073  5.5351 -3.6876 -3.0939
  676MOL0     H91237   8.329   6.245   4.978  1.0849  0.7080 -0.9460
  676MOL0     H91238   8.576   6.179   4.877 -0.3566  1.7936 -1.2357
  676MOL0     H91239   8.486   6.021   4.849  0.7757 -0.4931  0.6435
  676MOL0     H91240   7.621   5.803   4.566  1.5032 -1.8021 -0.4555
  676MOL0     H91241   7.403   5.802   4.477  1.4061  0.7955  0.5955
  676MOL0     H91242   6.988   5.514   4.597  0.5397  1.5654 -2.2757
  676MOL0     H91243   6.732   5.441   4.597 -0.9294 -0.1826  0.9819
  676MOL0     H91244   4.925   5.659   4.288 -1.8363 -0.8011 -2.6245
  676MOL0     H91245   4.706   5.690   4.170 -2.3431  2.4460  0.9645
  676MOL0     H91246   4.353   5.877   4.227  0.3696 -0.4622  0.2913
  676MOL0     H91247   4.118   5.842   4.198 -0.2957  0.7521 -0.1081
  676MOL0     H91248   3.928   5.884   3.810 -0.4133  0.5888 -0.7233
  676MOL0     H91249   3.911   6.057   3.865 -1.0880 -0.0063  1.3463
  676MOL0     H91250   3.691   5.997   3.836  0.4297  0.0033 -0.1557
  676MOL0     H91251   3.731   5.981   4.009 -1.4722 -1.0777 -0.0944
  676MOL0     H91252   3.771   5.719   3.968 -2.4375 -2.9154 -0.1486
  676MOL0     H91253   3.706   5.749   3.809 -0.8765 -1.1783 -0.1217
  676MOL0     H91254   3.553   5.839   4.063 -3.1923  2.5480 -1.1503
  676MOL0     H91255   3.492   5.801   3.901  1.5627  0.1147 -1.8079
  676MOL0     H91256   3.503   5.418   4.082 -0.2944 -0.0916 -0.4322
  676MOL0     H91257   4.121   6.061   3.837 -0.6755 -0.1876  0.6582
  676MOL0     H91258   4.294   6.142   3.751  0.1257  2.3416  1.3369
  676MOL0     H91259   4.439   6.189   3.831 -1.0017  1.6836 -2.3012
  676MOL0     H91260   4.442   6.047   3.735  2.0724  4.7590 -1.1862
  677MOL0     O91261   2.487   2.131   7.395 -0.3724 -0.2279 -0.3767
  677MOL0     C91262   2.553   2.189   7.480 -0.0945  0.5719  0.6160
  677MOL0     O91263   2.503   2.228   7.605 -1.1612  0.5090  0.7035
  677MOL0     C91264   2.363   2.235   7.629 -0.0982 -0.0455  0.1841
  677MOL0     C91265   2.255   2.265   7.540  0.0642 -1.0542 -0.2537
  677MOL0     C91266   2.123   2.275   7.585  0.6734  0.5096 -0.5049
  677MOL0     C91267   2.090   2.242   7.719  1.6827  0.6043 -0.2661
  677MOL0     O91268   1.966   2.238   7.782 -0.0543  0.1740  0.0881
  677MOL0     C91269   1.858   2.312   7.712 -0.8396  0.2425 -0.3205
  677MOL0     C91270   1.753   2.351   7.821  0.0141  0.2902 -0.6693
  677MOL0     C91271   1.625   2.395   7.753 -0.3312  0.3382 -0.2911
  677MOL0     C91272   1.612   2.537   7.705  0.3506 -0.1416 -0.0882
  677MOL0     C91273   1.600   2.640   7.823 -0.0358 -0.0743  0.4964
  677MOL0     C91274   1.584   2.792   7.790 -0.7424 -0.6243  0.8879
  677MOL0     C91275   1.542   2.851   7.917  0.0326  0.0851 -0.8958
  677MOL0     C91276   1.581   3.000   7.927 -0.3558  0.3148 -1.1936
  677MOL0     N91277   1.731   3.027   7.944  0.2572  0.6016  0.0434
  677MOL0     C91278   1.801   3.027   8.065  0.5532 -0.6359  0.5855
  677MOL0     C91279   1.925   3.008   8.039 -0.5692 -0.7536 -0.0972
  677MOL0     C91280   2.030   2.985   8.139  0.3804  0.3445 -1.0241
  677MOL0     C91281   2.165   2.958   8.067 -0.6088 -0.0032 -0.3607
  677MOL0     C91282   2.235   3.091   8.010  0.0974  0.8922 -0.6727
  677MOL0     C91283   2.373   3.062   7.941  0.3919  0.2858 -0.6066
  677MOL0     O91284   2.466   3.043   8.043  0.1926  0.2403 -0.4905
  677MOL0     C91285   2.588   3.015   8.002 -0.5222  0.2504 -0.4494
  677MOL0     C91286   2.695   3.089   8.052  0.5871  0.1712 -0.7313
  677MOL0     C91287   2.827   3.063   8.015  0.1162  0.4180  0.0141
  677MOL0     C91288   2.854   2.951   7.942  0.3366  0.3234  0.1109
  677MOL0     C91289   2.994   2.915   7.896  0.7537  0.3289  0.3571
  677MOL0     O91290   3.081   3.015   7.902  0.0674  0.0094 -0.5325
  677MOL0     C91291   3.211   3.000   7.865  0.1079 -0.7639  0.2576
  677MOL0     C91292   3.271   3.110   7.802  1.7245  0.2633 -1.2732
  677MOL0     C91293   3.402   3.102   7.763 -0.3514  0.3790 -0.9411
  677MOL0     C91294   3.481   2.989   7.795 -0.6957 -0.9426 -0.2281
  677MOL0     O91295   3.606   2.963   7.757  0.0430  0.5637 -0.4687
  677MOL0     C91296   3.690   3.056   7.690 -0.5876  0.2121  0.1200
  677MOL0     C91297   3.821   2.991   7.643  0.0755  0.9789  0.2972
  677MOL0     C91298   3.936   3.091   7.616 -0.2163  0.1076 -0.5235
  677MOL0     C91299   4.075   3.027   7.583 -0.0566 -0.0389 -0.6834
  677MOL0     C91300   4.180   3.121   7.535  0.0414  0.4219 -0.2430
  677MOL0     C91301   4.317   3.042   7.501  0.1577 -0.3326  0.1280
  677MOL0     C91302   4.432   3.154   7.499 -0.3376 -0.9608 -0.7050
  677MOL0     C91303   4.534   3.123   7.394  0.1694  1.0136 -0.3768
  677MOL0    Cl91304   4.645   3.264   7.381 -0.4576 -0.1132  0.2232
  677MOL0     C91305   3.421   2.890   7.867  0.4946 -0.3781  0.4853
  677MOL0     C91306   3.287   2.889   7.899 -0.2845  0.0195  0.4810
  677MOL0     O91307   3.008   2.806   7.838  0.3799 -0.9379 -0.8381
  677MOL0     C91308   2.754   2.878   7.894 -0.0185 -0.4882 -0.5135
  677MOL0     C91309   2.616   2.910   7.921 -0.7207 -0.5426  0.9692
  677MOL0     N91310   1.934   2.983   7.899  0.6004  0.3387 -0.4372
  677MOL0     N91311   1.817   3.000   7.845 -0.2728  0.4160 -0.5274
  677MOL0     C91312   2.193   2.215   7.802 -0.4408 -1.5094  0.4677
  677MOL0     C91313   2.329   2.219   7.767 -0.9727  0.2053  0.3261
  677MOL0     C91314   2.701   2.200   7.449 -0.7283  0.9631  0.7353
  677MOL0     C91315   2.780   2.211   7.564 -0.2158  0.3170 -0.0729
  677MOL0     C91316   2.923   2.211   7.556  0.2403 -0.3339  0.3162
  677MOL0     C91317   2.991   2.218   7.429  0.1595 -0.8124  0.3262
  677MOL0     O91318   3.127   2.234   7.408  0.4418 -0.3081 -0.5105
  677MOL0     C91319   3.216   2.260   7.510 -0.2981  0.2157  0.2499
  677MOL0     C91320   3.353   2.308   7.464 -0.3977  0.7288 -0.0546
  677MOL0     C91321   3.459   2.205   7.430 -1.4684  0.5620  0.1387
  677MOL0     C91322   3.537   2.142   7.551  0.8025  0.4040 -0.7484
  677MOL0     C91323   3.625   2.237   7.616 -0.2581 -0.6500  0.3171
  677MOL0     C91324   3.694   2.307   7.694 -0.7655  0.1568  0.3632
  677MOL0     C91325   2.904   2.200   7.315  0.5993 -0.2181 -0.5619
  677MOL0     C91326   2.764   2.204   7.324  0.1029 -0.3918  0.4410
  677MOL0     C91327   2.691   2.194   7.194  0.6207 -0.2544 -0.1327
  677MOL0     H91328   2.276   2.293   7.437 -1.1122  2.7893  0.3778
  677MOL0     H91329   2.045   2.289   7.511  0.7330  0.1855 -0.6293
  677MOL0     H91330   1.896   2.400   7.660  0.0297  0.9454  1.4449
  677MOL0     H91331   1.817   2.241   7.639 -1.6239  2.2453 -1.9418
  677MOL0     H91332   1.780   2.429   7.892 -1.9149 -0.4633  0.9938
  677MOL0     H91333   1.732   2.271   7.893 -2.4020  2.4337  1.1770
  677MOL0     H91334   1.547   2.400   7.829  1.0405  0.2807  1.1887
  677MOL0     H91335   1.601   2.333   7.667 -3.1082 -0.3693  0.8751
  677MOL0     H91336   1.706   2.568   7.660  0.4580 -0.1074  0.1573
  677MOL0     H91337   1.519   2.545   7.647  0.5533 -1.2565 -0.5715
  677MOL0     H91338   1.514   2.606   7.881  0.2976 -0.1963  0.9273
  677MOL0     H91339   1.692   2.634   7.882  0.3320 -2.0344 -0.1850
  677MOL0     H91340   1.678   2.835   7.755  1.0123 -2.7688  2.7363
  677MOL0     H91341   1.510   2.820   7.714  0.9050 -0.7504 -0.8207
  677MOL0     H91342   1.589   2.804   8.003  0.5569 -0.5674 -1.5345
  677MOL0     H91343   1.433   2.839   7.924 -0.1533  1.7385 -0.4312
  677MOL0     H91344   1.546   3.058   7.841 -2.3595  0.7297 -0.1682
  677MOL0     H91345   1.534   3.049   8.013  0.0244  2.9225 -2.3720
  677MOL0     H91346   1.744   3.029   8.157 -3.7869 -1.3824 -1.7824
  677MOL0     H91347   2.024   3.060   8.219  1.7745  0.6348 -1.1623
  677MOL0     H91348   2.014   2.890   8.191 -0.8824  0.2866 -1.5112
  677MOL0     H91349   2.243   2.906   8.123 -0.3865 -1.0381 -1.5773
  677MOL0     H91350   2.140   2.892   7.984 -1.2152  0.1347 -0.2930
  677MOL0     H91351   2.258   3.160   8.091 -0.5342 -0.2466  0.5248
  677MOL0     H91352   2.179   3.134   7.927 -2.8874  0.9426  1.1835
  677MOL0     H91353   2.394   3.150   7.880 -1.3804  1.7222  0.7780
  677MOL0     H91354   2.372   2.970   7.880  0.4847 -0.1450  0.0340
  677MOL0     H91355   2.666   3.161   8.128 -3.1381  0.2093 -1.9774
  677MOL0     H91356   2.902   3.131   8.053 -1.2719  2.6434 -1.0304
  677MOL0     H91357   3.209   3.195   7.777 -2.4920 -1.6916  1.5338
  677MOL0     H91358   3.444   3.196   7.728 -1.3389  1.3924  0.4379
  677MOL0     H91359   3.645   3.096   7.598 -0.0877  0.1675 -0.1464
  677MOL0     H91360   3.713   3.141   7.755 -0.7497 -1.1528  2.0533
  677MOL0     H91361   3.844   2.910   7.713 -0.3235  3.2793  3.2742
  677MOL0     H91362   3.791   2.933   7.555  2.8575 -1.1952  0.6348
  677MOL0     H91363   3.905   3.153   7.531 -1.8613  0.0326 -0.0221
  677MOL0     H91364   3.946   3.153   7.705 -2.7009 -0.3083  0.1364
  677MOL0     H91365   4.062   2.949   7.507  0.8155  0.0050 -0.8896
  677MOL0     H91366   4.101   2.972   7.674  1.2125  1.3423 -0.1740
  677MOL0     H91367   4.188   3.198   7.613 -0.6661  0.1809  0.0792
  677MOL0     H91368   4.141   3.182   7.453  1.0978  1.1234 -0.2382
  677MOL0     H91369   4.339   2.979   7.587  1.7337  0.0043  0.0020
  677MOL0     H91370   4.306   2.990   7.406 -1.6772  0.1233  0.0634
  677MOL0     H91371   4.477   3.167   7.597  1.4174 -3.8562 -0.9999
  677MOL0     H91372   4.390   3.247   7.459 -1.2668 -2.3905 -3.3369
  677MOL0     H91373   4.595   3.035   7.420 -0.5671  1.3840  3.1163
  677MOL0     H91374   4.487   3.096   7.299 -0.3119 -5.0426  1.1539
  677MOL0     H91375   3.481   2.801   7.885 -0.0295 -1.0754 -1.0428
  677MOL0     H91376   3.225   2.816   7.950 -2.0413  1.2215  0.1642
  677MOL0     H91377   2.769   2.787   7.836 -1.1134 -0.3530 -1.0231
  677MOL0     H91378   2.538   2.848   7.877 -1.7609  0.2665  1.6243
  677MOL0     H91379   2.179   2.216   7.909 -0.9563 -1.0908  0.4003
  677MOL0     H91380   2.394   2.202   7.852 -0.0413 -1.3936 -0.6651
  677MOL0     H91381   2.734   2.202   7.662  0.0912 -1.6342 -0.0689
  677MOL0     H91382   2.992   2.218   7.640  1.8701 -1.2964 -0.8845
  677MOL0     H91383   3.223   2.164   7.562 -0.4350 -1.4385 -2.5752
  677MOL0     H91384   3.180   2.322   7.592  1.0416  0.2097  0.8668
  677MOL0     H91385   3.386   2.381   7.538 -2.0967  3.0054 -1.4158
  677MOL0     H91386   3.345   2.370   7.374  3.2454  2.0317  0.3691
  677MOL0     H91387   3.533   2.244   7.360 -0.1734 -1.7255  0.1215
  677MOL0     H91388   3.406   2.125   7.378  0.8137 -2.3550  1.9933
  677MOL0     H91389   3.456   2.117   7.620  0.9833 -1.0903 -1.0423
  677MOL0     H91390   3.581   2.047   7.518  1.4382  1.1738 -2.2043
  677MOL0     H91391   3.747   2.380   7.751 -3.6539  3.6524 -0.9981
  677MOL0     H91392   2.948   2.205   7.216  0.1015  1.6202 -0.7273
  677MOL0     H91393   2.606   2.261   7.208  2.4697  2.0363  0.8835
  677MOL0     H91394   2.752   2.229   7.110 -1.0950  1.2829 -0.7772
  677MOL0     H91395   2.645   2.097   7.174 -1.3051  0.5347  0.2358
  678MOL0     O91396   5.947   7.634   5.379 -0.2033 -0.1478  0.2824
  678MOL0     C91397   5.861   7.554   5.405  1.6907  0.9750 -1.5033
  678MOL0     O91398   5.870   7.456   5.503 -0.6347 -0.3008 -0.1098
  678MOL0     C91399   5.993   7.442   5.559  0.9065 -0.0758 -0.1755
  678MOL0     C91400   6.091   7.393   5.476 -0.6504  0.5802 -0.1689
  678MOL0     C91401   6.224   7.386   5.524 -0.3008  0.2955 -0.2139
  678MOL0     C91402   6.257   7.426   5.651 -0.0573 -0.6774  0.6540
  678MOL0     O91403   6.371   7.399   5.719 -0.3058 -0.1948 -0.0599
  678MOL0     C91404   6.488   7.431   5.641 -0.3123  0.1970  0.3753
  678MOL0     C91405   6.563   7.301   5.601  0.3927  0.3743 -0.1388
  678MOL0     C91406   6.692   7.322   5.524  0.0302 -0.7334  0.1690
  678MOL0     C91407   6.666   7.396   5.397  0.0106  0.0740 -0.0102
  678MOL0     C91408   6.801   7.459   5.342 -0.7017 -1.1067 -0.0889
  678MOL0     C91409   6.781   7.509   5.203  0.6917 -0.2480  0.6851
  678MOL0     C91410   6.913   7.561   5.142 -0.0734 -0.0331 -0.2518
  678MOL0     C91411   6.884   7.639   5.015 -0.0526 -0.4065 -0.0547
  678MOL0     N91412   7.008   7.682   4.941 -0.3660  0.1565 -0.4308
  678MOL0     C91413   7.101   7.592   4.882 -0.4725  0.3032  0.2179
  678MOL0     C91414   7.201   7.681   4.856 -0.4711  0.9078  0.2372
  678MOL0     C91415   7.326   7.632   4.790 -0.3430 -0.6555 -0.3190
  678MOL0     C91416   7.334   7.661   4.645  0.7299 -0.4996 -0.2325
  678MOL0     C91417   7.467   7.647   4.578 -0.0644  0.9589 -0.6826
  678MOL0     C91418   7.540   7.508   4.594 -0.1753 -1.5540  0.0362
  678MOL0     O91419   7.659   7.516   4.515 -0.5876 -0.3616  0.0983
  678MOL0     C91420   7.738   7.407   4.522 -0.0614 -0.4074  0.5084
  678MOL0     C91421   7.875   7.433   4.558 -0.0611  0.2606  0.2035
  678MOL0     C91422   7.973   7.330   4.564  1.0740 -0.0625 -0.7683
  678MOL0     C91423   7.928   7.196   4.527  0.0548 -0.3754 -0.1111
  678MOL0     C91424   8.031   7.084   4.530  0.6470 -0.7227 -0.4681
  678MOL0     O91425   8.153   7.101   4.594 -0.4068 -0.5222  0.9973
  678MOL0     C91426   8.248   7.000   4.565  0.9514  0.1297  0.1356
  678MOL0     C91427   8.354   7.028   4.479  0.0717  0.0293 -0.6684
  678MOL0     C91428   8.438   6.920   4.456  0.2837  0.9102  0.4187
  678MOL0     C91429   8.422   6.793   4.504 -0.1615  0.5225  0.2694
  678MOL0     O91430   8.506   6.692   4.453 -0.9804  0.0238 -0.1936
  678MOL0     C91431   8.524   6.565   4.517  0.9351  0.5913 -0.8744
  678MOL0     C91432   8.583   6.582   4.663  0.3398 -0.5075 -0.0824
  678MOL0     C91433   8.677   6.458   4.697  0.0199 -0.6421  0.2132
  678MOL0     C91434   8.822   6.491   4.678 -0.3634 -0.5721 -0.6899
  678MOL0     C91435   8.911   6.381   4.733 -0.7379  0.7331  0.0811
  678MOL0     C91436   8.960   6.402   4.873  0.3495  0.4508 -0.6089
  678MOL0     C91437   9.078   6.501   4.893 -0.4375 -0.5834 -0.0452
  678MOL0     C91438   9.207   6.428   4.862 -0.2923 -0.3379  0.5036
  678MOL0    Cl91439   9.332   6.559   4.875  0.1593 -0.0291 -0.0097
  678MOL0     C91440   8.314   6.763   4.594  0.0096  0.9149  0.1235
  678MOL0     C91441   8.232   6.870   4.631 -0.1882 -0.6129  0.1840
  678MOL0     O91442   7.988   6.981   4.476  0.6016  0.7408  0.5032
  678MOL0     C91443   7.795   7.182   4.486 -0.3501  0.4664  0.6663
  678MOL0     C91444   7.703   7.286   4.475 -0.5578  0.7802 -1.1126
  678MOL0     N91445   7.180   7.800   4.914 -0.2485  0.3974  0.3863
  678MOL0     N91446   7.066   7.795   4.973 -0.1523 -1.2903  0.3883
  678MOL0     C91447   6.160   7.482   5.730 -0.8164 -0.1156 -0.3131
  678MOL0     C91448   6.027   7.494   5.682  0.0204  0.3085 -0.5110
  678MOL0     C91449   5.733   7.559   5.318 -0.7252  0.0189 -0.4537
  678MOL0     C91450   5.752   7.586   5.182 -0.3932 -0.3318  0.1264
  678MOL0     C91451   5.638   7.581   5.096 -0.1503 -0.1214  0.3981
  678MOL0     C91452   5.511   7.547   5.146  0.2772 -0.2773  0.3995
  678MOL0     O91453   5.396   7.535   5.073  0.5262  0.1078 -0.1655
  678MOL0     C91454   5.412   7.559   4.929 -0.4242 -0.7480  0.5961
  678MOL0     C91455   5.273   7.538   4.860 -0.6006 -0.2759 -0.2449
  678MOL0     C91456   5.175   7.651   4.902  0.0552 -0.6188 -0.1295
  678MOL0     C91457   5.042   7.642   4.816 -0.4852 -0.0178 -0.0813
  678MOL0     C91458   4.988   7.501   4.814  0.3395 -0.1535 -0.2632
  678MOL0     C91459   4.957   7.379   4.816 -0.6323  0.2302  0.5742
  678MOL0     C91460   5.501   7.531   5.285 -0.0208  0.3110 -0.0808
  678MOL0     C91461   5.603   7.534   5.373  0.1805  1.0442 -0.6620
  678MOL0     C91462   5.568   7.530   5.527 -0.1900  0.4807  0.0847
  678MOL0     H91463   6.073   7.357   5.376  2.2464 -3.2315  0.4441
  678MOL0     H91464   6.302   7.334   5.470  1.9062  3.2413 -0.1219
  678MOL0     H91465   6.466   7.485   5.548 -1.4637 -1.5496 -0.4288
  678MOL0     H91466   6.557   7.498   5.692 -0.4242  2.9770 -2.7681
  678MOL0     H91467   6.497   7.233   5.545  1.2209 -0.7349  0.2020
  678MOL0     H91468   6.585   7.244   5.692  1.4270  2.4646  0.9888
  678MOL0     H91469   6.741   7.226   5.503 -1.7485 -1.0994 -3.0367
  678MOL0     H91470   6.760   7.378   5.588 -1.0332  1.8811 -0.8701
  678MOL0     H91471   6.638   7.333   5.313  0.4917  2.3303 -1.9806
  678MOL0     H91472   6.601   7.483   5.415 -1.7118 -1.0524 -0.5810
  678MOL0     H91473   6.820   7.546   5.405 -1.2047 -2.2597  1.7431
  678MOL0     H91474   6.889   7.397   5.354  1.5684  1.6782 -1.1460
  678MOL0     H91475   6.740   7.442   5.127  2.9119  0.5353 -1.3346
  678MOL0     H91476   6.697   7.577   5.223 -0.0604 -1.7082  2.8128
  678MOL0     H91477   6.972   7.470   5.127 -1.7464 -0.9173 -1.9341
  678MOL0     H91478   6.962   7.626   5.215 -0.1564  0.6881 -0.8227
  678MOL0     H91479   6.820   7.577   4.952 -1.5049  0.2033  0.7466
  678MOL0     H91480   6.820   7.728   5.025  1.1966  0.6724 -1.2610
  678MOL0     H91481   7.097   7.485   4.863 -1.2257  0.2109  0.8809
  678MOL0     H91482   7.410   7.692   4.826 -0.9482  0.6973 -1.0958
  678MOL0     H91483   7.330   7.525   4.812 -1.2220 -0.6909 -0.3097
  678MOL0     H91484   7.259   7.598   4.596  0.7543 -0.5686 -0.1791
  678MOL0     H91485   7.298   7.763   4.627 -2.3414 -1.5396 -0.6951
  678MOL0     H91486   7.535   7.725   4.614 -0.5599  1.1846 -0.2269
  678MOL0     H91487   7.454   7.659   4.470 -0.6305 -1.9896 -1.0344
  678MOL0     H91488   7.492   7.422   4.546  2.7545 -2.8091 -0.9083
  678MOL0     H91489   7.564   7.475   4.696  1.7620 -3.9866 -1.1061
  678MOL0     H91490   7.905   7.536   4.579  0.4035  1.0404 -3.5668
  678MOL0     H91491   8.071   7.356   4.602  0.8540  3.1410 -2.1316
  678MOL0     H91492   8.345   7.118   4.418 -1.2190  2.3601  2.6431
  678MOL0     H91493   8.524   6.928   4.391  0.2769 -0.0112  0.2928
  678MOL0     H91494   8.441   6.495   4.505  1.3097  0.1181 -0.7304
  678MOL0     H91495   8.603   6.524   4.454  0.3325 -0.1462 -1.1638
  678MOL0     H91496   8.642   6.674   4.669 -0.6571  0.1531 -0.2268
  678MOL0     H91497   8.504   6.593   4.737  0.2184  0.1217 -0.3011
  678MOL0     H91498   8.664   6.426   4.801 -7.3428  0.1907  0.0272
  678MOL0     H91499   8.649   6.367   4.645 -1.9701  0.0933 -0.0758
  678MOL0     H91500   8.848   6.593   4.708  2.9295 -1.3968 -0.4029
  678MOL0     H91501   8.821   6.501   4.569  1.7077  3.0171 -0.5384
  678MOL0     H91502   9.005   6.365   4.679  0.5654  0.3962  2.3143
  678MOL0     H91503   8.854   6.288   4.725  0.7114 -0.1392 -0.4726
  678MOL0     H91504   8.874   6.437   4.930  0.1656  0.4954 -0.9165
  678MOL0     H91505   8.990   6.302   4.907  0.6066  0.4206 -0.9193
  678MOL0     H91506   9.081   6.526   5.000 -0.0721 -2.8754  0.5346
  678MOL0     H91507   9.059   6.596   4.842  0.1541  0.3185  1.3312
  678MOL0     H91508   9.228   6.354   4.940  3.0179  0.2129  0.2885
  678MOL0     H91509   9.206   6.383   4.763 -1.3187 -1.5697  1.0506
  678MOL0     H91510   8.290   6.664   4.632  0.7743  0.5456 -0.3217
  678MOL0     H91511   8.152   6.857   4.704 -0.6974 -0.4793 -0.3418
  678MOL0     H91512   7.759   7.083   4.460 -1.8824 -0.0800  4.1799
  678MOL0     H91513   7.612   7.251   4.427 -0.5879 -0.8055  0.0144
  678MOL0     H91514   6.183   7.519   5.830 -1.3777 -0.9102  0.1260
  678MOL0     H91515   5.951   7.540   5.744  2.2071  2.3217  0.8172
  678MOL0     H91516   5.850   7.613   5.143 -0.8504  3.0527  1.0090
  678MOL0     H91517   5.659   7.585   4.990 -0.4374 -2.4367  0.1991
  678MOL0     H91518   5.492   7.501   4.882  0.5936 -1.6845  3.2526
  678MOL0     H91519   5.444   7.661   4.903 -0.9665 -0.9781 -1.0744
  678MOL0     H91520   5.239   7.444   4.904 -0.0904  0.5475  2.0524
  678MOL0     H91521   5.275   7.540   4.751 -3.1216  0.6589 -0.3352
  678MOL0     H91522   5.200   7.755   4.882  1.9946 -1.1748 -0.7716
  678MOL0     H91523   5.138   7.630   5.003 -3.4641  0.8524 -0.9699
  678MOL0     H91524   4.966   7.702   4.868  1.2978 -0.3714  3.2533
  678MOL0     H91525   5.048   7.683   4.715  0.0395 -1.6734 -0.7601
  678MOL0     H91526   4.945   7.273   4.810 -1.0095  0.3139 -0.2335
  678MOL0     H91527   5.402   7.513   5.326 -0.5774  0.4812 -1.2936
  678MOL0     H91528   5.461   7.544   5.540 -0.4257 -0.8231 -0.3459
  678MOL0     H91529   5.602   7.436   5.570 -0.2141  0.0069 -0.8918
  678MOL0     H91530   5.613   7.614   5.582 -0.7620  1.5724 -1.0643
  679MOL0     O91531  11.100   7.496   7.164 -0.8360 -0.3549 -0.1986
  679MOL0     C91532  11.098   7.614   7.132 -0.6467  0.3829 -0.7734
  679MOL0     O91533  11.205   7.672   7.084  0.4563 -0.4459  0.5240
  679MOL0     C91534  11.318   7.597   7.069 -0.3508  0.5269 -0.6520
  679MOL0     C91535  11.381   7.607   6.944 -0.5103 -0.5083 -0.1454
  679MOL0     C91536  11.505   7.548   6.932  1.2158  1.4183 -0.4840
  679MOL0     C91537  11.569   7.468   7.034  0.3740  0.7736 -1.1283
  679MOL0     O91538  11.690   7.409   7.019  1.0893  0.5038  0.5570
  679MOL0     C91539  11.708   7.322   6.899 -0.1169  0.7202 -0.1909
  679MOL0     C91540  11.795   7.405   6.789 -0.1573 -0.0026 -0.2436
  679MOL0     C91541  11.944   7.381   6.820 -0.1248 -0.0684 -0.2498
  679MOL0     C91542  12.031   7.445   6.709  0.7735  0.9173 -0.2031
  679MOL0     C91543  12.172   7.406   6.722  1.3911  0.4009 -0.0935
  679MOL0     C91544  12.223   7.444   6.865 -0.3231 -0.2508 -0.4806
  679MOL0     C91545  12.230   7.598   6.891 -0.2314  0.6805  0.3552
  679MOL0     C91546  12.295   7.629   7.024 -0.3532  1.0781 -0.1446
  679MOL0     N91547  12.439   7.594   7.030 -0.2343  0.7668  0.5989
  679MOL0     C91548  12.530   7.687   6.980  0.8772  0.7447  0.1485
  679MOL0     C91549  12.655   7.639   6.999 -0.8123  0.2434 -0.6962
  679MOL0     C91550  12.785   7.685   6.941  0.2963 -0.6742 -0.0201
  679MOL0     C91551  12.822   7.824   6.986 -0.0584  0.0248 -0.5814
  679MOL0     C91552  12.925   7.905   6.907  0.1341  0.3550 -0.0098
  679MOL0     C91553  13.058   7.842   6.920 -0.6527  0.8424 -0.0096
  679MOL0     O91554  13.178   7.927   6.926  0.1536 -0.4454  0.9438
  679MOL0     C91555  13.305   7.874   6.961  0.3940 -0.2705  1.0472
  679MOL0     C91556  13.335   7.737   6.979  0.0819 -0.0671 -0.4755
  679MOL0     C91557  13.469   7.696   7.002  0.0823  0.7843  0.1638
  679MOL0     C91558  13.579   7.785   7.018  0.0332 -0.3767 -0.8237
  679MOL0     C91559  13.713   7.737   7.052  0.2025 -0.0510 -0.1107
  679MOL0     O91560  13.727   7.606   7.037  0.0430 -0.2536  0.1041
  679MOL0     C91561  13.858   7.566   7.054 -0.1409  0.5690 -0.2718
  679MOL0     C91562  13.952   7.576   6.952 -0.2092 -0.3527 -0.5700
  679MOL0     C91563  14.081   7.516   6.978 -1.0481  1.6795  0.3413
  679MOL0     C91564  14.120   7.457   7.097 -1.1499  0.4064 -0.4473
  679MOL0     O91565  14.248   7.414   7.114 -0.4342  0.3274 -0.4379
  679MOL0     C91566  14.287   7.399   7.254 -0.4328  0.6210  0.1293
  679MOL0     C91567  14.436   7.365   7.260 -0.7178  0.7827 -0.3299
  679MOL0     C91568  14.479   7.247   7.173  0.4376  0.1560 -0.4877
  679MOL0     C91569  14.634   7.238   7.164  0.7230 -0.0453 -0.2918
  679MOL0     C91570  14.684   7.096   7.137 -0.2077  0.3085 -0.1337
  679MOL0     C91571  14.827   7.075   7.171  0.2401 -0.5754  0.4750
  679MOL0     C91572  14.893   6.951   7.108 -0.7841 -0.0028 -0.3397
  679MOL0     C91573  15.040   6.914   7.152 -0.8864 -0.2676 -0.6039
  679MOL0    Cl91574  15.063   6.892   7.325 -0.3747 -0.1788  0.5249
  679MOL0     C91575  14.026   7.462   7.204  0.3086 -0.5249 -1.0910
  679MOL0     C91576  13.899   7.513   7.180  0.4537  0.3431 -0.0497
  679MOL0     O91577  13.794   7.819   7.097 -0.5137  0.6323  0.0512
  679MOL0     C91578  13.553   7.917   6.990 -0.2376  0.5227  0.3568
  679MOL0     C91579  13.414   7.964   6.967 -0.4420  0.5754  0.9058
  679MOL0     N91580  12.638   7.537   7.096 -0.6516  0.0784  0.0380
  679MOL0     N91581  12.512   7.496   7.094 -0.2408 -1.0806  0.0983
  679MOL0     C91582  11.507   7.474   7.163 -0.2777  0.3689 -0.5234
  679MOL0     C91583  11.391   7.544   7.175  0.6926  0.2079 -0.8136
  679MOL0     C91584  10.971   7.684   7.129  0.6811  0.6873 -0.9140
  679MOL0     C91585  10.968   7.799   7.045 -0.1914  0.8166 -0.3015
  679MOL0     C91586  10.853   7.869   7.039 -0.7222  1.0153 -0.2593
  679MOL0     C91587  10.736   7.830   7.100  0.3504 -0.9300 -0.4097
  679MOL0     O91588  10.632   7.918   7.076  0.2319 -0.4680 -0.5597
  679MOL0     C91589  10.498   7.877   7.106  0.1491  0.8560 -0.1792
  679MOL0     C91590  10.454   7.919   7.245 -0.1797  0.6777  0.1924
  679MOL0     C91591  10.410   8.060   7.264 -0.2563  0.0798  0.0925
  679MOL0     C91592  10.415   8.103   7.404  0.0297 -0.0822 -0.1680
  679MOL0     C91593  10.390   8.253   7.408  0.1432  0.3648 -0.2104
  679MOL0     C91594  10.365   8.372   7.409  0.7059 -0.5184 -0.8272
  679MOL0     C91595  10.739   7.717   7.181  1.0481  0.0622 -0.2823
  679MOL0     C91596  10.851   7.640   7.197 -0.4426  0.1931  0.2394
  679MOL0     C91597  10.843   7.506   7.271  0.5129 -0.0148 -0.3408
  679MOL0     H91598  11.318   7.647   6.865  1.2139  0.4911 -1.0769
  679MOL0     H91599  11.542   7.552   6.830 -0.7602  0.4100 -1.3015
  679MOL0     H91600  11.770   7.233   6.915 -2.5573 -1.3134 -1.2903
  679MOL0     H91601  11.614   7.290   6.854  0.0997 -0.1710 -0.0304
  679MOL0     H91602  11.787   7.513   6.796  0.6383  0.0941 -0.6922
  679MOL0     H91603  11.760   7.372   6.691 -0.7656  0.4409 -0.1766
  679MOL0     H91604  11.961   7.273   6.814 -2.1356 -0.3489 -1.7808
  679MOL0     H91605  11.971   7.403   6.924  1.8188 -3.3585  0.0804
  679MOL0     H91606  12.006   7.410   6.608  1.7250  1.9630 -0.8291
  679MOL0     H91607  12.021   7.553   6.700 -0.4975  1.0491  2.0789
  679MOL0     H91608  12.173   7.296   6.719 -1.2578  0.2830  0.9076
  679MOL0     H91609  12.240   7.453   6.651  2.9111  0.6380  1.4492
  679MOL0     H91610  12.171   7.390   6.945 -0.5071  0.5853 -0.0276
  679MOL0     H91611  12.326   7.408   6.872 -1.0541 -2.4326 -0.2173
  679MOL0     H91612  12.129   7.640   6.895 -0.0804  1.0432  0.3703
  679MOL0     H91613  12.277   7.638   6.801 -2.7545 -0.7811 -1.7543
  679MOL0     H91614  12.285   7.737   7.033  1.0746  1.0727  2.6661
  679MOL0     H91615  12.250   7.588   7.115 -0.4478 -0.7214 -0.9530
  679MOL0     H91616  12.494   7.774   6.927 -1.5337 -0.5510 -0.5119
  679MOL0     H91617  12.869   7.620   6.970  0.6471 -1.3538 -2.3225
  679MOL0     H91618  12.775   7.682   6.832 -0.7942 -2.3678  0.0859
  679MOL0     H91619  12.728   7.881   6.976 -2.1270 -2.6809  1.8114
  679MOL0     H91620  12.852   7.806   7.089 -1.5534  1.9860  0.2554
  679MOL0     H91621  12.932   8.009   6.938 -0.8951  0.8338 -1.2978
  679MOL0     H91622  12.894   7.912   6.802 -1.7295  1.4818  0.5736
  679MOL0     H91623  13.069   7.766   6.842  1.5338  0.7268  0.3398
  679MOL0     H91624  13.066   7.794   7.018 -0.8376 -1.0173 -0.8649
  679MOL0     H91625  13.251   7.668   6.983 -1.1335  1.4020  1.8967
  679MOL0     H91626  13.483   7.593   7.033  4.0032  1.5015  1.2709
  679MOL0     H91627  13.937   7.636   6.864 -0.7966 -1.0100 -0.9248
  679MOL0     H91628  14.151   7.521   6.895 -2.5898 -1.7198 -1.3434
  679MOL0     H91629  14.262   7.493   7.303  0.2808  1.0696 -0.3426
  679MOL0     H91630  14.235   7.312   7.295  2.4293 -0.8010  1.0348
  679MOL0     H91631  14.501   7.450   7.236  1.5776 -1.0858 -1.0370
  679MOL0     H91632  14.456   7.351   7.366 -1.5746 -0.9291 -0.3637
  679MOL0     H91633  14.438   7.158   7.221 -1.1872  1.3567  0.4447
  679MOL0     H91634  14.441   7.249   7.070  1.6122 -5.2879 -1.2964
  679MOL0     H91635  14.673   7.273   7.259 -0.2501 -1.8290  0.8121
  679MOL0     H91636  14.675   7.304   7.087 -1.2678 -0.7305 -2.0557
  679MOL0     H91637  14.672   7.071   7.031  0.9629  0.0329 -0.2173
  679MOL0     H91638  14.629   7.023   7.198 -2.2163  2.9308  1.4089
  679MOL0     H91639  14.882   7.158   7.126  0.6455 -0.3010  1.4453
  679MOL0     H91640  14.844   7.074   7.279 -0.5981  2.6170  0.7290
  679MOL0     H91641  14.904   6.970   7.001 -1.0548 -0.5386 -0.4676
  679MOL0     H91642  14.826   6.866   7.125  0.3449 -0.8869 -0.2127
  679MOL0     H91643  15.055   6.820   7.099 -0.7285 -0.6572  0.1169
  679MOL0     H91644  15.108   6.992   7.117 -1.1314 -0.3029 -1.1655
  679MOL0     H91645  14.043   7.414   7.300 -3.3694  1.4006  0.7603
  679MOL0     H91646  13.822   7.496   7.254  0.2669  3.0208  0.5056
  679MOL0     H91647  13.633   7.990   6.982  0.2771  0.0424  0.9795
  679MOL0     H91648  13.408   8.069   6.941 -0.6558  0.1124 -1.0332
  679MOL0     H91649  11.549   7.447   7.260 -0.5875  0.0723 -0.4707
  679MOL0     H91650  11.363   7.551   7.280  2.1883 -3.7065 -0.0064
  679MOL0     H91651  11.056   7.837   6.995 -1.0536  4.8868  0.9301
  679MOL0     H91652  10.847   7.956   6.974 -1.5167 -0.2255 -1.9296
  679MOL0     H91653  10.492   7.768   7.096 -1.9996  1.0860 -1.9336
  679MOL0     H91654  10.422   7.913   7.037 -0.1122  1.9569  0.6588
  679MOL0     H91655  10.546   7.901   7.303  0.2979  0.2398 -0.6773
  679MOL0     H91656  10.374   7.847   7.269 -0.3952  0.5404 -0.9048
  679MOL0     H91657  10.310   8.073   7.221  0.8509  0.9278 -2.4637
  679MOL0     H91658  10.463   8.134   7.203 -2.8390  2.3964  0.4935
  679MOL0     H91659  10.341   8.047   7.463 -1.3762 -0.4390 -2.1790
  679MOL0     H91660  10.514   8.083   7.445  0.5135 -0.1995 -1.3695
  679MOL0     H91661  10.334   8.475   7.409  1.4604 -0.2770 -1.7446
  679MOL0     H91662  10.653   7.681   7.236  0.6872  2.0009  0.5073
  679MOL0     H91663  10.743   7.492   7.312 -0.1462 -4.3096 -2.8479
  679MOL0     H91664  10.853   7.417   7.209  1.1754  0.8341 -1.5036
  679MOL0     H91665  10.911   7.512   7.356 -1.9157  2.5006  1.6453
  680MOL0     O91666   5.866  11.119   6.765 -0.3893  0.5880  0.1214
  680MOL0     C91667   5.803  11.020   6.787  0.0571 -0.9909 -0.1734
  680MOL0     O91668   5.668  11.005   6.768 -0.0942  0.1349  0.0633
  680MOL0     C91669   5.592  11.090   6.685  0.3531 -0.1661 -0.6243
  680MOL0     C91670   5.515  11.058   6.572 -1.2154  0.3315  0.1189
  680MOL0     C91671   5.453  11.148   6.482 -0.7049  0.6942 -0.4023
  680MOL0     C91672   5.476  11.277   6.509 -0.0939  0.5542 -0.0825
  680MOL0     O91673   5.426  11.370   6.419 -0.1621 -0.4290  0.8440
  680MOL0     C91674   5.512  11.485   6.387 -0.3172 -0.2335  0.3148
  680MOL0     C91675   5.630  11.447   6.291  0.3088 -0.2912 -0.4758
  680MOL0     C91676   5.751  11.371   6.353 -0.1223  0.5107 -1.1738
  680MOL0     C91677   5.834  11.465   6.436 -0.2914  0.7733  0.8280
  680MOL0     C91678   5.968  11.400   6.476  0.3341 -0.9343  0.5821
  680MOL0     C91679   6.033  11.481   6.583  0.0634 -0.0662 -0.4927
  680MOL0     C91680   6.084  11.618   6.530  1.0124 -0.3942  0.3212
  680MOL0     C91681   6.107  11.729   6.642 -0.6481 -0.4167  0.4284
  680MOL0     N91682   6.210  11.830   6.596  0.0327  0.0478 -0.9472
  680MOL0     C91683   6.192  11.930   6.510  0.1093 -0.5111  0.2340
  680MOL0     C91684   6.309  11.996   6.508 -0.1640 -0.1343 -0.4708
  680MOL0     C91685   6.333  12.116   6.415  0.3599 -0.2350  0.4715
  680MOL0     C91686   6.466  12.096   6.346 -0.0913  0.2899 -0.5317
  680MOL0     C91687   6.465  12.180   6.219 -0.7844 -0.8657 -0.2618
  680MOL0     C91688   6.476  12.333   6.263 -0.1469  0.4912 -0.2499
  680MOL0     O91689   6.428  12.416   6.157 -0.1335  0.4249 -0.9086
  680MOL0     C91690   6.300  12.452   6.144  0.2852  0.7629 -0.6120
  680MOL0     C91691   6.198  12.441   6.241 -1.2508  0.4028  0.7986
  680MOL0     C91692   6.068  12.483   6.220 -0.9361 -0.2944 -0.3294
  680MOL0     C91693   6.044  12.544   6.089  0.5453 -0.2646  0.1272
  680MOL0     C91694   5.907  12.604   6.068  0.1149 -0.1259 -0.1532
  680MOL0     O91695   5.889  12.667   5.947  0.2671 -0.1959  0.1619
  680MOL0     C91696   5.751  12.690   5.930 -0.1252 -0.1557 -0.2447
  680MOL0     C91697   5.664  12.594   5.870  0.0104  0.1914  0.2782
  680MOL0     C91698   5.526  12.618   5.854 -0.4758  0.3854  0.3865
  680MOL0     C91699   5.460  12.725   5.898 -0.9322 -0.6474  0.5303
  680MOL0     O91700   5.331  12.752   5.895  0.4619 -0.8945 -0.0111
  680MOL0     C91701   5.243  12.653   5.859 -0.0183  0.5366 -0.1676
  680MOL0     C91702   5.099  12.714   5.874  0.6833  0.0764  0.6230
  680MOL0     C91703   5.074  12.836   5.781  0.3869  0.6681  0.7491
  680MOL0     C91704   4.928  12.878   5.804  0.4344 -0.1878 -0.4617
  680MOL0     C91705   4.888  12.984   5.701  0.2667 -0.3889  0.8095
  680MOL0     C91706   4.742  13.013   5.700  0.5966 -0.1901  0.4510
  680MOL0     C91707   4.686  13.114   5.605 -0.6781 -0.4852 -0.0794
  680MOL0     C91708   4.774  13.248   5.594 -0.1419 -0.2398  0.1172
  680MOL0    Cl91709   4.671  13.391   5.555 -0.3619 -0.3026 -0.2582
  680MOL0     C91710   5.544  12.816   5.961 -0.7699  0.4032  0.4270
  680MOL0     C91711   5.682  12.806   5.981  0.5090  0.1667  0.1928
  680MOL0     O91712   5.819  12.586   6.157  0.2723  0.6733 -0.4243
  680MOL0     C91713   6.138  12.555   5.987 -0.2191 -0.2092  0.1667
  680MOL0     C91714   6.263  12.497   6.014  0.4009  0.3578  0.1873
  680MOL0     N91715   6.398  11.940   6.601 -0.3661 -0.3637 -0.3105
  680MOL0     N91716   6.336  11.845   6.660 -0.3258 -0.1352  0.5118
  680MOL0     C91717   5.534  11.316   6.635 -0.1139 -0.5444 -1.0757
  680MOL0     C91718   5.595  11.226   6.711  0.3185 -0.6471 -0.4788
  680MOL0     C91719   5.877  10.895   6.813  0.6142  0.6401  0.1284
  680MOL0     C91720   5.835  10.780   6.740 -0.6600  0.2313  0.2028
  680MOL0     C91721   5.907  10.668   6.752 -0.2253 -0.2410  0.1887
  680MOL0     C91722   6.017  10.651   6.843 -0.4114 -0.1355  0.6975
  680MOL0     O91723   6.083  10.532   6.839  0.2821  0.0821  1.1116
  680MOL0     C91724   6.173  10.502   6.948 -0.2194  0.3093  0.1894
  680MOL0     C91725   6.242  10.367   6.931  0.1025 -0.1431 -0.3479
  680MOL0     C91726   6.308  10.366   6.788  0.1517  0.8249  0.3441
  680MOL0     C91727   6.452  10.388   6.793  0.4239 -0.0042  0.5324
  680MOL0     C91728   6.487  10.531   6.782  0.2297 -0.0406  0.6008
  680MOL0     C91729   6.515  10.645   6.778 -0.2226 -0.5925 -0.7595
  680MOL0     C91730   6.044  10.763   6.925 -0.7713 -0.0892 -0.2230
  680MOL0     C91731   5.981  10.884   6.913 -0.7254  0.9849  0.3372
  680MOL0     C91732   6.023  10.994   6.998 -0.5970  0.3047 -0.4065
  680MOL0     H91733   5.512  10.956   6.535  2.0215  0.7305 -1.5699
  680MOL0     H91734   5.408  11.105   6.393 -1.8978  0.6302  0.2066
  680MOL0     H91735   5.463  11.574   6.347  0.8848  0.2445 -0.1227
  680MOL0     H91736   5.551  11.525   6.481 -0.4754 -1.0480  0.7416
  680MOL0     H91737   5.676  11.540   6.258  0.8293  0.8996  3.1756
  680MOL0     H91738   5.596  11.397   6.199  0.6378  2.5536 -2.2640
  680MOL0     H91739   5.819  11.346   6.271  1.8722 -1.6166  0.9801
  680MOL0     H91740   5.709  11.289   6.410  0.5267 -0.1550 -1.6365
  680MOL0     H91741   5.854  11.556   6.380 -1.0427  0.0838 -0.6209
  680MOL0     H91742   5.772  11.496   6.521 -1.1134  1.5894 -0.0415
  680MOL0     H91743   5.948  11.299   6.513  1.0527 -1.6136 -0.7926
  680MOL0     H91744   6.042  11.402   6.395  0.9346  1.6261  1.1099
  680MOL0     H91745   5.968  11.488   6.671 -0.3530  1.7765 -0.9236
  680MOL0     H91746   6.120  11.426   6.621 -0.2228  0.9915  1.8604
  680MOL0     H91747   6.016  11.654   6.453  0.8551 -3.0620 -0.8878
  680MOL0     H91748   6.178  11.610   6.475  1.7395  0.9468  1.2993
  680MOL0     H91749   6.010  11.774   6.666 -0.4344 -0.0057  0.5321
  680MOL0     H91750   6.139  11.676   6.732  1.3477 -0.9150 -0.5188
  680MOL0     H91751   6.104  11.950   6.449  1.3040  2.5393 -0.6894
  680MOL0     H91752   6.249  12.118   6.344 -1.0361 -3.8380  1.7520
  680MOL0     H91753   6.327  12.209   6.471 -0.8393 -0.2995  0.4943
  680MOL0     H91754   6.541  12.130   6.418  2.6241 -1.0013 -2.5644
  680MOL0     H91755   6.483  11.992   6.317 -0.2184  0.2400 -0.4278
  680MOL0     H91756   6.388  12.159   6.144 -0.8389 -2.9119  0.3074
  680MOL0     H91757   6.560  12.157   6.169  0.3842  1.2098  0.8680
  680MOL0     H91758   6.574  12.361   6.301 -0.8364  1.8727  0.5922
  680MOL0     H91759   6.417  12.351   6.353  1.0747  2.3993  0.2134
  680MOL0     H91760   6.214  12.388   6.335 -0.7719 -4.4280 -1.6816
  680MOL0     H91761   5.996  12.469   6.300 -0.7288  1.2400  0.1694
  680MOL0     H91762   5.699  12.497   5.835  0.5106  0.2196  0.6798
  680MOL0     H91763   5.471  12.538   5.805  0.3186  0.8162 -1.2853
  680MOL0     H91764   5.278  12.611   5.764  1.3513  1.1577  0.0430
  680MOL0     H91765   5.249  12.570   5.929  0.8124  0.2384 -0.5745
  680MOL0     H91766   5.027  12.633   5.859  0.5457 -0.0793  2.0142
  680MOL0     H91767   5.078  12.743   5.977 -3.2740 -2.5960  0.7485
  680MOL0     H91768   5.145  12.917   5.798  0.1738  0.4754  2.8606
  680MOL0     H91769   5.079  12.793   5.681  0.8748 -0.1625  1.1131
  680MOL0     H91770   4.923  12.922   5.904 -1.7512  0.8118 -0.9653
  680MOL0     H91771   4.858  12.794   5.794  0.0486  0.0972 -0.1511
  680MOL0     H91772   4.916  12.943   5.603  1.2654 -4.9619  2.7538
  680MOL0     H91773   4.941  13.078   5.722 -2.0290  0.2409  4.6779
  680MOL0     H91774   4.691  12.921   5.670 -0.6488  0.7549 -0.4544
  680MOL0     H91775   4.715  13.032   5.804  0.9586  1.8851  0.2134
  680MOL0     H91776   4.584  13.138   5.638 -0.9231 -1.8970  0.2513
  680MOL0     H91777   4.690  13.068   5.506  1.5498 -1.3566  0.3364
  680MOL0     H91778   4.838  13.275   5.679 -2.5540  2.3414  1.2776
  680MOL0     H91779   4.848  13.234   5.515 -1.2406  1.0834 -1.2051
  680MOL0     H91780   5.496  12.900   6.009 -1.0780  0.1301  0.6047
  680MOL0     H91781   5.722  12.889   6.039 -2.0474  2.1960 -0.7561
  680MOL0     H91782   6.117  12.597   5.890  2.6923  1.9309  0.3532
  680MOL0     H91783   6.338  12.499   5.935 -0.2265  1.1901 -0.3941
  680MOL0     H91784   5.542  11.417   6.673 -0.8833 -0.0113 -2.2731
  680MOL0     H91785   5.655  11.266   6.793  0.1655 -0.2049 -0.5775
  680MOL0     H91786   5.759  10.792   6.664 -0.4200 -2.7642 -0.6439
  680MOL0     H91787   5.881  10.587   6.684 -0.7247 -1.8394  2.1785
  680MOL0     H91788   6.126  10.522   7.045  0.5419  5.6851 -0.2475
  680MOL0     H91789   6.254  10.575   6.942 -0.7692  0.8284 -1.2465
  680MOL0     H91790   6.164  10.291   6.943  2.0402 -2.1849  0.1251
  680MOL0     H91791   6.307  10.348   7.017 -0.3605  2.2924  0.6157
  680MOL0     H91792   6.269  10.433   6.711  1.2299 -2.8791 -3.8808
  680MOL0     H91793   6.290  10.263   6.756 -1.2847  1.4297 -0.8811
  680MOL0     H91794   6.502  10.343   6.879 -1.3616 -0.1372  1.5465
  680MOL0     H91795   6.499  10.353   6.700 -1.7224  2.3807 -1.6059
  680MOL0     H91796   6.552  10.745   6.787  2.4334 -1.6258  0.8169
  680MOL0     H91797   6.128  10.759   6.994 -1.5429 -2.1552  0.6732
  680MOL0     H91798   6.108  10.965   7.061 -0.7181 -1.9227 -1.1618
  680MOL0     H91799   6.058  11.080   6.940  1.0836 -0.5272 -0.7122
  680MOL0     H91800   5.944  11.029   7.064 -0.7050 -1.0730  0.2253
  681MOL0     O91801   9.205   9.425   4.273  0.4436  0.2435  0.1907
  681MOL0     C91802   9.157   9.480   4.368 -0.0540  0.4451 -0.2056
  681MOL0     O91803   9.205   9.499   4.492 -0.4391 -0.2290  0.4230
  681MOL0     C91804   9.311   9.425   4.537 -0.4744  0.9343  0.0293
  681MOL0     C91805   9.356   9.294   4.492 -0.6052 -0.2899 -0.1723
  681MOL0     C91806   9.460   9.216   4.548 -0.2713 -0.7806 -0.4803
  681MOL0     C91807   9.528   9.274   4.659  0.4878  0.0344  0.7760
  681MOL0     O91808   9.639   9.205   4.712 -0.5231  0.4264 -0.4262
  681MOL0     C91809   9.656   9.181   4.851 -0.8177  0.4463 -0.6343
  681MOL0     C91810   9.758   9.278   4.904 -0.6769  0.4616 -1.3703
  681MOL0     C91811   9.779   9.247   5.054  0.2271 -0.5507  0.3061
  681MOL0     C91812   9.856   9.358   5.121  0.2230  0.2932  0.4972
  681MOL0     C91813   9.894   9.334   5.264  0.0405  0.7390 -1.4339
  681MOL0     C91814   9.771   9.267   5.345 -0.1436 -0.0287 -0.5648
  681MOL0     C91815   9.811   9.224   5.496 -1.0732 -0.0500 -0.2057
  681MOL0     C91816   9.901   9.101   5.533  0.5035  1.1113  0.1292
  681MOL0     N91817   9.820   8.978   5.515 -0.0857 -1.0395 -0.0527
  681MOL0     C91818   9.739   8.932   5.616 -0.0025 -0.2941 -0.4046
  681MOL0     C91819   9.650   8.860   5.555 -0.2606  0.1492 -0.5852
  681MOL0     C91820   9.549   8.780   5.632  0.0196  0.5049 -1.0855
  681MOL0     C91821   9.597   8.675   5.731  0.0523 -0.2160 -0.3205
  681MOL0     C91822   9.480   8.634   5.821 -0.5198  0.4834 -0.7782
  681MOL0     C91823   9.509   8.516   5.909 -0.5113  0.8308  0.8054
  681MOL0     O91824   9.406   8.493   6.006  0.0336  0.1633 -0.0366
  681MOL0     C91825   9.326   8.383   5.992  0.2933 -0.5882 -0.7049
  681MOL0     C91826   9.271   8.330   6.114  0.1831 -0.2340  0.0524
  681MOL0     C91827   9.169   8.230   6.105 -0.4594  0.8830 -0.0962
  681MOL0     C91828   9.136   8.179   5.979 -0.0479  0.3648 -0.2565
  681MOL0     C91829   9.034   8.082   5.984 -0.5684 -0.1368 -0.4254
  681MOL0     O91830   8.936   8.091   5.889  0.0539 -0.4055 -0.3928
  681MOL0     C91831   8.823   8.014   5.877  0.0365  0.9371  0.6843
  681MOL0     C91832   8.700   8.079   5.886 -0.0301 -0.0608  0.3659
  681MOL0     C91833   8.579   8.021   5.851 -0.3578  0.3026  0.3642
  681MOL0     C91834   8.579   7.880   5.825  0.5048 -0.7818  0.5525
  681MOL0     O91835   8.462   7.817   5.792  0.2437  0.5682  0.3155
  681MOL0     C91836   8.335   7.884   5.778 -0.4404 -0.0895  1.0352
  681MOL0     C91837   8.239   7.787   5.716  0.1802 -0.2467  0.6294
  681MOL0     C91838   8.099   7.843   5.709 -0.1112 -0.1015  0.5384
  681MOL0     C91839   8.008   7.763   5.615  0.3043  0.3443 -0.2034
  681MOL0     C91840   7.874   7.833   5.592 -0.6653  0.7093 -0.0155
  681MOL0     C91841   7.802   7.762   5.491 -0.6600 -0.9541  0.0318
  681MOL0     C91842   7.668   7.828   5.457  0.3824  0.2135  0.6771
  681MOL0     C91843   7.591   7.753   5.348 -0.7647  0.0068 -0.3268
  681MOL0    Cl91844   7.686   7.666   5.220  0.2103  0.1808 -0.0520
  681MOL0     C91845   8.701   7.810   5.820  0.2395 -1.0294  0.5364
  681MOL0     C91846   8.825   7.875   5.851  0.9102  0.5838 -0.7454
  681MOL0     O91847   9.026   8.000   6.080 -0.4597  0.0107  0.1644
  681MOL0     C91848   9.185   8.235   5.861 -1.0750 -0.4399  0.0217
  681MOL0     C91849   9.278   8.335   5.865  0.1239  0.5138 -0.6253
  681MOL0     N91850   9.664   8.862   5.417  1.1478 -0.6690 -0.0859
  681MOL0     N91851   9.767   8.941   5.393 -0.3081 -0.0858  0.2947
  681MOL0     C91852   9.487   9.409   4.704 -0.4254  0.2047  0.2596
  681MOL0     C91853   9.384   9.484   4.643  0.2877 -0.5318  0.1177
  681MOL0     C91854   9.036   9.555   4.340  0.0094  0.8011  0.0135
  681MOL0     C91855   9.018   9.678   4.401  0.6738 -0.6303  0.6588
  681MOL0     C91856   8.903   9.748   4.373 -0.2025 -0.0363  0.1266
  681MOL0     C91857   8.800   9.697   4.300 -0.0867 -0.6260  0.5868
  681MOL0     O91858   8.683   9.765   4.279  0.8302 -0.5305  0.0503
  681MOL0     C91859   8.664   9.905   4.320  0.6033 -0.1082  0.0651
  681MOL0     C91860   8.540   9.968   4.255 -0.3721 -0.4371  0.0435
  681MOL0     C91861   8.525  10.121   4.276  0.0870 -0.3116  0.3096
  681MOL0     C91862   8.406  10.165   4.369 -0.7513  1.1663 -0.8119
  681MOL0     C91863   8.442  10.118   4.499 -0.7467  0.7916 -0.4551
  681MOL0     C91864   8.495  10.081   4.605  0.8915 -0.2745  0.2000
  681MOL0     C91865   8.811   9.576   4.245 -0.9733  0.8448  0.0864
  681MOL0     C91866   8.932   9.507   4.252  0.2054 -0.6189 -0.1570
  681MOL0     C91867   8.934   9.374   4.173 -0.1335  0.1654  0.1996
  681MOL0     H91868   9.307   9.241   4.410  0.5171 -1.2271 -0.2581
  681MOL0     H91869   9.482   9.116   4.512  2.1132 -0.4424 -0.1535
  681MOL0     H91870   9.558   9.189   4.899 -1.2192 -0.1476 -1.3350
  681MOL0     H91871   9.687   9.077   4.863 -1.9628  0.3085  2.0331
  681MOL0     H91872   9.730   9.383   4.890 -2.0272  0.0723 -1.7054
  681MOL0     H91873   9.852   9.275   4.848  2.5081  1.0917  3.3618
  681MOL0     H91874   9.833   9.153   5.068  1.6284 -0.5882 -3.9671
  681MOL0     H91875   9.675   9.241   5.087 -0.5602 -1.6266 -2.1431
  681MOL0     H91876   9.950   9.373   5.067  2.1993 -2.1944  2.9128
  681MOL0     H91877   9.802   9.452   5.109 -1.6123 -1.0831 -4.3438
  681MOL0     H91878   9.980   9.268   5.261 -1.5614 -1.4625 -1.6268
  681MOL0     H91879   9.926   9.429   5.309  6.8283 -1.3288 -0.8545
  681MOL0     H91880   9.695   9.344   5.363 -0.4992 -0.4927 -0.0422
  681MOL0     H91881   9.732   9.174   5.303 -0.5953 -0.1484  0.1056
  681MOL0     H91882   9.721   9.214   5.558 -1.4493  0.3849 -0.6761
  681MOL0     H91883   9.859   9.311   5.542 -1.7367  0.5381 -0.6322
  681MOL0     H91884   9.976   9.089   5.455 -0.1564  1.5500 -0.5856
  681MOL0     H91885   9.941   9.106   5.635  2.4256  0.0498 -0.5258
  681MOL0     H91886   9.758   8.948   5.722 -1.0729  0.2730 -0.2925
  681MOL0     H91887   9.488   8.850   5.690  1.0718  1.3220 -0.9261
  681MOL0     H91888   9.482   8.736   5.557  1.6847  1.6483 -3.3803
  681MOL0     H91889   9.638   8.588   5.678  0.0687 -0.7646  0.5707
  681MOL0     H91890   9.676   8.717   5.793 -1.4403 -1.1173  2.3476
  681MOL0     H91891   9.401   8.604   5.751  1.9097 -2.9919 -2.2974
  681MOL0     H91892   9.448   8.709   5.894  0.6891  0.5539 -0.2967
  681MOL0     H91893   9.596   8.534   5.973  0.7718 -1.1841 -0.2504
  681MOL0     H91894   9.540   8.426   5.854 -2.1894 -0.3257  1.6707
  681MOL0     H91895   9.301   8.370   6.210 -1.6093 -0.4675  0.7483
  681MOL0     H91896   9.123   8.188   6.193  2.2929 -0.2933  0.8898
  681MOL0     H91897   8.701   8.186   5.907  1.9540  0.1216 -0.4134
  681MOL0     H91898   8.486   8.077   5.845 -0.1662  0.5466 -0.7080
  681MOL0     H91899   8.317   7.908   5.883  1.4251 -0.1236  1.4009
  681MOL0     H91900   8.333   7.964   5.703 -0.0935 -0.4513  0.6306
  681MOL0     H91901   8.276   7.763   5.616  0.5367  2.0807  0.1587
  681MOL0     H91902   8.225   7.699   5.781 -1.2542  0.0745  0.7757
  681MOL0     H91903   8.042   7.841   5.802 -4.3523  1.3079 -1.7764
  681MOL0     H91904   8.095   7.945   5.669  1.3676 -0.2854 -0.1578
  681MOL0     H91905   7.978   7.667   5.659 -2.1787  1.4986  0.8040
  681MOL0     H91906   8.066   7.762   5.522  0.9951  1.5104  0.1967
  681MOL0     H91907   7.881   7.937   5.559 -1.6014 -0.0361 -2.9229
  681MOL0     H91908   7.807   7.816   5.677 -0.9099 -0.1552 -0.3687
  681MOL0     H91909   7.858   7.743   5.399 -1.7445 -1.4970 -0.5388
  681MOL0     H91910   7.784   7.661   5.530 -0.6913 -0.0136  2.6019
  681MOL0     H91911   7.691   7.925   5.411 -2.3133 -0.6567 -2.9491
  681MOL0     H91912   7.601   7.839   5.543  1.2296 -2.4303  1.7795
  681MOL0     H91913   7.538   7.679   5.409 -2.4598 -0.1512 -1.8839
  681MOL0     H91914   7.511   7.814   5.304 -2.2671  0.2765  2.5781
  681MOL0     H91915   8.695   7.712   5.774  1.2561 -1.4764  1.3165
  681MOL0     H91916   8.916   7.816   5.855  0.2974 -0.5243 -2.3404
  681MOL0     H91917   9.162   8.190   5.765  2.3331 -0.1493 -1.0897
  681MOL0     H91918   9.334   8.381   5.784  4.9363 -2.3176  0.7149
  681MOL0     H91919   9.553   9.444   4.783 -0.1020 -0.8552  0.4799
  681MOL0     H91920   9.355   9.582   4.678 -1.1250 -1.4563  1.6764
  681MOL0     H91921   9.099   9.719   4.461  0.8396  1.1231 -0.6932
  681MOL0     H91922   8.876   9.850   4.400 -2.5819 -0.9666  1.5098
  681MOL0     H91923   8.750   9.970   4.300  1.1160 -1.1346 -1.2272
  681MOL0     H91924   8.659   9.915   4.429  0.9283 -1.2851  0.1986
  681MOL0     H91925   8.452   9.923   4.301 -1.5571  1.3978 -0.3554
  681MOL0     H91926   8.533   9.945   4.148 -1.8685 -0.1463  0.0609
  681MOL0     H91927   8.512  10.163   4.176  0.4073 -0.7847  0.0609
  681MOL0     H91928   8.622  10.168   4.295 -0.6838  2.1279 -1.3038
  681MOL0     H91929   8.407  10.274   4.375 -1.2190  1.1621 -0.5809
  681MOL0     H91930   8.305  10.131   4.344 -0.7835  0.8266 -0.2435
  681MOL0     H91931   8.521  10.086   4.709 -2.6002 -1.2017  1.2572
  681MOL0     H91932   8.731   9.536   4.183 -0.8266  0.8722 -0.1220
  681MOL0     H91933   8.837   9.329   4.198  2.2194 -5.0261  1.4053
  681MOL0     H91934   8.946   9.393   4.066  1.9943  0.7331  0.4991
  681MOL0     H91935   9.015   9.306   4.200 -0.0620 -0.4481 -1.4667
  682MOL0     O91936   3.342   8.179   4.100  0.0185 -0.0852  0.1120
  682MOL0     C91937   3.283   8.115   4.191  0.0144  0.4270 -0.2045
  682MOL0     O91938   3.350   8.053   4.292  0.2151 -0.6639  0.1005
  682MOL0     C91939   3.483   8.083   4.307 -0.3531 -1.0661 -1.1815
  682MOL0     C91940   3.584   8.000   4.272 -0.1226 -0.5412 -0.3929
  682MOL0     C91941   3.719   8.024   4.303  0.2155 -0.7938 -0.5517
  682MOL0     C91942   3.755   8.152   4.349  1.0886  0.0242 -0.1907
  682MOL0     O91943   3.884   8.194   4.380 -0.0065  0.0886  0.7711
  682MOL0     C91944   3.993   8.123   4.310  0.3836 -0.6375  0.7169
  682MOL0     C91945   4.118   8.211   4.297  1.0961 -0.2750  0.3461
  682MOL0     C91946   4.217   8.112   4.258 -0.4379  0.3762  0.4863
  682MOL0     C91947   4.362   8.174   4.210  0.2023  0.8987  0.3021
  682MOL0     C91948   4.468   8.063   4.181 -0.0320  0.5541  0.1447
  682MOL0     C91949   4.602   8.134   4.144 -0.2288  0.2715 -0.5260
  682MOL0     C91950   4.690   8.029   4.070 -0.3438 -0.1560 -0.0194
  682MOL0     C91951   4.815   8.006   4.155 -0.0127  0.2860 -0.2558
  682MOL0     N91952   4.899   8.125   4.138  0.3723  0.6723 -0.2178
  682MOL0     C91953   4.947   8.201   4.244 -0.2639  0.4339  0.4690
  682MOL0     C91954   5.033   8.293   4.183  0.1147  0.2192 -0.6488
  682MOL0     C91955   5.108   8.402   4.250 -0.2156  0.2835 -0.0839
  682MOL0     C91956   5.259   8.393   4.281 -0.3191  0.2293 -0.4505
  682MOL0     C91957   5.343   8.347   4.158  0.5902  0.3175  0.5278
  682MOL0     C91958   5.491   8.376   4.181  0.4491  0.1737  0.3615
  682MOL0     O91959   5.555   8.383   4.047 -0.6723  0.1968 -0.3488
  682MOL0     C91960   5.688   8.422   4.036 -0.2946  1.2436  0.1227
  682MOL0     C91961   5.768   8.448   4.145 -0.7987  0.0542  0.7849
  682MOL0     C91962   5.911   8.473   4.130  0.7807 -0.0757  0.2989
  682MOL0     C91963   5.963   8.474   3.998  0.8660  0.5044  1.2008
  682MOL0     C91964   6.111   8.505   3.982 -0.0094  0.6017  0.0849
  682MOL0     O91965   6.156   8.537   3.860  0.2419  0.6803  0.4684
  682MOL0     C91966   6.291   8.568   3.855 -0.6075  0.5394  1.0954
  682MOL0     C91967   6.396   8.476   3.843  0.4911 -0.4645  0.2889
  682MOL0     C91968   6.526   8.517   3.833  0.2758  0.4963  0.9036
  682MOL0     C91969   6.559   8.650   3.810 -1.0237  0.1676  0.0197
  682MOL0     O91970   6.688   8.702   3.776  0.5412  0.3863 -0.4401
  682MOL0     C91971   6.786   8.607   3.754  0.5677 -0.0821  0.2221
  682MOL0     C91972   6.901   8.675   3.678  0.1189  0.0090 -0.6206
  682MOL0     C91973   6.982   8.770   3.773  0.8035 -1.2330 -0.2545
  682MOL0     C91974   7.108   8.819   3.694 -0.0308 -0.1842 -0.0764
  682MOL0     C91975   7.204   8.898   3.779 -0.0667 -0.1171  0.4775
  682MOL0     C91976   7.324   8.946   3.705 -1.0676  0.2501 -0.0121
  682MOL0     C91977   7.428   9.034   3.790  0.3520 -0.6222 -0.3932
  682MOL0     C91978   7.507   8.943   3.882  0.3218 -1.1178 -0.8755
  682MOL0    Cl91979   7.666   9.023   3.934  0.4482  0.1026 -0.1172
  682MOL0     C91980   6.455   8.744   3.821 -0.5055 -0.6892  0.4442
  682MOL0     C91981   6.322   8.702   3.835 -0.1859 -0.4181  0.9924
  682MOL0     O91982   6.170   8.513   4.086  0.2213 -0.2442 -0.9214
  682MOL0     C91983   5.881   8.432   3.890 -0.3275  0.0427 -0.5463
  682MOL0     C91984   5.745   8.427   3.909 -0.0087  0.1433  0.3129
  682MOL0     N91985   5.031   8.270   4.045  0.0130  0.8327 -0.5092
  682MOL0     N91986   4.958   8.168   4.022  0.5294 -0.3380 -0.5603
  682MOL0     C91987   3.650   8.237   4.378 -0.5954 -0.0487 -0.1921
  682MOL0     C91988   3.512   8.202   4.366 -1.0902 -1.0312 -0.4407
  682MOL0     C91989   3.138   8.103   4.201  0.1570 -1.0807  0.6772
  682MOL0     C91990   3.083   7.990   4.260 -0.9059 -0.5831  0.7348
  682MOL0     C91991   2.950   7.985   4.286 -0.5024  0.9293  0.1830
  682MOL0     C91992   2.864   8.086   4.258  0.0046 -0.0024  0.6028
  682MOL0     O91993   2.726   8.085   4.276 -0.9469  0.9712 -0.6159
  682MOL0     C91994   2.659   7.976   4.340 -0.1333  0.4944 -0.2257
  682MOL0     C91995   2.511   7.996   4.370 -0.4812  0.0821 -0.0654
  682MOL0     C91996   2.427   7.999   4.251 -0.2562  0.0719  0.1861
  682MOL0     C91997   2.283   8.027   4.270 -0.3051 -0.1493  0.6830
  682MOL0     C91998   2.213   7.930   4.354 -0.2448 -0.7338  0.0970
  682MOL0     C91999   2.145   7.844   4.406  0.4144 -0.3690  0.7680
  682MOL0     C92000   2.918   8.205   4.203 -0.2454  0.2121  1.2953
  682MOL0     C92001   3.052   8.219   4.165 -0.2455  0.4055  0.3361
  682MOL0     C92002   3.094   8.352   4.091  0.2115 -1.3962 -0.0409
  682MOL0     H92003   3.561   7.899   4.240 -0.2132 -0.0159 -2.0802
  682MOL0     H92004   3.779   7.935   4.286 -0.3467 -1.6224  1.5605
  682MOL0     H92005   4.015   8.035   4.370 -1.3844 -0.9532  0.9591
  682MOL0     H92006   3.957   8.095   4.210 -0.0096  2.4927 -0.1364
  682MOL0     H92007   4.144   8.259   4.392  0.2848 -0.7284  0.8036
  682MOL0     H92008   4.107   8.297   4.231  0.9731  1.1153  2.0969
  682MOL0     H92009   4.173   8.055   4.176 -0.2190  0.6201  0.1939
  682MOL0     H92010   4.241   8.055   4.348  3.4569 -0.5482 -0.9265
  682MOL0     H92011   4.328   8.232   4.125 -1.9719 -0.7869 -0.0850
  682MOL0     H92012   4.398   8.230   4.297  1.5238 -1.6126  1.4908
  682MOL0     H92013   4.469   8.008   4.276 -0.7173 -1.4609 -0.9542
  682MOL0     H92014   4.437   8.000   4.098  0.0790 -1.7974  1.7924
  682MOL0     H92015   4.581   8.218   4.076 -2.6071 -0.9758 -1.4392
  682MOL0     H92016   4.654   8.172   4.232  1.4884  1.0254 -1.8160
  682MOL0     H92017   4.704   8.064   3.967  1.6996  3.3169  1.2797
  682MOL0     H92018   4.642   7.931   4.067 -2.3174  0.7459  0.5824
  682MOL0     H92019   4.790   7.994   4.261  1.0894 -0.7783 -0.0901
  682MOL0     H92020   4.870   7.918   4.120 -0.7684  1.0345 -3.6601
  682MOL0     H92021   4.946   8.178   4.350 -0.2312 -2.1911 -0.0490
  682MOL0     H92022   5.092   8.493   4.192 -2.9820  1.7355  2.6807
  682MOL0     H92023   5.051   8.422   4.341 -0.6105  3.6432 -0.9601
  682MOL0     H92024   5.301   8.487   4.319  3.6771 -1.2247 -0.8729
  682MOL0     H92025   5.266   8.314   4.356  1.4992 -0.5357 -1.3610
  682MOL0     H92026   5.295   8.390   4.069 -1.8812 -0.5673  1.3281
  682MOL0     H92027   5.328   8.239   4.155  0.2075  0.3432 -3.2595
  682MOL0     H92028   5.536   8.291   4.233 -0.7593  0.0293  1.1978
  682MOL0     H92029   5.500   8.467   4.241  0.3759 -0.7362  1.7952
  682MOL0     H92030   5.734   8.438   4.248 -0.4427 -0.3205  0.8672
  682MOL0     H92031   5.968   8.488   4.221  0.8282 -1.8193  0.5872
  682MOL0     H92032   6.376   8.370   3.834  2.5052 -0.9493  1.0808
  682MOL0     H92033   6.612   8.452   3.843 -0.5160 -1.2536 -2.2464
  682MOL0     H92034   6.823   8.562   3.846  1.8405  1.0494  0.2885
  682MOL0     H92035   6.753   8.518   3.699 -0.6634 -0.1448  1.0239
  682MOL0     H92036   6.956   8.593   3.633  1.5807  0.6513 -0.0576
  682MOL0     H92037   6.866   8.737   3.595  1.9299 -0.0742 -1.4849
  682MOL0     H92038   6.914   8.855   3.788  0.3180 -1.1952 -2.3849
  682MOL0     H92039   7.011   8.723   3.868 -0.1853  0.2485  0.8435
  682MOL0     H92040   7.070   8.887   3.617  0.5389  2.4884  1.8615
  682MOL0     H92041   7.148   8.728   3.650 -1.0261 -1.0275  0.7024
  682MOL0     H92042   7.244   8.838   3.862 -1.9593 -2.0393  0.0930
  682MOL0     H92043   7.140   8.978   3.817 -0.8069  0.3723 -1.6672
  682MOL0     H92044   7.382   8.863   3.662 -0.5850  1.0167 -0.8696
  682MOL0     H92045   7.294   9.006   3.619  1.6682  2.0155  0.1324
  682MOL0     H92046   7.374   9.115   3.841 -2.1559  0.1367 -3.9390
  682MOL0     H92047   7.505   9.078   3.726  0.6346 -0.5347 -0.0006
  682MOL0     H92048   7.449   8.932   3.974  2.1394  1.7585  0.7663
  682MOL0     H92049   7.535   8.846   3.840  0.5417 -0.9577 -1.1036
  682MOL0     H92050   6.480   8.846   3.794 -2.1301 -0.4862 -0.4382
  682MOL0     H92051   6.245   8.778   3.824 -1.1255 -1.5284 -0.5836
  682MOL0     H92052   5.921   8.413   3.791  1.8240 -1.0326  0.4487
  682MOL0     H92053   5.682   8.408   3.823 -0.5198 -2.2639  1.1625
  682MOL0     H92054   3.671   8.333   4.423  0.9684 -1.3741  2.1558
  682MOL0     H92055   3.441   8.281   4.391  0.5948  0.9555 -1.5991
  682MOL0     H92056   3.156   7.913   4.285 -2.3881 -1.5930  2.1695
  682MOL0     H92057   2.914   7.894   4.334 -1.4460  1.1201 -0.1380
  682MOL0     H92058   2.713   7.960   4.433 -0.5316  0.0275 -0.0676
  682MOL0     H92059   2.667   7.888   4.276  4.0632  1.2903 -1.1217
  682MOL0     H92060   2.509   8.086   4.433  1.2902 -0.2686  0.5574
  682MOL0     H92061   2.484   7.908   4.428  1.4092  0.5637  1.6811
  682MOL0     H92062   2.437   7.907   4.193 -2.0365 -1.0627  1.5940
  682MOL0     H92063   2.461   8.086   4.194 -0.9950  0.0119 -0.3651
  682MOL0     H92064   2.277   8.120   4.327  0.8458  0.2660  0.1496
  682MOL0     H92065   2.230   8.034   4.174 -1.3559  0.1136  1.2655
  682MOL0     H92066   2.093   7.758   4.443 -2.1251  0.6097 -0.2813
  682MOL0     H92067   2.843   8.273   4.162  0.6458  1.0726  1.0539
  682MOL0     H92068   3.178   8.401   4.140 -0.6469 -0.0902  0.2012
  682MOL0     H92069   3.127   8.325   3.991  1.6276  1.7458 -0.5374
  682MOL0     H92070   3.006   8.417   4.096  1.3518  0.1378  0.9508
  683MOL0     O92071   6.324  10.627   3.653 -0.1198  0.6537 -0.7642
  683MOL0     C92072   6.297  10.740   3.697 -0.4692  0.0893 -0.6704
  683MOL0     O92073   6.374  10.847   3.683 -0.0797 -0.7247  0.3527
  683MOL0     C92074   6.476  10.846   3.594 -0.4923 -0.2694 -0.7708
  683MOL0     C92075   6.479  10.775   3.469 -0.4092  0.0176 -0.4917
  683MOL0     C92076   6.594  10.762   3.391 -0.0534  0.2510 -0.1709
  683MOL0     C92077   6.711  10.823   3.433  0.0330 -0.3139  0.3510
  683MOL0     O92078   6.833  10.792   3.366  0.1617  0.0293 -0.5209
  683MOL0     C92079   6.962  10.835   3.419 -0.8149 -0.2153 -0.5918
  683MOL0     C92080   7.059  10.717   3.422 -1.0964 -1.2709  0.0956
  683MOL0     C92081   7.037  10.621   3.541 -0.0145 -0.1809  0.6850
  683MOL0     C92082   7.134  10.503   3.546 -0.1120  0.4870  0.1027
  683MOL0     C92083   7.098  10.395   3.655  0.5147  0.2372 -0.3895
  683MOL0     C92084   7.192  10.406   3.770 -0.4572  0.2405 -0.2773
  683MOL0     C92085   7.137  10.333   3.890 -0.3456  0.2045 -0.4320
  683MOL0     C92086   7.231  10.303   4.006 -0.0740 -0.3650  0.5077
  683MOL0     N92087   7.179  10.223   4.114  0.7902 -0.1633 -0.4510
  683MOL0     C92088   7.065  10.255   4.189 -1.1261 -0.0838  0.2611
  683MOL0     C92089   7.070  10.173   4.299  0.4963  0.3214  0.3021
  683MOL0     C92090   6.945  10.162   4.393 -0.2636 -0.0640  1.2172
  683MOL0     C92091   6.992  10.141   4.536  0.5272  0.0386  0.5363
  683MOL0     C92092   6.872  10.119   4.623  0.5193  0.3077  0.7447
  683MOL0     C92093   6.892  10.145   4.773 -1.5561  0.4493 -0.3503
  683MOL0     O92094   6.769  10.124   4.846  0.3516 -0.0267  0.3276
  683MOL0     C92095   6.669  10.213   4.817  0.4024  0.1038  0.1510
  683MOL0     C92096   6.682  10.342   4.856  0.2092 -0.2057 -0.3496
  683MOL0     C92097   6.566  10.427   4.871  0.0550  0.3285 -0.2747
  683MOL0     C92098   6.436  10.382   4.837  0.0083 -0.5036 -0.9064
  683MOL0     C92099   6.319  10.468   4.856  0.2066  0.2855 -0.9856
  683MOL0     O92100   6.206  10.431   4.797 -0.0090  0.2485  0.0396
  683MOL0     C92101   6.082  10.484   4.831 -0.3023 -0.1305  0.7905
  683MOL0     C92102   5.974  10.392   4.839 -0.5989  0.0865 -0.5331
  683MOL0     C92103   5.845  10.446   4.853 -0.0533 -0.5505 -0.7190
  683MOL0     C92104   5.828  10.588   4.853  0.9149  0.1866  0.6642
  683MOL0     O92105   5.697  10.620   4.867 -0.3788 -0.3182 -0.5813
  683MOL0     C92106   5.647  10.743   4.808  0.6377 -0.6287 -0.8516
  683MOL0     C92107   5.496  10.737   4.779  0.5828  0.3933 -0.6308
  683MOL0     C92108   5.439  10.647   4.670  0.4950  0.5884 -0.5519
  683MOL0     C92109   5.532  10.639   4.551  0.4990 -0.6024 -0.8902
  683MOL0     C92110   5.444  10.583   4.436 -1.0862 -0.0255 -0.4085
  683MOL0     C92111   5.530  10.563   4.311  0.2272 -0.5233  0.7784
  683MOL0     C92112   5.449  10.498   4.199  0.3305  0.4337  0.1438
  683MOL0     C92113   5.530  10.431   4.103 -0.3834  0.2762 -0.0287
  683MOL0    Cl92114   5.641  10.552   4.021 -0.0918 -0.1849  0.3655
  683MOL0     C92115   5.929  10.673   4.833  0.4811 -0.1140 -0.0603
  683MOL0     C92116   6.061  10.623   4.824  0.3886  0.2565  0.6883
  683MOL0     O92117   6.337  10.574   4.924 -0.0655  0.3527  0.4138
  683MOL0     C92118   6.430  10.247   4.793  0.4947 -1.4481 -0.2358
  683MOL0     C92119   6.542  10.170   4.789  0.5089  0.6795 -0.2549
  683MOL0     N92120   7.186  10.095   4.291  0.0483 -0.2064  0.2500
  683MOL0     N92121   7.246  10.128   4.186 -0.0700 -0.9438  0.1646
  683MOL0     C92122   6.710  10.904   3.553  0.0283  0.9421  0.0282
  683MOL0     C92123   6.591  10.917   3.625  0.1645 -0.4890 -0.6243
  683MOL0     C92124   6.189  10.746   3.808  0.6136  0.4226  0.0104
  683MOL0     C92125   6.111  10.631   3.834  0.1747 -0.2222  0.4331
  683MOL0     C92126   6.004  10.627   3.928 -0.7884  1.0461 -0.0851
  683MOL0     C92127   5.992  10.738   4.014  0.0813  1.3173 -0.6840
  683MOL0     O92128   5.917  10.705   4.127  0.1987  0.2350  1.0534
  683MOL0     C92129   5.854  10.813   4.196 -0.5719  0.3941 -0.5792
  683MOL0     C92130   5.897  10.821   4.342 -1.3968  0.6648 -0.8317
  683MOL0     C92131   6.047  10.826   4.370 -0.4578 -0.4112 -0.3905
  683MOL0     C92132   6.100  10.882   4.513 -0.0394  0.4576  0.3533
  683MOL0     C92133   6.212  10.794   4.560 -0.1863  0.1210  0.0090
  683MOL0     C92134   6.301  10.711   4.579  0.0152  0.1838 -0.3450
  683MOL0     C92135   6.077  10.839   3.998  0.1610  0.1400 -0.9542
  683MOL0     C92136   6.163  10.854   3.889  0.2852 -0.2784 -0.0035
  683MOL0     C92137   6.233  10.992   3.888 -0.3268 -0.0909  0.0716
  683MOL0     H92138   6.383  10.742   3.432  0.2300 -3.8262  0.8361
  683MOL0     H92139   6.591  10.712   3.294 -1.3305  0.3007 -0.1808
  683MOL0     H92140   7.000  10.912   3.352 -2.3421 -0.1902 -1.4703
  683MOL0     H92141   6.951  10.872   3.522 -0.0482 -0.2000 -0.5068
  683MOL0     H92142   7.162  10.748   3.438 -1.1954  0.7919 -2.4597
  683MOL0     H92143   7.049  10.669   3.324 -0.4396  1.6125 -1.5180
  683MOL0     H92144   6.934  10.585   3.527  0.8452 -2.8938  0.8166
  683MOL0     H92145   7.035  10.668   3.640 -0.2124 -1.2023  1.1792
  683MOL0     H92146   7.121  10.441   3.456  1.9170 -2.4954  1.7296
  683MOL0     H92147   7.239  10.533   3.548  0.4403 -1.3822  0.2830
  683MOL0     H92148   6.990  10.396   3.676  0.7223  1.5771  0.7313
  683MOL0     H92149   7.110  10.294   3.613 -0.8387 -0.2453  0.3115
  683MOL0     H92150   7.285  10.355   3.744  0.9265  1.5852  1.7488
  683MOL0     H92151   7.216  10.507   3.804  1.2228 -0.6601  1.4163
  683MOL0     H92152   7.084  10.243   3.859 -0.8260 -1.3537  4.2197
  683MOL0     H92153   7.065  10.395   3.944 -0.8350 -2.6339  2.4639
  683MOL0     H92154   7.312  10.245   3.960 -1.4471 -1.7641 -0.2560
  683MOL0     H92155   7.271  10.397   4.044 -3.3471  1.7090 -0.7867
  683MOL0     H92156   6.981  10.315   4.157 -0.3622  0.6027 -0.5084
  683MOL0     H92157   6.874  10.245   4.384 -0.7170 -0.3755  1.8310
  683MOL0     H92158   6.888  10.072   4.370 -1.1728  0.4484  1.3856
  683MOL0     H92159   7.041  10.043   4.539  0.4164 -0.0883 -0.8484
  683MOL0     H92160   7.051  10.227   4.569  0.0112  0.9081 -0.7086
  683MOL0     H92161   6.860  10.011   4.609  0.1938  0.5575 -1.1598
  683MOL0     H92162   6.783  10.171   4.587  1.4762  1.7779  0.4286
  683MOL0     H92163   6.938  10.243   4.791 -1.1349  0.2047 -0.0840
  683MOL0     H92164   6.963  10.074   4.817 -0.1285  0.9425 -1.7833
  683MOL0     H92165   6.779  10.379   4.885 -1.0779  2.7303  0.6080
  683MOL0     H92166   6.580  10.523   4.921  1.5959 -1.1314  2.3261
  683MOL0     H92167   5.994  10.286   4.830  1.5044  0.5970 -3.4907
  683MOL0     H92168   5.761  10.379   4.864 -0.9658  0.6455 -0.1930
  683MOL0     H92169   5.669  10.821   4.881  2.9123 -3.0645  1.2941
  683MOL0     H92170   5.693  10.769   4.712 -1.1724  1.9249 -1.1262
  683MOL0     H92171   5.456  10.700   4.873  1.8470 -2.4270 -1.1000
  683MOL0     H92172   5.465  10.841   4.766  1.9363  1.0732  1.1567
  683MOL0     H92173   5.415  10.549   4.712 -1.7009  0.3695 -2.1591
  683MOL0     H92174   5.350  10.681   4.617  0.0151 -1.7242 -1.3486
  683MOL0     H92175   5.621  10.578   4.568  2.3605  2.7410  3.2896
  683MOL0     H92176   5.561  10.740   4.522  2.1876 -0.3890  1.2591
  683MOL0     H92177   5.364  10.656   4.419  0.0216  1.1092 -1.0065
  683MOL0     H92178   5.412  10.489   4.482 -1.3062 -0.1095 -0.7274
  683MOL0     H92179   5.556  10.662   4.272  0.3717 -0.8643  0.0004
  683MOL0     H92180   5.623  10.511   4.338 -1.5056 -2.5474  3.3295
  683MOL0     H92181   5.399  10.577   4.143  1.8171  1.2840 -0.0409
  683MOL0     H92182   5.379  10.427   4.242 -1.4382  0.7560 -2.0496
  683MOL0     H92183   5.592  10.349   4.139  0.8750  1.8481  1.5845
  683MOL0     H92184   5.452  10.386   4.041  1.4554 -3.2867 -0.0535
  683MOL0     H92185   5.910  10.780   4.829  1.7770  0.2427  1.7750
  683MOL0     H92186   6.152  10.681   4.810  1.9801 -2.4647 -1.0607
  683MOL0     H92187   6.330  10.211   4.771 -0.3732  1.5758 -1.9059
  683MOL0     H92188   6.513  10.067   4.776  0.9626  0.3415  1.1838
  683MOL0     H92189   6.796  10.961   3.589  1.3200 -0.1378 -1.2249
  683MOL0     H92190   6.586  10.975   3.717 -1.5002 -1.4377 -0.0676
  683MOL0     H92191   6.133  10.544   3.773 -3.5584 -1.3083  0.3949
  683MOL0     H92192   5.948  10.534   3.937  1.4669 -0.4640 -0.7522
  683MOL0     H92193   5.746  10.793   4.200 -0.5960  0.7033  0.9494
  683MOL0     H92194   5.865  10.908   4.144 -2.2685  0.3299 -1.1137
  683MOL0     H92195   5.858  10.728   4.384  2.6980 -0.0871  1.9005
  683MOL0     H92196   5.844  10.900   4.396 -1.0363 -1.4880  3.0418
  683MOL0     H92197   6.103  10.892   4.304  2.7201 -1.2743  1.2446
  683MOL0     H92198   6.073  10.722   4.346 -1.4750 -0.4716 -1.3423
  683MOL0     H92199   6.134  10.985   4.503 -0.0273  0.4006 -0.1767
  683MOL0     H92200   6.020  10.886   4.588 -0.0605 -0.1239  0.3637
  683MOL0     H92201   6.378  10.640   4.599  1.4221  1.1990 -1.8557
  683MOL0     H92202   6.067  10.919   4.071 -0.6098  0.1082 -1.0122
  683MOL0     H92203   6.211  11.037   3.791  0.9401 -0.2512 -0.3184
  683MOL0     H92204   6.207  11.058   3.971  2.0586  3.4222 -1.7227
  683MOL0     H92205   6.342  10.981   3.898 -0.2998  0.5582  0.5320
  684MOL0     O92206   0.432   5.022   3.979 -0.0783 -0.0597  1.0289
  684MOL0     C92207   0.439   4.939   3.880  0.6400 -0.5448 -0.6906
  684MOL0     O92208   0.420   4.963   3.747  0.6666 -0.6253 -0.6158
  684MOL0     C92209   0.364   5.080   3.693  0.0432 -0.1776  0.0658
  684MOL0     C92210   0.387   5.110   3.556 -0.5156  0.1947 -0.7920
  684MOL0     C92211   0.338   5.229   3.502 -0.3629 -0.2636 -0.3631
  684MOL0     C92212   0.256   5.316   3.576 -0.0655  0.1865  0.5140
  684MOL0     O92213   0.208   5.429   3.513  0.6276  0.8023 -0.3692
  684MOL0     C92214   0.059   5.436   3.511 -0.2259 -0.3416  0.2669
  684MOL0     C92215   0.019   5.567   3.436  0.2195  0.4684 -0.4414
  684MOL0     C92216  -0.111   5.607   3.496  0.2373  0.0550  0.0294
  684MOL0     C92217  -0.177   5.721   3.417 -0.0537 -0.2271  0.5900
  684MOL0     C92218  -0.320   5.723   3.464 -0.3089  1.2731  0.4259
  684MOL0     C92219  -0.410   5.813   3.382  0.2413 -0.1593 -0.6578
  684MOL0     C92220  -0.554   5.831   3.440  0.6143  1.0446 -0.6628
  684MOL0     C92221  -0.637   5.921   3.356 -0.4550  0.4948  0.2626
  684MOL0     N92222  -0.772   5.932   3.407 -0.1242  0.4201 -0.5033
  684MOL0     C92223  -0.860   5.821   3.420  0.8962  0.2043  0.1284
  684MOL0     C92224  -0.958   5.873   3.492  0.8042 -0.7329  0.0528
  684MOL0     C92225  -1.073   5.800   3.546 -0.9899  1.0050  0.5990
  684MOL0     C92226  -1.026   5.693   3.656  0.2209  0.0845  0.5586
  684MOL0     C92227  -1.070   5.548   3.618 -0.6088  0.0076 -0.1122
  684MOL0     C92228  -0.969   5.483   3.517 -0.7284 -0.4262 -0.4819
  684MOL0     O92229  -0.839   5.487   3.579  0.8396  0.2835  0.4462
  684MOL0     C92230  -0.725   5.431   3.510 -0.1220  0.4214 -0.8098
  684MOL0     C92231  -0.609   5.416   3.582 -0.2317  0.0706  0.2992
  684MOL0     C92232  -0.489   5.377   3.519 -0.1878 -0.3686 -0.8463
  684MOL0     C92233  -0.483   5.360   3.379  0.0483  0.5598 -0.2901
  684MOL0     C92234  -0.360   5.320   3.304 -0.0336  0.0856  0.9747
  684MOL0     O92235  -0.365   5.277   3.175  0.2915  0.3870 -0.5776
  684MOL0     C92236  -0.265   5.198   3.131 -0.3921  0.6982 -0.8503
  684MOL0     C92237  -0.289   5.065   3.086  0.1081 -0.2447  0.3313
  684MOL0     C92238  -0.182   4.994   3.024  0.4161  0.1667 -0.5793
  684MOL0     C92239  -0.050   5.050   3.017  0.2392 -0.2495  0.2338
  684MOL0     O92240   0.048   4.951   2.987  0.5010 -0.1572  0.3843
  684MOL0     C92241   0.173   4.949   3.063  0.1077  0.5793 -0.0603
  684MOL0     C92242   0.220   4.805   3.048  0.0033 -0.2737 -0.6108
  684MOL0     C92243   0.302   4.791   2.912  1.1744 -0.3048  0.1509
  684MOL0     C92244   0.377   4.659   2.908  1.3528  0.6462  0.9604
  684MOL0     C92245   0.464   4.660   2.778 -0.5008 -0.1241 -0.0332
  684MOL0     C92246   0.389   4.670   2.646  0.6224  0.1150 -0.0680
  684MOL0     C92247   0.262   4.585   2.634 -0.2126 -0.6284 -0.1510
  684MOL0     C92248   0.294   4.429   2.660 -0.1825 -0.3173  0.1699
  684MOL0    Cl92249   0.158   4.334   2.610 -0.3324  0.2694  0.0112
  684MOL0     C92250  -0.028   5.179   3.059 -0.5219 -0.6065 -0.0552
  684MOL0     C92251  -0.137   5.255   3.115 -0.3039  0.0150 -0.4279
  684MOL0     O92252  -0.256   5.347   3.359  0.0636  0.3995  0.1583
  684MOL0     C92253  -0.601   5.378   3.307  0.5453  0.0902  0.2341
  684MOL0     C92254  -0.722   5.416   3.371  0.8150  0.6127  0.3767
  684MOL0     N92255  -0.927   6.009   3.522 -0.4300 -0.0505  0.0938
  684MOL0     N92256  -0.821   6.043   3.471 -0.1534  0.2074  1.0102
  684MOL0     C92257   0.229   5.280   3.709  0.6137  0.5043  0.6885
  684MOL0     C92258   0.273   5.161   3.764 -0.1450  0.3264  0.6603
  684MOL0     C92259   0.460   4.798   3.922 -0.1161  0.0063  0.0602
  684MOL0     C92260   0.402   4.705   3.835  1.0860 -0.3711 -0.3982
  684MOL0     C92261   0.423   4.566   3.849  0.6542 -1.1488  0.0512
  684MOL0     C92262   0.492   4.520   3.963 -0.4590 -0.3657  0.1680
  684MOL0     O92263   0.501   4.386   3.981 -0.1588 -0.0235  0.9163
  684MOL0     C92264   0.610   4.341   4.056  0.1212  0.1353 -0.1433
  684MOL0     C92265   0.751   4.375   4.006  0.3358 -0.6587  0.0258
  684MOL0     C92266   0.864   4.299   4.071 -0.2889  0.5147 -0.2059
  684MOL0     C92267   1.006   4.325   4.014 -0.3726  0.7872  0.6166
  684MOL0     C92268   1.052   4.464   4.035  0.0840  0.9894  0.5400
  684MOL0     C92269   1.106   4.567   4.045  0.3026 -0.7542  0.2833
  684MOL0     C92270   0.548   4.614   4.058  0.0464 -0.7892 -0.3284
  684MOL0     C92271   0.535   4.755   4.035  0.3059  0.1132 -0.3485
  684MOL0     C92272   0.605   4.855   4.122 -0.5176  0.5977  0.1341
  684MOL0     H92273   0.453   5.050   3.493 -0.6581  0.9892 -1.7278
  684MOL0     H92274   0.351   5.265   3.401 -1.6249  0.6021 -0.2460
  684MOL0     H92275   0.012   5.346   3.471 -2.0371 -0.1975  1.9476
  684MOL0     H92276   0.031   5.444   3.616 -0.4498 -0.6696  0.2301
  684MOL0     H92277   0.011   5.553   3.327  1.9879 -1.4581 -0.3846
  684MOL0     H92278   0.097   5.641   3.453  1.3077 -0.8300  0.3155
  684MOL0     H92279  -0.088   5.646   3.596  4.2350 -0.3039 -0.6048
  684MOL0     H92280  -0.172   5.517   3.512 -0.5904  0.7274  0.7750
  684MOL0     H92281  -0.123   5.816   3.428 -0.3941  0.5317 -2.9703
  684MOL0     H92282  -0.179   5.697   3.310  0.4638  0.9983  0.2880
  684MOL0     H92283  -0.360   5.622   3.469 -2.8782  2.2633  3.1832
  684MOL0     H92284  -0.319   5.753   3.569  1.3358 -0.2211  0.8864
  684MOL0     H92285  -0.364   5.912   3.375 -0.2632  0.2056  0.6648
  684MOL0     H92286  -0.419   5.770   3.282  1.5127  0.4246 -1.0367
  684MOL0     H92287  -0.558   5.873   3.541 -2.1648  2.0749 -1.1007
  684MOL0     H92288  -0.606   5.735   3.444 -0.4659  1.6382  3.6588
  684MOL0     H92289  -0.597   6.022   3.368 -2.4313  1.1336  2.0575
  684MOL0     H92290  -0.636   5.893   3.250  1.6440  1.4178 -0.0133
  684MOL0     H92291  -0.842   5.720   3.387 -0.5520 -0.2581  0.6507
  684MOL0     H92292  -1.140   5.876   3.587  0.3603  3.4897 -1.4399
  684MOL0     H92293  -1.117   5.739   3.466  1.5816 -0.9042  0.5126
  684MOL0     H92294  -0.918   5.693   3.670  0.3165  1.5844  0.0702
  684MOL0     H92295  -1.078   5.733   3.744  1.1605 -0.7126  1.4971
  684MOL0     H92296  -1.172   5.545   3.579  0.0691  0.7106 -2.0829
  684MOL0     H92297  -1.067   5.492   3.712 -2.2822 -1.3837 -0.8258
  684MOL0     H92298  -0.961   5.537   3.422  0.7664 -0.3168 -0.3029
  684MOL0     H92299  -0.988   5.377   3.500  0.5656 -0.9067  0.9269
  684MOL0     H92300  -0.606   5.434   3.689  2.0415  0.5672  0.2128
  684MOL0     H92301  -0.395   5.373   3.573 -0.8987  1.7293  0.7021
  684MOL0     H92302  -0.389   5.025   3.099 -0.0588  0.1048  0.1265
  684MOL0     H92303  -0.206   4.898   2.979 -1.0892  0.6214 -0.8039
  684MOL0     H92304   0.246   5.014   3.014  0.1893 -0.2383 -1.0704
  684MOL0     H92305   0.141   4.982   3.162 -1.4958  2.7447 -1.2097
  684MOL0     H92306   0.286   4.782   3.131 -0.3420  2.3655  0.5004
  684MOL0     H92307   0.138   4.732   3.046  0.5279 -0.8625 -1.6455
  684MOL0     H92308   0.230   4.802   2.830 -2.0722 -1.4341  2.6360
  684MOL0     H92309   0.372   4.874   2.904 -0.8159  1.4073 -0.5113
  684MOL0     H92310   0.308   4.575   2.915  1.9967  0.1015  0.8238
  684MOL0     H92311   0.453   4.660   2.988  3.1178  1.6506 -0.6409
  684MOL0     H92312   0.539   4.581   2.788  2.0445  2.2050  0.5009
  684MOL0     H92313   0.529   4.748   2.786  1.0280 -1.1240 -0.9468
  684MOL0     H92314   0.362   4.775   2.629  1.4977  0.4164  0.3547
  684MOL0     H92315   0.452   4.641   2.561 -0.2988  1.6709 -1.3548
  684MOL0     H92316   0.218   4.602   2.536  0.4545  0.9547 -0.1937
  684MOL0     H92317   0.186   4.609   2.710 -0.5135 -0.6523 -0.4422
  684MOL0     H92318   0.374   4.399   2.592 -2.2274 -0.2704 -2.4478
  684MOL0     H92319   0.320   4.417   2.765  2.5631  3.0398  0.0555
  684MOL0     H92320   0.068   5.230   3.055 -0.2976 -0.3009  4.1640
  684MOL0     H92321  -0.112   5.359   3.130  1.1169 -0.1275 -1.5848
  684MOL0     H92322  -0.607   5.378   3.199  2.8743  2.0968  0.0316
  684MOL0     H92323  -0.809   5.441   3.311  1.5620  0.8601 -0.6315
  684MOL0     H92324   0.156   5.341   3.762 -0.6121 -0.8748  0.6312
  684MOL0     H92325   0.234   5.139   3.863 -0.4490 -0.5478  0.3563
  684MOL0     H92326   0.362   4.723   3.736  2.4657 -1.3837 -1.1927
  684MOL0     H92327   0.377   4.502   3.775  0.8335  0.6162 -1.6681
  684MOL0     H92328   0.611   4.232   4.055  1.3695  0.1259  0.2894
  684MOL0     H92329   0.601   4.368   4.161 -2.2322 -5.3416  1.3847
  684MOL0     H92330   0.776   4.480   4.020  0.6411 -0.7435  0.1165
  684MOL0     H92331   0.743   4.360   3.898 -1.3904  0.4237 -0.0310
  684MOL0     H92332   0.854   4.190   4.065  0.9416  0.4426 -1.7632
  684MOL0     H92333   0.872   4.326   4.176 -1.6039 -0.2518  0.1266
  684MOL0     H92334   1.077   4.264   4.071  0.3678 -1.0485 -2.0489
  684MOL0     H92335   1.005   4.302   3.907 -0.9160  0.1672  0.7520
  684MOL0     H92336   1.152   4.663   4.049 -0.5259 -0.2032 -1.9015
  684MOL0     H92337   0.591   4.586   4.153 -0.1206 -2.8334 -0.7981
  684MOL0     H92338   0.532   4.919   4.173  0.6873  1.3323  0.9699
  684MOL0     H92339   0.658   4.805   4.203  3.5327 -2.9109 -4.1445
  684MOL0     H92340   0.671   4.923   4.068 -0.5138  1.3817  1.1032
  685MOL0     O92341   5.188   1.107   5.299  0.0466 -0.0083 -0.2981
  685MOL0     C92342   5.105   1.194   5.275  0.2367  0.4529  0.3758
  685MOL0     O92343   5.116   1.281   5.172 -0.1565  0.0242  1.0455
  685MOL0     C92344   5.222   1.294   5.087 -0.0903  0.1747  0.0676
  685MOL0     C92345   5.198   1.391   4.986  0.0882  0.3653  0.4545
  685MOL0     C92346   5.287   1.403   4.882 -0.2730  0.3124  0.3271
  685MOL0     C92347   5.414   1.342   4.891  0.7261  0.2201  0.1150
  685MOL0     O92348   5.510   1.378   4.799  0.2613  0.0631 -0.3061
  685MOL0     C92349   5.647   1.381   4.847 -0.3448  0.4790 -0.5383
  685MOL0     C92350   5.751   1.384   4.730  0.4934  0.0946 -0.9213
  685MOL0     C92351   5.904   1.355   4.778  0.0087  0.7228 -0.0344
  685MOL0     C92352   6.012   1.346   4.673 -0.1234 -0.3662  0.1561
  685MOL0     C92353   5.992   1.254   4.549  0.4037 -0.1891  0.0410
  685MOL0     C92354   5.957   1.103   4.588  0.1912  0.7363 -0.2843
  685MOL0     C92355   6.082   1.041   4.647  0.6395  0.0074  0.1938
  685MOL0     C92356   6.088   0.889   4.658 -0.6725  0.1411 -0.1379
  685MOL0     N92357   5.983   0.814   4.731 -0.1651 -0.0976 -0.1482
  685MOL0     C92358   5.976   0.793   4.863  0.6281  0.0152 -0.4363
  685MOL0     C92359   5.850   0.747   4.891 -1.4349  0.9177  0.3807
  685MOL0     C92360   5.814   0.689   5.020  0.5786 -0.8567 -0.2363
  685MOL0     C92361   5.878   0.550   5.035 -0.8730 -0.6539  0.0353
  685MOL0     C92362   6.026   0.552   5.082 -0.4010  0.2310 -0.5884
  685MOL0     C92363   6.035   0.601   5.227 -0.2365  0.2924  0.4253
  685MOL0     O92364   6.152   0.542   5.282 -0.2814  0.1352 -0.2487
  685MOL0     C92365   6.272   0.602   5.252 -0.5018 -0.4377  0.3703
  685MOL0     C92366   6.377   0.512   5.218  0.1424  0.6564  0.1924
  685MOL0     C92367   6.506   0.557   5.185 -0.0304  0.2877 -0.1309
  685MOL0     C92368   6.526   0.699   5.169 -0.2553 -0.8937 -0.3915
  685MOL0     C92369   6.666   0.748   5.137  0.2481  0.7220  0.0785
  685MOL0     O92370   6.750   0.647   5.096  0.1225  0.5965 -0.0182
  685MOL0     C92371   6.873   0.681   5.059 -0.3897 -0.7306 -0.2049
  685MOL0     C92372   6.903   0.737   4.928  0.3076  0.0536  0.0189
  685MOL0     C92373   7.029   0.764   4.899  0.1894 -0.1410  0.2164
  685MOL0     C92374   7.140   0.724   4.983 -0.3119 -0.6839  0.5213
  685MOL0     O92375   7.277   0.751   4.951  0.8390  1.2989  0.6567
  685MOL0     C92376   7.301   0.872   4.890  0.4889 -0.8815 -0.4582
  685MOL0     C92377   7.448   0.905   4.895 -0.2953  0.3701 -1.2065
  685MOL0     C92378   7.492   1.038   4.832  0.0984  0.3716  0.3683
  685MOL0     C92379   7.639   1.073   4.842 -0.6323  0.3754  0.1920
  685MOL0     C92380   7.726   0.988   4.751 -0.8015  0.5172  0.0228
  685MOL0     C92381   7.785   1.061   4.628  0.0300 -0.8603 -0.1322
  685MOL0     C92382   7.920   1.128   4.649 -0.2765 -0.7848  0.3588
  685MOL0     C92383   7.979   1.200   4.523 -0.2093 -0.0899  0.3177
  685MOL0    Cl92384   7.900   1.370   4.508 -0.5021  0.2177 -0.2216
  685MOL0     C92385   7.108   0.668   5.111 -0.4453  0.3320 -0.0710
  685MOL0     C92386   6.975   0.647   5.150 -0.0222 -0.1925  0.3782
  685MOL0     O92387   6.702   0.869   5.156  0.7164  0.6053  1.0205
  685MOL0     C92388   6.423   0.790   5.198  0.0862 -1.1770  0.3720
  685MOL0     C92389   6.296   0.744   5.236  0.3340  0.3160  0.1621
  685MOL0     N92390   5.791   0.723   4.767 -0.4954  0.1341  0.4119
  685MOL0     N92391   5.862   0.784   4.672 -1.0096 -0.6757 -0.4320
  685MOL0     C92392   5.440   1.259   4.994  0.1676 -0.5311  0.1216
  685MOL0     C92393   5.345   1.233   5.092  0.2836 -1.0359  0.1331
  685MOL0     C92394   4.987   1.220   5.358  1.1249  0.2260 -0.3408
  685MOL0     C92395   4.917   1.339   5.341  0.4764 -0.4132 -0.4582
  685MOL0     C92396   4.812   1.375   5.427  0.2722  0.1949 -0.8381
  685MOL0     C92397   4.760   1.284   5.521  0.0867 -0.1276  0.5578
  685MOL0     O92398   4.652   1.332   5.593  0.0975 -0.5562  0.5529
  685MOL0     C92399   4.650   1.306   5.733  0.2923  0.8294 -0.2683
  685MOL0     C92400   4.518   1.245   5.756 -0.5583  0.5431 -0.0734
  685MOL0     C92401   4.493   1.124   5.667  0.2333 -0.3473  0.2618
  685MOL0     C92402   4.379   1.026   5.691  0.6616 -0.2524 -0.0117
  685MOL0     C92403   4.250   1.089   5.683  0.3227  0.3758 -0.2346
  685MOL0     C92404   4.144   1.150   5.675  0.2759  0.1063 -0.3530
  685MOL0     C92405   4.820   1.160   5.531  0.5940 -0.8707 -0.4333
  685MOL0     C92406   4.930   1.124   5.453 -1.0409  0.1603 -0.1421
  685MOL0     C92407   4.971   0.982   5.457  0.2836 -0.6560 -0.3646
  685MOL0     H92408   5.106   1.448   4.984  0.1230  0.4108 -0.6349
  685MOL0     H92409   5.270   1.476   4.804  0.5093  3.3824  2.8290
  685MOL0     H92410   5.679   1.464   4.911  3.8293 -0.8912 -0.4841
  685MOL0     H92411   5.681   1.291   4.899 -2.4682  0.1860  0.4118
  685MOL0     H92412   5.754   1.479   4.675  3.8666  0.5172 -0.2090
  685MOL0     H92413   5.730   1.307   4.655 -2.4279 -0.1178 -0.0120
  685MOL0     H92414   5.899   1.251   4.811  1.7172  0.8635  0.7713
  685MOL0     H92415   5.936   1.430   4.851 -0.6700  0.8928  0.0908
  685MOL0     H92416   6.027   1.442   4.622  0.9884 -0.0381  1.0685
  685MOL0     H92417   6.106   1.322   4.723 -0.1719 -0.4389  0.2115
  685MOL0     H92418   5.915   1.285   4.477  1.7297  3.4486 -0.0514
  685MOL0     H92419   6.080   1.248   4.485 -0.4852  1.7190 -1.5027
  685MOL0     H92420   5.875   1.098   4.661  0.0627 -1.8585 -0.5248
  685MOL0     H92421   5.929   1.050   4.497  0.5312  3.3232 -1.9960
  685MOL0     H92422   6.085   1.076   4.751  0.5612 -0.3686  0.3219
  685MOL0     H92423   6.174   1.080   4.602  0.3070  1.9609  1.0846
  685MOL0     H92424   6.087   0.850   4.556 -0.0807 -2.9705  0.9597
  685MOL0     H92425   6.183   0.862   4.705 -0.9807 -1.6296 -0.4956
  685MOL0     H92426   6.045   0.828   4.939 -0.8367  0.1707  0.8666
  685MOL0     H92427   5.845   0.757   5.101 -0.0917 -0.8649  0.0343
  685MOL0     H92428   5.706   0.672   5.031  0.1885  1.2185 -0.4750
  685MOL0     H92429   5.814   0.502   5.110 -0.0052 -0.6726  0.7855
  685MOL0     H92430   5.873   0.486   4.947  0.6098 -0.3824 -0.2743
  685MOL0     H92431   6.083   0.608   5.007 -0.3390  2.0570  0.7573
  685MOL0     H92432   6.064   0.450   5.083  2.2691  1.1135 -1.4632
  685MOL0     H92433   5.950   0.583   5.294 -0.1284  3.1548  1.4414
  685MOL0     H92434   6.041   0.710   5.226  2.1995  0.2321  1.8204
  685MOL0     H92435   6.360   0.406   5.227  0.5390  0.5845  0.1159
  685MOL0     H92436   6.590   0.490   5.168 -0.1857 -0.6221  2.2031
  685MOL0     H92437   6.820   0.753   4.860  0.9876 -0.1610 -0.8823
  685MOL0     H92438   7.061   0.812   4.808  0.9589  1.2679  1.1897
  685MOL0     H92439   7.278   0.872   4.784 -0.5077  1.2748 -0.2804
  685MOL0     H92440   7.238   0.955   4.922  2.0245  0.7949 -1.5913
  685MOL0     H92441   7.472   0.913   5.002 -1.4303 -0.0263 -0.9123
  685MOL0     H92442   7.512   0.821   4.866 -0.2088 -0.8940  2.1359
  685MOL0     H92443   7.464   1.037   4.726 -1.8522  1.0473  0.8325
  685MOL0     H92444   7.440   1.117   4.887  0.5880  0.7136  0.3437
  685MOL0     H92445   7.679   1.069   4.944  0.6741  0.3325 -0.2938
  685MOL0     H92446   7.656   1.177   4.813  1.3446 -0.2491 -1.1229
  685MOL0     H92447   7.669   0.902   4.713  0.5384 -1.2758  1.8390
  685MOL0     H92448   7.805   0.950   4.817 -2.0117 -1.9051  0.2099
  685MOL0     H92449   7.782   0.987   4.547 -2.4425 -0.9272 -0.0526
  685MOL0     H92450   7.715   1.140   4.599  0.5386 -0.4244 -0.1903
  685MOL0     H92451   7.994   1.054   4.682  1.1854 -0.4404 -1.9400
  685MOL0     H92452   7.902   1.201   4.729 -0.9168  2.5145 -2.5707
  685MOL0     H92453   8.084   1.228   4.533 -0.5093  0.9518  0.6540
  685MOL0     H92454   7.985   1.127   4.441 -0.4629 -2.4290  2.2536
  685MOL0     H92455   7.188   0.649   5.182  1.2131 -0.2566 -1.9993
  685MOL0     H92456   6.954   0.604   5.247 -0.6200  0.3077  0.4787
  685MOL0     H92457   6.447   0.895   5.184 -0.3029 -1.1114  0.1936
  685MOL0     H92458   6.223   0.820   5.261  0.3716  0.4662 -0.1777
  685MOL0     H92459   5.529   1.198   4.990 -0.6926 -1.7523 -1.1632
  685MOL0     H92460   5.379   1.152   5.156 -0.3735 -1.4236  0.0028
  685MOL0     H92461   4.947   1.417   5.272  0.4643 -1.6099 -1.8434
  685MOL0     H92462   4.776   1.476   5.416  1.6662  1.0529  1.7547
  685MOL0     H92463   4.650   1.394   5.797 -1.3603 -0.3503  1.4756
  685MOL0     H92464   4.728   1.236   5.767 -1.0873 -0.1318  1.0630
  685MOL0     H92465   4.451   1.329   5.736  1.9069  2.7717  0.4789
  685MOL0     H92466   4.519   1.222   5.863  4.8910 -0.7832 -0.1354
  685MOL0     H92467   4.586   1.067   5.662  0.1877 -0.3523 -0.5730
  685MOL0     H92468   4.473   1.162   5.567 -1.5878  1.6277  1.2788
  685MOL0     H92469   4.384   0.946   5.616  1.0518 -0.4110  0.1781
  685MOL0     H92470   4.390   0.978   5.789 -3.2283 -0.1488  0.6410
  685MOL0     H92471   4.058   1.214   5.683 -0.6062 -1.0703 -0.0279
  685MOL0     H92472   4.783   1.085   5.599 -2.3621  1.1903  0.4200
  685MOL0     H92473   4.964   0.943   5.355 -2.1464 -0.6147 -0.2641
  685MOL0     H92474   5.074   0.976   5.493  0.2134 -2.1550 -0.3669
  685MOL0     H92475   4.898   0.928   5.517  0.6304 -1.7621 -0.9158
  686MOL0     O92476   5.797   4.072   8.366 -0.4936 -0.7014  0.0030
  686MOL0     C92477   5.790   4.030   8.481 -0.1031 -0.0839  1.1869
  686MOL0     O92478   5.885   3.957   8.550  0.1951  0.4807  0.2656
  686MOL0     C92479   5.991   3.914   8.477  0.0037  0.0406  0.5090
  686MOL0     C92480   5.986   3.792   8.410 -1.4261 -0.4921 -0.0388
  686MOL0     C92481   6.103   3.755   8.333  0.2180 -0.4969  0.2908
  686MOL0     C92482   6.220   3.836   8.328 -0.6621 -0.3960  0.5912
  686MOL0     O92483   6.333   3.817   8.254 -0.1921 -0.0876 -0.2104
  686MOL0     C92484   6.352   3.697   8.174  0.3780 -0.2676  0.6532
  686MOL0     C92485   6.498   3.646   8.187  0.2666  0.0072  0.4106
  686MOL0     C92486   6.551   3.560   8.074 -0.1156  0.7215 -0.3902
  686MOL0     C92487   6.558   3.622   7.930  0.1955  0.6826  0.3189
  686MOL0     C92488   6.625   3.521   7.833 -0.5437  0.2919  0.6154
  686MOL0     C92489   6.653   3.573   7.695  0.4604  0.4732  0.3990
  686MOL0     C92490   6.763   3.677   7.664 -0.0161  0.3471 -0.0288
  686MOL0     C92491   6.902   3.642   7.714 -0.8142  0.0839  0.6444
  686MOL0     N92492   7.022   3.693   7.634 -0.6084 -0.0803 -0.4229
  686MOL0     C92493   7.016   3.801   7.546 -0.2955 -0.1855  0.0477
  686MOL0     C92494   7.114   3.784   7.455 -0.0052  0.2739 -0.4362
  686MOL0     C92495   7.154   3.877   7.343 -0.1325  0.1267  0.1311
  686MOL0     C92496   7.306   3.913   7.368  0.3893  0.0044 -0.3813
  686MOL0     C92497   7.349   3.967   7.506 -0.1093  0.2753  0.2815
  686MOL0     C92498   7.470   4.057   7.502 -0.2431 -0.6505  0.8752
  686MOL0     O92499   7.590   3.992   7.445 -0.9240 -0.2436  0.1419
  686MOL0     C92500   7.686   3.953   7.535  0.2925 -0.3876  0.2481
  686MOL0     C92501   7.737   4.036   7.633  1.2743 -0.2145 -0.0377
  686MOL0     C92502   7.826   3.985   7.715 -0.4427  0.5290  0.3627
  686MOL0     C92503   7.877   3.851   7.706 -0.5910 -0.0321 -1.3806
  686MOL0     C92504   7.976   3.807   7.809  0.3133  0.4287 -0.0796
  686MOL0     O92505   7.977   3.852   7.939 -1.1653 -0.5097 -0.3234
  686MOL0     C92506   8.086   3.830   8.014 -0.5886  0.2251 -0.0359
  686MOL0     C92507   8.067   3.821   8.151 -0.1579  0.6843 -0.4964
  686MOL0     C92508   8.171   3.805   8.248  0.1827 -0.1914 -0.1861
  686MOL0     C92509   8.297   3.810   8.202 -0.4798 -0.5582  0.6103
  686MOL0     O92510   8.399   3.803   8.291  0.4136 -0.1579 -0.5517
  686MOL0     C92511   8.533   3.817   8.242 -0.0494  0.5926  0.2940
  686MOL0     C92512   8.631   3.798   8.359 -0.4021  0.2960  0.0578
  686MOL0     C92513   8.772   3.846   8.329 -0.9611 -0.5011  0.0300
  686MOL0     C92514   8.862   3.801   8.447  0.3485 -0.5748  0.3797
  686MOL0     C92515   8.996   3.875   8.449  0.5680  0.4694 -0.5384
  686MOL0     C92516   9.079   3.835   8.328 -0.7223 -0.2303 -0.2498
  686MOL0     C92517   9.219   3.917   8.332  0.5303  0.2214 -0.9219
  686MOL0     C92518   9.213   4.069   8.319  0.1704  0.4242  0.0189
  686MOL0    Cl92519   9.097   4.110   8.187  0.3197 -0.0199 -0.3312
  686MOL0     C92520   8.319   3.814   8.067 -0.2957  0.0952  0.9076
  686MOL0     C92521   8.219   3.816   7.975 -0.0271 -0.6474  0.4013
  686MOL0     O92522   8.044   3.715   7.770 -0.3341 -0.1565  0.1534
  686MOL0     C92523   7.831   3.772   7.610 -0.4628  0.4252 -1.0667
  686MOL0     C92524   7.738   3.813   7.522 -0.0057 -0.1373  0.8752
  686MOL0     N92525   7.173   3.666   7.478  0.2032 -0.3426  0.1312
  686MOL0     N92526   7.118   3.614   7.586 -0.3653 -0.7132  0.4364
  686MOL0     C92527   6.217   3.957   8.393 -0.3305 -0.4618 -0.0316
  686MOL0     C92528   6.107   4.003   8.464  0.4493  0.3081 -0.1455
  686MOL0     C92529   5.660   4.050   8.551  0.5559 -0.7364  0.2384
  686MOL0     C92530   5.533   4.004   8.498 -0.0456  0.3751  0.2583
  686MOL0     C92531   5.408   4.018   8.564 -0.6942 -0.6343 -0.0329
  686MOL0     C92532   5.403   4.086   8.686  0.3655 -0.5380  0.2816
  686MOL0     O92533   5.286   4.113   8.751 -0.3289  0.5872  1.2252
  686MOL0     C92534   5.172   4.096   8.673 -0.2975 -0.8110  0.2086
  686MOL0     C92535   5.049   4.173   8.715  0.2950 -0.1301  0.9717
  686MOL0     C92536   5.051   4.320   8.752  0.5391  0.6496  0.0545
  686MOL0     C92537   5.076   4.418   8.639 -0.4350 -0.9062  0.5000
  686MOL0     C92538   5.224   4.434   8.632  0.4230  0.1223 -0.1405
  686MOL0     C92539   5.348   4.452   8.626  0.2732  0.7109 -0.1704
  686MOL0     C92540   5.526   4.129   8.735 -0.5387 -0.4294  0.8068
  686MOL0     C92541   5.657   4.117   8.673 -0.4396  0.2492  0.1367
  686MOL0     C92542   5.770   4.176   8.754  0.6543  0.2592  0.2141
  686MOL0     H92543   5.894   3.733   8.409 -0.8189 -1.4512 -0.1384
  686MOL0     H92544   6.096   3.664   8.275 -1.9455 -0.3851  0.2863
  686MOL0     H92545   6.280   3.617   8.193  0.6862 -0.8586 -0.5306
  686MOL0     H92546   6.332   3.727   8.071  1.2811  1.6420  0.9809
  686MOL0     H92547   6.511   3.599   8.285 -1.4637  1.8116  1.5738
  686MOL0     H92548   6.561   3.736   8.180  1.2235 -0.2426  3.8805
  686MOL0     H92549   6.500   3.463   8.076  1.9692 -0.4159  0.7661
  686MOL0     H92550   6.657   3.551   8.097 -0.4393  3.4877  3.1421
  686MOL0     H92551   6.459   3.655   7.900  0.1659 -1.0759 -1.7128
  686MOL0     H92552   6.627   3.706   7.942  1.2946  0.3406 -2.6858
  686MOL0     H92553   6.717   3.483   7.877 -0.0351 -0.2780 -0.8810
  686MOL0     H92554   6.557   3.434   7.833 -1.2673  0.8393  0.1252
  686MOL0     H92555   6.656   3.487   7.629 -2.5882  1.2808 -0.9917
  686MOL0     H92556   6.556   3.621   7.675  0.9193  1.8725  1.3265
  686MOL0     H92557   6.725   3.763   7.720 -0.4792  1.1672 -1.5353
  686MOL0     H92558   6.756   3.712   7.560 -1.4011  1.9437  0.5486
  686MOL0     H92559   6.917   3.675   7.818 -0.8798  1.1195  0.3326
  686MOL0     H92560   6.907   3.533   7.710 -2.2930 -0.0093  0.8040
  686MOL0     H92561   6.941   3.878   7.534 -2.8666 -2.5107  0.0254
  686MOL0     H92562   7.125   3.838   7.245 -1.4826  0.0211  0.5526
  686MOL0     H92563   7.094   3.969   7.348  0.2653  0.4366 -0.5631
  686MOL0     H92564   7.366   3.825   7.341  0.6169 -0.8998  2.7493
  686MOL0     H92565   7.332   3.995   7.301 -3.0439  0.9518 -0.7151
  686MOL0     H92566   7.368   3.894   7.585  1.1434  1.6836  1.3290
  686MOL0     H92567   7.267   4.032   7.537  0.3487  1.4537 -0.9026
  686MOL0     H92568   7.489   4.092   7.604  1.6368 -1.4135  0.8332
  686MOL0     H92569   7.439   4.147   7.449 -1.0690  0.4296  3.0729
  686MOL0     H92570   7.691   4.132   7.652  0.1614 -1.0295  1.6377
  686MOL0     H92571   7.857   4.044   7.800  0.9548 -3.2737  2.7256
  686MOL0     H92572   7.963   3.832   8.177  0.2287  1.4079  0.8674
  686MOL0     H92573   8.152   3.799   8.355 -2.6981 -1.3464 -0.6687
  686MOL0     H92574   8.561   3.741   8.169  1.5717 -0.4715  1.9172
  686MOL0     H92575   8.546   3.917   8.201  3.8248 -0.6323 -1.9721
  686MOL0     H92576   8.593   3.848   8.448  0.0857 -1.3033  1.2222
  686MOL0     H92577   8.638   3.690   8.374  0.5074  0.6961  3.2522
  686MOL0     H92578   8.804   3.797   8.237 -0.9044  1.3751 -0.9958
  686MOL0     H92579   8.781   3.954   8.314 -2.1322 -0.5646 -1.2695
  686MOL0     H92580   8.889   3.696   8.429  3.7388  0.6136 -2.6326
  686MOL0     H92581   8.802   3.808   8.538  0.6951  0.3252  0.5456
  686MOL0     H92582   9.052   3.858   8.541 -1.0370 -2.2184  0.0447
  686MOL0     H92583   8.971   3.981   8.436  1.7609  1.4257  3.5654
  686MOL0     H92584   9.097   3.729   8.348 -1.0176 -0.2346  0.0025
  686MOL0     H92585   9.032   3.847   8.230 -2.1942 -0.1933  0.4247
  686MOL0     H92586   9.285   3.867   8.261  3.2761 -0.6226  1.9825
  686MOL0     H92587   9.270   3.886   8.423  0.8093  2.4828 -0.2411
  686MOL0     H92588   9.182   4.116   8.413  0.9585  0.2521  0.3687
  686MOL0     H92589   9.311   4.104   8.287 -0.3785  1.2819 -0.7957
  686MOL0     H92590   8.423   3.814   8.036 -0.3198 -0.3903  0.8196
  686MOL0     H92591   8.241   3.820   7.868  2.4062  2.9153  0.8579
  686MOL0     H92592   7.869   3.672   7.593  2.4007  1.4410 -1.3163
  686MOL0     H92593   7.705   3.763   7.432 -1.9868  3.6302 -0.6866
  686MOL0     H92594   6.302   4.025   8.393  0.2266 -1.1162  1.3297
  686MOL0     H92595   6.101   4.103   8.505  2.0401  0.5521 -0.4494
  686MOL0     H92596   5.541   3.957   8.401  0.0850 -2.7048  1.6143
  686MOL0     H92597   5.326   3.962   8.518 -0.3095 -0.3640 -1.0637
  686MOL0     H92598   5.155   3.988   8.665 -1.2769 -0.5386 -3.1789
  686MOL0     H92599   5.179   4.135   8.571  0.4772  0.2459  0.6474
  686MOL0     H92600   5.021   4.127   8.810  0.8600 -0.3468  1.0344
  686MOL0     H92601   4.969   4.153   8.643 -0.2921 -0.5894  1.7309
  686MOL0     H92602   5.133   4.320   8.824  0.2688  0.6342  0.3612
  686MOL0     H92603   4.964   4.344   8.814 -0.2957 -1.1934 -0.3274
  686MOL0     H92604   5.034   4.384   8.543 -2.9044  1.5657  0.5831
  686MOL0     H92605   5.033   4.516   8.659  1.4819 -0.1611  1.1986
  686MOL0     H92606   5.452   4.460   8.647  0.0577  0.1692  1.2172
  686MOL0     H92607   5.529   4.186   8.828 -0.0795 -0.6917  0.9498
  686MOL0     H92608   5.765   4.206   8.859  2.3341  0.0787  0.3698
  686MOL0     H92609   5.856   4.109   8.755  0.2509 -0.2668  0.9677
  686MOL0     H92610   5.796   4.262   8.692  2.5449 -1.4178 -1.4711
  687MOL0     O92611   0.307   3.948   3.772  0.3186  0.0959 -0.3415
  687MOL0     C92612   0.231   3.865   3.827  0.4357 -0.1972 -0.1594
  687MOL0     O92613   0.159   3.880   3.942 -0.3529 -0.2632  0.1853
  687MOL0     C92614   0.183   3.999   4.011  0.7547  0.6572 -0.3018
  687MOL0     C92615   0.106   4.119   3.980 -0.2454  0.4514 -0.3823
  687MOL0     C92616   0.139   4.230   4.055 -0.6855  0.0405  0.5018
  687MOL0     C92617   0.253   4.236   4.137 -0.1618 -0.5965  0.1415
  687MOL0     O92618   0.293   4.344   4.219  0.2797  0.1034 -0.0754
  687MOL0     C92619   0.227   4.471   4.192  0.6942 -0.3028 -0.0332
  687MOL0     C92620   0.100   4.475   4.285  0.0642 -0.0046 -0.2306
  687MOL0     C92621   0.036   4.611   4.256 -0.4782 -0.5240 -0.2928
  687MOL0     C92622  -0.109   4.624   4.314 -0.1360 -0.2293  0.1511
  687MOL0     C92623  -0.200   4.713   4.234  0.1218  0.4078 -0.4185
  687MOL0     C92624  -0.343   4.694   4.282  0.2740 -0.2377 -0.2559
  687MOL0     C92625  -0.435   4.784   4.198  0.4827  0.7740 -0.7580
  687MOL0     C92626  -0.487   4.707   4.078  0.1954 -0.8727 -0.5797
  687MOL0     N92627  -0.594   4.780   4.013  0.0831 -0.6340 -0.2409
  687MOL0     C92628  -0.710   4.825   4.074 -0.0977 -0.6476  0.2512
  687MOL0     C92629  -0.768   4.899   3.972 -0.7575  0.3273  0.0569
  687MOL0     C92630  -0.901   4.972   3.994  0.6827  0.4256 -0.0303
  687MOL0     C92631  -0.899   5.113   3.946 -0.4490  0.3339 -0.2987
  687MOL0     C92632  -1.015   5.197   3.993 -0.4056  0.2264 -0.3494
  687MOL0     C92633  -1.012   5.341   3.935  0.5321  0.2638 -0.2102
  687MOL0     O92634  -0.889   5.406   3.948 -0.6295 -0.3614  0.5612
  687MOL0     C92635  -0.843   5.447   4.073 -0.1410  0.3713 -0.0657
  687MOL0     C92636  -0.916   5.465   4.190  2.2437  0.9316 -0.1542
  687MOL0     C92637  -0.867   5.528   4.306 -0.1311  1.0872  0.5076
  687MOL0     C92638  -0.725   5.565   4.300  0.3837  0.0916  0.5361
  687MOL0     C92639  -0.644   5.635   4.411 -0.9286  0.6637  1.2325
  687MOL0     O92640  -0.513   5.614   4.395 -0.2282 -1.0040  0.0638
  687MOL0     C92641  -0.425   5.669   4.480 -0.1877 -0.4866 -0.3931
  687MOL0     C92642  -0.335   5.580   4.537  0.0424  0.2575  0.0941
  687MOL0     C92643  -0.250   5.615   4.636 -0.1669 -0.8774  0.6756
  687MOL0     C92644  -0.240   5.753   4.676  0.2677  0.2715 -0.4556
  687MOL0     O92645  -0.159   5.794   4.780  0.9607 -0.0279 -0.3269
  687MOL0     C92646  -0.106   5.931   4.767 -0.2855  0.1394  0.8270
  687MOL0     C92647  -0.002   5.967   4.661  0.4761  0.3400  0.3080
  687MOL0     C92648   0.116   5.875   4.684  0.1923 -0.5519 -0.3801
  687MOL0     C92649   0.228   5.936   4.597  0.0562 -0.5032 -0.1070
  687MOL0     C92650   0.349   5.850   4.590 -0.0938 -0.4837 -0.2133
  687MOL0     C92651   0.460   5.931   4.512 -0.4534 -0.3127 -0.0961
  687MOL0     C92652   0.415   5.925   4.359  0.0719  0.1232 -0.1244
  687MOL0     C92653   0.537   5.914   4.258 -1.4463  0.7635 -0.1872
  687MOL0    Cl92654   0.467   5.904   4.084 -0.1861  0.5335  0.2691
  687MOL0     C92655  -0.336   5.849   4.618 -0.0636  0.5735 -0.7472
  687MOL0     C92656  -0.424   5.798   4.527 -0.4484  0.2685 -0.1351
  687MOL0     O92657  -0.702   5.688   4.508  0.3075 -0.3485  0.8087
  687MOL0     C92658  -0.654   5.543   4.181  0.7131  0.0948  0.3827
  687MOL0     C92659  -0.710   5.489   4.074  0.0816 -0.2523  1.3849
  687MOL0     N92660  -0.687   4.901   3.857  0.8825  0.4304 -0.5119
  687MOL0     N92661  -0.588   4.823   3.881 -0.5690 -0.3699 -0.1278
  687MOL0     C92662   0.319   4.113   4.167 -0.0905 -0.6275  0.4132
  687MOL0     C92663   0.282   3.991   4.104 -0.1704  0.8322 -0.3494
  687MOL0     C92664   0.208   3.738   3.760 -0.5271 -0.3783  0.0857
  687MOL0     C92665   0.159   3.626   3.836  0.2155 -0.5731  0.5446
  687MOL0     C92666   0.123   3.503   3.782 -0.8541 -0.3119 -1.2674
  687MOL0     C92667   0.150   3.473   3.648 -0.2408 -0.6407  0.0929
  687MOL0     O92668   0.139   3.355   3.577  0.1416 -0.4127  0.6589
  687MOL0     C92669   0.098   3.247   3.662 -0.1903  0.1696  0.7954
  687MOL0     C92670   0.089   3.121   3.583 -0.9790  0.4138 -0.8556
  687MOL0     C92671   0.002   3.016   3.642  1.3431  0.4768  0.1351
  687MOL0     C92672  -0.155   3.037   3.627 -0.7442 -1.0849  0.3222
  687MOL0     C92673  -0.218   3.113   3.736 -0.7808  0.7895 -0.2527
  687MOL0     C92674  -0.267   3.184   3.819  0.1459  0.1520  0.4052
  687MOL0     C92675   0.202   3.580   3.573 -0.1325 -0.3107 -0.3241
  687MOL0     C92676   0.229   3.704   3.627 -0.9842  1.4309 -0.2376
  687MOL0     C92677   0.295   3.799   3.536  0.3357  0.4313  0.0231
  687MOL0     H92678   0.019   4.129   3.915  0.0357  0.8389 -0.7064
  687MOL0     H92679   0.080   4.316   4.024 -0.2105 -0.3347 -1.5647
  687MOL0     H92680   0.290   4.550   4.234  0.5689 -0.8416  1.2013
  687MOL0     H92681   0.211   4.493   4.086 -0.3854  0.4456  0.2712
  687MOL0     H92682   0.134   4.460   4.388 -1.1718  1.3906  0.4190
  687MOL0     H92683   0.029   4.395   4.264 -0.6741  0.4846  0.3732
  687MOL0     H92684   0.036   4.622   4.147  1.4640 -0.6561 -0.3422
  687MOL0     H92685   0.092   4.699   4.292 -2.0368  0.8957 -1.1876
  687MOL0     H92686  -0.160   4.528   4.313 -1.0322  0.1476 -3.4057
  687MOL0     H92687  -0.107   4.666   4.415 -3.3930  0.9751 -0.1643
  687MOL0     H92688  -0.160   4.815   4.242 -0.3921  0.5757  0.0483
  687MOL0     H92689  -0.193   4.695   4.126  1.4791 -2.0345  0.0120
  687MOL0     H92690  -0.365   4.588   4.269  2.6166 -1.1722  2.3944
  687MOL0     H92691  -0.359   4.739   4.381 -0.9664 -1.2085  0.0084
  687MOL0     H92692  -0.392   4.873   4.151  3.7470 -1.4872 -2.5172
  687MOL0     H92693  -0.521   4.802   4.262 -0.4007 -1.8704 -1.0988
  687MOL0     H92694  -0.404   4.676   4.013  2.1006  0.4466  1.0935
  687MOL0     H92695  -0.533   4.616   4.117  0.2441 -0.9661 -0.7408
  687MOL0     H92696  -0.730   4.814   4.180  1.7655 -2.7637  0.4682
  687MOL0     H92697  -0.983   4.920   3.944  2.2384 -2.4687  0.2131
  687MOL0     H92698  -0.932   4.968   4.099  1.1273  0.8445  0.1195
  687MOL0     H92699  -0.804   5.155   3.981 -2.2495  3.5278  1.1755
  687MOL0     H92700  -0.885   5.112   3.837  1.7273 -1.8064 -0.0743
  687MOL0     H92701  -1.005   5.201   4.102 -0.6670  1.4402 -0.3553
  687MOL0     H92702  -1.113   5.151   3.975 -1.0954  1.2279  0.7008
  687MOL0     H92703  -1.088   5.397   3.991  1.5611  0.1374  1.3960
  687MOL0     H92704  -1.036   5.328   3.829 -1.0727  0.6433  0.0815
  687MOL0     H92705  -1.019   5.431   4.198  1.9582  1.8910  0.4740
  687MOL0     H92706  -0.913   5.575   4.392 -0.7112  0.6180  0.4561
  687MOL0     H92707  -0.336   5.475   4.508  0.8492 -0.4881  2.4970
  687MOL0     H92708  -0.177   5.545   4.674 -0.4154 -1.7257 -0.3699
  687MOL0     H92709  -0.190   6.000   4.757 -0.8492 -0.5683  0.5498
  687MOL0     H92710  -0.055   5.947   4.863 -2.2179 -1.7281  2.2587
  687MOL0     H92711  -0.044   5.960   4.560 -2.5698 -2.6394  1.5708
  687MOL0     H92712   0.021   6.071   4.684 -1.4140  0.8036  0.1970
  687MOL0     H92713   0.144   5.874   4.789 -1.2739 -1.1346  0.0246
  687MOL0     H92714   0.091   5.770   4.669  0.3298 -0.6453  0.0428
  687MOL0     H92715   0.256   6.034   4.637  4.1188 -2.8566  3.7619
  687MOL0     H92716   0.185   5.953   4.498 -1.6314 -0.6175  0.5735
  687MOL0     H92717   0.326   5.752   4.549 -1.8429 -0.2763  0.1685
  687MOL0     H92718   0.382   5.830   4.693  0.4634 -1.2538 -0.5319
  687MOL0     H92719   0.477   6.025   4.564  1.0497 -0.9607  0.6550
  687MOL0     H92720   0.547   5.865   4.523 -0.2555 -0.1784 -0.8276
  687MOL0     H92721   0.358   6.015   4.336 -0.4553 -0.4784 -1.2556
  687MOL0     H92722   0.349   5.838   4.357 -0.3251  0.3743  1.3085
  687MOL0     H92723   0.613   5.991   4.271  0.0822 -0.9733  2.1707
  687MOL0     H92724   0.583   5.816   4.278 -1.2557  1.5720  4.3759
  687MOL0     H92725  -0.348   5.951   4.653 -1.9966 -0.2139  1.1490
  687MOL0     H92726  -0.491   5.865   4.475 -1.8046 -0.5330  0.5177
  687MOL0     H92727  -0.550   5.567   4.165  0.3611  1.8420  0.4764
  687MOL0     H92728  -0.646   5.492   3.987 -1.2600 -1.1869  0.3193
  687MOL0     H92729   0.410   4.129   4.224 -0.3382  1.9786  0.1855
  687MOL0     H92730   0.344   3.905   4.125  1.4005  2.2710  1.2785
  687MOL0     H92731   0.136   3.645   3.940  2.1371  0.5068  0.8054
  687MOL0     H92732   0.091   3.427   3.853  0.0269  0.6876  0.2742
  687MOL0     H92733   0.008   3.278   3.716  0.5583  0.0635  2.1451
  687MOL0     H92734   0.171   3.243   3.743 -0.8355  4.1928  1.8062
  687MOL0     H92735   0.186   3.075   3.565 -1.1471 -1.0067  1.4684
  687MOL0     H92736   0.045   3.149   3.487 -6.4076 -0.4140  1.0020
  687MOL0     H92737   0.023   3.007   3.749 -1.4916  0.3189  0.7613
  687MOL0     H92738   0.028   2.923   3.590  2.4758  0.5263  0.5962
  687MOL0     H92739  -0.170   3.082   3.529  0.0042 -2.1872 -0.3150
  687MOL0     H92740  -0.207   2.941   3.629 -0.5458 -1.2461 -1.1561
  687MOL0     H92741  -0.301   3.254   3.892  1.9560  1.5076  0.0072
  687MOL0     H92742   0.222   3.554   3.470 -0.0155 -0.6782 -0.2123
  687MOL0     H92743   0.237   3.889   3.512  0.9084  1.2497  1.5371
  687MOL0     H92744   0.390   3.839   3.572  1.3817 -0.9347 -1.0911
  687MOL0     H92745   0.331   3.753   3.443  1.1341 -3.6267  2.1165
  688MOL0     O92746   5.048   9.302   1.737  0.3035  0.0052 -0.3804
  688MOL0     C92747   4.994   9.337   1.847 -0.4010  0.6794  0.7484
  688MOL0     O92748   5.049   9.328   1.969 -0.6918 -0.0463 -0.3030
  688MOL0     C92749   5.184   9.298   1.976  1.2338  1.6052 -0.4807
  688MOL0     C92750   5.283   9.340   1.889 -1.2401  0.4452 -0.4079
  688MOL0     C92751   5.417   9.314   1.910  0.0895  0.4195  0.3593
  688MOL0     C92752   5.464   9.244   2.015  0.2052  0.3021 -0.3160
  688MOL0     O92753   5.593   9.216   2.043 -0.5311 -0.1860  0.7390
  688MOL0     C92754   5.686   9.189   1.938 -0.0601  0.0663 -0.3559
  688MOL0     C92755   5.830   9.171   1.993 -0.5955 -0.3019  0.6018
  688MOL0     C92756   5.874   9.304   2.052 -0.0729 -0.1963 -0.6871
  688MOL0     C92757   6.021   9.314   2.091 -0.4938 -0.3718  0.6721
  688MOL0     C92758   6.046   9.452   2.147  0.3028 -0.7159  0.2516
  688MOL0     C92759   6.193   9.473   2.179 -1.2672  0.4716 -0.2325
  688MOL0     C92760   6.259   9.367   2.275 -0.3268  0.6245  0.2713
  688MOL0     C92761   6.379   9.422   2.339 -1.1211 -0.0239  0.2195
  688MOL0     N92762   6.395   9.359   2.473  0.0199 -0.0674 -0.3599
  688MOL0     C92763   6.443   9.231   2.501 -0.5285 -0.2454 -0.8181
  688MOL0     C92764   6.398   9.206   2.629  0.3074  0.1847 -0.6663
  688MOL0     C92765   6.424   9.082   2.710 -0.5235  0.0262  0.0218
  688MOL0     C92766   6.318   8.975   2.708 -0.5775  1.0060  0.0490
  688MOL0     C92767   6.177   9.036   2.691  0.5952  0.7717  0.5431
  688MOL0     C92768   6.056   8.933   2.683 -0.3346 -0.1743  0.0941
  688MOL0     O92769   6.083   8.813   2.609 -0.5311  1.0454  0.1052
  688MOL0     C92770   6.053   8.809   2.474 -1.0043 -0.0642  0.1625
  688MOL0     C92771   6.041   8.683   2.415 -0.0494  0.0783 -0.4791
  688MOL0     C92772   6.031   8.663   2.276 -0.8221 -0.1933 -0.2240
  688MOL0     C92773   6.061   8.772   2.188  0.5875  0.1823  0.9026
  688MOL0     C92774   6.093   8.761   2.044 -0.4370 -0.1831  0.0221
  688MOL0     O92775   6.126   8.639   2.000  0.0963 -0.2992  0.0399
  688MOL0     C92776   6.184   8.618   1.878 -0.7649 -0.1434  0.3215
  688MOL0     C92777   6.129   8.668   1.763 -0.2227  0.0570 -0.3656
  688MOL0     C92778   6.179   8.635   1.640 -0.3049 -0.2465 -0.7252
  688MOL0     C92779   6.281   8.544   1.622 -0.3263  0.1344  0.0381
  688MOL0     O92780   6.332   8.513   1.496 -0.7122  0.0917 -0.2903
  688MOL0     C92781   6.424   8.405   1.469  1.0734  0.1314  0.1159
  688MOL0     C92782   6.443   8.384   1.317 -0.2392  0.0393  0.0305
  688MOL0     C92783   6.562   8.302   1.269 -0.4595  0.1426 -0.9150
  688MOL0     C92784   6.537   8.181   1.181 -0.5693 -0.9283 -0.4109
  688MOL0     C92785   6.668   8.106   1.147 -0.7194  0.1503  0.7781
  688MOL0     C92786   6.765   8.189   1.059  0.2199  0.8406 -0.4364
  688MOL0     C92787   6.879   8.100   1.003 -0.5421  0.3179 -0.1158
  688MOL0     C92788   6.820   8.002   0.895 -0.7202 -0.3415 -0.5341
  688MOL0    Cl92789   6.951   7.904   0.820  0.1064  0.2515  0.3874
  688MOL0     C92790   6.334   8.484   1.737 -0.2069  0.4780  0.8636
  688MOL0     C92791   6.287   8.518   1.862  0.3064  0.7706 -0.1991
  688MOL0     O92792   6.093   8.862   1.976 -0.6026  0.6493 -0.3939
  688MOL0     C92793   6.069   8.898   2.253  0.6230  0.5120  0.2714
  688MOL0     C92794   6.056   8.913   2.387 -1.1225 -0.6801  0.0957
  688MOL0     N92795   6.343   9.316   2.684 -0.3009  0.4657 -0.4773
  688MOL0     N92796   6.337   9.407   2.589  0.1045  0.2914  0.1391
  688MOL0     C92797   5.365   9.217   2.115 -0.1389 -0.0526 -0.5549
  688MOL0     C92798   5.229   9.239   2.090  0.3238  0.4459 -0.0432
  688MOL0     C92799   4.862   9.391   1.831 -0.4864  1.0652 -0.0790
  688MOL0     C92800   4.810   9.488   1.931  0.5589  0.3691  0.1546
  688MOL0     C92801   4.684   9.541   1.943  0.0187  0.2874  0.0869
  688MOL0     C92802   4.600   9.528   1.827  0.1985  0.2319  0.3533
  688MOL0     O92803   4.489   9.605   1.828 -0.1214 -0.5320  0.4286
  688MOL0     C92804   4.387   9.567   1.733  0.6738 -1.2701  0.6906
  688MOL0     C92805   4.297   9.695   1.714  0.5278  0.8538 -0.0224
  688MOL0     C92806   4.377   9.802   1.634 -0.1886  0.0266  0.1803
  688MOL0     C92807   4.288   9.922   1.594  0.4194 -0.1618  0.2186
  688MOL0     C92808   4.241   9.996   1.713 -0.4757  0.0996 -0.9807
  688MOL0     C92809   4.208  10.079   1.795 -0.1278 -0.2157 -0.8479
  688MOL0     C92810   4.655   9.454   1.713  0.4973 -0.4702 -0.0255
  688MOL0     C92811   4.770   9.378   1.712 -1.8241 -0.1091  0.3279
  688MOL0     C92812   4.791   9.288   1.587 -0.2546 -0.6568  0.0233
  688MOL0     H92813   5.258   9.408   1.808  0.9142 -0.2496 -1.7322
  688MOL0     H92814   5.488   9.352   1.837  0.2475  2.2282  1.3748
  688MOL0     H92815   5.646   9.109   1.874 -2.4616  0.9861 -0.0685
  688MOL0     H92816   5.689   9.271   1.866 -3.3995  1.4788  0.9321
  688MOL0     H92817   5.898   9.143   1.913  3.2167  0.8342  3.1593
  688MOL0     H92818   5.835   9.087   2.062  2.2826 -1.3030 -0.6543
  688MOL0     H92819   5.822   9.332   2.144  0.7732 -2.0763  0.4107
  688MOL0     H92820   5.857   9.380   1.975  0.0012  0.8665  0.3018
  688MOL0     H92821   6.038   9.239   2.169  1.0494  1.0346  1.7622
  688MOL0     H92822   6.090   9.294   2.009  1.8211  0.0898  2.4123
  688MOL0     H92823   6.006   9.525   2.076 -0.7067 -0.2645  1.2610
  688MOL0     H92824   5.971   9.465   2.225 -1.8155 -0.2835 -1.7497
  688MOL0     H92825   6.255   9.473   2.089 -0.0803  1.3938  0.5595
  688MOL0     H92826   6.209   9.574   2.218 -1.2363  0.0174  0.9961
  688MOL0     H92827   6.291   9.279   2.218  0.5211  0.2677  1.2858
  688MOL0     H92828   6.177   9.348   2.345  0.1788  1.0206  0.9742
  688MOL0     H92829   6.460   9.410   2.267 -2.7522  3.1206 -2.3706
  688MOL0     H92830   6.362   9.530   2.344 -5.0412 -0.3872 -1.3660
  688MOL0     H92831   6.500   9.161   2.441  0.1861 -2.1179  1.8701
  688MOL0     H92832   6.519   9.034   2.685  1.0883  2.2344  1.5753
  688MOL0     H92833   6.436   9.107   2.815 -4.2684  0.9215  0.3725
  688MOL0     H92834   6.344   8.901   2.632  2.5277 -0.9428  2.7565
  688MOL0     H92835   6.318   8.914   2.799 -1.6354 -2.5750 -2.1788
  688MOL0     H92836   6.174   9.096   2.599  0.3595 -1.2499 -0.8381
  688MOL0     H92837   6.160   9.097   2.780 -1.6324 -2.3440  2.4743
  688MOL0     H92838   5.979   8.992   2.633 -0.5194 -1.5419 -1.2980
  688MOL0     H92839   6.017   8.905   2.781 -1.2658  0.3114 -0.1329
  688MOL0     H92840   6.046   8.591   2.472  0.6081 -1.6294 -3.1460
  688MOL0     H92841   6.006   8.564   2.241 -1.0348  0.2084 -1.2504
  688MOL0     H92842   6.036   8.722   1.771  0.1387  0.5219  1.0022
  688MOL0     H92843   6.138   8.677   1.549  1.7631 -0.1857 -1.6747
  688MOL0     H92844   6.520   8.429   1.515  1.7129 -0.0031 -1.1044
  688MOL0     H92845   6.384   8.309   1.504  0.6358  0.9686  2.0208
  688MOL0     H92846   6.362   8.315   1.289 -1.3617 -0.4228  3.7646
  688MOL0     H92847   6.434   8.479   1.264  0.2851  0.8906  1.4191
  688MOL0     H92848   6.635   8.370   1.224  0.5579  1.3667  2.3006
  688MOL0     H92849   6.611   8.263   1.359  2.2543  1.0136 -1.9273
  688MOL0     H92850   6.495   8.210   1.084 -2.5934 -1.0305  0.3713
  688MOL0     H92851   6.480   8.107   1.238  0.8407 -0.9502  1.0372
  688MOL0     H92852   6.642   8.012   1.097 -0.3452  0.0766  0.7127
  688MOL0     H92853   6.718   8.084   1.242 -0.0767  3.0815  1.2093
  688MOL0     H92854   6.714   8.218   0.966  0.7965 -2.0840 -1.8181
  688MOL0     H92855   6.795   8.276   1.116  2.0093  0.5517 -0.8883
  688MOL0     H92856   6.950   8.056   1.074 -0.2493 -1.8302 -1.6337
  688MOL0     H92857   6.943   8.171   0.948 -0.6335  1.6648  1.4507
  688MOL0     H92858   6.755   7.928   0.942 -0.9720 -1.1603 -2.1156
  688MOL0     H92859   6.767   8.056   0.816  0.3715 -1.2752 -1.9504
  688MOL0     H92860   6.393   8.394   1.732 -2.2080 -1.1690  3.7603
  688MOL0     H92861   6.322   8.460   1.948 -0.8565 -0.3376 -0.4411
  688MOL0     H92862   6.117   8.983   2.205  0.4989  0.1623 -0.4912
  688MOL0     H92863   6.060   9.016   2.423 -0.8026  0.2094 -2.2544
  688MOL0     H92864   5.394   9.175   2.210  2.0748 -0.2508 -1.2558
  688MOL0     H92865   5.154   9.228   2.167  0.8503  2.8174  0.8997
  688MOL0     H92866   4.872   9.507   2.018 -0.7524 -0.1446  1.2425
  688MOL0     H92867   4.652   9.606   2.023 -1.0181  0.9823 -0.8558
  688MOL0     H92868   4.322   9.488   1.770  0.5137 -1.9810 -0.9822
  688MOL0     H92869   4.422   9.548   1.631 -1.1984 -1.5622  0.0595
  688MOL0     H92870   4.270   9.732   1.814 -2.3247  3.8400 -1.7212
  688MOL0     H92871   4.205   9.657   1.668  1.7591  0.1473 -2.0303
  688MOL0     H92872   4.397   9.752   1.539 -1.9802 -2.1330  0.8443
  688MOL0     H92873   4.478   9.821   1.672  1.5268 -1.9349 -2.9605
  688MOL0     H92874   4.338   9.984   1.519 -0.6032 -1.6241 -1.7899
  688MOL0     H92875   4.194   9.880   1.556  0.5929  0.7276 -1.2846
  688MOL0     H92876   4.175  10.159   1.857 -0.9701 -0.6798 -0.6722
  688MOL0     H92877   4.604   9.436   1.620 -2.5526 -0.7254  1.5610
  688MOL0     H92878   4.816   9.187   1.622  0.2643  0.2277  2.3558
  688MOL0     H92879   4.697   9.270   1.534 -2.1734 -0.6609  3.1854
  688MOL0     H92880   4.866   9.335   1.522 -0.7210 -0.0409 -0.0718
  689MOL0     O92881   8.334   9.549   7.136  0.1836 -0.6250 -0.3730
  689MOL0     C92882   8.317   9.512   7.020  0.0441 -0.6770 -0.5752
  689MOL0     O92883   8.282   9.383   6.976 -0.0671 -0.0335 -0.5087
  689MOL0     C92884   8.260   9.280   7.071  0.8679  0.4051 -0.2514
  689MOL0     C92885   8.213   9.294   7.204  0.4885 -0.5852 -0.1437
  689MOL0     C92886   8.203   9.177   7.287  0.1432  0.1613  0.5825
  689MOL0     C92887   8.245   9.052   7.237 -0.5644  0.2166  1.1417
  689MOL0     O92888   8.238   8.952   7.331 -0.5368  0.3752  0.0575
  689MOL0     C92889   8.214   8.825   7.273  0.2668 -0.5741  0.1625
  689MOL0     C92890   8.348   8.748   7.271 -0.4384  0.2385  0.8700
  689MOL0     C92891   8.347   8.607   7.202  0.1602 -0.7280 -0.7887
  689MOL0     C92892   8.485   8.542   7.218  0.0325  0.0425  1.0462
  689MOL0     C92893   8.493   8.424   7.116 -0.0420 -0.4757  0.2453
  689MOL0     C92894   8.637   8.372   7.092 -0.1015  0.6499 -0.3680
  689MOL0     C92895   8.662   8.290   6.971  0.1490 -0.2090 -0.0617
  689MOL0     C92896   8.799   8.216   6.975  0.6331 -0.2686 -0.5425
  689MOL0     N92897   8.840   8.145   6.851  0.8301 -0.5189  0.0866
  689MOL0     C92898   8.840   8.188   6.722  0.3368  0.7962 -0.7440
  689MOL0     C92899   8.887   8.080   6.646  1.4005 -0.9144  0.1041
  689MOL0     C92900   8.896   8.073   6.499  0.9594 -0.3185 -0.0251
  689MOL0     C92901   8.761   8.018   6.438 -1.0638  0.3061  0.2263
  689MOL0     C92902   8.770   8.002   6.284  0.1736 -0.0950 -0.9583
  689MOL0     C92903   8.641   7.943   6.241  0.1159  0.8602  0.3550
  689MOL0     O92904   8.532   8.038   6.234  0.8206  0.8100  0.2665
  689MOL0     C92905   8.409   7.988   6.193  0.3340 -0.3315 -0.4319
  689MOL0     C92906   8.368   7.858   6.183  0.0024  1.3283  0.1866
  689MOL0     C92907   8.239   7.827   6.145  0.9246 -0.3088  0.5751
  689MOL0     C92908   8.143   7.923   6.117  0.5118 -0.1996 -0.6217
  689MOL0     C92909   8.002   7.895   6.078  0.0208 -0.6401  0.2492
  689MOL0     O92910   7.954   7.992   5.992  0.1881  0.2006 -0.1371
  689MOL0     C92911   7.828   8.001   5.937  0.6944  0.3336 -0.4763
  689MOL0     C92912   7.713   7.925   5.967 -0.6067  0.2776 -0.2900
  689MOL0     C92913   7.598   7.948   5.893 -0.8515  0.5238 -0.5299
  689MOL0     C92914   7.587   8.050   5.792  0.3481  1.0424  0.3909
  689MOL0     O92915   7.474   8.096   5.731  0.4112 -0.7305 -0.1417
  689MOL0     C92916   7.347   8.025   5.748 -0.0284 -0.4520  0.9320
  689MOL0     C92917   7.249   8.088   5.649 -0.4857 -0.0664  0.4350
  689MOL0     C92918   7.284   8.045   5.506  0.1628 -0.0009 -0.1016
  689MOL0     C92919   7.157   8.048   5.419 -0.0131  0.1374 -0.1141
  689MOL0     C92920   7.184   8.050   5.266 -0.3542 -0.7153 -0.0370
  689MOL0     C92921   7.051   8.068   5.191 -0.7106  0.6789 -0.6111
  689MOL0     C92922   6.921   7.989   5.234 -0.6664  1.5016  0.0070
  689MOL0     C92923   6.808   7.999   5.130 -0.1703  0.5157 -0.1460
  689MOL0    Cl92924   6.730   8.161   5.132  0.4600  0.1321 -0.4124
  689MOL0     C92925   7.696   8.128   5.765  0.3017 -0.4373  0.2546
  689MOL0     C92926   7.814   8.101   5.847 -0.5304 -0.4040  0.1333
  689MOL0     O92927   7.943   7.792   6.111  0.0938 -0.5899  0.4220
  689MOL0     C92928   8.188   8.055   6.123  0.2140 -0.7647 -0.1681
  689MOL0     C92929   8.314   8.084   6.166  0.2240 -0.0395 -0.4469
  689MOL0     N92930   8.903   7.974   6.728 -0.2051  0.0704  0.8382
  689MOL0     N92931   8.879   8.016   6.852 -0.0105  1.1082 -0.2748
  689MOL0     C92932   8.281   9.039   7.096 -0.6369 -0.3149 -0.7768
  689MOL0     C92933   8.292   9.158   7.023  0.8953 -0.1154 -0.3485
  689MOL0     C92934   8.321   9.618   6.912  0.6348  0.0979  0.6012
  689MOL0     C92935   8.275   9.583   6.784 -0.5194 -0.0101  0.1081
  689MOL0     C92936   8.270   9.677   6.677  0.3846  0.3007 -0.8671
  689MOL0     C92937   8.323   9.807   6.693 -0.2515 -0.5120 -0.5402
  689MOL0     O92938   8.335   9.909   6.596  0.1931 -0.1967 -0.8284
  689MOL0     C92939   8.284   9.890   6.463 -1.0720 -0.8825  0.9545
  689MOL0     C92940   8.137   9.925   6.458  0.3358  0.0099  0.0776
  689MOL0     C92941   8.067   9.916   6.313 -0.5167  0.5797 -0.3218
  689MOL0     C92942   8.089   9.788   6.229 -0.9088 -0.3033 -0.3197
  689MOL0     C92943   8.037   9.677   6.299 -0.3928  0.6330 -0.8128
  689MOL0     C92944   8.001   9.576   6.363 -0.0881  0.9553  0.8853
  689MOL0     C92945   8.374   9.838   6.821  1.1219 -0.3131 -0.0461
  689MOL0     C92946   8.374   9.752   6.931  0.2017  0.2669 -0.8128
  689MOL0     C92947   8.429   9.825   7.057  1.3966  0.1123  0.1523
  689MOL0     H92948   8.193   9.396   7.238  5.1447  0.5559 -0.1086
  689MOL0     H92949   8.171   9.176   7.391 -0.3689  0.1566  0.4221
  689MOL0     H92950   8.151   8.776   7.347  0.3838 -0.6514  0.2109
  689MOL0     H92951   8.160   8.816   7.179 -0.1200  0.3452  0.2896
  689MOL0     H92952   8.392   8.749   7.372 -0.1071  3.2188  0.7998
  689MOL0     H92953   8.412   8.815   7.213 -1.7085  1.3533  0.7140
  689MOL0     H92954   8.322   8.617   7.096  0.9704  1.8118 -0.8047
  689MOL0     H92955   8.276   8.539   7.250  2.2090 -1.0565  2.0043
  689MOL0     H92956   8.566   8.615   7.211  0.4227 -0.4945 -0.6150
  689MOL0     H92957   8.493   8.499   7.318  0.8980  1.1199  1.4582
  689MOL0     H92958   8.419   8.345   7.135 -0.3653  0.3523  2.8756
  689MOL0     H92959   8.470   8.464   7.017 -2.7433  1.1274  1.3738
  689MOL0     H92960   8.701   8.460   7.078  1.2728 -0.6326 -2.8393
  689MOL0     H92961   8.667   8.316   7.181 -1.5745  0.7533  0.2089
  689MOL0     H92962   8.659   8.344   6.876  1.3048  1.5002  0.8332
  689MOL0     H92963   8.583   8.219   6.945  0.2930  0.4459 -2.5699
  689MOL0     H92964   8.879   8.290   6.984  0.2410 -0.0740  2.1570
  689MOL0     H92965   8.805   8.148   7.061 -3.6914  2.5235  2.3608
  689MOL0     H92966   8.819   8.289   6.689 -1.8423 -0.1470 -2.4623
  689MOL0     H92967   8.917   8.173   6.460  0.0134 -0.2977 -0.4959
  689MOL0     H92968   8.976   8.002   6.473 -1.8593 -3.1019 -1.8709
  689MOL0     H92969   8.745   7.922   6.488  0.4938 -0.0471  0.0975
  689MOL0     H92970   8.690   8.097   6.464  0.6664  1.6596  0.9471
  689MOL0     H92971   8.856   7.940   6.254  0.8461  0.9148 -1.1621
  689MOL0     H92972   8.773   8.099   6.235  1.9187  0.9145  0.9715
  689MOL0     H92973   8.599   7.870   6.311 -2.5657  2.7282  0.8641
  689MOL0     H92974   8.651   7.900   6.141 -0.2736  0.4212  0.5042
  689MOL0     H92975   8.427   7.771   6.211  0.9417  2.1776  0.9043
  689MOL0     H92976   8.204   7.724   6.150 -1.0492  0.2865 -0.1789
  689MOL0     H92977   7.717   7.857   6.051  1.0140 -2.3409 -2.2956
  689MOL0     H92978   7.518   7.879   5.921 -0.1009  0.0528  0.5364
  689MOL0     H92979   7.368   7.919   5.731  1.2485 -0.1138  0.2543
  689MOL0     H92980   7.325   8.029   5.855  0.1599 -2.4667  1.0969
  689MOL0     H92981   7.145   8.062   5.671 -0.9248  1.0188 -0.2851
  689MOL0     H92982   7.254   8.197   5.645 -1.0003 -0.0397  0.4177
  689MOL0     H92983   7.363   8.113   5.469  1.1363  0.1998  2.1783
  689MOL0     H92984   7.320   7.942   5.512  3.3140  0.8632 -1.7357
  689MOL0     H92985   7.091   8.133   5.441 -2.1666 -1.2091 -1.1225
  689MOL0     H92986   7.088   7.966   5.438  1.0253 -0.8932 -0.6727
  689MOL0     H92987   7.231   7.956   5.235  1.2856  0.3223 -0.8358
  689MOL0     H92988   7.244   8.138   5.243 -1.4102  0.4999  1.5782
  689MOL0     H92989   7.035   8.174   5.214  0.4539  0.4242  1.7282
  689MOL0     H92990   7.068   8.067   5.083  2.0919  0.5721 -0.2459
  689MOL0     H92991   6.892   8.025   5.333  1.9036  1.1284  0.9726
  689MOL0     H92992   6.948   7.883   5.242 -0.4410  1.3966 -1.7906
  689MOL0     H92993   6.844   7.985   5.028 -1.1499  1.3667 -0.6292
  689MOL0     H92994   6.732   7.920   5.138  1.7490 -1.4757 -0.6185
  689MOL0     H92995   7.684   8.205   5.690 -0.0487 -0.8796 -0.1522
  689MOL0     H92996   7.896   8.167   5.817 -2.6507  1.8022 -1.2492
  689MOL0     H92997   8.127   8.141   6.096 -1.2083 -2.0316 -1.1502
  689MOL0     H92998   8.345   8.188   6.161  2.0155 -0.5283 -0.3876
  689MOL0     H92999   8.328   8.947   7.064 -1.8116 -1.9060  1.7653
  689MOL0     H93000   8.314   9.134   6.919 -0.8844 -1.8220 -0.3879
  689MOL0     H93001   8.220   9.491   6.771 -3.1177  1.4338  0.1196
  689MOL0     H93002   8.221   9.657   6.582  0.8621  0.3431 -1.1242
  689MOL0     H93003   8.307   9.790   6.426 -1.1657 -0.1124 -1.3198
  689MOL0     H93004   8.330   9.967   6.402  0.6852 -2.0845  0.6996
  689MOL0     H93005   8.119  10.029   6.488 -1.7995  1.1162 -4.1984
  689MOL0     H93006   8.088   9.869   6.538  3.0489 -0.9124  1.2005
  689MOL0     H93007   8.098  10.006   6.259 -1.4792  0.8791 -0.3857
  689MOL0     H93008   7.960   9.932   6.329 -0.1298  0.5635  3.2281
  689MOL0     H93009   8.024   9.794   6.141 -0.5869 -0.0251 -0.5423
  689MOL0     H93010   8.195   9.768   6.210 -0.2890 -0.1207  2.5388
  689MOL0     H93011   7.961   9.493   6.417 -2.6976  0.5481 -1.4409
  689MOL0     H93012   8.415   9.936   6.842  1.0638 -0.1234 -0.7904
  689MOL0     H93013   8.429   9.762   7.147  0.7659  0.8038  0.6504
  689MOL0     H93014   8.531   9.854   7.030  1.2899 -2.1760 -3.4191
  689MOL0     H93015   8.363   9.910   7.077 -1.2496 -1.2840 -1.8941
  690MOL0     O93016   4.952   6.704   7.387 -0.1046  0.1366 -0.9114
  690MOL0     C93017   4.938   6.625   7.295  0.1422 -0.1391  0.1966
  690MOL0     O93018   4.827   6.617   7.212 -0.4441 -0.1909 -0.3895
  690MOL0     C93019   4.727   6.705   7.207 -0.1952 -0.3696 -0.0754
  690MOL0     C93020   4.726   6.834   7.255 -0.7362  0.4132  0.0921
  690MOL0     C93021   4.629   6.923   7.217  0.1871 -0.8274 -0.9257
  690MOL0     C93022   4.511   6.880   7.159  0.3075  0.0759  0.5207
  690MOL0     O93023   4.417   6.982   7.139  0.2319 -0.0764  0.0533
  690MOL0     C93024   4.340   6.985   7.014  0.4002 -0.1745 -0.9113
  690MOL0     C93025   4.198   7.037   7.051  0.2722  0.6312  1.1781
  690MOL0     C93026   4.098   7.071   6.928 -0.9137  0.0533 -1.1912
  690MOL0     C93027   3.985   7.162   6.980 -0.8139  0.6035 -0.3680
  690MOL0     C93028   3.892   7.228   6.875 -1.1748 -0.0081 -0.3647
  690MOL0     C93029   3.792   7.131   6.818 -0.7462 -1.0999  0.2318
  690MOL0     C93030   3.703   7.189   6.710 -0.0383  0.3855  0.0111
  690MOL0     C93031   3.649   7.078   6.619 -0.4104  0.8023 -0.0789
  690MOL0     N93032   3.594   7.123   6.489 -0.1196 -0.7874 -0.0539
  690MOL0     C93033   3.485   7.216   6.480 -0.4652 -0.3886 -0.4090
  690MOL0     C93034   3.476   7.240   6.340 -0.0111  0.4689  0.5986
  690MOL0     C93035   3.373   7.330   6.274 -0.6727 -0.9092 -0.5322
  690MOL0     C93036   3.419   7.477   6.288  0.0037  0.5415  0.2837
  690MOL0     C93037   3.550   7.514   6.219 -0.6677 -0.0367 -0.3292
  690MOL0     C93038   3.568   7.468   6.069 -0.2095  0.0057 -0.3119
  690MOL0     O93039   3.447   7.524   6.005  0.1116  0.4578 -0.1698
  690MOL0     C93040   3.435   7.522   5.869 -0.4127 -0.6658  0.4275
  690MOL0     C93041   3.314   7.578   5.834  0.2481  1.3256 -0.1071
  690MOL0     C93042   3.273   7.565   5.700  0.2371 -0.2844 -0.3130
  690MOL0     C93043   3.370   7.530   5.604  0.5857 -0.2998 -0.4997
  690MOL0     C93044   3.343   7.528   5.459 -0.8030 -0.5624  0.1147
  690MOL0     O93045   3.397   7.418   5.392  0.7191  0.4710 -0.4078
  690MOL0     C93046   3.362   7.387   5.259 -1.5953  1.0218 -1.0905
  690MOL0     C93047   3.251   7.444   5.190 -0.7998 -0.0500 -1.4411
  690MOL0     C93048   3.197   7.379   5.078  0.2712  0.1544  0.2911
  690MOL0     C93049   3.266   7.271   5.014 -0.6154 -0.5415 -0.5910
  690MOL0     O93050   3.224   7.205   4.901  0.2919 -0.9750 -0.0734
  690MOL0     C93051   3.095   7.228   4.853  0.7212 -0.0943  0.4613
  690MOL0     C93052   3.069   7.135   4.742 -0.7125  0.1769 -0.3349
  690MOL0     C93053   2.928   7.159   4.685  0.2765  0.6077  0.4419
  690MOL0     C93054   2.919   7.263   4.563  0.8076 -0.5978 -0.0591
  690MOL0     C93055   2.769   7.286   4.546  0.4296 -0.9907  0.4824
  690MOL0     C93056   2.735   7.386   4.433  0.5110  0.2479 -0.3283
  690MOL0     C93057   2.582   7.405   4.403 -0.4376 -0.8550 -0.0768
  690MOL0     C93058   2.533   7.510   4.499  0.2217 -0.0275 -0.3486
  690MOL0    Cl93059   2.590   7.675   4.445 -0.0933 -0.1960  0.4656
  690MOL0     C93060   3.390   7.234   5.072  0.0162  0.5506  0.1762
  690MOL0     C93061   3.431   7.279   5.197 -0.8474 -0.6412 -0.5119
  690MOL0     O93062   3.271   7.613   5.417  0.0314 -0.2576  0.1898
  690MOL0     C93063   3.487   7.475   5.637 -0.6452 -0.4990  0.1657
  690MOL0     C93064   3.526   7.476   5.772  0.5389  1.2815  0.0841
  690MOL0     N93065   3.580   7.184   6.284 -0.3394  0.6633  0.6325
  690MOL0     N93066   3.656   7.113   6.368  0.0468  0.0266 -1.2024
  690MOL0     C93067   4.499   6.748   7.125  0.2287 -0.3972  0.4448
  690MOL0     C93068   4.617   6.664   7.133 -0.1850 -0.1161  1.2838
  690MOL0     C93069   5.046   6.531   7.262 -0.9010  1.0920 -0.5331
  690MOL0     C93070   5.038   6.452   7.148  0.4313 -0.1107  0.4845
  690MOL0     C93071   5.140   6.379   7.090  0.0700  0.5321 -0.1527
  690MOL0     C93072   5.261   6.369   7.159  0.0782  0.0256 -0.2322
  690MOL0     O93073   5.365   6.294   7.103 -0.0338 -0.3169  0.0736
  690MOL0     C93074   5.499   6.309   7.142  1.1537 -0.3746  0.0615
  690MOL0     C93075   5.531   6.236   7.263  0.6187 -0.2448 -1.0779
  690MOL0     C93076   5.675   6.257   7.325  0.8301 -0.6708 -0.0604
  690MOL0     C93077   5.684   6.388   7.392 -0.2892 -0.3450 -0.1400
  690MOL0     C93078   5.583   6.424   7.497  0.3291  0.8685 -0.0922
  690MOL0     C93079   5.511   6.454   7.589 -0.1772  0.3187  1.1198
  690MOL0     C93080   5.274   6.450   7.282 -0.3588 -0.0379  0.5175
  690MOL0     C93081   5.165   6.515   7.331  0.1009 -0.6145 -0.2851
  690MOL0     C93082   5.178   6.565   7.470 -0.4183 -0.0679  0.4880
  690MOL0     H93083   4.816   6.869   7.305 -0.0241  0.0205 -0.8731
  690MOL0     H93084   4.631   7.028   7.246  0.0091 -0.3330 -2.6001
  690MOL0     H93085   4.387   7.046   6.936  3.4677 -1.1138  0.0643
  690MOL0     H93086   4.337   6.886   6.969 -0.1589 -1.2397  1.2975
  690MOL0     H93087   4.200   7.121   7.121  1.0043  2.5658 -1.0219
  690MOL0     H93088   4.147   6.959   7.108  0.1418  2.1709  3.2886
  690MOL0     H93089   4.061   6.980   6.881 -0.9723 -0.5816  0.0346
  690MOL0     H93090   4.152   7.109   6.841 -0.2726 -0.8083 -1.1817
  690MOL0     H93091   3.925   7.108   7.053  2.5706 -2.6232  0.3699
  690MOL0     H93092   4.033   7.247   7.030 -2.0472 -0.0232  2.0154
  690MOL0     H93093   3.835   7.306   6.927  0.2987 -0.2573  1.7450
  690MOL0     H93094   3.949   7.270   6.792 -1.0121  0.3593 -0.0738
  690MOL0     H93095   3.849   7.044   6.785  2.6911  1.2701 -0.6523
  690MOL0     H93096   3.728   7.094   6.899  0.7705 -0.8358  1.6153
  690MOL0     H93097   3.757   7.259   6.646  0.5841  1.1987  1.3913
  690MOL0     H93098   3.618   7.239   6.755 -0.4629 -0.8637  0.6439
  690MOL0     H93099   3.725   7.000   6.609 -0.2525  0.8742  0.5417
  690MOL0     H93100   3.562   7.035   6.670 -2.3691  2.9914 -1.3516
  690MOL0     H93101   3.434   7.260   6.565  1.2399  0.4890  0.2221
  690MOL0     H93102   3.359   7.296   6.171 -0.9787 -1.0094 -0.4603
  690MOL0     H93103   3.276   7.323   6.324 -0.8618 -1.3296 -0.9545
  690MOL0     H93104   3.341   7.531   6.233 -1.8780 -0.5924  1.6881
  690MOL0     H93105   3.426   7.504   6.393  1.3241 -2.8167  1.1815
  690MOL0     H93106   3.630   7.486   6.288  0.5983  0.6351 -1.4662
  690MOL0     H93107   3.555   7.623   6.224  0.4470 -0.0769 -0.2715
  690MOL0     H93108   3.553   7.364   6.039 -2.9280  0.7686 -2.0290
  690MOL0     H93109   3.661   7.508   6.029  0.3621  0.4960  1.4105
  690MOL0     H93110   3.238   7.608   5.906 -1.8782 -0.4651 -1.4654
  690MOL0     H93111   3.173   7.594   5.671 -1.2990 -1.4419  3.2920
  690MOL0     H93112   3.197   7.529   5.229  3.6324  1.6576  1.8648
  690MOL0     H93113   3.109   7.420   5.030 -1.6640 -2.5398  1.2857
  690MOL0     H93114   3.019   7.203   4.928  0.9493 -2.0463  0.0864
  690MOL0     H93115   3.088   7.330   4.814  1.5332 -0.8075 -1.6813
  690MOL0     H93116   3.148   7.145   4.667 -0.7963 -1.0085 -0.6005
  690MOL0     H93117   3.074   7.036   4.788  1.1540  1.7768  3.2510
  690MOL0     H93118   2.892   7.066   4.640  3.2109  0.1547 -1.2197
  690MOL0     H93119   2.867   7.198   4.767 -2.8989 -0.2983 -1.3136
  690MOL0     H93120   2.974   7.221   4.478 -0.3067  0.2306 -1.2167
  690MOL0     H93121   2.962   7.361   4.586  0.3066 -0.3948  0.0413
  690MOL0     H93122   2.731   7.313   4.645 -1.0435 -2.3139  0.3161
  690MOL0     H93123   2.722   7.191   4.521  0.9760 -1.0051 -0.5365
  690MOL0     H93124   2.786   7.480   4.458 -0.5617  1.0498 -1.0660
  690MOL0     H93125   2.783   7.347   4.342 -1.7265  1.7041 -2.2525
  690MOL0     H93126   2.529   7.310   4.419 -2.9830  0.9756  4.1712
  690MOL0     H93127   2.569   7.440   4.301  1.1208 -0.0100 -0.0183
  690MOL0     H93128   2.424   7.501   4.508  0.1023  0.4569 -1.1968
  690MOL0     H93129   2.578   7.489   4.596 -1.9367 -3.8413  0.0498
  690MOL0     H93130   3.465   7.181   5.015  3.2100  1.5055  3.1754
  690MOL0     H93131   3.515   7.224   5.239 -1.7914 -0.7406  1.3773
  690MOL0     H93132   3.560   7.434   5.568 -1.0108  0.5693 -0.8839
  690MOL0     H93133   3.621   7.431   5.799 -1.1672 -2.7029  0.1406
  690MOL0     H93134   4.399   6.716   7.097  0.2180  0.3178 -0.3598
  690MOL0     H93135   4.614   6.564   7.092 -1.7387 -0.3429  1.8589
  690MOL0     H93136   4.941   6.441   7.102  0.7382 -0.7305 -0.0263
  690MOL0     H93137   5.124   6.307   7.010 -1.5215 -0.0147  0.6215
  690MOL0     H93138   5.527   6.415   7.144  2.1379 -0.6356  0.9268
  690MOL0     H93139   5.556   6.265   7.060 -1.5674 -4.2426 -0.0020
  690MOL0     H93140   5.508   6.131   7.243 -0.2582 -0.2164 -0.3407
  690MOL0     H93141   5.463   6.263   7.345  2.4556  0.6485  0.2127
  690MOL0     H93142   5.747   6.250   7.244 -0.2346  2.9637 -1.5195
  690MOL0     H93143   5.680   6.176   7.398 -0.3470 -0.4294  0.3177
  690MOL0     H93144   5.782   6.390   7.439 -0.0896 -0.1681 -0.5593
  690MOL0     H93145   5.691   6.463   7.312 -0.0831 -1.1369 -0.8814
  690MOL0     H93146   5.445   6.464   7.672 -3.0315  0.4417 -1.0238
  690MOL0     H93147   5.367   6.450   7.339 -0.0071 -0.9910 -0.0295
  690MOL0     H93148   5.262   6.512   7.514 -1.4013 -0.8781  1.4412
  690MOL0     H93149   5.189   6.673   7.454 -0.7440 -0.4920 -3.9547
  690MOL0     H93150   5.084   6.542   7.522 -0.3825 -3.2650 -0.6664
  691MOL0     O93151   7.274   5.189   8.744  0.2424 -0.3555  1.2664
  691MOL0     C93152   7.258   5.222   8.624  0.3004 -0.0056  0.0225
  691MOL0     O93153   7.346   5.218   8.523 -0.3863  0.3017  0.5400
  691MOL0     C93154   7.481   5.185   8.538  0.1529  0.5963 -0.3894
  691MOL0     C93155   7.533   5.098   8.637 -0.6103  0.4467  0.4487
  691MOL0     C93156   7.668   5.071   8.640 -1.1831 -0.4155 -0.5086
  691MOL0     C93157   7.762   5.134   8.559  0.0505  0.0348  0.2959
  691MOL0     O93158   7.898   5.128   8.568 -0.0297  0.4684 -0.8774
  691MOL0     C93159   7.943   4.990   8.546 -0.8390 -0.5116  0.4491
  691MOL0     C93160   8.096   4.989   8.537 -0.0127  0.2735  0.3968
  691MOL0     C93161   8.143   5.096   8.444 -0.1655 -0.1409  0.5958
  691MOL0     C93162   8.290   5.120   8.446 -0.2087 -1.1485 -0.0052
  691MOL0     C93163   8.314   5.225   8.566 -0.1903  0.2436  0.1395
  691MOL0     C93164   8.454   5.261   8.580 -0.5591  0.2961  0.9281
  691MOL0     C93165   8.466   5.384   8.669  0.5984  0.5440 -0.0094
  691MOL0     C93166   8.590   5.470   8.628  0.0249 -0.2845 -0.0931
  691MOL0     N93167   8.712   5.385   8.614 -0.2376 -0.1280 -0.4217
  691MOL0     C93168   8.765   5.337   8.496  0.1003 -0.6871  0.3675
  691MOL0     C93169   8.878   5.271   8.524 -0.1929 -0.5691 -0.1786
  691MOL0     C93170   8.955   5.200   8.414  0.5560 -1.0503  0.0477
  691MOL0     C93171   9.074   5.282   8.395  0.5134 -0.3885 -0.5517
  691MOL0     C93172   9.176   5.226   8.297 -0.4539  0.2988  0.4263
  691MOL0     C93173   9.136   5.300   8.166  0.1654  0.0368 -0.0098
  691MOL0     O93174   9.220   5.255   8.060  0.3803  0.3676 -0.1572
  691MOL0     C93175   9.351   5.304   8.067  0.7819 -0.5441 -0.3574
  691MOL0     C93176   9.382   5.441   8.088 -0.2135  0.7906  0.6363
  691MOL0     C93177   9.514   5.482   8.085  0.3561 -0.0548  0.1175
  691MOL0     C93178   9.618   5.389   8.071  0.1942 -1.2531 -0.7002
  691MOL0     C93179   9.757   5.422   8.065  0.8119  0.0793 -1.6480
  691MOL0     O93180   9.854   5.318   8.072  0.5002 -0.3701 -0.3075
  691MOL0     C93181   9.980   5.359   8.109  0.4151  0.0769  0.0933
  691MOL0     C93182  10.053   5.416   7.997 -0.5589  0.0851 -0.5489
  691MOL0     C93183  10.188   5.450   8.006 -0.0336  0.2776 -0.1866
  691MOL0     C93184  10.258   5.424   8.122  0.3277 -0.9683 -0.1725
  691MOL0     O93185  10.385   5.472   8.117 -0.4018 -0.3430  0.0141
  691MOL0     C93186  10.427   5.541   8.233 -0.2089 -0.2105 -0.1327
  691MOL0     C93187  10.563   5.615   8.201  0.6084 -0.0638  1.0988
  691MOL0     C93188  10.682   5.513   8.191 -0.5072 -0.5709  0.1664
  691MOL0     C93189  10.810   5.598   8.168 -0.5680  0.8030 -0.5275
  691MOL0     C93190  10.927   5.499   8.143 -0.4426 -0.1970 -0.2250
  691MOL0     C93191  11.069   5.554   8.106  0.2865 -0.1059  0.1841
  691MOL0     C93192  11.057   5.619   7.970  0.2400  0.2545  0.5490
  691MOL0     C93193  11.202   5.671   7.927 -0.1609 -0.3627  0.3194
  691MOL0    Cl93194  11.174   5.767   7.778  0.3375 -0.1940 -0.3901
  691MOL0     C93195  10.185   5.369   8.233  0.4062  0.8546 -0.5140
  691MOL0     C93196  10.050   5.334   8.224 -0.0985 -0.1469 -0.5373
  691MOL0     O93197   9.781   5.548   8.055 -0.5313 -0.1168  0.0964
  691MOL0     C93198   9.588   5.252   8.045  0.5973  0.4310  0.4455
  691MOL0     C93199   9.453   5.214   8.037 -0.4031  0.5765 -0.6742
  691MOL0     N93200   8.897   5.283   8.663  0.5799  0.0858  0.5031
  691MOL0     N93201   8.806   5.361   8.714 -0.0945  0.3145  0.7409
  691MOL0     C93202   7.713   5.238   8.473 -0.0441 -0.0744 -0.7315
  691MOL0     C93203   7.574   5.244   8.454  0.1040  0.7355 -0.6923
  691MOL0     C93204   7.120   5.254   8.571  0.3953  0.3626  0.7209
  691MOL0     C93205   7.097   5.227   8.433  0.4517 -0.3922  0.3870
  691MOL0     C93206   6.981   5.247   8.368  0.6663  0.6260 -0.0877
  691MOL0     C93207   6.878   5.300   8.435  0.0479 -0.3599 -0.2622
  691MOL0     O93208   6.752   5.319   8.381 -0.1570  1.0398 -0.0600
  691MOL0     C93209   6.735   5.320   8.238 -0.0520 -0.0605  0.1048
  691MOL0     C93210   6.586   5.334   8.197  0.5804  1.0547 -0.5774
  691MOL0     C93211   6.578   5.419   8.075 -0.4375 -0.2207  0.0459
  691MOL0     C93212   6.441   5.410   7.997 -0.4066  0.0899 -0.3077
  691MOL0     C93213   6.462   5.487   7.869 -0.1096 -0.1399 -0.2909
  691MOL0     C93214   6.472   5.554   7.770 -0.6242  0.0311  0.8092
  691MOL0     C93215   6.891   5.326   8.572  0.2956  0.0077 -0.0939
  691MOL0     C93216   7.005   5.300   8.647  0.0777  0.9654 -0.3187
  691MOL0     C93217   7.004   5.344   8.790  0.3627  0.2418  0.0566
  691MOL0     H93218   7.472   5.046   8.710 -2.7819  0.5217 -1.2116
  691MOL0     H93219   7.721   5.012   8.715 -0.8465  0.7386  0.1974
  691MOL0     H93220   7.908   4.924   8.625 -1.0422  1.4403  2.0554
  691MOL0     H93221   7.899   4.958   8.451  1.3403  1.4814 -1.3777
  691MOL0     H93222   8.117   4.892   8.491 -1.3304  0.3414 -0.3886
  691MOL0     H93223   8.132   5.001   8.639  0.2164  0.6432  0.2774
  691MOL0     H93224   8.094   5.192   8.463 -0.8466 -0.2454 -0.5563
  691MOL0     H93225   8.118   5.060   8.344  0.7965  2.2523 -0.5839
  691MOL0     H93226   8.348   5.029   8.468  2.9767  0.5753 -0.7342
  691MOL0     H93227   8.317   5.173   8.355 -1.2504 -0.8299 -0.1371
  691MOL0     H93228   8.252   5.313   8.546  0.3432  1.1434  2.2160
  691MOL0     H93229   8.275   5.165   8.649  1.4360  0.2160  0.9360
  691MOL0     H93230   8.515   5.181   8.622  2.1685  3.0373  2.6688
  691MOL0     H93231   8.488   5.289   8.479 -0.7947 -1.5115  0.3150
  691MOL0     H93232   8.481   5.351   8.772 -1.4480  1.2926  0.5726
  691MOL0     H93233   8.374   5.443   8.665 -0.2359 -0.7534 -1.9105
  691MOL0     H93234   8.564   5.523   8.536  0.5618  2.4125  1.1807
  691MOL0     H93235   8.590   5.543   8.710 -0.7399  0.7792 -1.0020
  691MOL0     H93236   8.725   5.341   8.395  2.6658  2.5032 -0.7165
  691MOL0     H93237   8.965   5.095   8.442 -0.3142 -1.3514 -0.7183
  691MOL0     H93238   8.898   5.194   8.321 -0.6107  1.6848  0.4861
  691MOL0     H93239   9.049   5.384   8.366  3.2733  0.1717 -1.3022
  691MOL0     H93240   9.113   5.296   8.496 -0.7001  0.5072 -0.1794
  691MOL0     H93241   9.176   5.118   8.286 -0.9634  0.5533 -2.9929
  691MOL0     H93242   9.277   5.264   8.318 -1.5972  3.2780  1.1110
  691MOL0     H93243   9.129   5.410   8.165 -4.3742 -0.0395  0.1191
  691MOL0     H93244   9.037   5.261   8.138 -1.4237  3.2608  0.5424
  691MOL0     H93245   9.310   5.522   8.101  1.1230  1.6480  3.3385
  691MOL0     H93246   9.558   5.581   8.091  2.4831 -0.3900 -4.9496
  691MOL0     H93247   9.996   5.430   7.905 -1.9973  0.2557  0.3325
  691MOL0     H93248  10.245   5.485   7.920  1.3410 -2.0001 -0.2836
  691MOL0     H93249  10.349   5.606   8.272  2.0649  1.0101  2.8361
  691MOL0     H93250  10.448   5.462   8.306  0.8784 -0.2104 -0.4290
  691MOL0     H93251  10.544   5.663   8.105  1.6747  0.4639  1.1378
  691MOL0     H93252  10.591   5.698   8.266  0.8411  0.2637  0.5823
  691MOL0     H93253  10.695   5.468   8.289  0.0493  0.9570  0.8162
  691MOL0     H93254  10.668   5.435   8.116  0.0177  0.6070 -1.2135
  691MOL0     H93255  10.843   5.657   8.254 -0.7719 -0.2706  0.3114
  691MOL0     H93256  10.803   5.668   8.084  1.1060 -2.0264 -3.2379
  691MOL0     H93257  10.897   5.428   8.065 -0.5263  0.1229 -0.4821
  691MOL0     H93258  10.930   5.444   8.238 -3.5678 -1.4189 -0.7250
  691MOL0     H93259  11.086   5.631   8.182 -1.8449 -1.3917  2.1014
  691MOL0     H93260  11.144   5.475   8.101  0.7365  0.3607 -4.0891
  691MOL0     H93261  10.980   5.696   7.967 -1.3740 -1.3209 -0.0870
  691MOL0     H93262  11.014   5.547   7.900 -1.4552 -0.9126  2.6655
  691MOL0     H93263  11.248   5.732   8.005  0.0384  1.0302 -0.8521
  691MOL0     H93264  11.277   5.595   7.905  0.2315  0.8368 -3.2697
  691MOL0     H93265  10.231   5.349   8.329 -0.8489  1.7867  0.3106
  691MOL0     H93266   9.995   5.284   8.303 -1.1387 -0.7468 -1.6242
  691MOL0     H93267   9.657   5.173   8.018 -0.4464  0.2499 -1.9892
  691MOL0     H93268   9.427   5.111   8.016  1.2883  0.0078 -0.1793
  691MOL0     H93269   7.791   5.288   8.417  2.0664  1.3007  3.1151
  691MOL0     H93270   7.533   5.318   8.386  1.8525  2.9656  0.5509
  691MOL0     H93271   7.177   5.183   8.374  2.2714  0.7894  1.8629
  691MOL0     H93272   6.970   5.212   8.266 -1.7905 -1.6503  0.8496
  691MOL0     H93273   6.776   5.233   8.187 -2.9877 -2.8417  2.1235
  691MOL0     H93274   6.787   5.412   8.210 -0.0797  0.5631  1.9338
  691MOL0     H93275   6.526   5.378   8.277  1.6607  1.6282 -0.0623
  691MOL0     H93276   6.534   5.239   8.184  1.3410  0.4059  0.8929
  691MOL0     H93277   6.657   5.387   8.007 -2.7350  0.0853 -2.9511
  691MOL0     H93278   6.598   5.522   8.107  1.5829 -0.4130 -0.4824
  691MOL0     H93279   6.416   5.304   7.988  1.5922 -0.3645 -0.9073
  691MOL0     H93280   6.362   5.463   8.053  0.9342  0.6283  1.1478
  691MOL0     H93281   6.475   5.625   7.689 -0.1926 -0.4427  0.4021
  691MOL0     H93282   6.810   5.377   8.624  0.8382 -0.3883  1.1727
  691MOL0     H93283   7.089   5.311   8.852  2.0657  1.3141 -1.6027
  691MOL0     H93284   7.008   5.453   8.793  2.0004  0.1963  0.9276
  691MOL0     H93285   6.913   5.312   8.842  1.1079 -1.0345  0.6117
  692MOL0     O93286   4.446   7.685   8.018 -0.0727  0.8276  0.1584
  692MOL0     C93287   4.420   7.765   7.923 -0.2936  0.4327  0.4671
  692MOL0     O93288   4.452   7.734   7.792 -0.0865 -0.6105 -0.7243
  692MOL0     C93289   4.529   7.625   7.771 -0.8516  0.3015  0.4714
  692MOL0     C93290   4.488   7.536   7.675 -0.1593 -0.4354  0.3943
  692MOL0     C93291   4.574   7.425   7.648 -0.2367  0.8043  0.3942
  692MOL0     C93292   4.704   7.409   7.697 -0.1327 -0.2235  0.1588
  692MOL0     O93293   4.789   7.301   7.656  0.1840 -0.0725 -0.0405
  692MOL0     C93294   4.739   7.177   7.677  0.4551  0.3903  0.4866
  692MOL0     C93295   4.826   7.077   7.597 -0.0137 -0.7999 -0.7709
  692MOL0     C93296   4.964   7.074   7.674 -0.5027 -0.0266  1.0779
  692MOL0     C93297   5.024   6.941   7.628  0.1432 -0.5315  0.0188
  692MOL0     C93298   5.156   6.905   7.686 -0.0344 -0.5585  0.1332
  692MOL0     C93299   5.253   7.030   7.673  1.0036  0.3952  0.0983
  692MOL0     C93300   5.397   6.989   7.690  1.1970  0.6328 -0.8171
  692MOL0     C93301   5.431   6.895   7.808 -0.6668 -0.5341 -0.1748
  692MOL0     N93302   5.578   6.882   7.835 -0.1291 -0.3789 -0.3389
  692MOL0     C93303   5.637   6.932   7.957  0.7746  0.2217 -0.2662
  692MOL0     C93304   5.765   6.884   7.949  0.3575  0.4857  0.2334
  692MOL0     C93305   5.875   6.905   8.053 -0.1204 -0.0652 -0.0075
  692MOL0     C93306   5.966   7.028   8.011 -0.5259 -0.3484  0.2096
  692MOL0     C93307   6.100   7.015   8.085  0.2216  0.9053  0.3833
  692MOL0     C93308   6.203   7.121   8.032  0.0204  0.6200 -0.2575
  692MOL0     O93309   6.308   7.120   8.127 -0.1451  0.2976 -0.6371
  692MOL0     C93310   6.422   7.188   8.101  0.6208  0.4961 -1.3248
  692MOL0     C93311   6.516   7.124   8.015 -0.4949 -0.2071  0.8715
  692MOL0     C93312   6.645   7.179   8.005  0.2672 -0.3044 -0.7775
  692MOL0     C93313   6.684   7.294   8.079  0.2294  0.5180  0.0567
  692MOL0     C93314   6.821   7.348   8.067 -0.6057 -0.3927  0.9459
  692MOL0     O93315   6.920   7.262   8.035 -0.0467 -0.0459  0.2517
  692MOL0     C93316   7.041   7.323   8.010 -0.8658 -0.0858  1.4376
  692MOL0     C93317   7.089   7.333   7.877  1.0723  0.3507 -0.4540
  692MOL0     C93318   7.208   7.395   7.855 -0.2526 -0.1335 -0.5116
  692MOL0     C93319   7.300   7.431   7.956 -0.0897 -0.7343  0.2450
  692MOL0     O93320   7.432   7.472   7.942  0.8364  0.5237 -0.5283
  692MOL0     C93321   7.514   7.395   7.848  0.1429  0.2860  0.2465
  692MOL0     C93322   7.648   7.366   7.906 -0.2071 -0.7056 -0.0782
  692MOL0     C93323   7.740   7.497   7.922 -0.1559 -0.5488  0.3483
  692MOL0     C93324   7.888   7.476   7.952 -0.0021 -0.0591 -0.1609
  692MOL0     C93325   7.978   7.600   7.939  1.4872 -0.2291 -0.0518
  692MOL0     C93326   8.127   7.569   7.954 -0.6614 -0.1288 -0.3461
  692MOL0     C93327   8.178   7.534   8.093 -0.5874  0.4133  0.3555
  692MOL0     C93328   8.323   7.490   8.090 -1.4874  0.5553  0.4606
  692MOL0    Cl93329   8.346   7.358   7.969  0.3507 -0.2985 -0.2089
  692MOL0     C93330   7.257   7.418   8.090 -0.5039 -0.2975  0.1747
  692MOL0     C93331   7.125   7.376   8.112 -0.1750  0.0937  0.5643
  692MOL0     O93332   6.834   7.469   8.082  0.7331 -1.4546  0.7427
  692MOL0     C93333   6.592   7.351   8.166 -0.7620  0.1603 -0.0593
  692MOL0     C93334   6.467   7.292   8.185 -0.8686 -0.6577  0.4602
  692MOL0     N93335   5.778   6.798   7.832  0.8686  0.2486 -0.1536
  692MOL0     N93336   5.667   6.793   7.773 -0.0566 -0.7235 -0.1439
  692MOL0     C93337   4.747   7.506   7.786 -0.7609 -0.3272  0.7032
  692MOL0     C93338   4.656   7.601   7.836 -0.8598  0.4538  0.4041
  692MOL0     C93339   4.391   7.914   7.943 -0.2053 -0.3736  0.3547
  692MOL0     C93340   4.359   7.949   8.080 -0.5780  0.2195  0.2518
  692MOL0     C93341   4.342   8.081   8.121  0.4769  0.0436  0.6259
  692MOL0     C93342   4.342   8.186   8.024  0.2952  0.0312 -0.0007
  692MOL0     O93343   4.308   8.315   8.066  0.2459 -0.7239 -0.0168
  692MOL0     C93344   4.243   8.347   8.188  0.3380  0.7475  0.0556
  692MOL0     C93345   4.169   8.487   8.194  0.0912  0.6440 -0.7729
  692MOL0     C93346   4.257   8.601   8.130  0.9503  0.1222 -0.8063
  692MOL0     C93347   4.203   8.739   8.189 -0.3253 -0.1378  0.0547
  692MOL0     C93348   4.231   8.755   8.336  0.2853 -0.6098  0.1108
  692MOL0     C93349   4.270   8.786   8.451 -0.4792  0.0141 -0.0881
  692MOL0     C93350   4.373   8.153   7.892 -0.5900  0.5861  0.1254
  692MOL0     C93351   4.392   8.019   7.849 -0.4773  0.0016  0.2865
  692MOL0     C93352   4.389   7.998   7.705 -0.4095  0.2425  0.7230
  692MOL0     H93353   4.394   7.546   7.622  0.6885  0.8471 -0.9479
  692MOL0     H93354   4.537   7.349   7.579 -2.9350  0.3417  2.2171
  692MOL0     H93355   4.746   7.147   7.782  1.4981  1.8282  0.8570
  692MOL0     H93356   4.644   7.177   7.622  0.9161  0.5728 -0.3262
  692MOL0     H93357   4.846   7.107   7.493  1.2754  1.2744  0.0177
  692MOL0     H93358   4.780   6.978   7.600  2.9663 -2.2806  2.1493
  692MOL0     H93359   4.948   7.081   7.782 -1.1503 -3.7942  1.3550
  692MOL0     H93360   5.027   7.155   7.636  0.0640 -0.6922  0.5730
  692MOL0     H93361   4.964   6.854   7.656  0.9931 -1.6708 -1.5808
  692MOL0     H93362   5.033   6.932   7.520  0.3811 -1.9240  0.1310
  692MOL0     H93363   5.141   6.873   7.790  1.4935 -0.4024  0.4231
  692MOL0     H93364   5.192   6.819   7.628 -0.7744 -0.3037 -0.7302
  692MOL0     H93365   5.235   7.065   7.571  0.7121 -2.1090 -0.7828
  692MOL0     H93366   5.228   7.107   7.747 -3.4368  1.1673 -1.8949
  692MOL0     H93367   5.457   7.079   7.706 -0.8915  1.6695  2.3571
  692MOL0     H93368   5.434   6.948   7.596  2.1583 -1.5519  0.4588
  692MOL0     H93369   5.374   6.937   7.892  0.5681 -1.0910  0.9790
  692MOL0     H93370   5.387   6.796   7.793 -1.1790 -0.3957  0.3646
  692MOL0     H93371   5.581   6.997   8.023  0.9696 -0.0017  0.1152
  692MOL0     H93372   5.829   6.917   8.151  1.7863 -2.6572  1.3332
  692MOL0     H93373   5.943   6.820   8.063 -0.6110 -0.4940 -0.2504
  692MOL0     H93374   5.986   7.024   7.903 -0.6785 -0.2469  0.1766
  692MOL0     H93375   5.923   7.124   8.040  0.0793  0.2115 -0.6742
  692MOL0     H93376   6.138   6.914   8.065 -1.5920  0.1489  0.5835
  692MOL0     H93377   6.092   7.026   8.193 -0.4988  0.2463  0.4080
  692MOL0     H93378   6.152   7.218   8.034  0.2263  0.7221  0.0395
  692MOL0     H93379   6.234   7.092   7.931 -0.7964 -0.2488 -0.2764
  692MOL0     H93380   6.485   7.034   7.963  2.3387  0.0793 -1.6314
  692MOL0     H93381   6.710   7.128   7.935  0.3411 -1.4971  0.1224
  692MOL0     H93382   7.028   7.300   7.793 -1.0159  1.8738  0.3837
  692MOL0     H93383   7.234   7.424   7.754 -1.2487  0.2254 -0.6781
  692MOL0     H93384   7.459   7.313   7.801  1.0487 -1.1160  1.5380
  692MOL0     H93385   7.528   7.465   7.766 -0.6264 -1.2105 -1.2172
  692MOL0     H93386   7.640   7.326   8.007  0.5707  2.3853  1.3118
  692MOL0     H93387   7.691   7.298   7.831  2.6537  0.6882  0.1906
  692MOL0     H93388   7.727   7.574   7.846  1.1690 -0.1173  0.5388
  692MOL0     H93389   7.718   7.547   8.016  2.9876 -0.1914  1.0088
  692MOL0     H93390   7.915   7.397   7.881 -3.4300 -2.9360  1.4226
  692MOL0     H93391   7.899   7.438   8.053 -2.5280 -0.9148 -0.1546
  692MOL0     H93392   7.953   7.681   8.008 -1.5328 -0.5058 -0.7030
  692MOL0     H93393   7.955   7.638   7.839 -2.4423  0.5809  1.0057
  692MOL0     H93394   8.146   7.482   7.890 -1.5728  0.2151 -1.1157
  692MOL0     H93395   8.182   7.651   7.907 -1.6328 -1.3621 -3.9595
  692MOL0     H93396   8.131   7.441   8.127  1.3072 -1.0902 -0.9120
  692MOL0     H93397   8.177   7.621   8.160  4.1785  1.8781 -1.0881
  692MOL0     H93398   8.389   7.576   8.079 -2.0195  0.9017 -0.1065
  692MOL0     H93399   8.344   7.442   8.186  0.8313 -3.0481 -1.6318
  692MOL0     H93400   7.320   7.450   8.173 -0.5140  0.9101 -0.2600
  692MOL0     H93401   7.074   7.387   8.207 -3.7070  3.5131 -1.4523
  692MOL0     H93402   6.623   7.440   8.221  1.6794 -1.7446  1.8694
  692MOL0     H93403   6.407   7.346   8.258 -1.7415 -2.0267  0.8089
  692MOL0     H93404   4.851   7.498   7.818 -0.6452 -1.3589  0.1012
  692MOL0     H93405   4.695   7.670   7.910  0.0236 -1.6795  2.0572
  692MOL0     H93406   4.362   7.874   8.158 -1.4954  1.4437  1.5059
  692MOL0     H93407   4.334   8.099   8.228 -0.9716 -0.5286  0.6435
  692MOL0     H93408   4.321   8.344   8.265 -0.2527  1.5100  0.7024
  692MOL0     H93409   4.177   8.263   8.213  1.2807  0.6487  2.4264
  692MOL0     H93410   4.149   8.503   8.301 -0.1656 -0.4454 -0.6409
  692MOL0     H93411   4.075   8.477   8.139 -1.4153 -0.7832  1.8443
  692MOL0     H93412   4.253   8.602   8.020  0.1358 -1.6400 -0.8221
  692MOL0     H93413   4.362   8.600   8.159  0.5873  1.4065  0.7047
  692MOL0     H93414   4.249   8.821   8.134 -1.2892 -0.4420 -1.2481
  692MOL0     H93415   4.094   8.732   8.187 -0.2743 -1.1367 -2.4547
  692MOL0     H93416   4.298   8.801   8.553  0.4245  1.3771 -0.5024
  692MOL0     H93417   4.370   8.232   7.818  0.0091 -2.2572 -3.2160
  692MOL0     H93418   4.362   8.096   7.663 -1.5179 -0.1926  0.3789
  692MOL0     H93419   4.486   7.963   7.671  0.8548  1.9394  2.3365
  692MOL0     H93420   4.315   7.922   7.678 -1.1283  1.1192  0.1800
  693MOL0     O93421   0.723   0.939   0.480 -0.3449 -0.7572 -0.7106
  693MOL0     C93422   0.705   0.819   0.467 -0.8362 -0.5094 -0.2969
  693MOL0     O93423   0.757   0.720   0.557  0.3845 -0.0435 -1.0174
  693MOL0     C93424   0.814   0.763   0.671 -0.1992 -0.1547 -0.8150
  693MOL0     C93425   0.750   0.726   0.788 -0.3690  0.2237 -1.0781
  693MOL0     C93426   0.793   0.768   0.915 -0.7924  0.2292 -0.4736
  693MOL0     C93427   0.913   0.851   0.928 -0.0973  0.0743  0.1012
  693MOL0     O93428   0.941   0.902   1.049  0.7383 -0.3169  0.2426
  693MOL0     C93429   1.075   0.943   1.085  0.2704 -1.3088  0.0269
  693MOL0     C93430   1.175   0.832   1.139  0.1006 -0.0875  0.4373
  693MOL0     C93431   1.135   0.732   1.239 -0.6833 -0.1914  0.4919
  693MOL0     C93432   1.256   0.641   1.273 -0.4890 -0.0111  0.7154
  693MOL0     C93433   1.209   0.551   1.386  0.1187 -0.2844 -0.0843
  693MOL0     C93434   1.323   0.462   1.442 -0.0614  0.4229  0.0965
  693MOL0     C93435   1.282   0.361   1.557 -0.4659  0.5153  0.3299
  693MOL0     C93436   1.329   0.404   1.691  0.3549  0.5920 -0.0908
  693MOL0     N93437   1.302   0.293   1.791  0.4888 -0.5163  0.3418
  693MOL0     C93438   1.369   0.273   1.904  0.3508 -0.5510 -0.4213
  693MOL0     C93439   1.310   0.176   1.975 -0.2047 -0.4526 -0.5818
  693MOL0     C93440   1.344   0.148   2.119  0.2313 -0.9139  0.3408
  693MOL0     C93441   1.439   0.032   2.124 -0.8248  0.2869 -0.7457
  693MOL0     C93442   1.449  -0.043   2.251  0.2485 -0.0770 -1.7048
  693MOL0     C93443   1.589  -0.034   2.316 -0.1707  0.3032 -0.0402
  693MOL0     O93444   1.670  -0.118   2.239  0.0938  0.6866 -0.1268
  693MOL0     C93445   1.806  -0.121   2.258 -0.2877  0.3300  0.1101
  693MOL0     C93446   1.869  -0.208   2.167  0.8455  0.3031 -0.3461
  693MOL0     C93447   2.000  -0.245   2.191  0.0734  0.0207  0.4425
  693MOL0     C93448   2.074  -0.197   2.296 -0.7141 -0.3816 -0.4791
  693MOL0     C93449   2.213  -0.251   2.323 -1.2789  0.3740 -0.1106
  693MOL0     O93450   2.292  -0.175   2.410  0.4130 -0.4697 -0.3569
  693MOL0     C93451   2.394  -0.249   2.465 -0.8737  0.3669 -0.3115
  693MOL0     C93452   2.521  -0.239   2.419  0.9978  0.3875 -0.3538
  693MOL0     C93453   2.627  -0.315   2.458  0.2219 -0.2474  0.1351
  693MOL0     C93454   2.606  -0.416   2.554  0.4469  0.1300 -0.0309
  693MOL0     O93455   2.706  -0.501   2.585  0.3459 -0.1456  0.1961
  693MOL0     C93456   2.733  -0.552   2.709  0.2596 -0.1791 -0.2144
  693MOL0     C93457   2.879  -0.544   2.755 -0.3183  0.3022  0.2051
  693MOL0     C93458   2.922  -0.411   2.814 -0.2042 -0.1694 -0.5008
  693MOL0     C93459   3.032  -0.333   2.744 -0.2881 -0.3224  0.3354
  693MOL0     C93460   3.172  -0.397   2.767  0.2370 -0.5130 -0.0318
  693MOL0     C93461   3.297  -0.310   2.790  0.6087  0.2561 -0.8051
  693MOL0     C93462   3.433  -0.398   2.791 -1.1337  0.0137  0.4686
  693MOL0     C93463   3.528  -0.313   2.866  0.0652 -0.5718  1.0745
  693MOL0    Cl93464   3.481  -0.266   3.030  0.2213  0.0385  0.1545
  693MOL0     C93465   2.477  -0.421   2.620 -0.8515 -0.0493  0.6009
  693MOL0     C93466   2.374  -0.348   2.569  0.6437 -0.1106 -1.0513
  693MOL0     O93467   2.246  -0.365   2.285 -0.3651  0.5885 -0.5807
  693MOL0     C93468   2.008  -0.109   2.379  0.4282 -0.5377 -1.2211
  693MOL0     C93469   1.882  -0.071   2.368  0.1736  0.2039 -0.3546
  693MOL0     N93470   1.210   0.138   1.898  0.1689  0.7172  0.2757
  693MOL0     N93471   1.200   0.205   1.782  0.3236 -0.5664  0.2836
  693MOL0     C93472   0.980   0.890   0.808 -1.2985  0.5991 -0.1799
  693MOL0     C93473   0.928   0.848   0.682 -0.2881  0.1459  0.9418
  693MOL0     C93474   0.627   0.769   0.354  0.5840  0.0873 -0.2378
  693MOL0     C93475   0.587   0.628   0.346 -0.2827  0.1478 -0.9539
  693MOL0     C93476   0.508   0.580   0.241 -0.1664 -0.1675 -0.8025
  693MOL0     C93477   0.481   0.658   0.129  0.2693 -0.2246  0.6094
  693MOL0     O93478   0.412   0.597   0.029  0.2739  0.6890 -0.5307
  693MOL0     C93479   0.421   0.646  -0.104  0.1831  0.4202  0.2873
  693MOL0     C93480   0.294   0.711  -0.141  0.7223 -0.6157  0.6724
  693MOL0     C93481   0.310   0.757  -0.291 -0.0970  0.0843  0.3378
  693MOL0     C93482   0.180   0.805  -0.350 -0.2857  0.3066  0.5768
  693MOL0     C93483   0.217   0.833  -0.491  0.4817  0.6106  0.3079
  693MOL0     C93484   0.229   0.843  -0.610  0.0221 -0.7962 -0.2248
  693MOL0     C93485   0.518   0.793   0.134  0.1618 -0.1424  0.6044
  693MOL0     C93486   0.585   0.856   0.245 -1.2328 -0.4975  0.0121
  693MOL0     C93487   0.620   1.009   0.228  0.0729  0.1071 -0.7478
  693MOL0     H93488   0.663   0.662   0.778  0.5397 -2.3054  3.8584
  693MOL0     H93489   0.737   0.739   1.003 -2.8117 -0.6308 -1.9631
  693MOL0     H93490   1.122   1.002   1.006  0.0662  0.3589  1.0935
  693MOL0     H93491   1.070   1.020   1.162  0.0344 -1.8042  0.5161
  693MOL0     H93492   1.265   0.890   1.162  0.6360  0.4742 -2.6153
  693MOL0     H93493   1.215   0.775   1.054  3.1883  0.6105  1.2806
  693MOL0     H93494   1.051   0.674   1.199 -1.4750  1.4884 -0.3971
  693MOL0     H93495   1.106   0.781   1.333 -0.4496 -0.7833  0.8748
  693MOL0     H93496   1.299   0.590   1.187  0.5594  0.1722  1.1255
  693MOL0     H93497   1.334   0.710   1.305  1.7081 -0.2326 -3.4889
  693MOL0     H93498   1.173   0.602   1.475  1.8359  0.4101  0.2667
  693MOL0     H93499   1.136   0.480   1.345  1.3455 -2.4523  1.2954
  693MOL0     H93500   1.366   0.403   1.361 -2.7473 -0.2572 -0.9480
  693MOL0     H93501   1.406   0.529   1.463 -0.6939  1.6354 -1.1240
  693MOL0     H93502   1.332   0.265   1.539  0.0438  0.8540 -0.0527
  693MOL0     H93503   1.173   0.349   1.561 -0.4350  0.4171  0.8573
  693MOL0     H93504   1.437   0.418   1.689  0.4783  0.1486  1.9628
  693MOL0     H93505   1.276   0.492   1.726 -2.2929 -0.5442 -0.9456
  693MOL0     H93506   1.451   0.339   1.929 -1.0002  0.3765  1.8572
  693MOL0     H93507   1.390   0.237   2.164  0.3100  1.3443 -3.7361
  693MOL0     H93508   1.252   0.133   2.177 -1.6168  4.0836 -0.7986
  693MOL0     H93509   1.409  -0.038   2.045 -4.1477  0.2881  0.3781
  693MOL0     H93510   1.540   0.068   2.105 -0.6221  1.7514  2.5188
  693MOL0     H93511   1.426  -0.147   2.229  0.8993 -0.0708 -2.4613
  693MOL0     H93512   1.378  -0.015   2.329  2.8592 -3.3615  2.2258
  693MOL0     H93513   1.595  -0.074   2.418 -2.8907  0.5786  0.3144
  693MOL0     H93514   1.620   0.071   2.311 -2.2432  0.9224 -1.2886
  693MOL0     H93515   1.808  -0.244   2.085  2.4840 -1.1438 -0.9812
  693MOL0     H93516   2.046  -0.310   2.116  0.9179 -2.7199  3.1220
  693MOL0     H93517   2.542  -0.169   2.338  1.6857  0.2704 -0.2872
  693MOL0     H93518   2.726  -0.308   2.413  2.5919 -2.7305  4.3789
  693MOL0     H93519   2.685  -0.501   2.793 -1.9273  0.2188 -1.6126
  693MOL0     H93520   2.692  -0.653   2.698 -1.2435  0.2957  0.7212
  693MOL0     H93521   2.892  -0.613   2.839 -1.2865 -0.6295 -0.3812
  693MOL0     H93522   2.942  -0.582   2.674  0.9439  0.9257  0.8666
  693MOL0     H93523   2.841  -0.344   2.843  1.2855  0.5921  2.2585
  693MOL0     H93524   2.952  -0.422   2.919 -2.9704 -0.5568  0.3367
  693MOL0     H93525   3.046  -0.229   2.774  2.2698 -0.6637  0.5996
  693MOL0     H93526   3.015  -0.337   2.636  2.9956  0.1880 -0.2978
  693MOL0     H93527   3.193  -0.452   2.675  0.2940 -2.2704  0.9942
  693MOL0     H93528   3.159  -0.469   2.848 -3.1134 -2.0472 -1.7682
  693MOL0     H93529   3.295  -0.243   2.704  1.2991  0.9722 -0.2741
  693MOL0     H93530   3.282  -0.244   2.875 -0.2706  0.2290 -0.9357
  693MOL0     H93531   3.470  -0.424   2.691 -3.7508  0.8169 -0.7889
  693MOL0     H93532   3.409  -0.488   2.849  0.7774  0.2456  1.7021
  693MOL0     H93533   3.627  -0.359   2.873  0.5267  0.5603  2.6606
  693MOL0     H93534   3.537  -0.217   2.813  0.8337 -1.9544 -1.4834
  693MOL0     H93535   2.462  -0.469   2.716  3.4051 -0.8119  1.0747
  693MOL0     H93536   2.274  -0.363   2.608  0.7421  1.9647  0.1685
  693MOL0     H93537   2.054  -0.065   2.468  0.4952  0.0506 -1.5411
  693MOL0     H93538   1.824  -0.002   2.429 -1.4502  0.0877 -1.6817
  693MOL0     H93539   1.064   0.958   0.819  0.3857 -1.2797 -0.8426
  693MOL0     H93540   0.999   0.863   0.601  1.3113  0.4799  2.3302
  693MOL0     H93541   0.613   0.554   0.421  0.2567  0.0517 -1.2313
  693MOL0     H93542   0.480   0.475   0.249  2.6801 -0.9030  0.7270
  693MOL0     H93543   0.428   0.568  -0.180 -0.0217  1.2859 -0.6299
  693MOL0     H93544   0.501   0.720  -0.115 -0.1944  0.5850 -1.7267
  693MOL0     H93545   0.283   0.800  -0.079  2.7405  0.0351  0.1740
  693MOL0     H93546   0.212   0.641  -0.123 -0.3604  0.7221  1.0791
  693MOL0     H93547   0.354   0.685  -0.361  1.1154  1.6377 -0.5510
  693MOL0     H93548   0.383   0.839  -0.290 -1.3893  1.3123 -1.1093
  693MOL0     H93549   0.102   0.730  -0.336  0.8944 -0.8176  1.3851
  693MOL0     H93550   0.149   0.901  -0.308  0.2570 -0.0308  1.8116
  693MOL0     H93551   0.224   0.838  -0.717 -1.0432 -1.5060 -0.1515
  693MOL0     H93552   0.480   0.852   0.051 -2.1012 -2.5106 -0.1838
  693MOL0     H93553   0.593   1.040   0.126 -0.8646 -0.4777 -0.6910
  693MOL0     H93554   0.559   1.056   0.305  0.1474 -0.3311 -0.4211
  693MOL0     H93555   0.726   1.037   0.233  0.6308 -1.4137 -2.7100
  694MOL0     O93556   7.913   2.549   5.955 -0.0240  0.2406  0.1540
  694MOL0     C93557   7.922   2.423   5.946  0.7658  0.2394 -0.2597
  694MOL0     O93558   7.985   2.350   6.041  0.6646  0.5030 -0.5318
  694MOL0     C93559   8.048   2.413   6.145 -0.0533 -0.2674 -0.1917
  694MOL0     C93560   8.043   2.358   6.279  0.4131 -0.3946  0.4223
  694MOL0     C93561   8.124   2.401   6.382 -0.7629 -0.1779  0.1907
  694MOL0     C93562   8.197   2.516   6.370 -1.2088 -1.4172 -0.0494
  694MOL0     O93563   8.274   2.555   6.481 -0.1856  0.1867  0.3829
  694MOL0     C93564   8.371   2.663   6.466  0.4141  0.3985  0.2634
  694MOL0     C93565   8.488   2.594   6.393  0.0147 -0.1043 -0.9681
  694MOL0     C93566   8.625   2.656   6.413  0.1780 -1.0660  0.5417
  694MOL0     C93567   8.667   2.661   6.558 -0.6813 -0.4840  0.1708
  694MOL0     C93568   8.812   2.694   6.569 -0.0431  0.1138 -0.6347
  694MOL0     C93569   8.902   2.574   6.528 -0.0381  0.0692 -0.1648
  694MOL0     C93570   8.927   2.472   6.644 -0.0852 -0.4857 -0.1170
  694MOL0     C93571   8.950   2.329   6.588 -0.3777 -0.2342 -0.0094
  694MOL0     N93572   8.831   2.256   6.537  0.2994  0.0472  0.1178
  694MOL0     C93573   8.738   2.289   6.437 -0.6384 -0.4049  0.4647
  694MOL0     C93574   8.640   2.197   6.457  0.4218  0.5097  0.9866
  694MOL0     C93575   8.527   2.191   6.364 -0.4922  0.0132  0.5212
  694MOL0     C93576   8.395   2.119   6.409 -0.4497  0.2406 -0.1735
  694MOL0     C93577   8.309   2.103   6.284  0.4197  0.7328 -0.7524
  694MOL0     C93578   8.184   2.018   6.320  0.3954  0.0493 -0.2408
  694MOL0     O93579   8.099   2.085   6.416 -0.5170 -0.0345  0.3351
  694MOL0     C93580   7.974   2.035   6.443  1.0900 -0.7141 -0.6812
  694MOL0     C93581   7.925   1.909   6.396 -0.5302 -0.3389  0.2522
  694MOL0     C93582   7.810   1.850   6.440 -0.9566 -0.4337 -0.9094
  694MOL0     C93583   7.732   1.908   6.544 -0.9978 -0.1384 -0.2324
  694MOL0     C93584   7.617   1.834   6.609 -0.5566 -0.3947 -0.2980
  694MOL0     O93585   7.556   1.904   6.721  0.1730 -0.8067 -0.5714
  694MOL0     C93586   7.465   1.844   6.803 -0.5598 -0.0520 -0.9092
  694MOL0     C93587   7.402   1.718   6.793 -0.0324 -0.0358  0.5724
  694MOL0     C93588   7.299   1.671   6.875 -0.0550 -0.3018 -0.6977
  694MOL0     C93589   7.267   1.751   6.991 -0.6579  0.7355 -0.5785
  694MOL0     O93590   7.173   1.723   7.082  0.9678  0.1395 -0.0445
  694MOL0     C93591   7.041   1.704   7.020  0.1743 -0.0420 -0.2552
  694MOL0     C93592   6.957   1.617   7.124  0.0257  1.0640  0.6278
  694MOL0     C93593   6.810   1.651   7.119 -0.9823 -0.4909  0.3686
  694MOL0     C93594   6.782   1.754   7.231 -0.2108  0.1152 -0.4831
  694MOL0     C93595   6.635   1.793   7.222 -0.6845  0.1227 -0.1662
  694MOL0     C93596   6.535   1.687   7.250  0.6175  0.1045  0.0418
  694MOL0     C93597   6.391   1.737   7.245 -0.2609  0.1637 -0.3404
  694MOL0     C93598   6.281   1.641   7.266 -0.5612 -0.0104  0.0688
  694MOL0    Cl93599   6.134   1.710   7.217  0.3299 -0.4912 -0.4188
  694MOL0     C93600   7.320   1.878   6.996  0.8727  0.2473  0.2681
  694MOL0     C93601   7.421   1.919   6.907 -0.8011 -0.5406  0.2200
  694MOL0     O93602   7.597   1.718   6.582  0.6652 -0.0061 -0.5677
  694MOL0     C93603   7.779   2.037   6.591 -0.0178  1.1868 -0.2232
  694MOL0     C93604   7.892   2.098   6.538 -1.3593  0.7711 -0.3626
  694MOL0     N93605   8.667   2.111   6.556 -0.6715  0.3661 -0.9106
  694MOL0     N93606   8.782   2.149   6.604 -0.9768  0.5362 -0.5322
  694MOL0     C93607   8.209   2.572   6.237  0.5043  0.7538 -0.2361
  694MOL0     C93608   8.139   2.521   6.132  0.5224  0.4952  0.3575
  694MOL0     C93609   7.848   2.337   5.848  0.2056  0.4577  0.4769
  694MOL0     C93610   7.866   2.194   5.849  0.7496  0.5199 -1.0196
  694MOL0     C93611   7.809   2.114   5.751 -0.5201 -0.0092 -0.1376
  694MOL0     C93612   7.731   2.170   5.650 -0.3076  0.9945  0.3193
  694MOL0     O93613   7.684   2.091   5.551  0.6366 -0.3251 -0.9235
  694MOL0     C93614   7.611   1.965   5.588  0.2689 -0.7346  0.8843
  694MOL0     C93615   7.462   1.981   5.622 -0.0292  0.1746 -0.9154
  694MOL0     C93616   7.393   2.046   5.494  1.0076 -0.2160  0.5510
  694MOL0     C93617   7.349   1.932   5.393 -0.2250  0.4426  0.7380
  694MOL0     C93618   7.255   1.833   5.455  0.2422 -0.3628 -0.2424
  694MOL0     C93619   7.173   1.755   5.493  1.0332 -0.0406 -0.4545
  694MOL0     C93620   7.711   2.302   5.640  0.0150  0.0278  0.6364
  694MOL0     C93621   7.761   2.393   5.737  0.3205  0.9700  0.8359
  694MOL0     C93622   7.754   2.539   5.719 -0.8507 -0.4291  0.0637
  694MOL0     H93623   7.973   2.277   6.296 -0.9889  0.6429 -0.1644
  694MOL0     H93624   8.124   2.341   6.472 -0.4121 -0.0398  0.2830
  694MOL0     H93625   8.341   2.755   6.417  1.2004  0.3724 -0.2751
  694MOL0     H93626   8.397   2.690   6.569  0.1573 -0.9039  0.6955
  694MOL0     H93627   8.467   2.578   6.287 -2.2611 -1.0992 -0.4435
  694MOL0     H93628   8.491   2.494   6.436  0.3127  0.3416  0.0819
  694MOL0     H93629   8.613   2.761   6.386 -0.6508 -1.1673  0.5129
  694MOL0     H93630   8.696   2.618   6.339  1.4758  0.5821  0.8650
  694MOL0     H93631   8.621   2.732   6.627  1.5229 -0.3424  1.5899
  694MOL0     H93632   8.645   2.566   6.609 -0.0088  0.1008  1.6203
  694MOL0     H93633   8.839   2.786   6.516 -1.2548  2.1154  1.9396
  694MOL0     H93634   8.836   2.733   6.669 -1.1060 -1.1567  0.1556
  694MOL0     H93635   8.867   2.517   6.441  3.0778 -1.6506 -0.4239
  694MOL0     H93636   8.999   2.613   6.499  0.0346  0.4870  0.6241
  694MOL0     H93637   8.839   2.459   6.708 -0.1495 -0.5164 -0.2116
  694MOL0     H93638   9.010   2.497   6.711 -0.9348 -2.6097  1.8449
  694MOL0     H93639   9.010   2.328   6.496 -1.2606  2.7530 -0.7517
  694MOL0     H93640   8.992   2.267   6.667 -0.1272 -1.4405 -1.0547
  694MOL0     H93641   8.735   2.377   6.373 -2.0820 -2.3724 -2.4338
  694MOL0     H93642   8.496   2.290   6.330 -2.6304 -1.1867 -1.2786
  694MOL0     H93643   8.567   2.138   6.278  1.2771  0.7511  0.8474
  694MOL0     H93644   8.412   2.023   6.458 -0.2229  0.4180  0.0989
  694MOL0     H93645   8.349   2.190   6.478  0.7707  3.8636 -2.7974
  694MOL0     H93646   8.374   2.054   6.210 -0.4513 -1.3114 -0.2408
  694MOL0     H93647   8.269   2.197   6.246 -0.8435  1.0931  1.2924
  694MOL0     H93648   8.213   1.922   6.364 -0.5026  0.1156  0.5127
  694MOL0     H93649   8.130   2.005   6.226 -2.0845  1.4743  0.8945
  694MOL0     H93650   7.994   1.845   6.342 -1.8162  0.1314 -2.1029
  694MOL0     H93651   7.779   1.755   6.398  0.7797 -0.3719 -2.4426
  694MOL0     H93652   7.421   1.650   6.710 -1.5442 -0.4446  0.5336
  694MOL0     H93653   7.259   1.571   6.869 -1.5816  0.3357 -2.1957
  694MOL0     H93654   7.000   1.801   6.993 -2.1299 -1.4645 -2.2298
  694MOL0     H93655   7.046   1.652   6.924  0.6541  4.0062 -2.6361
  694MOL0     H93656   6.959   1.509   7.107 -1.4009  0.9979  0.7705
  694MOL0     H93657   6.998   1.644   7.222  3.8843 -0.4277 -0.3703
  694MOL0     H93658   6.795   1.700   7.023 -0.8634 -3.1408 -1.0873
  694MOL0     H93659   6.739   1.570   7.136 -2.9460  1.2005  0.7156
  694MOL0     H93660   6.838   1.846   7.212  0.1374  0.6499  2.6437
  694MOL0     H93661   6.801   1.721   7.333 -3.0602 -0.1035  0.0654
  694MOL0     H93662   6.619   1.830   7.121  1.0231  1.9652  0.1710
  694MOL0     H93663   6.614   1.876   7.290  0.0085  0.8951 -0.8801
  694MOL0     H93664   6.545   1.613   7.170  1.4929  1.8169 -1.5098
  694MOL0     H93665   6.539   1.628   7.342  0.3629  0.8052  0.5151
  694MOL0     H93666   6.371   1.773   7.143  0.0115 -1.9836 -1.2109
  694MOL0     H93667   6.380   1.822   7.313 -3.2134 -0.2580 -0.1572
  694MOL0     H93668   6.285   1.548   7.209 -2.3539 -0.9617  1.3704
  694MOL0     H93669   6.274   1.623   7.374  1.5840  3.6964  1.0127
  694MOL0     H93670   7.290   1.948   7.074  1.2497 -0.1145  0.7459
  694MOL0     H93671   7.460   2.019   6.927  0.2792 -1.1565  1.2984
  694MOL0     H93672   7.724   2.084   6.672  0.1356 -1.2906  1.4089
  694MOL0     H93673   7.925   2.196   6.571 -0.6665 -0.0077  1.3925
  694MOL0     H93674   8.255   2.670   6.225  1.1383  0.2836 -2.0553
  694MOL0     H93675   8.153   2.567   6.035  1.8859  0.0041  0.3080
  694MOL0     H93676   7.927   2.137   5.918  0.9305  1.6516 -0.2170
  694MOL0     H93677   7.831   2.008   5.747  1.8371  0.3606  0.7313
  694MOL0     H93678   7.669   1.920   5.670  0.7312 -1.7578  0.0153
  694MOL0     H93679   7.614   1.893   5.506  1.9385 -0.6673  0.8457
  694MOL0     H93680   7.454   2.044   5.711 -0.7638 -0.1312 -0.7616
  694MOL0     H93681   7.426   1.881   5.648  2.5595 -0.8646 -0.9930
  694MOL0     H93682   7.457   2.119   5.445 -0.1558  1.2635  1.1400
  694MOL0     H93683   7.299   2.093   5.525  0.2234 -1.2925 -0.1298
  694MOL0     H93684   7.307   1.978   5.303  4.6348  0.5356 -1.8304
  694MOL0     H93685   7.443   1.892   5.356  0.6712  0.8285  2.4765
  694MOL0     H93686   7.096   1.686   5.519  0.4130  0.8549  0.1729
  694MOL0     H93687   7.655   2.337   5.554  1.3433 -1.9719 -1.1452
  694MOL0     H93688   7.854   2.577   5.695 -0.0851 -1.4773  1.4351
  694MOL0     H93689   7.678   2.562   5.644  3.0440  1.2170 -3.8283
  694MOL0     H93690   7.722   2.576   5.816  0.3306  1.0320 -0.0667
  695MOL0     O93691   9.393   0.054   0.819 -0.1685 -0.7382 -1.1537
  695MOL0     C93692   9.327   0.121   0.734  0.2823  1.1259 -0.7751
  695MOL0     O93693   9.378   0.181   0.622  0.1167  0.7377  0.0058
  695MOL0     C93694   9.478   0.102   0.577  0.1394  0.5456  0.4413
  695MOL0     C93695   9.612   0.136   0.598 -0.9725 -1.0405 -0.5832
  695MOL0     C93696   9.722   0.059   0.571  0.2859 -0.4254  0.4078
  695MOL0     C93697   9.710  -0.064   0.507  0.0897  0.3406  0.3160
  695MOL0     O93698   9.827  -0.137   0.482 -0.0749  0.0787 -0.0305
  695MOL0     C93699   9.824  -0.276   0.437 -0.0970 -0.6583 -0.9040
  695MOL0     C93700   9.967  -0.335   0.403 -0.0015 -0.1850 -0.1828
  695MOL0     C93701  10.066  -0.310   0.523  0.1841  0.5688  0.5061
  695MOL0     C93702  10.204  -0.271   0.482 -0.1599  0.2661  0.5139
  695MOL0     C93703  10.267  -0.384   0.406 -0.4634  0.6838  0.9620
  695MOL0     C93704  10.418  -0.365   0.394 -1.0871  0.4350  0.4817
  695MOL0     C93705  10.494  -0.465   0.316  0.0699  0.4253 -0.5594
  695MOL0     C93706  10.645  -0.429   0.296  0.5273 -0.1316  0.4031
  695MOL0     N93707  10.651  -0.284   0.250 -0.9940  0.1305 -0.5599
  695MOL0     C93708  10.607  -0.238   0.132 -0.0832  0.0802  0.0458
  695MOL0     C93709  10.611  -0.100   0.144  0.4878 -1.0602 -0.8893
  695MOL0     C93710  10.572   0.011   0.048  0.3531  0.3405 -0.0594
  695MOL0     C93711  10.445   0.079   0.118 -0.2987  0.7454  0.6679
  695MOL0     C93712  10.314  -0.001   0.091 -0.2244  0.3050  0.4597
  695MOL0     C93713  10.214   0.048   0.192 -0.6475 -0.2624 -0.4955
  695MOL0     O93714  10.092   0.040   0.129  0.3879 -0.2961  0.0334
  695MOL0     C93715  10.004   0.135   0.168  0.4369  0.6556  0.2194
  695MOL0     C93716   9.985   0.174   0.297 -0.8208  0.2433 -0.5034
  695MOL0     C93717   9.887   0.267   0.331  0.2462  0.0140 -0.6914
  695MOL0     C93718   9.806   0.321   0.241  1.0909  0.2018  0.0169
  695MOL0     C93719   9.704   0.414   0.279  0.5366  0.7382 -0.2077
  695MOL0     O93720   9.692   0.444   0.413 -0.0085  0.0461  0.3938
  695MOL0     C93721   9.615   0.562   0.441 -0.1131  1.2992 -0.5215
  695MOL0     C93722   9.672   0.690   0.433  0.1816  0.9253  0.3115
  695MOL0     C93723   9.598   0.803   0.459 -0.3678  0.2866  0.2407
  695MOL0     C93724   9.467   0.792   0.504  0.3044 -0.0930 -0.0569
  695MOL0     O93725   9.409   0.914   0.540 -0.5995 -0.4252  0.2267
  695MOL0     C93726   9.272   0.908   0.586  0.6613 -0.1346 -0.4026
  695MOL0     C93727   9.187   0.912   0.463  1.0005 -0.4551 -0.3110
  695MOL0     C93728   9.032   0.935   0.493 -0.7866  0.4504 -0.4509
  695MOL0     C93729   8.951   0.946   0.372 -0.2374  0.8464  0.3251
  695MOL0     C93730   8.806   0.902   0.400  0.0809  0.3510 -0.2653
  695MOL0     C93731   8.755   1.000   0.505 -0.1709  0.4610 -0.2654
  695MOL0     C93732   8.602   0.960   0.523  0.0465 -0.7642 -0.5336
  695MOL0     C93733   8.535   0.985   0.389  0.2191 -0.0343  0.2407
  695MOL0    Cl93734   8.368   1.023   0.425 -0.0285  0.4097 -0.2184
  695MOL0     C93735   9.411   0.660   0.520  0.5950 -0.0996  0.4381
  695MOL0     C93736   9.483   0.547   0.492 -0.4305 -0.1725 -0.4428
  695MOL0     O93737   9.637   0.456   0.185  0.3440 -0.7270 -1.1124
  695MOL0     C93738   9.831   0.288   0.102  0.1768  0.7069  0.1869
  695MOL0     C93739   9.917   0.190   0.070  0.4317  1.0398 -0.0304
  695MOL0     N93740  10.683  -0.075   0.263  0.1363 -0.2734 -0.6693
  695MOL0     N93741  10.698  -0.180   0.333  0.2954  0.1563 -0.3135
  695MOL0     C93742   9.576  -0.108   0.481 -0.4532  0.6260  0.7732
  695MOL0     C93743   9.465  -0.028   0.527 -0.0462 -0.0336 -0.9462
  695MOL0     C93744   9.186   0.137   0.753  0.0352 -0.1670 -0.0668
  695MOL0     C93745   9.145   0.123   0.885 -0.2833  0.2472  0.3859
  695MOL0     C93746   9.012   0.117   0.920 -1.0956 -0.2436 -0.2633
  695MOL0     C93747   8.914   0.129   0.823  0.0281 -0.5857  0.2805
  695MOL0     O93748   8.781   0.151   0.863 -0.2758  0.3346  0.4883
  695MOL0     C93749   8.682   0.067   0.811 -0.1126 -0.2060 -0.6219
  695MOL0     C93750   8.652  -0.061   0.897 -0.7743 -0.7652  0.3623
  695MOL0     C93751   8.510  -0.123   0.879  0.2879 -0.3977 -0.6706
  695MOL0     C93752   8.486  -0.195   0.742  0.2767  0.5128  0.7249
  695MOL0     C93753   8.434  -0.100   0.640 -0.7004 -0.7552  0.3521
  695MOL0     C93754   8.395  -0.031   0.548  0.4288 -0.5575 -0.1217
  695MOL0     C93755   8.955   0.137   0.691  0.5030  0.2656  0.1073
  695MOL0     C93756   9.091   0.139   0.652  0.6170  0.4045 -0.2289
  695MOL0     C93757   9.125   0.159   0.504 -0.7667  0.4510  0.1072
  695MOL0     H93758   9.618   0.233   0.648 -3.6730  1.1213 -3.9529
  695MOL0     H93759   9.819   0.103   0.590  1.0169 -1.5848 -0.5416
  695MOL0     H93760   9.785  -0.328   0.525 -0.1949  2.2123  0.8810
  695MOL0     H93761   9.755  -0.294   0.354 -2.0974  0.2865  0.4531
  695MOL0     H93762   9.997  -0.296   0.306  0.8689 -2.2491 -0.8016
  695MOL0     H93763   9.962  -0.444   0.393 -2.3296 -0.1517  0.0612
  695MOL0     H93764  10.077  -0.407   0.573 -0.5657 -0.2435 -0.8761
  695MOL0     H93765  10.018  -0.248   0.600 -0.8119 -1.0463  1.2479
  695MOL0     H93766  10.201  -0.174   0.432  2.6386  0.1728 -0.0269
  695MOL0     H93767  10.263  -0.259   0.573  0.4426 -4.9012  1.0748
  695MOL0     H93768  10.257  -0.483   0.451  1.8824 -0.8103 -1.4506
  695MOL0     H93769  10.224  -0.375   0.306 -0.7791  0.6381  1.0947
  695MOL0     H93770  10.433  -0.268   0.345  0.1106 -0.5514 -1.2183
  695MOL0     H93771  10.456  -0.376   0.496 -1.1507 -0.1695  0.4433
  695MOL0     H93772  10.454  -0.473   0.214  0.5530 -0.3141 -0.7032
  695MOL0     H93773  10.488  -0.558   0.374  2.5797  0.2681 -0.4459
  695MOL0     H93774  10.708  -0.449   0.383  1.2615 -2.0280 -0.4935
  695MOL0     H93775  10.685  -0.486   0.211  0.0958  1.1010 -0.6757
  695MOL0     H93776  10.572  -0.295   0.046 -0.0711  0.3830 -0.1630
  695MOL0     H93777  10.659   0.077   0.043  2.3533 -2.2135 -1.4449
  695MOL0     H93778  10.548  -0.024  -0.053 -3.3764  0.9114  0.4847
  695MOL0     H93779  10.449   0.074   0.227 -0.9592 -2.0474  0.6293
  695MOL0     H93780  10.442   0.183   0.082 -1.5007  1.8871  3.7034
  695MOL0     H93781  10.325  -0.107   0.113  1.9943  0.0352 -1.5919
  695MOL0     H93782  10.264   0.009  -0.005 -0.4119  1.2555  0.6431
  695MOL0     H93783  10.236   0.152   0.218  0.9360 -1.0521  1.5979
  695MOL0     H93784  10.220  -0.008   0.286  0.3223  1.0387  0.2494
  695MOL0     H93785  10.031   0.118   0.378 -3.7368  0.8629  1.7247
  695MOL0     H93786   9.890   0.304   0.433 -0.5561 -1.6467 -0.0263
  695MOL0     H93787   9.770   0.698   0.387  1.1158 -0.5666  1.9061
  695MOL0     H93788   9.657   0.893   0.445  0.5620 -0.2086  0.9112
  695MOL0     H93789   9.243   0.828   0.654  2.7246 -2.0618 -1.6687
  695MOL0     H93790   9.249   1.008   0.625  2.7406  0.5716 -0.8533
  695MOL0     H93791   9.213   0.984   0.385  0.7694 -0.0039  0.0249
  695MOL0     H93792   9.198   0.819   0.405  1.5744  1.9441 -4.4398
  695MOL0     H93793   9.006   0.850   0.557  1.0649  1.4442  1.7524
  695MOL0     H93794   9.018   1.028   0.549  0.8307  0.1593  0.4892
  695MOL0     H93795   9.001   0.887   0.295  0.3075  0.7856  0.7138
  695MOL0     H93796   8.954   1.053   0.349  0.5106  0.9843  1.0252
  695MOL0     H93797   8.799   0.800   0.440  0.2912  0.7063  0.7118
  695MOL0     H93798   8.746   0.890   0.309 -1.5455  1.1798  0.6503
  695MOL0     H93799   8.811   0.992   0.599  0.8707 -0.3892 -0.9440
  695MOL0     H93800   8.771   1.104   0.474  2.0333  0.5892  1.0589
  695MOL0     H93801   8.562   1.021   0.605 -0.3273 -1.7391  0.0223
  695MOL0     H93802   8.583   0.858   0.558  1.1840 -0.8345 -0.1020
  695MOL0     H93803   8.582   1.062   0.327 -0.7770 -0.2950 -0.8679
  695MOL0     H93804   8.527   0.907   0.313 -1.0145  3.1437 -3.2121
  695MOL0     H93805   9.311   0.654   0.563  0.4088 -2.8831 -0.1989
  695MOL0     H93806   9.446   0.447   0.512 -0.9835  0.3893  1.5603
  695MOL0     H93807   9.764   0.336   0.031 -0.3264  1.7399  1.3076
  695MOL0     H93808   9.918   0.168  -0.036  1.7935  2.9700 -0.4717
  695MOL0     H93809   9.555  -0.210   0.451  0.0818  1.3153 -2.2690
  695MOL0     H93810   9.364  -0.064   0.507  0.7146 -2.2036 -1.1746
  695MOL0     H93811   9.213   0.118   0.969 -0.8391 -1.6508  0.7703
  695MOL0     H93812   8.978   0.107   1.023 -1.9937  1.3549 -0.3761
  695MOL0     H93813   8.704   0.044   0.706  1.1020  1.4323 -0.7670
  695MOL0     H93814   8.590   0.124   0.801  0.8143  1.2270 -1.3089
  695MOL0     H93815   8.684  -0.046   1.001  2.8147  0.8482 -0.8118
  695MOL0     H93816   8.731  -0.129   0.866  1.5756  2.3645 -1.1160
  695MOL0     H93817   8.438  -0.047   0.910 -0.0499 -2.0539  3.0874
  695MOL0     H93818   8.491  -0.205   0.948 -0.3993  0.0416 -0.3271
  695MOL0     H93819   8.573  -0.248   0.703 -1.5629  0.5464 -4.2438
  695MOL0     H93820   8.415  -0.277   0.757  0.1177 -0.1292 -2.6784
  695MOL0     H93821   8.354   0.035   0.474  0.2863 -2.3012 -1.6855
  695MOL0     H93822   8.890   0.146   0.604 -0.2056  0.1125  0.6095
  695MOL0     H93823   9.161   0.261   0.491  0.8895 -0.2720 -1.4902
  695MOL0     H93824   9.201   0.088   0.467 -2.3300 -2.7370  2.5291
  695MOL0     H93825   9.037   0.139   0.442 -0.7872  0.2430  0.1994
  696MOL0     O93826  10.142  10.610   8.567 -0.0817 -0.6140 -0.0188
  696MOL0     C93827  10.223  10.618   8.656 -0.0970  0.9295 -0.1907
  696MOL0     O93828  10.210  10.567   8.780 -0.2153  0.3726  0.2864
  696MOL0     C93829  10.092  10.511   8.816  0.3917  1.2443 -0.0325
  696MOL0     C93830  10.086  10.380   8.869  0.3503  0.6437  1.0475
  696MOL0     C93831   9.968  10.324   8.912 -0.7166 -0.0400 -0.8335
  696MOL0     C93832   9.850  10.390   8.894  0.3383 -0.6225  0.3176
  696MOL0     O93833   9.746  10.316   8.931 -0.1691  0.4348 -0.1564
  696MOL0     C93834   9.610  10.350   8.885 -0.0118 -0.4231  0.3613
  696MOL0     C93835   9.575  10.316   8.740 -0.1130 -0.4927  0.1661
  696MOL0     C93836   9.420  10.306   8.722  0.8038  0.5117  0.4960
  696MOL0     C93837   9.350  10.434   8.725  0.2985  0.0586 -0.7526
  696MOL0     C93838   9.207  10.409   8.679 -0.7516  1.3473  0.1599
  696MOL0     C93839   9.114  10.523   8.711 -0.0366  0.1358 -0.0669
  696MOL0     C93840   8.968  10.493   8.660 -1.1035 -0.9168 -0.5802
  696MOL0     C93841   8.883  10.609   8.696  0.5682  0.3362 -0.3464
  696MOL0     N93842   8.757  10.596   8.626 -0.4091 -0.1769 -0.2644
  696MOL0     C93843   8.693  10.699   8.560  0.2684 -0.5704 -0.3089
  696MOL0     C93844   8.566  10.652   8.537 -0.5203 -0.5363  0.0462
  696MOL0     C93845   8.462  10.701   8.432  0.2594 -0.0171  0.3686
  696MOL0     C93846   8.380  10.807   8.489  0.2466  0.3814  0.2594
  696MOL0     C93847   8.295  10.873   8.377 -0.1451 -1.1714 -0.5100
  696MOL0     C93848   8.365  10.913   8.252  0.5027  0.3655  0.0525
  696MOL0     O93849   8.302  11.033   8.199 -0.6517 -0.0524 -0.1169
  696MOL0     C93850   8.363  11.106   8.101  0.1342 -1.0830 -0.5944
  696MOL0     C93851   8.483  11.071   8.034 -0.2428  0.5208 -0.1760
  696MOL0     C93852   8.529  11.147   7.934  0.3692  0.6861 -0.7342
  696MOL0     C93853   8.461  11.255   7.881  0.1633 -1.2525 -0.1959
  696MOL0     C93854   8.525  11.331   7.772 -0.4050 -0.7482 -0.1737
  696MOL0     O93855   8.656  11.295   7.729 -0.3556 -0.2604 -0.3735
  696MOL0     C93856   8.718  11.342   7.615  0.8987  0.1607 -0.4001
  696MOL0     C93857   8.817  11.255   7.572 -0.3082 -0.4604  1.2009
  696MOL0     C93858   8.893  11.274   7.454 -0.0636  1.1045 -0.0591
  696MOL0     C93859   8.882  11.397   7.383  0.7128  0.0912 -0.0190
  696MOL0     O93860   8.945  11.437   7.271  0.6697 -0.3347  0.4527
  696MOL0     C93861   9.073  11.396   7.243 -0.6455  0.4218  1.1715
  696MOL0     C93862   9.099  11.457   7.103 -0.2741  0.2484 -0.1435
  696MOL0     C93863   9.230  11.417   7.037 -0.3494 -0.3358  0.1068
  696MOL0     C93864   9.351  11.492   7.079 -0.5382 -0.3501  0.6338
  696MOL0     C93865   9.355  11.645   7.033  0.1025 -0.8399 -0.3592
  696MOL0     C93866   9.491  11.705   7.065 -0.1107 -0.3215  0.1718
  696MOL0     C93867   9.488  11.858   7.041  0.2536  0.6213 -0.2195
  696MOL0     C93868   9.624  11.913   7.086  0.2116  0.3089  0.3400
  696MOL0    Cl93869   9.781  11.859   7.013  0.0603  0.1853 -0.3975
  696MOL0     C93870   8.789  11.491   7.430 -0.1530  0.1222 -0.3193
  696MOL0     C93871   8.700  11.458   7.541 -0.0736 -1.2259  0.3086
  696MOL0     O93872   8.458  11.424   7.730  0.2944  0.0597  1.3402
  696MOL0     C93873   8.342  11.293   7.943  0.1638 -0.2354  1.5248
  696MOL0     C93874   8.297  11.223   8.057 -0.2610 -0.1852 -1.0151
  696MOL0     N93875   8.550  10.533   8.597 -0.2155 -0.3783 -0.3869
  696MOL0     N93876   8.661  10.504   8.664  0.5491  0.2857  0.3493
  696MOL0     C93877   9.846  10.523   8.848  0.3191 -0.5276 -0.3821
  696MOL0     C93878   9.969  10.582   8.810 -0.9164  0.4042  0.7345
  696MOL0     C93879  10.358  10.681   8.632  0.3067  1.3447  0.4884
  696MOL0     C93880  10.469  10.633   8.705 -0.3063  0.1202 -1.0693
  696MOL0     C93881  10.591  10.702   8.712 -0.4641 -0.0544  0.0224
  696MOL0     C93882  10.610  10.814   8.619  0.1936 -0.7688 -0.6606
  696MOL0     O93883  10.733  10.876   8.628 -0.6271 -0.0543  0.1674
  696MOL0     C93884  10.760  10.988   8.546  0.2173  0.2162  0.3323
  696MOL0     C93885  10.894  11.046   8.600 -0.5249  0.2502 -0.3401
  696MOL0     C93886  11.014  10.949   8.593  0.5998  0.0185 -0.1024
  696MOL0     C93887  11.154  11.018   8.610  0.6764  0.1139 -0.4385
  696MOL0     C93888  11.265  10.923   8.641 -0.0914  0.3276 -0.3788
  696MOL0     C93889  11.361  10.859   8.656 -0.1156 -0.9982  0.0745
  696MOL0     C93890  10.501  10.855   8.545 -0.9712 -0.0560 -0.1966
  696MOL0     C93891  10.376  10.795   8.552 -0.0146  0.1770 -1.8694
  696MOL0     C93892  10.276  10.858   8.465 -0.7802  0.3058 -0.0769
  696MOL0     H93893  10.180  10.327   8.883 -0.4915 -1.6389 -1.1030
  696MOL0     H93894   9.958  10.224   8.953  0.0054 -0.6758 -2.1231
  696MOL0     H93895   9.536  10.302   8.949 -0.0809  1.3744  1.6994
  696MOL0     H93896   9.592  10.457   8.902  0.5132 -0.1440 -0.6857
  696MOL0     H93897   9.621  10.222   8.706  0.6209  0.2458 -0.9823
  696MOL0     H93898   9.619  10.385   8.667 -1.2457 -1.0669 -1.1259
  696MOL0     H93899   9.364  10.238   8.786 -1.1812 -1.2327 -2.7774
  696MOL0     H93900   9.407  10.263   8.622  2.1364 -2.1538  1.3887
  696MOL0     H93901   9.342  10.464   8.829  0.7392 -0.6378 -0.5111
  696MOL0     H93902   9.402  10.519   8.679  1.8709 -1.1822 -1.3568
  696MOL0     H93903   9.213  10.387   8.572 -1.6225 -0.4558  0.4523
  696MOL0     H93904   9.171  10.315   8.722 -1.2769  1.4834  0.0285
  696MOL0     H93905   9.107  10.526   8.820 -1.1925  0.9791 -0.1471
  696MOL0     H93906   9.150  10.616   8.668  0.6913  0.2446  0.7528
  696MOL0     H93907   8.937  10.391   8.687 -0.3737 -1.5060 -1.8922
  696MOL0     H93908   8.972  10.494   8.551 -0.9928  0.9097 -0.5892
  696MOL0     H93909   8.865  10.610   8.804 -2.1904 -1.3226 -0.6862
  696MOL0     H93910   8.936  10.703   8.678  1.8385 -0.5530 -1.3642
  696MOL0     H93911   8.741  10.794   8.536  2.0617 -0.9017  1.7164
  696MOL0     H93912   8.512  10.732   8.340 -1.9251  1.2883 -0.4574
  696MOL0     H93913   8.393  10.620   8.404  0.2387  0.8731 -2.5210
  696MOL0     H93914   8.313  10.771   8.567  1.4355 -0.6977  0.8181
  696MOL0     H93915   8.447  10.870   8.548 -0.2918 -1.9084  3.5678
  696MOL0     H93916   8.264  10.968   8.422  2.5054 -0.2793 -0.4413
  696MOL0     H93917   8.203  10.818   8.354 -0.1936 -0.4122 -2.2899
  696MOL0     H93918   8.372  10.835   8.176  2.3191  0.5628 -0.0158
  696MOL0     H93919   8.466  10.946   8.278  0.6970 -0.4758  0.4125
  696MOL0     H93920   8.542  10.987   8.071  2.4443  0.9249 -3.1224
  696MOL0     H93921   8.620  11.116   7.884  1.4715  0.5373  1.2924
  696MOL0     H93922   8.833  11.171   7.639  1.7894 -0.2714  1.0092
  696MOL0     H93923   8.953  11.188   7.426  0.8859  0.8462  2.4955
  696MOL0     H93924   9.151  11.439   7.307  1.3999 -1.6629  0.2308
  696MOL0     H93925   9.089  11.288   7.241  1.4711  0.7088  0.0377
  696MOL0     H93926   9.019  11.428   7.034 -0.8927  3.0735 -0.7413
  696MOL0     H93927   9.093  11.566   7.105  0.9549  0.3678 -1.8126
  696MOL0     H93928   9.253  11.313   7.065  2.9809  0.0808 -0.7419
  696MOL0     H93929   9.226  11.432   6.929  0.3628  2.3057  0.3986
  696MOL0     H93930   9.442  11.446   7.040 -0.3065  1.0548 -0.5640
  696MOL0     H93931   9.364  11.507   7.187  2.7342  1.7428  0.0904
  696MOL0     H93932   9.271  11.705   7.069 -0.1460 -0.7403 -1.1094
  696MOL0     H93933   9.343  11.635   6.925 -1.6110  1.4273 -0.4530
  696MOL0     H93934   9.508  11.689   7.172 -2.7578 -0.4508  0.6376
  696MOL0     H93935   9.573  11.664   7.005 -0.4822  0.6589 -1.0759
  696MOL0     H93936   9.404  11.903   7.094 -0.1639  0.1116 -0.4336
  696MOL0     H93937   9.476  11.883   6.935  2.8420 -0.6453 -0.8865
  696MOL0     H93938   9.625  12.020   7.062  0.9353  0.0263 -0.9749
  696MOL0     H93939   9.615  11.881   7.190 -1.5279  0.2491  0.2032
  696MOL0     H93940   8.771  11.586   7.381  0.7861  0.5899  0.2237
  696MOL0     H93941   8.620  11.526   7.570  2.1640  2.0953 -0.7096
  696MOL0     H93942   8.304  11.389   7.909  0.2999 -0.1618  1.5828
  696MOL0     H93943   8.211  11.268   8.105  0.2062  1.1293 -1.3630
  696MOL0     H93944   9.760  10.587   8.832  0.8100  0.4800  0.8590
  696MOL0     H93945   9.969  10.683   8.770 -1.6267 -0.8144 -2.6357
  696MOL0     H93946  10.463  10.542   8.764 -1.2201 -0.3641 -1.8681
  696MOL0     H93947  10.665  10.659   8.778 -0.4133 -0.2426 -0.1562
  696MOL0     H93948  10.681  11.063   8.546 -0.3939 -0.3760  2.4448
  696MOL0     H93949  10.780  10.956   8.443  0.7344  4.2401 -0.9959
  696MOL0     H93950  10.878  11.095   8.696 -0.1477  2.1525 -1.2101
  696MOL0     H93951  10.920  11.126   8.531  1.5219 -1.2117 -1.3548
  696MOL0     H93952  11.024  10.892   8.500  0.9116  1.0687 -0.7284
  696MOL0     H93953  11.009  10.875   8.673  1.4265  0.0814  0.0189
  696MOL0     H93954  11.175  11.067   8.515 -1.7663  1.0838 -0.5575
  696MOL0     H93955  11.158  11.092   8.690  2.6095  0.1428 -0.5029
  696MOL0     H93956  11.444  10.792   8.664 -1.9911 -3.7221 -1.5180
  696MOL0     H93957  10.512  10.939   8.478  2.0313 -2.2599 -2.7966
  696MOL0     H93958  10.261  10.782   8.388 -0.3414 -3.3898  3.1336
  696MOL0     H93959  10.188  10.861   8.531 -0.8040  1.1770 -0.1433
  696MOL0     H93960  10.307  10.957   8.431  3.4182 -0.2999  1.4383
  697MOL0     O93961   3.609   1.425   9.299 -0.2823  0.7090 -0.2551
  697MOL0     C93962   3.584   1.307   9.331 -0.2013  0.3896 -0.0464
  697MOL0     O93963   3.676   1.208   9.358 -0.4635  0.0790  0.4274
  697MOL0     C93964   3.800   1.251   9.341  0.4277  0.6597  0.0298
  697MOL0     C93965   3.855   1.282   9.222  0.9080 -0.1007 -0.2879
  697MOL0     C93966   3.990   1.310   9.206  0.1112 -0.3240 -0.2333
  697MOL0     C93967   4.072   1.300   9.311  0.0205 -0.1476  1.6211
  697MOL0     O93968   4.207   1.326   9.278 -0.2358  0.1804  0.6984
  697MOL0     C93969   4.303   1.306   9.383 -0.3400 -0.8105 -0.0649
  697MOL0     C93970   4.421   1.264   9.309  0.2180  0.6106 -0.7855
  697MOL0     C93971   4.509   1.374   9.258 -0.1890 -0.5156 -0.2355
  697MOL0     C93972   4.628   1.327   9.166 -0.4492 -1.0299 -0.2936
  697MOL0     C93973   4.726   1.217   9.219 -0.0252  0.8217  0.4119
  697MOL0     C93974   4.661   1.078   9.213  0.4326  1.4611  1.0961
  697MOL0     C93975   4.760   0.962   9.182 -0.0095 -0.2123  0.0959
  697MOL0     C93976   4.685   0.829   9.176  0.7251  0.0874 -0.3803
  697MOL0     N93977   4.776   0.729   9.126  0.1299  1.4914 -0.4605
  697MOL0     C93978   4.753   0.638   9.020  0.1806  0.0511 -0.2545
  697MOL0     C93979   4.864   0.564   9.007 -0.3733 -0.2107 -0.4372
  697MOL0     C93980   4.880   0.462   8.904 -0.3780  0.5289  0.0256
  697MOL0     C93981   4.953   0.509   8.771  0.7848 -0.5910  0.9702
  697MOL0     C93982   4.961   0.401   8.669  0.6358 -0.0065  0.5988
  697MOL0     C93983   4.949   0.452   8.528 -0.4049  0.3516 -0.4102
  697MOL0     O93984   4.828   0.511   8.495  0.4638 -0.3145 -0.0522
  697MOL0     C93985   4.803   0.548   8.360 -0.0385 -0.7320  0.7196
  697MOL0     C93986   4.670   0.579   8.319 -0.1048  0.3570 -0.6286
  697MOL0     C93987   4.640   0.625   8.184  0.3522  0.8064  0.3440
  697MOL0     C93988   4.754   0.660   8.102  0.3494  0.2393  0.0171
  697MOL0     C93989   4.737   0.726   7.972 -0.0262  0.3258 -0.1803
  697MOL0     O93990   4.848   0.797   7.916  0.3733 -0.6719 -0.1891
  697MOL0     C93991   4.857   0.837   7.788 -0.3093  0.1218 -0.2281
  697MOL0     C93992   4.772   0.799   7.678 -0.5074 -0.4934 -0.4504
  697MOL0     C93993   4.789   0.835   7.544  0.3900  0.2547 -0.5056
  697MOL0     C93994   4.899   0.924   7.519  0.9961  0.0198 -0.4300
  697MOL0     O93995   4.902   0.963   7.391  0.2200 -0.4162  0.3055
  697MOL0     C93996   4.961   1.097   7.370 -0.5119  0.4701 -0.4308
  697MOL0     C93997   4.964   1.138   7.225 -1.1430  0.1208  0.2753
  697MOL0     C93998   4.825   1.160   7.171  0.2164  0.1324 -0.4704
  697MOL0     C93999   4.844   1.152   7.020  0.2924 -0.2420 -0.5017
  697MOL0     C94000   4.713   1.188   6.957  0.3886  0.3000 -0.6129
  697MOL0     C94001   4.733   1.219   6.805  0.3189  0.4267 -0.4163
  697MOL0     C94002   4.638   1.326   6.758  0.3257  0.1985  0.7056
  697MOL0     C94003   4.644   1.351   6.600 -0.9267  0.1891  0.2149
  697MOL0    Cl94004   4.797   1.421   6.556 -0.0018 -0.2103 -0.1316
  697MOL0     C94005   4.984   0.960   7.626 -0.0253 -0.6624 -0.1557
  697MOL0     C94006   4.966   0.914   7.752  0.2879  0.9274  0.5428
  697MOL0     O94007   4.628   0.720   7.927  0.2710  0.6374  0.0739
  697MOL0     C94008   4.884   0.626   8.139 -1.1872  0.5016 -0.5438
  697MOL0     C94009   4.906   0.562   8.265  0.8237 -0.3105  0.5379
  697MOL0     N94010   4.943   0.597   9.114  0.8855 -1.0589 -0.2669
  697MOL0     N94011   4.880   0.688   9.190 -0.6045  0.3389 -0.5884
  697MOL0     C94012   4.017   1.254   9.440 -0.8886 -0.1371  0.0304
  697MOL0     C94013   3.881   1.229   9.455  0.1924 -0.5172  0.2540
  697MOL0     C94014   3.445   1.267   9.359  0.2366 -0.6224  0.5820
  697MOL0     C94015   3.411   1.138   9.402 -0.3881 -0.3438 -0.3497
  697MOL0     C94016   3.279   1.111   9.445 -0.5213  0.8416 -0.7710
  697MOL0     C94017   3.178   1.206   9.438 -0.4690 -1.1068 -0.4808
  697MOL0     O94018   3.048   1.183   9.488 -0.8387  0.3925 -0.0996
  697MOL0     C94019   3.005   1.041   9.472  0.9263  0.4878 -0.0099
  697MOL0     C94020   2.856   1.022   9.509 -0.2144  0.9705 -0.7336
  697MOL0     C94021   2.819   0.871   9.495  0.2023  0.2613  0.4343
  697MOL0     C94022   2.674   0.847   9.557 -0.1594  0.2635  0.1124
  697MOL0     C94023   2.678   0.854   9.704 -0.3802  0.3624  0.2736
  697MOL0     C94024   2.669   0.855   9.824  0.1171  0.1966  0.9423
  697MOL0     C94025   3.204   1.328   9.387 -0.4899 -0.0607 -1.3552
  697MOL0     C94026   3.344   1.368   9.354 -1.2024  0.8669 -0.1045
  697MOL0     C94027   3.352   1.517   9.325 -0.4617  0.4063  0.9084
  697MOL0     H94028   3.783   1.279   9.141  0.1923 -1.0839  0.3648
  697MOL0     H94029   4.024   1.325   9.104  2.7679 -1.6296  0.3707
  697MOL0     H94030   4.311   1.406   9.427 -0.5940  0.1421 -2.0774
  697MOL0     H94031   4.268   1.234   9.459  0.4986 -0.9476  0.2011
  697MOL0     H94032   4.401   1.185   9.235  3.4229 -0.0380 -1.1187
  697MOL0     H94033   4.480   1.216   9.388 -1.2765 -2.2332 -1.2485
  697MOL0     H94034   4.555   1.416   9.348  0.5264 -0.6803 -0.5138
  697MOL0     H94035   4.442   1.447   9.213 -2.1741 -1.1962  1.4585
  697MOL0     H94036   4.574   1.294   9.077  0.9324  0.6270 -1.8108
  697MOL0     H94037   4.686   1.417   9.143 -0.3681  0.2448  4.0477
  697MOL0     H94038   4.811   1.225   9.151  0.0574  0.9376  0.5267
  697MOL0     H94039   4.770   1.242   9.317  2.2326 -0.3304 -0.2296
  697MOL0     H94040   4.621   1.051   9.312  2.0852  0.4839  1.5356
  697MOL0     H94041   4.574   1.080   9.147 -0.7227  0.3442  2.4989
  697MOL0     H94042   4.828   0.956   9.267 -0.1327  0.4326  0.2471
  697MOL0     H94043   4.805   0.986   9.085 -3.4158 -1.4649 -1.9604
  697MOL0     H94044   4.663   0.801   9.280  2.2884  1.0630  0.2598
  697MOL0     H94045   4.596   0.833   9.114  0.2966  3.3467  0.2549
  697MOL0     H94046   4.665   0.644   8.956 -0.3551  0.9506  0.5407
  697MOL0     H94047   4.936   0.380   8.948 -1.2543 -0.2153 -0.2135
  697MOL0     H94048   4.780   0.421   8.885  0.1348 -1.9749  2.1393
  697MOL0     H94049   4.902   0.598   8.732 -0.2475 -1.9838 -1.0210
  697MOL0     H94050   5.055   0.547   8.785  0.6054  0.9045 -1.1776
  697MOL0     H94051   4.882   0.327   8.679  0.5362 -0.0647 -0.5106
  697MOL0     H94052   5.054   0.347   8.692 -0.1836 -0.7088  2.4118
  697MOL0     H94053   4.988   0.374   8.462  2.3192  0.1620  1.2883
  697MOL0     H94054   5.015   0.539   8.517 -3.8106  2.9467 -2.0920
  697MOL0     H94055   4.595   0.563   8.396  0.9446 -2.2153 -0.0297
  697MOL0     H94056   4.541   0.640   8.141  0.1615  1.4374  0.9905
  697MOL0     H94057   4.684   0.738   7.689 -0.6575 -0.0827  0.7735
  697MOL0     H94058   4.722   0.796   7.468  0.7013 -0.8249 -0.2356
  697MOL0     H94059   4.908   1.169   7.433 -0.3465 -0.3236  0.6438
  697MOL0     H94060   5.068   1.098   7.397 -0.4307 -1.0289 -0.6122
  697MOL0     H94061   5.033   1.222   7.224  0.0985 -0.8703  0.1041
  697MOL0     H94062   5.005   1.050   7.175 -2.4514 -1.2573  1.4964
  697MOL0     H94063   4.767   1.077   7.212  1.2722  0.4229  1.7347
  697MOL0     H94064   4.786   1.255   7.210 -1.6763  0.0874 -2.0813
  697MOL0     H94065   4.883   1.061   6.974  4.9250  0.2690  1.7709
  697MOL0     H94066   4.913   1.232   6.990 -1.5231  2.0213  0.9833
  697MOL0     H94067   4.675   1.284   6.996  0.3608  1.0186 -2.3279
  697MOL0     H94068   4.633   1.115   6.971  0.2047  0.7276  0.7206
  697MOL0     H94069   4.833   1.253   6.776  1.1109 -2.0853 -0.8239
  697MOL0     H94070   4.723   1.125   6.751 -0.8256 -0.4815  1.2865
  697MOL0     H94071   4.666   1.417   6.812  1.9135 -1.1344  2.2129
  697MOL0     H94072   4.536   1.290   6.772  0.1064  0.8360  0.7735
  697MOL0     H94073   4.620   1.248   6.569 -2.0278 -0.3634  2.6557
  697MOL0     H94074   4.563   1.420   6.574 -1.3232  0.1475  1.3086
  697MOL0     H94075   5.070   1.025   7.618  1.7644 -2.5082  2.3448
  697MOL0     H94076   5.030   0.949   7.832 -0.1924 -0.1562  1.4298
  697MOL0     H94077   4.971   0.641   8.076 -0.7107  0.8779  0.1923
  697MOL0     H94078   5.005   0.539   8.304 -0.4762 -0.2776  4.3148
  697MOL0     H94079   4.084   1.250   9.526 -0.5866 -1.9196 -0.2579
  697MOL0     H94080   3.854   1.194   9.554 -3.6928  2.9004  0.6895
  697MOL0     H94081   3.486   1.060   9.411 -0.1780  0.0511  1.9617
  697MOL0     H94082   3.253   1.016   9.491 -1.5830  2.3839  2.0631
  697MOL0     H94083   3.052   0.969   9.539 -2.3284 -0.9118  0.9704
  697MOL0     H94084   3.017   1.001   9.371 -0.1463 -1.6702  0.6728
  697MOL0     H94085   2.803   1.090   9.441  2.0448  2.5534 -1.0622
  697MOL0     H94086   2.843   1.060   9.610 -2.4577  0.2834 -0.7181
  697MOL0     H94087   2.890   0.804   9.544  1.7701  0.9017 -0.8901
  697MOL0     H94088   2.823   0.836   9.392  1.7526  0.1393  0.5202
  697MOL0     H94089   2.601   0.914   9.510 -2.0809 -1.7594  0.0397
  697MOL0     H94090   2.648   0.745   9.527  1.3915  0.7114 -3.2587
  697MOL0     H94091   2.663   0.868   9.930 -0.0380  0.8324  0.8547
  697MOL0     H94092   3.117   1.393   9.384 -0.9177 -0.4761  0.7426
  697MOL0     H94093   3.395   1.533   9.226  4.7276 -0.2366  2.7510
  697MOL0     H94094   3.255   1.566   9.341 -0.1880  0.2824  3.3140
  697MOL0     H94095   3.417   1.553   9.406 -0.4976 -2.1438  2.1661
  698MOL0     O94096   1.708   4.528   5.068 -0.0432 -0.0103  0.3319
  698MOL0     C94097   1.735   4.592   5.177 -0.6634  0.1002 -0.0400
  698MOL0     O94098   1.652   4.618   5.268  0.4023  0.2491  0.6511
  698MOL0     C94099   1.544   4.537   5.286  0.1152  0.0933  0.5051
  698MOL0     C94100   1.563   4.408   5.337 -0.1558  0.0403 -0.2021
  698MOL0     C94101   1.453   4.326   5.375  0.3843 -0.4237 -1.1574
  698MOL0     C94102   1.329   4.385   5.389 -0.3897  0.4832  0.1839
  698MOL0     O94103   1.236   4.305   5.453 -0.7052 -0.0219  0.3437
  698MOL0     C94104   1.105   4.312   5.414 -0.3606  0.0931  0.2754
  698MOL0     C94105   1.021   4.217   5.506  0.6028 -0.0328  0.6530
  698MOL0     C94106   1.058   4.070   5.526  0.4311  0.2086 -0.0463
  698MOL0     C94107   1.010   4.025   5.669 -0.4366  0.0152 -1.1933
  698MOL0     C94108   0.862   4.042   5.696 -0.0018  0.1237  0.6607
  698MOL0     C94109   0.782   3.931   5.614  0.2329 -0.3789 -0.7855
  698MOL0     C94110   0.632   3.927   5.653  0.8192 -0.1389  0.7130
  698MOL0     C94111   0.564   3.804   5.571  0.0434  0.1216  0.0727
  698MOL0     N94112   0.545   3.827   5.421 -0.3275 -0.6673  0.0587
  698MOL0     C94113   0.640   3.822   5.316  0.0694 -0.1056 -0.5204
  698MOL0     C94114   0.561   3.840   5.200 -0.1401  0.1750  0.1479
  698MOL0     C94115   0.605   3.866   5.058 -0.3984  0.0809  0.1513
  698MOL0     C94116   0.565   3.744   4.976  0.0542  0.1680 -0.3277
  698MOL0     C94117   0.565   3.765   4.828 -0.3274 -0.0559  0.3260
  698MOL0     C94118   0.514   3.655   4.738 -0.0497 -0.6604  0.9577
  698MOL0     O94119   0.377   3.652   4.762 -0.1204  1.1901  0.1462
  698MOL0     C94120   0.309   3.562   4.683 -0.0042  0.0588  0.4156
  698MOL0     C94121   0.361   3.444   4.626 -0.3317  0.6187  0.6087
  698MOL0     C94122   0.281   3.361   4.554 -0.1447  0.3669  0.7316
  698MOL0     C94123   0.147   3.389   4.528 -0.1002  0.4370  0.6782
  698MOL0     C94124   0.066   3.297   4.456 -0.0070 -0.0361 -0.0648
  698MOL0     O94125  -0.061   3.333   4.438  0.5485  1.4204 -0.7108
  698MOL0     C94126  -0.151   3.251   4.378  0.0525 -0.1695  1.9532
  698MOL0     C94127  -0.222   3.299   4.267  0.5204 -0.2027  0.3581
  698MOL0     C94128  -0.317   3.218   4.196  0.0943 -0.5105  1.0726
  698MOL0     C94129  -0.351   3.090   4.238  0.2308 -0.4152 -0.2211
  698MOL0     O94130  -0.440   3.008   4.190  0.4681  0.5890 -0.4773
  698MOL0     C94131  -0.447   2.988   4.053 -0.1647  0.5564  0.1258
  698MOL0     C94132  -0.551   2.885   4.021 -1.3920  0.7181  0.3378
  698MOL0     C94133  -0.488   2.745   4.055 -0.4792 -0.3683  0.0955
  698MOL0     C94134  -0.591   2.634   4.043  0.6860 -0.3347  0.0258
  698MOL0     C94135  -0.550   2.490   4.062 -0.1429  0.2686  1.0909
  698MOL0     C94136  -0.664   2.375   4.037  0.5224 -0.6184  0.1891
  698MOL0     C94137  -0.629   2.228   4.067  0.4805 -0.4367  0.3041
  698MOL0     C94138  -0.721   2.131   3.984 -0.4696  0.0707 -0.3501
  698MOL0    Cl94139  -0.632   1.980   3.957 -0.1801 -0.5271  0.5648
  698MOL0     C94140  -0.287   3.054   4.359 -0.3037  0.4694  1.3015
  698MOL0     C94141  -0.195   3.132   4.430 -0.0402 -0.1228  0.2734
  698MOL0     O94142   0.121   3.207   4.394  0.5147  0.5799 -0.7500
  698MOL0     C94143   0.097   3.511   4.582  0.1242  0.3309 -0.1046
  698MOL0     C94144   0.184   3.594   4.658  1.4443 -0.4666 -0.0104
  698MOL0     N94145   0.427   3.840   5.239 -0.4566 -0.2233 -0.3024
  698MOL0     N94146   0.417   3.828   5.371 -0.6799 -0.0088 -0.0775
  698MOL0     C94147   1.307   4.515   5.339  0.2085  0.4709 -0.0717
  698MOL0     C94148   1.410   4.586   5.279  0.0205  0.0545  1.2594
  698MOL0     C94149   1.873   4.650   5.191  0.3957  0.4369  0.5969
  698MOL0     C94150   1.933   4.636   5.312 -0.1806 -0.0719 -0.0981
  698MOL0     C94151   2.061   4.673   5.329 -1.1405 -0.7346 -0.5636
  698MOL0     C94152   2.137   4.742   5.232  0.9619 -0.1983 -0.2193
  698MOL0     O94153   2.266   4.786   5.243  0.4705 -0.1053 -0.0161
  698MOL0     C94154   2.339   4.755   5.362 -0.2997  0.3567 -0.0314
  698MOL0     C94155   2.490   4.728   5.338 -0.4371  0.0844  0.5279
  698MOL0     C94156   2.557   4.845   5.259 -0.1819 -1.0095  0.0968
  698MOL0     C94157   2.708   4.842   5.241  0.6791 -0.1377 -0.6802
  698MOL0     C94158   2.760   4.969   5.192  0.2804  0.0803  0.0712
  698MOL0     C94159   2.824   5.063   5.162 -0.1546  0.5971 -0.2001
  698MOL0     C94160   2.088   4.752   5.107  0.2042 -0.5359  0.2196
  698MOL0     C94161   1.953   4.700   5.079 -0.7121 -0.4450 -0.2040
  698MOL0     C94162   1.901   4.728   4.948 -0.0247  0.8585  0.0645
  698MOL0     H94163   1.666   4.374   5.327 -0.5851 -1.4565  0.2105
  698MOL0     H94164   1.447   4.220   5.397 -4.3817 -0.3742 -1.1950
  698MOL0     H94165   1.069   4.415   5.419  0.0551  0.2455  0.1672
  698MOL0     H94166   1.096   4.280   5.310  0.3918 -0.1444  0.2781
  698MOL0     H94167   0.922   4.197   5.462  0.9690 -0.0005 -0.2072
  698MOL0     H94168   1.005   4.265   5.603 -2.6300 -0.1775  0.3088
  698MOL0     H94169   1.165   4.050   5.535  0.4490  0.2208 -0.2372
  698MOL0     H94170   1.015   4.005   5.449  1.0106 -0.8813  0.5146
  698MOL0     H94171   1.026   3.917   5.679 -0.6968  0.1816  2.1563
  698MOL0     H94172   1.084   4.076   5.731  0.3265 -0.9685 -1.2766
  698MOL0     H94173   0.850   4.025   5.804  2.3260 -1.2544  0.7851
  698MOL0     H94174   0.833   4.145   5.677  2.1707  1.1664  2.5138
  698MOL0     H94175   0.796   3.951   5.508 -0.5525  0.3045 -0.7710
  698MOL0     H94176   0.822   3.834   5.643 -0.0512  0.5738  3.4530
  698MOL0     H94177   0.579   4.020   5.628  1.4719  0.9663  3.1698
  698MOL0     H94178   0.607   3.907   5.757  0.5854  2.8034  1.3293
  698MOL0     H94179   0.619   3.710   5.587 -1.5720 -0.9671 -0.5599
  698MOL0     H94180   0.463   3.794   5.611  0.0193 -2.7241 -0.4888
  698MOL0     H94181   0.747   3.809   5.326  0.1163 -0.6177 -1.5628
  698MOL0     H94182   0.559   3.952   5.010  0.7900  0.2941 -0.6538
  698MOL0     H94183   0.713   3.884   5.056 -0.7669  2.4241 -0.7089
  698MOL0     H94184   0.627   3.658   5.002 -0.1973  0.6573  2.1295
  698MOL0     H94185   0.466   3.708   5.004 -0.0696 -0.5921 -1.6643
  698MOL0     H94186   0.665   3.799   4.798  0.0243  0.6718  2.1890
  698MOL0     H94187   0.493   3.846   4.810 -1.2878 -1.2742 -1.6317
  698MOL0     H94188   0.564   3.559   4.753  1.1124 -0.3001 -0.4673
  698MOL0     H94189   0.540   3.669   4.633  0.9532 -0.5808  1.2108
  698MOL0     H94190   0.466   3.420   4.634 -0.5218 -0.7710 -0.5827
  698MOL0     H94191   0.327   3.271   4.514  0.4210  1.3788 -1.0112
  698MOL0     H94192  -0.195   3.388   4.212  1.5659 -1.2852 -0.9490
  698MOL0     H94193  -0.356   3.259   4.103 -0.3259  1.2001  1.9612
  698MOL0     H94194  -0.483   3.082   4.010  1.3974  1.7832  1.3486
  698MOL0     H94195  -0.347   2.960   4.018 -0.5403 -2.5977  1.2933
  698MOL0     H94196  -0.641   2.897   4.083 -0.2374  1.9450  1.8511
  698MOL0     H94197  -0.569   2.894   3.913  1.3198 -0.8310 -0.3505
  698MOL0     H94198  -0.398   2.723   3.997 -1.4590  0.7644 -1.9441
  698MOL0     H94199  -0.446   2.736   4.156 -2.6933 -1.8839  0.9609
  698MOL0     H94200  -0.650   2.634   3.951  0.0947 -2.9209  0.3152
  698MOL0     H94201  -0.665   2.653   4.121  0.8754  1.2402 -0.1404
  698MOL0     H94202  -0.513   2.480   4.165 -1.2802 -0.5238  1.4322
  698MOL0     H94203  -0.475   2.461   3.988 -2.6254  0.7116 -1.7378
  698MOL0     H94204  -0.759   2.403   4.082 -1.8485 -0.9171 -4.0739
  698MOL0     H94205  -0.679   2.380   3.928  0.5649  1.7751  0.2494
  698MOL0     H94206  -0.641   2.201   4.172 -0.5781  1.9919  0.8753
  698MOL0     H94207  -0.533   2.219   4.014 -0.4967 -1.6639 -1.3952
  698MOL0     H94208  -0.817   2.124   4.036 -0.4286  1.0117 -0.1310
  698MOL0     H94209  -0.738   2.173   3.885  0.0794  2.1082  0.3749
  698MOL0     H94210  -0.314   2.959   4.404  2.9269 -0.9319  0.5144
  698MOL0     H94211  -0.155   3.092   4.522 -2.9098 -1.7218  0.9472
  698MOL0     H94212  -0.007   3.536   4.563 -0.3721 -1.8349 -0.5807
  698MOL0     H94213   0.139   3.685   4.695 -0.6871 -1.8656  1.0727
  698MOL0     H94214   1.211   4.562   5.351 -1.1394 -2.0821 -0.0294
  698MOL0     H94215   1.389   4.685   5.241  0.7649  0.2160  1.2552
  698MOL0     H94216   1.871   4.588   5.388 -0.0792 -0.8313 -0.4832
  698MOL0     H94217   2.115   4.659   5.423 -2.2414 -0.7214  0.0886
  698MOL0     H94218   2.304   4.666   5.415 -0.1829  1.0498  1.2541
  698MOL0     H94219   2.345   4.842   5.429  3.3043  2.2746 -2.5114
  698MOL0     H94220   2.493   4.629   5.291  1.9798  0.6341 -0.6409
  698MOL0     H94221   2.548   4.715   5.431 -2.1687  1.1306  1.8025
  698MOL0     H94222   2.521   4.937   5.307 -3.0988 -2.7734  1.5733
  698MOL0     H94223   2.507   4.846   5.162 -2.1998  0.3619  1.0696
  698MOL0     H94224   2.771   4.829   5.330  0.2525  2.1577  0.0421
  698MOL0     H94225   2.734   4.762   5.172 -0.4257 -2.5041  1.4720
  698MOL0     H94226   2.882   5.149   5.138  0.8882 -0.6603 -2.5664
  698MOL0     H94227   2.142   4.810   5.033  2.4980 -0.6026  1.7386
  698MOL0     H94228   1.814   4.794   4.947 -1.0760 -0.4252 -2.5529
  698MOL0     H94229   1.960   4.789   4.879 -3.1190  3.8685 -0.2351
  698MOL0     H94230   1.866   4.640   4.894 -1.8201  2.0452 -0.8157
  699MOL0     O94231   1.740   1.961  10.875 -0.3944 -0.4363 -0.0548
  699MOL0     C94232   1.743   1.941  10.996  0.3070  0.3284  0.4297
  699MOL0     O94233   1.836   1.987  11.082 -0.3445  0.4439 -0.2970
  699MOL0     C94234   1.950   2.033  11.030 -0.4244  0.1701  0.8700
  699MOL0     C94235   1.993   2.158  11.058  0.5582 -0.2531  0.0787
  699MOL0     C94236   2.122   2.207  11.015 -0.8283 -0.3067  0.0840
  699MOL0     C94237   2.203   2.123  10.942 -0.1014 -0.3784 -0.7587
  699MOL0     O94238   2.331   2.158  10.902 -0.3716 -0.9739  0.1158
  699MOL0     C94239   2.419   2.230  10.991  0.3358  0.9116 -0.3779
  699MOL0     C94240   2.564   2.200  10.961 -0.3467 -0.4802 -0.1799
  699MOL0     C94241   2.658   2.251  11.068  0.1176  0.2462 -0.4222
  699MOL0     C94242   2.691   2.400  11.025  0.2524  1.1145  1.0145
  699MOL0     C94243   2.794   2.468  11.128  0.4821  0.6971 -0.0354
  699MOL0     C94244   2.746   2.501  11.266  0.2786 -1.1454  0.1679
  699MOL0     C94245   2.832   2.602  11.336 -0.2145  0.2461  0.4977
  699MOL0     C94246   2.784   2.619  11.480 -0.0211 -0.1689 -0.7146
  699MOL0     N94247   2.850   2.724  11.556 -0.0929 -0.2413  0.1469
  699MOL0     C94248   2.986   2.737  11.565 -0.6894 -0.6917 -0.8287
  699MOL0     C94249   2.991   2.842  11.653 -0.3714  0.6809 -0.0343
  699MOL0     C94250   3.111   2.927  11.680  0.2228 -0.2283 -0.8091
  699MOL0     C94251   3.240   2.898  11.600 -0.0627  0.3701  0.1916
  699MOL0     C94252   3.305   2.773  11.665 -0.6472  0.0231  0.5682
  699MOL0     C94253   3.463   2.785  11.667 -0.7378  0.0109 -0.5227
  699MOL0     O94254   3.518   2.905  11.718 -0.9550 -0.1096  0.3866
  699MOL0     C94255   3.658   2.921  11.729 -0.4136  0.0306 -0.4778
  699MOL0     C94256   3.748   2.820  11.760 -0.0321  1.2170  1.0018
  699MOL0     C94257   3.883   2.845  11.794 -0.7232  0.2358 -0.0473
  699MOL0     C94258   3.946   2.977  11.787 -0.2604  1.0363  0.3102
  699MOL0     C94259   4.088   3.003  11.817  0.2704  1.0981  0.4263
  699MOL0     O94260   4.153   2.904  11.892  0.3580 -0.3180  0.0431
  699MOL0     C94261   4.287   2.921  11.914  0.1095 -0.5743  0.3421
  699MOL0     C94262   4.324   2.882  12.043 -0.3744  0.4916  0.2823
  699MOL0     C94263   4.449   2.905  12.095 -0.3021 -0.2614  0.3897
  699MOL0     C94264   4.546   2.957  12.006 -0.4822 -0.2664 -0.6455
  699MOL0     O94265   4.682   2.978  12.049 -0.4447  0.3298  0.1899
  699MOL0     C94266   4.720   2.937  12.176  0.2077 -0.2807 -0.3178
  699MOL0     C94267   4.857   2.991  12.209 -0.1588 -0.1069  0.1789
  699MOL0     C94268   4.854   3.147  12.209 -0.2389 -0.1255 -0.0509
  699MOL0     C94269   4.812   3.203  12.346 -0.0772  0.5032 -0.3131
  699MOL0     C94270   4.908   3.186  12.466 -0.0612 -0.0718  0.4402
  699MOL0     C94271   4.866   3.265  12.591  0.0702 -0.4294  0.2481
  699MOL0     C94272   4.947   3.203  12.711  0.7053  0.0152  0.3365
  699MOL0     C94273   4.953   3.292  12.830  0.6572 -0.6456  0.0199
  699MOL0    Cl94274   5.107   3.259  12.926 -0.0837  0.0153  0.3784
  699MOL0     C94275   4.511   3.012  11.880 -0.8315 -0.4121 -0.0901
  699MOL0     C94276   4.380   2.990  11.827 -0.3238  0.1813  0.8087
  699MOL0     O94277   4.135   3.109  11.773 -0.0533  0.3750  0.4123
  699MOL0     C94278   3.850   3.078  11.756  0.0334 -0.9277 -0.5052
  699MOL0     C94279   3.717   3.052  11.720 -0.4109  0.1109  0.7502
  699MOL0     N94280   2.857   2.883  11.683 -0.4758 -0.5159  0.1321
  699MOL0     N94281   2.778   2.815  11.620  0.0669  0.9198  0.0591
  699MOL0     C94282   2.162   1.981  10.923  0.1310 -0.7588 -0.4357
  699MOL0     C94283   2.038   1.940  10.972  0.3320 -0.1578  0.2450
  699MOL0     C94284   1.618   1.880  11.049  0.7554 -0.5475  0.0255
  699MOL0     C94285   1.491   1.917  10.988  0.2773  0.3066 -0.3463
  699MOL0     C94286   1.364   1.861  11.030  0.4097 -0.6070  0.2812
  699MOL0     C94287   1.367   1.760  11.131 -0.2520 -0.8710 -0.4340
  699MOL0     O94288   1.247   1.684  11.140 -0.3023 -0.4263  0.2783
  699MOL0     C94289   1.242   1.596  11.250 -0.2729 -0.1190  0.0538
  699MOL0     C94290   1.106   1.526  11.238 -0.8886  0.0590 -0.2037
  699MOL0     C94291   0.996   1.626  11.268  1.2859  0.2116  0.1969
  699MOL0     C94292   0.858   1.573  11.220  0.6940 -0.1225 -1.1317
  699MOL0     C94293   0.813   1.469  11.323 -0.1414 -1.0168  0.0107
  699MOL0     C94294   0.782   1.391  11.413  0.0014 -0.5876  0.1880
  699MOL0     C94295   1.490   1.739  11.201  0.9977  0.1973  0.0490
  699MOL0     C94296   1.610   1.799  11.162  0.2853  0.1665  0.4289
  699MOL0     C94297   1.726   1.758  11.242  0.0012  0.0379  0.0439
  699MOL0     H94298   1.943   2.229  11.123  0.1116 -0.6180  0.1315
  699MOL0     H94299   2.141   2.309  11.045 -2.5909  0.1521 -0.2066
  699MOL0     H94300   2.398   2.334  10.965 -1.2148  0.4714 -0.9964
  699MOL0     H94301   2.392   2.209  11.095  0.7800 -0.7419 -0.5620
  699MOL0     H94302   2.596   2.241  10.865 -2.9961 -0.8930 -1.3041
  699MOL0     H94303   2.581   2.093  10.948 -2.3264 -0.5617 -2.7609
  699MOL0     H94304   2.749   2.193  11.053  0.0114 -0.4085  1.2417
  699MOL0     H94305   2.636   2.227  11.173  2.1302 -0.6214 -0.1619
  699MOL0     H94306   2.745   2.403  10.930  0.8106 -1.9109  1.1513
  699MOL0     H94307   2.598   2.456  11.014 -0.2901  0.3200  1.4564
  699MOL0     H94308   2.883   2.406  11.141 -0.2640 -0.3219  0.3412
  699MOL0     H94309   2.827   2.561  11.080  2.5065 -0.5008 -1.1071
  699MOL0     H94310   2.652   2.556  11.275  2.1088  3.1519 -2.9767
  699MOL0     H94311   2.737   2.412  11.328 -0.2726 -2.7032 -2.0475
  699MOL0     H94312   2.809   2.693  11.280 -0.3887  0.5828  1.1089
  699MOL0     H94313   2.937   2.574  11.330 -0.3577 -0.6287  1.7445
  699MOL0     H94314   2.678   2.645  11.476  0.0970  0.2922 -0.8784
  699MOL0     H94315   2.802   2.528  11.538  0.3667  0.0747 -0.4492
  699MOL0     H94316   3.064   2.677  11.519  0.7839 -0.1958  0.8709
  699MOL0     H94317   3.085   3.029  11.650 -2.0893 -0.8752 -1.2230
  699MOL0     H94318   3.132   2.931  11.787 -2.3910  3.0470 -0.2161
  699MOL0     H94319   3.225   2.881  11.493 -0.1607  1.3494  0.0415
  699MOL0     H94320   3.299   2.988  11.620 -0.0881  0.3279  0.4632
  699MOL0     H94321   3.277   2.687  11.603 -0.0691 -2.0064  2.9474
  699MOL0     H94322   3.272   2.765  11.769  0.0671  2.3507  1.0315
  699MOL0     H94323   3.507   2.782  11.567  0.1755 -3.3767 -0.1561
  699MOL0     H94324   3.513   2.702  11.718  0.2701  0.5394 -0.6246
  699MOL0     H94325   3.714   2.718  11.774 -0.2035  1.1681  0.2585
  699MOL0     H94326   3.943   2.759  11.824 -0.2867 -0.0631 -1.6943
  699MOL0     H94327   4.255   2.829  12.108  0.4711  0.5081  1.2377
  699MOL0     H94328   4.480   2.869  12.193 -1.0670 -1.6499  0.1516
  699MOL0     H94329   4.643   2.975  12.243 -0.8979 -3.2605  0.2691
  699MOL0     H94330   4.726   2.828  12.172  0.8707 -0.3318  1.1901
  699MOL0     H94331   4.895   2.964  12.308 -0.7829  1.2219  0.8055
  699MOL0     H94332   4.933   2.952  12.141  0.7259 -0.7714  1.5049
  699MOL0     H94333   4.953   3.190  12.190 -0.6242  1.1677  0.7375
  699MOL0     H94334   4.795   3.191  12.128  0.1297 -0.5828 -0.5792
  699MOL0     H94335   4.718   3.161  12.384  0.2865 -0.7745 -0.7890
  699MOL0     H94336   4.805   3.311  12.326 -1.5760  0.3394 -0.7890
  699MOL0     H94337   5.008   3.212  12.430 -0.7421  0.3980 -1.2037
  699MOL0     H94338   4.919   3.083  12.500  1.0745 -0.6960 -1.6254
  699MOL0     H94339   4.884   3.373  12.588  1.0636 -0.6049 -0.7049
  699MOL0     H94340   4.758   3.253  12.604 -0.1398  0.6014 -0.4123
  699MOL0     H94341   5.048   3.205  12.669  1.7714 -0.3912  2.7282
  699MOL0     H94342   4.906   3.104  12.734 -0.3781  0.0925 -1.1236
  699MOL0     H94343   4.959   3.396  12.795 -0.9451 -0.4826  0.1714
  699MOL0     H94344   4.871   3.282  12.901 -0.6311  1.2384 -1.1018
  699MOL0     H94345   4.585   3.075  11.832  0.1620 -0.2531  1.5565
  699MOL0     H94346   4.352   3.027  11.729 -2.1175 -2.0399  0.3995
  699MOL0     H94347   3.875   3.183  11.746  0.7870 -0.9601  0.7394
  699MOL0     H94348   3.648   3.134  11.700  0.7742  0.4589 -2.5532
  699MOL0     H94349   2.232   1.917  10.871 -2.0504 -0.9242 -3.4326
  699MOL0     H94350   2.014   1.835  10.961 -2.4221  0.3101  1.0019
  699MOL0     H94351   1.474   1.990  10.910  0.1443  1.2887  0.5861
  699MOL0     H94352   1.281   1.905  10.975  0.9649  2.9827  2.0111
  699MOL0     H94353   1.241   1.651  11.345  2.9665  0.2933 -0.0374
  699MOL0     H94354   1.324   1.524  11.256  2.5198  2.8373 -0.0337
  699MOL0     H94355   1.099   1.443  11.309 -0.4026 -0.5731 -0.8915
  699MOL0     H94356   1.097   1.494  11.134  3.6291 -0.7994 -0.5217
  699MOL0     H94357   1.013   1.716  11.208 -0.9665 -0.5638 -1.7607
  699MOL0     H94358   0.990   1.660  11.371 -0.8977 -1.0037  0.5398
  699MOL0     H94359   0.776   1.645  11.218  1.7554  1.1411 -0.2772
  699MOL0     H94360   0.872   1.535  11.118 -2.1772  1.6700 -2.2934
  699MOL0     H94361   0.743   1.345  11.501  3.3848 -2.5986  0.8097
  699MOL0     H94362   1.493   1.675  11.288 -1.3491  1.6999  1.3410
  699MOL0     H94363   1.705   1.669  11.302 -1.0328 -0.9072 -1.6323
  699MOL0     H94364   1.813   1.742  11.177  0.4678  0.9868  0.4140
  699MOL0     H94365   1.748   1.839  11.312  0.4973 -0.4333  0.4360
  700MOL0     O94366   6.690   2.107   2.357  0.2387  0.1485  0.5606
  700MOL0     C94367   6.617   2.020   2.317 -0.2538  0.4878  0.6594
  700MOL0     O94368   6.659   1.899   2.275 -0.5153 -0.0359  0.0758
  700MOL0     C94369   6.791   1.863   2.277  0.3536 -0.1980 -0.1075
  700MOL0     C94370   6.825   1.779   2.388 -0.1105 -0.7783  0.7413
  700MOL0     C94371   6.957   1.731   2.400  0.3802  0.0552  1.6559
  700MOL0     C94372   7.056   1.762   2.314  0.2668  0.1934 -0.6271
  700MOL0     O94373   7.175   1.717   2.350  0.7537 -0.2496  0.2348
  700MOL0     C94374   7.277   1.709   2.248  0.1200 -0.4331  0.3712
  700MOL0     C94375   7.391   1.627   2.305  0.4553 -0.1151 -0.1398
  700MOL0     C94376   7.518   1.637   2.222  0.2737 -0.1380 -0.4202
  700MOL0     C94377   7.619   1.528   2.247  0.3075  0.6599  0.1349
  700MOL0     C94378   7.746   1.536   2.165 -0.4844  0.4540  0.8495
  700MOL0     C94379   7.735   1.489   2.016 -0.6866  0.3245 -1.0512
  700MOL0     C94380   7.884   1.492   1.970 -0.0066 -0.3055  0.6489
  700MOL0     C94381   7.869   1.449   1.824 -0.6807 -0.5387  0.2699
  700MOL0     N94382   7.991   1.469   1.738  0.6498  0.6776 -0.1857
  700MOL0     C94383   8.064   1.583   1.757  0.0876 -0.2415  0.3619
  700MOL0     C94384   8.165   1.573   1.666  0.1056  0.9408  0.4615
  700MOL0     C94385   8.262   1.682   1.648  0.8072 -0.1507  0.6393
  700MOL0     C94386   8.379   1.678   1.747 -0.8711 -0.0413 -0.8008
  700MOL0     C94387   8.443   1.808   1.753 -0.1059 -0.8867  0.8381
  700MOL0     C94388   8.522   1.849   1.884  0.1761  0.5741 -0.3804
  700MOL0     O94389   8.589   1.732   1.946 -0.9805  0.1750 -0.1915
  700MOL0     C94390   8.721   1.762   1.947 -0.0817  0.6051 -0.0800
  700MOL0     C94391   8.807   1.662   1.901  0.5995 -0.4199  0.0779
  700MOL0     C94392   8.943   1.665   1.915 -0.1527  0.6149  0.1222
  700MOL0     C94393   9.008   1.777   1.978  0.3197 -0.4744 -0.4744
  700MOL0     C94394   9.147   1.800   1.981  0.0348 -0.6103  0.0741
  700MOL0     O94395   9.228   1.706   1.917  0.4948  0.7012 -0.1265
  700MOL0     C94396   9.361   1.722   1.902 -0.1450  0.1451 -0.7784
  700MOL0     C94397   9.446   1.749   2.007  0.7729 -0.6206 -0.2044
  700MOL0     C94398   9.585   1.761   1.980 -1.2003  0.6643 -0.6299
  700MOL0     C94399   9.637   1.728   1.855 -0.3877 -0.5040 -0.3419
  700MOL0     O94400   9.773   1.715   1.832 -0.4412 -0.1138  0.2551
  700MOL0     C94401   9.850   1.810   1.896  0.2649 -0.5793  0.4439
  700MOL0     C94402   9.934   1.896   1.793 -0.5355  0.1782  0.3426
  700MOL0     C94403   9.998   2.022   1.843  0.4619 -0.0000 -0.1788
  700MOL0     C94404  10.142   2.004   1.863  0.4844  0.1534 -0.0128
  700MOL0     C94405  10.192   2.146   1.884 -0.3734 -0.1492 -0.3807
  700MOL0     C94406  10.339   2.146   1.923  0.7454 -0.1477 -0.3668
  700MOL0     C94407  10.378   2.275   1.998  0.6849 -0.0303  0.9792
  700MOL0     C94408  10.494   2.241   2.094 -0.1440  0.0724  0.6725
  700MOL0    Cl94409  10.418   2.138   2.222  0.1629 -0.1109  0.2834
  700MOL0     C94410   9.544   1.688   1.757 -1.1191  0.9848  0.7026
  700MOL0     C94411   9.405   1.694   1.781 -0.3246  0.4375  0.5614
  700MOL0     O94412   9.190   1.906   2.029  0.5338  0.8192  0.4707
  700MOL0     C94413   8.917   1.873   2.041  0.0122  0.1280 -0.0044
  700MOL0     C94414   8.776   1.863   2.022 -0.2987 -0.0659  0.6322
  700MOL0     N94415   8.149   1.456   1.587  0.4577 -0.0229  0.0083
  700MOL0     N94416   8.049   1.394   1.635 -0.4392  0.3617  0.7132
  700MOL0     C94417   7.023   1.847   2.209 -0.4655  1.3199  0.1279
  700MOL0     C94418   6.892   1.902   2.190  0.1769  0.5006  0.0040
  700MOL0     C94419   6.467   2.048   2.327  0.3000 -0.9536 -0.6124
  700MOL0     C94420   6.422   2.187   2.323  0.3298  0.0027  0.0719
  700MOL0     C94421   6.291   2.232   2.340  0.3868  0.3266  0.4301
  700MOL0     C94422   6.200   2.128   2.354  0.0418 -0.8188 -0.3103
  700MOL0     O94423   6.063   2.129   2.371  0.2585 -0.0506 -0.5510
  700MOL0     C94424   5.995   2.248   2.365  0.1007  0.0750 -0.0730
  700MOL0     C94425   5.841   2.235   2.381  0.0693 -0.1056  0.5746
  700MOL0     C94426   5.775   2.112   2.323  0.0256 -0.0002 -0.4377
  700MOL0     C94427   5.627   2.135   2.301  0.5029  0.3473  0.2239
  700MOL0     C94428   5.562   2.029   2.214  0.9088 -0.2426 -0.0847
  700MOL0     C94429   5.494   1.954   2.147 -0.6534  0.2035 -0.1628
  700MOL0     C94430   6.244   1.992   2.370  0.3177  0.3740  0.9416
  700MOL0     C94431   6.373   1.955   2.355  0.0802  0.4226  0.4115
  700MOL0     C94432   6.403   1.807   2.343  0.2283  0.7056  0.5720
  700MOL0     H94433   6.741   1.762   2.454 -0.6912  0.8114  0.4690
  700MOL0     H94434   6.967   1.671   2.490 -1.9713 -2.0515  0.6347
  700MOL0     H94435   7.242   1.655   2.160  1.5396 -0.6741 -0.0747
  700MOL0     H94436   7.311   1.809   2.217 -1.0358 -0.8432 -2.5242
  700MOL0     H94437   7.354   1.524   2.315  0.3219 -0.2583 -1.9025
  700MOL0     H94438   7.433   1.654   2.403  1.2284 -3.7663  0.6920
  700MOL0     H94439   7.566   1.731   2.252  1.0856 -1.1214  1.5540
  700MOL0     H94440   7.500   1.637   2.114  0.7572  0.1595 -0.5038
  700MOL0     H94441   7.639   1.527   2.355  0.3531  1.3979  0.1394
  700MOL0     H94442   7.578   1.434   2.211  0.2458  0.7042  0.0906
  700MOL0     H94443   7.789   1.635   2.177 -1.4765  1.0978 -0.5120
  700MOL0     H94444   7.825   1.471   2.202 -0.5705 -0.6298 -0.7585
  700MOL0     H94445   7.697   1.386   2.013  0.0320  0.0158 -0.0376
  700MOL0     H94446   7.674   1.557   1.956 -0.1705  0.3063 -1.6072
  700MOL0     H94447   7.950   1.422   2.021 -0.6632  0.8604  3.2844
  700MOL0     H94448   7.929   1.590   1.986  1.4397 -1.0467  1.2779
  700MOL0     H94449   7.829   1.347   1.826  0.2536 -0.9271  2.8103
  700MOL0     H94450   7.802   1.505   1.758  3.9473 -0.3198 -5.0904
  700MOL0     H94451   8.043   1.662   1.827 -2.1419 -1.0546  0.6781
  700MOL0     H94452   8.304   1.692   1.548  0.3374  1.0135  0.5429
  700MOL0     H94453   8.204   1.775   1.650  2.6114  1.2104 -2.8598
  700MOL0     H94454   8.342   1.656   1.847 -1.4517  0.4060 -0.9103
  700MOL0     H94455   8.455   1.603   1.724  1.2512  1.8077 -0.1418
  700MOL0     H94456   8.369   1.884   1.726 -0.4513 -1.0379  1.3431
  700MOL0     H94457   8.510   1.815   1.667 -1.8736 -1.1759 -0.6393
  700MOL0     H94458   8.447   1.887   1.954 -1.3536  0.0361 -1.6616
  700MOL0     H94459   8.576   1.941   1.862 -0.2972  0.8117 -0.5684
  700MOL0     H94460   8.754   1.583   1.848  0.4051  1.2917 -2.4698
  700MOL0     H94461   9.010   1.585   1.884  0.8473  1.2783  0.5198
  700MOL0     H94462   9.396   1.768   2.102 -0.8057 -1.3025 -0.8598
  700MOL0     H94463   9.652   1.788   2.061 -1.8748  1.4017 -0.2926
  700MOL0     H94464   9.783   1.890   1.931 -1.1334 -1.1588 -0.7659
  700MOL0     H94465   9.909   1.765   1.976 -1.7106  1.3573  3.2116
  700MOL0     H94466  10.006   1.836   1.738 -0.6035  2.2257 -2.1522
  700MOL0     H94467   9.864   1.935   1.719  1.4620 -1.7468 -2.7834
  700MOL0     H94468   9.973   2.114   1.789  1.4947 -0.7816 -2.0701
  700MOL0     H94469   9.960   2.040   1.944 -0.2436  0.9758 -0.5985
  700MOL0     H94470  10.191   1.981   1.768 -2.2958  1.3754 -1.9201
  700MOL0     H94471  10.170   1.933   1.940 -0.5984  0.9018  1.1058
  700MOL0     H94472  10.145   2.194   1.970  3.4074  0.7641  1.3864
  700MOL0     H94473  10.175   2.204   1.793 -1.0279  0.1421 -0.0799
  700MOL0     H94474  10.347   2.064   1.994 -1.7641  0.1125  0.3228
  700MOL0     H94475  10.408   2.130   1.840 -0.0004  0.3191 -1.0949
  700MOL0     H94476  10.291   2.302   2.058  0.0776 -2.2429  1.1775
  700MOL0     H94477  10.403   2.357   1.929  0.6570  0.9121  2.0546
  700MOL0     H94478  10.568   2.175   2.046  0.4313 -0.7669  2.5955
  700MOL0     H94479  10.542   2.327   2.142  1.9798 -0.9942  0.6080
  700MOL0     H94480   9.581   1.660   1.659 -0.0357 -1.8458  1.8150
  700MOL0     H94481   9.330   1.667   1.707 -3.1378 -2.2508  4.0909
  700MOL0     H94482   8.944   1.962   2.097  1.7172  1.2446 -2.4026
  700MOL0     H94483   8.703   1.917   2.081  0.8860  2.9852 -0.4665
  700MOL0     H94484   7.105   1.881   2.145  1.2689  1.1398  2.1261
  700MOL0     H94485   6.861   1.978   2.119 -1.1866  0.4342  0.4923
  700MOL0     H94486   6.508   2.253   2.312 -1.0527  2.0518  0.9919
  700MOL0     H94487   6.262   2.336   2.335  0.0695  0.3321  1.9435
  700MOL0     H94488   6.021   2.301   2.273  4.2890 -0.3035  0.7125
  700MOL0     H94489   6.021   2.306   2.454 -3.1124  1.5246  0.0791
  700MOL0     H94490   5.795   2.325   2.339 -1.5329  0.7159  3.7705
  700MOL0     H94491   5.815   2.238   2.487 -0.9429 -1.7817  0.4092
  700MOL0     H94492   5.802   2.035   2.397 -2.0062 -0.7733 -0.4496
  700MOL0     H94493   5.827   2.085   2.230  0.5784  2.0444 -0.7518
  700MOL0     H94494   5.576   2.140   2.398 -1.9766 -0.0369 -0.9725
  700MOL0     H94495   5.603   2.227   2.247  0.5041 -0.1518 -0.6411
  700MOL0     H94496   5.435   1.884   2.092 -3.9802  3.5255 -1.2409
  700MOL0     H94497   6.175   1.908   2.373  2.4044 -1.4525  0.9553
  700MOL0     H94498   6.424   1.771   2.241 -1.0306  1.0462  0.1805
  700MOL0     H94499   6.490   1.793   2.408 -0.0031  0.4898  0.8356
  700MOL0     H94500   6.325   1.746   2.390 -0.6559 -0.5293 -2.2628
  701MOL0     O94501  10.189   7.220   1.175  0.7105  0.4523  0.3920
  701MOL0     C94502  10.183   7.287   1.076  0.7949 -1.3939  0.4074
  701MOL0     O94503  10.280   7.379   1.042  0.8199  0.3222  0.2616
  701MOL0     C94504  10.399   7.363   1.099  0.3909 -0.6048  0.1277
  701MOL0     C94505  10.502   7.296   1.037 -0.2946  0.6134  0.1381
  701MOL0     C94506  10.624   7.284   1.093 -0.6441 -0.6311 -0.6488
  701MOL0     C94507  10.648   7.329   1.224 -1.6750 -0.0880  0.6153
  701MOL0     O94508  10.780   7.332   1.277 -0.4397  0.7334  0.3749
  701MOL0     C94509  10.893   7.278   1.198  1.6165  0.2839 -0.4729
  701MOL0     C94510  11.021   7.277   1.280  0.0672 -0.1983  0.2314
  701MOL0     C94511  11.063   7.409   1.322 -0.9825  0.5310  0.6800
  701MOL0     C94512  11.198   7.407   1.397  0.0196 -0.5317  0.8324
  701MOL0     C94513  11.252   7.528   1.479  0.0042 -0.0381  0.8187
  701MOL0     C94514  11.156   7.549   1.593 -0.6324 -0.2023  0.9064
  701MOL0     C94515  11.216   7.623   1.708  0.3317  0.5416  0.5988
  701MOL0     C94516  11.113   7.661   1.810  0.1676  0.7437  1.0233
  701MOL0     N94517  11.178   7.732   1.909 -0.4297 -0.2511 -0.0586
  701MOL0     C94518  11.205   7.687   2.037  0.1039 -0.1809 -0.3766
  701MOL0     C94519  11.262   7.790   2.103  0.8610 -1.1263 -1.2976
  701MOL0     C94520  11.314   7.791   2.241  0.0898  0.9477  0.2351
  701MOL0     C94521  11.461   7.753   2.225 -0.0699  0.5647  0.0372
  701MOL0     C94522  11.551   7.868   2.176 -0.2583  0.3319  0.0228
  701MOL0     C94523  11.707   7.828   2.172 -0.3815  0.7516  0.2916
  701MOL0     O94524  11.774   7.871   2.292  0.7213 -0.5937 -0.2912
  701MOL0     C94525  11.904   7.843   2.308  0.0701 -0.5054 -0.7620
  701MOL0     C94526  12.002   7.888   2.219  0.3965  0.7954 -0.0853
  701MOL0     C94527  12.134   7.853   2.244 -0.0561  0.4101  0.4792
  701MOL0     C94528  12.181   7.752   2.335 -0.5953  0.0439 -0.0603
  701MOL0     C94529  12.322   7.715   2.353 -0.2307  0.3362  0.4364
  701MOL0     O94530  12.417   7.754   2.254 -0.1078  0.1329 -0.5527
  701MOL0     C94531  12.547   7.704   2.267 -0.3313 -0.6241  0.3836
  701MOL0     C94532  12.640   7.749   2.356 -0.3780  0.2336 -0.0520
  701MOL0     C94533  12.769   7.689   2.354  0.0134  0.0382  0.0357
  701MOL0     C94534  12.805   7.583   2.264  0.5122 -0.6007  0.4618
  701MOL0     O94535  12.922   7.514   2.268  0.2852 -0.7419 -0.4641
  701MOL0     C94536  12.966   7.475   2.397  0.1909 -0.4463  0.5265
  701MOL0     C94537  13.059   7.354   2.398  0.4022  0.1947  0.6088
  701MOL0     C94538  13.202   7.383   2.441 -0.1916 -0.3579  0.4472
  701MOL0     C94539  13.295   7.266   2.394  0.2462 -0.4924 -0.7778
  701MOL0     C94540  13.441   7.306   2.398 -0.2337  0.3349 -1.0981
  701MOL0     C94541  13.527   7.184   2.345 -0.0294 -0.1655  0.3375
  701MOL0     C94542  13.668   7.237   2.343 -0.7877  0.9369  0.1886
  701MOL0     C94543  13.751   7.126   2.290 -0.6310  0.1261  1.6596
  701MOL0    Cl94544  13.757   6.984   2.405  0.2621 -0.0259  0.0152
  701MOL0     C94545  12.709   7.541   2.169  0.5479 -0.5505  0.0101
  701MOL0     C94546  12.585   7.602   2.168  0.6662 -0.8388 -0.1316
  701MOL0     O94547  12.349   7.665   2.464  0.5191  0.3236 -0.0981
  701MOL0     C94548  12.081   7.701   2.418 -0.0422  0.0653  1.6437
  701MOL0     C94549  11.947   7.758   2.418 -0.1875  0.0569 -0.4294
  701MOL0     N94550  11.257   7.907   2.017  0.6582  0.2037  0.5028
  701MOL0     N94551  11.205   7.862   1.900 -0.2496 -1.3158 -0.1145
  701MOL0     C94552  10.556   7.405   1.289  0.0974  0.2740  0.2445
  701MOL0     C94553  10.424   7.416   1.230 -0.0787 -0.7143  0.2478
  701MOL0     C94554  10.052   7.321   1.008 -0.9593  0.2497  0.2976
  701MOL0     C94555  10.062   7.380   0.880  0.5637  0.9524  0.6343
  701MOL0     C94556   9.947   7.406   0.800  0.3781  0.9278  0.7039
  701MOL0     C94557   9.825   7.363   0.849  0.1419  0.8857 -0.7172
  701MOL0     O94558   9.722   7.396   0.769  0.1983 -0.1529 -0.4353
  701MOL0     C94559   9.588   7.375   0.812  0.5036  0.5106 -0.3806
  701MOL0     C94560   9.501   7.464   0.727 -0.6458 -0.5786  0.8010
  701MOL0     C94561   9.353   7.434   0.753 -0.2263  0.3150  0.3018
  701MOL0     C94562   9.268   7.551   0.707 -0.7520  0.2505  0.6215
  701MOL0     C94563   9.124   7.535   0.734 -0.2934 -0.5687  0.4364
  701MOL0     C94564   9.004   7.524   0.750 -0.8977 -1.0064  0.3488
  701MOL0     C94565   9.816   7.316   0.979  0.4358 -0.3737 -0.8530
  701MOL0     C94566   9.923   7.295   1.064 -0.2895 -0.5201  0.5562
  701MOL0     C94567   9.895   7.238   1.195 -0.4651 -0.0937 -0.1393
  701MOL0     H94568  10.476   7.233   0.952 -1.1229 -1.0979  1.5841
  701MOL0     H94569  10.696   7.227   1.035  1.3394  0.2902  0.7933
  701MOL0     H94570  10.858   7.177   1.178 -0.4119  0.6540  0.9013
  701MOL0     H94571  10.904   7.335   1.105  1.2317 -0.5550 -1.0395
  701MOL0     H94572  11.098   7.226   1.221 -1.3233  1.3269 -3.2163
  701MOL0     H94573  10.985   7.222   1.367  0.6830 -3.8744 -1.6341
  701MOL0     H94574  10.985   7.457   1.382  0.1183  1.0226  1.7592
  701MOL0     H94575  11.070   7.471   1.232 -1.8342 -2.7719 -1.8592
  701MOL0     H94576  11.198   7.321   1.465 -0.9850 -0.9929  0.2842
  701MOL0     H94577  11.270   7.382   1.319 -3.0280 -2.2076 -1.7155
  701MOL0     H94578  11.352   7.496   1.511  1.2511 -0.2518 -2.7975
  701MOL0     H94579  11.267   7.609   1.406 -0.3840 -2.0794 -1.6526
  701MOL0     H94580  11.067   7.591   1.545 -1.5390 -3.9416 -1.1025
  701MOL0     H94581  11.133   7.454   1.642 -0.6194  0.9739  3.3122
  701MOL0     H94582  11.258   7.718   1.672 -0.7844  0.8493  0.0421
  701MOL0     H94583  11.302   7.570   1.749  2.9217  3.3791 -0.7615
  701MOL0     H94584  11.040   7.726   1.762 -1.5827 -0.4365  1.9910
  701MOL0     H94585  11.062   7.570   1.844 -1.0517  1.6566  1.7053
  701MOL0     H94586  11.177   7.588   2.071 -1.3166  0.5584  0.7620
  701MOL0     H94587  11.298   7.887   2.290  1.6497  0.5977  1.4826
  701MOL0     H94588  11.251   7.724   2.299  1.2949  0.3808  0.9267
  701MOL0     H94589  11.499   7.712   2.319  0.2831  0.5863 -0.0932
  701MOL0     H94590  11.469   7.683   2.140 -0.4083  0.5914 -0.0171
  701MOL0     H94591  11.535   7.950   2.247 -1.9341 -1.0471  1.3440
  701MOL0     H94592  11.530   7.896   2.072 -1.1303  0.2592  0.1655
  701MOL0     H94593  11.745   7.879   2.083 -2.1323 -1.6585 -1.9948
  701MOL0     H94594  11.726   7.721   2.173  4.4193  1.3834  0.5704
  701MOL0     H94595  11.976   7.954   2.137 -1.1803  1.9680  1.2775
  701MOL0     H94596  12.212   7.885   2.175 -1.0130 -0.1098 -0.8628
  701MOL0     H94597  12.602   7.825   2.424 -0.6826  0.9171 -0.9643
  701MOL0     H94598  12.836   7.726   2.431 -0.3077 -0.5261  0.5915
  701MOL0     H94599  13.018   7.563   2.437  0.7421  0.4053 -1.8746
  701MOL0     H94600  12.881   7.451   2.462 -1.6102  0.0677 -1.5346
  701MOL0     H94601  13.016   7.272   2.456  1.5374 -2.5806 -2.1846
  701MOL0     H94602  13.067   7.312   2.297  0.4000 -0.0799  0.7225
  701MOL0     H94603  13.232   7.475   2.389  1.0797  1.2883  3.8097
  701MOL0     H94604  13.215   7.405   2.547  0.6656 -0.7325  0.4257
  701MOL0     H94605  13.273   7.234   2.291 -0.3725 -1.0830 -0.4705
  701MOL0     H94606  13.262   7.180   2.453 -2.8604  1.4418  0.5654
  701MOL0     H94607  13.477   7.307   2.502  2.4919  0.4603 -1.9498
  701MOL0     H94608  13.462   7.396   2.339  4.0088  1.1594  1.2474
  701MOL0     H94609  13.498   7.098   2.407  1.6865 -0.2499  1.0798
  701MOL0     H94610  13.493   7.151   2.246 -2.9816 -2.1814  1.8691
  701MOL0     H94611  13.700   7.266   2.444  0.0207  0.0427  0.2003
  701MOL0     H94612  13.673   7.321   2.273  1.0434  0.6822 -0.0302
  701MOL0     H94613  13.709   7.105   2.191 -0.6569  0.2920  1.6344
  701MOL0     H94614  13.852   7.158   2.263 -0.4820 -2.0329 -0.7179
  701MOL0     H94615  12.728   7.458   2.102 -2.5435 -1.8053  0.5470
  701MOL0     H94616  12.507   7.563   2.103 -0.3239 -2.7511  2.0543
  701MOL0     H94617  12.121   7.622   2.481  0.5593 -1.9318 -1.0837
  701MOL0     H94618  11.871   7.718   2.485  0.8582 -1.9062 -0.3504
  701MOL0     H94619  10.571   7.449   1.387 -1.1997  0.4371  0.3905
  701MOL0     H94620  10.343   7.461   1.286 -1.3275 -0.8474 -1.3588
  701MOL0     H94621  10.156   7.403   0.831  1.4893 -1.2857  1.2359
  701MOL0     H94622   9.960   7.449   0.702 -3.3741 -1.2845 -0.9738
  701MOL0     H94623   9.563   7.384   0.918  1.8814  0.9069 -0.0680
  701MOL0     H94624   9.550   7.275   0.788 -1.2578  1.7020 -2.9795
  701MOL0     H94625   9.536   7.452   0.624  0.6961  1.2016  1.0064
  701MOL0     H94626   9.516   7.569   0.755 -2.4970  0.0972 -0.5124
  701MOL0     H94627   9.328   7.420   0.859  1.9527  0.0024  0.8255
  701MOL0     H94628   9.328   7.341   0.702  0.0557  0.4758 -0.1377
  701MOL0     H94629   9.309   7.637   0.760 -2.0856 -0.3239  2.7119
  701MOL0     H94630   9.278   7.562   0.599 -0.5708  1.5851  0.7556
  701MOL0     H94631   8.901   7.524   0.780 -0.5397  0.6371  1.7121
  701MOL0     H94632   9.719   7.281   1.014  0.6836  0.8974  1.2584
  701MOL0     H94633   9.980   7.251   1.262  1.0383 -2.5189 -1.4274
  701MOL0     H94634   9.816   7.286   1.254  2.7628  2.8215  2.2324
  701MOL0     H94635   9.882   7.130   1.189  0.3233 -0.1021 -2.6798
  702MOL0     O94636  10.797   1.847   2.166  0.1821 -0.4637  0.3389
  702MOL0     C94637  10.683   1.871   2.192 -0.2482  0.4892 -0.0774
  702MOL0     O94638  10.646   1.942   2.297  0.2772  0.3944 -0.0372
  702MOL0     C94639  10.744   1.994   2.377 -0.4127 -0.2254 -0.6321
  702MOL0     C94640  10.786   1.928   2.492 -0.6883 -0.2569 -0.6981
  702MOL0     C94641  10.886   1.974   2.581  0.7980 -0.4802 -0.3153
  702MOL0     C94642  10.950   2.096   2.549 -0.7086 -0.1357 -0.0456
  702MOL0     O94643  11.056   2.148   2.621 -0.1735  0.2770  0.3842
  702MOL0     C94644  11.074   2.093   2.755  0.4603 -0.3132  0.3467
  702MOL0     C94645  11.209   2.154   2.791  0.3769  0.1870 -0.3723
  702MOL0     C94646  11.217   2.181   2.947  0.1975  0.4820 -0.0212
  702MOL0     C94647  11.258   2.042   3.005  0.6139  0.2496  0.0209
  702MOL0     C94648  11.253   2.056   3.164 -0.0197 -0.1185  0.2907
  702MOL0     C94649  11.281   1.922   3.219 -0.8764  0.0110 -0.1402
  702MOL0     C94650  11.434   1.891   3.232  0.8806  0.1426  0.0341
  702MOL0     C94651  11.500   1.981   3.338 -0.3948  0.2399  0.0175
  702MOL0     N94652  11.634   1.930   3.373 -1.2560 -0.5170 -0.0599
  702MOL0     C94653  11.749   1.967   3.311 -0.1371  0.9215  0.3535
  702MOL0     C94654  11.844   1.897   3.375 -0.6737 -0.8748 -0.2798
  702MOL0     C94655  11.992   1.887   3.326  0.0111  0.0175 -0.2335
  702MOL0     C94656  12.115   1.916   3.416 -0.1843 -0.2642 -1.0364
  702MOL0     C94657  12.100   2.040   3.499  0.4173  0.6522  1.5233
  702MOL0     C94658  12.226   2.044   3.579 -0.0868  0.6471  0.0089
  702MOL0     O94659  12.211   2.133   3.687 -0.3465  0.1367 -0.6238
  702MOL0     C94660  12.295   2.239   3.707  0.0698  0.9543 -0.1699
  702MOL0     C94661  12.396   2.288   3.619  0.3097  0.4809 -0.3782
  702MOL0     C94662  12.466   2.400   3.652 -0.1393 -0.1190  0.1404
  702MOL0     C94663  12.447   2.463   3.776  0.5722  0.3026 -0.7026
  702MOL0     C94664  12.517   2.589   3.820 -0.5472  0.2562  0.2566
  702MOL0     O94665  12.506   2.633   3.950  0.1799 -0.0160  0.6891
  702MOL0     C94666  12.589   2.732   3.993 -0.1717  0.5832 -0.5380
  702MOL0     C94667  12.658   2.702   4.104 -0.1122 -1.0282  0.0168
  702MOL0     C94668  12.753   2.793   4.157 -0.7199  0.2158 -0.7665
  702MOL0     C94669  12.773   2.917   4.095  0.1431  0.1786 -0.0908
  702MOL0     O94670  12.871   2.995   4.147 -0.0934 -0.6945 -0.6032
  702MOL0     C94671  12.901   3.128   4.085 -0.1410  0.0734 -0.7724
  702MOL0     C94672  13.029   3.192   4.142 -0.1228  0.1721  0.0133
  702MOL0     C94673  13.143   3.091   4.171  0.0844  0.9131  0.2391
  702MOL0     C94674  13.276   3.148   4.214  0.5447 -0.8477 -0.5115
  702MOL0     C94675  13.378   3.181   4.099 -0.1720  0.1537 -0.4916
  702MOL0     C94676  13.506   3.234   4.162  0.5639  0.4567 -0.0233
  702MOL0     C94677  13.617   3.255   4.068  0.1160 -0.0035 -0.2253
  702MOL0     C94678  13.746   3.305   4.132  0.5724  0.6378 -0.5307
  702MOL0    Cl94679  13.732   3.462   4.207 -0.0192  0.4349 -0.2289
  702MOL0     C94680  12.702   2.948   3.980  0.1443  0.4221 -0.1615
  702MOL0     C94681  12.598   2.854   3.943  0.7296 -0.7654 -0.0687
  702MOL0     O94682  12.585   2.639   3.722  0.0723  0.1274  0.1441
  702MOL0     C94683  12.351   2.416   3.862  0.3354 -0.3760 -0.7776
  702MOL0     C94684  12.282   2.301   3.828 -1.0427 -0.2576 -0.0186
  702MOL0     N94685  11.783   1.830   3.481 -0.0234 -0.0794 -0.3373
  702MOL0     N94686  11.658   1.845   3.474 -0.4615  0.6735  0.6952
  702MOL0     C94687  10.917   2.158   2.423  0.1602  0.3882  0.0231
  702MOL0     C94688  10.813   2.108   2.341  0.2281 -0.4091  0.1909
  702MOL0     C94689  10.591   1.814   2.083  1.1067  0.7014 -0.9334
  702MOL0     C94690  10.616   1.813   1.947  0.3484  0.5984  0.2031
  702MOL0     C94691  10.528   1.772   1.848 -0.8037 -0.3800  1.0004
  702MOL0     C94692  10.404   1.727   1.886  0.2963  0.2962 -0.7369
  702MOL0     O94693  10.298   1.702   1.804 -0.4068 -0.9345  0.4532
  702MOL0     C94694  10.314   1.699   1.660 -0.8814  0.1647  0.5580
  702MOL0     C94695  10.398   1.588   1.592  0.4691  0.7616  1.2405
  702MOL0     C94696  10.317   1.464   1.546 -0.0028 -0.1045  0.2560
  702MOL0     C94697  10.413   1.355   1.505  0.2678  0.8493  0.2488
  702MOL0     C94698  10.485   1.387   1.372  0.6124 -1.2985 -0.4189
  702MOL0     C94699  10.545   1.426   1.273 -0.1573  0.2186  0.4733
  702MOL0     C94700  10.376   1.714   2.019 -0.1743  0.6527 -0.2076
  702MOL0     C94701  10.461   1.753   2.128 -0.3535 -0.1832  0.3807
  702MOL0     C94702  10.417   1.729   2.268  0.6460 -0.2742 -0.8051
  702MOL0     H94703  10.727   1.838   2.512 -1.3918  0.2950 -0.2222
  702MOL0     H94704  10.911   1.904   2.660  0.8502 -0.8730 -0.6726
  702MOL0     H94705  10.998   2.134   2.821  3.1005  3.5956  1.3157
  702MOL0     H94706  11.087   1.984   2.764 -0.8418 -0.4085  1.3485
  702MOL0     H94707  11.238   2.249   2.745  3.4567 -0.2560  0.4427
  702MOL0     H94708  11.294   2.091   2.763 -0.9258 -0.0634 -4.3055
  702MOL0     H94709  11.122   2.215   2.989 -0.6969 -0.0420 -1.5495
  702MOL0     H94710  11.290   2.262   2.960 -0.4761  0.9757  0.7919
  702MOL0     H94711  11.178   1.975   2.971  1.2158 -0.1463 -0.6326
  702MOL0     H94712  11.355   2.004   2.972 -0.7269 -1.6964 -2.0009
  702MOL0     H94713  11.310   2.139   3.207  0.1836  0.8691 -1.7567
  702MOL0     H94714  11.151   2.085   3.192 -0.3212 -2.4877  1.9028
  702MOL0     H94715  11.240   1.933   3.320  1.9744  1.1172  1.0090
  702MOL0     H94716  11.230   1.851   3.154 -0.4623  0.5809 -1.1063
  702MOL0     H94717  11.468   1.923   3.133 -3.1388  0.5635 -1.4129
  702MOL0     H94718  11.453   1.786   3.253 -0.2086 -0.0554  0.1129
  702MOL0     H94719  11.512   2.088   3.319 -0.0667  0.2714  0.4003
  702MOL0     H94720  11.439   1.975   3.429 -0.5669 -0.5577 -0.1375
  702MOL0     H94721  11.760   2.026   3.220  0.9684  2.6875  1.5737
  702MOL0     H94722  12.012   1.788   3.283  1.4528 -0.2882  1.0346
  702MOL0     H94723  11.989   1.951   3.237 -1.0508 -2.4743 -2.0956
  702MOL0     H94724  12.126   1.828   3.480  1.9334 -0.6249 -1.8441
  702MOL0     H94725  12.213   1.926   3.369  0.3900  1.7751  0.4406
  702MOL0     H94726  12.014   2.014   3.561  1.0767  3.6334  3.9376
  702MOL0     H94727  12.080   2.134   3.446 -2.7376 -0.0807  1.2030
  702MOL0     H94728  12.314   2.068   3.517 -0.4085 -0.2804 -0.8368
  702MOL0     H94729  12.263   1.945   3.609 -0.0796  0.8582  0.7089
  702MOL0     H94730  12.421   2.242   3.523 -1.8862  0.3480 -0.9482
  702MOL0     H94731  12.524   2.432   3.566 -0.5717 -2.5599 -1.1380
  702MOL0     H94732  12.646   2.604   4.147  0.6496 -0.8793  0.5832
  702MOL0     H94733  12.814   2.773   4.244 -1.3635 -3.4045 -1.0221
  702MOL0     H94734  12.922   3.114   3.979 -2.1314 -1.8306 -0.9978
  702MOL0     H94735  12.812   3.192   4.092  1.0339  1.6288  0.7343
  702MOL0     H94736  13.052   3.267   4.066 -0.6249 -0.8551 -1.1798
  702MOL0     H94737  13.002   3.242   4.236 -2.0828  0.9555 -0.9140
  702MOL0     H94738  13.111   3.029   4.256  2.0404 -0.0030  0.3562
  702MOL0     H94739  13.166   3.024   4.088  3.3634 -0.3767  2.0199
  702MOL0     H94740  13.329   3.077   4.278 -0.1792 -0.0045  1.1083
  702MOL0     H94741  13.255   3.235   4.277 -1.4256 -3.1735  2.3544
  702MOL0     H94742  13.338   3.255   4.028  0.2611 -0.6928 -1.6478
  702MOL0     H94743  13.403   3.086   4.052  0.9860 -0.4465  1.2462
  702MOL0     H94744  13.485   3.322   4.224 -0.0657  0.7426 -0.6186
  702MOL0     H94745  13.562   3.165   4.226  2.3139  0.3469 -1.6000
  702MOL0     H94746  13.573   3.333   4.004 -2.7816 -0.5705  0.9024
  702MOL0     H94747  13.649   3.166   4.013  0.5796 -0.2560  0.4387
  702MOL0     H94748  13.796   3.244   4.207  2.5884  2.9581  0.1657
  702MOL0     H94749  13.820   3.325   4.054  0.9146  1.2730 -0.0540
  702MOL0     H94750  12.705   3.038   3.918  1.2657 -0.9686 -2.2640
  702MOL0     H94751  12.530   2.873   3.860  1.7084  0.0807 -0.6988
  702MOL0     H94752  12.335   2.472   3.954  1.2660  2.3633 -2.1733
  702MOL0     H94753  12.215   2.262   3.904 -0.3853  2.1791  1.9440
  702MOL0     H94754  10.966   2.252   2.401 -0.6600  0.9798  0.6992
  702MOL0     H94755  10.782   2.175   2.261 -2.2375 -0.5900  0.9138
  702MOL0     H94756  10.716   1.842   1.916  0.7445  0.7058  1.5229
  702MOL0     H94757  10.558   1.775   1.744 -0.7919  0.0744  1.0177
  702MOL0     H94758  10.355   1.797   1.634  1.4385 -0.7204  0.6258
  702MOL0     H94759  10.213   1.685   1.620 -0.3784  0.5224 -0.8741
  702MOL0     H94760  10.486   1.559   1.650  1.6859  2.9549  0.5900
  702MOL0     H94761  10.437   1.634   1.501  3.3241 -2.5286  0.5933
  702MOL0     H94762  10.250   1.493   1.464 -2.0154  0.8477  2.1475
  702MOL0     H94763  10.264   1.423   1.632  0.8831  0.2437  0.9756
  702MOL0     H94764  10.490   1.343   1.581  2.5785  2.2646 -1.7122
  702MOL0     H94765  10.360   1.259   1.501  0.1899  0.7579  2.5156
  702MOL0     H94766  10.586   1.463   1.182  0.0027  0.7303  0.7524
  702MOL0     H94767  10.281   1.665   2.042  0.6796  0.1849  2.7263
  702MOL0     H94768  10.510   1.711   2.324 -0.8969 -1.2517  1.5882
  702MOL0     H94769  10.367   1.809   2.323  0.2660 -2.1777  1.7979
  702MOL0     H94770  10.352   1.642   2.279 -0.0926  0.4233  0.5462
  703MOL0     O94771   9.758   8.294   2.914  0.5694  0.2045  0.2468
  703MOL0     C94772   9.701   8.246   2.818  0.4323 -0.2314  1.0764
  703MOL0     O94773   9.765   8.194   2.704 -0.3846  0.1569 -0.1179
  703MOL0     C94774   9.898   8.225   2.672  0.3663  0.6641  0.0501
  703MOL0     C94775   9.933   8.359   2.668 -0.1472  0.2503  0.4520
  703MOL0     C94776  10.061   8.398   2.627  0.0655 -0.3322  0.8979
  703MOL0     C94777  10.149   8.293   2.580  0.1815 -0.4711  0.0480
  703MOL0     O94778  10.284   8.315   2.548  0.5386  0.0788 -0.2160
  703MOL0     C94779  10.359   8.419   2.606  0.0464 -0.6288  0.7394
  703MOL0     C94780  10.503   8.412   2.550  0.7517  0.2872 -0.3095
  703MOL0     C94781  10.591   8.340   2.654 -0.9039 -0.5142 -0.6063
  703MOL0     C94782  10.728   8.299   2.598 -0.6054  1.0619  0.3143
  703MOL0     C94783  10.820   8.222   2.696  0.6781 -0.5597 -0.1521
  703MOL0     C94784  10.884   8.306   2.808  0.8922  0.2971  0.5179
  703MOL0     C94785  10.980   8.413   2.750  0.7221 -0.2432 -0.3037
  703MOL0     C94786  11.106   8.353   2.681 -0.0218  0.3992 -0.1569
  703MOL0     N94787  11.163   8.240   2.758  0.3750  0.4013 -0.0001
  703MOL0     C94788  11.221   8.261   2.878 -0.2977 -0.3840 -0.5237
  703MOL0     C94789  11.238   8.145   2.938 -0.5488 -0.9475 -0.6254
  703MOL0     C94790  11.301   8.132   3.078  0.4763 -0.0416  0.7266
  703MOL0     C94791  11.457   8.126   3.087  0.0784  0.7716 -0.3186
  703MOL0     C94792  11.515   8.243   3.013 -0.1205 -0.2834 -0.1047
  703MOL0     C94793  11.667   8.257   3.027 -0.4452 -0.2317  0.3236
  703MOL0     O94794  11.724   8.191   3.139 -0.2778  0.2604 -0.2685
  703MOL0     C94795  11.859   8.205   3.156 -0.8053  0.1018 -0.4073
  703MOL0     C94796  11.914   8.119   3.253  0.0643  0.3556  0.3248
  703MOL0     C94797  12.053   8.109   3.273 -0.1402  0.2105  0.1803
  703MOL0     C94798  12.144   8.198   3.205 -0.0686  0.4915 -0.3539
  703MOL0     C94799  12.283   8.174   3.233  1.1587  0.6810  0.1966
  703MOL0     O94800  12.360   8.237   3.144 -0.4230  0.6475  0.3573
  703MOL0     C94801  12.494   8.196   3.132 -0.3357  0.1255 -0.8810
  703MOL0     C94802  12.589   8.251   3.220 -0.2369  0.4187  0.2183
  703MOL0     C94803  12.726   8.217   3.219 -1.2655  0.6086 -0.7827
  703MOL0     C94804  12.757   8.119   3.119 -0.2949 -0.2585  0.4760
  703MOL0     O94805  12.887   8.073   3.091  0.3094 -0.3787 -0.1867
  703MOL0     C94806  12.987   8.176   3.077  0.1970 -0.1201  0.3488
  703MOL0     C94807  13.128   8.120   3.097  0.5176  0.1907 -0.0635
  703MOL0     C94808  13.177   8.102   3.239 -0.0489  0.2533 -0.0983
  703MOL0     C94809  13.324   8.086   3.246 -0.4116  0.7228 -0.2237
  703MOL0     C94810  13.367   8.060   3.388 -0.3909 -0.4756  0.5472
  703MOL0     C94811  13.520   8.075   3.406  0.6059  0.5559 -0.4107
  703MOL0     C94812  13.588   7.976   3.317  0.4039  0.1724 -0.5349
  703MOL0     C94813  13.734   7.995   3.322 -0.0852 -0.1566  0.0939
  703MOL0    Cl94814  13.813   7.857   3.231 -0.1875  0.1243  0.3348
  703MOL0     C94815  12.662   8.056   3.041  0.2426 -0.1417  0.5044
  703MOL0     C94816  12.532   8.097   3.048  0.5002 -1.0441  0.5061
  703MOL0     O94817  12.321   8.094   3.324  0.2279  0.3177 -0.4333
  703MOL0     C94818  12.088   8.285   3.108 -0.1716 -0.3103  0.6698
  703MOL0     C94819  11.948   8.285   3.083 -0.0733  0.0391  0.8467
  703MOL0     N94820  11.197   8.049   2.856  0.6506  0.2374  0.1698
  703MOL0     N94821  11.146   8.107   2.746  0.3463 -0.4456  0.2163
  703MOL0     C94822  10.107   8.162   2.567 -0.5993 -0.9812 -0.3712
  703MOL0     C94823   9.986   8.131   2.620  0.1785  0.3730  0.2791
  703MOL0     C94824   9.551   8.218   2.823 -0.1758  0.6061 -0.7927
  703MOL0     C94825   9.498   8.099   2.766  0.2189  0.8046 -0.9276
  703MOL0     C94826   9.353   8.079   2.747 -0.4718  0.1352 -0.9687
  703MOL0     C94827   9.259   8.172   2.804 -0.0188  0.1418 -0.1023
  703MOL0     O94828   9.120   8.166   2.794  0.6269 -0.8157  0.8863
  703MOL0     C94829   9.067   8.049   2.734  0.4004  0.6990 -0.1882
  703MOL0     C94830   9.064   8.070   2.584 -1.0785  0.3326  0.1631
  703MOL0     C94831   8.939   8.151   2.542 -0.2121 -0.4733 -0.2923
  703MOL0     C94832   8.958   8.308   2.510  0.3555  1.0510 -0.3527
  703MOL0     C94833   9.011   8.380   2.621  1.0551 -0.7221  0.4805
  703MOL0     C94834   9.060   8.457   2.699  0.5572 -0.2748  0.4658
  703MOL0     C94835   9.312   8.287   2.871  0.9006  0.1783  0.0688
  703MOL0     C94836   9.456   8.314   2.880  0.4035 -0.4474 -0.1205
  703MOL0     C94837   9.485   8.437   2.955 -0.8763  0.4799 -0.5969
  703MOL0     H94838   9.859   8.434   2.692 -2.8949 -1.9369 -0.6551
  703MOL0     H94839  10.084   8.504   2.636 -2.3110  0.2011  1.3544
  703MOL0     H94840  10.312   8.516   2.585 -0.7036 -1.0003  0.6581
  703MOL0     H94841  10.369   8.400   2.713 -0.8536 -2.0294  0.5912
  703MOL0     H94842  10.553   8.508   2.538  0.9863  0.5953  2.3877
  703MOL0     H94843  10.503   8.360   2.454 -0.5255  0.8582 -0.6467
  703MOL0     H94844  10.528   8.256   2.688 -0.7714 -0.4864 -0.2900
  703MOL0     H94845  10.595   8.404   2.743  0.4605 -1.1511 -0.1847
  703MOL0     H94846  10.711   8.240   2.508  0.0030  2.1180 -0.5206
  703MOL0     H94847  10.769   8.391   2.555 -1.8995  0.1460 -3.1756
  703MOL0     H94848  10.765   8.140   2.744  0.0196 -2.0468 -3.1998
  703MOL0     H94849  10.902   8.176   2.641  0.3916 -0.0900 -0.9968
  703MOL0     H94850  10.798   8.351   2.859  1.3683 -0.9127  2.4676
  703MOL0     H94851  10.938   8.240   2.876  0.1141  0.6383  1.4906
  703MOL0     H94852  11.026   8.478   2.825  3.5752 -1.0311 -1.2165
  703MOL0     H94853  10.926   8.477   2.679  1.7603  1.7683  0.6250
  703MOL0     H94854  11.076   8.312   2.584 -2.7467  0.3667  0.6170
  703MOL0     H94855  11.191   8.420   2.665  1.0668 -0.6065  1.1372
  703MOL0     H94856  11.246   8.357   2.922  3.0280 -1.5031  0.3018
  703MOL0     H94857  11.263   8.213   3.142  0.9475 -0.2981  1.3452
  703MOL0     H94858  11.258   8.041   3.122 -3.3840 -0.1544 -2.7297
  703MOL0     H94859  11.503   8.126   3.186  1.3139 -1.4719 -0.8145
  703MOL0     H94860  11.484   8.030   3.041  1.8674  0.7148  0.7731
  703MOL0     H94861  11.461   8.329   3.053 -1.2424 -1.0220  0.0109
  703MOL0     H94862  11.491   8.240   2.906  3.0404 -1.0024 -0.9175
  703MOL0     H94863  11.679   8.365   3.033 -0.5747 -0.2942  2.2813
  703MOL0     H94864  11.714   8.222   2.934  0.2111 -0.9372  0.9097
  703MOL0     H94865  11.852   8.049   3.310  1.4732 -1.1387  0.0892
  703MOL0     H94866  12.087   8.031   3.340  0.3870  1.4529  1.4132
  703MOL0     H94867  12.559   8.317   3.300 -0.3341 -2.0764  2.3933
  703MOL0     H94868  12.797   8.262   3.288  0.3707 -1.2187 -1.1962
  703MOL0     H94869  12.980   8.230   2.982  0.8608 -0.3154  0.1837
  703MOL0     H94870  12.963   8.250   3.154 -4.5664  3.2331 -3.6833
  703MOL0     H94871  13.133   8.020   3.051  0.1924 -0.3135  0.9789
  703MOL0     H94872  13.197   8.193   3.055 -0.0670  2.2398  2.3279
  703MOL0     H94873  13.164   8.194   3.297 -2.3916 -0.1102  0.0287
  703MOL0     H94874  13.121   8.015   3.275 -1.7720  1.5449  0.4420
  703MOL0     H94875  13.384   8.169   3.206  0.7787  0.0187  0.0469
  703MOL0     H94876  13.341   8.001   3.179  0.9658 -0.9567  2.0968
  703MOL0     H94877  13.336   7.963   3.428 -0.4733 -0.3470  0.8014
  703MOL0     H94878  13.313   8.132   3.450  0.2904 -0.8404  1.5950
  703MOL0     H94879  13.550   8.177   3.380 -2.7289  1.0452 -2.9684
  703MOL0     H94880  13.537   8.064   3.514 -0.5580 -0.0760 -0.2796
  703MOL0     H94881  13.557   7.990   3.213 -1.5321 -3.1360 -0.5280
  703MOL0     H94882  13.570   7.876   3.358  2.5742  0.6645  1.8887
  703MOL0     H94883  13.763   8.091   3.278 -0.0336 -0.0067  0.4501
  703MOL0     H94884  13.773   7.986   3.424  0.2366  0.0065 -0.0137
  703MOL0     H94885  12.697   7.976   2.978 -0.9131  0.8805 -1.5454
  703MOL0     H94886  12.466   8.052   2.975 -0.4666  0.6240  0.3012
  703MOL0     H94887  12.152   8.341   3.041 -0.8902  0.3029  0.4809
  703MOL0     H94888  11.919   8.357   3.007 -0.3878 -0.2338  0.7103
  703MOL0     H94889  10.176   8.090   2.524 -0.3921  0.8564 -3.4185
  703MOL0     H94890   9.947   8.032   2.599  1.3868 -0.1283  0.2753
  703MOL0     H94891   9.573   8.027   2.734 -0.2070  0.7929 -1.9112
  703MOL0     H94892   9.318   7.992   2.692  0.9008  1.5815 -4.4637
  703MOL0     H94893   8.964   8.035   2.768  0.4476 -0.3171 -0.4245
  703MOL0     H94894   9.123   7.961   2.764  0.7897  1.0280  0.0625
  703MOL0     H94895   9.062   7.970   2.540  2.2706 -0.5196  1.6556
  703MOL0     H94896   9.154   8.116   2.542 -1.9290  2.0102  0.0649
  703MOL0     H94897   8.855   8.136   2.611  1.2341  1.5351  2.0561
  703MOL0     H94898   8.914   8.098   2.449 -0.6784 -3.1462  1.2705
  703MOL0     H94899   9.029   8.333   2.430 -2.0361 -1.9896 -3.7494
  703MOL0     H94900   8.860   8.350   2.485  0.2750  0.6143 -0.7962
  703MOL0     H94901   9.118   8.527   2.755  2.0653 -0.5901 -0.6311
  703MOL0     H94902   9.237   8.355   2.910  2.0882  0.0580  2.8513
  703MOL0     H94903   9.450   8.526   2.902 -0.6167 -0.0561 -1.6899
  703MOL0     H94904   9.443   8.433   3.056  0.9698  1.1119  0.2556
  703MOL0     H94905   9.593   8.449   2.970 -0.3348 -1.1162 -2.7128
  704MOL0     O94906   7.064   1.879   8.105  0.4132  0.1114  0.5012
  704MOL0     C94907   6.982   1.802   8.061  0.1416 -0.4463  0.5478
  704MOL0     O94908   6.973   1.671   8.110 -0.4150 -0.1199  0.5372
  704MOL0     C94909   7.067   1.629   8.203  0.6814  0.2879  0.4662
  704MOL0     C94910   7.205   1.640   8.188  0.3296  0.4487  0.1751
  704MOL0     C94911   7.292   1.599   8.286 -0.8981  0.2026 -0.8189
  704MOL0     C94912   7.251   1.554   8.417 -0.6349 -0.5617 -0.0937
  704MOL0     O94913   7.334   1.520   8.525  0.2191 -0.4112 -0.4197
  704MOL0     C94914   7.476   1.514   8.506  0.6770  0.4873 -0.4368
  704MOL0     C94915   7.552   1.489   8.631  0.6225 -0.4289  0.4064
  704MOL0     C94916   7.519   1.596   8.743 -0.5123  0.0482 -0.3630
  704MOL0     C94917   7.623   1.613   8.844  0.0273  0.0218  0.3944
  704MOL0     C94918   7.591   1.704   8.967 -0.5121  0.7217  0.0832
  704MOL0     C94919   7.713   1.740   9.039  0.2596  0.1824 -0.3530
  704MOL0     C94920   7.794   1.634   9.112  0.4395  0.4414 -0.2945
  704MOL0     C94921   7.713   1.526   9.188 -0.9225  0.6136 -0.7186
  704MOL0     N94922   7.636   1.596   9.289  0.9381  0.4809  0.0883
  704MOL0     C94923   7.660   1.649   9.406  0.4874  0.9400 -0.0319
  704MOL0     C94924   7.542   1.688   9.452 -0.0700  0.7854  0.9421
  704MOL0     C94925   7.513   1.770   9.568  0.3278 -0.7755  0.4486
  704MOL0     C94926   7.590   1.725   9.693 -0.0473  0.2825 -0.0480
  704MOL0     C94927   7.500   1.607   9.762 -0.7333 -0.2505  0.1964
  704MOL0     C94928   7.553   1.538   9.888 -0.2079 -0.1145 -0.0113
  704MOL0     O94929   7.664   1.600   9.955 -0.1430  1.5611  0.6832
  704MOL0     C94930   7.790   1.556   9.907  0.2112  0.4398  0.5593
  704MOL0     C94931   7.819   1.484   9.786 -0.3697 -0.9751 -0.6114
  704MOL0     C94932   7.951   1.438   9.764  0.4313  0.3790  0.5963
  704MOL0     C94933   8.062   1.477   9.841  0.9186 -0.0008  0.7143
  704MOL0     C94934   8.191   1.413   9.814 -0.1945 -1.3596 -0.2760
  704MOL0     O94935   8.202   1.315   9.720  0.2956 -0.0875 -0.2503
  704MOL0     C94936   8.332   1.272   9.696 -0.8663 -0.5454  0.8776
  704MOL0     C94937   8.376   1.251   9.560  0.4370 -0.3346 -0.5234
  704MOL0     C94938   8.508   1.207   9.530 -0.6960  0.3019 -0.3248
  704MOL0     C94939   8.599   1.180   9.637  0.1680 -0.2817  0.6775
  704MOL0     O94940   8.731   1.140   9.618 -0.4507 -0.5232 -0.2458
  704MOL0     C94941   8.778   1.097   9.493 -0.7128  0.1732  0.4878
  704MOL0     C94942   8.928   1.064   9.498  0.0664  0.3082 -0.5769
  704MOL0     C94943   8.963   0.945   9.395  0.3917 -0.2845  0.2058
  704MOL0     C94944   9.110   0.912   9.430  0.6397 -0.5066  0.7117
  704MOL0     C94945   9.168   0.793   9.335  0.5026 -0.0716 -0.5764
  704MOL0     C94946   9.317   0.779   9.347 -0.7839 -0.7886  0.1107
  704MOL0     C94947   9.394   0.882   9.254  0.7254 -0.2773  0.2594
  704MOL0     C94948   9.547   0.875   9.271 -0.4178  0.2146  0.6526
  704MOL0    Cl94949   9.622   0.998   9.169  0.2550  0.1870 -0.1074
  704MOL0     C94950   8.551   1.173   9.767  0.6658  0.0434 -0.6838
  704MOL0     C94951   8.422   1.223   9.797 -0.1264 -0.3737  0.0038
  704MOL0     O94952   8.285   1.467   9.880 -0.2640  0.1159  1.0305
  704MOL0     C94953   8.030   1.566   9.956  0.3600  0.7591 -0.1992
  704MOL0     C94954   7.895   1.609   9.978  0.6284  0.3494 -0.7740
  704MOL0     N94955   7.447   1.646   9.366  0.1293 -0.2399  0.1857
  704MOL0     N94956   7.504   1.585   9.267  0.2568  0.6554  0.8072
  704MOL0     C94957   7.112   1.539   8.428 -0.4813 -0.3425 -0.3723
  704MOL0     C94958   7.023   1.576   8.327  0.3983 -0.4632  0.4145
  704MOL0     C94959   6.866   1.839   7.967 -0.4212  0.5780  0.2056
  704MOL0     C94960   6.744   1.770   7.981  0.9787  0.4584  0.3112
  704MOL0     C94961   6.638   1.815   7.903 -0.2480 -0.6142  0.4424
  704MOL0     C94962   6.647   1.915   7.806 -0.2174  0.4415  0.0250
  704MOL0     O94963   6.541   1.959   7.734  0.6720  0.3082 -0.2981
  704MOL0     C94964   6.481   1.860   7.641  0.2295 -0.0183 -0.1276
  704MOL0     C94965   6.332   1.872   7.617 -0.2594  0.3340  1.8065
  704MOL0     C94966   6.266   1.827   7.744  0.5475  0.2103 -0.4421
  704MOL0     C94967   6.113   1.816   7.739 -0.2154 -1.0650  0.1528
  704MOL0     C94968   6.054   1.751   7.856 -0.0257  0.5401 -0.7665
  704MOL0     C94969   6.020   1.673   7.943 -0.1419  0.0165 -0.2912
  704MOL0     C94970   6.766   1.984   7.808  0.5182  0.1124  0.8075
  704MOL0     C94971   6.875   1.952   7.884  0.1007  0.2810  0.1814
  704MOL0     C94972   7.006   2.031   7.867 -0.1427 -0.1557  0.4064
  704MOL0     H94973   7.257   1.665   8.096  0.1037 -1.3264 -0.4755
  704MOL0     H94974   7.398   1.583   8.267 -0.1997  0.4189  2.2208
  704MOL0     H94975   7.492   1.438   8.429  0.6665 -0.7142  0.6961
  704MOL0     H94976   7.506   1.613   8.471  1.3409  1.0893  1.6456
  704MOL0     H94977   7.657   1.501   8.603 -0.0316  1.5673 -1.4936
  704MOL0     H94978   7.534   1.386   8.664 -1.3055  0.6182  2.9141
  704MOL0     H94979   7.422   1.560   8.780 -0.2680 -0.3384 -0.0924
  704MOL0     H94980   7.507   1.695   8.699  1.7801  1.5840  2.1795
  704MOL0     H94981   7.651   1.512   8.873  2.5060  0.3659 -0.5752
  704MOL0     H94982   7.711   1.659   8.798  2.4784 -2.2516  2.5064
  704MOL0     H94983   7.548   1.800   8.938 -1.3917  0.4387  0.4113
  704MOL0     H94984   7.514   1.658   9.030  0.3620 -0.6032  0.2223
  704MOL0     H94985   7.773   1.799   8.970 -0.8138  0.0853 -1.3958
  704MOL0     H94986   7.679   1.814   9.113  1.1596  1.9906 -1.6537
  704MOL0     H94987   7.865   1.686   9.176  0.0312  0.9418 -0.2396
  704MOL0     H94988   7.855   1.583   9.037  2.6189 -0.5994  2.0219
  704MOL0     H94989   7.648   1.465   9.125 -1.7252  0.1303  0.5197
  704MOL0     H94990   7.780   1.457   9.240 -0.1000  1.3827 -0.7340
  704MOL0     H94991   7.761   1.665   9.441  0.2204  1.7427  0.4122
  704MOL0     H94992   7.539   1.874   9.545  0.1231 -0.4494  1.6658
  704MOL0     H94993   7.406   1.765   9.587 -0.1927  0.6184 -1.7231
  704MOL0     H94994   7.683   1.684   9.653  0.0746 -0.1310  0.6325
  704MOL0     H94995   7.593   1.812   9.759 -2.6047 -0.3140  0.9823
  704MOL0     H94996   7.473   1.529   9.691 -1.1145 -0.5155  0.6281
  704MOL0     H94997   7.405   1.657   9.783  0.7397  1.8376  2.4150
  704MOL0     H94998   7.569   1.431   9.874 -2.9066 -0.6873  0.6381
  704MOL0     H94999   7.467   1.538   9.956  0.4351 -2.3566  0.8716
  704MOL0     H95000   7.741   1.455   9.716 -2.1026  0.9171  0.4434
  704MOL0     H95001   7.971   1.370   9.682 -0.7998 -1.9857  2.1590
  704MOL0     H95002   8.306   1.276   9.481 -0.1240 -0.5669 -0.1115
  704MOL0     H95003   8.550   1.210   9.430 -1.3578  2.6567 -0.6119
  704MOL0     H95004   8.722   1.009   9.458 -0.4397 -0.6652  2.0650
  704MOL0     H95005   8.769   1.178   9.420  1.6319  0.1703  0.1242
  704MOL0     H95006   8.990   1.149   9.467 -0.4929  1.0307  0.2541
  704MOL0     H95007   8.957   1.036   9.600  1.3777  1.1175 -0.7003
  704MOL0     H95008   8.908   0.852   9.410  1.8307 -1.1383  0.3096
  704MOL0     H95009   8.947   0.976   9.291 -0.1247 -4.0580 -0.9726
  704MOL0     H95010   9.128   0.896   9.537  2.2142  0.3778  0.6059
  704MOL0     H95011   9.165   1.003   9.404  0.4578 -0.3590  0.8329
  704MOL0     H95012   9.118   0.803   9.238 -1.4858 -0.2296  0.3765
  704MOL0     H95013   9.131   0.698   9.374  0.9208 -0.7645 -1.7987
  704MOL0     H95014   9.343   0.786   9.453  1.6605  0.4295 -0.4923
  704MOL0     H95015   9.345   0.678   9.317 -1.6131 -0.3236 -2.5198
  704MOL0     H95016   9.361   0.981   9.287 -2.4102 -1.7479  1.9766
  704MOL0     H95017   9.360   0.865   9.151 -2.0416  3.6807  0.2647
  704MOL0     H95018   9.573   0.878   9.377  1.8866 -0.1563  0.1555
  704MOL0     H95019   9.596   0.782   9.241 -0.3517  0.6129 -0.4952
  704MOL0     H95020   8.613   1.142   9.851 -0.2301 -1.0440 -0.4151
  704MOL0     H95021   8.383   1.209   9.897  0.6046  2.5618  0.8013
  704MOL0     H95022   8.101   1.609  10.026 -0.4417  0.0967  1.0640
  704MOL0     H95023   7.858   1.667  10.062 -1.0409  3.1911 -3.2175
  704MOL0     H95024   7.067   1.498   8.518 -0.7249  1.2268  0.2554
  704MOL0     H95025   6.916   1.566   8.337  0.2666 -4.4462 -2.5282
  704MOL0     H95026   6.737   1.682   8.045  0.6011  1.7245  2.0993
  704MOL0     H95027   6.539   1.771   7.900 -0.7316  0.4801 -0.4003
  704MOL0     H95028   6.491   1.760   7.685 -0.9036  0.0082  0.2104
  704MOL0     H95029   6.537   1.866   7.548 -0.4857 -0.7660 -0.6125
  704MOL0     H95030   6.296   1.800   7.543 -1.3282  3.8387 -1.3874
  704MOL0     H95031   6.291   1.971   7.593  1.7327  0.9688  0.8182
  704MOL0     H95032   6.300   1.889   7.828  3.0035 -0.8643 -0.5701
  704MOL0     H95033   6.302   1.726   7.767 -3.7800 -1.2266  0.9412
  704MOL0     H95034   6.064   1.913   7.721 -0.1047 -1.0273  0.0512
  704MOL0     H95035   6.097   1.745   7.657  1.1530 -0.4441 -0.6800
  704MOL0     H95036   5.982   1.594   8.005  1.4845 -1.4106 -1.0183
  704MOL0     H95037   6.762   2.062   7.732 -2.1857 -2.4117 -1.9430
  704MOL0     H95038   7.018   2.075   7.967 -0.8308 -0.0997  0.4716
  704MOL0     H95039   7.091   1.966   7.847  0.3598  0.6621 -0.1786
  704MOL0     H95040   6.988   2.098   7.783 -3.6595 -0.6697  0.5972
  705MOL0     O95041   2.249   5.784   7.965  0.8740  0.0047  0.0658
  705MOL0     C95042   2.212   5.720   7.866  0.0800  0.5238 -0.7930
  705MOL0     O95043   2.296   5.630   7.786 -0.0532 -0.6248  0.2566
  705MOL0     C95044   2.428   5.661   7.802  0.0415 -0.2174 -0.1450
  705MOL0     C95045   2.493   5.749   7.716 -0.3298 -0.2567 -0.3341
  705MOL0     C95046   2.636   5.754   7.704  0.4243  0.7315 -0.2331
  705MOL0     C95047   2.709   5.682   7.802 -0.6640  0.7894 -1.1388
  705MOL0     O95048   2.847   5.688   7.813 -0.1560 -0.3801  0.1907
  705MOL0     C95049   2.888   5.767   7.926  0.2966  0.4151  0.0011
  705MOL0     C95050   3.003   5.869   7.884 -0.6548 -0.1269 -0.0444
  705MOL0     C95051   2.950   5.962   7.773 -0.8000  0.3784  0.3136
  705MOL0     C95052   2.975   5.927   7.621 -0.5320  0.3107 -0.4678
  705MOL0     C95053   3.130   5.913   7.606  0.1131 -0.5306  0.0984
  705MOL0     C95054   3.186   5.759   7.612  0.1674 -0.7308  0.2864
  705MOL0     C95055   3.344   5.746   7.608 -0.2914 -0.5473  0.1014
  705MOL0     C95056   3.413   5.791   7.737 -0.7657  0.7663 -0.8079
  705MOL0     N95057   3.553   5.755   7.740 -0.2134 -0.3579  1.1314
  705MOL0     C95058   3.612   5.640   7.762 -0.3344  0.4250 -0.0919
  705MOL0     C95059   3.748   5.661   7.726 -0.7204 -0.3715  0.1405
  705MOL0     C95060   3.860   5.560   7.735  0.2688  0.2798 -0.1549
  705MOL0     C95061   3.947   5.560   7.613 -0.8367  0.0454 -0.7709
  705MOL0     C95062   4.070   5.469   7.620  0.9787  0.6795 -0.0822
  705MOL0     C95063   4.151   5.466   7.478  0.0656  1.0213 -0.5897
  705MOL0     O95064   4.212   5.591   7.447 -0.2879 -0.8768 -0.3029
  705MOL0     C95065   4.344   5.618   7.479  0.1455  0.1694  0.0792
  705MOL0     C95066   4.409   5.729   7.440 -0.1691 -1.0337  0.7900
  705MOL0     C95067   4.537   5.755   7.476  0.6687 -0.4273  0.6990
  705MOL0     C95068   4.614   5.675   7.547  0.4283  0.7130 -0.8411
  705MOL0     C95069   4.750   5.726   7.583 -0.4257  0.3535 -0.2488
  705MOL0     O95070   4.824   5.621   7.627 -0.1078  0.1834  0.2305
  705MOL0     C95071   4.959   5.633   7.640  0.4104  0.3516  0.5705
  705MOL0     C95072   5.035   5.521   7.604  0.1820 -0.1114  0.1063
  705MOL0     C95073   5.178   5.530   7.615 -0.6133  0.8344  0.0702
  705MOL0     C95074   5.239   5.646   7.666  0.1721  1.0669 -0.5908
  705MOL0     O95075   5.374   5.654   7.667  0.1029 -0.7656 -0.7192
  705MOL0     C95076   5.448   5.550   7.733 -0.0359  0.0370  0.5723
  705MOL0     C95077   5.596   5.591   7.744  0.5498  0.8327  0.4249
  705MOL0     C95078   5.695   5.480   7.795  0.6768  0.3392 -0.0283
  705MOL0     C95079   5.835   5.534   7.818 -0.1697  0.5109  0.1557
  705MOL0     C95080   5.939   5.433   7.859  1.1296  0.6256  0.0378
  705MOL0     C95081   5.958   5.300   7.782 -0.3482  0.1618 -0.2659
  705MOL0     C95082   6.059   5.221   7.858  0.1366 -0.4917  0.3951
  705MOL0     C95083   6.087   5.078   7.825  0.3093  0.1001  0.0653
  705MOL0    Cl95084   6.200   5.070   7.687 -0.0038  0.0817  0.0083
  705MOL0     C95085   5.159   5.746   7.716 -0.2057  0.6227 -0.5021
  705MOL0     C95086   5.023   5.744   7.705  0.4525  0.4189 -0.5429
  705MOL0     O95087   4.789   5.835   7.554  0.2189 -0.5718 -0.2932
  705MOL0     C95088   4.552   5.560   7.598 -0.0796  0.4899  0.5654
  705MOL0     C95089   4.421   5.534   7.563 -0.0251 -0.0447  0.9657
  705MOL0     N95090   3.754   5.784   7.675 -0.5369 -0.2015 -0.5968
  705MOL0     N95091   3.647   5.838   7.691 -1.2535  0.4065 -0.3100
  705MOL0     C95092   2.648   5.592   7.889  0.4946 -0.6041 -0.6989
  705MOL0     C95093   2.506   5.585   7.892 -0.1031  0.3311 -0.1063
  705MOL0     C95094   2.073   5.747   7.817  0.2223  0.6722 -0.3286
  705MOL0     C95095   2.054   5.727   7.676 -1.1459 -0.6500  1.2784
  705MOL0     C95096   1.935   5.751   7.617 -0.3984  0.1952  1.5723
  705MOL0     C95097   1.824   5.794   7.688 -0.0544  0.2358 -0.5208
  705MOL0     O95098   1.719   5.822   7.611 -0.2713 -0.2167  0.5011
  705MOL0     C95099   1.591   5.789   7.662 -0.1311 -0.0962  0.6600
  705MOL0     C95100   1.516   5.921   7.700 -1.5609  0.4633  0.0315
  705MOL0     C95101   1.456   5.998   7.581 -0.0057 -0.8215 -0.2869
  705MOL0     C95102   1.317   5.948   7.540 -0.4769  0.2427 -0.2557
  705MOL0     C95103   1.231   6.047   7.489  0.4319  0.1381  0.4312
  705MOL0     C95104   1.161   6.134   7.440 -0.7317  1.1896  1.2451
  705MOL0     C95105   1.840   5.811   7.829 -0.1951 -0.6263  0.7467
  705MOL0     C95106   1.961   5.792   7.891 -0.5092  0.8030  0.0839
  705MOL0     C95107   1.967   5.822   8.041 -0.8502  0.5069  0.2891
  705MOL0     H95108   2.430   5.805   7.647 -1.5795  0.3830  1.2540
  705MOL0     H95109   2.691   5.805   7.626 -2.2277  2.3815 -1.1258
  705MOL0     H95110   2.800   5.816   7.967  0.1300  0.1667 -0.0555
  705MOL0     H95111   2.916   5.686   7.994 -5.2895 -3.0605 -1.1912
  705MOL0     H95112   3.086   5.805   7.854 -1.5057 -0.8479 -0.9114
  705MOL0     H95113   3.040   5.929   7.968  2.5167 -0.7767 -0.8492
  705MOL0     H95114   2.996   6.060   7.789  1.8652 -0.8997  1.0580
  705MOL0     H95115   2.841   5.973   7.781 -0.7221  1.4828  0.0269
  705MOL0     H95116   2.928   5.834   7.588  3.6612 -2.4034  0.4776
  705MOL0     H95117   2.932   6.010   7.564  1.3007 -1.5382 -5.0273
  705MOL0     H95118   3.167   5.971   7.521  0.3298 -1.0139 -0.1469
  705MOL0     H95119   3.180   5.953   7.695  1.6991  1.0785 -1.4473
  705MOL0     H95120   3.146   5.711   7.702 -1.7908  1.5260  0.7062
  705MOL0     H95121   3.145   5.714   7.521 -2.8037  0.6707  0.8393
  705MOL0     H95122   3.386   5.799   7.523 -1.7428  2.1136  0.9164
  705MOL0     H95123   3.362   5.638   7.606 -1.9885 -0.8317 -0.9631
  705MOL0     H95124   3.413   5.901   7.741 -3.3238  0.8641 -1.7611
  705MOL0     H95125   3.361   5.748   7.823  0.5920  0.5499 -0.0789
  705MOL0     H95126   3.570   5.544   7.791  1.7005 -0.2800  0.6848
  705MOL0     H95127   3.911   5.584   7.829  0.0776  0.3419 -0.0681
  705MOL0     H95128   3.822   5.458   7.740 -0.5543  0.5989  0.1916
  705MOL0     H95129   3.882   5.528   7.531 -1.8133 -1.0978  0.4145
  705MOL0     H95130   3.973   5.660   7.578 -1.3616  0.4039 -0.1504
  705MOL0     H95131   4.025   5.372   7.642 -2.7259  1.9882 -1.1872
  705MOL0     H95132   4.137   5.503   7.699  1.5086 -0.8032  0.1306
  705MOL0     H95133   4.070   5.460   7.405  0.3863 -3.3333 -0.8262
  705MOL0     H95134   4.225   5.387   7.464 -1.3461 -0.2880 -0.8997
  705MOL0     H95135   4.362   5.804   7.377  1.5769 -1.1076 -0.6849
  705MOL0     H95136   4.583   5.845   7.436  0.3012 -1.4964 -2.3844
  705MOL0     H95137   4.980   5.450   7.543 -0.9189  1.7038 -1.1399
  705MOL0     H95138   5.242   5.455   7.569 -1.6823  1.5079 -2.7435
  705MOL0     H95139   5.404   5.524   7.830  1.5577  0.2973  1.3943
  705MOL0     H95140   5.446   5.458   7.673 -1.2538  0.9582 -0.8691
  705MOL0     H95141   5.628   5.623   7.645  0.4967  0.8866  0.4243
  705MOL0     H95142   5.611   5.682   7.805  3.3339  0.9151 -0.2584
  705MOL0     H95143   5.648   5.435   7.883 -1.4893  3.2975  0.4804
  705MOL0     H95144   5.697   5.402   7.718  2.9857  0.7238 -0.4122
  705MOL0     H95145   5.830   5.620   7.885 -3.6899  0.5090  0.0559
  705MOL0     H95146   5.866   5.569   7.719 -4.8541 -2.2261 -2.5934
  705MOL0     H95147   5.921   5.409   7.964 -3.4315 -1.7910 -1.0136
  705MOL0     H95148   6.039   5.477   7.856  2.4433 -2.0989  0.5076
  705MOL0     H95149   5.867   5.243   7.765  0.3886 -1.1752  0.1711
  705MOL0     H95150   5.992   5.322   7.680  0.5809 -1.3378 -0.3109
  705MOL0     H95151   6.010   5.209   7.956  3.0279 -2.6279  1.7076
  705MOL0     H95152   6.154   5.274   7.859 -0.2709  0.2883 -0.4190
  705MOL0     H95153   6.131   5.031   7.914 -0.9976  4.4751  3.4160
  705MOL0     H95154   5.993   5.028   7.801 -1.4534  3.0207  0.3967
  705MOL0     H95155   5.227   5.822   7.752  0.8280  0.5737 -2.2240
  705MOL0     H95156   4.958   5.819   7.748 -1.3245 -1.3494  0.0354
  705MOL0     H95157   4.615   5.499   7.662  0.1226  1.0365  0.8938
  705MOL0     H95158   4.384   5.437   7.593 -0.0952 -0.6307 -0.8519
  705MOL0     H95159   2.708   5.526   7.951 -0.7853 -0.1028  1.1591
  705MOL0     H95160   2.448   5.518   7.954  0.9842 -2.1461 -1.6291
  705MOL0     H95161   2.123   5.687   7.602 -1.5950 -1.7879  1.4456
  705MOL0     H95162   1.921   5.734   7.511 -1.6551 -0.5930  1.8385
  705MOL0     H95163   1.585   5.721   7.747 -0.9730  2.1211  2.4661
  705MOL0     H95164   1.531   5.737   7.586  0.6329  0.0678 -0.0700
  705MOL0     H95165   1.586   5.995   7.740 -0.4171 -0.4937 -0.1628
  705MOL0     H95166   1.437   5.898   7.773 -0.0158 -3.2953  0.6998
  705MOL0     H95167   1.526   6.005   7.497  0.1171  0.3333 -0.1126
  705MOL0     H95168   1.434   6.100   7.616 -1.7222 -0.5568 -1.9997
  705MOL0     H95169   1.334   5.874   7.461 -1.7694  1.8099 -2.0823
  705MOL0     H95170   1.278   5.894   7.627  1.7631  0.4495  0.9512
  705MOL0     H95171   1.115   6.213   7.384 -1.3884 -1.5904 -2.5021
  705MOL0     H95172   1.759   5.848   7.891  1.7909 -0.5783  3.4764
  705MOL0     H95173   2.031   5.749   8.093 -0.9609  2.0182  2.7277
  705MOL0     H95174   2.015   5.920   8.054 -1.1569  0.7453 -0.3563
  705MOL0     H95175   1.873   5.815   8.096 -1.9622  0.1577 -1.5841
  706MOL0     O95176   0.528   1.539   5.814  0.1033  0.3957 -0.5285
  706MOL0     C95177   0.454   1.459   5.877  0.3836  0.5720  0.1598
  706MOL0     O95178   0.405   1.339   5.824 -0.3333 -0.4248 -0.0061
  706MOL0     C95179   0.480   1.268   5.725  0.3668  0.8534  0.1271
  706MOL0     C95180   0.580   1.306   5.631  0.8352 -0.9641 -0.4790
  706MOL0     C95181   0.642   1.217   5.547  0.0720  1.1350 -0.8343
  706MOL0     C95182   0.607   1.083   5.545  0.5932  0.1679 -0.3143
  706MOL0     O95183   0.675   0.994   5.467  0.5060 -0.8752  0.5494
  706MOL0     C95184   0.612   0.866   5.448  0.0687  0.0402  0.6845
  706MOL0     C95185   0.679   0.792   5.334 -0.2467 -0.4534  0.0354
  706MOL0     C95186   0.715   0.867   5.207 -0.4941 -0.5512  0.5419
  706MOL0     C95187   0.810   0.781   5.111  0.0993 -0.1571  0.3988
  706MOL0     C95188   0.887   0.871   5.010  0.4005 -0.2336  0.0473
  706MOL0     C95189   1.010   0.788   4.963  0.2200  0.0256  0.2272
  706MOL0     C95190   1.088   0.847   4.846  0.1267  0.2999  0.3319
  706MOL0     C95191   1.180   0.745   4.786  0.3226 -0.0633 -0.2188
  706MOL0     N95192   1.268   0.810   4.693  0.2384  0.0311 -0.1438
  706MOL0     C95193   1.385   0.864   4.721 -0.7334  0.8668  0.3763
  706MOL0     C95194   1.441   0.913   4.611  0.4738  0.4217 -0.1651
  706MOL0     C95195   1.563   0.999   4.603  0.2661 -0.2234  0.0918
  706MOL0     C95196   1.673   0.964   4.697 -1.0308 -0.3368  0.5941
  706MOL0     C95197   1.795   1.055   4.664  0.1045 -0.3873  0.1441
  706MOL0     C95198   1.925   1.040   4.751  0.0672 -0.1276 -0.1809
  706MOL0     O95199   2.002   1.161   4.732  0.4318  0.6883  0.3523
  706MOL0     C95200   2.141   1.151   4.738  0.1778 -0.2266  0.3220
  706MOL0     C95201   2.215   1.265   4.710 -0.3158 -0.0460  0.0409
  706MOL0     C95202   2.353   1.261   4.708 -0.0717 -0.2163 -0.8845
  706MOL0     C95203   2.419   1.140   4.733  0.1892  0.2006  0.5409
  706MOL0     C95204   2.571   1.139   4.719 -0.3248  0.0392  0.1817
  706MOL0     O95205   2.639   1.257   4.701  0.7867  0.5397 -0.7931
  706MOL0     C95206   2.775   1.264   4.716 -0.0737 -0.5598  0.1880
  706MOL0     C95207   2.867   1.153   4.730 -0.4840 -0.1189  1.2345
  706MOL0     C95208   3.008   1.170   4.706 -0.4347 -0.6480  0.5544
  706MOL0     C95209   3.063   1.301   4.692 -0.6706 -0.0458  0.2706
  706MOL0     O95210   3.193   1.341   4.655 -0.4003  0.7364 -0.0816
  706MOL0     C95211   3.300   1.249   4.678 -0.3090 -0.2622 -1.0328
  706MOL0     C95212   3.442   1.300   4.636 -0.2182 -0.7356 -0.9720
  706MOL0     C95213   3.560   1.228   4.691 -0.1121 -0.3776 -1.4331
  706MOL0     C95214   3.706   1.296   4.665  0.5502  0.0962 -0.3165
  706MOL0     C95215   3.817   1.210   4.714  0.2627  0.1190 -0.0206
  706MOL0     C95216   3.953   1.280   4.700 -0.1671 -0.2792  0.1822
  706MOL0     C95217   4.059   1.216   4.791 -0.8313 -0.6814  0.4325
  706MOL0     C95218   4.208   1.245   4.749  0.4308  0.2139 -0.6981
  706MOL0    Cl95219   4.242   1.415   4.697  0.5142 -0.5999  0.1347
  706MOL0     C95220   2.978   1.409   4.688  0.0118  0.3014 -1.0653
  706MOL0     C95221   2.835   1.388   4.701 -0.4644 -0.8291  1.9768
  706MOL0     O95222   2.612   1.032   4.755  0.5492  0.1835 -1.1709
  706MOL0     C95223   2.351   1.028   4.769  0.4695  0.0921 -0.2931
  706MOL0     C95224   2.212   1.035   4.773 -0.7015 -0.4553  0.3715
  706MOL0     N95225   1.340   0.899   4.516 -0.0044  0.1176  0.5099
  706MOL0     N95226   1.244   0.836   4.561  1.0729  0.1040 -0.8256
  706MOL0     C95227   0.501   1.040   5.636  0.0600  0.3202  1.0057
  706MOL0     C95228   0.444   1.130   5.725  0.5806  0.0131  1.0754
  706MOL0     C95229   0.391   1.507   6.007  0.4064 -0.4553  0.6936
  706MOL0     C95230   0.269   1.458   6.046 -0.2591 -0.3048 -0.4526
  706MOL0     C95231   0.193   1.532   6.138  0.5918  0.5819 -0.4703
  706MOL0     C95232   0.234   1.655   6.190 -0.3932  0.1851 -0.2699
  706MOL0     O95233   0.166   1.724   6.284 -0.1176 -0.2413 -0.1400
  706MOL0     C95234   0.125   1.649   6.404  0.6201  0.3989  0.3335
  706MOL0     C95235   0.241   1.600   6.487 -0.9704 -0.0172  0.1943
  706MOL0     C95236   0.326   1.719   6.555  0.1327 -0.0132  0.1063
  706MOL0     C95237   0.442   1.677   6.645 -0.0377  0.2546 -0.9941
  706MOL0     C95238   0.559   1.622   6.571  0.6442 -0.3979 -0.7955
  706MOL0     C95239   0.640   1.591   6.487 -0.2077  0.5049 -0.2965
  706MOL0     C95240   0.368   1.693   6.166 -0.9046  0.1135 -0.3458
  706MOL0     C95241   0.439   1.621   6.076 -0.4046  0.3566  0.4892
  706MOL0     C95242   0.590   1.658   6.057  0.2142  0.2046  0.4153
  706MOL0     H95243   0.623   1.405   5.624  1.4891 -1.3458 -2.7934
  706MOL0     H95244   0.726   1.242   5.483  2.4267 -0.3623  1.4609
  706MOL0     H95245   0.622   0.795   5.531 -0.4197 -1.6924 -0.6700
  706MOL0     H95246   0.509   0.883   5.415  0.9759  1.8049 -1.4752
  706MOL0     H95247   0.621   0.703   5.307 -2.5543  1.1150 -0.4685
  706MOL0     H95248   0.778   0.754   5.364 -0.6817 -0.5988  1.3242
  706MOL0     H95249   0.759   0.964   5.231 -0.1678 -0.3311 -0.8863
  706MOL0     H95250   0.631   0.891   5.141  1.6640  1.9927 -1.5380
  706MOL0     H95251   0.885   0.727   5.168 -0.7133 -3.4000 -1.3395
  706MOL0     H95252   0.760   0.700   5.056  0.8000 -0.4145  0.1352
  706MOL0     H95253   0.824   0.906   4.928  0.8704  3.3081  1.0395
  706MOL0     H95254   0.941   0.954   5.057  2.2727 -0.6574 -1.2203
  706MOL0     H95255   1.080   0.766   5.044 -1.3697  1.1557  2.0177
  706MOL0     H95256   0.983   0.686   4.935  4.7329 -1.5300  0.7005
  706MOL0     H95257   1.150   0.931   4.880  1.9208  0.9075 -3.8126
  706MOL0     H95258   1.021   0.878   4.766  1.8708 -2.0602 -2.2108
  706MOL0     H95259   1.243   0.702   4.864  2.3893  1.2708 -1.0776
  706MOL0     H95260   1.123   0.663   4.742  0.0393 -0.9846  1.7366
  706MOL0     H95261   1.430   0.869   4.820  0.6118 -3.0491  0.1293
  706MOL0     H95262   1.610   1.004   4.504  2.2498  1.3810  1.0347
  706MOL0     H95263   1.534   1.099   4.639 -1.8215 -0.2474 -1.3366
  706MOL0     H95264   1.654   0.994   4.800  1.8079  3.2887  0.2701
  706MOL0     H95265   1.696   0.858   4.691  2.0039  0.3097 -1.0430
  706MOL0     H95266   1.765   1.160   4.672  2.4090  0.1929  2.3882
  706MOL0     H95267   1.817   1.026   4.561  2.3187 -1.8504  0.9622
  706MOL0     H95268   1.972   0.958   4.696 -1.2821  0.3297 -2.1102
  706MOL0     H95269   1.900   1.014   4.854  0.6927  0.6958  0.1928
  706MOL0     H95270   2.164   1.359   4.693  1.9452  1.1293 -0.7301
  706MOL0     H95271   2.418   1.347   4.697 -0.5767  0.3582  0.3865
  706MOL0     H95272   2.824   1.055   4.751 -1.5134 -0.1614 -0.7425
  706MOL0     H95273   3.076   1.086   4.710 -0.5778 -0.7587  0.6929
  706MOL0     H95274   3.291   1.218   4.782 -3.2914 -0.1739 -1.1730
  706MOL0     H95275   3.281   1.154   4.628  2.2605 -0.5155 -1.6999
  706MOL0     H95276   3.443   1.292   4.527  0.9104 -2.6323 -0.8586
  706MOL0     H95277   3.452   1.404   4.669 -0.7034 -0.8329 -0.5084
  706MOL0     H95278   3.543   1.209   4.797  1.0407  1.1001 -0.9534
  706MOL0     H95279   3.552   1.131   4.640 -2.2543 -1.2957  0.4874
  706MOL0     H95280   3.712   1.394   4.713  1.7562 -0.2090  0.2030
  706MOL0     H95281   3.729   1.310   4.558  1.8476 -0.8736 -0.1940
  706MOL0     H95282   3.811   1.117   4.656  0.5848  2.2106 -3.6976
  706MOL0     H95283   3.804   1.203   4.822  2.3223 -2.1105  0.1635
  706MOL0     H95284   3.984   1.275   4.595  1.6525  0.0367  0.6729
  706MOL0     H95285   3.944   1.383   4.736 -0.8211  0.0284 -0.8359
  706MOL0     H95286   4.046   1.107   4.785 -0.3103 -0.6714 -1.7472
  706MOL0     H95287   4.039   1.242   4.895 -1.1307  1.3040 -0.0799
  706MOL0     H95288   4.282   1.213   4.824  0.3717  2.2434  0.3104
  706MOL0     H95289   4.220   1.180   4.663 -1.8289 -0.6925 -0.3948
  706MOL0     H95290   3.009   1.509   4.658  0.4724 -0.5353 -3.6820
  706MOL0     H95291   2.771   1.475   4.687  4.1264  2.5827 -0.4266
  706MOL0     H95292   2.400   0.932   4.783  3.9377  1.4988 -1.6356
  706MOL0     H95293   2.168   0.941   4.806  1.2085 -0.6851  2.5315
  706MOL0     H95294   0.485   0.933   5.637  0.1698  0.1718 -2.3105
  706MOL0     H95295   0.374   1.103   5.803 -0.1551  2.4948  1.3567
  706MOL0     H95296   0.220   1.370   6.004 -0.1741 -1.4196  1.6430
  706MOL0     H95297   0.094   1.497   6.165  0.7024  1.1596  0.7055
  706MOL0     H95298   0.047   1.575   6.383  0.9886  0.8037 -2.9893
  706MOL0     H95299   0.068   1.713   6.472  0.6332 -1.4141  2.1186
  706MOL0     H95300   0.297   1.541   6.415 -0.7347 -0.9423  1.1129
  706MOL0     H95301   0.199   1.532   6.562 -0.4889 -0.0125  0.4761
  706MOL0     H95302   0.262   1.781   6.619  0.1733 -0.8762  1.0119
  706MOL0     H95303   0.366   1.789   6.481  1.8980 -2.3323 -1.2479
  706MOL0     H95304   0.465   1.764   6.708  0.3636 -1.7344  1.7905
  706MOL0     H95305   0.403   1.609   6.721 -1.7931  0.4856 -1.6374
  706MOL0     H95306   0.718   1.547   6.429  0.8642 -0.2348  1.6341
  706MOL0     H95307   0.400   1.779   6.224 -1.3013  0.4191 -0.5692
  706MOL0     H95308   0.600   1.733   5.977 -2.0081 -1.8434 -1.9903
  706MOL0     H95309   0.619   1.700   6.153  0.4631 -0.7308  0.7621
  706MOL0     H95310   0.654   1.572   6.036  1.6900  1.0830  1.1813
  707MOL0     O95311   3.561   4.021   5.399 -0.6360  0.1256 -0.3626
  707MOL0     C95312   3.544   3.903   5.439  0.4006 -0.9459 -0.4480
  707MOL0     O95313   3.645   3.809   5.457  0.3400  0.2054 -0.1307
  707MOL0     C95314   3.770   3.826   5.409 -0.2158  0.2545  0.2916
  707MOL0     C95315   3.814   3.794   5.276 -1.2135  0.0334  0.1123
  707MOL0     C95316   3.947   3.818   5.238 -0.2342  0.3663  0.2011
  707MOL0     C95317   4.043   3.871   5.329 -0.2696  0.5911 -0.1861
  707MOL0     O95318   4.172   3.901   5.302  0.1325  0.9317  0.5514
  707MOL0     C95319   4.210   3.988   5.189 -0.4440  0.3924  0.5898
  707MOL0     C95320   4.343   4.057   5.237 -0.2817  0.3406  0.3933
  707MOL0     C95321   4.411   4.139   5.121  0.3388  0.3057  0.6242
  707MOL0     C95322   4.528   4.214   5.180  0.5828  0.4456  0.1006
  707MOL0     C95323   4.600   4.284   5.066 -0.0731  0.1071  0.1585
  707MOL0     C95324   4.729   4.347   5.114  0.5881  0.9037 -0.1617
  707MOL0     C95325   4.778   4.457   5.023 -0.6740 -0.3697 -0.0012
  707MOL0     C95326   4.809   4.416   4.887 -0.5510  0.4935  0.4665
  707MOL0     N95327   4.883   4.512   4.818 -0.1924  1.0342 -0.0638
  707MOL0     C95328   4.838   4.607   4.720 -0.8775  0.7678 -0.1179
  707MOL0     C95329   4.954   4.640   4.653  0.2957  0.8988  0.0361
  707MOL0     C95330   4.957   4.751   4.540  0.7073  0.3879 -0.3221
  707MOL0     C95331   5.091   4.800   4.515 -0.3383  0.1514  0.5336
  707MOL0     C95332   5.156   4.850   4.654 -0.2502  0.0913 -0.0188
  707MOL0     C95333   5.308   4.821   4.666 -0.0527  0.3296 -0.2955
  707MOL0     O95334   5.360   4.837   4.534  1.1334  0.4469 -0.5778
  707MOL0     C95335   5.466   4.914   4.519 -0.4091  0.3802 -0.7367
  707MOL0     C95336   5.487   5.035   4.593  0.4752 -0.2069  0.2055
  707MOL0     C95337   5.601   5.122   4.575 -0.4233 -0.3133 -0.4484
  707MOL0     C95338   5.708   5.086   4.481 -0.6284 -0.3028 -0.2039
  707MOL0     C95339   5.825   5.170   4.454 -0.4169 -0.2076  0.2925
  707MOL0     O95340   5.915   5.118   4.362 -0.3680 -0.4974 -0.6465
  707MOL0     C95341   6.029   5.189   4.330  0.2770 -0.2106 -1.2962
  707MOL0     C95342   6.150   5.166   4.414 -0.1996 -0.4478 -0.2563
  707MOL0     C95343   6.263   5.248   4.403 -0.3042 -0.3491  0.5260
  707MOL0     C95344   6.262   5.348   4.303  1.2053  0.8002 -0.3273
  707MOL0     O95345   6.379   5.421   4.286  0.4675 -1.0391 -0.2408
  707MOL0     C95346   6.421   5.479   4.160 -0.1916 -0.1332 -0.6699
  707MOL0     C95347   6.548   5.569   4.164 -0.1254  0.0198  0.0097
  707MOL0     C95348   6.678   5.489   4.194  0.0021 -0.1364  0.5039
  707MOL0     C95349   6.804   5.572   4.182 -1.1596  0.2134 -0.3901
  707MOL0     C95350   6.920   5.495   4.241 -0.1561  0.7256  0.9640
  707MOL0     C95351   7.049   5.557   4.211  0.5618 -0.9107  0.6224
  707MOL0     C95352   7.160   5.453   4.206  0.4229  0.4569  0.4376
  707MOL0     C95353   7.289   5.483   4.136  0.1766  0.4897 -1.2878
  707MOL0    Cl95354   7.265   5.477   3.957  0.0015  0.3716  0.2988
  707MOL0     C95355   6.155   5.366   4.212  0.1653 -0.1392  0.9428
  707MOL0     C95356   6.040   5.293   4.238 -0.2636  0.9048  0.8169
  707MOL0     O95357   5.840   5.285   4.507  0.2211 -0.2089 -0.4428
  707MOL0     C95358   5.690   4.961   4.417 -0.6003 -0.4138  0.0888
  707MOL0     C95359   5.573   4.883   4.435 -0.1096 -0.1121  0.2947
  707MOL0     N95360   5.056   4.567   4.707  0.0547 -0.1287  0.1972
  707MOL0     N95361   5.015   4.487   4.801  0.5398 -0.5370 -0.6105
  707MOL0     C95362   3.992   3.899   5.457 -0.8599 -0.3261 -0.1287
  707MOL0     C95363   3.864   3.882   5.497  1.1392 -0.1964  0.1997
  707MOL0     C95364   3.413   3.869   5.495  0.0548 -0.9719 -1.0115
  707MOL0     C95365   3.316   3.969   5.518  0.5676  0.1262 -0.1591
  707MOL0     C95366   3.196   3.949   5.586  0.8394 -0.3599 -0.5160
  707MOL0     C95367   3.164   3.825   5.631 -0.1703  1.0886 -1.1055
  707MOL0     O95368   3.047   3.795   5.695  0.4150  0.3734 -0.9975
  707MOL0     C95369   2.989   3.886   5.791 -0.0911 -0.0307 -0.4774
  707MOL0     C95370   3.029   3.840   5.935  0.7596 -0.0292  0.7181
  707MOL0     C95371   3.040   3.683   5.954 -0.0568  0.1192  0.0960
  707MOL0     C95372   2.918   3.600   5.923  0.5687  0.6334  0.1863
  707MOL0     C95373   2.953   3.458   5.920 -0.2220  0.0980 -0.3140
  707MOL0     C95374   2.982   3.341   5.905  0.7730  0.0742 -0.2905
  707MOL0     C95375   3.251   3.721   5.611  0.0633 -0.1368  0.1277
  707MOL0     C95376   3.378   3.738   5.544 -0.5303  0.0610  0.3182
  707MOL0     C95377   3.457   3.615   5.529  0.5511  0.3554  0.3950
  707MOL0     H95378   3.746   3.747   5.205 -0.0143 -0.0694 -1.0178
  707MOL0     H95379   3.977   3.794   5.137 -2.5405 -3.0193  0.1572
  707MOL0     H95380   4.228   3.922   5.104  0.3109 -1.5605  2.1773
  707MOL0     H95381   4.128   4.055   5.164  0.5640  1.0950 -0.9614
  707MOL0     H95382   4.419   3.982   5.261 -1.0502 -0.8438 -0.7518
  707MOL0     H95383   4.314   4.124   5.319 -0.5962  1.9189 -0.9553
  707MOL0     H95384   4.340   4.208   5.076 -0.2674 -0.5373  0.2599
  707MOL0     H95385   4.448   4.080   5.037  1.1893  2.5010 -0.6161
  707MOL0     H95386   4.504   4.284   5.259  0.8056 -0.0729  0.6340
  707MOL0     H95387   4.602   4.150   5.229  0.4478 -0.3441 -0.6879
  707MOL0     H95388   4.634   4.222   4.983 -0.4972  3.8636 -3.1101
  707MOL0     H95389   4.531   4.359   5.025 -2.7507 -2.7034 -0.8559
  707MOL0     H95390   4.709   4.401   5.207 -0.0806  0.8598 -0.2755
  707MOL0     H95391   4.801   4.265   5.121 -0.7425 -0.2280  0.5937
  707MOL0     H95392   4.865   4.511   5.063  0.6418 -3.6766  2.0305
  707MOL0     H95393   4.708   4.541   5.020  0.6780  0.8246  0.7693
  707MOL0     H95394   4.872   4.328   4.904 -0.9650 -0.0357 -0.5734
  707MOL0     H95395   4.715   4.386   4.839 -0.6473  0.4717  0.6683
  707MOL0     H95396   4.733   4.622   4.699 -1.3229 -1.8890 -0.0958
  707MOL0     H95397   4.902   4.709   4.455 -0.4124  2.3635 -0.6336
  707MOL0     H95398   4.893   4.833   4.575  1.4829  1.3484 -1.1265
  707MOL0     H95399   5.141   4.713   4.470 -0.0768  0.3912  0.3585
  707MOL0     H95400   5.081   4.877   4.438 -2.3613 -0.8654 -0.2988
  707MOL0     H95401   5.117   4.814   4.749  1.4018  0.8893  0.9964
  707MOL0     H95402   5.151   4.959   4.661  1.7845  0.1139  3.5560
  707MOL0     H95403   5.301   4.715   4.689 -3.4774 -0.0138 -2.3900
  707MOL0     H95404   5.347   4.887   4.745  1.7782 -0.7677 -0.2303
  707MOL0     H95405   5.406   5.065   4.659 -0.5830 -1.2136 -0.5925
  707MOL0     H95406   5.612   5.215   4.630 -1.3618 -0.6099  0.2670
  707MOL0     H95407   6.145   5.106   4.505 -1.6038  2.4831  1.7731
  707MOL0     H95408   6.341   5.236   4.478  1.5216 -0.6720 -1.3408
  707MOL0     H95409   6.435   5.389   4.100 -1.4619 -4.0023  4.1950
  707MOL0     H95410   6.340   5.539   4.118 -0.3991  3.0617  3.5284
  707MOL0     H95411   6.555   5.621   4.068 -2.6482 -0.9758 -0.7968
  707MOL0     H95412   6.529   5.639   4.246  1.4291 -0.1543  0.5418
  707MOL0     H95413   6.669   5.431   4.286  0.9628 -2.2747 -0.6584
  707MOL0     H95414   6.689   5.405   4.124 -1.0420 -0.2676  0.4898
  707MOL0     H95415   6.792   5.663   4.242  0.4454 -0.1835  0.5891
  707MOL0     H95416   6.817   5.586   4.074  1.4745 -1.5186 -0.3885
  707MOL0     H95417   6.919   5.398   4.190 -0.1830  1.0025  0.4379
  707MOL0     H95418   6.895   5.464   4.343 -4.4034 -0.8030 -0.3503
  707MOL0     H95419   7.042   5.606   4.113  0.6426 -1.6137  0.2546
  707MOL0     H95420   7.086   5.623   4.290  1.9853 -0.1183 -0.6400
  707MOL0     H95421   7.126   5.357   4.166  1.5396  0.2778 -0.0994
  707MOL0     H95422   7.188   5.431   4.309  2.0054 -2.4022 -0.5030
  707MOL0     H95423   7.322   5.580   4.176 -0.5826  0.9400 -1.7298
  707MOL0     H95424   7.362   5.407   4.164 -1.9839 -0.5090  2.2370
  707MOL0     H95425   6.151   5.436   4.130 -2.1911 -0.7398  0.4716
  707MOL0     H95426   5.951   5.309   4.179  0.2579 -2.6432 -1.2589
  707MOL0     H95427   5.771   4.926   4.353  3.1343  1.8682  3.1619
  707MOL0     H95428   5.564   4.797   4.370  1.2055 -0.2921  0.3381
  707MOL0     H95429   4.054   3.944   5.534 -1.0239  0.5695 -0.5104
  707MOL0     H95430   3.838   3.911   5.598  2.3700 -1.0612  0.7850
  707MOL0     H95431   3.338   4.068   5.480 -0.0305  0.5587  0.5962
  707MOL0     H95432   3.130   4.035   5.590 -0.3546 -1.2679 -0.1586
  707MOL0     H95433   2.880   3.876   5.786 -0.0410 -0.0516 -2.7866
  707MOL0     H95434   3.031   3.987   5.793  1.1154 -0.4650  2.9611
  707MOL0     H95435   2.968   3.883   6.014  2.6476  1.1139  1.6220
  707MOL0     H95436   3.120   3.894   5.962  1.6948 -0.6441 -1.0158
  707MOL0     H95437   3.081   3.655   6.052  0.3757 -2.2779 -0.6995
  707MOL0     H95438   3.106   3.647   5.874 -1.7618 -0.0971 -1.2780
  707MOL0     H95439   2.839   3.614   5.998  1.2663  0.1151  1.0290
  707MOL0     H95440   2.882   3.626   5.823  0.3482  1.5952  0.4998
  707MOL0     H95441   3.018   3.241   5.892 -3.7722 -2.0040  1.0774
  707MOL0     H95442   3.225   3.627   5.658 -0.8108  0.3618  0.6780
  707MOL0     H95443   3.464   3.603   5.420 -0.5196  1.5611  0.1623
  707MOL0     H95444   3.555   3.637   5.574  0.9386  2.7661 -1.3852
  707MOL0     H95445   3.418   3.525   5.577 -1.7820 -0.2856 -2.4590
  708MOL0     O95446   9.558   2.883   0.284  0.1701  0.1338  0.2541
  708MOL0     C95447   9.590   2.822   0.385 -1.0077 -0.8888  1.0432
  708MOL0     O95448   9.715   2.779   0.404 -0.0537 -0.9630 -0.1982
  708MOL0     C95449   9.814   2.804   0.322  0.3049 -0.6829  0.4801
  708MOL0     C95450   9.882   2.692   0.279 -0.1688  0.2924  0.1834
  708MOL0     C95451  10.001   2.702   0.199  0.1036 -0.0972 -0.1228
  708MOL0     C95452  10.050   2.831   0.156  0.3299 -0.4245  0.1986
  708MOL0     O95453  10.158   2.849   0.067  0.1564 -0.2326  0.4695
  708MOL0     C95454  10.127   2.924  -0.048  0.0171  0.1433  0.3425
  708MOL0     C95455  10.213   2.882  -0.157 -1.0347  0.5670 -0.8297
  708MOL0     C95456  10.360   2.926  -0.136  0.6711  0.2006 -0.1582
  708MOL0     C95457  10.465   2.825  -0.197 -0.1856  0.3178 -0.9089
  708MOL0     C95458  10.469   2.841  -0.350  0.8075 -0.8615  1.3091
  708MOL0     C95459  10.543   2.738  -0.433 -0.3525 -0.7104 -0.7799
  708MOL0     C95460  10.695   2.750  -0.408 -0.5226 -0.3946  0.0137
  708MOL0     C95461  10.775   2.641  -0.489 -0.3495 -0.2001  0.6946
  708MOL0     N95462  10.919   2.626  -0.452  0.4279  0.2215 -0.1831
  708MOL0     C95463  11.028   2.686  -0.517 -0.6127  0.3587 -0.1380
  708MOL0     C95464  11.124   2.668  -0.428 -0.3890  0.8595  0.2127
  708MOL0     C95465  11.267   2.730  -0.442 -0.0835 -0.1872  0.1191
  708MOL0     C95466  11.370   2.648  -0.521  1.0190  0.8152 -0.0317
  708MOL0     C95467  11.512   2.709  -0.526  0.4735  0.1451  0.2785
  708MOL0     C95468  11.581   2.628  -0.630  0.7223  0.2784  0.4378
  708MOL0     O95469  11.598   2.496  -0.581 -0.0379  0.2586 -0.0332
  708MOL0     C95470  11.715   2.433  -0.627 -0.5351 -0.8196  0.4918
  708MOL0     C95471  11.768   2.446  -0.761 -0.2595  0.0659 -1.0234
  708MOL0     C95472  11.873   2.356  -0.798 -0.6429  0.3254  0.4696
  708MOL0     C95473  11.937   2.274  -0.701  0.8586 -0.2450 -0.0566
  708MOL0     C95474  12.040   2.188  -0.731 -0.4039 -0.5764  0.8034
  708MOL0     O95475  12.045   2.160  -0.865 -0.9490 -0.7305  0.4290
  708MOL0     C95476  12.122   2.065  -0.920  0.1071  0.7174  1.0120
  708MOL0     C95477  12.073   1.981  -1.012  0.3536 -0.3369  0.2366
  708MOL0     C95478  12.162   1.901  -1.079 -0.8157  0.6190 -0.2850
  708MOL0     C95479  12.288   1.880  -1.031 -0.4648 -0.2568  0.4953
  708MOL0     O95480  12.370   1.792  -1.099  0.4753  0.6370  0.4661
  708MOL0     C95481  12.509   1.833  -1.103  0.5930 -0.3187  1.2348
  708MOL0     C95482  12.570   1.776  -1.230 -0.3371  0.0305 -1.0706
  708MOL0     C95483  12.723   1.778  -1.222  0.0078 -0.3334  0.6488
  708MOL0     C95484  12.787   1.738  -1.357  0.3596  1.0227 -0.5162
  708MOL0     C95485  12.926   1.686  -1.340  0.4095 -0.5984  0.5282
  708MOL0     C95486  13.006   1.660  -1.468  0.4814 -0.1550  0.0326
  708MOL0     C95487  13.126   1.574  -1.444 -0.2516  0.0899 -0.5084
  708MOL0     C95488  13.215   1.589  -1.567  0.5215 -0.2046 -0.4904
  708MOL0    Cl95489  13.352   1.472  -1.556 -0.1771  0.3585 -0.0214
  708MOL0     C95490  12.333   1.948  -0.921 -0.6188  0.3231  0.5555
  708MOL0     C95491  12.257   2.053  -0.874 -0.8390  0.8686  0.6486
  708MOL0     O95492  12.110   2.143  -0.644 -0.0035 -0.2438 -0.1053
  708MOL0     C95493  11.890   2.279  -0.564  0.4000 -0.5201  0.9183
  708MOL0     C95494  11.776   2.349  -0.531 -0.2174  0.2439 -0.4856
  708MOL0     N95495  11.085   2.609  -0.312  0.5079  0.3028  0.5686
  708MOL0     N95496  10.960   2.588  -0.322  0.8687 -0.1295 -0.0014
  708MOL0     C95497   9.980   2.939   0.213 -0.2550 -0.0347 -0.3358
  708MOL0     C95498   9.875   2.926   0.297  0.2644 -0.2159 -0.3592
  708MOL0     C95499   9.502   2.783   0.495 -1.0226  0.0537 -0.7779
  708MOL0     C95500   9.561   2.778   0.619  0.6410  0.2282 -0.3585
  708MOL0     C95501   9.487   2.747   0.729  0.7784  0.0892  0.2599
  708MOL0     C95502   9.352   2.728   0.725  0.3738 -0.1132 -0.8134
  708MOL0     O95503   9.278   2.694   0.837 -0.0020  0.1824 -0.2601
  708MOL0     C95504   9.312   2.719   0.974  0.7460  0.0497 -0.1674
  708MOL0     C95505   9.293   2.864   1.010 -0.1270 -0.2042 -0.4768
  708MOL0     C95506   9.145   2.898   1.034 -1.0849  0.5265  0.0771
  708MOL0     C95507   9.115   3.045   1.022 -0.4449  0.3735 -0.7978
  708MOL0     C95508   8.977   3.061   1.061 -0.6142 -0.1245  0.2551
  708MOL0     C95509   8.869   3.088   1.110 -0.1452 -0.7885 -0.0018
  708MOL0     C95510   9.297   2.731   0.600 -0.1447  0.3286  0.0778
  708MOL0     C95511   9.373   2.758   0.483 -0.1552  0.7404 -0.5133
  708MOL0     C95512   9.291   2.772   0.358 -0.2484 -0.3090 -0.6327
  708MOL0     H95513   9.852   2.594   0.315  0.9544  0.9947  3.3639
  708MOL0     H95514  10.045   2.615   0.151  1.3275  1.3322 -1.7101
  708MOL0     H95515  10.024   2.905  -0.078  0.9224 -1.8790 -1.8284
  708MOL0     H95516  10.133   3.031  -0.025 -2.0467  0.2314  0.6670
  708MOL0     H95517  10.178   2.934  -0.247 -1.2628  0.6563 -0.6906
  708MOL0     H95518  10.196   2.779  -0.188  0.9735 -0.1332  0.2009
  708MOL0     H95519  10.382   2.934  -0.030 -1.2443  0.4701  0.2616
  708MOL0     H95520  10.375   3.026  -0.179  3.1377 -0.2299 -0.4390
  708MOL0     H95521  10.564   2.839  -0.152  0.2717 -0.9695 -1.4733
  708MOL0     H95522  10.442   2.723  -0.166  1.2532  0.4663  0.8444
  708MOL0     H95523  10.369   2.828  -0.393  0.3277 -1.4038  2.5467
  708MOL0     H95524  10.510   2.941  -0.367  3.4549 -1.7739  1.8289
  708MOL0     H95525  10.492   2.642  -0.416 -1.1400  0.0857  1.8129
  708MOL0     H95526  10.530   2.765  -0.538 -1.4130 -0.4805 -0.6054
  708MOL0     H95527  10.717   2.734  -0.302  1.9696  1.2477 -0.1802
  708MOL0     H95528  10.733   2.848  -0.439 -0.3848  0.8166  3.5792
  708MOL0     H95529  10.724   2.544  -0.486  1.4370 -1.2900 -1.2343
  708MOL0     H95530  10.769   2.672  -0.593 -0.5503 -0.5725  0.5932
  708MOL0     H95531  11.037   2.736  -0.614  1.7941  1.5066  0.6037
  708MOL0     H95532  11.259   2.829  -0.487 -1.7447 -0.3844 -0.0593
  708MOL0     H95533  11.319   2.738  -0.346  2.0965 -0.6685 -0.9511
  708MOL0     H95534  11.367   2.552  -0.468 -2.4091  0.7086 -0.1877
  708MOL0     H95535  11.334   2.625  -0.621  3.3692 -3.6376 -0.1292
  708MOL0     H95536  11.563   2.688  -0.432 -1.7577 -1.7860  1.1562
  708MOL0     H95537  11.505   2.818  -0.537 -2.8125 -0.0311 -0.3072
  708MOL0     H95538  11.675   2.673  -0.663  0.8451 -0.6937 -0.5800
  708MOL0     H95539  11.528   2.630  -0.726  1.3688 -0.6816  0.0540
  708MOL0     H95540  11.736   2.515  -0.838  0.9837  0.8383 -0.8700
  708MOL0     H95541  11.911   2.348  -0.900 -0.6335 -1.5465  0.5809
  708MOL0     H95542  11.967   1.975  -1.031 -0.3197 -1.6488  3.6343
  708MOL0     H95543  12.120   1.838  -1.156 -2.2944  0.1079  0.8993
  708MOL0     H95544  12.513   1.942  -1.118 -1.3130 -0.4337 -0.5063
  708MOL0     H95545  12.568   1.804  -1.016  3.4321  2.1143  0.2949
  708MOL0     H95546  12.540   1.674  -1.253 -0.4254  0.8676 -5.5717
  708MOL0     H95547  12.539   1.835  -1.317  0.5428 -2.6200 -3.3039
  708MOL0     H95548  12.763   1.871  -1.181  2.1794 -0.3358 -1.2758
  708MOL0     H95549  12.753   1.708  -1.143  0.2674  2.2443  2.9905
  708MOL0     H95550  12.776   1.816  -1.433  1.7124  0.5809 -1.1808
  708MOL0     H95551  12.730   1.654  -1.397  1.1946  0.7138 -1.0633
  708MOL0     H95552  12.909   1.591  -1.288 -0.5062 -1.5423 -1.3714
  708MOL0     H95553  12.989   1.749  -1.277 -1.5817 -0.8686  2.9488
  708MOL0     H95554  12.945   1.607  -1.542 -0.1366  0.0412  0.3991
  708MOL0     H95555  13.027   1.757  -1.514  4.1196  0.2533  2.1532
  708MOL0     H95556  13.092   1.472  -1.425 -2.5775  1.1629  1.6126
  708MOL0     H95557  13.180   1.615  -1.358 -5.9791  3.1995  2.1163
  708MOL0     H95558  13.156   1.555  -1.653  1.1959 -3.9908  0.3356
  708MOL0     H95559  13.245   1.693  -1.576 -0.6826  0.4159  1.9309
  708MOL0     H95560  12.431   1.919  -0.884 -0.7192  1.1945  1.5273
  708MOL0     H95561  12.299   2.114  -0.794 -0.1214 -1.2603  1.9926
  708MOL0     H95562  11.955   2.228  -0.492  1.7604 -1.1049 -0.6460
  708MOL0     H95563  11.734   2.351  -0.431  3.2846  2.8221  1.1450
  708MOL0     H95564  10.001   3.039   0.177 -2.5553  0.8955  0.7434
  708MOL0     H95565   9.832   3.023   0.323 -1.1280 -0.3865 -1.8753
  708MOL0     H95566   9.663   2.807   0.641  0.9000 -0.9622  0.1178
  708MOL0     H95567   9.541   2.754   0.823  0.7390  1.2769  0.2024
  708MOL0     H95568   9.412   2.681   0.997  0.5836  0.8409  2.1327
  708MOL0     H95569   9.238   2.661   1.029  1.4175 -2.0394 -1.3758
  708MOL0     H95570   9.338   2.929   0.934 -1.4513 -0.0621 -1.1626
  708MOL0     H95571   9.352   2.885   1.099  1.8185  1.7395 -2.1047
  708MOL0     H95572   9.104   2.859   1.127 -2.7074  2.0687  0.0797
  708MOL0     H95573   9.103   2.852   0.943  0.1609 -3.6740  1.3978
  708MOL0     H95574   9.174   3.100   1.095  0.5208 -0.4437 -0.9326
  708MOL0     H95575   9.125   3.084   0.920  1.9865 -0.4837 -0.9587
  708MOL0     H95576   8.765   3.097   1.134 -0.0084 -0.1815  0.3738
  708MOL0     H95577   9.189   2.729   0.603 -0.1195 -1.1925  1.5438
  708MOL0     H95578   9.301   2.687   0.289 -0.8192 -1.5615  0.7704
  708MOL0     H95579   9.184   2.778   0.380 -0.1978 -2.8729  0.7212
  708MOL0     H95580   9.307   2.867   0.306 -3.2218  0.5407 -0.1596
  709MOL0     O95581   0.124   9.363   2.083  0.1425  0.2011 -0.3604
  709MOL0     C95582   0.094   9.327   2.196 -0.8459 -0.3845  0.1433
  709MOL0     O95583   0.181   9.266   2.278  0.6833 -0.4240  0.3268
  709MOL0     C95584   0.315   9.250   2.250 -0.4883  0.1427 -0.0523
  709MOL0     C95585   0.416   9.339   2.294 -0.0567  0.0310 -0.3380
  709MOL0     C95586   0.552   9.324   2.254 -0.1024  0.6454  0.9431
  709MOL0     C95587   0.583   9.218   2.168 -0.3118  0.0523  0.0644
  709MOL0     O95588   0.717   9.203   2.159  0.0299  0.5003 -0.2192
  709MOL0     C95589   0.764   9.086   2.092 -0.4852  0.4895  0.6381
  709MOL0     C95590   0.900   9.052   2.136  0.1769 -0.8460 -0.5985
  709MOL0     C95591   0.899   9.047   2.298  0.0481 -0.1682  0.0168
  709MOL0     C95592   1.012   8.975   2.373  0.8409  0.2085 -0.7888
  709MOL0     C95593   1.025   8.836   2.334 -0.5717  1.0991  0.0812
  709MOL0     C95594   1.133   8.774   2.431  0.8165 -0.0651  0.3109
  709MOL0     C95595   1.159   8.625   2.385  0.2195 -0.1360  0.1081
  709MOL0     C95596   1.211   8.530   2.498 -1.1131  0.8621 -0.2880
  709MOL0     N95597   1.361   8.529   2.508 -0.0789 -0.0129 -0.2178
  709MOL0     C95598   1.441   8.640   2.548  0.3287  0.6672 -0.4714
  709MOL0     C95599   1.556   8.611   2.495  0.3248 -0.5243 -0.4961
  709MOL0     C95600   1.667   8.703   2.488 -0.6761  0.4205 -1.1687
  709MOL0     C95601   1.782   8.680   2.587  0.4072  0.0539  0.3669
  709MOL0     C95602   1.890   8.782   2.536  0.9988  0.3173  0.1880
  709MOL0     C95603   1.993   8.805   2.638  0.6268  0.2363 -0.4530
  709MOL0     O95604   2.052   8.675   2.672  0.3772  0.3618  0.0881
  709MOL0     C95605   2.175   8.682   2.733 -0.3755  0.6038 -0.4402
  709MOL0     C95606   2.276   8.604   2.680 -0.2625 -0.5227 -0.2625
  709MOL0     C95607   2.402   8.608   2.735 -0.3954 -0.6597 -1.5292
  709MOL0     C95608   2.433   8.678   2.850 -0.3115 -0.4524  0.1713
  709MOL0     C95609   2.565   8.662   2.917 -0.1429 -0.5964  0.8562
  709MOL0     O95610   2.661   8.610   2.840  0.6735 -0.1641  0.3618
  709MOL0     C95611   2.791   8.617   2.878  0.2184  1.2990  0.7426
  709MOL0     C95612   2.835   8.535   2.984 -1.0694 -0.3127  0.0776
  709MOL0     C95613   2.972   8.543   3.017  0.4570  0.0480  0.8139
  709MOL0     C95614   3.064   8.623   2.960  0.0216 -0.2567 -0.5625
  709MOL0     O95615   3.185   8.621   3.017 -0.1491  0.0216 -0.9598
  709MOL0     C95616   3.284   8.713   2.973 -0.1673 -0.4260  0.0806
  709MOL0     C95617   3.404   8.704   3.065 -0.2932  0.3104 -0.0727
  709MOL0     C95618   3.528   8.714   2.981  0.1618 -0.6925 -0.5081
  709MOL0     C95619   3.646   8.702   3.081  0.0269  0.1172 -0.5192
  709MOL0     C95620   3.784   8.729   3.015  0.5781 -0.2321  0.0856
  709MOL0     C95621   3.893   8.750   3.112  0.4805 -0.6483 -0.2239
  709MOL0     C95622   4.025   8.773   3.044 -0.3315  0.1354 -0.0334
  709MOL0     C95623   4.134   8.742   3.148 -0.3509  0.0504 -0.1231
  709MOL0    Cl95624   4.158   8.874   3.268  0.4226 -0.3879  0.1578
  709MOL0     C95625   3.025   8.700   2.856  0.0391  0.3269  0.1655
  709MOL0     C95626   2.888   8.698   2.819  0.0822  0.3173  0.4329
  709MOL0     O95627   2.582   8.696   3.035 -0.2587  0.2933 -0.0704
  709MOL0     C95628   2.333   8.761   2.908 -0.0023  0.2326  0.5215
  709MOL0     C95629   2.200   8.754   2.847 -0.5785  0.0935  0.2100
  709MOL0     N95630   1.555   8.485   2.441  0.5610 -0.3846 -0.2273
  709MOL0     N95631   1.438   8.434   2.451 -0.9462 -0.9588 -0.1744
  709MOL0     C95632   0.485   9.141   2.115  0.1179  0.3157  0.4320
  709MOL0     C95633   0.352   9.154   2.156 -0.0520  1.1914  0.0257
  709MOL0     C95634  -0.054   9.329   2.236 -0.4414  0.1753 -0.8488
  709MOL0     C95635  -0.082   9.290   2.370  0.6608  0.0037  0.0423
  709MOL0     C95636  -0.212   9.294   2.415  0.1292  0.8447  0.6104
  709MOL0     C95637  -0.318   9.300   2.324  0.5148  0.0529 -0.0299
  709MOL0     O95638  -0.452   9.268   2.358  0.0289 -0.0576 -0.0195
  709MOL0     C95639  -0.482   9.207   2.482  0.5625  0.7286 -0.0800
  709MOL0     C95640  -0.516   9.321   2.584 -0.3708 -0.2426  0.1788
  709MOL0     C95641  -0.603   9.432   2.520  0.0161 -1.0293 -0.3474
  709MOL0     C95642  -0.734   9.389   2.463  0.2175  0.2427 -0.0971
  709MOL0     C95643  -0.829   9.342   2.565  0.8633  0.2300  0.2688
  709MOL0     C95644  -0.918   9.320   2.642 -0.6401  0.4575 -0.0188
  709MOL0     C95645  -0.288   9.332   2.192  0.2523 -0.6461 -0.3153
  709MOL0     C95646  -0.158   9.347   2.146 -0.0094  0.5273 -0.0957
  709MOL0     C95647  -0.148   9.369   1.992 -0.7844  0.6160 -0.2118
  709MOL0     H95648   0.374   9.425   2.343  2.9240  1.7368 -0.4955
  709MOL0     H95649   0.627   9.390   2.297  1.9252 -0.5886 -0.5213
  709MOL0     H95650   0.701   8.997   2.099  0.9549 -0.4790  2.0683
  709MOL0     H95651   0.783   9.109   1.987  0.1154  0.0157  0.6357
  709MOL0     H95652   0.963   9.138   2.110 -1.1415  0.1931 -0.4116
  709MOL0     H95653   0.935   8.955   2.098 -0.3770 -0.2635 -2.7086
  709MOL0     H95654   0.812   8.994   2.337  1.2340  0.0497  3.2403
  709MOL0     H95655   0.894   9.149   2.336 -0.5903 -0.1058 -0.2216
  709MOL0     H95656   1.103   9.030   2.346  0.8544  0.1886 -0.7829
  709MOL0     H95657   0.990   8.993   2.479  1.5746 -0.7765 -0.4578
  709MOL0     H95658   0.937   8.772   2.348  0.0241  0.5514  1.5346
  709MOL0     H95659   1.065   8.834   2.233 -0.0374 -0.0881  0.3024
  709MOL0     H95660   1.231   8.823   2.423  1.2964 -1.1771 -0.8393
  709MOL0     H95661   1.115   8.771   2.539  2.1661 -2.4587  0.5446
  709MOL0     H95662   1.246   8.625   2.319 -1.0777 -1.3374 -1.7026
  709MOL0     H95663   1.076   8.582   2.328  1.0732 -0.4435 -0.9343
  709MOL0     H95664   1.171   8.551   2.598  0.6558 -1.2172  0.9464
  709MOL0     H95665   1.183   8.427   2.476 -1.3274  0.4356  1.7724
  709MOL0     H95666   1.409   8.740   2.578 -0.3391  0.0023  1.1651
  709MOL0     H95667   1.703   8.690   2.386 -0.2261 -5.0775 -0.5851
  709MOL0     H95668   1.632   8.804   2.514  0.3423  0.9406 -1.7617
  709MOL0     H95669   1.756   8.683   2.693  2.2231 -2.6399  0.9632
  709MOL0     H95670   1.814   8.576   2.581 -1.3107 -0.7390  3.0755
  709MOL0     H95671   1.848   8.880   2.511  0.8418 -0.6542 -4.1730
  709MOL0     H95672   1.930   8.748   2.440 -0.2312 -1.7623  0.3530
  709MOL0     H95673   1.952   8.854   2.726 -0.0473 -0.6814 -0.2444
  709MOL0     H95674   2.072   8.872   2.601  1.0679  1.0096  1.7708
  709MOL0     H95675   2.258   8.557   2.584 -4.3268  1.0775 -0.4549
  709MOL0     H95676   2.471   8.540   2.685  0.6332 -1.0388  0.3039
  709MOL0     H95677   2.770   8.480   3.052  0.3963 -0.7791  1.1528
  709MOL0     H95678   3.008   8.481   3.099  2.9763 -2.2959 -1.7916
  709MOL0     H95679   3.296   8.688   2.867 -0.3831  0.2532 -0.1084
  709MOL0     H95680   3.247   8.815   2.975  0.5662 -0.1640  0.6225
  709MOL0     H95681   3.397   8.778   3.145 -1.5682 -0.0929  0.2024
  709MOL0     H95682   3.405   8.605   3.112  0.1660  0.6458  0.6509
  709MOL0     H95683   3.529   8.635   2.906  1.2078 -0.4876 -0.7157
  709MOL0     H95684   3.540   8.814   2.941 -0.2634 -0.3554  0.1775
  709MOL0     H95685   3.645   8.611   3.142  1.7716  1.0701  1.0340
  709MOL0     H95686   3.632   8.786   3.150  0.5182  1.7872 -2.3326
  709MOL0     H95687   3.780   8.809   2.941  0.2098  0.3651  0.7391
  709MOL0     H95688   3.808   8.634   2.965  0.5473  0.4762 -1.3230
  709MOL0     H95689   3.856   8.837   3.168  1.2006 -0.4286 -0.0825
  709MOL0     H95690   3.887   8.659   3.173  3.2135 -0.6932  0.1296
  709MOL0     H95691   4.050   8.876   3.019  5.4724 -0.5987  1.2350
  709MOL0     H95692   4.047   8.712   2.956  1.5540  2.2595 -1.1054
  709MOL0     H95693   4.100   8.652   3.200 -1.1035 -0.4014 -1.3763
  709MOL0     H95694   4.232   8.719   3.106  1.0409  0.9351  2.4199
  709MOL0     H95695   3.087   8.764   2.793  1.1901  0.4923  1.4157
  709MOL0     H95696   2.849   8.756   2.736  0.1057  0.2578  0.3798
  709MOL0     H95697   2.357   8.805   3.004 -0.0037 -0.9294  1.0673
  709MOL0     H95698   2.124   8.817   2.891 -0.0989  0.9634 -0.1822
  709MOL0     H95699   0.496   9.061   2.043 -0.5830 -1.2277  1.9850
  709MOL0     H95700   0.277   9.087   2.114  1.3138 -2.8204  3.2606
  709MOL0     H95701  -0.007   9.263   2.443 -1.8953 -3.0462  1.7553
  709MOL0     H95702  -0.233   9.252   2.513  0.1353 -2.6014 -0.7176
  709MOL0     H95703  -0.397   9.144   2.510 -0.2222 -1.9056 -2.9740
  709MOL0     H95704  -0.571   9.146   2.460  0.7765  0.8793 -1.4432
  709MOL0     H95705  -0.422   9.356   2.627 -1.0189 -0.4865  1.8728
  709MOL0     H95706  -0.577   9.272   2.661  1.8521 -0.0280  2.2007
  709MOL0     H95707  -0.548   9.482   2.440  0.8788  2.5797  2.2470
  709MOL0     H95708  -0.622   9.508   2.596 -0.0440 -1.0250 -0.3664
  709MOL0     H95709  -0.784   9.473   2.414 -0.5322 -0.0979  0.0708
  709MOL0     H95710  -0.713   9.310   2.391  1.7965  1.0137 -0.5302
  709MOL0     H95711  -1.007   9.296   2.697  0.3811 -1.5226  0.8802
  709MOL0     H95712  -0.372   9.335   2.122  0.2476 -0.0015 -0.2942
  709MOL0     H95713  -0.069   9.304   1.952 -3.2071 -1.9420 -1.2031
  709MOL0     H95714  -0.242   9.355   1.938 -1.0318  5.9050 -1.6971
  709MOL0     H95715  -0.118   9.471   1.966 -1.8188  0.8346 -0.5746
  710MOL0     O95716   8.013   7.911   2.572  0.3295  0.3083 -0.2736
  710MOL0     C95717   7.969   7.887   2.685  0.8661  0.4049 -0.2742
  710MOL0     O95718   8.050   7.886   2.803 -0.0694  0.0967 -0.3199
  710MOL0     C95719   8.173   7.941   2.790  0.5116  0.2133  0.0891
  710MOL0     C95720   8.278   7.884   2.720 -0.5321 -0.3763 -0.1422
  710MOL0     C95721   8.406   7.945   2.702  0.2158  0.7564 -0.0690
  710MOL0     C95722   8.424   8.080   2.747  0.5382  0.3640 -0.3141
  710MOL0     O95723   8.548   8.146   2.728  0.4102  0.4382 -0.4765
  710MOL0     C95724   8.566   8.280   2.784 -1.1019  0.3180  0.2540
  710MOL0     C95725   8.693   8.356   2.743 -0.8311  1.2184  0.6196
  710MOL0     C95726   8.720   8.501   2.778  0.1218  0.0033 -0.7985
  710MOL0     C95727   8.710   8.601   2.660  0.3150 -0.0161  0.7168
  710MOL0     C95728   8.732   8.745   2.691 -0.7398 -0.4386 -0.7218
  710MOL0     C95729   8.613   8.824   2.736  1.1062 -0.0326 -0.0189
  710MOL0     C95730   8.648   8.965   2.781  0.0665 -0.3231  0.3217
  710MOL0     C95731   8.521   9.054   2.810 -0.1582 -0.1246  0.0335
  710MOL0     N95732   8.557   9.186   2.868  0.0829  0.3653  0.6300
  710MOL0     C95733   8.558   9.218   3.003  0.0588 -1.1939 -0.3351
  710MOL0     C95734   8.622   9.337   3.004  0.5498 -0.5447  1.0949
  710MOL0     C95735   8.631   9.414   3.127  0.6041 -0.5276  0.0787
  710MOL0     C95736   8.768   9.402   3.193 -0.4521 -0.0918  0.3234
  710MOL0     C95737   8.873   9.492   3.121  1.0318  0.9733 -0.0012
  710MOL0     C95738   9.011   9.503   3.196 -0.2884  0.0455  0.1218
  710MOL0     O95739   9.071   9.375   3.201  0.0215  0.0792  0.2721
  710MOL0     C95740   9.199   9.371   3.265  0.4342  0.3171 -0.4553
  710MOL0     C95741   9.250   9.245   3.293 -0.5137 -0.0064 -0.2088
  710MOL0     C95742   9.384   9.240   3.346  1.1395  0.1220 -0.4516
  710MOL0     C95743   9.463   9.350   3.360 -0.0862 -0.6698 -0.0010
  710MOL0     C95744   9.591   9.343   3.424  0.0367 -0.1275  0.2858
  710MOL0     O95745   9.672   9.452   3.401  0.1995  0.2606  0.4403
  710MOL0     C95746   9.796   9.442   3.459  0.3386 -0.8777  0.2787
  710MOL0     C95747   9.897   9.412   3.376  0.0049 -0.5825  0.2591
  710MOL0     C95748  10.021   9.394   3.426 -0.2647 -0.9806 -0.6968
  710MOL0     C95749  10.051   9.435   3.556  0.7902  0.9614 -0.2280
  710MOL0     O95750  10.170   9.431   3.612 -0.3694 -0.6108  0.0483
  710MOL0     C95751  10.278   9.486   3.527 -0.5635  0.4803  0.6756
  710MOL0     C95752  10.416   9.480   3.595 -0.5625 -0.0181 -0.5866
  710MOL0     C95753  10.518   9.527   3.506 -0.4920 -0.4933  0.3487
  710MOL0     C95754  10.664   9.524   3.566  0.0999  0.2492  0.0162
  710MOL0     C95755  10.755   9.602   3.465 -0.2730 -0.6407  1.0655
  710MOL0     C95756  10.902   9.610   3.481  0.1101  0.9996 -0.3549
  710MOL0     C95757  10.969   9.473   3.506 -0.0734  0.0960 -0.4189
  710MOL0     C95758  11.126   9.484   3.517 -0.2867 -0.9655 -0.2220
  710MOL0    Cl95759  11.223   9.490   3.365  0.4130  0.0031  0.2115
  710MOL0     C95760   9.953   9.500   3.635  0.6609 -0.2543  0.6750
  710MOL0     C95761   9.822   9.501   3.583  0.5694  0.3374  0.9533
  710MOL0     O95762   9.628   9.245   3.482  0.7680 -0.0885 -0.7199
  710MOL0     C95763   9.406   9.473   3.326 -0.2440 -0.4122 -0.4387
  710MOL0     C95764   9.278   9.484   3.284  0.5749 -0.4326  0.3570
  710MOL0     N95765   8.664   9.373   2.876  0.0729 -0.9915  0.4945
  710MOL0     N95766   8.625   9.274   2.799  0.0093 -0.2302  0.6206
  710MOL0     C95767   8.334   8.126   2.848  0.0024 -0.6553  0.6610
  710MOL0     C95768   8.206   8.067   2.857  0.0261 -0.1783 -0.3905
  710MOL0     C95769   7.821   7.872   2.719  0.2771 -0.2839 -0.5593
  710MOL0     C95770   7.785   7.842   2.847  0.7642  0.6299  0.7114
  710MOL0     C95771   7.652   7.830   2.878  0.3733 -0.1090  0.5557
  710MOL0     C95772   7.546   7.853   2.790  0.4475  0.6966  0.7656
  710MOL0     O95773   7.417   7.847   2.832  0.4447  0.1951  0.1309
  710MOL0     C95774   7.307   7.847   2.740 -0.4200 -0.1337  0.1880
  710MOL0     C95775   7.177   7.778   2.779  0.4471  0.0266 -0.7355
  710MOL0     C95776   7.103   7.740   2.655  0.2746 -0.0297 -0.6517
  710MOL0     C95777   7.078   7.846   2.544 -0.8887 -1.1712  0.6733
  710MOL0     C95778   7.028   7.777   2.425  0.9326 -1.2094  1.5361
  710MOL0     C95779   6.970   7.742   2.330  0.4929 -0.5321 -0.0179
  710MOL0     C95780   7.593   7.889   2.659  0.9334  0.3895 -0.8118
  710MOL0     C95781   7.722   7.906   2.626  0.3123  0.2275  0.3530
  710MOL0     C95782   7.751   7.959   2.482 -0.1415  0.6948 -0.6573
  710MOL0     H95783   8.253   7.784   2.686 -1.1050 -1.2029  2.4693
  710MOL0     H95784   8.482   7.891   2.646 -1.1770  0.0244 -1.3393
  710MOL0     H95785   8.486   8.344   2.745 -0.0569  1.2293 -0.4578
  710MOL0     H95786   8.557   8.281   2.893 -0.1500 -3.4840  0.4960
  710MOL0     H95787   8.702   8.341   2.635  2.3597  2.7432  0.5442
  710MOL0     H95788   8.776   8.300   2.788 -0.2323  0.9000 -0.8239
  710MOL0     H95789   8.820   8.505   2.822  0.3501 -2.2562 -0.9870
  710MOL0     H95790   8.651   8.532   2.857  1.6860  1.3891  0.0691
  710MOL0     H95791   8.778   8.574   2.579 -1.3203  0.2339 -0.8084
  710MOL0     H95792   8.608   8.586   2.622 -0.3376 -3.3389  3.3015
  710MOL0     H95793   8.807   8.752   2.770  1.9141  2.8601 -3.2096
  710MOL0     H95794   8.763   8.803   2.603  1.0055  0.8572  0.6583
  710MOL0     H95795   8.533   8.830   2.662 -1.5672 -2.3447  2.4212
  710MOL0     H95796   8.560   8.779   2.821  2.7506  0.6741  1.4276
  710MOL0     H95797   8.720   9.018   2.718  0.3274  0.3390  1.1479
  710MOL0     H95798   8.699   8.947   2.876  2.1355 -0.3604 -0.7367
  710MOL0     H95799   8.468   9.059   2.715 -0.6571 -0.6585  0.2811
  710MOL0     H95800   8.450   9.010   2.880 -2.7403  2.3857 -0.8351
  710MOL0     H95801   8.523   9.163   3.089 -0.3567 -1.5666 -0.7311
  710MOL0     H95802   8.609   9.516   3.095  3.6314  0.2230  0.0933
  710MOL0     H95803   8.551   9.386   3.197 -0.8648  1.0255 -0.9216
  710MOL0     H95804   8.772   9.439   3.296 -0.6012 -0.3729  0.4314
  710MOL0     H95805   8.791   9.295   3.193  1.3209  0.1374 -3.1353
  710MOL0     H95806   8.830   9.591   3.106  2.3165  1.2371 -2.4918
  710MOL0     H95807   8.889   9.454   3.019 -1.9637  2.4304 -1.1224
  710MOL0     H95808   9.006   9.540   3.299 -2.2699 -0.3758  0.2098
  710MOL0     H95809   9.072   9.573   3.138 -1.4277  0.1881 -0.9453
  710MOL0     H95810   9.187   9.157   3.281  1.6795 -1.3691 -2.4600
  710MOL0     H95811   9.412   9.138   3.371 -3.6812 -1.9420 -2.2663
  710MOL0     H95812   9.876   9.404   3.270 -1.8960  0.6898  0.4885
  710MOL0     H95813  10.095   9.346   3.362 -2.0387 -1.9974 -2.0746
  710MOL0     H95814  10.291   9.427   3.435  0.0475 -2.0254  2.2829
  710MOL0     H95815  10.254   9.590   3.503 -0.7812  0.1940 -0.4241
  710MOL0     H95816  10.422   9.534   3.690  1.1895 -1.1265 -0.0162
  710MOL0     H95817  10.438   9.378   3.627  1.3082  0.8074  0.9506
  710MOL0     H95818  10.530   9.474   3.412  2.6077 -2.0287  1.4659
  710MOL0     H95819  10.505   9.633   3.482  3.5606  0.2456  0.7514
  710MOL0     H95820  10.700   9.421   3.575 -0.6847  0.1269  2.7786
  710MOL0     H95821  10.674   9.565   3.667  1.1220 -1.3895  0.6200
  710MOL0     H95822  10.720   9.704   3.444  1.5353 -0.5358 -2.2168
  710MOL0     H95823  10.748   9.555   3.366  2.0007  2.6770 -0.9106
  710MOL0     H95824  10.962   9.641   3.394  0.2988  0.8001 -0.2990
  710MOL0     H95825  10.924   9.678   3.563  1.4405  1.6649 -1.2167
  710MOL0     H95826  10.940   9.412   3.420 -3.1534  2.9047 -1.6360
  710MOL0     H95827  10.938   9.427   3.600  1.8125 -3.0241 -1.1743
  710MOL0     H95828  11.146   9.574   3.577 -1.7019 -0.6609 -0.1665
  710MOL0     H95829  11.167   9.407   3.582  0.5184  1.0183  1.7648
  710MOL0     H95830   9.971   9.546   3.732 -2.1699  1.0014  0.7140
  710MOL0     H95831   9.735   9.532   3.639 -0.7733  0.6600 -1.2065
  710MOL0     H95832   9.463   9.563   3.346 -0.3460 -0.6154  0.7924
  710MOL0     H95833   9.237   9.584   3.277 -1.2094 -0.8612  3.1130
  710MOL0     H95834   8.356   8.211   2.912  2.4290  0.8791 -1.9906
  710MOL0     H95835   8.142   8.114   2.931  1.1916  2.2523 -0.8312
  710MOL0     H95836   7.853   7.825   2.930 -1.7562 -1.8930  2.4375
  710MOL0     H95837   7.626   7.815   2.982  0.4243  0.5746  0.6717
  710MOL0     H95838   7.340   7.802   2.646  1.4032  0.1465  0.6510
  710MOL0     H95839   7.284   7.952   2.719  0.5056  0.0248 -0.0887
  710MOL0     H95840   7.115   7.851   2.832  3.6884  1.7368  0.9644
  710MOL0     H95841   7.204   7.696   2.845  4.0046  1.0805 -0.6865
  710MOL0     H95842   7.007   7.698   2.685  1.0369 -2.8463 -1.8765
  710MOL0     H95843   7.158   7.650   2.627 -2.3246 -1.5812 -1.1368
  710MOL0     H95844   7.004   7.921   2.574 -0.7877  0.0378 -1.8627
  710MOL0     H95845   7.174   7.891   2.517 -1.9007 -0.0846 -1.3763
  710MOL0     H95846   6.924   7.714   2.238  0.7352 -2.1828  0.3198
  710MOL0     H95847   7.511   7.903   2.588 -0.4890  0.9022  0.8636
  710MOL0     H95848   7.812   7.884   2.431 -1.1076  0.4452 -1.4692
  710MOL0     H95849   7.661   7.990   2.429  0.0414  0.9510 -0.8243
  710MOL0     H95850   7.815   8.049   2.482  1.2776 -0.2712 -0.1540
  711MOL0     O95851   8.225   4.837   8.913  0.4301 -0.3947  0.0331
  711MOL0     C95852   8.103   4.851   8.911  0.2329 -0.0690 -0.4353
  711MOL0     O95853   8.041   4.958   8.955  0.2322  0.1171  0.6517
  711MOL0     C95854   8.119   5.057   8.993 -0.3227  0.3429 -0.7391
  711MOL0     C95855   8.127   5.172   8.915 -0.7916 -0.4385 -0.2458
  711MOL0     C95856   8.222   5.274   8.955  0.1469  0.4343  0.9985
  711MOL0     C95857   8.294   5.265   9.066 -0.6451  0.5333 -1.6983
  711MOL0     O95858   8.371   5.373   9.101  0.2142  0.4164 -0.4430
  711MOL0     C95859   8.449   5.365   9.225  0.2767  0.2854  0.7921
  711MOL0     C95860   8.528   5.502   9.240  0.2525  0.1583  0.2734
  711MOL0     C95861   8.637   5.508   9.133 -0.1060 -0.0380  0.4088
  711MOL0     C95862   8.743   5.620   9.170  0.2627  0.6182  0.3471
  711MOL0     C95863   8.867   5.605   9.090  0.0803 -0.4564  0.6824
  711MOL0     C95864   8.853   5.633   8.945  0.2124  0.4567 -0.8212
  711MOL0     C95865   8.988   5.667   8.882  0.0148 -0.5841 -0.2089
  711MOL0     C95866   8.959   5.711   8.741 -0.2938  0.1500  0.4548
  711MOL0     N95867   9.079   5.708   8.652 -0.5999  0.2431 -0.0236
  711MOL0     C95868   9.138   5.597   8.625 -0.7250  0.4891 -0.2575
  711MOL0     C95869   9.242   5.629   8.544 -0.0846  0.6205 -1.2744
  711MOL0     C95870   9.352   5.542   8.493  0.3235  0.0195 -0.1104
  711MOL0     C95871   9.484   5.571   8.551  0.5752  0.0271 -0.2504
  711MOL0     C95872   9.599   5.517   8.471 -0.1588  0.0137 -0.0228
  711MOL0     C95873   9.742   5.591   8.496  0.1851 -0.7276  0.7296
  711MOL0     O95874   9.852   5.514   8.438  0.7627  0.7310 -0.4831
  711MOL0     C95875   9.975   5.542   8.496  0.2790 -0.7955 -0.0029
  711MOL0     C95876  10.038   5.648   8.441 -0.2270  0.4658 -0.0135
  711MOL0     C95877  10.172   5.672   8.485 -0.4756 -0.5795  0.4135
  711MOL0     C95878  10.253   5.576   8.550 -0.8950  0.1127  0.6437
  711MOL0     C95879  10.400   5.599   8.565 -0.9002  0.1151 -0.9779
  711MOL0     O95880  10.479   5.501   8.625  0.2962  0.0627 -0.4083
  711MOL0     C95881  10.615   5.511   8.609 -0.4190  0.2983  0.3417
  711MOL0     C95882  10.688   5.398   8.570 -0.1272  0.2691  0.4704
  711MOL0     C95883  10.830   5.406   8.560  0.9536  0.1854  0.5818
  711MOL0     C95884  10.898   5.522   8.595  0.1869 -0.0104 -0.5660
  711MOL0     O95885  11.032   5.528   8.584 -0.1740  0.3420 -0.9344
  711MOL0     C95886  11.091   5.535   8.704  0.5583 -0.1974  0.3410
  711MOL0     C95887  11.214   5.443   8.700 -0.0172 -1.1911 -0.6408
  711MOL0     C95888  11.284   5.469   8.835  0.1461  0.0013 -0.1547
  711MOL0     C95889  11.423   5.414   8.845 -0.1659  0.1856  0.2275
  711MOL0     C95890  11.444   5.360   8.985 -0.5634  0.1370  0.2815
  711MOL0     C95891  11.502   5.464   9.082  0.4100  0.3943  0.8589
  711MOL0     C95892  11.653   5.483   9.043  0.5067 -0.4518 -0.0577
  711MOL0     C95893  11.678   5.623   9.097  0.2339  0.3588 -0.0010
  711MOL0    Cl95894  11.831   5.675   9.015  0.1415 -0.0553  0.3853
  711MOL0     C95895  10.824   5.631   8.630  0.4089  0.2209  0.5282
  711MOL0     C95896  10.687   5.627   8.643  0.1850  0.4228 -0.2590
  711MOL0     O95897  10.445   5.701   8.505 -0.8459 -0.3763  0.5123
  711MOL0     C95898  10.184   5.466   8.594  0.4716  0.7317 -0.7710
  711MOL0     C95899  10.044   5.449   8.577 -0.7410  0.0213 -0.2826
  711MOL0     N95900   9.242   5.763   8.521  1.1097  0.5716 -0.2319
  711MOL0     N95901   9.153   5.809   8.605  0.2304  0.5585 -0.2440
  711MOL0     C95902   8.279   5.152   9.154 -0.0013  0.1830  0.1363
  711MOL0     C95903   8.196   5.049   9.114  0.7431 -0.5903 -0.3072
  711MOL0     C95904   8.032   4.738   8.843  0.1717  0.0688  0.3801
  711MOL0     C95905   7.894   4.746   8.847  0.0993 -0.3807  0.2744
  711MOL0     C95906   7.805   4.654   8.798  0.4003  0.0719  0.2989
  711MOL0     C95907   7.859   4.535   8.750 -0.7536  0.1106 -0.1409
  711MOL0     O95908   7.785   4.435   8.694 -0.0950 -0.9664  0.3779
  711MOL0     C95909   7.643   4.434   8.725 -0.9674  0.4437  0.0936
  711MOL0     C95910   7.602   4.299   8.671 -0.4629 -0.5515  0.4084
  711MOL0     C95911   7.452   4.268   8.703  0.4215  0.1923 -0.1389
  711MOL0     C95912   7.406   4.129   8.644  0.3169 -0.8878  0.2393
  711MOL0     C95913   7.372   4.134   8.502  0.3231  0.0678  0.4765
  711MOL0     C95914   7.324   4.133   8.391  0.6916 -0.0459 -0.0491
  711MOL0     C95915   8.001   4.526   8.725 -0.0228 -0.0651  0.0750
  711MOL0     C95916   8.087   4.626   8.780  0.3565 -0.2702  0.0023
  711MOL0     C95917   8.228   4.602   8.735  1.4942  0.5114 -0.1966
  711MOL0     H95918   8.055   5.177   8.834 -3.2914 -0.9469  1.8148
  711MOL0     H95919   8.242   5.359   8.890 -3.1077  1.1659  0.7585
  711MOL0     H95920   8.393   5.364   9.319 -2.4797  1.7561 -0.6846
  711MOL0     H95921   8.509   5.275   9.217 -0.4658 -0.0897 -0.9739
  711MOL0     H95922   8.553   5.520   9.345 -0.6849  2.6658  0.1276
  711MOL0     H95923   8.447   5.573   9.221  0.1172 -0.4751 -1.8024
  711MOL0     H95924   8.598   5.517   9.031  1.4628  0.6045 -0.1663
  711MOL0     H95925   8.685   5.410   9.137 -0.5376 -0.5152 -3.1215
  711MOL0     H95926   8.704   5.721   9.155  2.4093  1.3349 -0.6679
  711MOL0     H95927   8.767   5.596   9.274 -0.2755  0.1205  0.3629
  711MOL0     H95928   8.934   5.681   9.131  1.3834  1.0367 -3.6304
  711MOL0     H95929   8.919   5.510   9.100  1.0078  0.0263  0.5687
  711MOL0     H95930   8.818   5.538   8.903  1.7940 -1.0060  1.0242
  711MOL0     H95931   8.787   5.717   8.918 -0.0442  0.0189 -1.6200
  711MOL0     H95932   9.059   5.583   8.885 -0.9591 -1.4570  3.9304
  711MOL0     H95933   9.039   5.751   8.931 -2.0466  1.6933 -1.7717
  711MOL0     H95934   8.877   5.650   8.702 -1.2030  0.4331  1.8720
  711MOL0     H95935   8.914   5.811   8.740 -0.1085  0.2542  1.4678
  711MOL0     H95936   9.098   5.500   8.656 -3.5128  0.6017 -2.9618
  711MOL0     H95937   9.326   5.439   8.520  1.8754  0.1454  2.1400
  711MOL0     H95938   9.355   5.558   8.385  0.3559 -0.7641 -0.2346
  711MOL0     H95939   9.488   5.680   8.545 -0.9573  0.0482 -1.3803
  711MOL0     H95940   9.508   5.533   8.651 -0.6553 -0.7147 -0.2255
  711MOL0     H95941   9.584   5.533   8.364  0.6271  2.1246  0.1305
  711MOL0     H95942   9.611   5.409   8.487  2.5037 -0.1019 -2.0578
  711MOL0     H95943   9.757   5.602   8.604  1.0165 -2.3744  0.8177
  711MOL0     H95944   9.722   5.685   8.446 -0.3558 -0.3315  1.6628
  711MOL0     H95945   9.976   5.703   8.371 -0.4294 -0.9320 -0.9566
  711MOL0     H95946  10.222   5.756   8.438 -1.6119 -1.3488 -2.3253
  711MOL0     H95947  10.644   5.299   8.560  0.7062 -0.0839  0.2351
  711MOL0     H95948  10.888   5.334   8.504  1.1895  2.5430 -2.5302
  711MOL0     H95949  11.131   5.637   8.714 -1.8145  0.7262  1.2004
  711MOL0     H95950  11.025   5.509   8.787 -0.6448  1.8121  0.1038
  711MOL0     H95951  11.189   5.337   8.687 -1.0512 -0.7950 -2.2902
  711MOL0     H95952  11.279   5.461   8.613  1.0527  3.1480  0.7950
  711MOL0     H95953  11.293   5.576   8.856  2.1798 -0.5531  2.3615
  711MOL0     H95954  11.207   5.442   8.909  0.2432  0.1654  0.0082
  711MOL0     H95955  11.498   5.492   8.834  1.8742 -1.9820 -2.6796
  711MOL0     H95956  11.439   5.349   8.759 -0.2726  0.4128  0.0350
  711MOL0     H95957  11.519   5.282   8.991 -0.6964  0.1261  2.7270
  711MOL0     H95958  11.357   5.301   9.015  0.1970 -0.5325  1.1989
  711MOL0     H95959  11.444   5.556   9.091 -0.1808 -0.0260  1.4703
  711MOL0     H95960  11.490   5.443   9.189 -0.6791 -1.0108  0.4847
  711MOL0     H95961  11.677   5.498   8.937 -1.7915  0.1184 -0.5438
  711MOL0     H95962  11.718   5.405   9.085 -0.2499 -1.4691 -0.7287
  711MOL0     H95963  11.593   5.688   9.074 -0.0834  0.0867  0.3993
  711MOL0     H95964  11.675   5.622   9.206 -0.6709  2.6172  0.0624
  711MOL0     H95965  10.878   5.721   8.656  1.5816 -1.3945  4.2730
  711MOL0     H95966  10.640   5.714   8.689  0.5459  0.3469  0.2621
  711MOL0     H95967  10.236   5.389   8.650  2.5186  2.9300  0.5692
  711MOL0     H95968   9.998   5.357   8.611  0.9698  0.2494  3.0293
  711MOL0     H95969   8.336   5.145   9.247 -0.3212  0.9537  0.3954
  711MOL0     H95970   8.183   4.972   9.190 -2.2305 -2.5422 -2.5731
  711MOL0     H95971   7.847   4.827   8.902  1.4555 -0.0753  1.0489
  711MOL0     H95972   7.697   4.667   8.804  0.2521 -0.6266 -0.7431
  711MOL0     H95973   7.589   4.516   8.677  1.3422  1.7377 -0.4244
  711MOL0     H95974   7.618   4.443   8.831  2.1634  1.2541  0.8632
  711MOL0     H95975   7.673   4.223   8.706  1.8950  1.3616 -0.0381
  711MOL0     H95976   7.616   4.294   8.563 -0.8919 -0.5402  0.3463
  711MOL0     H95977   7.389   4.345   8.658  0.5046  2.5038  3.2445
  711MOL0     H95978   7.437   4.270   8.812  0.3961  1.9513 -0.1452
  711MOL0     H95979   7.495   4.070   8.667  1.7840  1.3045  0.5475
  711MOL0     H95980   7.319   4.087   8.696 -0.2469 -1.1206 -0.8802
  711MOL0     H95981   7.280   4.140   8.293  4.4873 -0.7408 -1.9883
  711MOL0     H95982   8.034   4.434   8.679 -1.7465 -0.3890 -0.5857
  711MOL0     H95983   8.298   4.642   8.808 -0.2559  1.2253  1.1545
  711MOL0     H95984   8.242   4.496   8.714 -1.3611 -0.4063  1.9657
  711MOL0     H95985   8.250   4.646   8.637  3.1943 -0.6577 -0.3826
  712MOL0     O95986   0.030   3.936   6.773 -0.6700 -0.1788  0.2230
  712MOL0     C95987   0.012   4.050   6.818 -0.5384  0.6369  0.6819
  712MOL0     O95988   0.102   4.149   6.807  0.3775  0.3362  0.2872
  712MOL0     C95989   0.238   4.124   6.826 -0.3638 -0.1097  0.0946
  712MOL0     C95990   0.297   4.009   6.878 -0.1212  0.4757 -0.3004
  712MOL0     C95991   0.434   4.008   6.885 -0.8479  0.2774  0.3109
  712MOL0     C95992   0.515   4.115   6.841 -0.7277  0.1318 -0.6682
  712MOL0     O95993   0.658   4.111   6.846 -0.0751  0.4976  0.1052
  712MOL0     C95994   0.724   3.996   6.894  0.1630  0.7051 -0.0621
  712MOL0     C95995   0.851   4.042   6.959  0.3438  0.0521  0.6170
  712MOL0     C95996   0.934   3.925   7.023 -0.6833 -0.1887  0.2466
  712MOL0     C95997   1.045   3.998   7.099 -1.5207 -0.0806 -0.3619
  712MOL0     C95998   1.141   3.908   7.166 -0.0397 -0.1173  0.7672
  712MOL0     C95999   1.248   3.849   7.067 -0.4832 -0.1670 -0.5076
  712MOL0     C96000   1.349   3.756   7.140 -0.4621 -0.6722  0.2044
  712MOL0     C96001   1.438   3.830   7.242 -0.2808 -0.2369 -0.6677
  712MOL0     N96002   1.518   3.747   7.332 -0.7896  0.0014  0.1894
  712MOL0     C96003   1.608   3.656   7.279  0.0753  0.2187 -0.2443
  712MOL0     C96004   1.673   3.610   7.384 -0.2249 -0.4580 -0.3991
  712MOL0     C96005   1.785   3.510   7.376 -0.7858 -0.0970  0.3400
  712MOL0     C96006   1.919   3.583   7.341 -0.4679  0.0413 -0.4985
  712MOL0     C96007   2.030   3.485   7.304  0.1192 -0.7255 -0.1453
  712MOL0     C96008   2.151   3.534   7.218 -0.3325  0.7599  0.3610
  712MOL0     O96009   2.096   3.544   7.086 -0.1589  0.0405  0.0206
  712MOL0     C96010   2.161   3.627   6.988 -1.0246 -0.4575  0.9852
  712MOL0     C96011   2.090   3.675   6.871  0.4374 -0.2102  0.1578
  712MOL0     C96012   2.142   3.768   6.780  1.0404  0.4020  0.5522
  712MOL0     C96013   2.274   3.807   6.800 -0.3461  0.5356  0.4896
  712MOL0     C96014   2.336   3.904   6.718 -0.5723  0.6746 -0.0270
  712MOL0     O96015   2.475   3.906   6.720 -0.3873 -0.0417  0.0108
  712MOL0     C96016   2.547   4.014   6.678  0.4867 -0.7409  0.1465
  712MOL0     C96017   2.676   3.994   6.628 -0.6427  0.1327  0.0869
  712MOL0     C96018   2.767   4.099   6.589  0.3852  0.6392 -0.3559
  712MOL0     C96019   2.721   4.233   6.596  0.6764  0.5420 -0.1303
  712MOL0     O96020   2.796   4.345   6.569 -0.4621 -0.1067  0.7311
  712MOL0     C96021   2.939   4.317   6.596  0.4466 -0.2326  0.3885
  712MOL0     C96022   3.008   4.445   6.567 -0.7748 -1.2762  0.5205
  712MOL0     C96023   3.162   4.431   6.572  0.1283 -0.7953 -0.4431
  712MOL0     C96024   3.226   4.558   6.498 -0.2260 -0.7721 -1.2301
  712MOL0     C96025   3.375   4.540   6.490  0.4416 -0.5726  0.2917
  712MOL0     C96026   3.447   4.663   6.428  0.3650 -0.6974  0.2253
  712MOL0     C96027   3.601   4.648   6.406  0.2689  0.0178  0.1114
  712MOL0     C96028   3.646   4.558   6.301  0.2384  0.0371 -0.4124
  712MOL0    Cl96029   3.666   4.389   6.357  0.2420 -0.0011  0.2385
  712MOL0     C96030   2.581   4.252   6.638 -1.0694 -0.1060  0.1526
  712MOL0     C96031   2.499   4.150   6.687  0.0806 -0.9172 -0.2144
  712MOL0     O96032   2.270   3.979   6.644 -0.4717  0.5625 -0.3136
  712MOL0     C96033   2.352   3.758   6.910  0.9282 -0.9823  0.1450
  712MOL0     C96034   2.296   3.660   6.999  0.2752  0.3733  0.1692
  712MOL0     N96035   1.620   3.668   7.504 -0.5603 -0.5057 -0.5195
  712MOL0     N96036   1.527   3.750   7.469  0.1491  0.5373  0.2122
  712MOL0     C96037   0.456   4.233   6.799 -0.7205 -0.1764 -0.2523
  712MOL0     C96038   0.321   4.238   6.788  0.7952 -0.2537 -0.6176
  712MOL0     C96039  -0.129   4.085   6.852 -0.0631  0.3800  0.5302
  712MOL0     C96040  -0.225   4.002   6.798 -0.0852  0.5399  0.4408
  712MOL0     C96041  -0.361   4.028   6.811 -0.5799  0.1390  0.3439
  712MOL0     C96042  -0.408   4.132   6.899 -0.2554  0.5849  0.4220
  712MOL0     O96043  -0.543   4.127   6.923 -0.1570 -0.0847  0.0258
  712MOL0     C96044  -0.597   4.198   7.041  0.0817 -0.4872  0.0344
  712MOL0     C96045  -0.731   4.136   7.056 -0.1813  0.0177  0.1483
  712MOL0     C96046  -0.716   4.009   7.128  1.1589 -0.0952 -0.3812
  712MOL0     C96047  -0.854   3.959   7.163 -0.7312  0.1950  0.0369
  712MOL0     C96048  -0.842   3.839   7.240  0.1882 -0.0765 -0.0050
  712MOL0     C96049  -0.834   3.754   7.324  0.5477  0.1729  0.5642
  712MOL0     C96050  -0.310   4.213   6.956  1.1151 -1.2593  0.8909
  712MOL0     C96051  -0.175   4.196   6.932 -0.1701  0.3423 -0.0098
  712MOL0     C96052  -0.077   4.286   6.999  0.2012  0.6820  0.0485
  712MOL0     H96053   0.240   3.920   6.903  0.8029  0.2542  1.1379
  712MOL0     H96054   0.475   3.916   6.923 -2.3477 -0.9048 -0.8148
  712MOL0     H96055   0.668   3.950   6.976  0.7524  0.8732  0.4403
  712MOL0     H96056   0.761   3.934   6.812 -0.4238  1.5029 -0.9532
  712MOL0     H96057   0.841   4.121   7.034  2.3631  1.6709 -0.7083
  712MOL0     H96058   0.916   4.088   6.884  1.4482 -0.8394  1.0024
  712MOL0     H96059   0.969   3.850   6.952 -2.6352 -1.8211  0.8940
  712MOL0     H96060   0.865   3.861   7.079 -0.4441  0.8464  1.7788
  712MOL0     H96061   1.110   4.054   7.032  2.2462 -3.8182 -0.2217
  712MOL0     H96062   1.010   4.065   7.177 -0.8047 -0.5921  0.4121
  712MOL0     H96063   1.185   3.970   7.244  1.1073 -0.4078  0.3830
  712MOL0     H96064   1.090   3.820   7.206  0.1250  0.5074  2.4038
  712MOL0     H96065   1.197   3.801   6.983 -0.8137 -1.2830  0.2987
  712MOL0     H96066   1.302   3.936   7.030 -1.9416  0.8880 -0.2640
  712MOL0     H96067   1.424   3.724   7.067 -0.4966  2.4366 -1.3636
  712MOL0     H96068   1.294   3.687   7.205  1.5670 -1.1710  1.4836
  712MOL0     H96069   1.501   3.904   7.191 -2.2927  2.2202  0.1498
  712MOL0     H96070   1.377   3.898   7.303  1.2543  0.4608  0.1477
  712MOL0     H96071   1.615   3.616   7.179  0.7863 -0.5608  0.1003
  712MOL0     H96072   1.795   3.457   7.471  0.0060  0.9120  0.8343
  712MOL0     H96073   1.764   3.433   7.301  0.0904 -2.1186  2.0474
  712MOL0     H96074   1.908   3.645   7.252  1.1191 -1.5519 -1.9137
  712MOL0     H96075   1.958   3.649   7.419 -0.9838 -0.1230 -0.0957
  712MOL0     H96076   1.971   3.414   7.245  0.4487 -3.0744  2.1463
  712MOL0     H96077   2.084   3.430   7.382  1.9367  2.7589  1.2643
  712MOL0     H96078   2.238   3.468   7.212  0.9348  2.4447 -1.0316
  712MOL0     H96079   2.184   3.633   7.252  2.3106  0.0901 -0.0310
  712MOL0     H96080   1.983   3.657   6.876  0.4391 -0.7866 -1.2498
  712MOL0     H96081   2.088   3.818   6.701  3.0440  0.7982 -0.6351
  712MOL0     H96082   2.708   3.893   6.606 -1.4757 -0.0805 -0.1923
  712MOL0     H96083   2.865   4.068   6.554  2.1880  2.3736  2.6989
  712MOL0     H96084   2.957   4.277   6.696  2.3847  0.1704  0.2303
  712MOL0     H96085   2.969   4.242   6.522 -1.9958 -2.0858  1.1475
  712MOL0     H96086   2.984   4.463   6.462  0.6122 -0.7004  0.2746
  712MOL0     H96087   2.977   4.529   6.631  3.7025  0.7683  0.4284
  712MOL0     H96088   3.189   4.426   6.678  1.7487 -3.4972 -0.8781
  712MOL0     H96089   3.204   4.338   6.532 -1.1131 -1.1637 -0.9202
  712MOL0     H96090   3.203   4.640   6.567 -0.2606 -0.3174 -1.7796
  712MOL0     H96091   3.187   4.585   6.400  2.7707 -2.0101 -2.8755
  712MOL0     H96092   3.398   4.457   6.423  0.8192 -2.5707  2.7451
  712MOL0     H96093   3.422   4.509   6.583  1.6455 -1.2399 -0.5072
  712MOL0     H96094   3.403   4.698   6.335  0.8249  3.3022  1.3541
  712MOL0     H96095   3.441   4.739   6.507 -1.5348 -1.1626  0.5636
  712MOL0     H96096   3.644   4.621   6.503 -1.3299 -1.2098  0.5212
  712MOL0     H96097   3.647   4.741   6.372  1.0300 -0.9502 -1.6109
  712MOL0     H96098   3.578   4.569   6.216 -0.0894 -0.5091 -0.2250
  712MOL0     H96099   3.747   4.587   6.271  0.1826  0.4355 -0.2250
  712MOL0     H96100   2.539   4.351   6.652 -0.5706 -0.0636  1.4402
  712MOL0     H96101   2.401   4.158   6.732  0.4133 -0.6495  0.4725
  712MOL0     H96102   2.447   3.803   6.934  0.8448  0.8720 -2.5425
  712MOL0     H96103   2.355   3.622   7.082  0.4184  0.6519  0.1978
  712MOL0     H96104   0.514   4.318   6.766 -3.0174  1.2982 -0.7380
  712MOL0     H96105   0.270   4.319   6.737 -1.8199 -1.7552 -0.5687
  712MOL0     H96106  -0.197   3.910   6.748  2.3270 -0.6384  3.5713
  712MOL0     H96107  -0.420   3.953   6.759  2.3643 -0.9031 -1.7478
  712MOL0     H96108  -0.592   4.307   7.035  1.7538 -0.6047 -3.0951
  712MOL0     H96109  -0.528   4.176   7.123 -3.1904 -4.1149  2.1545
  712MOL0     H96110  -0.785   4.119   6.962 -0.7230  0.6109  0.3407
  712MOL0     H96111  -0.793   4.203   7.116  0.8571 -1.5259  3.1437
  712MOL0     H96112  -0.653   4.019   7.217  1.5066 -2.3087 -0.3370
  712MOL0     H96113  -0.676   3.938   7.055  1.1360  2.8070 -3.4869
  712MOL0     H96114  -0.900   4.031   7.231  0.5053 -0.1492  1.2962
  712MOL0     H96115  -0.914   3.943   7.073  0.0736  2.1314 -0.9008
  712MOL0     H96116  -0.837   3.684   7.405  1.4407  1.2330  1.5489
  712MOL0     H96117  -0.345   4.284   7.029  1.4871  2.0825 -1.9004
  712MOL0     H96118  -0.019   4.230   7.073 -1.1402  0.8724  1.2650
  712MOL0     H96119  -0.008   4.338   6.931 -0.3844  1.6306  0.1757
  712MOL0     H96120  -0.131   4.364   7.053  1.6215 -0.0846  2.7269
  713MOL0     O96121  10.657   2.056   1.425  1.2138 -0.2598  0.7860
  713MOL0     C96122  10.559   2.050   1.499  0.2493  0.4010  0.3089
  713MOL0     O96123  10.547   2.101   1.620  0.2128  0.2621 -0.1727
  713MOL0     C96124  10.642   2.182   1.667  0.1178 -0.7254  0.3154
  713MOL0     C96125  10.748   2.123   1.737  0.4787 -0.0032  0.2100
  713MOL0     C96126  10.834   2.198   1.818  0.1819 -0.2302  0.2793
  713MOL0     C96127  10.818   2.336   1.821  0.4461  0.0558  0.6108
  713MOL0     O96128  10.891   2.421   1.904 -0.3892 -0.2250  0.2265
  713MOL0     C96129  10.995   2.368   1.997  0.7774  0.0211 -0.3392
  713MOL0     C96130  11.016   2.466   2.119  0.2631  0.8121  0.3579
  713MOL0     C96131  11.131   2.421   2.210 -0.3600 -0.5628  0.2650
  713MOL0     C96132  11.171   2.527   2.323  0.8817 -0.2732  0.1167
  713MOL0     C96133  11.249   2.464   2.431 -0.4590 -0.5257  1.2721
  713MOL0     C96134  11.400   2.474   2.411 -0.0931 -0.2992  0.1755
  713MOL0     C96135  11.484   2.407   2.521 -0.0237 -0.0278  0.1627
  713MOL0     C96136  11.633   2.377   2.490 -0.1872  0.5349  0.8616
  713MOL0     N96137  11.699   2.310   2.599 -0.1610  0.7671 -0.6209
  713MOL0     C96138  11.705   2.177   2.639  0.2294 -0.1344 -0.9603
  713MOL0     C96139  11.788   2.160   2.744 -0.5949 -0.0017  0.2182
  713MOL0     C96140  11.807   2.041   2.833  0.0418 -0.0168  0.3589
  713MOL0     C96141  11.961   2.006   2.854  0.3616  0.7270 -0.6808
  713MOL0     C96142  11.962   1.859   2.897  0.7081 -0.6692 -0.6626
  713MOL0     C96143  12.096   1.781   2.929 -0.2679  0.1975  0.0774
  713MOL0     O96144  12.163   1.855   3.029  0.6405 -0.1973 -0.2302
  713MOL0     C96145  12.299   1.846   3.046 -0.4916  0.3117 -0.4749
  713MOL0     C96146  12.362   1.721   3.038 -0.0912 -0.2354 -0.3371
  713MOL0     C96147  12.503   1.710   3.054  0.4631  0.2893 -0.6918
  713MOL0     C96148  12.579   1.822   3.091  0.3410 -0.3864 -0.3047
  713MOL0     C96149  12.724   1.822   3.112 -0.2030  0.3572  0.9333
  713MOL0     O96150  12.783   1.918   3.185  0.2268 -0.2252 -0.5059
  713MOL0     C96151  12.919   1.926   3.212 -0.1214  0.5151 -0.4594
  713MOL0     C96152  12.969   2.040   3.264  0.1742  0.7583 -0.1708
  713MOL0     C96153  13.110   2.059   3.303 -0.1789  0.0470  0.8097
  713MOL0     C96154  13.198   1.956   3.294  0.0635 -0.5093 -0.1054
  713MOL0     O96155  13.326   1.988   3.326  0.8220 -0.3195 -0.0288
  713MOL0     C96156  13.419   1.881   3.343 -0.8635  0.5105  0.3512
  713MOL0     C96157  13.568   1.928   3.329 -0.7095 -0.5267 -0.1850
  713MOL0     C96158  13.605   2.017   3.450 -0.3238  0.4603  0.1542
  713MOL0     C96159  13.731   2.103   3.429  0.1642  0.8153 -0.0376
  713MOL0     C96160  13.869   2.067   3.491 -1.5117 -0.3508 -0.2834
  713MOL0     C96161  13.898   2.147   3.621 -0.2492 -0.1465  0.8215
  713MOL0     C96162  14.053   2.150   3.659  0.5744  0.1044  0.7194
  713MOL0     C96163  14.061   2.187   3.803  0.3506  0.0731  0.4535
  713MOL0    Cl96164  13.986   2.349   3.818 -0.1892  0.3575 -0.1597
  713MOL0     C96165  13.146   1.832   3.255  0.4953  0.3114  0.0045
  713MOL0     C96166  13.011   1.812   3.211 -0.3449  0.8167 -0.0058
  713MOL0     O96167  12.779   1.722   3.062  0.3116 -0.2336  0.1183
  713MOL0     C96168  12.512   1.948   3.104  0.2130 -0.3636  0.3088
  713MOL0     C96169  12.372   1.959   3.092 -0.0807  0.4822 -0.0962
  713MOL0     N96170  11.823   2.288   2.775 -0.1734 -0.0027  0.8256
  713MOL0     N96171  11.786   2.376   2.685 -0.4643 -0.0894 -0.8834
  713MOL0     C96172  10.720   2.396   1.739 -0.2255  0.0648 -0.0287
  713MOL0     C96173  10.630   2.320   1.668 -0.0790 -1.3377  0.7227
  713MOL0     C96174  10.432   1.991   1.442 -0.3343  0.2805 -0.0375
  713MOL0     C96175  10.311   2.044   1.493 -0.3489  0.6644  0.0498
  713MOL0     C96176  10.191   1.992   1.471 -0.2759  0.5985 -0.3284
  713MOL0     C96177  10.188   1.876   1.388  0.2158 -0.2783 -0.2635
  713MOL0     O96178  10.061   1.828   1.376 -0.3483 -0.0576 -0.8103
  713MOL0     C96179  10.023   1.741   1.269  0.2516  0.1783 -1.2630
  713MOL0     C96180   9.904   1.661   1.311 -0.6189  0.2330  0.7267
  713MOL0     C96181   9.782   1.755   1.325 -0.4517  0.0381  0.7983
  713MOL0     C96182   9.661   1.676   1.376 -0.6736  0.0402  0.1286
  713MOL0     C96183   9.533   1.751   1.383 -0.2429  0.8591  0.2672
  713MOL0     C96184   9.416   1.782   1.379  0.1193 -0.3355  0.4012
  713MOL0     C96185  10.309   1.823   1.328  1.0214 -0.6256 -0.0581
  713MOL0     C96186  10.428   1.880   1.351  0.1363 -0.9234  0.9572
  713MOL0     C96187  10.543   1.804   1.293 -0.1278  0.2071 -0.3960
  713MOL0     H96188  10.768   2.018   1.758 -1.8999 -0.5272  0.1913
  713MOL0     H96189  10.907   2.143   1.877 -1.1436 -3.7474 -1.1052
  713MOL0     H96190  10.959   2.279   2.049 -0.0906  1.3198  1.3805
  713MOL0     H96191  11.091   2.344   1.950  1.6789 -3.8293  2.9789
  713MOL0     H96192  10.915   2.476   2.162 -0.9784 -1.7408 -1.6841
  713MOL0     H96193  11.049   2.564   2.083  0.5673  0.2247 -1.0406
  713MOL0     H96194  11.216   2.395   2.146 -2.3724 -2.5019 -1.7940
  713MOL0     H96195  11.095   2.332   2.263 -0.9321 -1.0350 -0.8781
  713MOL0     H96196  11.212   2.618   2.278  2.9612 -0.2667  1.8779
  713MOL0     H96197  11.078   2.555   2.374  1.7305 -1.3986  2.4308
  713MOL0     H96198  11.230   2.516   2.526 -0.4480  0.4666  0.7509
  713MOL0     H96199  11.223   2.359   2.440  0.5252 -0.9462 -0.4095
  713MOL0     H96200  11.428   2.427   2.316  0.4389 -0.3606  0.3600
  713MOL0     H96201  11.434   2.578   2.416  1.1788 -0.7113  0.4159
  713MOL0     H96202  11.434   2.314   2.551 -1.1596  0.8360  1.0566
  713MOL0     H96203  11.479   2.474   2.608  1.2349  0.2287  0.0571
  713MOL0     H96204  11.639   2.319   2.398 -4.7852  2.6322 -1.0975
  713MOL0     H96205  11.677   2.476   2.472  0.6676 -0.0382 -0.2846
  713MOL0     H96206  11.634   2.103   2.604 -2.3675  2.1704 -0.8721
  713MOL0     H96207  11.769   2.064   2.933 -2.3450  1.0142 -0.7057
  713MOL0     H96208  11.749   1.958   2.794 -4.6270  1.2488  3.7375
  713MOL0     H96209  12.025   2.014   2.765  3.2676  1.3776  1.3214
  713MOL0     H96210  12.003   2.069   2.932  0.4493  0.4207 -0.4765
  713MOL0     H96211  11.908   1.796   2.826 -1.7828  1.8117 -1.1367
  713MOL0     H96212  11.898   1.853   2.985  1.5009  1.1698  0.0918
  713MOL0     H96213  12.148   1.777   2.833 -0.4818 -1.4475  0.0164
  713MOL0     H96214  12.077   1.679   2.962 -5.1618  0.8036 -0.1742
  713MOL0     H96215  12.305   1.635   3.004 -0.8328  1.0382 -2.5308
  713MOL0     H96216  12.562   1.621   3.037 -1.0367 -0.8335 -0.2128
  713MOL0     H96217  12.901   2.122   3.286  2.3135  2.1582  1.6858
  713MOL0     H96218  13.139   2.158   3.336 -2.4582  0.5887  1.2964
  713MOL0     H96219  13.409   1.839   3.444 -0.6872 -1.8113 -0.5269
  713MOL0     H96220  13.411   1.801   3.268 -1.1304 -1.5585  2.4469
  713MOL0     H96221  13.640   1.847   3.319 -0.2920 -0.1169 -0.5147
  713MOL0     H96222  13.574   1.987   3.238 -0.4667 -2.8067 -1.7250
  713MOL0     H96223  13.526   2.091   3.459 -0.1188  0.7803 -0.5835
  713MOL0     H96224  13.612   1.958   3.542 -1.4201  0.6999  0.3979
  713MOL0     H96225  13.705   2.202   3.468 -0.1646  0.0603  1.7703
  713MOL0     H96226  13.741   2.119   3.321 -4.0874  2.2890 -0.4057
  713MOL0     H96227  13.939   2.098   3.413 -1.5606 -0.7426 -0.4873
  713MOL0     H96228  13.887   1.961   3.510  2.0869  0.4534  1.7371
  713MOL0     H96229  13.874   2.250   3.595 -0.3477  0.5461  3.4234
  713MOL0     H96230  13.834   2.118   3.705 -1.5686 -2.4824 -0.8817
  713MOL0     H96231  14.092   2.233   3.599 -0.5912 -1.6161 -2.6869
  713MOL0     H96232  14.110   2.059   3.638  1.7006  1.4895 -2.8349
  713MOL0     H96233  14.010   2.122   3.874 -2.0361  0.1538 -1.1077
  713MOL0     H96234  14.170   2.186   3.820  0.2007 -2.1393  1.5957
  713MOL0     H96235  13.209   1.745   3.271 -1.7589 -1.2125  1.0677
  713MOL0     H96236  12.982   1.707   3.204  2.1200  0.1584 -1.6335
  713MOL0     H96237  12.567   2.040   3.121 -4.2642  2.6695  0.1167
  713MOL0     H96238  12.319   2.053   3.110  3.6418  2.4745  1.5481
  713MOL0     H96239  10.715   2.505   1.738  1.2104  0.1556 -0.4227
  713MOL0     H96240  10.546   2.359   1.613 -0.6901 -1.0377  1.8394
  713MOL0     H96241  10.313   2.122   1.568 -0.6179 -0.0439  0.8068
  713MOL0     H96242  10.101   2.042   1.506  0.6886  1.7252  0.6698
  713MOL0     H96243  10.109   1.679   1.241  2.0677  1.4417  1.0853
  713MOL0     H96244   9.994   1.816   1.194 -1.0374  2.2772  1.2002
  713MOL0     H96245   9.928   1.607   1.403 -0.9571 -1.2482 -0.0256
  713MOL0     H96246   9.894   1.583   1.235  4.3500 -0.8255  0.7652
  713MOL0     H96247   9.757   1.806   1.231  0.8681 -0.9059 -0.0949
  713MOL0     H96248   9.804   1.841   1.389 -5.0104  2.5497 -0.5730
  713MOL0     H96249   9.648   1.612   1.288  0.4799  0.2044 -0.1714
  713MOL0     H96250   9.675   1.624   1.471 -3.9958 -1.4560 -0.0311
  713MOL0     H96251   9.314   1.812   1.364  0.0950 -0.8937 -0.6369
  713MOL0     H96252  10.293   1.728   1.278 -1.6538  0.4196 -1.3597
  713MOL0     H96253  10.519   1.698   1.301  0.1267  0.1699 -0.0776
  713MOL0     H96254  10.566   1.811   1.186  4.7457 -2.2914  0.2072
  713MOL0     H96255  10.636   1.825   1.347  0.9217  2.7755 -2.8942
  714MOL0     O96256   7.176   7.191   5.593  1.0370  0.0437 -0.2886
  714MOL0     C96257   7.153   7.091   5.518  0.1192 -0.1395 -0.0307
  714MOL0     O96258   7.247   7.018   5.457 -0.2948 -0.4118 -0.1646
  714MOL0     C96259   7.368   7.074   5.463  0.8775  0.3081  0.3585
  714MOL0     C96260   7.396   7.195   5.405 -0.1093 -0.2756  0.3838
  714MOL0     C96261   7.527   7.244   5.396 -0.3896  0.8126 -0.4009
  714MOL0     C96262   7.628   7.173   5.464 -1.3280 -0.5098  1.0311
  714MOL0     O96263   7.755   7.226   5.446  0.0552  0.3553  0.1952
  714MOL0     C96264   7.768   7.370   5.433  0.0148 -0.2927  0.1600
  714MOL0     C96265   7.915   7.403   5.449  0.7895  0.5741  0.1158
  714MOL0     C96266   7.974   7.366   5.594  0.2662 -0.0128  0.8850
  714MOL0     C96267   8.127   7.394   5.585  0.8437 -0.4432  0.0487
  714MOL0     C96268   8.200   7.382   5.720  0.7460 -0.2773 -0.2099
  714MOL0     C96269   8.343   7.422   5.684 -0.3110 -0.6965 -0.9368
  714MOL0     C96270   8.425   7.471   5.807  0.1306  0.7935  0.3522
  714MOL0     C96271   8.457   7.360   5.907  1.0566 -0.3127 -0.2390
  714MOL0     N96272   8.528   7.424   6.021 -0.4026 -0.4430 -0.6239
  714MOL0     C96273   8.656   7.460   6.021  0.2367 -0.4104 -1.2412
  714MOL0     C96274   8.672   7.545   6.119 -0.0165  0.1978  0.3618
  714MOL0     C96275   8.802   7.615   6.167  1.0288  0.2340 -0.5708
  714MOL0     C96276   8.891   7.528   6.253  0.2565  0.2461 -0.4559
  714MOL0     C96277   9.002   7.598   6.322 -1.2766 -0.6924 -0.6880
  714MOL0     C96278   9.078   7.706   6.248 -0.5627  0.7705 -0.3865
  714MOL0     O96279   9.174   7.763   6.347  0.2214  0.6473  0.1740
  714MOL0     C96280   9.278   7.830   6.293 -0.6595 -0.0222 -0.1949
  714MOL0     C96281   9.377   7.884   6.377  0.0876  0.2047 -0.6410
  714MOL0     C96282   9.477   7.970   6.330 -0.1242 -0.4437 -0.1619
  714MOL0     C96283   9.489   8.008   6.198 -0.0837  0.5720  0.2964
  714MOL0     C96284   9.602   8.082   6.146  0.6401  0.5370  0.6535
  714MOL0     O96285   9.696   8.107   6.238 -0.4431 -0.0883  0.0361
  714MOL0     C96286   9.815   8.171   6.196  0.1544 -0.0549  0.1683
  714MOL0     C96287   9.822   8.301   6.143 -0.0320 -0.7530  1.1250
  714MOL0     C96288   9.952   8.350   6.104  0.1459 -0.0020  0.7075
  714MOL0     C96289  10.074   8.282   6.105  0.6442  0.3840  0.0503
  714MOL0     O96290  10.189   8.350   6.071 -0.1893 -0.1582  1.2205
  714MOL0     C96291  10.308   8.275   6.026 -0.0620 -0.0210 -0.5127
  714MOL0     C96292  10.406   8.355   5.940 -0.4389  0.0809  0.3511
  714MOL0     C96293  10.482   8.469   6.012 -0.3622 -0.4921 -0.3579
  714MOL0     C96294  10.593   8.517   5.929 -0.7886 -0.4257 -0.4433
  714MOL0     C96295  10.659   8.641   5.991 -1.2044  0.0918 -0.1784
  714MOL0     C96296  10.773   8.686   5.902 -0.0351  0.1997  1.1307
  714MOL0     C96297  10.843   8.808   5.950  0.8024 -1.3094 -0.8262
  714MOL0     C96298  10.956   8.801   6.049 -0.5758  0.9672  0.0962
  714MOL0    Cl96299  11.108   8.748   5.962  0.1415 -0.0714 -0.0825
  714MOL0     C96300  10.064   8.150   6.160 -0.8714 -0.0693 -0.6433
  714MOL0     C96301   9.938   8.100   6.206 -0.8770  0.0492  1.0156
  714MOL0     O96302   9.589   8.126   6.038  0.0694  0.0335  0.2625
  714MOL0     C96303   9.382   7.962   6.114 -0.4424  1.2132  0.2804
  714MOL0     C96304   9.283   7.880   6.160  0.1647  0.3617  0.3728
  714MOL0     N96305   8.551   7.564   6.187  0.1443 -0.0819  0.1954
  714MOL0     N96306   8.464   7.479   6.124 -0.6381 -0.1802  0.7774
  714MOL0     C96307   7.602   7.047   5.523  0.6112 -0.6097 -0.9249
  714MOL0     C96308   7.473   6.999   5.518 -0.1333  0.2245 -0.2868
  714MOL0     C96309   7.005   7.044   5.522 -1.2946  0.1535  0.3679
  714MOL0     C96310   6.929   7.058   5.642  0.0169  0.3256  0.7891
  714MOL0     C96311   6.798   7.017   5.665  0.1772  0.3297 -0.3084
  714MOL0     C96312   6.732   6.954   5.564 -0.2191  1.5624 -0.3147
  714MOL0     O96313   6.602   6.911   5.588 -0.5732  0.4498  0.3357
  714MOL0     C96314   6.523   6.859   5.480 -0.3082  0.1647  0.2009
  714MOL0     C96315   6.545   6.710   5.453 -0.5602 -0.2413 -0.2567
  714MOL0     C96316   6.476   6.626   5.564 -0.6984  0.6860 -0.1660
  714MOL0     C96317   6.512   6.473   5.544  0.3126  0.1369 -0.0358
  714MOL0     C96318   6.415   6.393   5.466  0.6337 -0.4480  0.6439
  714MOL0     C96319   6.341   6.326   5.403 -0.5873 -0.0999  0.5400
  714MOL0     C96320   6.799   6.942   5.442  0.0416 -0.3770  0.9409
  714MOL0     C96321   6.927   6.979   5.422 -0.4561  0.2396 -0.5386
  714MOL0     C96322   6.974   6.967   5.282  0.8560  0.0652  0.1652
  714MOL0     H96323   7.318   7.251   5.353 -0.7425  0.4997  2.0820
  714MOL0     H96324   7.543   7.339   5.348  0.7739 -0.3404 -2.4220
  714MOL0     H96325   7.745   7.409   5.334  1.3985  1.8013  0.6113
  714MOL0     H96326   7.709   7.443   5.490  0.2841 -0.3097  0.4625
  714MOL0     H96327   7.920   7.510   5.428 -2.8975  0.6856 -0.9846
  714MOL0     H96328   7.971   7.346   5.375 -1.4945 -2.2192  0.3550
  714MOL0     H96329   7.953   7.260   5.608  1.6021 -0.7413 -1.9467
  714MOL0     H96330   7.929   7.440   5.661  0.0328  1.5918 -0.9294
  714MOL0     H96331   8.155   7.333   5.498 -2.9481 -0.3252 -1.4261
  714MOL0     H96332   8.136   7.497   5.548 -0.9752  0.3707  1.7106
  714MOL0     H96333   8.161   7.460   5.786  3.4350 -1.6804  3.2808
  714MOL0     H96334   8.199   7.284   5.767  1.7987  0.0513  0.5210
  714MOL0     H96335   8.384   7.333   5.636 -2.2680 -1.9145 -0.4514
  714MOL0     H96336   8.342   7.514   5.624 -1.1765  0.7409  1.1521
  714MOL0     H96337   8.362   7.555   5.839  0.6744  1.1879  0.4161
  714MOL0     H96338   8.519   7.514   5.771 -0.1416  2.2531  1.2819
  714MOL0     H96339   8.362   7.327   5.949 -0.0268  2.6041 -0.1781
  714MOL0     H96340   8.524   7.281   5.870  0.5596  0.2161 -2.3880
  714MOL0     H96341   8.734   7.407   5.967  3.3573  1.1881  1.3237
  714MOL0     H96342   8.861   7.638   6.078  2.1446 -2.3049 -0.5785
  714MOL0     H96343   8.777   7.711   6.212 -0.0242 -1.2933  2.3156
  714MOL0     H96344   8.843   7.457   6.320  1.2941  1.6048  1.8451
  714MOL0     H96345   8.937   7.459   6.182  0.2852  0.6277 -0.8155
  714MOL0     H96346   9.074   7.520   6.351  0.7232 -0.3863 -4.2045
  714MOL0     H96347   8.954   7.649   6.406 -1.6329 -2.2438  0.0875
  714MOL0     H96348   9.003   7.773   6.205 -0.9016  1.5345  1.2805
  714MOL0     H96349   9.140   7.661   6.171  1.7677  2.5416  0.3371
  714MOL0     H96350   9.389   7.845   6.478  0.3359 -1.4494 -1.2821
  714MOL0     H96351   9.563   7.992   6.392 -1.0532 -2.2383  1.8829
  714MOL0     H96352   9.733   8.362   6.135 -0.7090 -2.0120 -2.4223
  714MOL0     H96353   9.955   8.456   6.080 -0.9650 -0.0865  0.0914
  714MOL0     H96354  10.362   8.244   6.116 -1.3656 -1.0584 -0.0497
  714MOL0     H96355  10.282   8.184   5.970  2.6942 -1.2552  0.0784
  714MOL0     H96356  10.481   8.289   5.895  0.5862  0.0026  2.0962
  714MOL0     H96357  10.346   8.399   5.860 -3.6491 -0.7546  2.1120
  714MOL0     H96358  10.415   8.554   6.030 -1.1487 -1.3908  1.2240
  714MOL0     H96359  10.522   8.434   6.108 -1.1763  0.4423  0.3480
  714MOL0     H96360  10.542   8.552   5.839 -2.5287  0.5387  0.8470
  714MOL0     H96361  10.667   8.440   5.903 -0.5693  0.0884 -1.4131
  714MOL0     H96362  10.702   8.608   6.086  0.8560 -0.7027 -1.3128
  714MOL0     H96363  10.589   8.724   6.008 -1.8184 -0.6627  1.1612
  714MOL0     H96364  10.856   8.616   5.889  2.4788  3.1795 -0.2339
  714MOL0     H96365  10.732   8.699   5.802  0.2436 -0.2293  0.9589
  714MOL0     H96366  10.759   8.869   5.984 -0.6568 -2.4882 -2.1250
  714MOL0     H96367  10.879   8.873   5.869  0.4125  1.3560  1.0123
  714MOL0     H96368  10.983   8.900   6.085  1.1514  1.4589 -2.3008
  714MOL0     H96369  10.926   8.748   6.140 -3.4510  2.3216  0.0381
  714MOL0     H96370  10.154   8.093   6.183 -1.2116 -0.2653  0.2624
  714MOL0     H96371   9.933   8.000   6.247 -0.9092 -1.3277 -2.0519
  714MOL0     H96372   9.383   8.003   6.013  2.3148  0.1224 -0.2163
  714MOL0     H96373   9.209   7.855   6.085 -2.6243  1.8528  2.4510
  714MOL0     H96374   7.684   7.003   5.580 -2.4752 -3.0522  2.1384
  714MOL0     H96375   7.445   6.904   5.562  0.4090 -1.6186 -3.6229
  714MOL0     H96376   6.968   7.105   5.731  0.4690 -2.7269  2.3382
  714MOL0     H96377   6.762   7.041   5.765 -1.9644  1.8064 -1.3791
  714MOL0     H96378   6.541   6.923   5.393 -0.2998  2.3461  1.6974
  714MOL0     H96379   6.417   6.879   5.494 -0.1669  2.0679 -0.9763
  714MOL0     H96380   6.650   6.684   5.439 -0.1604  0.8000  0.6303
  714MOL0     H96381   6.509   6.676   5.356  2.0068 -1.6507 -0.7833
  714MOL0     H96382   6.370   6.653   5.560 -0.1996  2.7883 -3.8392
  714MOL0     H96383   6.513   6.644   5.665 -0.4130 -1.3170  0.1270
  714MOL0     H96384   6.605   6.464   5.488  0.7025  0.3970  0.5512
  714MOL0     H96385   6.521   6.422   5.641 -1.3281 -1.6019 -0.7308
  714MOL0     H96386   6.272   6.271   5.343  1.0401  1.0720 -2.6604
  714MOL0     H96387   6.745   6.893   5.362 -0.4164  0.7280  0.5495
  714MOL0     H96388   6.924   6.882   5.235 -2.9972  2.7898 -1.1263
  714MOL0     H96389   6.957   7.052   5.215 -1.4407 -0.1252  0.4342
  714MOL0     H96390   7.082   6.947   5.278  1.2114  1.9473 -0.9938
  715MOL0     O96391   7.649  10.615   0.839 -0.7454 -0.4838  0.0427
  715MOL0     C96392   7.647  10.576   0.723 -0.4128  0.8159  0.0081
  715MOL0     O96393   7.747  10.510   0.649 -0.0140  0.3605 -0.0898
  715MOL0     C96394   7.849  10.466   0.734  0.9113 -0.2044 -0.7485
  715MOL0     C96395   7.849  10.333   0.782 -0.1446 -0.2471 -0.4447
  715MOL0     C96396   7.950  10.288   0.863  0.3395 -0.2835 -1.3079
  715MOL0     C96397   8.057  10.370   0.896  0.4483 -0.5462 -0.1794
  715MOL0     O96398   8.157  10.303   0.964  0.9492 -0.1178 -0.0801
  715MOL0     C96399   8.230  10.389   1.052 -1.0107  0.1140  0.2693
  715MOL0     C96400   8.314  10.304   1.145  0.0887 -0.4279 -0.1169
  715MOL0     C96401   8.466  10.336   1.126 -0.6459  0.9087  0.3937
  715MOL0     C96402   8.519  10.471   1.187  0.6765 -0.0842  0.2570
  715MOL0     C96403   8.675  10.483   1.173  0.3194 -0.1681  0.7864
  715MOL0     C96404   8.753  10.411   1.283 -0.3727 -0.2546  0.0297
  715MOL0     C96405   8.895  10.393   1.225 -0.0014  0.2859 -0.2840
  715MOL0     C96406   8.968  10.523   1.233  0.1780 -0.4092  0.2053
  715MOL0     N96407   9.115  10.512   1.202  0.3339  1.0575 -0.2889
  715MOL0     C96408   9.200  10.481   1.299 -0.3264  0.3882  0.0466
  715MOL0     C96409   9.325  10.475   1.247 -0.9667 -0.1084 -0.1647
  715MOL0     C96410   9.454  10.455   1.315 -0.2360  0.0201  0.3276
  715MOL0     C96411   9.555  10.383   1.224 -0.1842  0.2157 -0.7035
  715MOL0     C96412   9.683  10.344   1.308 -0.1915 -0.3871  0.9197
  715MOL0     C96413   9.766  10.231   1.250  0.1958 -0.1477  0.6706
  715MOL0     O96414   9.840  10.289   1.138  0.1597  0.7376  0.2412
  715MOL0     C96415   9.936  10.215   1.074 -1.0331  0.6950 -0.5649
  715MOL0     C96416   9.977  10.086   1.115  0.7640  0.2521  0.7020
  715MOL0     C96417  10.078  10.017   1.050  0.1385 -0.4212 -0.6536
  715MOL0     C96418  10.145  10.077   0.938  0.4986  0.2118 -0.1936
  715MOL0     C96419  10.255  10.009   0.859 -0.4870  0.2544  0.1127
  715MOL0     O96420  10.301   9.886   0.908  0.3724  0.5453  0.2970
  715MOL0     C96421  10.419   9.840   0.866 -0.1692  0.2413 -0.4766
  715MOL0     C96422  10.426   9.707   0.833 -0.5651 -0.8113 -1.0337
  715MOL0     C96423  10.548   9.649   0.794 -0.0871  0.5845 -0.5389
  715MOL0     C96424  10.659   9.727   0.764 -0.8006  0.3331  0.1795
  715MOL0     O96425  10.779   9.677   0.720 -0.1595  0.1111 -0.8088
  715MOL0     C96426  10.814   9.544   0.767 -0.5584  0.4330 -0.9315
  715MOL0     C96427  10.873   9.550   0.923 -0.3025 -0.2363 -0.3889
  715MOL0     C96428  10.926   9.420   0.972  0.7540 -0.3989 -0.1062
  715MOL0     C96429  11.033   9.346   0.891 -0.0364  0.5619 -0.2508
  715MOL0     C96430  11.092   9.225   0.963  0.4083 -0.4250 -0.3114
  715MOL0     C96431  11.194   9.265   1.072 -0.1982  0.9880  0.6142
  715MOL0     C96432  11.241   9.135   1.142  0.1429 -0.1271 -0.3751
  715MOL0     C96433  11.386   9.142   1.186 -0.1383  0.1239  0.8274
  715MOL0    Cl96434  11.483   9.153   1.036 -0.2258 -0.2530  0.0574
  715MOL0     C96435  10.644   9.860   0.791 -1.1696 -0.5497 -0.6642
  715MOL0     C96436  10.531   9.919   0.852 -0.2128  0.6898  0.5441
  715MOL0     O96437  10.301  10.066   0.759  0.4772  0.4629  0.0582
  715MOL0     C96438  10.101  10.202   0.892  0.5284 -0.6316  0.0426
  715MOL0     C96439   9.993  10.272   0.958 -0.2550 -0.2248  0.0480
  715MOL0     N96440   9.308  10.526   1.116 -0.3961 -0.5964 -0.3056
  715MOL0     N96441   9.179  10.541   1.088 -0.1769 -0.1954 -0.2436
  715MOL0     C96442   8.060  10.499   0.841 -0.8572  0.4805  0.1352
  715MOL0     C96443   7.963  10.547   0.758 -0.6879 -0.1124 -0.0571
  715MOL0     C96444   7.518  10.599   0.650  0.2916 -0.3620 -0.0335
  715MOL0     C96445   7.423  10.664   0.724 -0.0238  0.0513 -0.1535
  715MOL0     C96446   7.295  10.695   0.671  0.1255  0.7986 -0.3794
  715MOL0     C96447   7.263  10.661   0.543  0.7056 -0.1574  0.0653
  715MOL0     O96448   7.148  10.699   0.479 -0.2750  0.0132  0.4970
  715MOL0     C96449   7.153  10.818   0.407  0.0333 -0.0792 -0.7952
  715MOL0     C96450   7.074  10.803   0.277  0.2763  0.4014  0.7469
  715MOL0     C96451   7.144  10.709   0.174 -0.1700 -1.1608  0.4950
  715MOL0     C96452   7.082  10.721   0.039  0.0417  0.0958  0.6564
  715MOL0     C96453   6.939  10.702   0.045 -0.3794 -0.6940 -1.1991
  715MOL0     C96454   6.812  10.692   0.057 -0.4522 -0.0386  0.7543
  715MOL0     C96455   7.359  10.586   0.467 -0.3553  0.5281 -0.1158
  715MOL0     C96456   7.484  10.554   0.518  0.3587  0.2478  0.0032
  715MOL0     C96457   7.574  10.472   0.422  0.1261  0.4455 -0.6330
  715MOL0     H96458   7.753  10.288   0.763 -0.6085  0.4923  0.0700
  715MOL0     H96459   7.946  10.190   0.909 -0.9699 -0.1015 -0.9969
  715MOL0     H96460   8.289  10.447   0.980 -4.2318  1.9651 -1.1456
  715MOL0     H96461   8.181  10.459   1.121  2.9060  2.3609  1.0530
  715MOL0     H96462   8.287  10.199   1.128 -0.5453 -0.2436 -0.2805
  715MOL0     H96463   8.282  10.315   1.249 -1.0123  0.4244 -0.5213
  715MOL0     H96464   8.478  10.338   1.017 -1.1825  0.8568  0.3317
  715MOL0     H96465   8.531  10.256   1.163  0.8096  2.0901  0.5052
  715MOL0     H96466   8.477  10.560   1.140  0.2092 -1.5611 -2.3352
  715MOL0     H96467   8.485  10.479   1.290  1.1724 -1.9354  0.5939
  715MOL0     H96468   8.701  10.443   1.074 -2.7812  0.2142 -0.2889
  715MOL0     H96469   8.697  10.590   1.168  1.9218 -0.5030 -2.9175
  715MOL0     H96470   8.748  10.462   1.379  1.8108 -2.2781  1.3401
  715MOL0     H96471   8.718  10.310   1.307  1.2238 -0.7220  0.5270
  715MOL0     H96472   8.895  10.350   1.125  1.8664 -0.4345 -0.0057
  715MOL0     H96473   8.918  10.311   1.293 -2.6621  0.1959  0.6511
  715MOL0     H96474   8.925  10.594   1.162  1.9489  0.6646  0.1456
  715MOL0     H96475   8.963  10.562   1.335 -2.4554 -1.3310  0.4987
  715MOL0     H96476   9.178  10.462   1.403  1.3072  2.0951  0.7616
  715MOL0     H96477   9.508  10.544   1.350 -1.5220  1.0116 -0.1315
  715MOL0     H96478   9.435  10.393   1.403  0.7848  1.6430  1.7323
  715MOL0     H96479   9.510  10.294   1.180 -1.5425 -0.0353  1.0423
  715MOL0     H96480   9.578  10.450   1.141  2.2039 -0.7118 -0.8855
  715MOL0     H96481   9.652  10.315   1.409 -0.4360  2.7142  1.8730
  715MOL0     H96482   9.755  10.426   1.318  1.6150 -1.5425 -1.6851
  715MOL0     H96483   9.699  10.155   1.209 -1.7626  1.5079  0.6589
  715MOL0     H96484   9.822  10.183   1.331 -1.1765 -2.2734  0.4473
  715MOL0     H96485   9.931  10.043   1.203 -0.8837  2.6232  1.1192
  715MOL0     H96486  10.090   9.916   1.089 -2.0762 -0.1146  1.0711
  715MOL0     H96487  10.337   9.647   0.851  0.0026 -1.8817 -1.7131
  715MOL0     H96488  10.552   9.542   0.775  2.8463  0.7636 -1.3376
  715MOL0     H96489  10.731   9.474   0.754 -0.5844  0.5639 -1.5152
  715MOL0     H96490  10.897   9.505   0.707  2.3070 -0.6684  3.2893
  715MOL0     H96491  10.955   9.622   0.925  0.0103 -0.6149  0.3738
  715MOL0     H96492  10.782   9.579   0.976  0.8672 -1.6705  2.6078
  715MOL0     H96493  10.965   9.443   1.072  5.8392  1.7871 -2.2825
  715MOL0     H96494  10.842   9.350   0.983  2.2487 -2.7066 -2.2961
  715MOL0     H96495  11.105   9.425   0.865  0.0149  0.9015  0.8834
  715MOL0     H96496  10.990   9.308   0.798  2.8436 -2.4973 -0.5193
  715MOL0     H96497  11.137   9.150   0.897  0.9665  0.4352 -0.9303
  715MOL0     H96498  11.008   9.176   1.013 -0.2034  0.4473 -0.4763
  715MOL0     H96499  11.282   9.311   1.027  0.5621 -2.4945 -1.7925
  715MOL0     H96500  11.153   9.335   1.146  4.6149  3.5642  1.3144
  715MOL0     H96501  11.234   9.051   1.073  0.7159 -0.7561  0.3200
  715MOL0     H96502  11.177   9.112   1.228 -2.3461 -1.5267 -2.4525
  715MOL0     H96503  11.398   9.235   1.243 -3.4114  1.7299 -0.8239
  715MOL0     H96504  11.424   9.054   1.237  1.9008 -0.7312 -1.9130
  715MOL0     H96505  10.720   9.938   0.790 -1.2597 -0.1279  4.0561
  715MOL0     H96506  10.532  10.025   0.874  3.7324  1.4857 -2.4133
  715MOL0     H96507  10.150  10.247   0.807  0.2125  0.3684  0.3818
  715MOL0     H96508   9.958  10.368   0.922  1.5790  0.2745 -0.5225
  715MOL0     H96509   8.154  10.553   0.855  0.1984 -1.4591  0.9890
  715MOL0     H96510   7.958  10.644   0.711  1.5482  0.4982  0.8397
  715MOL0     H96511   7.426  10.691   0.829  0.4781 -3.0001  0.7206
  715MOL0     H96512   7.219  10.741   0.734  0.9332  0.5219  0.8303
  715MOL0     H96513   7.254  10.853   0.381 -0.4749  2.6773  0.5208
  715MOL0     H96514   7.108  10.901   0.463 -1.0598  1.6425 -3.9623
  715MOL0     H96515   7.066  10.905   0.237  0.3945  0.6877  1.4555
  715MOL0     H96516   6.980  10.753   0.301  0.6550  0.3909  2.2869
  715MOL0     H96517   7.147  10.603   0.200  2.2462 -1.5991 -1.1640
  715MOL0     H96518   7.249  10.738   0.164 -0.4867 -0.1126  0.0412
  715MOL0     H96519   7.111  10.816  -0.006 -0.1489 -0.4858 -0.7322
  715MOL0     H96520   7.135  10.648  -0.021  1.6919 -0.9568  3.2180
  715MOL0     H96521   6.708  10.681   0.080 -0.8295 -0.8474 -1.1783
  715MOL0     H96522   7.349  10.554   0.364 -2.0019 -1.4226  0.6034
  715MOL0     H96523   7.526  10.463   0.324  3.5752  0.8081 -2.5091
  715MOL0     H96524   7.665  10.528   0.396 -1.5138  4.3165  1.0643
  715MOL0     H96525   7.594  10.378   0.473 -1.5614 -0.0365 -0.8031
  716MOL0     O96526   5.867   4.084   0.885  0.0414 -0.3329 -0.1226
  716MOL0     C96527   5.882   3.967   0.872  0.2533  0.8469 -0.4923
  716MOL0     O96528   6.001   3.903   0.888  0.2657 -0.3407 -0.7806
  716MOL0     C96529   6.120   3.965   0.915  0.4799 -0.3866 -0.6137
  716MOL0     C96530   6.218   3.891   0.981  1.3084  1.2270 -0.2860
  716MOL0     C96531   6.340   3.939   1.010 -0.2184  0.7242 -0.5898
  716MOL0     C96532   6.373   4.069   0.969  0.5350  0.1356  0.2046
  716MOL0     O96533   6.500   4.124   0.983 -0.3293  0.3497  0.2734
  716MOL0     C96534   6.608   4.057   1.060  0.8150 -0.1115  0.0616
  716MOL0     C96535   6.608   4.119   1.207  0.1698 -0.3217  0.3034
  716MOL0     C96536   6.638   4.273   1.200  0.4919  0.7061  0.2002
  716MOL0     C96537   6.645   4.343   1.337  0.2418 -0.5081  1.4812
  716MOL0     C96538   6.773   4.311   1.409 -0.3503  0.7729 -0.1014
  716MOL0     C96539   6.790   4.379   1.543  0.6587  0.1545  0.5835
  716MOL0     C96540   6.928   4.359   1.602 -0.4246  0.9456 -0.5295
  716MOL0     C96541   6.955   4.452   1.729  0.2071  0.5752  0.0504
  716MOL0     N96542   7.088   4.425   1.794 -0.8187 -0.0219 -0.0873
  716MOL0     C96543   7.209   4.444   1.730  0.8300  0.0780 -0.0075
  716MOL0     C96544   7.298   4.429   1.842  0.0630  0.9573 -0.2173
  716MOL0     C96545   7.449   4.440   1.835 -1.0209 -0.9047  0.4401
  716MOL0     C96546   7.493   4.502   1.972  1.0676  0.3601  0.0061
  716MOL0     C96547   7.652   4.503   1.982  0.4469 -0.3781  0.1955
  716MOL0     C96548   7.688   4.585   2.103 -0.0449  0.2935  0.5950
  716MOL0     O96549   7.830   4.592   2.125  0.4843  0.6221 -0.5348
  716MOL0     C96550   7.910   4.476   2.114 -0.6941 -0.0748  0.1278
  716MOL0     C96551   8.038   4.505   2.068 -0.3824  0.4168 -0.7010
  716MOL0     C96552   8.132   4.406   2.051 -0.1221 -0.1469  0.2003
  716MOL0     C96553   8.103   4.273   2.087 -0.5458  0.5403 -0.3012
  716MOL0     C96554   8.208   4.168   2.080 -0.4649 -0.0043 -0.3644
  716MOL0     O96555   8.336   4.208   2.125  0.0659  0.8629 -0.3187
  716MOL0     C96556   8.436   4.121   2.113  0.2564 -0.3962  0.9193
  716MOL0     C96557   8.459   4.066   1.982  0.2982  0.2679 -0.4686
  716MOL0     C96558   8.560   3.975   1.974  0.1071 -0.2619 -0.3160
  716MOL0     C96559   8.642   3.944   2.081 -0.7093 -0.4199 -0.1203
  716MOL0     O96560   8.743   3.842   2.069 -0.1889  0.4888  0.6864
  716MOL0     C96561   8.724   3.723   1.989  0.4100 -0.0074  0.3332
  716MOL0     C96562   8.849   3.651   2.008 -0.7915  0.4541 -0.0562
  716MOL0     C96563   8.836   3.495   1.981  0.4614 -0.2536 -0.2076
  716MOL0     C96564   8.957   3.418   2.012 -0.1443 -0.5375  0.0250
  716MOL0     C96565   9.049   3.418   1.892  0.2699  0.2387 -0.4743
  716MOL0     C96566   9.181   3.357   1.932 -0.8596  0.1425 -0.4869
  716MOL0     C96567   9.281   3.367   1.812  0.1301 -0.3109  0.3566
  716MOL0     C96568   9.408   3.292   1.843 -0.2372 -0.1670  0.1735
  716MOL0    Cl96569   9.494   3.370   1.982  0.0894 -0.3324  0.1487
  716MOL0     C96570   8.627   4.014   2.208  0.2223 -0.1582  0.7458
  716MOL0     C96571   8.519   4.106   2.223 -0.0290 -0.5080  0.3268
  716MOL0     O96572   8.173   4.061   2.037 -0.2531  0.8780 -0.2295
  716MOL0     C96573   7.977   4.245   2.143 -0.6401 -0.4229 -0.3999
  716MOL0     C96574   7.881   4.348   2.155 -0.0849  0.3323  0.4044
  716MOL0     N96575   7.224   4.384   1.950 -0.6074 -0.1412  0.4538
  716MOL0     N96576   7.101   4.380   1.925  0.2522 -0.0142  0.7697
  716MOL0     C96577   6.279   4.150   0.912  0.0671 -0.0528  0.1586
  716MOL0     C96578   6.157   4.095   0.876  0.8454  0.2775 -0.2050
  716MOL0     C96579   5.773   3.881   0.823  0.6550  0.1494  0.6641
  716MOL0     C96580   5.810   3.746   0.776 -0.4334 -0.3943 -0.4929
  716MOL0     C96581   5.714   3.667   0.707  0.2346  0.0425  0.2934
  716MOL0     C96582   5.579   3.704   0.698  0.3824  0.0072 -0.6338
  716MOL0     O96583   5.504   3.612   0.632  0.3244  0.0576  0.2666
  716MOL0     C96584   5.379   3.653   0.589  0.0623  0.2773 -0.4657
  716MOL0     C96585   5.338   3.545   0.487 -0.2136 -0.0022  0.0509
  716MOL0     C96586   5.413   3.549   0.357 -0.1034  0.1233 -0.6613
  716MOL0     C96587   5.366   3.445   0.254  0.3630  0.0948 -0.4759
  716MOL0     C96588   5.225   3.455   0.221  0.3979 -0.8359 -0.3416
  716MOL0     C96589   5.109   3.458   0.187  0.0370 -0.0587 -0.1836
  716MOL0     C96590   5.535   3.827   0.751  0.0808 -0.2680 -1.1188
  716MOL0     C96591   5.630   3.919   0.804 -0.5189  0.3618  0.4528
  716MOL0     C96592   5.574   4.046   0.854 -0.0203  0.8707 -0.0113
  716MOL0     H96593   6.193   3.791   1.018 -1.3755  2.2721  1.0226
  716MOL0     H96594   6.408   3.866   1.053  0.3257  1.4793 -0.1480
  716MOL0     H96595   6.590   3.950   1.071 -2.3545  0.3557  0.3220
  716MOL0     H96596   6.704   4.080   1.014  1.8206 -0.1586  2.0380
  716MOL0     H96597   6.682   4.075   1.274  0.1748  0.9770  1.1850
  716MOL0     H96598   6.511   4.094   1.252  0.6710 -0.0987  1.5381
  716MOL0     H96599   6.566   4.331   1.142  0.4524  4.5155  3.6094
  716MOL0     H96600   6.731   4.279   1.142 -0.5782 -0.4264 -1.7337
  716MOL0     H96601   6.649   4.451   1.320 -0.4424 -0.5496  1.0395
  716MOL0     H96602   6.562   4.326   1.405 -2.1646 -0.2413 -1.1815
  716MOL0     H96603   6.755   4.204   1.426  0.6098  0.4918 -0.8144
  716MOL0     H96604   6.864   4.327   1.351 -0.3088 -3.5661 -1.5882
  716MOL0     H96605   6.775   4.485   1.518  0.5596 -0.1037 -0.4947
  716MOL0     H96606   6.713   4.348   1.615  3.0198  1.1052  3.7490
  716MOL0     H96607   7.001   4.385   1.525 -0.8937  2.4860 -0.4789
  716MOL0     H96608   6.939   4.253   1.630 -2.3063  1.0247  0.6727
  716MOL0     H96609   6.948   4.554   1.692  2.7782  0.9703  0.4494
  716MOL0     H96610   6.872   4.424   1.795  2.2016 -2.7575  1.3948
  716MOL0     H96611   7.218   4.464   1.624 -1.3505  2.2099  0.1217
  716MOL0     H96612   7.491   4.339   1.830  0.0312 -0.4090 -2.0476
  716MOL0     H96613   7.488   4.489   1.746 -0.6433  0.4018  1.2854
  716MOL0     H96614   7.456   4.605   1.977 -1.7089 -0.4907 -1.0842
  716MOL0     H96615   7.453   4.435   2.049  2.3473  2.6324  2.8694
  716MOL0     H96616   7.693   4.540   1.888  0.0789  0.8696  0.5015
  716MOL0     H96617   7.683   4.398   1.977 -2.3456 -1.2609 -3.1326
  716MOL0     H96618   7.628   4.549   2.187  0.8160 -0.6239  0.8375
  716MOL0     H96619   7.654   4.686   2.080  1.5826  1.2962  2.3138
  716MOL0     H96620   8.071   4.607   2.049  1.1280  0.8882  3.3389
  716MOL0     H96621   8.225   4.430   2.000  0.0119 -1.1321 -0.0557
  716MOL0     H96622   8.398   4.084   1.893 -1.2726  2.5313  0.9722
  716MOL0     H96623   8.584   3.913   1.888 -0.4275 -0.7773 -0.1062
  716MOL0     H96624   8.645   3.664   2.036  0.9849 -0.2692  0.9951
  716MOL0     H96625   8.705   3.732   1.882 -3.3033 -2.0273  0.6520
  716MOL0     H96626   8.924   3.688   1.937 -1.6058  1.8928 -0.2074
  716MOL0     H96627   8.882   3.661   2.111 -0.0373  1.2791 -0.3678
  716MOL0     H96628   8.754   3.470   2.048 -0.3077  0.6127 -0.7941
  716MOL0     H96629   8.807   3.464   1.880  0.1108  1.3839 -0.6478
  716MOL0     H96630   8.930   3.317   2.043 -2.5618  0.6316  2.1285
  716MOL0     H96631   9.012   3.461   2.097  4.4670 -2.2210 -1.8040
  716MOL0     H96632   9.056   3.518   1.850 -0.8185  1.1867  1.5008
  716MOL0     H96633   9.000   3.369   1.807 -1.2292 -0.2879  0.6660
  716MOL0     H96634   9.214   3.411   2.022  0.1145  0.5356 -1.0536
  716MOL0     H96635   9.166   3.251   1.952 -2.1649 -0.4395 -3.8931
  716MOL0     H96636   9.299   3.473   1.794  0.5329 -0.3800  0.3410
  716MOL0     H96637   9.226   3.323   1.728 -0.2947 -0.1915  0.5693
  716MOL0     H96638   9.392   3.185   1.861  0.6539 -0.9636 -3.1706
  716MOL0     H96639   9.473   3.294   1.756 -1.4748 -0.6447 -0.7857
  716MOL0     H96640   8.700   3.991   2.285  0.4844 -0.6603  0.3488
  716MOL0     H96641   8.523   4.170   2.310 -1.7405 -0.7753  0.6320
  716MOL0     H96642   7.947   4.144   2.171 -2.9984  0.4708  0.6136
  716MOL0     H96643   7.781   4.327   2.192  0.0640  0.2114  0.7395
  716MOL0     H96644   6.308   4.250   0.883 -0.1685 -0.3889 -1.3585
  716MOL0     H96645   6.084   4.152   0.821  1.2475  0.4481 -0.5690
  716MOL0     H96646   5.911   3.708   0.765  0.1032  1.3503 -2.2523
  716MOL0     H96647   5.747   3.580   0.651  1.6140  1.1036 -0.5797
  716MOL0     H96648   5.371   3.753   0.544 -2.0562  0.4472  0.1863
  716MOL0     H96649   5.302   3.649   0.667  0.1852 -1.3525 -0.4053
  716MOL0     H96650   5.229   3.541   0.481 -0.2856 -1.8109  1.6612
  716MOL0     H96651   5.362   3.446   0.527  1.4464 -1.0701 -3.1995
  716MOL0     H96652   5.516   3.528   0.390 -0.3521  2.0296  1.5996
  716MOL0     H96653   5.404   3.653   0.325 -1.2447  0.8808  1.8357
  716MOL0     H96654   5.431   3.440   0.166 -1.2972 -0.4853 -1.7380
  716MOL0     H96655   5.386   3.353   0.309  3.0688  1.0733  0.2977
  716MOL0     H96656   5.004   3.461   0.163 -0.3314 -1.3460  1.1066
  716MOL0     H96657   5.427   3.840   0.751  0.1665  0.5492 -1.2929
  716MOL0     H96658   5.467   4.068   0.846 -0.0531  0.7827  0.1848
  716MOL0     H96659   5.587   4.043   0.962  0.0598 -0.1751 -0.0480
  716MOL0     H96660   5.634   4.125   0.807 -1.5852  2.1537  0.0541
  717MOL0     O96661  10.908   8.992   5.634  0.1785  0.2164  0.6020
  717MOL0     C96662  10.945   9.024   5.518  0.6516  0.6189  0.1233
  717MOL0     O96663  11.065   9.078   5.481  0.2981  0.3143  0.0392
  717MOL0     C96664  11.180   9.071   5.565 -0.3587  1.1477 -0.1223
  717MOL0     C96665  11.234   8.947   5.617  0.1350  0.3363 -0.8328
  717MOL0     C96666  11.348   8.942   5.699  0.6525  0.3263  0.3798
  717MOL0     C96667  11.412   9.066   5.730 -0.7306  1.2560 -0.8709
  717MOL0     O96668  11.528   9.067   5.807  0.0692  0.4200 -0.0496
  717MOL0     C96669  11.502   9.046   5.945  0.8465 -0.1969  0.1245
  717MOL0     C96670  11.636   9.028   6.021 -0.5933 -0.3051 -0.4442
  717MOL0     C96671  11.722   8.911   5.961 -0.2086 -0.0836 -0.7114
  717MOL0     C96672  11.859   8.895   6.035 -0.6334  0.6185 -0.8482
  717MOL0     C96673  11.940   8.777   5.980 -0.2965 -0.0980 -0.1470
  717MOL0     C96674  12.023   8.802   5.857  0.2760  0.3919  0.2884
  717MOL0     C96675  12.132   8.699   5.841 -0.9361 -0.8676 -0.8307
  717MOL0     C96676  12.081   8.560   5.815 -0.2567  0.1421  0.2651
  717MOL0     N96677  12.174   8.471   5.752  0.3427  0.5142 -0.2217
  717MOL0     C96678  12.213   8.487   5.613 -0.2795  0.0474 -0.7420
  717MOL0     C96679  12.331   8.412   5.601  0.5569 -0.2318  0.0168
  717MOL0     C96680  12.394   8.383   5.468  0.0958 -0.4733 -1.0407
  717MOL0     C96681  12.437   8.236   5.458  0.4630  0.1036 -0.2671
  717MOL0     C96682  12.486   8.209   5.311 -0.3493  0.9402  0.7226
  717MOL0     C96683  12.365   8.238   5.214  0.0177 -0.3769  1.2102
  717MOL0     O96684  12.376   8.163   5.089 -0.3052 -0.4015 -0.2039
  717MOL0     C96685  12.285   8.199   4.992  0.5060 -0.6590  0.0964
  717MOL0     C96686  12.162   8.262   5.007  0.8028 -0.1602  0.5236
  717MOL0     C96687  12.067   8.276   4.903  0.2794  0.4191  0.0271
  717MOL0     C96688  12.087   8.197   4.785  0.5951 -0.0363 -1.0991
  717MOL0     C96689  11.984   8.202   4.675  0.3132 -0.4620  0.0543
  717MOL0     O96690  11.964   8.092   4.599  0.2553  0.4805 -0.9234
  717MOL0     C96691  11.865   8.081   4.511  0.0183 -0.8556 -0.0952
  717MOL0     C96692  11.809   7.957   4.511  0.7894  0.1004 -0.8150
  717MOL0     C96693  11.688   7.934   4.438  0.1659 -0.3342 -1.7300
  717MOL0     C96694  11.612   8.036   4.379 -0.7825  0.2521  0.9309
  717MOL0     O96695  11.497   8.006   4.308  0.9643 -0.8577 -0.3242
  717MOL0     C96696  11.408   8.116   4.304  0.5983 -0.5801  0.5647
  717MOL0     C96697  11.340   8.143   4.444 -0.1588 -0.5617  0.1707
  717MOL0     C96698  11.257   8.025   4.485 -0.5412  0.0614 -0.3473
  717MOL0     C96699  11.169   8.063   4.614  0.8857 -0.2324  0.2568
  717MOL0     C96700  11.072   7.961   4.660  0.3184  0.4451 -0.1337
  717MOL0     C96701  10.991   8.026   4.765  0.7230  0.8641  0.0474
  717MOL0     C96702  10.895   7.915   4.832 -0.4718 -1.0277  1.3210
  717MOL0     C96703  10.814   7.960   4.955 -0.4335  0.6363 -0.2100
  717MOL0    Cl96704  10.927   8.008   5.084  0.4384  0.2355  0.2480
  717MOL0     C96705  11.674   8.173   4.394  0.8711 -0.0099  0.0968
  717MOL0     C96706  11.800   8.185   4.448 -0.1543  0.3414 -0.3412
  717MOL0     O96707  11.927   8.313   4.663 -0.1910  1.0666  0.2973
  717MOL0     C96708  12.208   8.120   4.776  0.2017  0.3179  0.1929
  717MOL0     C96709  12.297   8.122   4.875 -0.9690  0.3691 -0.4386
  717MOL0     N96710  12.373   8.369   5.732 -0.4897  0.5421  0.4731
  717MOL0     N96711  12.276   8.398   5.808  0.2714  0.4296 -0.8456
  717MOL0     C96712  11.365   9.176   5.672  0.2105 -0.0289  1.0125
  717MOL0     C96713  11.252   9.182   5.592  0.9120 -0.3682  0.3478
  717MOL0     C96714  10.855   8.992   5.405  0.4748  0.2652 -0.9531
  717MOL0     C96715  10.863   9.049   5.276  0.2247  0.3110  1.2437
  717MOL0     C96716  10.799   9.005   5.161  0.8343 -0.1389 -0.3321
  717MOL0     C96717  10.691   8.926   5.173  0.5371 -0.0118  1.0196
  717MOL0     O96718  10.615   8.898   5.063 -0.3664 -0.1596 -0.1853
  717MOL0     C96719  10.548   8.769   5.057 -0.5872  0.1556 -0.1512
  717MOL0     C96720  10.477   8.756   4.913 -0.4109  0.2131 -0.4298
  717MOL0     C96721  10.591   8.750   4.805 -0.0705  1.6220 -0.6482
  717MOL0     C96722  10.566   8.842   4.688  0.2539  0.1374  0.7528
  717MOL0     C96723  10.602   8.984   4.717  0.1116  1.1089 -0.4746
  717MOL0     C96724  10.652   9.094   4.737  1.0124  0.1783  0.3222
  717MOL0     C96725  10.666   8.863   5.296 -0.1253 -0.7540 -0.6388
  717MOL0     C96726  10.752   8.895   5.409 -0.4229 -0.7388  0.2646
  717MOL0     C96727  10.733   8.812   5.531  0.0996  0.1976  0.2260
  717MOL0     H96728  11.179   8.860   5.581  2.4066 -2.4995  1.9337
  717MOL0     H96729  11.373   8.843   5.734 -1.0462 -0.5137 -0.6861
  717MOL0     H96730  11.445   9.133   5.977 -1.8460 -1.5503 -0.6913
  717MOL0     H96731  11.448   8.953   5.965 -0.3197 -0.3838 -3.2177
  717MOL0     H96732  11.613   9.028   6.128 -0.8313  2.3418 -0.4353
  717MOL0     H96733  11.697   9.117   6.005 -0.4037 -0.3699 -0.0745
  717MOL0     H96734  11.747   8.933   5.857  0.9828 -1.2355 -0.7018
  717MOL0     H96735  11.664   8.818   5.971  2.2065 -1.5070  6.4944
  717MOL0     H96736  11.916   8.988   6.033 -1.6866  1.3323  0.6163
  717MOL0     H96737  11.851   8.876   6.142  1.4021  0.4434 -0.6920
  717MOL0     H96738  12.008   8.742   6.057  0.4881 -0.0259 -0.7935
  717MOL0     H96739  11.869   8.693   5.976 -1.2823  0.6825  0.4063
  717MOL0     H96740  11.955   8.814   5.772 -1.7649  1.0729  1.9579
  717MOL0     H96741  12.074   8.899   5.854  1.9687 -0.4341  0.7879
  717MOL0     H96742  12.182   8.696   5.939  0.5125  1.3516 -1.4347
  717MOL0     H96743  12.212   8.742   5.781  1.1807 -1.5926  1.2789
  717MOL0     H96744  12.034   8.516   5.904 -0.4815  1.7259  0.9613
  717MOL0     H96745  11.995   8.569   5.748 -0.3014 -4.0402 -0.5369
  717MOL0     H96746  12.159   8.549   5.541 -1.2943  2.2165  1.7299
  717MOL0     H96747  12.324   8.426   5.396  1.5599  2.3670 -0.9248
  717MOL0     H96748  12.478   8.451   5.451 -0.6350  0.2944 -1.7125
  717MOL0     H96749  12.511   8.215   5.536 -1.8953 -4.6185  1.1054
  717MOL0     H96750  12.346   8.177   5.471  0.3384 -0.5679 -3.4118
  717MOL0     H96751  12.501   8.101   5.306 -1.1683  0.7731  1.5272
  717MOL0     H96752  12.579   8.262   5.287  0.3149  0.6810  2.5354
  717MOL0     H96753  12.359   8.345   5.191  2.8920 -0.4395 -0.3478
  717MOL0     H96754  12.280   8.212   5.277  0.5973 -0.7361  1.8560
  717MOL0     H96755  12.158   8.297   5.110  0.5588  1.7835 -0.0891
  717MOL0     H96756  11.976   8.332   4.925  0.7422  1.7473 -1.2268
  717MOL0     H96757  11.843   7.879   4.578 -1.0003  0.5670  0.7071
  717MOL0     H96758  11.639   7.837   4.446 -2.1194  0.8858  2.1279
  717MOL0     H96759  11.442   8.202   4.246  1.0500 -2.7673 -2.7195
  717MOL0     H96760  11.324   8.075   4.247  0.4734 -0.6390  0.7918
  717MOL0     H96761  11.398   8.180   4.529 -0.9998 -1.1873  1.0440
  717MOL0     H96762  11.279   8.232   4.430 -1.8263 -1.1437  2.8730
  717MOL0     H96763  11.199   7.987   4.400  1.8587 -2.4907 -1.0294
  717MOL0     H96764  11.323   7.941   4.508  0.9813  0.7697 -1.8767
  717MOL0     H96765  11.109   8.152   4.592 -0.6493 -1.5077 -1.0066
  717MOL0     H96766  11.238   8.091   4.694  0.6791  0.4407  0.2007
  717MOL0     H96767  11.119   7.872   4.701  0.6563  0.1154 -1.1876
  717MOL0     H96768  11.013   7.924   4.575  0.3480  0.3212 -0.1009
  717MOL0     H96769  11.054   8.060   4.847  1.4602  2.4942 -1.1625
  717MOL0     H96770  10.936   8.111   4.724 -3.1276 -2.6202 -2.9386
  717MOL0     H96771  10.950   7.823   4.855  1.8125  0.0192  0.3639
  717MOL0     H96772  10.823   7.881   4.758 -0.7467  0.3180  0.9447
  717MOL0     H96773  10.739   8.036   4.929  0.1750  1.3343  0.0623
  717MOL0     H96774  10.751   7.880   4.996 -0.6308  0.4197 -0.9017
  717MOL0     H96775  11.623   8.266   4.374  1.8299  0.8631  1.4894
  717MOL0     H96776  11.835   8.288   4.454  0.6270  0.0889 -0.3749
  717MOL0     H96777  12.226   8.063   4.686 -0.9526 -0.6311  0.5276
  717MOL0     H96778  12.381   8.054   4.877 -1.8595 -0.8440  2.9801
  717MOL0     H96779  11.424   9.266   5.686  1.5397 -1.0151  1.9681
  717MOL0     H96780  11.233   9.279   5.547  0.0397  0.1975  1.8473
  717MOL0     H96781  10.932   9.130   5.252 -0.3086 -0.0444 -1.8897
  717MOL0     H96782  10.816   9.072   5.077  0.4841  0.6926  0.2379
  717MOL0     H96783  10.475   8.764   5.138  2.0419 -2.8422  2.3329
  717MOL0     H96784  10.614   8.684   5.076 -0.2800  0.8075  2.1167
  717MOL0     H96785  10.406   8.838   4.896 -1.5336 -0.6334  0.0600
  717MOL0     H96786  10.424   8.661   4.920 -0.4390  0.2969  0.6685
  717MOL0     H96787  10.590   8.650   4.760  0.7705  1.1229  0.3919
  717MOL0     H96788  10.689   8.770   4.849 -0.3144  2.0673 -0.3024
  717MOL0     H96789  10.627   8.808   4.604 -0.2736  0.1294  0.3676
  717MOL0     H96790  10.461   8.832   4.658 -0.0262  1.3430  1.2616
  717MOL0     H96791  10.693   9.189   4.767 -0.4669  1.3694 -1.2312
  717MOL0     H96792  10.585   8.795   5.319 -1.9478  1.5215  0.1361
  717MOL0     H96793  10.827   8.758   5.546  0.6238  0.7157 -1.0201
  717MOL0     H96794  10.716   8.879   5.616  0.1852  1.4222 -0.6911
  717MOL0     H96795  10.649   8.744   5.514 -1.3307  1.6525  1.1557
  718MOL0     O96796   5.345   8.834   3.276 -0.5313 -1.1247  0.3644
  718MOL0     C96797   5.422   8.796   3.187  0.1363  1.1198  0.4985
  718MOL0     O96798   5.539   8.853   3.157  0.4173  0.0697  0.1435
  718MOL0     C96799   5.604   8.949   3.232  0.6710  0.0762  0.8449
  718MOL0     C96800   5.581   8.998   3.361 -0.1528 -0.1647  0.4786
  718MOL0     C96801   5.665   9.093   3.410  0.3106 -0.2322 -0.0216
  718MOL0     C96802   5.777   9.149   3.335  0.4295  0.3873 -0.0382
  718MOL0     O96803   5.868   9.246   3.377 -0.1812 -0.0156 -0.2539
  718MOL0     C96804   5.919   9.225   3.505  0.1310  1.0356 -0.5634
  718MOL0     C96805   6.021   9.322   3.528 -0.6728  0.3140  0.7581
  718MOL0     C96806   6.149   9.291   3.458  0.5440  0.0562 -0.1381
  718MOL0     C96807   6.258   9.400   3.480  0.4669 -0.5067 -0.0568
  718MOL0     C96808   6.369   9.402   3.377 -0.4197  0.2069 -0.2959
  718MOL0     C96809   6.488   9.487   3.422  0.0505 -0.1442 -0.4710
  718MOL0     C96810   6.618   9.474   3.339 -0.0482  0.4368  0.5617
  718MOL0     C96811   6.727   9.585   3.383  0.4888 -1.2715  0.3241
  718MOL0     N96812   6.864   9.549   3.343 -0.2549 -0.7037 -0.0615
  718MOL0     C96813   6.923   9.576   3.227  0.1805 -0.9330  0.2101
  718MOL0     C96814   7.044   9.518   3.220 -0.4091 -0.3431  0.4370
  718MOL0     C96815   7.139   9.549   3.103 -0.3248  0.0790  0.0607
  718MOL0     C96816   7.178   9.412   3.033 -0.5765 -0.9539  0.9335
  718MOL0     C96817   7.272   9.455   2.919  0.2947 -0.6415 -0.4033
  718MOL0     C96818   7.359   9.342   2.864 -0.1111  0.1771 -0.0950
  718MOL0     O96819   7.464   9.320   2.951 -0.4297  0.0900 -0.6415
  718MOL0     C96820   7.574   9.398   2.944  0.1878  0.3591  0.1802
  718MOL0     C96821   7.662   9.382   3.049  0.0069  0.1031  0.6154
  718MOL0     C96822   7.791   9.448   3.045 -0.1962  0.9352 -0.0300
  718MOL0     C96823   7.827   9.539   2.943  0.2992 -0.3261  0.9367
  718MOL0     C96824   7.958   9.602   2.938  0.9902  0.3817 -0.5795
  718MOL0     O96825   8.049   9.565   3.033 -0.1818 -0.0447 -0.5582
  718MOL0     C96826   8.176   9.622   3.028  0.4908 -0.1447  0.2911
  718MOL0     C96827   8.289   9.561   2.964  0.6430  0.0406 -0.2156
  718MOL0     C96828   8.400   9.634   2.948 -0.3975  0.7526  0.1975
  718MOL0     C96829   8.417   9.758   3.003  0.0022 -0.4344 -0.8204
  718MOL0     O96830   8.531   9.848   2.994  0.3393  0.6663 -0.5836
  718MOL0     C96831   8.651   9.799   2.927  0.1897  0.1418  0.2349
  718MOL0     C96832   8.756   9.875   3.008  0.0489 -0.8291 -0.4215
  718MOL0     C96833   8.891   9.879   2.941  0.1383  0.4687  0.7104
  718MOL0     C96834   8.994   9.956   3.034  0.5326 -0.1657  0.6578
  718MOL0     C96835   9.120   9.980   2.961 -0.2139  0.4541  0.7280
  718MOL0     C96836   9.224  10.042   3.059  0.0266  0.6121  0.1762
  718MOL0     C96837   9.365  10.052   2.986  0.5431 -0.1934 -0.0955
  718MOL0     C96838   9.485  10.044   3.082 -0.3710 -0.8038 -0.3290
  718MOL0    Cl96839   9.646  10.085   2.998  0.0518  0.6828  0.2905
  718MOL0     C96840   8.301   9.813   3.071 -0.2504 -0.5610  0.0360
  718MOL0     C96841   8.186   9.743   3.097 -1.4746 -0.4380  0.7417
  718MOL0     O96842   7.971   9.681   2.847 -0.3616 -0.5983 -0.5772
  718MOL0     C96843   7.731   9.555   2.843  0.1733 -0.3565  0.0553
  718MOL0     C96844   7.606   9.492   2.846 -0.1370  0.3331 -0.6944
  718MOL0     N96845   7.052   9.447   3.331  0.5808 -0.0195  0.1411
  718MOL0     N96846   6.945   9.461   3.407  0.1212  0.3528  0.4014
  718MOL0     C96847   5.793   9.097   3.213 -0.4454 -0.1328 -0.0292
  718MOL0     C96848   5.707   9.004   3.158  0.9816 -0.2485  0.5959
  718MOL0     C96849   5.379   8.696   3.083  1.4823 -0.3053  0.3411
  718MOL0     C96850   5.433   8.702   2.950 -0.4809  0.6373 -0.4588
  718MOL0     C96851   5.398   8.614   2.854 -0.1011 -0.6844  1.4217
  718MOL0     C96852   5.293   8.516   2.880 -0.1028  0.5203 -0.6446
  718MOL0     O96853   5.256   8.409   2.790 -0.2650 -0.9083  0.1130
  718MOL0     C96854   5.188   8.461   2.672 -0.2847 -0.0861  0.0590
  718MOL0     C96855   5.078   8.357   2.630 -0.4156 -0.3536  0.3511
  718MOL0     C96856   4.988   8.327   2.747 -0.0981  0.5413  0.0186
  718MOL0     C96857   4.918   8.458   2.805 -0.9084  0.5836  0.0737
  718MOL0     C96858   4.855   8.551   2.709 -0.0272 -0.3157 -0.3690
  718MOL0     C96859   4.806   8.624   2.626  0.5755 -0.2140 -0.4902
  718MOL0     C96860   5.243   8.506   3.010  1.1562 -0.4079 -0.1099
  718MOL0     C96861   5.282   8.596   3.115 -0.4365  0.6671  0.6728
  718MOL0     C96862   5.207   8.575   3.239  0.1939 -0.3743 -0.2467
  718MOL0     H96863   5.496   8.965   3.419 -1.0026  2.8604  1.1630
  718MOL0     H96864   5.631   9.123   3.508  1.2869 -1.6411  0.7824
  718MOL0     H96865   5.843   9.233   3.584  1.3275  0.5544  0.6775
  718MOL0     H96866   5.953   9.123   3.519 -3.0458 -0.4374 -2.4487
  718MOL0     H96867   6.059   9.342   3.628  5.0675 -1.1192 -0.7036
  718MOL0     H96868   5.973   9.410   3.485 -0.4491 -0.4661 -1.2333
  718MOL0     H96869   6.124   9.280   3.352  1.3191  2.2292 -0.6106
  718MOL0     H96870   6.181   9.196   3.500 -0.5441 -0.1209  0.3165
  718MOL0     H96871   6.213   9.499   3.468  1.2209 -0.2662 -0.9866
  718MOL0     H96872   6.292   9.398   3.584  0.5721  0.0087 -0.0805
  718MOL0     H96873   6.392   9.295   3.370 -0.9571  0.1514 -1.3917
  718MOL0     H96874   6.333   9.422   3.276 -0.0408 -1.1608 -0.7191
  718MOL0     H96875   6.449   9.589   3.419 -1.3565 -0.5844  1.5009
  718MOL0     H96876   6.507   9.457   3.525 -2.0879 -3.0914 -0.7968
  718MOL0     H96877   6.600   9.491   3.232  1.1476  0.8619  0.4170
  718MOL0     H96878   6.660   9.375   3.358 -2.2024 -0.7901 -0.6122
  718MOL0     H96879   6.705   9.684   3.343  1.0314 -1.2589  0.0558
  718MOL0     H96880   6.731   9.591   3.492 -0.3463 -0.8504  0.3405
  718MOL0     H96881   6.876   9.634   3.148 -0.9925  0.0365  1.5749
  718MOL0     H96882   7.097   9.615   3.027  1.1104  0.6254 -0.2904
  718MOL0     H96883   7.235   9.592   3.136  1.8920 -2.5840 -2.4093
  718MOL0     H96884   7.218   9.343   3.108 -3.2217 -2.2775  1.2338
  718MOL0     H96885   7.095   9.362   2.982  1.7451 -0.3360 -4.0418
  718MOL0     H96886   7.328   9.543   2.951 -0.7129 -0.4619  0.9603
  718MOL0     H96887   7.229   9.503   2.831  1.7968 -0.6143 -1.1697
  718MOL0     H96888   7.400   9.350   2.763  1.2449 -0.8965  0.3375
  718MOL0     H96889   7.296   9.252   2.865  2.7664 -2.1191  3.9269
  718MOL0     H96890   7.639   9.306   3.123 -2.2613 -0.1043 -0.2234
  718MOL0     H96891   7.873   9.424   3.111  0.4712  2.0034 -0.4594
  718MOL0     H96892   8.285   9.465   2.914  1.3869 -0.2870  0.3361
  718MOL0     H96893   8.467   9.593   2.873  1.1848  2.8943  0.3190
  718MOL0     H96894   8.666   9.690   2.930 -0.0664 -0.0133 -2.3942
  718MOL0     H96895   8.658   9.823   2.821 -0.0761 -1.7305 -0.2536
  718MOL0     H96896   8.723   9.978   3.023 -1.9946 -1.5650  0.6310
  718MOL0     H96897   8.777   9.814   3.097  2.3703 -0.5990 -0.7675
  718MOL0     H96898   8.922   9.774   2.936  0.3824  0.5940 -2.1990
  718MOL0     H96899   8.883   9.927   2.843  2.1122  2.0778  1.2668
  718MOL0     H96900   9.023   9.905   3.126  0.8501 -0.5125  0.3711
  718MOL0     H96901   8.949  10.052   3.059 -0.6651 -0.1554 -1.3367
  718MOL0     H96902   9.104  10.051   2.880  1.2320 -0.5019 -0.4519
  718MOL0     H96903   9.158   9.884   2.924 -0.2581  0.1385  1.4910
  718MOL0     H96904   9.197  10.141   3.095  1.4254  0.9135  0.4557
  718MOL0     H96905   9.225   9.972   3.143 -3.0811  1.9448  1.4360
  718MOL0     H96906   9.376  10.146   2.930 -2.5101  0.5987  0.4263
  718MOL0     H96907   9.383   9.969   2.918  0.5313  0.9128 -1.5013
  718MOL0     H96908   9.485  10.114   3.166  0.6725 -1.4261  0.2110
  718MOL0     H96909   9.484   9.941   3.119 -4.2807 -0.0490  2.2607
  718MOL0     H96910   8.301   9.915   3.107 -4.6031 -1.0623  2.2014
  718MOL0     H96911   8.102   9.779   3.156 -1.1464  1.6668  0.0078
  718MOL0     H96912   7.743   9.622   2.758  1.3530 -0.8099 -0.1618
  718MOL0     H96913   7.528   9.517   2.774 -2.8349 -1.4880  1.3815
  718MOL0     H96914   5.885   9.124   3.161  0.1399 -1.7011  0.1482
  718MOL0     H96915   5.709   8.972   3.054  0.7101 -3.3501  1.4430
  718MOL0     H96916   5.504   8.779   2.921  0.0434 -0.1720 -1.3972
  718MOL0     H96917   5.435   8.631   2.754 -1.3903  1.4472  1.2377
  718MOL0     H96918   5.257   8.474   2.589  1.8543 -1.9075  1.4177
  718MOL0     H96919   5.136   8.556   2.690  2.5502  2.7275 -4.6815
  718MOL0     H96920   5.118   8.263   2.590 -0.0170  0.0071 -0.1143
  718MOL0     H96921   5.017   8.406   2.554 -0.0935 -0.4279  0.0411
  718MOL0     H96922   5.039   8.280   2.832  0.3496  2.7152  1.0348
  718MOL0     H96923   4.919   8.252   2.709 -0.5719  2.0382 -2.2519
  718MOL0     H96924   4.842   8.421   2.874 -1.3298  1.9941  0.3864
  718MOL0     H96925   4.992   8.517   2.859 -0.1502 -1.1609  1.0236
  718MOL0     H96926   4.758   8.676   2.547  2.0827  0.7245 -0.8330
  718MOL0     H96927   5.179   8.421   3.030  0.8958  0.0048  0.8652
  718MOL0     H96928   5.137   8.491   3.243 -2.1075  1.4452 -0.2170
  718MOL0     H96929   5.274   8.572   3.325 -0.7836 -1.9731  0.5042
  718MOL0     H96930   5.142   8.661   3.256 -0.7188 -0.9135 -0.9091
  719MOL0     O96931   6.414   6.599   1.206  0.3654 -0.7356  0.3411
  719MOL0     C96932   6.406   6.493   1.249  1.1880  1.1507 -0.0651
  719MOL0     O96933   6.475   6.383   1.207 -0.0131 -0.5723  0.1359
  719MOL0     C96934   6.572   6.397   1.118 -0.6802  0.2893 -0.0598
  719MOL0     C96935   6.541   6.408   0.984  0.5696  0.1383  0.0807
  719MOL0     C96936   6.641   6.415   0.889 -0.1088  0.5300  0.4418
  719MOL0     C96937   6.772   6.416   0.934 -0.7644  0.2269  0.5901
  719MOL0     O96938   6.883   6.415   0.850  0.5582  0.4675 -0.5611
  719MOL0     C96939   6.890   6.511   0.738  0.4527 -0.1418 -0.3790
  719MOL0     C96940   7.032   6.486   0.658  0.3139 -0.2328 -0.0845
  719MOL0     C96941   7.149   6.559   0.726  0.0729 -0.0333  0.8991
  719MOL0     C96942   7.290   6.507   0.686 -0.3219 -0.2193 -0.3148
  719MOL0     C96943   7.409   6.594   0.727 -0.4329 -0.1755 -0.6424
  719MOL0     C96944   7.549   6.537   0.685 -0.1104  0.9761 -0.4187
  719MOL0     C96945   7.661   6.613   0.760 -0.4172 -0.4319  0.2169
  719MOL0     C96946   7.800   6.540   0.750 -0.1176  0.4892  0.1661
  719MOL0     N96947   7.914   6.597   0.820 -0.1007  0.8858  0.4995
  719MOL0     C96948   8.041   6.546   0.806  0.2336 -0.3870  0.4333
  719MOL0     C96949   8.110   6.603   0.907 -0.2992 -0.5051 -1.6160
  719MOL0     C96950   8.259   6.577   0.929 -0.6859  0.8353 -0.4802
  719MOL0     C96951   8.297   6.432   0.966  0.7218 -0.0839  0.6658
  719MOL0     C96952   8.395   6.436   1.085  0.1562  0.5858 -0.6860
  719MOL0     C96953   8.466   6.302   1.113 -0.0975  1.4645 -0.4662
  719MOL0     O96954   8.547   6.260   0.996 -0.3856 -0.1848 -0.0952
  719MOL0     C96955   8.679   6.311   1.005  1.0038 -0.0101 -0.1353
  719MOL0     C96956   8.750   6.279   1.120  1.4508 -0.2669  0.3951
  719MOL0     C96957   8.884   6.319   1.122  0.1904 -0.0969  0.2760
  719MOL0     C96958   8.948   6.380   1.009 -0.2680  0.3119  0.1140
  719MOL0     C96959   9.091   6.421   1.006  0.7383 -0.3777  0.0936
  719MOL0     O96960   9.151   6.426   0.882  0.2440  0.0190 -0.6021
  719MOL0     C96961   9.288   6.406   0.891 -0.3912  0.3905 -0.3406
  719MOL0     C96962   9.380   6.495   0.835  0.8669 -0.9975 -0.0425
  719MOL0     C96963   9.515   6.474   0.820 -0.2052 -0.7846 -0.3086
  719MOL0     C96964   9.569   6.362   0.875  0.0757 -0.4474 -0.7771
  719MOL0     O96965   9.705   6.350   0.863 -0.0858 -0.6280 -0.9265
  719MOL0     C96966   9.740   6.226   0.806  0.9852 -0.1926 -0.9510
  719MOL0     C96967   9.884   6.218   0.758 -1.2695 -0.8652  0.0502
  719MOL0     C96968   9.892   6.098   0.660  0.2724 -0.1874 -0.3147
  719MOL0     C96969  10.041   6.089   0.610  1.0301  0.2897 -0.4298
  719MOL0     C96970  10.034   6.010   0.478  0.6068 -0.0307 -0.5634
  719MOL0     C96971  10.170   5.944   0.426  0.0695 -0.4872 -0.0140
  719MOL0     C96972  10.294   6.033   0.477 -0.7194 -0.4259 -0.6587
  719MOL0     C96973  10.433   5.981   0.427 -0.6305  0.3934  0.7559
  719MOL0    Cl96974  10.513   5.863   0.540 -0.6023 -0.7472 -0.0119
  719MOL0     C96975   9.486   6.266   0.939  0.2731 -0.7321 -0.0541
  719MOL0     C96976   9.348   6.284   0.935  0.6550 -0.1174  0.0985
  719MOL0     O96977   9.136   6.468   1.106  0.5300  0.2511 -0.4279
  719MOL0     C96978   8.868   6.410   0.897 -0.7026  0.4164 -0.5515
  719MOL0     C96979   8.736   6.376   0.891  0.3649  0.4971  0.1402
  719MOL0     N96980   8.024   6.696   0.978 -0.3975 -0.4476  1.1756
  719MOL0     N96981   7.908   6.688   0.920 -0.1185  0.1511 -0.3403
  719MOL0     C96982   6.815   6.411   1.061 -0.0548 -0.0305  0.7604
  719MOL0     C96983   6.711   6.393   1.156  0.6343  0.2998 -1.0514
  719MOL0     C96984   6.307   6.467   1.368 -0.4146  0.2752  0.1428
  719MOL0     C96985   6.305   6.340   1.429  0.2838 -0.5104 -0.0065
  719MOL0     C96986   6.208   6.311   1.527  0.7582  0.0857  0.0908
  719MOL0     C96987   6.108   6.403   1.568  0.5838  0.3730 -0.1806
  719MOL0     O96988   6.039   6.395   1.682  0.2501  0.0099 -0.2199
  719MOL0     C96989   5.984   6.265   1.711 -0.2860  0.1987 -0.4371
  719MOL0     C96990   5.881   6.261   1.827 -0.4624  0.6517 -0.2720
  719MOL0     C96991   5.735   6.299   1.784  0.0446 -0.5699  0.4367
  719MOL0     C96992   5.633   6.291   1.903  0.7018 -0.2519  0.6987
  719MOL0     C96993   5.498   6.309   1.840  0.4668  0.8164 -0.3492
  719MOL0     C96994   5.386   6.312   1.788  0.4281  0.8048  0.4331
  719MOL0     C96995   6.112   6.533   1.504 -0.5166 -0.8233 -0.6015
  719MOL0     C96996   6.205   6.569   1.407  0.7079  1.2181  0.1458
  719MOL0     C96997   6.183   6.706   1.346 -0.0646  0.0071 -0.3782
  719MOL0     H96998   6.436   6.415   0.958  0.5150  1.0692  0.4859
  719MOL0     H96999   6.623   6.407   0.783 -0.6848 -0.0427  0.5714
  719MOL0     H97000   6.804   6.479   0.678  0.7824 -2.3264  0.2143
  719MOL0     H97001   6.888   6.611   0.782 -0.2543 -1.6148  3.3136
  719MOL0     H97002   7.012   6.525   0.557  1.5914 -2.0623 -1.1150
  719MOL0     H97003   7.059   6.382   0.635 -1.0519 -0.8777  1.1259
  719MOL0     H97004   7.128   6.568   0.833 -0.3525 -0.1601  0.8277
  719MOL0     H97005   7.145   6.663   0.694  2.5957 -0.6593 -1.9946
  719MOL0     H97006   7.292   6.407   0.729 -2.4542 -0.8033 -1.3785
  719MOL0     H97007   7.291   6.501   0.577  2.1879  2.0786 -0.5024
  719MOL0     H97008   7.388   6.690   0.679  2.0166 -0.2305 -2.0070
  719MOL0     H97009   7.422   6.608   0.834  0.4985 -1.2132 -0.6033
  719MOL0     H97010   7.559   6.430   0.704 -1.4654  0.5443 -1.9123
  719MOL0     H97011   7.557   6.536   0.576  2.1810  0.4875 -0.2853
  719MOL0     H97012   7.627   6.605   0.864 -1.6831  1.2112 -0.0301
  719MOL0     H97013   7.670   6.720   0.738  4.4376 -0.5131  0.6802
  719MOL0     H97014   7.785   6.436   0.780 -0.2574  0.3458 -0.3908
  719MOL0     H97015   7.836   6.532   0.647  0.4869  1.0992  0.3249
  719MOL0     H97016   8.079   6.471   0.737 -1.6331 -0.4887 -0.5485
  719MOL0     H97017   8.311   6.602   0.836  0.9148  0.5763  0.3139
  719MOL0     H97018   8.302   6.648   1.001 -0.5800  2.4356 -2.0506
  719MOL0     H97019   8.208   6.374   0.993  0.1566  0.4812  0.0721
  719MOL0     H97020   8.330   6.387   0.872  0.6066  0.8242  0.1777
  719MOL0     H97021   8.353   6.467   1.181  3.2868  0.6568  0.7959
  719MOL0     H97022   8.466   6.512   1.049  0.7347  0.6398  0.5259
  719MOL0     H97023   8.385   6.233   1.135  0.6697  1.5876  3.4302
  719MOL0     H97024   8.529   6.306   1.203  2.6074 -1.2221 -2.0214
  719MOL0     H97025   8.710   6.224   1.205 -2.8921  1.3932 -0.3156
  719MOL0     H97026   8.944   6.299   1.210 -2.9447  0.6305  2.7406
  719MOL0     H97027   9.345   6.588   0.790  1.3319 -1.5490 -1.6302
  719MOL0     H97028   9.585   6.544   0.775 -1.4024  0.7616  0.1398
  719MOL0     H97029   9.718   6.151   0.882  0.2529  1.8814  0.9929
  719MOL0     H97030   9.669   6.218   0.723  1.7131  1.6122 -1.8093
  719MOL0     H97031   9.903   6.316   0.712 -0.7039 -2.0644 -2.4374
  719MOL0     H97032   9.953   6.214   0.842  2.1695 -0.8713 -2.5681
  719MOL0     H97033   9.870   6.000   0.705  1.6451  0.2363  1.3939
  719MOL0     H97034   9.822   6.113   0.578 -0.3954  1.2879  0.4990
  719MOL0     H97035  10.109   6.049   0.686  1.8526  1.6013 -0.4381
  719MOL0     H97036  10.072   6.193   0.598 -0.1643  0.6434 -0.5242
  719MOL0     H97037  10.000   6.078   0.400 -2.5755 -2.9323 -2.0144
  719MOL0     H97038   9.959   5.930   0.481  0.6627 -0.0530  0.3422
  719MOL0     H97039  10.168   5.841   0.462 -1.7783  0.0771  1.6209
  719MOL0     H97040  10.169   5.946   0.316  3.9527  1.0758 -0.1817
  719MOL0     H97041  10.296   6.041   0.586 -0.5706 -3.8807 -0.3053
  719MOL0     H97042  10.274   6.133   0.436 -1.9910 -1.0249 -1.5478
  719MOL0     H97043  10.418   5.925   0.334 -3.5302 -2.1064  2.5321
  719MOL0     H97044  10.506   6.062   0.417 -1.5201  1.1256  0.0296
  719MOL0     H97045   9.519   6.170   0.978 -2.4316 -1.7342  0.0017
  719MOL0     H97046   9.276   6.212   0.970 -1.2615  1.4983 -0.3388
  719MOL0     H97047   8.914   6.452   0.808 -0.3119  0.4991 -0.3161
  719MOL0     H97048   8.683   6.393   0.798 -0.2850  2.3818  0.8044
  719MOL0     H97049   6.919   6.415   1.090  0.3067 -0.7052 -0.3883
  719MOL0     H97050   6.746   6.378   1.258 -1.8744 -0.1423 -0.1760
  719MOL0     H97051   6.372   6.265   1.386  3.2290  1.0210  1.6019
  719MOL0     H97052   6.205   6.216   1.579 -3.2194 -0.0965 -0.1762
  719MOL0     H97053   6.062   6.191   1.729  0.5108  0.6904 -1.7110
  719MOL0     H97054   5.934   6.234   1.618  1.1367 -1.5707 -0.6665
  719MOL0     H97055   5.925   6.313   1.912  1.9044 -1.4161 -0.1008
  719MOL0     H97056   5.881   6.153   1.847  2.2574  0.7008  0.3552
  719MOL0     H97057   5.700   6.230   1.706 -0.4533  0.8602 -0.6727
  719MOL0     H97058   5.734   6.402   1.748 -0.7301 -0.9944 -0.8622
  719MOL0     H97059   5.640   6.193   1.953  1.8175 -0.3556  0.3639
  719MOL0     H97060   5.657   6.371   1.973  1.4612 -1.6159  2.0721
  719MOL0     H97061   5.291   6.303   1.740  0.6991  0.9281 -0.1442
  719MOL0     H97062   6.038   6.607   1.531  1.0071  0.7660 -0.6219
  719MOL0     H97063   6.154   6.770   1.430  0.9969 -2.2695  1.8505
  719MOL0     H97064   6.275   6.749   1.306  0.6972 -0.4979  0.7691
  719MOL0     H97065   6.097   6.695   1.280 -0.0731 -2.1481 -0.0883
  720MOL0     O97066   7.411   1.616   3.807 -0.7803 -0.1378 -0.4183
  720MOL0     C97067   7.402   1.526   3.724 -1.4597 -0.4928  0.2163
  720MOL0     O97068   7.506   1.445   3.684  0.2688  0.4937  0.4754
  720MOL0     C97069   7.636   1.455   3.713  0.1092 -0.2158 -0.4073
  720MOL0     C97070   7.718   1.380   3.632 -0.2784  0.2539 -0.3098
  720MOL0     C97071   7.849   1.356   3.676  0.4699  0.7857  0.2614
  720MOL0     C97072   7.900   1.421   3.792 -0.4087 -0.3385 -0.2167
  720MOL0     O97073   8.029   1.401   3.832  0.6390  0.0857  0.0752
  720MOL0     C97074   8.067   1.384   3.972 -0.0630 -0.4207 -0.0560
  720MOL0     C97075   8.210   1.443   3.991 -0.0115 -0.6885  0.4514
  720MOL0     C97076   8.220   1.594   3.966 -0.4504 -0.1912  1.0647
  720MOL0     C97077   8.360   1.642   3.982 -0.2524  0.4928  0.1178
  720MOL0     C97078   8.425   1.608   4.118  0.1297  0.2499  0.2473
  720MOL0     C97079   8.554   1.697   4.133  0.5709 -0.7080  0.2220
  720MOL0     C97080   8.618   1.681   4.272  0.5312 -0.2721 -0.3383
  720MOL0     C97081   8.616   1.826   4.333  0.4833  0.5818  0.1809
  720MOL0     N97082   8.645   1.823   4.476 -0.4701  0.0903 -0.1807
  720MOL0     C97083   8.568   1.889   4.574 -0.3198  1.0947  0.3580
  720MOL0     C97084   8.647   1.869   4.685  0.0899 -0.7772 -0.5406
  720MOL0     C97085   8.599   1.914   4.823  0.5367  0.1709  0.0896
  720MOL0     C97086   8.705   1.904   4.941 -0.2599 -0.1950  0.6970
  720MOL0     C97087   8.809   2.029   4.911 -0.3933 -0.2455  0.0038
  720MOL0     C97088   8.914   2.031   5.021  0.3336 -0.1523 -0.8629
  720MOL0     O97089   8.989   1.907   5.034  0.1221  0.0230  0.0879
  720MOL0     C97090   9.116   1.924   5.082  0.0642  0.3378 -0.5289
  720MOL0     C97091   9.132   1.944   5.221  0.2464  0.3479 -0.8629
  720MOL0     C97092   9.256   1.961   5.277  0.1304 -0.3763  0.1101
  720MOL0     C97093   9.374   1.985   5.192 -0.8484  0.1855  0.2700
  720MOL0     C97094   9.503   2.026   5.241  0.0182 -0.0987  0.0265
  720MOL0     O97095   9.507   2.052   5.375  0.8806 -0.1863 -0.4341
  720MOL0     C97096   9.633   2.091   5.423 -0.2920  0.6524  0.4680
  720MOL0     C97097   9.673   2.222   5.455 -0.2255  0.3243 -0.2492
  720MOL0     C97098   9.805   2.245   5.506 -0.3622 -0.5304  0.0069
  720MOL0     C97099   9.901   2.136   5.514 -0.4141 -0.2871 -0.2381
  720MOL0     O97100  10.035   2.143   5.547  0.4821 -0.5194  0.2449
  720MOL0     C97101  10.099   2.270   5.532 -0.2774  0.4181  0.1833
  720MOL0     C97102  10.150   2.314   5.671  0.0404  0.1663 -0.0321
  720MOL0     C97103  10.221   2.448   5.668 -0.0739  0.0601  0.2581
  720MOL0     C97104  10.269   2.495   5.806 -0.4379  0.1246 -0.3652
  720MOL0     C97105  10.382   2.596   5.812  0.5511  0.7335 -1.1711
  720MOL0     C97106  10.429   2.614   5.956  0.3025 -0.7488 -0.1000
  720MOL0     C97107  10.563   2.689   5.949 -1.3531 -0.1387  0.2807
  720MOL0     C97108  10.621   2.706   6.083 -0.7967 -1.3076  0.2483
  720MOL0    Cl97109  10.690   2.560   6.146  0.0055  0.3106  0.1404
  720MOL0     C97110   9.855   2.011   5.476 -0.1734  0.1280 -0.5530
  720MOL0     C97111   9.725   1.988   5.438  0.6523  0.2923 -0.2382
  720MOL0     O97112   9.602   2.019   5.169 -0.5025 -0.6017  0.0294
  720MOL0     C97113   9.353   1.958   5.052  0.0582  0.6112 -0.3163
  720MOL0     C97114   9.223   1.937   5.000 -0.8429 -0.1575  0.0609
  720MOL0     N97115   8.763   1.809   4.651 -0.7196  0.4518 -0.3810
  720MOL0     N97116   8.761   1.778   4.526  0.0149 -0.3935  0.1353
  720MOL0     C97117   7.829   1.519   3.856  0.0372 -0.6301 -0.0768
  720MOL0     C97118   7.692   1.532   3.823 -0.0546  0.1703 -0.4350
  720MOL0     C97119   7.276   1.517   3.640 -0.3566  0.1196  0.5371
  720MOL0     C97120   7.277   1.429   3.522 -0.8657  0.4662 -0.5604
  720MOL0     C97121   7.163   1.407   3.449  0.6853  0.0520 -0.0296
  720MOL0     C97122   7.041   1.471   3.486 -0.2951  0.3757 -1.2538
  720MOL0     O97123   6.929   1.452   3.407  0.5428  0.3617  0.3030
  720MOL0     C97124   6.799   1.505   3.435 -0.1159 -0.5126 -0.2936
  720MOL0     C97125   6.785   1.649   3.399  0.4162 -0.0115 -0.7797
  720MOL0     C97126   6.636   1.702   3.417 -0.1984 -0.2073  0.1499
  720MOL0     C97127   6.567   1.700   3.283  1.0452 -0.1161  0.9654
  720MOL0     C97128   6.427   1.738   3.305  0.0332  0.5197 -0.7021
  720MOL0     C97129   6.314   1.774   3.338  0.8000  0.3896 -0.4409
  720MOL0     C97130   7.036   1.558   3.598 -0.3839 -0.3296  0.6361
  720MOL0     C97131   7.152   1.583   3.667 -0.1296  0.2230 -0.4113
  720MOL0     C97132   7.136   1.685   3.777 -0.1494 -0.9624 -0.1090
  720MOL0     H97133   7.685   1.322   3.546  0.7796  0.1836 -0.6801
  720MOL0     H97134   7.924   1.295   3.625  2.2865  2.0731  1.2853
  720MOL0     H97135   8.006   1.441   4.042 -0.2777  0.0195 -0.5981
  720MOL0     H97136   8.059   1.280   4.004  0.9752 -0.3811  0.3921
  720MOL0     H97137   8.281   1.395   3.923 -2.2393  0.4948 -2.9576
  720MOL0     H97138   8.237   1.431   4.097 -2.7153  1.3358  1.4805
  720MOL0     H97139   8.158   1.649   4.037  2.2666  1.6329  2.2095
  720MOL0     H97140   8.182   1.608   3.864  0.1225 -0.9281  0.7407
  720MOL0     H97141   8.416   1.592   3.903 -0.8503 -0.7094  0.4250
  720MOL0     H97142   8.371   1.749   3.962 -0.7296  0.5465  0.1394
  720MOL0     H97143   8.347   1.634   4.190 -0.1464  1.4456 -0.4405
  720MOL0     H97144   8.452   1.503   4.126  0.6686  0.0513 -2.7907
  720MOL0     H97145   8.637   1.665   4.068  0.8598 -1.7765  1.0900
  720MOL0     H97146   8.537   1.803   4.109  1.2658 -1.0969 -2.2284
  720MOL0     H97147   8.718   1.638   4.274 -0.2233 -2.1189 -0.4337
  720MOL0     H97148   8.548   1.616   4.326 -0.9149  1.8103  0.4299
  720MOL0     H97149   8.678   1.901   4.281  0.6948 -0.2735 -0.8255
  720MOL0     H97150   8.512   1.857   4.318 -0.3311 -2.7296 -2.0377
  720MOL0     H97151   8.476   1.946   4.563 -0.5772  0.5400 -0.4028
  720MOL0     H97152   8.569   2.017   4.803  1.4366  0.5878  0.8051
  720MOL0     H97153   8.511   1.856   4.852  0.4724  0.7034  1.0175
  720MOL0     H97154   8.665   1.917   5.042  4.2786  0.3987  2.6627
  720MOL0     H97155   8.761   1.810   4.932 -0.0569  0.1067 -2.0018
  720MOL0     H97156   8.763   2.128   4.909  0.1997  0.0262 -1.7837
  720MOL0     H97157   8.850   2.018   4.811 -1.6320  0.1500 -0.5698
  720MOL0     H97158   8.874   2.072   5.115  1.9288  1.4615 -0.8258
  720MOL0     H97159   8.982   2.112   4.991  0.3222  0.2725  0.2189
  720MOL0     H97160   9.049   1.941   5.291  1.2866  0.5224  0.4107
  720MOL0     H97161   9.255   1.980   5.383 -4.4335  0.6550  0.0876
  720MOL0     H97162   9.610   2.306   5.431  0.1810  0.9872  0.9096
  720MOL0     H97163   9.832   2.349   5.525 -2.6303 -0.1912  1.9981
  720MOL0     H97164  10.188   2.263   5.469 -1.4479  1.2121 -1.6343
  720MOL0     H97165  10.031   2.348   5.497 -1.9035 -0.2580  1.7026
  720MOL0     H97166  10.061   2.324   5.734 -0.0115  0.3830 -0.1398
  720MOL0     H97167  10.210   2.233   5.713 -0.8985  0.4718  2.0352
  720MOL0     H97168  10.300   2.435   5.593 -2.1174 -2.9461 -1.5893
  720MOL0     H97169  10.153   2.523   5.627  0.4024  0.2628 -0.1822
  720MOL0     H97170  10.289   2.404   5.864 -0.4992 -2.3432 -3.8745
  720MOL0     H97171  10.181   2.538   5.853  0.3978  0.8006  0.6305
  720MOL0     H97172  10.338   2.691   5.781 -1.3140  0.3447  0.1136
  720MOL0     H97173  10.466   2.575   5.745  1.2660  3.1085 -1.0986
  720MOL0     H97174  10.350   2.666   6.011 -0.0517 -0.6385 -0.7038
  720MOL0     H97175  10.449   2.518   6.004  1.2948 -0.1259  0.7724
  720MOL0     H97176  10.552   2.785   5.897  0.3196  0.0924  0.3122
  720MOL0     H97177  10.633   2.628   5.891 -1.5727  0.5526 -0.7428
  720MOL0     H97178  10.698   2.783   6.082 -1.2422 -0.7154  2.9787
  720MOL0     H97179  10.556   2.743   6.162  1.4670  1.0135  1.1702
  720MOL0     H97180   9.917   1.923   5.488 -0.5968 -0.1642 -0.4594
  720MOL0     H97181   9.692   1.885   5.433  0.7116  0.3033 -0.8921
  720MOL0     H97182   9.435   1.933   4.986 -1.7863  1.1969 -3.0044
  720MOL0     H97183   9.218   1.918   4.893 -2.8367  1.8227 -0.2782
  720MOL0     H97184   7.882   1.581   3.928  2.8956 -2.8880 -0.0386
  720MOL0     H97185   7.640   1.599   3.891  1.3885 -0.8465  1.7756
  720MOL0     H97186   7.368   1.384   3.486 -0.9204 -1.3288  1.3491
  720MOL0     H97187   7.172   1.337   3.367 -2.7774  0.8404 -1.2552
  720MOL0     H97188   6.787   1.489   3.543  1.8624  2.5542  0.5507
  720MOL0     H97189   6.723   1.453   3.377 -2.8845  1.8455  0.9371
  720MOL0     H97190   6.818   1.656   3.295  1.7167 -3.9631 -0.7922
  720MOL0     H97191   6.844   1.704   3.473  0.4240  0.0242 -0.8126
  720MOL0     H97192   6.641   1.802   3.462  0.7682  0.1636 -0.7269
  720MOL0     H97193   6.576   1.642   3.485  2.1244 -1.3000  1.3726
  720MOL0     H97194   6.607   1.756   3.199  0.9836 -3.5880 -1.6191
  720MOL0     H97195   6.583   1.597   3.250 -1.3618 -1.9014  4.6990
  720MOL0     H97196   6.217   1.806   3.369  0.6785  2.1401 -2.4005
  720MOL0     H97197   6.942   1.605   3.627  0.0616  0.2421  1.1793
  720MOL0     H97198   7.188   1.778   3.753 -0.5865 -0.5234  0.6130
  720MOL0     H97199   7.033   1.720   3.790  0.4447  0.8837 -0.1549
  720MOL0     H97200   7.172   1.642   3.871  0.8222  0.2433  0.0860
  721MOL0     O97201   4.831  10.503   9.900 -0.3419 -0.1693  0.1732
  721MOL0     C97202   4.817  10.434   9.791  0.6057  0.2162  0.3139
  721MOL0     O97203   4.894  10.438   9.678 -0.2421 -0.4961  0.1061
  721MOL0     C97204   5.007  10.517   9.667  0.5454 -1.0354 -0.1335
  721MOL0     C97205   5.021  10.568   9.540  0.4952 -0.9066 -0.1434
  721MOL0     C97206   5.144  10.627   9.500  0.3460 -0.7840  0.3891
  721MOL0     C97207   5.248  10.645   9.599  0.2569  0.8490 -0.7205
  721MOL0     O97208   5.355  10.728   9.556 -0.2655 -1.0071 -0.1300
  721MOL0     C97209   5.482  10.713   9.612 -0.9447 -0.5779  0.1641
  721MOL0     C97210   5.534  10.581   9.550 -0.8295 -0.2053 -0.2861
  721MOL0     C97211   5.690  10.569   9.545  0.5476  0.7746 -0.0611
  721MOL0     C97212   5.775  10.537   9.664 -0.6574  0.4831 -0.1942
  721MOL0     C97213   5.922  10.584   9.653  0.3045  0.2653 -0.1130
  721MOL0     C97214   5.989  10.596   9.789 -0.8027  0.2069 -0.6405
  721MOL0     C97215   6.143  10.630   9.764  1.3006  0.2828  0.9754
  721MOL0     C97216   6.217  10.616   9.890 -0.6143  0.3107 -0.2271
  721MOL0     N97217   6.362  10.646   9.892  0.2109 -0.4676 -0.0406
  721MOL0     C97218   6.415  10.765   9.850 -0.0078  0.7032 -0.2027
  721MOL0     C97219   6.541  10.745   9.826 -0.3398  0.3726  1.2634
  721MOL0     C97220   6.628  10.863   9.804 -1.1642 -0.5399 -0.3266
  721MOL0     C97221   6.583  10.960   9.692 -0.5298  0.0893  0.8196
  721MOL0     C97222   6.676  11.085   9.681  0.2985  0.3116  0.5213
  721MOL0     C97223   6.668  11.172   9.806 -0.0676 -0.9980 -0.0000
  721MOL0     O97224   6.528  11.207   9.826 -0.0654 -0.5983 -0.0769
  721MOL0     C97225   6.468  11.309   9.751  0.5062 -0.7634  0.1315
  721MOL0     C97226   6.537  11.401   9.664  0.6149 -0.5559 -0.1652
  721MOL0     C97227   6.465  11.510   9.604  0.4968 -0.4736  0.0228
  721MOL0     C97228   6.332  11.528   9.627 -0.9467  0.2114 -0.7110
  721MOL0     C97229   6.267  11.635   9.558  0.3463  0.6788 -0.3953
  721MOL0     O97230   6.339  11.712   9.467 -0.2095  0.7551  0.3497
  721MOL0     C97231   6.289  11.808   9.382  0.3551  1.0279  0.6759
  721MOL0     C97232   6.157  11.864   9.372 -0.1341  0.0790  0.6454
  721MOL0     C97233   6.138  11.956   9.266 -0.3213  0.0415 -0.6687
  721MOL0     C97234   6.235  11.982   9.171 -0.3890 -1.3130  0.1540
  721MOL0     O97235   6.209  12.071   9.071  0.7510  0.2143  0.0974
  721MOL0     C97236   6.260  12.028   8.945 -0.6416 -0.7844 -0.6379
  721MOL0     C97237   6.184  12.095   8.828 -0.1617  0.7058  0.8766
  721MOL0     C97238   6.256  12.078   8.690  0.2275 -0.1813  0.1650
  721MOL0     C97239   6.258  11.940   8.635 -0.1033  0.2527 -0.4949
  721MOL0     C97240   6.300  11.945   8.484  0.4278  0.1915  0.0738
  721MOL0     C97241   6.450  11.923   8.448 -0.3709 -0.0690 -0.3737
  721MOL0     C97242   6.471  11.901   8.295  0.0738  0.4987 -0.2807
  721MOL0     C97243   6.596  11.973   8.237 -0.0434  0.3168  0.3782
  721MOL0    Cl97244   6.743  11.913   8.313  0.2475 -0.1470  0.0921
  721MOL0     C97245   6.369  11.941   9.187  0.6062  0.8177 -0.2800
  721MOL0     C97246   6.388  11.851   9.297  0.2957 -0.0801 -0.0016
  721MOL0     O97247   6.150  11.645   9.585 -0.3350  1.2783 -0.7781
  721MOL0     C97248   6.271  11.447   9.726 -0.0037  0.3004  0.1427
  721MOL0     C97249   6.336  11.339   9.785  0.7264  0.1829 -0.0463
  721MOL0     N97250   6.569  10.609   9.842 -0.0254 -0.3030 -1.2420
  721MOL0     N97251   6.461  10.553   9.888  0.3290  0.2760 -1.0034
  721MOL0     C97252   5.227  10.577   9.720  0.1418 -0.1146  0.1474
  721MOL0     C97253   5.109  10.511   9.759  0.5788  0.8089 -0.3405
  721MOL0     C97254   4.693  10.344   9.773 -0.1439 -0.2448 -0.4123
  721MOL0     C97255   4.630  10.321   9.652 -0.1455 -0.2226 -0.2413
  721MOL0     C97256   4.522  10.236   9.637 -0.2863 -1.0120  0.5186
  721MOL0     C97257   4.462  10.162   9.742  0.3113  0.4119  0.5927
  721MOL0     O97258   4.350  10.073   9.722  0.1032 -0.3640  0.2419
  721MOL0     C97259   4.270  10.088   9.602 -0.7391 -0.2209 -0.4537
  721MOL0     C97260   4.137   9.999   9.603  0.3277 -0.3508  0.9138
  721MOL0     C97261   4.047  10.030   9.715  0.4667 -0.6914 -0.1260
  721MOL0     C97262   3.945   9.918   9.720 -0.5325 -0.4043  1.0298
  721MOL0     C97263   3.877   9.936   9.844  0.9352  0.2417 -0.6399
  721MOL0     C97264   3.835   9.969   9.961 -0.0135  0.5427  0.9432
  721MOL0     C97265   4.524  10.180   9.866 -0.0670  0.2051  0.5170
  721MOL0     C97266   4.625  10.273   9.881 -0.1652  0.2068 -0.4611
  721MOL0     C97267   4.673  10.298  10.027 -0.0900  0.4336  0.3402
  721MOL0     H97268   4.928  10.563   9.484  1.2491 -0.2387 -1.5119
  721MOL0     H97269   5.144  10.669   9.400  2.2098 -0.5626  0.4500
  721MOL0     H97270   5.544  10.795   9.577  0.9536 -2.3443 -0.8127
  721MOL0     H97271   5.471  10.702   9.720 -1.9909  0.0873  0.1350
  721MOL0     H97272   5.509  10.575   9.444 -0.0286 -1.5630 -0.4210
  721MOL0     H97273   5.504  10.491   9.604 -1.7675 -0.6605 -1.5194
  721MOL0     H97274   5.728  10.666   9.511  0.8117  0.5873 -0.2940
  721MOL0     H97275   5.698  10.495   9.466 -1.3228  1.1768 -0.6927
  721MOL0     H97276   5.739  10.594   9.751  3.9278  0.7547  1.8615
  721MOL0     H97277   5.777  10.431   9.689  3.2274  1.1985  3.9413
  721MOL0     H97278   5.984  10.520   9.589  0.6057  0.1245  0.3180
  721MOL0     H97279   5.920  10.686   9.611 -2.2721  0.2099 -0.2985
  721MOL0     H97280   5.943  10.679   9.843  2.8275  0.3000  2.7912
  721MOL0     H97281   5.979  10.500   9.841 -3.0283  0.8431  0.1849
  721MOL0     H97282   6.153  10.735   9.735 -0.5641  0.5576  1.1799
  721MOL0     H97283   6.189  10.576   9.680 -1.4240  2.2089 -2.0165
  721MOL0     H97284   6.164  10.675   9.965  0.0798  0.2379  0.3349
  721MOL0     H97285   6.210  10.511   9.923 -1.0115  0.4831  0.2560
  721MOL0     H97286   6.363  10.859   9.832  0.1819  1.2202  1.7341
  721MOL0     H97287   6.632  10.911   9.903 -2.4105 -1.4320  0.1784
  721MOL0     H97288   6.723  10.816   9.777 -1.2072 -0.8867  0.1072
  721MOL0     H97289   6.604  10.911   9.596  1.3513 -2.1706  2.2764
  721MOL0     H97290   6.480  10.997   9.694  0.5933  3.5778  1.3064
  721MOL0     H97291   6.645  11.147   9.597 -0.7461  0.1947  0.7957
  721MOL0     H97292   6.777  11.046   9.674  0.5638  1.0951 -0.2079
  721MOL0     H97293   6.731  11.260   9.793 -4.6323  2.9163  1.3773
  721MOL0     H97294   6.699  11.109   9.890  1.3595 -0.6333 -0.2420
  721MOL0     H97295   6.640  11.378   9.638 -0.1541 -0.6511 -3.4659
  721MOL0     H97296   6.517  11.571   9.531  3.8350  1.8915  3.8971
  721MOL0     H97297   6.073  11.828   9.431  0.2182  1.3873  1.9968
  721MOL0     H97298   6.044  12.008   9.250  1.5565  2.9403 -3.4727
  721MOL0     H97299   6.361  12.069   8.947 -1.2015  0.7672  2.4834
  721MOL0     H97300   6.254  11.919   8.938  0.2085 -0.7753 -1.6431
  721MOL0     H97301   6.088  12.048   8.807 -0.7067  2.6164 -1.4056
  721MOL0     H97302   6.187  12.203   8.845  1.9367  1.2587 -2.0783
  721MOL0     H97303   6.200  12.138   8.618  1.4886  1.9703  0.8679
  721MOL0     H97304   6.361  12.105   8.677 -0.5673  1.8531 -3.0382
  721MOL0     H97305   6.161  11.891   8.643 -0.3086  0.6793 -0.2859
  721MOL0     H97306   6.324  11.872   8.690 -1.9538 -0.9960  0.2502
  721MOL0     H97307   6.271  12.040   8.438  0.4477 -1.1666 -2.9665
  721MOL0     H97308   6.233  11.872   8.437 -3.1523  2.2318  1.5850
  721MOL0     H97309   6.514  12.010   8.468  1.4025 -0.6728 -2.9661
  721MOL0     H97310   6.486  11.840   8.509 -0.6344  0.0189 -0.0903
  721MOL0     H97311   6.386  11.940   8.239 -1.3928 -0.4966  1.1489
  721MOL0     H97312   6.469  11.792   8.286  2.9889  0.3414  0.2133
  721MOL0     H97313   6.592  11.953   8.130 -3.2032  3.4742 -0.2783
  721MOL0     H97314   6.596  12.082   8.253 -2.2425  0.5126 -0.7082
  721MOL0     H97315   6.451  11.963   9.120  1.1838 -0.8141 -0.1607
  721MOL0     H97316   6.493  11.823   9.305  0.2741  0.2448  1.7841
  721MOL0     H97317   6.164  11.460   9.740 -0.3943 -3.2195  1.3001
  721MOL0     H97318   6.270  11.280   9.848  0.0134 -0.1147 -1.0515
  721MOL0     H97319   5.308  10.576   9.791  1.4748 -1.2142 -1.3160
  721MOL0     H97320   5.095  10.465   9.857 -2.7839  3.7641  0.7764
  721MOL0     H97321   4.672  10.373   9.567  1.2419 -0.3261  0.3492
  721MOL0     H97322   4.500  10.225   9.531 -1.5999 -1.8673  0.8513
  721MOL0     H97323   4.332  10.052   9.519 -0.8631  0.2773 -0.7605
  721MOL0     H97324   4.245  10.194   9.605 -1.2536 -0.3232 -0.9748
  721MOL0     H97325   4.167   9.894   9.595 -4.3772 -1.8415 -0.2313
  721MOL0     H97326   4.086  10.018   9.508  2.0362 -2.4421 -0.5078
  721MOL0     H97327   4.000  10.125   9.689 -0.0222  0.2997  3.7207
  721MOL0     H97328   4.110  10.025   9.805  0.0621 -1.7204  0.1122
  721MOL0     H97329   3.873   9.932   9.639  0.2571  1.3742  0.5786
  721MOL0     H97330   3.985   9.816   9.717  2.2866  0.6132  1.1723
  721MOL0     H97331   3.788   9.984  10.056 -1.2677  1.6869  0.1682
  721MOL0     H97332   4.474  10.130   9.949 -1.5098  0.6456 -0.0611
  721MOL0     H97333   4.656  10.399  10.065 -0.3112  0.6405 -0.2911
  721MOL0     H97334   4.631  10.219  10.090 -0.5161 -1.2196 -1.8826
  721MOL0     H97335   4.778  10.270  10.040 -0.3085 -1.0275 -0.7392
  722MOL0     O97336   4.541   4.031   3.854 -0.6187  0.1775 -0.2578
  722MOL0     C97337   4.552   4.131   3.788 -0.8704  0.0219 -0.0426
  722MOL0     O97338   4.460   4.203   3.724 -0.0017 -0.5084  0.8396
  722MOL0     C97339   4.327   4.165   3.714 -1.3538 -0.1387 -0.2974
  722MOL0     C97340   4.265   4.177   3.592  1.6525  0.5285 -0.7230
  722MOL0     C97341   4.128   4.153   3.578 -1.0185  0.7087  1.4832
  722MOL0     C97342   4.054   4.110   3.685 -0.0925  0.9733  0.2351
  722MOL0     O97343   3.919   4.089   3.671  0.2297 -0.3121 -0.9497
  722MOL0     C97344   3.844   3.998   3.764 -0.4956  0.3012  0.1503
  722MOL0     C97345   3.691   3.992   3.713  0.1352 -0.2531 -1.8810
  722MOL0     C97346   3.687   3.946   3.565  0.7293 -0.2778 -0.1547
  722MOL0     C97347   3.540   3.937   3.527  0.4101  0.9895  0.9864
  722MOL0     C97348   3.515   3.921   3.377 -0.3830  0.5475  0.4348
  722MOL0     C97349   3.534   3.781   3.314  0.6726  0.0363  0.0013
  722MOL0     C97350   3.470   3.783   3.176 -0.7908  0.4279 -0.2345
  722MOL0     C97351   3.510   3.650   3.104 -0.3404  0.0249  0.7727
  722MOL0     N97352   3.647   3.660   3.046  0.2763  0.2619 -0.3388
  722MOL0     C97353   3.689   3.748   2.943 -0.2906 -0.5760 -0.4746
  722MOL0     C97354   3.815   3.711   2.912 -0.3995  0.6305 -0.4445
  722MOL0     C97355   3.909   3.798   2.826  0.0707  0.1574 -0.5863
  722MOL0     C97356   4.062   3.769   2.840  0.0663 -0.2125  0.2215
  722MOL0     C97357   4.144   3.860   2.751 -0.3859 -1.1131  0.8681
  722MOL0     C97358   4.291   3.881   2.796 -0.4142 -0.0357  0.0589
  722MOL0     O97359   4.301   3.982   2.901  0.0785  0.9391  0.5117
  722MOL0     C97360   4.415   4.000   2.962 -0.5812  0.2369  0.4176
  722MOL0     C97361   4.422   4.100   3.061  0.4595 -0.3397 -0.0361
  722MOL0     C97362   4.537   4.129   3.134  1.1483  0.0862  0.5889
  722MOL0     C97363   4.656   4.068   3.098  0.0110 -0.2051 -0.2092
  722MOL0     C97364   4.784   4.120   3.160  0.6471  0.3191  0.7663
  722MOL0     O97365   4.902   4.071   3.099  0.0869 -0.0689  0.4439
  722MOL0     C97366   5.035   4.089   3.134  0.4388 -0.9724  0.7165
  722MOL0     C97367   5.124   4.061   3.031  0.1208  0.1655  0.4866
  722MOL0     C97368   5.258   4.082   3.033 -0.0522  0.1294 -0.1364
  722MOL0     C97369   5.311   4.139   3.158 -0.9507 -0.1806  1.0756
  722MOL0     O97370   5.448   4.169   3.162  0.7686 -0.5997 -0.1968
  722MOL0     C97371   5.496   4.233   3.273 -0.5776  0.0295  0.0580
  722MOL0     C97372   5.633   4.287   3.236 -0.0055  0.1557  0.3432
  722MOL0     C97373   5.689   4.377   3.354 -0.0041 -0.3741  0.0209
  722MOL0     C97374   5.821   4.435   3.316  1.2892  0.5402  0.3831
  722MOL0     C97375   5.906   4.480   3.437  0.3503 -0.3089 -0.4811
  722MOL0     C97376   6.022   4.574   3.390  0.2541 -0.1521 -0.2349
  722MOL0     C97377   6.141   4.554   3.482 -0.3746 -0.5785  0.4045
  722MOL0     C97378   6.270   4.623   3.442 -0.7140 -0.0073 -0.3685
  722MOL0    Cl97379   6.254   4.796   3.482  0.0347 -0.3103 -0.0215
  722MOL0     C97380   5.221   4.165   3.265  0.3307  0.3010  0.4671
  722MOL0     C97381   5.085   4.138   3.247  0.3241 -0.0878  0.2579
  722MOL0     O97382   4.778   4.195   3.252 -0.3017 -0.1553  0.5541
  722MOL0     C97383   4.655   3.965   2.992 -0.0628 -0.1813 -0.4910
  722MOL0     C97384   4.537   3.936   2.929  0.3756 -0.0911 -0.6235
  722MOL0     N97385   3.850   3.601   2.989  0.1848  0.3794 -0.0691
  722MOL0     N97386   3.757   3.581   3.075  0.8818  0.0688  0.4847
  722MOL0     C97387   4.116   4.106   3.809 -0.0378 -0.2757 -0.8173
  722MOL0     C97388   4.255   4.129   3.822 -0.3464 -0.2823  0.2353
  722MOL0     C97389   4.700   4.192   3.782  0.5751  0.9823  0.4759
  722MOL0     C97390   4.712   4.320   3.731 -0.1481  0.3638 -0.5226
  722MOL0     C97391   4.826   4.398   3.729  0.4566  0.4350  0.2891
  722MOL0     C97392   4.941   4.341   3.786 -0.3129  0.5955  0.1220
  722MOL0     O97393   5.045   4.429   3.803 -0.1820  0.4300  0.9325
  722MOL0     C97394   5.161   4.390   3.875 -0.1022 -0.5672  0.1718
  722MOL0     C97395   5.274   4.316   3.792  0.5019 -0.0474 -0.6884
  722MOL0     C97396   5.400   4.267   3.864 -0.5230  0.4049 -0.3596
  722MOL0     C97397   5.370   4.159   3.974 -1.1101  0.5471  0.1741
  722MOL0     C97398   5.330   4.028   3.922  0.2039  0.4912  0.5364
  722MOL0     C97399   5.290   3.915   3.908  0.0035 -0.5304  0.0849
  722MOL0     C97400   4.939   4.212   3.830  0.1073 -0.0034 -0.8843
  722MOL0     C97401   4.822   4.133   3.834 -0.2550  0.4176 -0.5570
  722MOL0     C97402   4.842   3.986   3.876  0.0642 -1.3235 -0.5054
  722MOL0     H97403   4.307   4.230   3.507 -1.7423 -1.7372 -4.1158
  722MOL0     H97404   4.073   4.165   3.485  0.7925  0.4136  0.3130
  722MOL0     H97405   3.882   3.896   3.758 -1.1377 -0.2160  3.1993
  722MOL0     H97406   3.853   4.036   3.866 -0.6452 -2.4495  1.2738
  722MOL0     H97407   3.642   4.088   3.729 -0.4601 -0.9062  0.7472
  722MOL0     H97408   3.636   3.916   3.769  0.5659  0.7533 -0.0048
  722MOL0     H97409   3.736   3.848   3.559 -0.3459 -0.7815 -1.0047
  722MOL0     H97410   3.742   4.015   3.500 -0.6345 -0.2948 -1.3696
  722MOL0     H97411   3.508   3.851   3.586  4.1385  0.0340  1.8970
  722MOL0     H97412   3.489   4.029   3.557  0.1589  1.4780 -0.7878
  722MOL0     H97413   3.407   3.939   3.366 -0.0913  0.7352 -3.5611
  722MOL0     H97414   3.566   3.995   3.315 -1.5427  0.1208 -1.0854
  722MOL0     H97415   3.643   3.765   3.319  1.1169  2.4878 -0.7033
  722MOL0     H97416   3.498   3.696   3.373  1.9112 -0.3686  0.2110
  722MOL0     H97417   3.505   3.874   3.126  2.1047  0.4054  1.5125
  722MOL0     H97418   3.360   3.784   3.179 -0.7841 -0.1690  0.2305
  722MOL0     H97419   3.503   3.562   3.167  0.4720 -1.3815 -1.0209
  722MOL0     H97420   3.440   3.633   3.021  2.6423 -0.1644 -1.8753
  722MOL0     H97421   3.635   3.839   2.917  0.6780  0.6956  1.7144
  722MOL0     H97422   3.872   3.803   2.723 -0.1949 -0.5124 -0.5289
  722MOL0     H97423   3.895   3.902   2.858  0.0322 -0.4349  1.4730
  722MOL0     H97424   4.090   3.776   2.945 -0.7016  1.3010  0.3485
  722MOL0     H97425   4.081   3.666   2.810 -2.2202 -0.9533  1.1399
  722MOL0     H97426   4.110   3.960   2.726  3.7372  0.5549  1.0986
  722MOL0     H97427   4.146   3.805   2.656  1.4284 -1.5679  1.1268
  722MOL0     H97428   4.346   3.916   2.709  1.1087 -1.5929  0.3476
  722MOL0     H97429   4.346   3.793   2.830  1.2560  0.4344 -1.2813
  722MOL0     H97430   4.335   4.162   3.076 -0.1378 -1.5019  1.5555
  722MOL0     H97431   4.532   4.208   3.208 -2.7520 -0.4990  1.1503
  722MOL0     H97432   5.084   4.019   2.939 -0.5883  0.0566  0.8409
  722MOL0     H97433   5.326   4.064   2.951  0.2221 -4.1433  0.8001
  722MOL0     H97434   5.431   4.318   3.298 -1.5738 -0.2245 -1.5100
  722MOL0     H97435   5.488   4.172   3.363 -1.6568 -2.3291 -1.5599
  722MOL0     H97436   5.701   4.201   3.236 -0.3708 -0.1675 -1.2871
  722MOL0     H97437   5.636   4.344   3.143 -0.5588  3.0596  1.9865
  722MOL0     H97438   5.631   4.468   3.371  0.4308 -0.1701  0.4411
  722MOL0     H97439   5.704   4.322   3.447  0.2996  0.7304  0.6468
  722MOL0     H97440   5.789   4.517   3.250 -5.8535  1.0356  3.5868
  722MOL0     H97441   5.883   4.372   3.251  0.6396  2.7103 -2.5545
  722MOL0     H97442   5.947   4.398   3.496  1.2834  0.9645  0.6957
  722MOL0     H97443   5.833   4.538   3.495 -1.3212 -2.1401 -0.6444
  722MOL0     H97444   6.063   4.563   3.289  0.7151  3.6196 -0.5939
  722MOL0     H97445   5.979   4.674   3.395  2.2382  0.9838 -3.0961
  722MOL0     H97446   6.162   4.447   3.496 -2.0486 -0.7708  1.8591
  722MOL0     H97447   6.113   4.589   3.582  0.4561  0.2977  0.3479
  722MOL0     H97448   6.356   4.584   3.497  0.2945 -1.4811 -2.8102
  722MOL0     H97449   6.286   4.619   3.334 -0.8938  1.0299 -0.4499
  722MOL0     H97450   5.242   4.203   3.365 -1.1444  1.0411  0.5287
  722MOL0     H97451   5.022   4.167   3.331 -1.4249  2.7813 -1.8591
  722MOL0     H97452   4.742   3.911   2.956 -0.1937 -2.6886  2.5843
  722MOL0     H97453   4.538   3.852   2.860 -0.1304 -0.8824  0.3028
  722MOL0     H97454   4.050   4.087   3.893 -0.8668 -0.4380 -1.4915
  722MOL0     H97455   4.294   4.113   3.922 -0.2389 -0.7773  0.1192
  722MOL0     H97456   4.621   4.368   3.695 -0.7244 -2.3068 -3.0031
  722MOL0     H97457   4.841   4.499   3.693 -0.2383 -0.3991 -2.5944
  722MOL0     H97458   5.135   4.322   3.957  0.0684  0.8641  1.4522
  722MOL0     H97459   5.213   4.476   3.917  1.7102 -1.6260  0.1761
  722MOL0     H97460   5.313   4.386   3.717  0.6574  0.6380  0.0126
  722MOL0     H97461   5.231   4.233   3.736  1.3324 -1.1715  0.3085
  722MOL0     H97462   5.455   4.347   3.915 -1.8455 -0.1608  2.0959
  722MOL0     H97463   5.473   4.220   3.797  0.1165  1.7675 -0.6515
  722MOL0     H97464   5.454   4.148   4.043  2.2864  0.4826 -3.6077
  722MOL0     H97465   5.291   4.193   4.041 -1.7962 -0.2565 -0.2072
  722MOL0     H97466   5.266   3.812   3.890 -1.2529 -0.0225 -1.3967
  722MOL0     H97467   5.034   4.167   3.857  1.0939  2.1798 -0.5463
  722MOL0     H97468   4.795   3.908   3.816 -0.0608 -1.1349 -0.6556
  722MOL0     H97469   4.949   3.981   3.900  0.0747  2.8608  1.1813
  722MOL0     H97470   4.790   3.976   3.972 -0.5566 -0.5512 -0.7534
  723MOL0     O97471   8.631   0.412   3.898  0.5865  0.8645 -0.2428
  723MOL0     C97472   8.643   0.317   3.826  0.2307  0.2633 -0.2725
  723MOL0     O97473   8.740   0.223   3.842  0.1204 -0.5118  0.5409
  723MOL0     C97474   8.848   0.255   3.918  0.0724  0.1261  0.7693
  723MOL0     C97475   8.928   0.366   3.886 -0.2971 -0.7922 -0.1242
  723MOL0     C97476   9.049   0.383   3.958  0.3708 -0.6372 -0.1677
  723MOL0     C97477   9.095   0.293   4.053 -0.2000  0.4160 -0.4868
  723MOL0     O97478   9.211   0.300   4.131  0.5650 -0.3883 -1.0114
  723MOL0     C97479   9.293   0.418   4.127 -0.6004  0.6415  0.4300
  723MOL0     C97480   9.408   0.397   4.231  0.6221 -0.5382  0.1802
  723MOL0     C97481   9.513   0.298   4.192 -0.1195  0.0802  0.0850
  723MOL0     C97482   9.613   0.276   4.307 -0.3671  0.4985  1.2295
  723MOL0     C97483   9.708   0.163   4.264  0.5846 -0.1102  0.1769
  723MOL0     C97484   9.808   0.127   4.369 -0.4836  0.5003  0.3654
  723MOL0     C97485   9.903  -0.001   4.334 -0.3879 -1.0032  0.1615
  723MOL0     C97486   9.987   0.003   4.207 -0.3483  0.2717  0.7334
  723MOL0     N97487  10.110  -0.074   4.220 -0.4713 -0.3864  0.0323
  723MOL0     C97488  10.115  -0.199   4.276 -0.7967  0.2009 -0.6805
  723MOL0     C97489  10.252  -0.229   4.267  0.8676 -0.5247 -0.3085
  723MOL0     C97490  10.299  -0.349   4.332 -0.3118  0.5393  0.3616
  723MOL0     C97491  10.448  -0.334   4.372 -0.4349 -0.0909  1.1202
  723MOL0     C97492  10.502  -0.471   4.431  0.2279 -0.7119  0.0034
  723MOL0     C97493  10.654  -0.452   4.440 -0.0034 -0.6244 -0.1603
  723MOL0     O97494  10.721  -0.567   4.472  0.6199  0.7734  0.1026
  723MOL0     C97495  10.850  -0.563   4.517  0.2811  0.6668 -1.0248
  723MOL0     C97496  10.883  -0.659   4.615  0.1038 -0.2796  0.0341
  723MOL0     C97497  11.011  -0.665   4.677 -0.0581  0.1527 -0.7590
  723MOL0     C97498  11.107  -0.564   4.647 -0.2542  0.4772 -1.4607
  723MOL0     C97499  11.238  -0.573   4.713 -0.2642  0.0256  0.4209
  723MOL0     O97500  11.285  -0.692   4.766  0.0744 -0.5426  0.2365
  723MOL0     C97501  11.419  -0.705   4.796  0.1002 -0.1110  0.5821
  723MOL0     C97502  11.518  -0.687   4.702 -0.4259  0.2168  0.8374
  723MOL0     C97503  11.651  -0.719   4.725  0.4865  0.1796 -0.2917
  723MOL0     C97504  11.679  -0.774   4.847 -0.3155  0.4752 -0.0774
  723MOL0     O97505  11.814  -0.799   4.858  0.4591  0.2520 -0.1686
  723MOL0     C97506  11.878  -0.839   4.981  0.4578  0.3307 -0.9966
  723MOL0     C97507  12.036  -0.831   4.973 -0.8717 -0.6142 -0.7213
  723MOL0     C97508  12.095  -0.935   4.875 -1.3920 -0.3206 -0.7791
  723MOL0     C97509  12.253  -0.946   4.887  0.6919 -0.6504 -0.0904
  723MOL0     C97510  12.296  -1.059   4.808 -1.3740  0.0615  0.3104
  723MOL0     C97511  12.451  -1.053   4.781 -1.2288 -0.5063 -0.0602
  723MOL0     C97512  12.544  -1.026   4.905  0.5257 -0.8181 -0.7567
  723MOL0     C97513  12.498  -1.126   5.013 -0.5315  0.2981 -0.0721
  723MOL0    Cl97514  12.615  -1.135   5.158  0.2677 -0.3241  0.0817
  723MOL0     C97515  11.585  -0.806   4.944  0.8749 -0.5598  1.2931
  723MOL0     C97516  11.445  -0.772   4.913  0.0491  0.4553 -0.3985
  723MOL0     O97517  11.311  -0.471   4.694 -0.0383  0.4459  0.4043
  723MOL0     C97518  11.068  -0.463   4.561  0.7133 -0.3549 -1.2302
  723MOL0     C97519  10.942  -0.463   4.491 -0.0194 -0.1678 -0.0388
  723MOL0     N97520  10.324  -0.120   4.204  0.0132 -0.2563 -0.0604
  723MOL0     N97521  10.234  -0.036   4.173 -0.2574 -0.8553 -0.7080
  723MOL0     C97522   9.016   0.180   4.076 -0.2107  0.0071 -0.0322
  723MOL0     C97523   8.889   0.167   4.015 -0.3191 -0.2928  0.2836
  723MOL0     C97524   8.527   0.302   3.732  0.1542 -0.3378 -0.1875
  723MOL0     C97525   8.423   0.395   3.739  0.4299 -0.3724  0.8337
  723MOL0     C97526   8.300   0.375   3.667  0.5870 -0.0258 -0.0770
  723MOL0     C97527   8.290   0.266   3.587  0.3091  0.4882  0.3293
  723MOL0     O97528   8.160   0.253   3.535  0.1503  0.1731 -0.3660
  723MOL0     C97529   8.113   0.119   3.508  0.2295 -0.0503  0.1678
  723MOL0     C97530   7.968   0.120   3.545 -0.5684  0.4234  0.3440
  723MOL0     C97531   7.902  -0.004   3.501 -0.7193 -0.1785  0.7031
  723MOL0     C97532   7.753   0.015   3.495  0.2597  0.4377  0.3997
  723MOL0     C97533   7.681   0.053   3.615  0.6718  0.6538 -0.1131
  723MOL0     C97534   7.631   0.103   3.714 -0.9052 -0.0846 -0.5266
  723MOL0     C97535   8.405   0.188   3.564 -0.5430 -0.1484  0.4913
  723MOL0     C97536   8.518   0.203   3.633  0.4126  0.4141 -0.2157
  723MOL0     C97537   8.636   0.118   3.578  0.3913 -0.1818  0.1523
  723MOL0     H97538   8.901   0.449   3.822  0.7361  0.2364  0.7574
  723MOL0     H97539   9.102   0.477   3.947 -1.0945  0.1795 -0.5205
  723MOL0     H97540   9.334   0.447   4.030  1.2535 -0.4167  0.8320
  723MOL0     H97541   9.234   0.503   4.162 -0.7453  0.2518  1.1547
  723MOL0     H97542   9.362   0.362   4.324  4.7660 -0.2904  2.5335
  723MOL0     H97543   9.466   0.488   4.248 -0.4164  0.2830 -0.5431
  723MOL0     H97544   9.587   0.325   4.116  2.1267  0.1663  2.1732
  723MOL0     H97545   9.470   0.204   4.154  0.0821  0.8465 -2.2256
  723MOL0     H97546   9.660   0.371   4.337 -0.7895  1.4612 -0.9470
  723MOL0     H97547   9.554   0.245   4.393 -0.8630  0.6797  0.9569
  723MOL0     H97548   9.636   0.081   4.248  0.6612  0.0779 -1.2087
  723MOL0     H97549   9.771   0.186   4.178 -0.3813 -0.6725 -0.7022
  723MOL0     H97550   9.866   0.219   4.381 -2.1412  1.9254 -1.8133
  723MOL0     H97551   9.753   0.114   4.462 -2.5120  0.6674 -0.7487
  723MOL0     H97552   9.839  -0.090   4.332 -1.5000 -0.2445 -2.3118
  723MOL0     H97553   9.976  -0.006   4.415  1.4532 -1.6671 -1.4504
  723MOL0     H97554   9.935  -0.028   4.116  2.2930  1.6790 -1.3909
  723MOL0     H97555  10.012   0.105   4.178 -0.9641 -0.1747 -1.5867
  723MOL0     H97556  10.030  -0.257   4.313 -0.7794 -0.7377 -2.0188
  723MOL0     H97557  10.236  -0.362   4.421  1.9535  1.4949  2.2050
  723MOL0     H97558  10.285  -0.435   4.266  0.9752  1.2592 -0.8981
  723MOL0     H97559  10.512  -0.314   4.286  1.0406 -0.1580  2.1578
  723MOL0     H97560  10.452  -0.248   4.439  1.3348  1.4504 -0.8614
  723MOL0     H97561  10.482  -0.546   4.354  0.5551 -0.1554 -0.6399
  723MOL0     H97562  10.455  -0.499   4.525  0.3379 -1.5326 -0.1781
  723MOL0     H97563  10.682  -0.375   4.513 -0.5505 -0.7879  0.2324
  723MOL0     H97564  10.695  -0.417   4.345  3.1704  1.8589  1.9277
  723MOL0     H97565  10.803  -0.730   4.635 -0.5477  0.6330  0.7698
  723MOL0     H97566  11.024  -0.733   4.761 -3.2504  0.0477 -0.2056
  723MOL0     H97567  11.489  -0.658   4.601  1.8740  1.7160  0.5314
  723MOL0     H97568  11.725  -0.711   4.646  1.4882  2.4158  0.7784
  723MOL0     H97569  11.844  -0.781   5.066  0.0169  0.7814 -1.4727
  723MOL0     H97570  11.852  -0.943   5.000  3.0275 -0.2837 -0.4498
  723MOL0     H97571  12.062  -0.726   4.961  0.4722 -0.4900  2.2947
  723MOL0     H97572  12.074  -0.857   5.072  1.2921  0.2764 -1.2579
  723MOL0     H97573  12.042  -1.028   4.900 -0.4788 -0.3776  1.1081
  723MOL0     H97574  12.060  -0.914   4.773  0.4033 -2.2165 -1.8653
  723MOL0     H97575  12.273  -0.967   4.993 -2.7081  2.0082  1.2760
  723MOL0     H97576  12.308  -0.853   4.868 -0.5187  0.6802  2.3763
  723MOL0     H97577  12.239  -1.078   4.717  0.3689  0.8915 -0.9999
  723MOL0     H97578  12.269  -1.143   4.873 -0.1721 -0.7929 -0.2703
  723MOL0     H97579  12.475  -1.145   4.726  0.5879  0.4808 -1.0093
  723MOL0     H97580  12.468  -0.970   4.712  2.5914 -1.7217 -0.8216
  723MOL0     H97581  12.535  -0.925   4.948 -0.1823 -1.8934  1.8430
  723MOL0     H97582  12.646  -1.059   4.885  1.0106  0.0515  0.1742
  723MOL0     H97583  12.399  -1.118   5.060 -0.0076 -2.1493  1.6643
  723MOL0     H97584  12.499  -1.226   4.969  2.3162 -1.0024  2.6189
  723MOL0     H97585  11.623  -0.837   5.041  2.3814  0.3217  1.0204
  723MOL0     H97586  11.363  -0.810   4.972 -0.2303 -0.0890 -1.1199
  723MOL0     H97587  11.125  -0.372   4.552  0.5772  0.0715  1.4276
  723MOL0     H97588  10.912  -0.385   4.423 -0.9565 -1.4261 -1.1229
  723MOL0     H97589   9.042   0.102   4.147  2.5956  0.3237 -0.5958
  723MOL0     H97590   8.835   0.076   4.039  0.8607 -1.2307 -0.4951
  723MOL0     H97591   8.426   0.486   3.799  1.5724 -0.1945  0.5342
  723MOL0     H97592   8.210   0.435   3.678  2.1258  2.4260 -0.1667
  723MOL0     H97593   8.165   0.046   3.571 -0.6004 -0.2341  0.6592
  723MOL0     H97594   8.127   0.096   3.402 -3.1481  0.5121 -0.5397
  723MOL0     H97595   7.929   0.201   3.482  1.1080  0.0610 -1.2385
  723MOL0     H97596   7.956   0.135   3.652 -1.6289  3.2050 -0.0759
  723MOL0     H97597   7.931  -0.082   3.572  0.2835  1.2819  1.9897
  723MOL0     H97598   7.939  -0.036   3.403  0.1042  1.6709  0.3533
  723MOL0     H97599   7.725   0.084   3.415 -0.7732  1.5072  1.6434
  723MOL0     H97600   7.710  -0.082   3.468 -0.2151  0.4535  1.0752
  723MOL0     H97601   7.587   0.171   3.785  1.4893 -1.0848  2.1148
  723MOL0     H97602   8.400   0.107   3.492  0.7655  0.5714 -0.4462
  723MOL0     H97603   8.663   0.042   3.651  2.2495 -0.1863 -0.4847
  723MOL0     H97604   8.623   0.076   3.478 -3.6339  1.1610 -0.0839
  723MOL0     H97605   8.720   0.187   3.568  1.2981 -1.5258 -2.3770
  724MOL0     O97606   5.839  10.179   5.877 -0.7948  0.1480 -0.1803
  724MOL0     C97607   5.922  10.118   5.808 -0.4573 -0.9684  0.7310
  724MOL0     O97608   5.902  10.071   5.683 -0.5280 -0.4116  0.2355
  724MOL0     C97609   5.776  10.083   5.633 -0.5700  0.0953  0.0830
  724MOL0     C97610   5.719  10.208   5.611 -0.1000  0.5392  0.0792
  724MOL0     C97611   5.588  10.206   5.552  0.2448 -0.6169  0.8213
  724MOL0     C97612   5.515  10.088   5.531  0.2090 -0.4055  0.1741
  724MOL0     O97613   5.379  10.104   5.496 -0.2825  0.3791 -0.8117
  724MOL0     C97614   5.315   9.993   5.438  0.5436 -0.2901  0.3501
  724MOL0     C97615   5.214   9.918   5.530  0.3566  0.3493  0.4043
  724MOL0     C97616   5.136   9.810   5.463  0.0305  0.1683 -0.7831
  724MOL0     C97617   5.000   9.868   5.427  0.9055  0.3152  0.9810
  724MOL0     C97618   4.912   9.749   5.377 -0.1759 -0.6174 -0.6397
  724MOL0     C97619   4.971   9.663   5.268 -0.0110  0.1591 -0.4587
  724MOL0     C97620   4.876   9.563   5.216 -0.2873  0.0920 -0.4608
  724MOL0     C97621   4.867   9.430   5.295 -0.3081 -0.0095 -0.3209
  724MOL0     N97622   5.006   9.384   5.323 -0.2993  0.5465 -0.9025
  724MOL0     C97623   5.090   9.339   5.222  0.0443  0.0221  0.0877
  724MOL0     C97624   5.195   9.280   5.293  0.0210 -0.8316 -0.8672
  724MOL0     C97625   5.318   9.225   5.234 -0.9047  0.7284 -1.0116
  724MOL0     C97626   5.435   9.244   5.325 -0.1971  0.0818  0.1851
  724MOL0     C97627   5.571   9.220   5.249  0.1632 -0.8539  0.7096
  724MOL0     C97628   5.692   9.199   5.346 -0.2361 -0.6086 -0.2232
  724MOL0     O97629   5.807   9.182   5.263 -0.3655 -0.6762 -0.0460
  724MOL0     C97630   5.933   9.169   5.323 -0.3423 -0.7939 -0.4402
  724MOL0     C97631   5.991   9.046   5.319  0.3732  0.5009  0.6718
  724MOL0     C97632   6.125   9.028   5.362 -0.0444 -0.1595 -0.8008
  724MOL0     C97633   6.206   9.133   5.417 -0.3970  0.6284 -0.4734
  724MOL0     C97634   6.339   9.117   5.456 -0.4443 -0.5641 -1.1955
  724MOL0     O97635   6.395   9.202   5.548 -0.2507 -0.1430  0.2970
  724MOL0     C97636   6.532   9.208   5.548  0.1882 -0.5254 -0.1881
  724MOL0     C97637   6.594   9.321   5.492  0.9230  0.0388 -0.0636
  724MOL0     C97638   6.730   9.334   5.492  0.1729 -0.4645  0.3935
  724MOL0     C97639   6.817   9.227   5.533  0.5055  0.4526  0.5800
  724MOL0     O97640   6.953   9.226   5.542 -0.5279  0.3630  0.2773
  724MOL0     C97641   7.017   9.337   5.477 -0.8539 -0.2536 -1.8806
  724MOL0     C97642   7.171   9.314   5.446 -0.9454  0.9704  0.1022
  724MOL0     C97643   7.203   9.213   5.334  0.5660 -0.1335 -0.3997
  724MOL0     C97644   7.328   9.237   5.263  0.1732  0.1151  0.3809
  724MOL0     C97645   7.344   9.144   5.141  0.1015 -0.0325  0.3849
  724MOL0     C97646   7.232   9.163   5.031  0.6369  0.0509 -0.0765
  724MOL0     C97647   7.282   9.116   4.898  0.0467  0.0743  0.9331
  724MOL0     C97648   7.185   9.082   4.796  0.5235 -0.0730  0.2052
  724MOL0    Cl97649   7.046   9.203   4.794 -0.2149 -0.2642  0.0454
  724MOL0     C97650   6.754   9.115   5.577  0.2274 -0.2851  0.3541
  724MOL0     C97651   6.615   9.108   5.594 -0.1992 -0.0240 -0.6967
  724MOL0     O97652   6.406   9.030   5.397  0.7876 -0.9602 -0.2648
  724MOL0     C97653   6.135   9.253   5.437  0.0437 -0.8912  0.1640
  724MOL0     C97654   6.002   9.275   5.390  0.3073 -0.1001 -0.2586
  724MOL0     N97655   5.160   9.266   5.425  0.3234 -0.3482 -0.2842
  724MOL0     N97656   5.055   9.344   5.450 -0.4242 -0.7172  0.6575
  724MOL0     C97657   5.582   9.965   5.554 -0.0345 -0.5832  1.4221
  724MOL0     C97658   5.709   9.965   5.604  0.1477 -0.8754  0.9762
  724MOL0     C97659   6.058  10.087   5.867  0.7327  0.5845  0.1898
  724MOL0     C97660   6.132   9.978   5.808 -0.4253  1.1741 -0.3849
  724MOL0     C97661   6.265   9.938   5.844 -0.1983  0.0316  0.1400
  724MOL0     C97662   6.319   9.998   5.957  0.3636  0.1812  0.2022
  724MOL0     O97663   6.440   9.974   6.013  0.0519 -0.7994 -0.7063
  724MOL0     C97664   6.522   9.869   5.968  0.1953  0.2322  0.6421
  724MOL0     C97665   6.656   9.923   5.931  0.4382 -0.6709 -0.0925
  724MOL0     C97666   6.725   9.996   6.054 -0.4410  0.5072  0.2009
  724MOL0     C97667   6.873   9.995   6.077 -0.9878 -0.5317  0.9598
  724MOL0     C97668   6.947  10.071   5.965  0.5591  0.4643 -0.6353
  724MOL0     C97669   7.013  10.140   5.897  0.3335  0.7370  0.7884
  724MOL0     C97670   6.244  10.104   6.011 -0.3504 -0.7244 -0.4511
  724MOL0     C97671   6.117  10.147   5.975  0.0956 -0.8143 -0.0846
  724MOL0     C97672   6.054  10.256   6.062  0.1650 -0.0298  0.1966
  724MOL0     H97673   5.773  10.301   5.625  1.4381 -0.1438 -1.0960
  724MOL0     H97674   5.542  10.304   5.552  1.0042 -0.1934  3.1976
  724MOL0     H97675   5.251  10.039   5.363  0.0498 -0.1609  0.8448
  724MOL0     H97676   5.382   9.926   5.383  1.4416  2.0101 -1.5001
  724MOL0     H97677   5.148   9.990   5.577 -0.9339  1.5557 -2.9271
  724MOL0     H97678   5.282   9.869   5.600 -0.8980 -0.9874  0.7308
  724MOL0     H97679   5.149   9.725   5.530  2.1945 -0.0235 -1.3590
  724MOL0     H97680   5.197   9.787   5.375 -0.1715 -0.0967 -0.8541
  724MOL0     H97681   4.951   9.931   5.501  2.4360  2.9839 -0.1333
  724MOL0     H97682   5.013   9.931   5.338 -0.0675 -3.1849 -1.8658
  724MOL0     H97683   4.886   9.680   5.458  2.7812 -1.3061 -0.1677
  724MOL0     H97684   4.822   9.805   5.349 -0.3807  0.8961  2.6523
  724MOL0     H97685   5.000   9.732   5.189 -1.8874  1.2900 -0.2438
  724MOL0     H97686   5.061   9.618   5.310 -1.7654 -0.6193  2.8778
  724MOL0     H97687   4.912   9.547   5.113  2.1875  2.4679 -0.1025
  724MOL0     H97688   4.771   9.590   5.203 -0.2589 -0.0237 -0.9633
  724MOL0     H97689   4.822   9.448   5.393  1.9050 -1.4406  1.0283
  724MOL0     H97690   4.818   9.349   5.240  2.5949 -0.8162 -1.9368
  724MOL0     H97691   5.085   9.352   5.114 -1.4251 -0.8018  0.0295
  724MOL0     H97692   5.302   9.117   5.221 -2.3147  0.9249 -0.9677
  724MOL0     H97693   5.337   9.276   5.139  0.5739  0.8034 -0.7112
  724MOL0     H97694   5.439   9.347   5.363 -1.5975  0.6498 -1.1253
  724MOL0     H97695   5.425   9.173   5.407  2.1627 -1.6663 -0.9051
  724MOL0     H97696   5.590   9.307   5.184  1.5341 -0.9236  0.9891
  724MOL0     H97697   5.560   9.132   5.185 -0.7654  0.2916 -0.7777
  724MOL0     H97698   5.680   9.112   5.411  1.2908 -2.7744 -2.6619
  724MOL0     H97699   5.695   9.294   5.402 -1.0788  0.2234 -1.5352
  724MOL0     H97700   5.928   8.970   5.275 -0.0551  1.9843 -1.4828
  724MOL0     H97701   6.173   8.933   5.338 -2.2368 -1.0869 -1.7285
  724MOL0     H97702   6.525   9.404   5.478 -0.3847 -1.1187 -0.6763
  724MOL0     H97703   6.772   9.433   5.479 -1.4051  0.3478  1.1212
  724MOL0     H97704   6.974   9.350   5.377  0.2659  1.2663 -2.2032
  724MOL0     H97705   7.004   9.423   5.543  1.2456 -2.1055  1.1896
  724MOL0     H97706   7.216   9.411   5.425  1.2752 -0.1386 -0.5625
  724MOL0     H97707   7.209   9.273   5.540 -2.2645  0.6154  0.4986
  724MOL0     H97708   7.199   9.108   5.364  1.1081 -0.5163 -1.5921
  724MOL0     H97709   7.118   9.225   5.266  1.7499  1.4391 -1.6694
  724MOL0     H97710   7.413   9.217   5.329  0.9413  0.6708 -0.4341
  724MOL0     H97711   7.325   9.343   5.238 -1.6436 -0.4710 -2.2173
  724MOL0     H97712   7.337   9.041   5.176 -0.9497  0.8021  2.7879
  724MOL0     H97713   7.442   9.165   5.096  0.2066  1.1915  1.1488
  724MOL0     H97714   7.140   9.116   5.065  1.3630 -1.7536 -0.5057
  724MOL0     H97715   7.216   9.271   5.020 -1.2585 -0.2614 -0.8132
  724MOL0     H97716   7.343   9.025   4.903  0.8153  0.6456  3.1622
  724MOL0     H97717   7.355   9.183   4.853 -1.2089 -0.3797 -1.9329
  724MOL0     H97718   7.244   9.080   4.704  1.4917 -2.6628  0.7802
  724MOL0     H97719   7.148   8.981   4.817  1.2947 -0.2032  1.0082
  724MOL0     H97720   6.823   9.035   5.600  1.7369  0.3224 -1.7708
  724MOL0     H97721   6.566   9.015   5.623  1.4961 -0.7851 -0.1806
  724MOL0     H97722   6.183   9.342   5.477 -0.7243 -0.4824  0.2046
  724MOL0     H97723   5.949   9.365   5.417 -1.0621 -0.8238 -0.4505
  724MOL0     H97724   5.532   9.869   5.548  0.7952 -0.9147 -1.3299
  724MOL0     H97725   5.764   9.873   5.622 -0.2507 -1.6708 -1.5388
  724MOL0     H97726   6.093   9.923   5.723  0.9230 -0.6875  0.1187
  724MOL0     H97727   6.312   9.857   5.789  1.5341 -2.1560  4.4229
  724MOL0     H97728   6.475   9.805   5.892  0.2478  0.8118  0.1158
  724MOL0     H97729   6.556   9.801   6.046  1.1273 -3.1112 -2.3754
  724MOL0     H97730   6.645   9.987   5.843 -1.6561 -0.0411  0.5774
  724MOL0     H97731   6.712   9.836   5.895 -0.5961 -1.3731 -0.0506
  724MOL0     H97732   6.683   9.953   6.146  4.4690 -3.5452  0.9693
  724MOL0     H97733   6.691  10.100   6.059 -0.7380  0.3803  0.9057
  724MOL0     H97734   6.898  10.016   6.181  1.5626 -2.7480  0.9074
  724MOL0     H97735   6.912   9.896   6.052  0.7780  0.1227  0.9775
  724MOL0     H97736   7.064  10.211   5.835 -2.0192  1.7723 -0.0781
  724MOL0     H97737   6.299  10.157   6.088 -1.0609 -0.5926 -0.0181
  724MOL0     H97738   6.110  10.289   6.150 -0.6725 -1.8100  1.4532
  724MOL0     H97739   6.046  10.337   5.989  0.9397 -1.3961 -1.4827
  724MOL0     H97740   5.961  10.222   6.107  0.9354 -1.3684  0.8215
  725MOL0     O97741   5.573   1.517   6.567 -0.2466  0.2071  0.3039
  725MOL0     C97742   5.452   1.516   6.590  0.1688  0.1813  0.2837
  725MOL0     O97743   5.394   1.541   6.714 -0.0609 -0.6106  0.2308
  725MOL0     C97744   5.474   1.531   6.825 -0.8361 -0.1862  0.3465
  725MOL0     C97745   5.552   1.641   6.872  0.4653  1.7387 -0.5808
  725MOL0     C97746   5.641   1.617   6.985 -0.5439 -0.1218  0.2666
  725MOL0     C97747   5.643   1.498   7.057  0.1285  0.5248  0.5487
  725MOL0     O97748   5.712   1.475   7.173  0.6535  0.4086  0.2390
  725MOL0     C97749   5.807   1.568   7.221  0.1199  1.2864  0.9097
  725MOL0     C97750   5.860   1.534   7.360  0.0040  0.0001  0.1550
  725MOL0     C97751   5.741   1.516   7.463 -0.6780 -0.4112 -0.3327
  725MOL0     C97752   5.781   1.473   7.608  0.0287 -1.3705  0.3194
  725MOL0     C97753   5.651   1.498   7.692  0.5074 -0.1232  0.0415
  725MOL0     C97754   5.653   1.429   7.819 -0.3277 -0.0138  0.2331
  725MOL0     C97755   5.538   1.479   7.906 -1.2139  0.2270 -0.1437
  725MOL0     C97756   5.543   1.440   8.052  0.1684  0.9852 -0.0685
  725MOL0     N97757   5.617   1.520   8.148 -0.1449 -0.5578 -0.3747
  725MOL0     C97758   5.654   1.493   8.280  0.3703  0.7180 -0.1316
  725MOL0     C97759   5.721   1.594   8.335 -0.1223 -0.9104  0.1051
  725MOL0     C97760   5.779   1.586   8.476  0.0658 -0.5859  0.1801
  725MOL0     C97761   5.918   1.523   8.467  0.6345  0.0588  0.7859
  725MOL0     C97762   6.019   1.582   8.561  0.7120  0.7889  0.3585
  725MOL0     C97763   5.975   1.556   8.704 -0.5777  0.0705 -0.8884
  725MOL0     O97764   5.966   1.417   8.712  0.0516  1.0928  0.4752
  725MOL0     C97765   6.084   1.338   8.720  0.0900 -0.7323  0.9805
  725MOL0     C97766   6.075   1.196   8.690 -0.5723  0.0799 -0.6154
  725MOL0     C97767   6.196   1.120   8.713  0.0520  0.2741 -0.0043
  725MOL0     C97768   6.311   1.173   8.761 -0.1201  0.2855  0.0534
  725MOL0     C97769   6.430   1.089   8.776 -0.6313  0.5616 -0.2642
  725MOL0     O97770   6.415   0.970   8.842 -0.3561  0.3117  0.1158
  725MOL0     C97771   6.533   0.891   8.856 -0.7128 -0.9705 -0.4858
  725MOL0     C97772   6.614   0.854   8.747  0.0222  0.0407  0.3082
  725MOL0     C97773   6.718   0.773   8.757 -0.9300  0.1867  0.9567
  725MOL0     C97774   6.771   0.739   8.884  0.9347  0.8029 -0.3820
  725MOL0     O97775   6.879   0.655   8.897 -0.5201 -0.3139 -0.0867
  725MOL0     C97776   6.926   0.605   9.029 -0.2994 -0.8422 -0.0781
  725MOL0     C97777   7.058   0.528   9.014  0.6702  0.6233  0.3136
  725MOL0     C97778   7.047   0.389   8.941 -0.0181  0.6184 -0.0878
  725MOL0     C97779   7.172   0.307   8.979  0.1433 -0.9809 -0.0854
  725MOL0     C97780   7.160   0.166   8.935  0.1836 -0.2507  1.3009
  725MOL0     C97781   7.304   0.096   8.944  0.5166  0.9306 -0.5767
  725MOL0     C97782   7.277  -0.051   8.910  0.3030 -0.4019  0.3533
  725MOL0     C97783   7.216  -0.125   9.032  0.1142  0.3977  0.6227
  725MOL0    Cl97784   7.335  -0.164   9.163 -0.2903  0.4088  0.8098
  725MOL0     C97785   6.699   0.770   8.990  0.3535  0.6828 -0.1021
  725MOL0     C97786   6.582   0.845   8.978  0.7518  0.3825  0.0798
  725MOL0     O97787   6.532   1.139   8.732 -0.6136  0.5669  0.1843
  725MOL0     C97788   6.320   1.310   8.781 -0.6287 -0.1699 -0.1194
  725MOL0     C97789   6.206   1.395   8.768  1.1222 -0.8792  0.1269
  725MOL0     N97790   5.729   1.689   8.237  0.5628  0.2567 -0.5801
  725MOL0     N97791   5.668   1.644   8.130 -0.2331 -0.1485 -0.5454
  725MOL0     C97792   5.561   1.394   7.009 -0.1282 -0.7481  0.0713
  725MOL0     C97793   5.484   1.408   6.891 -0.2562 -0.7743  0.2874
  725MOL0     C97794   5.351   1.504   6.475 -0.3969  0.0412 -0.7114
  725MOL0     C97795   5.220   1.556   6.504 -0.1633 -0.0342 -0.9058
  725MOL0     C97796   5.124   1.548   6.407 -0.1465  0.0275  0.2789
  725MOL0     C97797   5.151   1.490   6.285 -0.2236 -0.2203  0.5907
  725MOL0     O97798   5.044   1.463   6.201  0.3011 -0.5127  0.0121
  725MOL0     C97799   4.904   1.512   6.208  0.0395 -0.5271  0.2347
  725MOL0     C97800   4.897   1.660   6.188 -0.6663 -0.4011 -0.9636
  725MOL0     C97801   4.766   1.706   6.117 -0.9488 -0.0243  0.1188
  725MOL0     C97802   4.770   1.848   6.084 -0.7489  0.6682  0.0423
  725MOL0     C97803   4.655   1.880   6.006 -0.1137  0.3811 -0.4348
  725MOL0     C97804   4.565   1.913   5.927 -0.0784 -0.6991 -1.0860
  725MOL0     C97805   5.272   1.435   6.255 -0.3378 -0.2168 -0.6616
  725MOL0     C97806   5.376   1.437   6.349 -0.1168 -0.4929 -0.6492
  725MOL0     C97807   5.511   1.385   6.303 -0.2586  1.0827  0.2651
  725MOL0     H97808   5.564   1.734   6.818  1.0509  2.9454  1.5133
  725MOL0     H97809   5.696   1.705   7.015  2.9909 -2.0259 -0.1142
  725MOL0     H97810   5.888   1.564   7.148 -1.4870 -3.6707 -0.9622
  725MOL0     H97811   5.764   1.668   7.229  1.6599  1.9180  1.7466
  725MOL0     H97812   5.922   1.618   7.396  0.5006 -0.1529 -0.3272
  725MOL0     H97813   5.917   1.441   7.370 -1.3905 -0.8045  0.9655
  725MOL0     H97814   5.674   1.438   7.426 -1.5496  0.4689 -0.6816
  725MOL0     H97815   5.703   1.618   7.478  0.8561 -0.0841  1.8209
  725MOL0     H97816   5.807   1.367   7.610 -1.9257 -2.0127  5.2448
  725MOL0     H97817   5.868   1.527   7.646 -1.3789 -1.5937  4.2533
  725MOL0     H97818   5.631   1.605   7.702 -2.2560 -0.2061 -2.9886
  725MOL0     H97819   5.568   1.460   7.632 -0.9312  1.0847  1.1974
  725MOL0     H97820   5.636   1.322   7.802  0.3968 -0.4753  2.1336
  725MOL0     H97821   5.748   1.440   7.872  0.1340 -1.1558 -0.3018
  725MOL0     H97822   5.444   1.434   7.872 -1.7036  1.8357 -1.0596
  725MOL0     H97823   5.529   1.588   7.893  0.3244  0.2324 -1.4166
  725MOL0     H97824   5.440   1.428   8.087  0.1589 -2.1087 -0.8817
  725MOL0     H97825   5.599   1.346   8.053  5.3469  3.6456 -1.8366
  725MOL0     H97826   5.629   1.409   8.344  1.4397 -0.7218 -1.5299
  725MOL0     H97827   5.799   1.681   8.526  0.4940 -1.0987  1.0034
  725MOL0     H97828   5.724   1.532   8.554  2.4602  0.0783  2.4801
  725MOL0     H97829   5.911   1.414   8.473  0.4407 -0.2741 -3.1808
  725MOL0     H97830   5.952   1.530   8.363 -2.9640 -1.3344 -0.6133
  725MOL0     H97831   6.030   1.690   8.546  2.9479  0.4278 -0.9955
  725MOL0     H97832   6.117   1.540   8.538 -0.6248 -0.9111 -2.7926
  725MOL0     H97833   5.874   1.590   8.731  0.0244 -0.2926  2.1099
  725MOL0     H97834   6.041   1.599   8.779 -0.1908 -0.6886 -0.7869
  725MOL0     H97835   5.991   1.142   8.649  0.1218 -1.1904 -0.4034
  725MOL0     H97836   6.187   1.014   8.689 -2.4039  0.5436 -0.4814
  725MOL0     H97837   6.568   0.864   8.649 -0.2384 -2.1710  0.1695
  725MOL0     H97838   6.771   0.729   8.673 -1.5692 -3.1594  2.1603
  725MOL0     H97839   6.934   0.691   9.095  0.6856 -0.2291 -0.9594
  725MOL0     H97840   6.856   0.538   9.079 -2.7959 -0.4930 -2.8282
  725MOL0     H97841   7.122   0.594   8.954 -1.0522  1.5117 -0.6181
  725MOL0     H97842   7.086   0.500   9.116 -3.1894 -2.6431  0.7340
  725MOL0     H97843   6.958   0.338   8.978 -0.0881  0.6126 -0.2600
  725MOL0     H97844   7.041   0.394   8.831 -0.0545 -1.0916 -0.1943
  725MOL0     H97845   7.190   0.307   9.087  1.9963  0.9587 -0.3273
  725MOL0     H97846   7.263   0.354   8.941  0.9274 -1.4726  1.1197
  725MOL0     H97847   7.133   0.168   8.829 -0.2494  0.8909  1.4135
  725MOL0     H97848   7.083   0.107   8.984 -0.5782 -0.7894 -0.4591
  725MOL0     H97849   7.377   0.148   8.882  0.4130  1.7074 -0.0554
  725MOL0     H97850   7.339   0.087   9.048 -0.8257 -3.6780 -0.2740
  725MOL0     H97851   7.372  -0.099   8.886 -0.5093 -2.3657  0.8487
  725MOL0     H97852   7.209  -0.063   8.824  0.6415 -1.6570  0.2446
  725MOL0     H97853   7.129  -0.072   9.070  0.0860  2.3169 -1.8846
  725MOL0     H97854   7.177  -0.222   9.001  0.6029  1.6302 -4.9318
  725MOL0     H97855   6.730   0.744   9.091  1.4962  1.3239 -0.2572
  725MOL0     H97856   6.536   0.876   9.071  1.5703  2.3641 -0.1376
  725MOL0     H97857   6.417   1.353   8.806 -0.9869 -0.1359  1.2835
  725MOL0     H97858   6.203   1.494   8.812  0.3496 -0.9079  0.1527
  725MOL0     H97859   5.566   1.299   7.060  2.8932 -1.5885 -1.5519
  725MOL0     H97860   5.412   1.332   6.862  0.0095 -1.3556  1.1309
  725MOL0     H97861   5.206   1.594   6.605  1.8032 -0.0645 -0.5766
  725MOL0     H97862   5.020   1.565   6.432  0.1253 -0.1030  1.5579
  725MOL0     H97863   4.863   1.488   6.307  1.5453  2.1975  1.6363
  725MOL0     H97864   4.853   1.457   6.129 -0.1185 -0.3289  0.1986
  725MOL0     H97865   4.976   1.703   6.127 -0.0955  0.3758  0.2735
  725MOL0     H97866   4.915   1.708   6.285  0.0145 -0.8439 -0.8649
  725MOL0     H97867   4.675   1.696   6.177 -1.7619  1.8482 -0.7119
  725MOL0     H97868   4.758   1.644   6.027  0.9068 -1.5300  0.9315
  725MOL0     H97869   4.759   1.908   6.174 -0.9746  1.4934 -0.5202
  725MOL0     H97870   4.862   1.870   6.029  0.3478  1.7496  2.2067
  725MOL0     H97871   4.495   1.938   5.849  2.1558 -0.0608 -3.0383
  725MOL0     H97872   5.304   1.409   6.155 -0.8227 -2.0929 -0.3609
  725MOL0     H97873   5.514   1.328   6.209  1.4460 -0.5119  1.2086
  725MOL0     H97874   5.578   1.470   6.291 -1.5686  1.8351 -2.6236
  725MOL0     H97875   5.551   1.305   6.367 -1.2402 -3.3975 -4.0951
  726MOL0     O97876   9.745   4.621   1.885  0.2398  0.5812  0.6793
  726MOL0     C97877   9.686   4.645   1.784  0.2994  0.8134  0.4395
  726MOL0     O97878   9.746   4.646   1.662 -0.6078  0.5501  0.1196
  726MOL0     C97879   9.884   4.615   1.661  0.7078  0.2905  0.1624
  726MOL0     C97880   9.924   4.491   1.628  0.1385  0.3491 -0.6568
  726MOL0     C97881  10.051   4.454   1.625 -0.8010  0.8582  0.7295
  726MOL0     C97882  10.147   4.554   1.658  1.0257 -0.7458 -0.3574
  726MOL0     O97883  10.284   4.534   1.669 -0.6822  0.9627 -0.6489
  726MOL0     C97884  10.341   4.425   1.609  0.8361  0.7945 -0.3426
  726MOL0     C97885  10.492   4.435   1.605 -0.5110 -0.6269  0.0086
  726MOL0     C97886  10.564   4.410   1.737  0.2939  0.6503  0.3192
  726MOL0     C97887  10.717   4.414   1.721  1.0010  0.2689  0.2230
  726MOL0     C97888  10.787   4.375   1.850  0.1710  0.4268  0.1132
  726MOL0     C97889  10.922   4.442   1.865 -0.2412 -0.3452 -1.0008
  726MOL0     C97890  11.024   4.349   1.933 -0.4745  0.7852 -0.1883
  726MOL0     C97891  11.163   4.403   1.917  0.7037  0.0482  0.9538
  726MOL0     N97892  11.270   4.321   1.973 -0.6962  0.0068  0.0142
  726MOL0     C97893  11.314   4.342   2.105  0.0598 -0.0610  0.4113
  726MOL0     C97894  11.383   4.232   2.127  0.5413  0.1786 -1.3091
  726MOL0     C97895  11.444   4.195   2.260  0.2762  0.0023 -0.7004
  726MOL0     C97896  11.569   4.271   2.279 -0.5594  0.0831  0.3859
  726MOL0     C97897  11.673   4.175   2.330  0.6502  0.1534  0.5018
  726MOL0     C97898  11.820   4.207   2.332 -0.6863 -0.3474  0.3075
  726MOL0     O97899  11.863   4.324   2.403 -0.0265 -0.5163  0.8862
  726MOL0     C97900  11.992   4.358   2.396 -0.3188 -0.1760  0.1701
  726MOL0     C97901  12.086   4.317   2.300  0.1458 -0.8036 -0.1422
  726MOL0     C97902  12.222   4.353   2.293 -0.0151  0.3427 -0.6697
  726MOL0     C97903  12.280   4.421   2.397 -0.7913 -0.9054  0.3179
  726MOL0     C97904  12.418   4.455   2.405  0.0178 -0.1193  0.3202
  726MOL0     O97905  12.484   4.469   2.284 -0.5999 -0.3426  0.1381
  726MOL0     C97906  12.627   4.480   2.271  0.4050  0.2596  0.8069
  726MOL0     C97907  12.719   4.412   2.350  0.9969 -0.1505 -0.2926
  726MOL0     C97908  12.846   4.409   2.310 -1.1191 -0.1708  0.9718
  726MOL0     C97909  12.896   4.494   2.206 -0.0592  0.9424 -0.7859
  726MOL0     O97910  13.031   4.507   2.183  1.0630 -0.1479 -0.6449
  726MOL0     C97911  13.084   4.517   2.043  1.4547 -0.4413 -0.3179
  726MOL0     C97912  13.084   4.393   1.958 -0.8031  0.3793 -0.1271
  726MOL0     C97913  13.022   4.415   1.820  0.2354  0.6817  0.1573
  726MOL0     C97914  13.000   4.279   1.754 -0.2242 -0.0977  0.5141
  726MOL0     C97915  13.125   4.192   1.757 -0.5097  0.1010 -0.1636
  726MOL0     C97916  13.110   4.064   1.687 -0.1324 -0.6642  0.4046
  726MOL0     C97917  13.222   3.959   1.725 -0.1987 -0.4371  0.0603
  726MOL0     C97918  13.234   3.850   1.617 -0.4654  0.1483  0.4315
  726MOL0    Cl97919  13.309   3.906   1.472 -0.0946 -0.0296  0.0092
  726MOL0     C97920  12.803   4.573   2.145  0.2220  0.1485 -0.2307
  726MOL0     C97921  12.668   4.565   2.170 -0.4513  0.2176  0.1828
  726MOL0     O97922  12.468   4.456   2.520 -0.2910  0.7100  0.4655
  726MOL0     C97923  12.192   4.488   2.491  0.1225 -0.3632 -0.0093
  726MOL0     C97924  12.050   4.443   2.493 -0.1939 -0.4240  0.4195
  726MOL0     N97925  11.378   4.146   2.023 -0.3965  0.7668 -0.1984
  726MOL0     N97926  11.309   4.194   1.927  0.0458  0.0020 -0.1372
  726MOL0     C97927  10.109   4.681   1.699  0.4394 -0.6089  0.0866
  726MOL0     C97928   9.974   4.712   1.695  0.0340 -0.3080 -0.1922
  726MOL0     C97929   9.538   4.652   1.789 -0.1424 -0.9362  0.0183
  726MOL0     C97930   9.465   4.625   1.676  0.7463  0.1248 -0.1356
  726MOL0     C97931   9.329   4.622   1.675  0.5821  0.4393  0.3084
  726MOL0     C97932   9.244   4.675   1.782  0.2252 -0.1385 -0.1984
  726MOL0     O97933   9.105   4.690   1.764 -0.8264 -0.4158  0.2663
  726MOL0     C97934   9.028   4.741   1.874  0.3352  0.3583 -0.1663
  726MOL0     C97935   8.887   4.741   1.826  0.9841  0.1212  0.5230
  726MOL0     C97936   8.793   4.856   1.881 -0.0060  0.4596 -0.2193
  726MOL0     C97937   8.764   4.849   2.032 -0.3389 -0.3940  0.8424
  726MOL0     C97938   8.682   4.955   2.102  0.8184  1.1000  0.3578
  726MOL0     C97939   8.617   5.037   2.168  0.1193  0.4066  0.0875
  726MOL0     C97940   9.322   4.710   1.887 -0.4455 -0.3849 -0.4282
  726MOL0     C97941   9.467   4.702   1.898 -0.1775  0.0689 -0.6777
  726MOL0     C97942   9.536   4.759   2.022 -0.5428  0.4675 -0.1503
  726MOL0     H97943   9.853   4.414   1.600 -0.1594  0.3269  0.1401
  726MOL0     H97944  10.088   4.353   1.613 -2.9862 -0.5328  4.1209
  726MOL0     H97945  10.314   4.337   1.668 -0.6367 -0.0879 -2.2086
  726MOL0     H97946  10.303   4.416   1.506 -1.9053 -0.3543  0.6606
  726MOL0     H97947  10.528   4.536   1.582 -2.7168 -0.0595 -1.2501
  726MOL0     H97948  10.527   4.365   1.528 -1.5341  0.6401 -1.6788
  726MOL0     H97949  10.552   4.306   1.770 -0.9868  0.3200 -1.0831
  726MOL0     H97950  10.519   4.475   1.814 -0.8705  2.9344 -2.1233
  726MOL0     H97951  10.744   4.350   1.636  1.4095 -2.5862  2.3486
  726MOL0     H97952  10.747   4.517   1.699  1.8052  0.4017  1.7559
  726MOL0     H97953  10.722   4.397   1.935  0.1449  3.4963 -0.5682
  726MOL0     H97954  10.807   4.268   1.852 -2.2518 -0.0726  1.6638
  726MOL0     H97955  10.954   4.474   1.765 -0.6559 -0.9908 -1.3511
  726MOL0     H97956  10.917   4.531   1.928 -2.2449 -1.9543  1.2801
  726MOL0     H97957  11.035   4.257   1.874  1.2589  0.2386  0.9153
  726MOL0     H97958  10.990   4.315   2.031 -3.6713  1.3286 -0.9936
  726MOL0     H97959  11.171   4.404   1.808  1.6219  0.5349  1.0174
  726MOL0     H97960  11.170   4.509   1.944 -2.4761  0.7421 -0.4306
  726MOL0     H97961  11.288   4.424   2.172 -1.5847  0.0706 -0.3445
  726MOL0     H97962  11.366   4.224   2.331  1.6156  3.4498 -0.4352
  726MOL0     H97963  11.453   4.086   2.258  0.6025  0.0338 -1.3066
  726MOL0     H97964  11.611   4.311   2.186 -0.3342  3.2650  1.7165
  726MOL0     H97965  11.578   4.365   2.333  0.8802 -0.3630  0.9801
  726MOL0     H97966  11.675   4.083   2.271  2.3934  1.3777 -1.4863
  726MOL0     H97967  11.643   4.142   2.430  2.4322 -0.1894  0.9519
  726MOL0     H97968  11.836   4.208   2.223  3.5768 -0.3493  0.7543
  726MOL0     H97969  11.884   4.124   2.365  0.7447  0.4775 -0.3158
  726MOL0     H97970  12.054   4.257   2.215 -1.7634 -1.4377  0.9658
  726MOL0     H97971  12.288   4.320   2.213  0.5598  0.6114 -0.3187
  726MOL0     H97972  12.688   4.353   2.436 -1.3427 -1.0517 -1.6390
  726MOL0     H97973  12.915   4.343   2.362 -0.3827 -1.1700 -1.1526
  726MOL0     H97974  13.020   4.592   1.997  0.2496 -1.0719  0.2918
  726MOL0     H97975  13.186   4.558   2.048  0.2872  2.6179  0.5992
  726MOL0     H97976  13.187   4.356   1.950 -1.6118 -1.9339 -0.6190
  726MOL0     H97977  13.012   4.328   2.009  0.1425  1.4589  2.8335
  726MOL0     H97978  12.922   4.456   1.838  1.2150  2.6785  1.3951
  726MOL0     H97979  13.085   4.477   1.756 -0.0798  0.9899  0.1426
  726MOL0     H97980  12.962   4.278   1.651  2.0710 -1.8352 -0.4015
  726MOL0     H97981  12.920   4.234   1.814  1.3370 -1.0632  1.9442
  726MOL0     H97982  13.146   4.164   1.860 -0.6504 -1.9691 -0.6572
  726MOL0     H97983  13.219   4.240   1.729 -0.4029 -0.5904 -1.0488
  726MOL0     H97984  13.011   4.019   1.703 -2.1068  2.8136 -0.8193
  726MOL0     H97985  13.120   4.077   1.578  0.4968 -0.5186  0.4749
  726MOL0     H97986  13.193   3.914   1.820  1.8045 -0.2277  0.8142
  726MOL0     H97987  13.322   4.000   1.737  1.0706 -3.4106  0.5852
  726MOL0     H97988  13.288   3.765   1.659  0.7639  0.9003  0.4064
  726MOL0     H97989  13.133   3.813   1.596 -0.7869  1.3515 -0.2269
  726MOL0     H97990  12.836   4.654   2.080  0.4432  0.4351  0.2378
  726MOL0     H97991  12.590   4.632   2.136 -1.6102  0.9086  3.7510
  726MOL0     H97992  12.239   4.556   2.561 -1.9005  0.4350  0.6606
  726MOL0     H97993  11.998   4.481   2.580  3.0423  1.9802  1.4844
  726MOL0     H97994  10.175   4.764   1.725 -1.2385  0.8712 -0.2458
  726MOL0     H97995   9.946   4.814   1.718 -1.4772 -0.6615 -0.3525
  726MOL0     H97996   9.506   4.596   1.580 -2.1864  1.5394 -1.9584
  726MOL0     H97997   9.270   4.607   1.585  1.9056  0.8695 -0.6617
  726MOL0     H97998   9.062   4.844   1.885  0.5979  0.6658 -3.1516
  726MOL0     H97999   9.037   4.684   1.967 -1.2018  0.3588  0.0072
  726MOL0     H98000   8.839   4.643   1.842  0.4926  0.2765  0.0284
  726MOL0     H98001   8.901   4.763   1.720  0.4452  1.2747  0.6805
  726MOL0     H98002   8.696   4.831   1.837  0.6890 -2.9769 -0.0801
  726MOL0     H98003   8.811   4.957   1.844 -0.4250  0.6707  0.1500
  726MOL0     H98004   8.715   4.752   2.044 -2.2188  0.3351 -0.4320
  726MOL0     H98005   8.860   4.855   2.084  0.7968  2.9751 -1.2934
  726MOL0     H98006   8.553   5.102   2.224 -1.5242  0.0046 -1.2526
  726MOL0     H98007   9.271   4.748   1.975  1.1292  1.4202 -0.2472
  726MOL0     H98008   9.610   4.826   1.978  0.3311 -0.0757  0.4640
  726MOL0     H98009   9.463   4.826   2.069 -1.8156 -0.1496 -1.1540
  726MOL0     H98010   9.575   4.683   2.090  1.8709  0.3446 -1.5582
  727MOL0     O98011   7.258   4.282   7.631  0.8447 -0.3567 -0.1271
  727MOL0     C98012   7.176   4.366   7.594 -0.5896  0.3048 -0.6282
  727MOL0     O98013   7.167   4.423   7.475  0.5680 -0.0599 -0.1454
  727MOL0     C98014   7.248   4.369   7.382  0.4648 -0.6776  0.5896
  727MOL0     C98015   7.387   4.397   7.385  0.1276  0.3424  1.1066
  727MOL0     C98016   7.472   4.337   7.290  0.7927 -0.5669  0.7101
  727MOL0     C98017   7.421   4.255   7.194  0.5096  0.0742  0.0371
  727MOL0     O98018   7.495   4.203   7.090  0.3558  0.3787 -0.4093
  727MOL0     C98019   7.615   4.143   7.118  0.7177  0.5391  0.1220
  727MOL0     C98020   7.619   3.991   7.071 -0.2475  0.6947  0.2080
  727MOL0     C98021   7.597   3.954   6.921 -0.8038 -0.6929 -0.2595
  727MOL0     C98022   7.732   3.989   6.844  0.3570  0.2042  0.2016
  727MOL0     C98023   7.758   3.939   6.701  0.2886 -0.3768  0.6152
  727MOL0     C98024   7.767   3.790   6.689 -0.2138  0.0048 -0.2778
  727MOL0     C98025   7.799   3.734   6.545 -0.6719 -0.6627 -0.2136
  727MOL0     C98026   7.952   3.719   6.528  0.4490 -0.9106 -0.3066
  727MOL0     N98027   7.992   3.691   6.390  0.4489 -0.4297 -0.6514
  727MOL0     C98028   8.004   3.787   6.288 -0.8797  0.6758  0.4860
  727MOL0     C98029   8.042   3.716   6.177 -0.7403 -0.4100  0.6527
  727MOL0     C98030   8.089   3.762   6.041  0.3523  0.5998 -0.1621
  727MOL0     C98031   8.249   3.775   6.037 -0.1283  0.7725  0.3513
  727MOL0     C98032   8.302   3.860   6.148  0.1435 -0.2743 -0.9153
  727MOL0     C98033   8.451   3.854   6.149 -0.2064 -0.0200 -0.3102
  727MOL0     O98034   8.504   3.984   6.195 -0.0041  1.5601  0.3326
  727MOL0     C98035   8.629   4.024   6.148  0.8346 -0.9297  0.9888
  727MOL0     C98036   8.726   3.954   6.082 -0.5806  0.4287  0.2012
  727MOL0     C98037   8.846   4.008   6.035 -0.4615 -0.2301  0.7708
  727MOL0     C98038   8.877   4.147   6.052  0.2581  0.9660 -0.3946
  727MOL0     C98039   9.003   4.218   5.999  0.8391 -0.6941  0.2189
  727MOL0     O98040   9.004   4.357   6.001 -0.2838  0.1072 -0.1678
  727MOL0     C98041   9.093   4.427   5.915  0.1737  0.3106 -0.3666
  727MOL0     C98042   9.125   4.557   5.955 -0.2055 -0.1610 -0.4752
  727MOL0     C98043   9.212   4.637   5.883 -0.1399 -0.5569  0.4290
  727MOL0     C98044   9.268   4.589   5.762  0.0597  0.1417  0.4742
  727MOL0     O98045   9.337   4.666   5.669 -0.4131  0.4986 -0.3641
  727MOL0     C98046   9.306   4.801   5.640  0.3908 -0.6200 -0.3894
  727MOL0     C98047   9.169   4.815   5.568 -1.0337 -0.8140 -0.5294
  727MOL0     C98048   9.106   4.953   5.601 -0.0948  0.1530 -0.0456
  727MOL0     C98049   8.985   4.971   5.516 -0.2279 -0.2443 -0.1064
  727MOL0     C98050   8.899   5.085   5.566  1.1466 -0.4565  0.5568
  727MOL0     C98051   8.802   5.025   5.674  0.1473  0.3033 -0.3915
  727MOL0     C98052   8.745   5.130   5.773 -0.0844  0.7240  0.1231
  727MOL0     C98053   8.641   5.072   5.875 -0.3029 -0.3497  0.2036
  727MOL0    Cl98054   8.527   5.205   5.904  0.0405  0.0356  0.3037
  727MOL0     C98055   9.240   4.451   5.732 -0.6237 -0.3309 -0.2101
  727MOL0     C98056   9.153   4.368   5.806 -0.3101 -0.2450 -0.1290
  727MOL0     O98057   9.081   4.142   5.939 -0.3382  0.1815 -0.7806
  727MOL0     C98058   8.769   4.221   6.112  0.1411 -0.0487 -0.7625
  727MOL0     C98059   8.653   4.162   6.159 -0.0711 -0.2875  0.2032
  727MOL0     N98060   8.039   3.584   6.218 -0.4225  0.5343 -0.5332
  727MOL0     N98061   8.015   3.570   6.340  0.2386 -0.3065  0.0129
  727MOL0     C98062   7.286   4.225   7.188  0.2341  0.4137  0.0490
  727MOL0     C98063   7.197   4.276   7.291 -0.4194  0.1329  0.4337
  727MOL0     C98064   7.080   4.421   7.702  0.2275  0.3922 -1.0194
  727MOL0     C98065   7.041   4.555   7.691 -0.0589 -0.1467  0.3005
  727MOL0     C98066   6.970   4.615   7.789  0.6394 -0.1758  0.3368
  727MOL0     C98067   6.946   4.553   7.911  0.9010  0.4714  0.5460
  727MOL0     O98068   6.902   4.643   8.008 -0.4497  0.7450  0.0264
  727MOL0     C98069   6.805   4.579   8.093  0.2669 -0.8122  0.6201
  727MOL0     C98070   6.744   4.689   8.190 -0.3033 -0.9309 -0.3208
  727MOL0     C98071   6.612   4.660   8.244  0.8750  0.1046 -0.2457
  727MOL0     C98072   6.601   4.524   8.319  1.0214 -0.4716 -0.2105
  727MOL0     C98073   6.565   4.400   8.236 -1.3576 -0.0959 -0.2227
  727MOL0     C98074   6.547   4.291   8.174 -0.1801 -0.7715 -0.0628
  727MOL0     C98075   7.000   4.425   7.937  0.0401 -0.1016 -0.7900
  727MOL0     C98076   7.055   4.351   7.827 -0.0050  0.8060 -0.4859
  727MOL0     C98077   7.073   4.200   7.834 -0.2396 -0.8588  0.9817
  727MOL0     H98078   7.432   4.476   7.444  1.2979  2.1801 -2.0035
  727MOL0     H98079   7.576   4.366   7.293  0.6162  0.1810 -0.0655
  727MOL0     H98080   7.699   4.201   7.079  0.6828 -0.4012 -1.4470
  727MOL0     H98081   7.631   4.134   7.226  1.9964 -1.2786 -0.1626
  727MOL0     H98082   7.539   3.938   7.124 -1.0029  2.0745  0.5013
  727MOL0     H98083   7.713   3.952   7.112  1.9757  3.1760 -2.1242
  727MOL0     H98084   7.517   4.020   6.885  1.2321  0.4416 -3.0779
  727MOL0     H98085   7.555   3.853   6.916  2.8448 -2.6236  2.7788
  727MOL0     H98086   7.730   4.098   6.836 -1.5093  0.0814 -2.4939
  727MOL0     H98087   7.819   3.961   6.904  0.0006  0.8320  1.0231
  727MOL0     H98088   7.672   3.969   6.641  2.6659  0.7109 -2.5408
  727MOL0     H98089   7.846   3.991   6.662  0.2369 -0.2297  0.6974
  727MOL0     H98090   7.835   3.752   6.765  0.7148  0.6598 -0.7703
  727MOL0     H98091   7.671   3.743   6.714  1.6087 -4.1809 -0.3293
  727MOL0     H98092   7.744   3.796   6.474  0.5772 -2.1583 -2.5853
  727MOL0     H98093   7.766   3.631   6.531  0.7387 -1.2755  0.6880
  727MOL0     H98094   8.007   3.803   6.570  2.6597 -1.3540 -2.0882
  727MOL0     H98095   7.982   3.644   6.602 -0.1627 -0.2294  0.6549
  727MOL0     H98096   7.994   3.894   6.299  0.9450  0.7124  2.4051
  727MOL0     H98097   8.066   3.683   5.969 -1.8532  0.2797  0.8383
  727MOL0     H98098   8.047   3.857   6.008  2.0112  1.1210 -0.9084
  727MOL0     H98099   8.297   3.677   6.045  0.1803  0.9672  0.8998
  727MOL0     H98100   8.264   3.817   5.937  0.0007  0.5124  0.2607
  727MOL0     H98101   8.268   3.833   6.248 -0.8747  1.4661 -0.7405
  727MOL0     H98102   8.265   3.962   6.129  3.6415  0.9691 -1.9373
  727MOL0     H98103   8.472   3.824   6.046  0.3116  0.3637 -0.3204
  727MOL0     H98104   8.477   3.777   6.223 -0.0613  1.3500  1.1328
  727MOL0     H98105   8.725   3.848   6.058  1.2743 -0.0749  2.0437
  727MOL0     H98106   8.930   3.954   5.992 -0.7091  0.7877 -1.1139
  727MOL0     H98107   9.084   4.588   6.050  0.6406 -1.9340  0.5191
  727MOL0     H98108   9.264   4.725   5.922 -0.6839  0.3461 -0.8216
  727MOL0     H98109   9.297   4.855   5.734 -0.3197 -1.6071  0.1281
  727MOL0     H98110   9.385   4.850   5.582 -0.7981 -2.5530 -4.0130
  727MOL0     H98111   9.175   4.814   5.459  0.1243  4.4187 -0.7904
  727MOL0     H98112   9.106   4.737   5.610 -2.4541  0.7894  0.4789
  727MOL0     H98113   9.089   4.966   5.709 -1.1176  3.0220 -0.4669
  727MOL0     H98114   9.181   5.028   5.576  1.9162 -0.9949  2.1567
  727MOL0     H98115   8.920   4.883   5.510  0.9899 -1.2232  0.6872
  727MOL0     H98116   9.022   4.984   5.414  2.7145  0.3308  0.9594
  727MOL0     H98117   8.836   5.131   5.489 -2.1519 -2.2916  1.9362
  727MOL0     H98118   8.965   5.155   5.619  0.8338  2.5017 -2.6364
  727MOL0     H98119   8.719   4.983   5.616 -1.7808  0.0497  2.3668
  727MOL0     H98120   8.849   4.946   5.733 -0.4769  0.0536 -0.2166
  727MOL0     H98121   8.690   5.206   5.716 -0.6769 -0.0006 -0.2978
  727MOL0     H98122   8.830   5.171   5.827  0.7338  0.6603 -1.0743
  727MOL0     H98123   8.579   4.992   5.833 -1.0814  0.3234  0.0485
  727MOL0     H98124   8.690   5.038   5.967 -0.6387 -4.7848 -1.0352
  727MOL0     H98125   9.272   4.408   5.637  0.0066  2.1911 -1.2260
  727MOL0     H98126   9.121   4.273   5.764  0.0164 -0.3854 -0.0645
  727MOL0     H98127   8.779   4.327   6.133 -1.5863 -0.5863  3.9694
  727MOL0     H98128   8.575   4.224   6.203 -0.3653  1.1146 -2.1656
  727MOL0     H98129   7.247   4.179   7.098  1.3319  2.0731 -1.3427
  727MOL0     H98130   7.092   4.250   7.282  0.0779 -2.3102  1.0292
  727MOL0     H98131   7.067   4.613   7.603 -1.4902  1.9640  1.1893
  727MOL0     H98132   6.919   4.709   7.770 -1.9480 -1.8669 -1.7901
  727MOL0     H98133   6.857   4.507   8.158  2.1158 -0.3287 -0.2625
  727MOL0     H98134   6.720   4.535   8.041  0.8646  0.3434 -1.4233
  727MOL0     H98135   6.736   4.785   8.139  2.4903 -1.3376 -1.7125
  727MOL0     H98136   6.815   4.700   8.273  0.9817 -0.7009 -1.4239
  727MOL0     H98137   6.538   4.664   8.164  1.4289 -1.9826 -0.9426
  727MOL0     H98138   6.585   4.738   8.315 -1.1256 -2.3525  1.9136
  727MOL0     H98139   6.698   4.509   8.366  0.9714 -0.0442  0.0352
  727MOL0     H98140   6.527   4.535   8.399  2.1528  1.3582  0.6304
  727MOL0     H98141   6.513   4.196   8.138 -0.9006 -1.4524  2.1920
  727MOL0     H98142   7.007   4.380   8.036 -0.0154  1.6571  0.0530
  727MOL0     H98143   7.012   4.171   7.921  1.7229  1.4553  3.3213
  727MOL0     H98144   7.050   4.142   7.745 -3.2548 -2.4064  2.6017
  727MOL0     H98145   7.177   4.186   7.867 -0.2055 -0.3464  1.0943
  728MOL0     O98146   1.830   6.989   5.935  0.6830  0.5792  0.3854
  728MOL0     C98147   1.941   7.002   5.890 -0.6275  0.4745  0.0171
  728MOL0     O98148   1.999   7.117   5.832  0.1280  0.4013 -0.0409
  728MOL0     C98149   1.929   7.226   5.826  0.1508 -0.0814 -0.4394
  728MOL0     C98150   2.006   7.346   5.818 -0.3166 -0.7021 -0.7661
  728MOL0     C98151   1.942   7.473   5.832  0.2060  0.2833 -0.6159
  728MOL0     C98152   1.802   7.476   5.840  0.6610 -0.2355  0.9807
  728MOL0     O98153   1.730   7.591   5.860  0.5705  0.3480 -0.9026
  728MOL0     C98154   1.597   7.598   5.920  0.5158 -0.2387 -0.3612
  728MOL0     C98155   1.552   7.747   5.913  0.0202  0.8697  0.8760
  728MOL0     C98156   1.432   7.787   5.992 -0.0405 -0.0503  0.0879
  728MOL0     C98157   1.376   7.914   5.929 -0.0108 -0.2923 -1.2149
  728MOL0     C98158   1.227   7.933   5.963  0.9062 -0.1120 -0.4566
  728MOL0     C98159   1.213   7.969   6.110  0.4009  0.1100 -0.4908
  728MOL0     C98160   1.080   8.014   6.158  0.4921  0.1542 -0.7360
  728MOL0     C98161   1.054   8.169   6.142  0.6839  0.2241  0.9534
  728MOL0     N98162   0.937   8.198   6.220 -0.1072 -0.4259 -0.3850
  728MOL0     C98163   0.936   8.220   6.358  0.2192  0.1476  0.0273
  728MOL0     C98164   0.808   8.203   6.399  0.1182  0.1901 -0.2841
  728MOL0     C98165   0.758   8.197   6.540 -0.5793  0.0384 -0.0104
  728MOL0     C98166   0.676   8.326   6.570  0.0626  0.0763  0.2564
  728MOL0     C98167   0.633   8.329   6.714  0.1540  0.8060 -0.7958
  728MOL0     C98168   0.760   8.326   6.815  0.0832 -0.0888 -0.2306
  728MOL0     O98169   0.836   8.443   6.785 -0.6037 -0.5724  0.6277
  728MOL0     C98170   0.967   8.437   6.758  0.2797 -0.4451 -0.2472
  728MOL0     C98171   1.058   8.382   6.848 -0.8121 -0.2281 -1.1698
  728MOL0     C98172   1.193   8.377   6.822 -0.7818  0.1582  1.4018
  728MOL0     C98173   1.237   8.413   6.698  0.7375  0.3220 -0.3171
  728MOL0     C98174   1.383   8.402   6.656 -0.7844  1.1648  0.7710
  728MOL0     O98175   1.477   8.398   6.751  0.2391  0.4892  0.1732
  728MOL0     C98176   1.605   8.374   6.704 -0.5599  0.0486  0.3882
  728MOL0     C98177   1.666   8.246   6.721 -0.9229  0.3036  0.2468
  728MOL0     C98178   1.800   8.237   6.675  1.4641 -0.6990 -0.3321
  728MOL0     C98179   1.876   8.344   6.630  0.2636 -0.3254  0.3561
  728MOL0     O98180   1.991   8.305   6.573  0.2120  0.4278  0.4987
  728MOL0     C98181   2.064   8.411   6.516 -0.0782  0.4419  0.9051
  728MOL0     C98182   2.181   8.350   6.439 -0.6746 -0.1031 -0.4980
  728MOL0     C98183   2.171   8.388   6.300 -0.1498  0.5828  0.2809
  728MOL0     C98184   2.277   8.353   6.204  0.2236  0.3057  0.5697
  728MOL0     C98185   2.217   8.375   6.059  0.2069  0.7639 -0.1922
  728MOL0     C98186   2.322   8.340   5.952  1.0955 -0.2305  0.4450
  728MOL0     C98187   2.421   8.224   5.969 -0.4939 -0.1798 -0.3147
  728MOL0     C98188   2.499   8.213   5.840  0.6408 -0.4747  0.1788
  728MOL0    Cl98189   2.631   8.333   5.826 -0.0088 -0.1531 -0.0816
  728MOL0     C98190   1.813   8.468   6.627 -0.6569 -0.4111 -0.0189
  728MOL0     C98191   1.683   8.484   6.670 -0.5246 -0.4176  0.3620
  728MOL0     O98192   1.406   8.394   6.536 -0.7551 -0.7351  0.0792
  728MOL0     C98193   1.139   8.455   6.602  0.1352  0.1966 -1.0605
  728MOL0     C98194   1.008   8.473   6.632 -0.2723 -0.1226 -0.4078
  728MOL0     N98195   0.736   8.175   6.287  0.9595 -0.0457  0.3531
  728MOL0     N98196   0.812   8.174   6.187 -0.1689 -0.2956 -0.1706
  728MOL0     C98197   1.729   7.359   5.803 -0.6608 -0.0142 -0.0620
  728MOL0     C98198   1.794   7.241   5.800  0.1711  0.0307 -0.3335
  728MOL0     C98199   2.028   6.880   5.893  0.3062  0.0590  0.4810
  728MOL0     C98200   2.125   6.875   5.797  0.4060 -0.4839  0.6152
  728MOL0     C98201   2.209   6.760   5.798  0.3915  0.0425  0.4764
  728MOL0     C98202   2.208   6.660   5.896 -0.2345  0.3270 -0.3198
  728MOL0     O98203   2.302   6.560   5.903  0.5125  0.3657 -0.2803
  728MOL0     C98204   2.396   6.556   5.797  0.2412  0.1669 -0.2688
  728MOL0     C98205   2.445   6.417   5.791  0.4922  0.5513 -0.0796
  728MOL0     C98206   2.569   6.399   5.705 -0.3259  0.1910 -0.1595
  728MOL0     C98207   2.547   6.337   5.570 -0.3477 -0.0348  0.0187
  728MOL0     C98208   2.521   6.197   5.589 -0.3326  0.9598 -0.6659
  728MOL0     C98209   2.495   6.077   5.607 -0.4441  0.1007  0.7405
  728MOL0     C98210   2.109   6.666   5.993  0.6486  0.0707 -0.8380
  728MOL0     C98211   2.017   6.773   5.992  0.4413 -0.7787 -0.1067
  728MOL0     C98212   1.919   6.776   6.102 -0.4557  0.4403 -0.2156
  728MOL0     H98213   2.114   7.340   5.810 -0.0451  2.0320 -0.1284
  728MOL0     H98214   2.007   7.560   5.845  0.2400  0.3989 -1.5209
  728MOL0     H98215   1.524   7.532   5.872  1.1243 -1.3419  0.1935
  728MOL0     H98216   1.606   7.561   6.023 -0.6763  1.0881  0.2406
  728MOL0     H98217   1.530   7.771   5.808 -0.3566  2.5479  1.3092
  728MOL0     H98218   1.644   7.804   5.928  0.8835 -0.2433  0.0356
  728MOL0     H98219   1.453   7.807   6.097  1.0681  2.4675 -0.5411
  728MOL0     H98220   1.357   7.709   5.975 -1.0543  1.1568 -1.2216
  728MOL0     H98221   1.437   7.992   5.976  2.1143 -2.0878 -0.8667
  728MOL0     H98222   1.391   7.907   5.821 -1.7507  0.2011 -1.5233
  728MOL0     H98223   1.190   8.017   5.903  1.4902  1.0778  0.8055
  728MOL0     H98224   1.176   7.842   5.930  1.9793  0.0907 -2.8745
  728MOL0     H98225   1.244   7.885   6.173  2.0974 -0.0770 -1.5148
  728MOL0     H98226   1.280   8.049   6.142 -3.1502  1.5233  4.7350
  728MOL0     H98227   1.071   7.980   6.261  3.4060  1.5755  0.0793
  728MOL0     H98228   1.012   7.949   6.101  1.0700 -1.0112 -0.1169
  728MOL0     H98229   1.136   8.233   6.176  0.7883  0.1255  0.8873
  728MOL0     H98230   1.036   8.188   6.036  0.2239 -1.5942  0.6621
  728MOL0     H98231   1.024   8.244   6.417  0.5740  1.7725 -1.0850
  728MOL0     H98232   0.689   8.112   6.544 -2.2718  1.3764  0.2641
  728MOL0     H98233   0.841   8.180   6.610 -0.2652  0.8748 -0.1780
  728MOL0     H98234   0.732   8.414   6.538 -1.2917  0.4257 -1.2428
  728MOL0     H98235   0.593   8.320   6.499 -0.7720  0.5838  1.1666
  728MOL0     H98236   0.564   8.250   6.747  2.1090  0.5094  3.1227
  728MOL0     H98237   0.575   8.418   6.739 -0.4770  0.8439 -2.2633
  728MOL0     H98238   0.822   8.240   6.789 -0.4958 -0.2047 -1.3125
  728MOL0     H98239   0.729   8.324   6.920 -1.1272  1.2300 -0.5190
  728MOL0     H98240   1.022   8.352   6.946  1.0869  3.9644  1.1293
  728MOL0     H98241   1.275   8.352   6.889  0.8340 -0.5525 -0.7278
  728MOL0     H98242   1.613   8.155   6.746 -0.5741 -0.5125 -1.7322
  728MOL0     H98243   1.840   8.136   6.668  2.1985 -0.3978 -0.5819
  728MOL0     H98244   2.008   8.474   6.446  0.7966 -1.5274 -1.7751
  728MOL0     H98245   2.118   8.468   6.591 -0.7080  0.0621  1.6621
  728MOL0     H98246   2.272   8.402   6.468  0.3637 -1.8214 -0.5224
  728MOL0     H98247   2.187   8.241   6.447 -2.5051 -0.4945 -3.1311
  728MOL0     H98248   2.084   8.335   6.261  1.1286 -1.2033 -0.2638
  728MOL0     H98249   2.168   8.497   6.289 -1.3062  0.9988  3.5665
  728MOL0     H98250   2.291   8.245   6.200 -2.1593 -0.0213 -0.5130
  728MOL0     H98251   2.376   8.399   6.212  1.1421 -1.6487  1.0061
  728MOL0     H98252   2.190   8.479   6.037  2.7952  1.0884 -2.2966
  728MOL0     H98253   2.126   8.319   6.036  0.8106  0.1260 -1.0859
  728MOL0     H98254   2.272   8.320   5.857 -0.6259  0.0318  1.2610
  728MOL0     H98255   2.390   8.422   5.931  1.6104 -0.8176 -0.2551
  728MOL0     H98256   2.362   8.133   5.986 -0.8726  0.1320  0.0585
  728MOL0     H98257   2.490   8.242   6.052  0.2249  1.3401 -1.1987
  728MOL0     H98258   2.541   8.113   5.822 -1.4440 -1.4165  0.2409
  728MOL0     H98259   2.434   8.235   5.755  3.9509  0.9883 -2.1909
  728MOL0     H98260   1.863   8.555   6.584  1.7475 -2.2133 -1.0799
  728MOL0     H98261   1.632   8.580   6.674  0.2049 -0.0356  0.7028
  728MOL0     H98262   1.181   8.490   6.507 -2.3664 -2.4700 -3.3368
  728MOL0     H98263   0.932   8.519   6.570 -2.7115  3.7156  4.6553
  728MOL0     H98264   1.621   7.350   5.795 -0.5797  0.5625 -2.4970
  728MOL0     H98265   1.720   7.162   5.787 -2.6337  2.3038  0.7947
  728MOL0     H98266   2.138   6.957   5.727 -1.8258 -2.2263 -2.1121
  728MOL0     H98267   2.285   6.760   5.721  1.4236  2.8841  1.3524
  728MOL0     H98268   2.472   6.629   5.827 -0.5184  0.6118  0.6149
  728MOL0     H98269   2.365   6.568   5.693  0.5043  2.4560 -0.1373
  728MOL0     H98270   2.362   6.345   5.788 -0.8718  2.0914 -3.0910
  728MOL0     H98271   2.485   6.398   5.892 -0.4654 -1.3496 -0.0101
  728MOL0     H98272   2.639   6.334   5.759 -1.0545 -0.1979  0.3185
  728MOL0     H98273   2.623   6.493   5.686 -0.9561  0.0313 -3.3136
  728MOL0     H98274   2.471   6.389   5.512 -1.0059 -1.8452 -0.8219
  728MOL0     H98275   2.636   6.334   5.506  1.4328 -0.4249  2.3386
  728MOL0     H98276   2.456   5.978   5.613 -2.2657  0.6160 -1.3797
  728MOL0     H98277   2.092   6.585   6.062 -1.0595 -0.2933 -1.6339
  728MOL0     H98278   1.939   6.861   6.168  1.3494 -2.0391  2.6862
  728MOL0     H98279   1.821   6.780   6.052 -2.0463 -2.3702  2.3252
  728MOL0     H98280   1.929   6.686   6.163  0.6469  1.3349  0.9851
  729MOL0     O98281   4.976   8.444   5.286 -0.6951  0.1558 -0.4558
  729MOL0     C98282   4.886   8.448   5.200 -0.0517  0.1132  0.3478
  729MOL0     O98283   4.879   8.368   5.086 -0.7758  0.0163 -0.3549
  729MOL0     C98284   4.979   8.281   5.084 -0.1640  0.9979 -0.0753
  729MOL0     C98285   5.106   8.313   5.027  0.8752  0.0474 -0.1781
  729MOL0     C98286   5.209   8.224   5.028 -0.3048 -0.5620  0.1487
  729MOL0     C98287   5.187   8.090   5.062 -0.5439 -1.3965  0.1584
  729MOL0     O98288   5.301   8.007   5.066 -1.0073  0.0593 -0.4573
  729MOL0     C98289   5.299   7.880   5.134  0.0138 -0.3116 -0.3886
  729MOL0     C98290   5.340   7.914   5.280 -0.1336  0.4654 -0.1338
  729MOL0     C98291   5.481   7.918   5.294 -0.6207  0.0546  0.4300
  729MOL0     C98292   5.539   7.905   5.435 -0.0624 -0.5755  0.1290
  729MOL0     C98293   5.699   7.911   5.427 -0.3552 -0.5434  0.6828
  729MOL0     C98294   5.750   7.937   5.571  1.6429  0.1170 -0.7463
  729MOL0     C98295   5.904   7.928   5.578  0.1665  0.5711 -0.0709
  729MOL0     C98296   5.949   7.861   5.707 -0.2429 -0.1617 -1.0832
  729MOL0     N98297   6.095   7.866   5.721  0.5053  0.4319 -0.6737
  729MOL0     C98298   6.188   7.807   5.635  0.7292  0.2593  0.0302
  729MOL0     C98299   6.309   7.861   5.670  0.4735  0.9844  0.6116
  729MOL0     C98300   6.442   7.820   5.607 -0.6457  0.1150  0.6969
  729MOL0     C98301   6.462   7.850   5.461  0.1826 -0.3643 -0.7413
  729MOL0     C98302   6.596   7.809   5.412  0.6946  0.3229 -0.9287
  729MOL0     C98303   6.707   7.836   5.514 -0.6687  0.6000 -0.9414
  729MOL0     O98304   6.723   7.720   5.597 -0.2297 -0.2372  0.3970
  729MOL0     C98305   6.824   7.719   5.696 -0.5985  0.2917  1.4051
  729MOL0     C98306   6.817   7.627   5.800 -0.0016  0.6497 -0.5755
  729MOL0     C98307   6.918   7.617   5.905 -0.3639 -0.6344  1.9381
  729MOL0     C98308   7.030   7.707   5.898 -1.1589 -0.3885 -0.1473
  729MOL0     C98309   7.137   7.684   6.008 -0.2247  0.4534 -0.4538
  729MOL0     O98310   7.254   7.750   5.994  0.0322  0.2720 -0.2006
  729MOL0     C98311   7.356   7.732   6.088  0.5246 -0.1402 -0.1923
  729MOL0     C98312   7.440   7.619   6.080 -0.2849 -0.6670  0.2019
  729MOL0     C98313   7.540   7.600   6.177  0.4329 -0.1320 -0.0989
  729MOL0     C98314   7.565   7.700   6.277  0.4689  0.3871 -0.1524
  729MOL0     O98315   7.654   7.690   6.382 -0.6226 -0.0734  0.2074
  729MOL0     C98316   7.759   7.591   6.376  0.4985  1.2095 -0.2188
  729MOL0     C98317   7.882   7.635   6.458  0.1337  0.4481 -0.5846
  729MOL0     C98318   7.988   7.529   6.492  0.2044 -0.2001  0.7451
  729MOL0     C98319   8.120   7.584   6.542 -1.3640 -0.4560 -0.5773
  729MOL0     C98320   8.229   7.473   6.571  0.4086 -0.0361  0.9174
  729MOL0     C98321   8.360   7.549   6.605  0.2060 -0.1986  0.5705
  729MOL0     C98322   8.488   7.452   6.619  0.9607 -0.2066  0.0040
  729MOL0     C98323   8.581   7.446   6.490 -0.6474 -0.0412 -0.4748
  729MOL0    Cl98324   8.733   7.348   6.528  0.4629  0.1969  0.1976
  729MOL0     C98325   7.475   7.807   6.275 -0.1933 -0.4971  0.2646
  729MOL0     C98326   7.365   7.831   6.193 -0.4597 -0.2318 -0.4258
  729MOL0     O98327   7.111   7.614   6.109  0.5037 -0.0829  0.3091
  729MOL0     C98328   7.047   7.797   5.794 -0.3380 -0.4469 -0.0340
  729MOL0     C98329   6.942   7.815   5.695  0.9639  0.1768 -0.7114
  729MOL0     N98330   6.291   7.941   5.783 -0.5718  0.0121 -0.3293
  729MOL0     N98331   6.167   7.945   5.810 -0.2616  0.6554  0.2954
  729MOL0     C98332   5.070   8.051   5.116  0.1157 -0.6245  0.4068
  729MOL0     C98333   4.967   8.152   5.132  0.3597  0.2383 -0.3492
  729MOL0     C98334   4.774   8.545   5.230  0.2778  0.7792  0.3463
  729MOL0     C98335   4.749   8.582   5.365  0.5442  0.2825 -0.8698
  729MOL0     C98336   4.657   8.675   5.407  0.0444  0.3561  0.1356
  729MOL0     C98337   4.566   8.734   5.306 -0.3625 -0.1252 -0.6559
  729MOL0     O98338   4.469   8.824   5.341 -0.1373 -0.1970  0.3317
  729MOL0     C98339   4.398   8.824   5.472  0.7968  0.1013  0.4929
  729MOL0     C98340   4.248   8.791   5.444 -0.3753  0.1713 -0.4370
  729MOL0     C98341   4.158   8.862   5.548  0.1600 -0.5243  0.0082
  729MOL0     C98342   4.011   8.857   5.517  0.3442  0.1737  0.6699
  729MOL0     C98343   3.955   8.726   5.490 -0.5800 -1.2925 -0.1604
  729MOL0     C98344   3.903   8.621   5.481  0.3196  0.5907 -0.2033
  729MOL0     C98345   4.590   8.697   5.176  0.0743 -0.2188 -0.5282
  729MOL0     C98346   4.701   8.613   5.133 -0.1395 -0.1284 -0.6324
  729MOL0     C98347   4.732   8.600   4.993  0.4580 -0.6541  0.1041
  729MOL0     H98348   5.125   8.411   4.983  0.8956 -0.9079 -2.4085
  729MOL0     H98349   5.311   8.238   4.995 -0.1484  2.4683  1.5744
  729MOL0     H98350   5.201   7.832   5.130 -0.4629  0.6982 -2.6910
  729MOL0     H98351   5.376   7.818   5.087 -1.0197 -2.8229  1.0417
  729MOL0     H98352   5.302   7.833   5.343 -1.5626  0.5252 -0.8769
  729MOL0     H98353   5.305   8.010   5.318 -0.8706 -0.4816  1.6936
  729MOL0     H98354   5.528   8.004   5.244  0.3884 -1.2067 -0.8917
  729MOL0     H98355   5.529   7.831   5.247  0.2454 -0.0664  1.4979
  729MOL0     H98356   5.505   7.990   5.496  2.2209  1.6636 -1.4876
  729MOL0     H98357   5.502   7.815   5.485  1.3589 -0.4167  1.5587
  729MOL0     H98358   5.742   7.818   5.389  0.6817 -0.4516  1.5660
  729MOL0     H98359   5.737   7.993   5.365 -1.6045  0.0054  0.6119
  729MOL0     H98360   5.708   8.028   5.614  3.2823  0.8273 -0.5670
  729MOL0     H98361   5.713   7.856   5.634  0.3613  1.7390  0.7040
  729MOL0     H98362   5.953   8.025   5.562 -1.7346  1.7980  1.0637
  729MOL0     H98363   5.935   7.866   5.493  0.6388  0.2342  0.3457
  729MOL0     H98364   5.908   7.920   5.790 -0.0806  0.9023 -1.7423
  729MOL0     H98365   5.903   7.762   5.714  0.2060 -0.2811  1.1959
  729MOL0     H98366   6.176   7.734   5.555  0.8550 -1.6134  1.6406
  729MOL0     H98367   6.518   7.872   5.667  0.4222 -1.3844  0.6912
  729MOL0     H98368   6.446   7.712   5.625 -2.3501 -0.0872  0.0607
  729MOL0     H98369   6.380   7.809   5.400 -1.1595  0.6598  0.3194
  729MOL0     H98370   6.451   7.959   5.453 -2.1642 -0.2825  1.9538
  729MOL0     H98371   6.607   7.869   5.321  1.1155  0.5020 -0.7639
  729MOL0     H98372   6.592   7.702   5.387 -0.6574 -0.0518  0.7735
  729MOL0     H98373   6.680   7.926   5.571 -0.3056  1.3929 -1.9892
  729MOL0     H98374   6.795   7.858   5.454 -2.1896  2.0199 -2.7838
  729MOL0     H98375   6.735   7.557   5.795 -0.6662  1.3282  0.4176
  729MOL0     H98376   6.892   7.543   5.980 -1.3140 -0.9504  1.3169
  729MOL0     H98377   7.416   7.544   6.005  2.3816 -0.1529 -1.2845
  729MOL0     H98378   7.601   7.511   6.166 -1.1577 -1.3873  0.8025
  729MOL0     H98379   7.728   7.495   6.420  1.1519  0.7237 -0.7904
  729MOL0     H98380   7.781   7.570   6.271  1.2142  2.1716 -0.2738
  729MOL0     H98381   7.933   7.717   6.408  0.9695  0.2502 -0.0921
  729MOL0     H98382   7.851   7.662   6.559 -0.9054 -0.8678 -0.5168
  729MOL0     H98383   7.954   7.469   6.577 -0.5634  0.6512  1.0497
  729MOL0     H98384   8.000   7.469   6.401  2.3397  1.5115 -0.1922
  729MOL0     H98385   8.109   7.662   6.618 -1.3460 -1.3725  0.4012
  729MOL0     H98386   8.156   7.645   6.458  0.5662  1.1384  1.2785
  729MOL0     H98387   8.244   7.409   6.484  0.2026  0.5071  0.4755
  729MOL0     H98388   8.195   7.414   6.657 -0.4207 -0.9706 -0.0203
  729MOL0     H98389   8.389   7.618   6.525 -2.3775 -1.8324 -1.9673
  729MOL0     H98390   8.344   7.602   6.699  0.7916 -1.0697  1.1871
  729MOL0     H98391   8.443   7.356   6.643 -3.2026  1.6141  0.2944
  729MOL0     H98392   8.546   7.496   6.701  0.4234  0.1957  0.1678
  729MOL0     H98393   8.534   7.386   6.412 -0.5711  0.3740 -0.8395
  729MOL0     H98394   8.605   7.543   6.447 -1.4949  0.6497  0.5422
  729MOL0     H98395   7.502   7.878   6.353  0.0598  0.0629 -0.3322
  729MOL0     H98396   7.298   7.915   6.207 -1.7839 -1.3125  0.0262
  729MOL0     H98397   7.144   7.846   5.802  0.5504 -2.2043  0.5308
  729MOL0     H98398   6.958   7.872   5.603  1.7540  1.5569  0.2389
  729MOL0     H98399   5.060   7.948   5.148 -2.9022 -0.0586  1.6335
  729MOL0     H98400   4.887   8.122   5.199  0.7580 -0.9558 -0.3871
  729MOL0     H98401   4.809   8.532   5.440 -2.0593 -0.8538  0.5769
  729MOL0     H98402   4.643   8.700   5.512 -3.5258 -0.0950 -0.1331
  729MOL0     H98403   4.412   8.924   5.515 -1.7103  0.0867  1.5086
  729MOL0     H98404   4.448   8.775   5.556  0.2719 -1.3563 -0.0191
  729MOL0     H98405   4.220   8.685   5.439 -3.0993  0.8737 -2.3643
  729MOL0     H98406   4.212   8.838   5.352 -1.7501  1.1970  0.5743
  729MOL0     H98407   4.185   8.968   5.545  0.7720 -0.6990 -1.8129
  729MOL0     H98408   4.171   8.821   5.649 -1.1018 -1.7889 -0.3059
  729MOL0     H98409   3.952   8.895   5.600  1.0575 -0.3259  1.4233
  729MOL0     H98410   3.999   8.927   5.434 -3.0497  2.6695  2.9870
  729MOL0     H98411   3.856   8.525   5.483  1.8737 -0.2577  3.1886
  729MOL0     H98412   4.513   8.728   5.106 -1.1597 -0.0008  0.8566
  729MOL0     H98413   4.660   8.660   4.936 -2.0947 -3.1281  0.5169
  729MOL0     H98414   4.831   8.631   4.958 -0.5449  2.0116 -0.6235
  729MOL0     H98415   4.718   8.496   4.964 -1.6996 -0.0473 -1.2682
  730MOL0     O98416   3.890   2.194   9.659  0.0884  0.0982  0.0975
  730MOL0     C98417   3.785   2.242   9.686 -0.5867  0.4196 -0.1490
  730MOL0     O98418   3.757   2.374   9.681  0.6649 -0.0285  0.2453
  730MOL0     C98419   3.846   2.463   9.631  0.6322  1.0944 -0.4058
  730MOL0     C98420   3.974   2.474   9.682  0.2691  0.0689 -0.1171
  730MOL0     C98421   4.062   2.573   9.630 -1.1879 -0.4790 -0.4901
  730MOL0     C98422   4.032   2.657   9.524 -0.0144 -0.4138  0.4502
  730MOL0     O98423   4.109   2.773   9.481 -0.5114  0.2400 -0.0844
  730MOL0     C98424   4.236   2.800   9.541  0.5323  0.1771 -0.0610
  730MOL0     C98425   4.247   2.953   9.549 -0.1022  0.2349 -0.9443
  730MOL0     C98426   4.359   3.004   9.636  0.7869  0.0240  0.8109
  730MOL0     C98427   4.491   2.984   9.577 -0.3134  1.0168  0.6554
  730MOL0     C98428   4.594   3.033   9.665  0.3084  0.3583  0.2333
  730MOL0     C98429   4.736   2.977   9.626  0.0714 -0.8911 -1.0004
  730MOL0     C98430   4.840   3.036   9.729 -0.3783 -0.5514 -0.3886
  730MOL0     C98431   4.841   3.194   9.729 -0.4980  0.8787 -0.1839
  730MOL0     N98432   4.980   3.237   9.767  0.1888  0.2032 -0.3357
  730MOL0     C98433   5.062   3.284   9.676  0.5508 -0.2680  0.9930
  730MOL0     C98434   5.184   3.302   9.736  0.1765 -0.3238 -0.2909
  730MOL0     C98435   5.309   3.365   9.678 -0.6164 -0.0121 -0.3922
  730MOL0     C98436   5.418   3.255   9.666  0.1675 -0.0071  0.3202
  730MOL0     C98437   5.546   3.327   9.623  0.5766  0.3283  0.1317
  730MOL0     C98438   5.675   3.242   9.640 -0.1158 -0.1063 -0.3558
  730MOL0     O98439   5.786   3.281   9.559  0.0073  0.2162 -0.4898
  730MOL0     C98440   5.883   3.332   9.636  0.4255 -0.1469  0.4936
  730MOL0     C98441   6.014   3.282   9.629  0.0319 -0.1228 -0.0828
  730MOL0     C98442   6.114   3.343   9.703 -1.0748  0.5437  0.0994
  730MOL0     C98443   6.098   3.458   9.777  0.1789  0.1906  0.6435
  730MOL0     C98444   6.204   3.523   9.853 -0.8301  0.2370  0.2140
  730MOL0     O98445   6.191   3.657   9.883  0.1757 -0.1731 -0.5033
  730MOL0     C98446   6.294   3.718   9.963 -0.7602 -0.0835  1.0126
  730MOL0     C98447   6.433   3.708   9.934  0.3721  0.3059  0.7087
  730MOL0     C98448   6.534   3.756  10.016 -0.7188 -0.7359 -0.1246
  730MOL0     C98449   6.501   3.831  10.129  0.6866 -0.3355 -0.2683
  730MOL0     O98450   6.590   3.893  10.206  0.1118  0.1657  0.2204
  730MOL0     C98451   6.725   3.904  10.147  0.7870  0.7816 -0.0778
  730MOL0     C98452   6.788   4.017  10.231  0.2190  0.2967  0.1527
  730MOL0     C98453   6.940   4.027  10.201  0.3500 -0.1988  0.2451
  730MOL0     C98454   6.975   4.137  10.104  0.6931  0.1023 -0.1311
  730MOL0     C98455   7.122   4.161  10.079 -0.6925  0.1787 -0.9623
  730MOL0     C98456   7.149   4.259   9.965 -0.0861  0.1103  0.3972
  730MOL0     C98457   7.154   4.404  10.023 -0.5943 -0.0160 -0.0421
  730MOL0     C98458   7.174   4.507   9.903  0.4211  0.6760 -0.3914
  730MOL0    Cl98459   7.160   4.676   9.968 -0.1772 -0.1990  0.1688
  730MOL0     C98460   6.365   3.845  10.152 -1.2182 -0.3356 -0.2386
  730MOL0     C98461   6.260   3.789  10.076 -0.8085  0.0165  0.6801
  730MOL0     O98462   6.300   3.457   9.882  0.0762 -0.0790 -0.6661
  730MOL0     C98463   5.965   3.509   9.777 -0.5432 -0.2600 -1.3806
  730MOL0     C98464   5.857   3.450   9.704 -0.2162 -0.3198 -0.3170
  730MOL0     N98465   5.164   3.264   9.870 -0.1950  0.4989 -0.2579
  730MOL0     N98466   5.042   3.221   9.888  0.5497  0.7112  0.7768
  730MOL0     C98467   3.894   2.641   9.483 -0.9073 -0.4538 -0.1934
  730MOL0     C98468   3.810   2.545   9.532 -0.8553  0.7524  0.2940
  730MOL0     C98469   3.683   2.145   9.712  0.4873  0.6256  0.1452
  730MOL0     C98470   3.708   2.023   9.777 -0.0649 -0.0064 -0.5217
  730MOL0     C98471   3.610   1.920   9.808 -0.8601 -0.9743 -0.3488
  730MOL0     C98472   3.481   1.941   9.766  0.6668 -0.2787 -0.3701
  730MOL0     O98473   3.378   1.847   9.777 -0.2089 -0.3164 -0.5284
  730MOL0     C98474   3.399   1.726   9.853 -0.5941 -0.8469 -0.9089
  730MOL0     C98475   3.282   1.624   9.827  0.5447 -0.4065  0.3788
  730MOL0     C98476   3.256   1.596   9.677  0.8882  0.3679 -0.2038
  730MOL0     C98477   3.124   1.554   9.655 -0.4449  0.5389  0.0232
  730MOL0     C98478   3.021   1.660   9.684  0.7046  0.6527 -0.2412
  730MOL0     C98479   2.930   1.736   9.723 -0.0795 -0.2213  0.2032
  730MOL0     C98480   3.449   2.062   9.702  0.6057 -0.3435 -0.5100
  730MOL0     C98481   3.550   2.158   9.671 -0.7116  0.0764  0.6191
  730MOL0     C98482   3.505   2.275   9.593  0.3581 -0.1342  0.5889
  730MOL0     H98483   4.014   2.422   9.769  1.1252 -1.9837 -1.6614
  730MOL0     H98484   4.156   2.574   9.684 -0.8874 -1.0832 -1.0004
  730MOL0     H98485   4.235   2.763   9.644  0.8534  0.3140 -0.0072
  730MOL0     H98486   4.320   2.762   9.481  0.1696  0.1304 -0.5476
  730MOL0     H98487   4.157   2.995   9.593  0.0992  1.7963 -1.9384
  730MOL0     H98488   4.258   2.986   9.445  2.2438  2.6451 -0.0677
  730MOL0     H98489   4.356   2.961   9.737  1.9939  1.6367  1.5898
  730MOL0     H98490   4.341   3.111   9.647  0.5822  0.1023 -0.1941
  730MOL0     H98491   4.521   2.884   9.544 -2.6576  1.1491 -2.3312
  730MOL0     H98492   4.495   3.041   9.484 -2.0661 -0.4183 -0.3840
  730MOL0     H98493   4.605   3.141   9.652  0.8873  0.0928 -1.7700
  730MOL0     H98494   4.576   3.005   9.769 -2.8152 -0.8931 -0.5506
  730MOL0     H98495   4.743   2.868   9.632 -0.0368 -0.8604 -0.1474
  730MOL0     H98496   4.762   2.998   9.521 -0.8886  1.6997 -0.8002
  730MOL0     H98497   4.939   2.992   9.715  0.2694  0.3461  1.0394
  730MOL0     H98498   4.812   3.008   9.831  2.3826 -1.5491  0.1716
  730MOL0     H98499   4.804   3.228   9.632 -1.9401 -0.5626 -0.1822
  730MOL0     H98500   4.773   3.238   9.802  0.2316 -0.2214  1.2099
  730MOL0     H98501   5.040   3.304   9.572  1.6848  0.1296  0.8115
  730MOL0     H98502   5.277   3.412   9.585  1.2231  1.2421 -0.4475
  730MOL0     H98503   5.345   3.439   9.751  0.1383 -0.2665 -0.4961
  730MOL0     H98504   5.431   3.195   9.757 -4.7498 -0.8097  0.7729
  730MOL0     H98505   5.381   3.192   9.585 -0.2765 -1.0113  1.2711
  730MOL0     H98506   5.563   3.414   9.687 -1.2542 -0.3117  1.5927
  730MOL0     H98507   5.532   3.371   9.523  1.1765 -0.4305 -0.2926
  730MOL0     H98508   5.648   3.141   9.608 -1.6541 -0.1750  1.0142
  730MOL0     H98509   5.712   3.225   9.741 -0.0542  2.6970  0.1572
  730MOL0     H98510   6.040   3.200   9.564  0.3772 -1.1051  1.2484
  730MOL0     H98511   6.213   3.301   9.693 -0.5786  1.8779 -0.9675
  730MOL0     H98512   6.465   3.647   9.850 -3.9761 -2.0642  0.4881
  730MOL0     H98513   6.635   3.756   9.976 -1.3471  1.0584 -1.8701
  730MOL0     H98514   6.783   3.814  10.166  2.5299  2.0909  1.1155
  730MOL0     H98515   6.722   3.939  10.043 -0.5379 -0.7929 -0.5999
  730MOL0     H98516   6.738   4.114  10.223  0.7056  0.4526 -1.2013
  730MOL0     H98517   6.787   3.985  10.336  1.2532 -0.6418 -0.0956
  730MOL0     H98518   6.994   4.045  10.295  0.0110  0.7920  0.2624
  730MOL0     H98519   6.990   3.936  10.167  0.3307 -0.6087  1.2736
  730MOL0     H98520   6.928   4.233  10.128  0.5101 -0.1091  0.3623
  730MOL0     H98521   6.942   4.094  10.008  1.0376 -1.6358  0.5046
  730MOL0     H98522   7.159   4.064  10.046 -2.7241 -0.7402 -0.6716
  730MOL0     H98523   7.173   4.190  10.171 -0.6015 -0.5242 -0.7906
  730MOL0     H98524   7.251   4.239   9.929 -0.3093 -1.5375  0.5927
  730MOL0     H98525   7.078   4.246   9.882 -0.0698  2.7395 -0.1189
  730MOL0     H98526   7.244   4.419  10.083  0.1283 -0.5641 -0.9528
  730MOL0     H98527   7.058   4.421  10.072 -0.8939 -0.4911 -0.4522
  730MOL0     H98528   7.274   4.508   9.859 -0.1243 -0.0964 -1.7138
  730MOL0     H98529   7.095   4.477   9.833  0.6206  0.2264 -0.4277
  730MOL0     H98530   6.341   3.920  10.227 -2.0856  1.7912 -2.5146
  730MOL0     H98531   6.157   3.810  10.104 -0.7069  1.5298  0.0199
  730MOL0     H98532   5.938   3.597   9.833 -0.5954  0.0699 -1.9123
  730MOL0     H98533   5.761   3.496   9.681 -0.2165 -0.1085  0.1057
  730MOL0     H98534   3.861   2.719   9.415 -1.8485 -1.4938 -0.9737
  730MOL0     H98535   3.711   2.537   9.486 -0.8765 -3.1056  0.6509
  730MOL0     H98536   3.805   1.999   9.821  0.5829 -0.1830 -1.9830
  730MOL0     H98537   3.642   1.826   9.851  1.7826 -1.1691 -2.4685
  730MOL0     H98538   3.407   1.758   9.958  1.3042  5.9992 -2.6322
  730MOL0     H98539   3.490   1.678   9.817  1.0969  0.9956  0.6409
  730MOL0     H98540   3.196   1.676   9.871  1.0855 -0.4019  1.4561
  730MOL0     H98541   3.281   1.529   9.880 -0.4294 -0.6559 -0.0620
  730MOL0     H98542   3.332   1.522   9.653  3.4590  1.7800  2.8487
  730MOL0     H98543   3.271   1.691   9.623  1.8638 -0.4737 -1.4818
  730MOL0     H98544   3.118   1.523   9.550  2.5210 -1.2368  0.2323
  730MOL0     H98545   3.100   1.465   9.714 -0.5567 -0.6780 -1.7612
  730MOL0     H98546   2.848   1.804   9.738 -0.0271  0.3872 -1.8259
  730MOL0     H98547   3.347   2.080   9.671 -0.1524 -0.4823  1.7840
  730MOL0     H98548   3.570   2.290   9.507 -2.2138 -1.2337 -1.7365
  730MOL0     H98549   3.411   2.257   9.540  1.7465  0.8044 -2.3908
  730MOL0     H98550   3.502   2.362   9.659  3.4270 -0.7911  1.7590
  731MOL0     O98551  10.995   9.978   6.504  0.0676  0.4000 -0.7044
  731MOL0     C98552  11.051   9.894   6.432 -0.1750  0.2618  0.2096
  731MOL0     O98553  11.193   9.883   6.413  0.2533  0.0695 -0.1070
  731MOL0     C98554  11.278   9.926   6.511 -0.3753 -0.2637  0.8164
  731MOL0     C98555  11.272   9.884   6.640  0.6132  0.6313  0.4118
  731MOL0     C98556  11.376   9.910   6.733  0.4064  0.1280 -0.8241
  731MOL0     C98557  11.484   9.981   6.695 -0.1973  0.3534 -0.3006
  731MOL0     O98558  11.600  10.010   6.775  0.0150 -0.0795  0.1789
  731MOL0     C98559  11.574  10.008   6.913  0.0953 -0.4988 -0.2787
  731MOL0     C98560  11.686  10.075   6.988  0.0485 -0.0847  0.7347
  731MOL0     C98561  11.675  10.029   7.127 -0.1906  0.0169  0.2190
  731MOL0     C98562  11.813  10.058   7.200  0.4850 -0.4566 -0.4998
  731MOL0     C98563  11.907   9.940   7.184  0.9935 -0.0515 -0.6163
  731MOL0     C98564  12.043   9.939   7.270  0.6615 -0.1437  0.0863
  731MOL0     C98565  12.110  10.075   7.259 -0.3206  0.0399  0.4723
  731MOL0     C98566  12.207  10.068   7.139 -0.0602 -0.6720  0.2538
  731MOL0     N98567  12.336  10.138   7.168  0.7430 -0.0039 -0.2312
  731MOL0     C98568  12.361  10.269   7.133  0.1532  0.0823  0.4203
  731MOL0     C98569  12.490  10.292   7.180  0.4284 -0.5324 -0.4738
  731MOL0     C98570  12.556  10.426   7.190  0.4251  1.1051 -0.0585
  731MOL0     C98571  12.703  10.415   7.231  0.3912 -0.3951  0.2875
  731MOL0     C98572  12.764  10.549   7.232 -0.4204  0.3925 -0.6781
  731MOL0     C98573  12.809  10.592   7.089 -0.2937 -1.3045 -0.8370
  731MOL0     O98574  12.873  10.722   7.102 -0.6425 -0.2852  0.1762
  731MOL0     C98575  13.009  10.742   7.119 -0.3964  0.6342  0.3212
  731MOL0     C98576  13.051  10.861   7.165  1.0203  0.3643  0.4585
  731MOL0     C98577  13.185  10.877   7.202  0.7131 -0.3421 -0.2920
  731MOL0     C98578  13.276  10.776   7.196  0.6763 -0.6156 -0.4509
  731MOL0     C98579  13.419  10.792   7.236 -0.2752 -0.6867  0.4702
  731MOL0     O98580  13.485  10.672   7.265 -0.2193  0.2678 -0.4509
  731MOL0     C98581  13.596  10.677   7.350 -0.0729 -0.7150  0.0175
  731MOL0     C98582  13.716  10.630   7.309 -0.2720 -0.6921  0.5096
  731MOL0     C98583  13.836  10.645   7.382 -0.4304 -0.9030  0.3291
  731MOL0     C98584  13.835  10.703   7.506 -0.6594  0.1273 -0.4016
  731MOL0     O98585  13.948  10.714   7.580 -0.4981  0.1309 -0.6693
  731MOL0     C98586  14.067  10.784   7.512 -0.3187 -0.0927 -0.1814
  731MOL0     C98587  14.206  10.732   7.574 -0.2197 -0.3317  0.2858
  731MOL0     C98588  14.259  10.593   7.518  0.5776 -0.4169 -0.5609
  731MOL0     C98589  14.158  10.478   7.546 -1.0793  0.1124 -0.0590
  731MOL0     C98590  14.233  10.335   7.551  0.4951  0.3713  0.3344
  731MOL0     C98591  14.148  10.210   7.537 -0.2075 -0.9179  0.4154
  731MOL0     C98592  14.140  10.143   7.677 -0.1980  0.8655  0.8679
  731MOL0     C98593  14.083   9.999   7.665  0.2742 -0.8086  0.0412
  731MOL0    Cl98594  14.208   9.877   7.623  0.3199 -0.2684 -0.2559
  731MOL0     C98595  13.714  10.746   7.551  0.1698  0.2430  0.7613
  731MOL0     C98596  13.594  10.736   7.479 -0.4278  0.0429  0.2301
  731MOL0     O98597  13.457  10.908   7.267  0.7265 -0.5034  0.0008
  731MOL0     C98598  13.238  10.641   7.162  0.4007 -1.2576  0.0738
  731MOL0     C98599  13.105  10.631   7.119  0.1814 -0.4884  0.5751
  731MOL0     N98600  12.532  10.170   7.232  0.9771  0.2199 -0.1347
  731MOL0     N98601  12.444  10.081   7.215  0.4836 -0.0170 -0.5179
  731MOL0     C98602  11.493  10.020   6.564  0.1381 -0.1117  0.2372
  731MOL0     C98603  11.389  10.006   6.469 -0.4787  0.0309 -0.6812
  731MOL0     C98604  10.952   9.796   6.366  0.4346 -0.4316  0.2292
  731MOL0     C98605  10.816   9.830   6.376 -0.0522 -0.1602 -0.0934
  731MOL0     C98606  10.721   9.743   6.316  0.1149  0.4415  0.2838
  731MOL0     C98607  10.761   9.632   6.244 -0.7345  0.6207  0.1027
  731MOL0     O98608  10.683   9.537   6.177  0.1560  0.1339 -0.4047
  731MOL0     C98609  10.558   9.574   6.115 -0.0117 -0.2157  0.9644
  731MOL0     C98610  10.578   9.608   5.964  0.4050  0.5255 -0.2444
  731MOL0     C98611  10.436   9.635   5.907  0.3427 -0.1295  0.1170
  731MOL0     C98612  10.386   9.774   5.944 -0.1275  0.5800 -0.4407
  731MOL0     C98613  10.461   9.888   5.889 -1.1218 -0.2396 -0.5808
  731MOL0     C98614  10.514   9.984   5.835 -0.1850  0.3134  0.9479
  731MOL0     C98615  10.896   9.599   6.237  0.1108 -0.1374 -0.3512
  731MOL0     C98616  10.989   9.683   6.298 -0.2062  0.1459 -0.2399
  731MOL0     C98617  11.139   9.642   6.269  0.5553 -0.1368 -0.0491
  731MOL0     H98618  11.189   9.818   6.661 -0.1232  1.0887 -0.9209
  731MOL0     H98619  11.361   9.866   6.832  0.6598  0.6513 -0.5474
  731MOL0     H98620  11.489  10.071   6.939  0.1303 -0.7385  0.4492
  731MOL0     H98621  11.557   9.907   6.952  2.1856 -1.0504 -0.6970
  731MOL0     H98622  11.687  10.185   6.980  1.2376  0.0017  1.7260
  731MOL0     H98623  11.775  10.041   6.934 -0.0346 -1.6819  1.5692
  731MOL0     H98624  11.658   9.921   7.136 -2.2380  0.2492 -0.4097
  731MOL0     H98625  11.600  10.087   7.181  0.9616  1.5151  0.2672
  731MOL0     H98626  11.861  10.151   7.168  1.9861  1.1712  5.3348
  731MOL0     H98627  11.791  10.073   7.306 -1.2266 -1.8684 -0.6010
  731MOL0     H98628  11.854   9.849   7.213 -0.3925  0.8755 -0.1440
  731MOL0     H98629  11.940   9.938   7.079 -1.1042  2.0180 -1.4003
  731MOL0     H98630  12.027   9.915   7.375  2.6173 -0.4429  0.3472
  731MOL0     H98631  12.102   9.850   7.247  2.5420  0.5969  1.7665
  731MOL0     H98632  12.176  10.070   7.346  0.5026  0.0082 -0.1406
  731MOL0     H98633  12.053  10.168   7.256 -0.7422 -0.1518  1.7306
  731MOL0     H98634  12.236   9.966   7.113  1.2032 -0.2514 -0.0905
  731MOL0     H98635  12.161  10.111   7.050 -0.7398  1.1708  1.4219
  731MOL0     H98636  12.290  10.339   7.090  0.7766 -0.7782 -2.2240
  731MOL0     H98637  12.548  10.476   7.093  0.3313 -3.5866 -2.7453
  731MOL0     H98638  12.501  10.476   7.271 -0.1067 -1.1511  1.0611
  731MOL0     H98639  12.695  10.371   7.331 -2.7195 -1.4999 -0.3282
  731MOL0     H98640  12.749  10.340   7.167  1.5144  2.2273 -2.1687
  731MOL0     H98641  12.857  10.543   7.290  0.0208  3.4724 -0.8642
  731MOL0     H98642  12.702  10.620   7.287  1.4121 -0.8847  3.4464
  731MOL0     H98643  12.725  10.614   7.022 -0.9172  1.5753  0.7552
  731MOL0     H98644  12.878  10.520   7.046  1.5033 -0.5233  0.6265
  731MOL0     H98645  12.985  10.948   7.170  0.0404 -0.4470  2.5737
  731MOL0     H98646  13.221  10.971   7.242 -0.7822  0.2667 -0.3269
  731MOL0     H98647  13.726  10.578   7.214 -0.0485  0.1018  0.0888
  731MOL0     H98648  13.932  10.611   7.346  0.3119  0.2572  1.1164
  731MOL0     H98649  14.067  10.762   7.405 -0.1283 -1.9570  0.1681
  731MOL0     H98650  14.058  10.892   7.532 -0.1206 -0.0107 -0.5404
  731MOL0     H98651  14.275  10.816   7.568 -0.5031  0.1094  2.2724
  731MOL0     H98652  14.180  10.726   7.680  2.2066  0.7855  1.0160
  731MOL0     H98653  14.292  10.585   7.413 -0.5929  2.5008 -1.2497
  731MOL0     H98654  14.352  10.572   7.572  0.4528 -0.5070 -0.3841
  731MOL0     H98655  14.091  10.493   7.460  0.2859  1.5729 -0.9134
  731MOL0     H98656  14.103  10.488   7.640  0.1517  2.7076  0.4734
  731MOL0     H98657  14.290  10.335   7.645 -0.5180  2.2357  0.9929
  731MOL0     H98658  14.291  10.335   7.458  0.1144 -1.0126  0.0772
  731MOL0     H98659  14.048  10.229   7.498 -0.7802 -3.6379  0.4138
  731MOL0     H98660  14.190  10.138   7.466 -2.8735 -1.0280 -1.1731
  731MOL0     H98661  14.084  10.207   7.746 -2.6689 -0.0446 -0.1572
  731MOL0     H98662  14.241  10.129   7.715  0.6305 -3.5721 -2.1994
  731MOL0     H98663  14.034   9.961   7.755 -2.1367  0.7668 -0.4887
  731MOL0     H98664  14.009   9.996   7.585  1.3828 -0.5217 -1.0161
  731MOL0     H98665  13.702  10.787   7.651  2.8017 -2.7183  2.4579
  731MOL0     H98666  13.511  10.796   7.514 -0.4282  0.7815 -0.9595
  731MOL0     H98667  13.298  10.552   7.146 -1.1197 -2.6071  1.4474
  731MOL0     H98668  13.076  10.540   7.067  0.7311  0.3415 -1.2841
  731MOL0     H98669  11.573  10.081   6.522 -1.1430 -0.2512 -2.7121
  731MOL0     H98670  11.398  10.041   6.366  0.4622  0.9414 -0.3075
  731MOL0     H98671  10.779   9.921   6.422 -1.9718 -1.6226  1.4213
  731MOL0     H98672  10.616   9.768   6.324  0.1691  0.4865  0.8609
  731MOL0     H98673  10.510   9.661   6.159 -2.8101  0.8754 -3.6289
  731MOL0     H98674  10.483   9.495   6.110 -0.5369  0.3280 -0.0009
  731MOL0     H98675  10.628   9.527   5.911  1.0694  0.7450  0.0389
  731MOL0     H98676  10.650   9.690   5.956 -0.2395  1.5182  2.8183
  731MOL0     H98677  10.368   9.557   5.944  1.2782 -1.5306 -1.0032
  731MOL0     H98678  10.435   9.630   5.798  2.4290 -0.2537  0.0758
  731MOL0     H98679  10.281   9.781   5.913 -1.2497 -0.6275  2.6752
  731MOL0     H98680  10.378   9.774   6.053  0.2420 -0.2924 -0.4087
  731MOL0     H98681  10.544  10.071   5.779  0.1735  0.2188  0.9885
  731MOL0     H98682  10.914   9.513   6.174  1.1881 -0.7335  0.7462
  731MOL0     H98683  11.137   9.543   6.223  2.7987  0.9152 -2.7349
  731MOL0     H98684  11.176   9.711   6.192  1.6372  1.4312  1.7655
  731MOL0     H98685  11.209   9.649   6.353  3.5666 -0.1275 -2.3806
  732MOL0     O98686   7.195  11.295   3.782 -0.1600 -0.1359  0.6154
  732MOL0     C98687   7.134  11.260   3.881 -0.3435  0.2411  0.6315
  732MOL0     O98688   7.190  11.223   4.002 -0.5355  0.0955 -0.2346
  732MOL0     C98689   7.312  11.276   4.029 -0.1341 -0.1700 -0.2397
  732MOL0     C98690   7.335  11.415   4.019 -0.4814  0.3198 -0.3144
  732MOL0     C98691   7.464  11.468   4.048  0.7071 -0.1046 -0.3071
  732MOL0     C98692   7.568  11.378   4.089 -0.0141 -1.1607  0.3413
  732MOL0     O98693   7.689  11.433   4.110 -0.0239  1.2888  0.2055
  732MOL0     C98694   7.809  11.370   4.057  0.3779  0.3171  0.1531
  732MOL0     C98695   7.913  11.472   4.021  0.0304  0.2875 -0.0433
  732MOL0     C98696   8.045  11.401   4.012  0.8378 -0.2194  0.2102
  732MOL0     C98697   8.155  11.478   3.944 -0.4317  0.3006 -0.7396
  732MOL0     C98698   8.283  11.387   3.938  0.1267 -0.3057 -0.5008
  732MOL0     C98699   8.350  11.378   4.080  0.3207 -1.0551 -0.4765
  732MOL0     C98700   8.466  11.274   4.080  0.4847  1.0253  0.5434
  732MOL0     C98701   8.535  11.280   4.218  0.6238 -0.7816  0.0024
  732MOL0     N98702   8.660  11.213   4.208  0.1755  0.0386  0.3231
  732MOL0     C98703   8.670  11.081   4.180  0.1089 -0.0136 -0.5249
  732MOL0     C98704   8.805  11.064   4.190  0.5856  0.3602 -0.1636
  732MOL0     C98705   8.871  10.936   4.174  0.5454 -0.5703 -0.3413
  732MOL0     C98706   9.021  10.946   4.184  0.0134 -0.3676  0.8571
  732MOL0     C98707   9.089  10.803   4.177  0.2019  0.6093  0.1895
  732MOL0     C98708   9.237  10.811   4.180  0.1356  0.8017 -0.0737
  732MOL0     O98709   9.294  10.890   4.293  0.6678  0.1808  0.4574
  732MOL0     C98710   9.351  10.821   4.400  0.3737 -0.2826  0.5575
  732MOL0     C98711   9.407  10.903   4.495 -0.0945 -0.4773 -0.8939
  732MOL0     C98712   9.458  10.842   4.613  0.6087 -0.3075  0.1307
  732MOL0     C98713   9.466  10.701   4.626  1.1291 -0.2852  0.1171
  732MOL0     C98714   9.544  10.646   4.739  0.9941  0.7408 -0.0953
  732MOL0     O98715   9.595  10.735   4.826 -0.0079 -0.0110  0.7029
  732MOL0     C98716   9.689  10.679   4.902 -0.1837 -0.2688 -0.2574
  732MOL0     C98717   9.819  10.718   4.891 -0.3377 -0.2419  0.7190
  732MOL0     C98718   9.926  10.658   4.951 -0.1298 -0.2534 -0.3487
  732MOL0     C98719   9.901  10.566   5.055  0.6428 -0.1147 -0.3120
  732MOL0     O98720  10.021  10.536   5.120  0.4646  0.5316  0.0755
  732MOL0     C98721  10.021  10.435   5.218  0.1243  0.1591 -0.6486
  732MOL0     C98722  10.155  10.436   5.295  1.5509  0.0777  0.0539
  732MOL0     C98723  10.279  10.407   5.218 -0.5032  0.5703 -0.5177
  732MOL0     C98724  10.389  10.382   5.317  0.5028  0.5481 -0.9523
  732MOL0     C98725  10.525  10.344   5.260  0.0801  0.3090 -0.1412
  732MOL0     C98726  10.635  10.343   5.367 -0.0495  0.7955  0.0526
  732MOL0     C98727  10.769  10.318   5.316  0.2150  0.6297 -0.0568
  732MOL0     C98728  10.890  10.382   5.393  0.4725  1.1086  0.5092
  732MOL0    Cl98729  10.911  10.326   5.563  0.0676 -0.1503  0.0853
  732MOL0     C98730   9.768  10.526   5.079  0.6562 -1.0110  0.1366
  732MOL0     C98731   9.660  10.594   5.007 -0.2123  0.7897 -0.2365
  732MOL0     O98732   9.533  10.525   4.753 -0.2707 -0.6760 -0.1007
  732MOL0     C98733   9.396  10.625   4.530  0.3918 -0.7722 -0.3873
  732MOL0     C98734   9.338  10.689   4.423  0.3016  0.1053  0.5863
  732MOL0     N98735   8.878  11.180   4.219  0.3420  0.6976  0.0689
  732MOL0     N98736   8.785  11.269   4.238 -1.0119  0.4942  0.2912
  732MOL0     C98737   7.541  11.237   4.092  0.7108 -1.1561  0.7552
  732MOL0     C98738   7.415  11.185   4.062  0.9542 -0.0258  0.2864
  732MOL0     C98739   6.990  11.244   3.869  0.2557 -0.2708 -1.1884
  732MOL0     C98740   6.921  11.258   3.996 -0.3228 -0.5269  0.5665
  732MOL0     C98741   6.778  11.261   4.003  0.3388 -0.4151  0.1377
  732MOL0     C98742   6.708  11.233   3.886 -0.2795 -0.3045 -0.1658
  732MOL0     O98743   6.578  11.198   3.888 -0.1719 -0.5695 -0.1589
  732MOL0     C98744   6.478  11.290   3.933 -0.3362  0.2031  0.2522
  732MOL0     C98745   6.459  11.415   3.845  0.0696 -0.4812  0.3050
  732MOL0     C98746   6.376  11.523   3.915  0.1770  0.0369  0.3283
  732MOL0     C98747   6.235  11.523   3.840 -1.4272 -0.5152 -0.7954
  732MOL0     C98748   6.175  11.658   3.872 -0.7936  0.5044  0.9290
  732MOL0     C98749   6.128  11.769   3.880  0.0021  0.1583  0.8876
  732MOL0     C98750   6.775  11.228   3.758 -0.7893 -0.6667  0.1121
  732MOL0     C98751   6.917  11.236   3.748  0.6830  0.5013 -0.0422
  732MOL0     C98752   6.980  11.217   3.617 -0.4970  0.1955 -0.0590
  732MOL0     H98753   7.247  11.477   4.009 -1.1371 -0.3154  1.1568
  732MOL0     H98754   7.469  11.576   4.037 -1.7417  0.1678  0.6461
  732MOL0     H98755   7.851  11.305   4.135  0.6791  0.0267 -0.2454
  732MOL0     H98756   7.784  11.316   3.966  1.7238 -0.3187  0.1276
  732MOL0     H98757   7.940  11.534   4.107  0.6380 -0.4085  0.2770
  732MOL0     H98758   7.870  11.539   3.946 -2.3757  0.9903  1.8104
  732MOL0     H98759   8.037  11.315   3.944  1.2493  2.0576 -2.9075
  732MOL0     H98760   8.078  11.370   4.112 -1.4460  2.2917  1.9029
  732MOL0     H98761   8.121  11.521   3.849 -1.2306 -1.5522 -1.3279
  732MOL0     H98762   8.185  11.562   4.007  3.0366 -1.4296  0.1802
  732MOL0     H98763   8.262  11.286   3.901 -1.9912 -1.1292  2.5377
  732MOL0     H98764   8.355  11.429   3.868  2.6147 -2.5159  0.5800
  732MOL0     H98765   8.394  11.477   4.097  0.9035 -1.5647  1.1741
  732MOL0     H98766   8.282  11.359   4.163  1.3779  2.1759  1.3071
  732MOL0     H98767   8.540  11.292   4.001 -0.9579  2.5221 -0.5445
  732MOL0     H98768   8.422  11.176   4.065  1.4123  0.5701  0.7166
  732MOL0     H98769   8.546  11.381   4.257  1.2618 -1.5125  1.7931
  732MOL0     H98770   8.478  11.230   4.297  2.3450 -0.1329  1.7086
  732MOL0     H98771   8.586  11.012   4.173 -2.9263  3.5827 -3.2333
  732MOL0     H98772   8.847  10.878   4.264  0.5800  0.8488  0.6108
  732MOL0     H98773   8.834  10.881   4.087  0.7367 -3.1449  1.0859
  732MOL0     H98774   9.067  11.011   4.109  1.9145  0.5774  2.7338
  732MOL0     H98775   9.042  10.992   4.281  1.2319  0.6064  0.1638
  732MOL0     H98776   9.056  10.762   4.081  0.3128  2.2846 -0.6041
  732MOL0     H98777   9.052  10.737   4.256 -0.8398 -0.2812 -0.9855
  732MOL0     H98778   9.266  10.867   4.091  1.2300 -0.4143 -0.5008
  732MOL0     H98779   9.276  10.711   4.161 -0.1580  0.7667 -0.5072
  732MOL0     H98780   9.417  11.010   4.483  0.5082 -0.2966  0.9015
  732MOL0     H98781   9.494  10.913   4.688 -0.4955 -1.0656  1.4220
  732MOL0     H98782   9.846  10.805   4.832 -1.5108 -0.6308 -0.4422
  732MOL0     H98783  10.027  10.696   4.945  0.1491 -1.1414 -1.7725
  732MOL0     H98784   9.937  10.448   5.286 -1.2136 -1.8457 -1.8320
  732MOL0     H98785  10.009  10.341   5.164 -1.8055  1.8141 -3.3706
  732MOL0     H98786  10.168  10.536   5.339  0.6553  0.0560  0.4098
  732MOL0     H98787  10.157  10.367   5.380  2.5736 -0.5956 -0.5006
  732MOL0     H98788  10.275  10.316   5.158  1.9061 -1.8815  2.7197
  732MOL0     H98789  10.302  10.490   5.150 -0.2828 -0.0578 -1.2242
  732MOL0     H98790  10.354  10.305   5.387  0.3387  1.2153 -0.2944
  732MOL0     H98791  10.406  10.466   5.385  1.1528 -0.6546  0.4169
  732MOL0     H98792  10.550  10.423   5.188  0.7306 -2.6936 -3.4564
  732MOL0     H98793  10.529  10.248   5.208  1.5345 -0.1787  0.8083
  732MOL0     H98794  10.647  10.441   5.414  0.7813  1.1262 -0.8149
  732MOL0     H98795  10.614  10.278   5.453 -1.2202  2.3965  1.0484
  732MOL0     H98796  10.786  10.340   5.211 -0.9559  0.8541 -0.2100
  732MOL0     H98797  10.786  10.210   5.322  2.1798  0.7477 -2.0963
  732MOL0     H98798  10.977  10.356   5.331  0.3262  0.8903  0.3976
  732MOL0     H98799  10.886  10.492   5.391 -1.0338  1.0726  0.4174
  732MOL0     H98800   9.734  10.459   5.158 -2.5196 -0.7864 -0.8997
  732MOL0     H98801   9.562  10.549   5.025  1.0976 -2.6977 -1.0679
  732MOL0     H98802   9.378  10.520   4.548 -1.9046  0.1134  3.7437
  732MOL0     H98803   9.271  10.625   4.366 -1.2154  0.9503  1.3569
  732MOL0     H98804   7.626  11.169   4.096 -0.3984 -2.7118 -0.4465
  732MOL0     H98805   7.388  11.081   4.057  1.3822 -0.0904 -1.7191
  732MOL0     H98806   6.963  11.284   4.092  0.8035  4.0175 -0.9382
  732MOL0     H98807   6.738  11.293   4.098  1.9963 -0.5199  0.9098
  732MOL0     H98808   6.496  11.310   4.039  5.2262 -1.4264 -0.0606
  732MOL0     H98809   6.381  11.240   3.930 -0.0668 -0.4290  1.5378
  732MOL0     H98810   6.410  11.389   3.750  1.5798 -0.3824 -0.5381
  732MOL0     H98811   6.559  11.454   3.827  0.7739 -1.8975  0.9869
  732MOL0     H98812   6.425  11.620   3.906  1.5075 -0.5264  1.2028
  732MOL0     H98813   6.375  11.502   4.022 -1.6339  0.1924  0.3824
  732MOL0     H98814   6.249  11.532   3.732  0.2178 -3.9446 -1.0045
  732MOL0     H98815   6.172  11.436   3.858 -0.1753 -1.8006 -2.3385
  732MOL0     H98816   6.086  11.865   3.905 -1.7094 -0.5573  0.9256
  732MOL0     H98817   6.717  11.225   3.666  0.0777  1.9185 -0.6131
  732MOL0     H98818   7.017  11.311   3.574 -1.7908  0.3156 -0.9655
  732MOL0     H98819   7.061  11.144   3.626 -0.0591  0.7686  0.8174
  732MOL0     H98820   6.904  11.182   3.547 -3.1807  3.2636  1.0519
  733MOL0     O98821   5.876  11.292   1.510  0.0399  0.0004 -0.1599
  733MOL0     C98822   5.820  11.271   1.609 -0.7546  0.5493  0.8798
  733MOL0     O98823   5.875  11.249   1.739  0.5805 -0.6840  0.8158
  733MOL0     C98824   6.009  11.209   1.750 -0.1953 -0.4661  0.8009
  733MOL0     C98825   6.089  11.271   1.851  1.1908 -0.4902  0.1176
  733MOL0     C98826   6.210  11.230   1.885 -0.7256  0.5706  0.2158
  733MOL0     C98827   6.278  11.133   1.810 -0.4426  0.2299  0.6872
  733MOL0     O98828   6.411  11.095   1.831  0.4376  0.2730  0.2382
  733MOL0     C98829   6.454  11.099   1.968 -1.1804  0.3035 -0.3893
  733MOL0     C98830   6.591  11.029   1.987 -0.3076  0.0556 -0.5485
  733MOL0     C98831   6.636  11.025   2.139 -0.6467  0.0963 -0.2293
  733MOL0     C98832   6.704  10.899   2.185 -0.9544  0.3229  0.3724
  733MOL0     C98833   6.829  10.866   2.097 -0.3249 -0.5203  0.4624
  733MOL0     C98834   6.896  10.726   2.136  0.4260  0.1167 -0.0410
  733MOL0     C98835   7.032  10.709   2.065  0.1478 -0.0610 -0.5908
  733MOL0     C98836   7.018  10.676   1.912  0.0165  0.3760 -0.3631
  733MOL0     N98837   6.973  10.535   1.896 -0.9765  0.3254  0.7581
  733MOL0     C98838   6.841  10.492   1.917  0.8022  0.2524 -0.6474
  733MOL0     C98839   6.851  10.360   1.918  0.0308  0.4742 -0.1085
  733MOL0     C98840   6.738  10.262   1.956  0.6977  0.2361 -1.2325
  733MOL0     C98841   6.739  10.256   2.107 -0.2361 -0.4131  0.9857
  733MOL0     C98842   6.644  10.140   2.151 -0.3232  0.7431  0.5917
  733MOL0     C98843   6.633  10.150   2.311 -0.2114 -0.2099 -0.1203
  733MOL0     O98844   6.744  10.088   2.382 -0.0572 -0.5259 -0.0403
  733MOL0     C98845   6.761  10.112   2.520  0.6175 -0.3634  0.3783
  733MOL0     C98846   6.885  10.071   2.581 -0.7694 -0.0707  0.6710
  733MOL0     C98847   6.908  10.093   2.716 -0.0095  0.7499  0.9279
  733MOL0     C98848   6.813  10.166   2.799  0.4426  0.2553  0.3519
  733MOL0     C98849   6.821  10.185   2.945  0.1067  0.0277  0.1655
  733MOL0     O98850   6.721  10.262   2.996 -0.0206 -0.1528  0.5025
  733MOL0     C98851   6.724  10.315   3.123  0.1163  1.0825 -0.4456
  733MOL0     C98852   6.846  10.368   3.174 -0.1633  0.4860  0.0497
  733MOL0     C98853   6.848  10.410   3.302 -0.3720  0.4547  0.7965
  733MOL0     C98854   6.729  10.420   3.382 -0.3329  0.1370  1.3601
  733MOL0     O98855   6.736  10.458   3.510  0.2360 -0.4471  0.2890
  733MOL0     C98856   6.623  10.444   3.586 -0.4740 -0.1127  0.3911
  733MOL0     C98857   6.662  10.456   3.736 -0.1598 -0.7280  0.0528
  733MOL0     C98858   6.710  10.598   3.770 -1.1228  0.0791 -0.7254
  733MOL0     C98859   6.778  10.603   3.905  0.1800 -0.0792  0.1063
  733MOL0     C98860   6.784  10.755   3.951 -0.1886  0.0878  0.5036
  733MOL0     C98861   6.905  10.843   3.898  0.4317 -0.1292  0.7517
  733MOL0     C98862   7.031  10.810   3.969  0.4618 -0.2671  0.5087
  733MOL0     C98863   7.159  10.839   3.891  0.3573  0.1446 -0.8068
  733MOL0    Cl98864   7.312  10.823   3.978  0.5546  0.5883 -0.1572
  733MOL0     C98865   6.605  10.381   3.325  0.0249 -0.0505 -0.1205
  733MOL0     C98866   6.611  10.332   3.196  0.3906 -0.0923  0.0049
  733MOL0     O98867   6.903  10.126   3.005 -0.6723  0.3511 -0.1770
  733MOL0     C98868   6.688  10.197   2.736 -0.1437  0.8051 -0.7816
  733MOL0     C98869   6.659  10.164   2.605  0.1709 -0.5955 -0.4206
  733MOL0     N98870   6.983  10.323   1.886  0.7522 -0.3845 -0.4898
  733MOL0     N98871   7.058  10.427   1.882  0.2968 -0.1377 -0.6075
  733MOL0     C98872   6.210  11.086   1.695  0.3727  0.1512  0.4292
  733MOL0     C98873   6.080  11.129   1.664  0.5353  0.0693  0.2161
  733MOL0     C98874   5.673  11.273   1.592 -0.8386  0.4886  0.0286
  733MOL0     C98875   5.600  11.241   1.712 -0.8303 -0.1339  0.9615
  733MOL0     C98876   5.464  11.256   1.710  1.0324  0.4254 -0.9826
  733MOL0     C98877   5.390  11.285   1.595 -0.2323 -0.5098  0.0309
  733MOL0     O98878   5.253  11.289   1.584  0.2080  0.6648 -0.7476
  733MOL0     C98879   5.168  11.189   1.655  0.7502 -0.0961  0.1635
  733MOL0     C98880   5.220  11.046   1.649  0.6988 -0.2058  0.1169
  733MOL0     C98881   5.118  10.948   1.707 -0.1772  0.1074 -0.5797
  733MOL0     C98882   5.104  10.953   1.860 -0.2501 -0.5450  0.8148
  733MOL0     C98883   5.025  10.855   1.941  0.7000 -0.1115 -0.7228
  733MOL0     C98884   4.961  10.769   1.996 -0.2622  0.2670 -0.0349
  733MOL0     C98885   5.458  11.330   1.487 -0.6341  1.7264  0.8625
  733MOL0     C98886   5.602  11.319   1.475 -0.1283  0.4458  0.0925
  733MOL0     C98887   5.663  11.352   1.348 -1.0111 -0.0745 -0.4061
  733MOL0     H98888   6.037  11.349   1.904 -1.1587 -1.2255 -0.9928
  733MOL0     H98889   6.248  11.262   1.981  2.8737  0.2056 -0.9029
  733MOL0     H98890   6.469  11.206   1.984 -0.4036  0.1915 -0.3369
  733MOL0     H98891   6.385  11.041   2.030 -2.3726  2.7754  0.7045
  733MOL0     H98892   6.672  11.084   1.937  1.7085 -1.9369  0.3642
  733MOL0     H98893   6.597  10.928   1.946  2.4615 -1.0960  2.2674
  733MOL0     H98894   6.553  11.058   2.203  0.3911  1.5640  0.4299
  733MOL0     H98895   6.713  11.102   2.153 -0.0630 -0.1669 -1.7373
  733MOL0     H98896   6.738  10.899   2.289 -1.0955  2.0576  0.4464
  733MOL0     H98897   6.636  10.814   2.179 -0.2404 -0.1882 -1.0297
  733MOL0     H98898   6.792  10.870   1.994  0.2610  0.8571  0.2884
  733MOL0     H98899   6.901  10.947   2.103 -0.4917 -0.3475  0.1980
  733MOL0     H98900   6.921  10.723   2.242 -0.7271  1.0564  0.2772
  733MOL0     H98901   6.828  10.644   2.111 -1.4318  1.8679 -1.0964
  733MOL0     H98902   7.095  10.636   2.116  2.4198  0.3394 -2.6326
  733MOL0     H98903   7.083  10.805   2.073 -2.6936  1.4776  0.6475
  733MOL0     H98904   6.946  10.743   1.864  1.2358  3.0690  1.3657
  733MOL0     H98905   7.113  10.692   1.860 -0.3989 -1.0492 -1.6442
  733MOL0     H98906   6.747  10.537   1.948 -0.5403 -2.3115 -0.6790
  733MOL0     H98907   6.648  10.305   1.912 -0.9460 -1.3145  0.4212
  733MOL0     H98908   6.765  10.164   1.914 -0.4642  0.1324 -1.7562
  733MOL0     H98909   6.842  10.246   2.141 -0.3364 -1.0744  1.1182
  733MOL0     H98910   6.697  10.352   2.137 -0.5565  0.3600 -1.7101
  733MOL0     H98911   6.679  10.040   2.122 -0.1282  0.4129  1.9064
  733MOL0     H98912   6.541  10.156   2.118  0.1338  2.7557  0.0175
  733MOL0     H98913   6.540  10.101   2.341 -0.6426 -1.0078 -2.5842
  733MOL0     H98914   6.633  10.252   2.349  2.0127 -0.2565  0.1626
  733MOL0     H98915   6.957  10.014   2.524  0.6641 -0.6945  2.9948
  733MOL0     H98916   7.003  10.057   2.754  0.4059  1.5555  0.6808
  733MOL0     H98917   6.929  10.366   3.104 -0.4979 -0.0884 -0.3350
  733MOL0     H98918   6.947  10.424   3.346  0.0160  1.0321 -0.2323
  733MOL0     H98919   6.560  10.527   3.553  0.1367  0.5216  0.7743
  733MOL0     H98920   6.554  10.360   3.576 -2.3692  1.5077 -0.8980
  733MOL0     H98921   6.585  10.437   3.811  0.5747  0.2591  1.0804
  733MOL0     H98922   6.749  10.393   3.758  2.5312  1.9154 -2.1298
  733MOL0     H98923   6.794  10.628   3.705 -0.3022  0.1245  0.3346
  733MOL0     H98924   6.631  10.672   3.756  0.1438  2.0949  2.0285
  733MOL0     H98925   6.877  10.558   3.913  1.1777  2.1815  0.9405
  733MOL0     H98926   6.707  10.561   3.978  1.2516  2.2352  2.6357
  733MOL0     H98927   6.791  10.745   4.060  2.4031 -1.6514  0.2399
  733MOL0     H98928   6.690  10.796   3.914  0.2727 -0.8180 -1.8350
  733MOL0     H98929   6.904  10.833   3.789  1.1189  3.0867  0.3425
  733MOL0     H98930   6.877  10.945   3.925  0.9763 -0.1630  1.4591
  733MOL0     H98931   7.022  10.704   3.995  1.5993 -0.1102  1.6270
  733MOL0     H98932   7.039  10.866   4.063  5.1602 -0.7152  0.6093
  733MOL0     H98933   7.153  10.764   3.811 -1.5761 -0.2847 -0.3028
  733MOL0     H98934   7.157  10.937   3.844 -1.4727  0.2543 -0.5482
  733MOL0     H98935   6.508  10.387   3.373  0.2972 -0.6298  0.5251
  733MOL0     H98936   6.523  10.284   3.154 -0.3334  2.3392 -1.5045
  733MOL0     H98937   6.605  10.247   2.784 -0.4109  0.7408 -1.1700
  733MOL0     H98938   6.563  10.188   2.561 -0.5911 -0.4531  1.2169
  733MOL0     H98939   6.276  11.028   1.632  1.7507  1.0556  0.9851
  733MOL0     H98940   6.035  11.089   1.574  0.3098 -1.1383  0.8443
  733MOL0     H98941   5.649  11.223   1.807  2.2901  4.4807  0.5286
  733MOL0     H98942   5.418  11.243   1.807  0.3073 -0.7190 -1.4661
  733MOL0     H98943   5.070  11.187   1.607  0.8389  1.9594 -0.1911
  733MOL0     H98944   5.155  11.233   1.754  0.4108 -0.1683  0.1513
  733MOL0     H98945   5.311  11.042   1.711  1.6698  0.0664 -1.2550
  733MOL0     H98946   5.246  11.007   1.550  0.3792  2.0183 -0.8926
  733MOL0     H98947   5.152  10.852   1.669  1.6050  0.4398  0.0848
  733MOL0     H98948   5.015  10.967   1.674 -0.7500 -1.3285  0.2967
  733MOL0     H98949   5.201  10.971   1.907  0.9819 -1.8615 -1.0993
  733MOL0     H98950   5.049  11.047   1.871 -2.0916 -1.3000 -1.3224
  733MOL0     H98951   4.906  10.685   2.034  0.3540 -1.5803 -2.8764
  733MOL0     H98952   5.398  11.360   1.402 -1.2486  0.2866  0.7624
  733MOL0     H98953   5.593  11.380   1.268  1.2010  1.3650 -1.9475
  733MOL0     H98954   5.721  11.442   1.369 -2.0561  0.0599  2.2538
  733MOL0     H98955   5.737  11.284   1.304  0.8828  1.1214  0.7997
  734MOL0     O98956   2.442   9.448   3.993  0.0594  0.0058  0.4482
  734MOL0     C98957   2.357   9.524   3.971  0.2567 -0.5345 -0.6463
  734MOL0     O98958   2.381   9.654   3.936  0.1746 -0.2369  0.1889
  734MOL0     C98959   2.496   9.726   3.945 -0.5589 -0.2088  1.0644
  734MOL0     C98960   2.600   9.693   4.025 -0.4672  0.2119 -0.2940
  734MOL0     C98961   2.714   9.773   4.018 -0.4371 -0.5957  0.4271
  734MOL0     C98962   2.718   9.892   3.940 -0.2175  0.0034  1.1037
  734MOL0     O98963   2.832   9.959   3.933 -0.8241 -0.5067  0.6779
  734MOL0     C98964   2.842  10.089   3.873  0.5659 -0.5850 -0.0882
  734MOL0     C98965   2.992  10.130   3.851  0.8047  0.2727 -0.0417
  734MOL0     C98966   3.066  10.133   3.987 -0.2860 -0.1473 -0.4081
  734MOL0     C98967   3.167  10.016   4.003  0.3739 -0.2073  0.1546
  734MOL0     C98968   3.259  10.029   4.126 -0.7089  0.4807  0.3402
  734MOL0     C98969   3.342   9.899   4.156  0.4817  0.3688  0.7706
  734MOL0     C98970   3.456   9.873   4.040 -0.8331 -0.0087 -0.1758
  734MOL0     C98971   3.554   9.988   4.021 -0.4800  0.2515 -0.1650
  734MOL0     N98972   3.597  10.039   4.150 -0.0037 -0.0134 -0.9455
  734MOL0     C98973   3.686   9.978   4.238 -0.0965 -0.3660  0.0987
  734MOL0     C98974   3.688  10.051   4.342  0.2215  0.5855  0.6795
  734MOL0     C98975   3.777  10.032   4.465  0.1710  0.0879  0.7700
  734MOL0     C98976   3.695   9.992   4.587 -0.3641  0.4032  0.8650
  734MOL0     C98977   3.771   9.959   4.713 -0.7444 -0.1592 -0.1353
  734MOL0     C98978   3.851  10.080   4.775  0.6078  0.6180  0.5356
  734MOL0     O98979   3.966  10.128   4.701  0.4483 -0.1736  0.5645
  734MOL0     C98980   4.080  10.046   4.675 -0.1414  0.1645 -0.7253
  734MOL0     C98981   4.122   9.929   4.741  0.7420  0.2687 -0.0640
  734MOL0     C98982   4.224   9.856   4.696  0.0650 -0.3674  0.4771
  734MOL0     C98983   4.320   9.904   4.603 -0.2981 -1.6211 -0.3234
  734MOL0     C98984   4.445   9.831   4.564 -0.4935 -0.1564  0.3330
  734MOL0     O98985   4.532   9.900   4.488 -0.3972  0.3585 -0.3342
  734MOL0     C98986   4.658   9.844   4.469  0.3269  0.8294 -1.0710
  734MOL0     C98987   4.675   9.742   4.377 -0.3257  0.0121  0.6442
  734MOL0     C98988   4.809   9.697   4.356 -1.2580 -0.5787  0.1223
  734MOL0     C98989   4.912   9.755   4.427 -0.3068  0.2211 -0.1362
  734MOL0     O98990   5.039   9.710   4.423 -0.4108 -0.8437 -0.0883
  734MOL0     C98991   5.064   9.584   4.364 -0.3618 -0.0655  0.5708
  734MOL0     C98992   5.211   9.557   4.386 -0.0368 -0.8454  0.0388
  734MOL0     C98993   5.290   9.664   4.309  0.3126  0.6834 -0.1027
  734MOL0     C98994   5.439   9.618   4.310  0.5297  0.2416  0.1303
  734MOL0     C98995   5.524   9.717   4.238 -0.1444 -0.1229  0.7779
  734MOL0     C98996   5.673   9.655   4.251 -0.0432  0.8067  0.2405
  734MOL0     C98997   5.774   9.733   4.158  0.2727  0.0787  0.0049
  734MOL0     C98998   5.904   9.661   4.145  0.8553  0.2685  0.2447
  734MOL0    Cl98999   6.029   9.743   4.069 -0.0656 -0.2822  0.3154
  734MOL0     C99000   4.890   9.855   4.518  0.1782 -0.0475  0.3901
  734MOL0     C99001   4.764   9.903   4.542  0.1328  0.0467  0.6567
  734MOL0     O99002   4.451   9.706   4.580  0.4232 -0.4113 -0.5201
  734MOL0     C99003   4.290  10.024   4.542  0.4057 -0.0601  1.3915
  734MOL0     C99004   4.167  10.088   4.572  0.1162 -0.1822  0.2983
  734MOL0     N99005   3.618  10.169   4.316 -0.0185  1.0398  1.1397
  734MOL0     N99006   3.569  10.167   4.198 -0.0105 -0.3725  0.2489
  734MOL0     C99007   2.600   9.930   3.863  0.0343  0.5267  0.8251
  734MOL0     C99008   2.495   9.840   3.871  0.6579  0.2719  0.1517
  734MOL0     C99009   2.225   9.476   3.946 -0.8639  0.1422 -0.2480
  734MOL0     C99010   2.149   9.546   3.856  0.8230  0.4736 -0.6315
  734MOL0     C99011   2.029   9.501   3.809 -1.4017  1.1886  0.6965
  734MOL0     C99012   1.963   9.399   3.870  0.2584  0.4192 -0.2497
  734MOL0     O99013   1.833   9.354   3.842 -0.5592 -0.3725  0.1934
  734MOL0     C99014   1.784   9.229   3.882  0.4271 -0.0277 -0.2623
  734MOL0     C99015   1.639   9.208   3.835  0.1033  0.4496  0.4386
  734MOL0     C99016   1.580   9.086   3.912 -0.0265 -0.3831  0.3330
  734MOL0     C99017   1.444   9.046   3.855 -0.0926 -0.2537 -0.4102
  734MOL0     C99018   1.355   8.984   3.956 -0.3472  0.1224 -0.2971
  734MOL0     C99019   1.275   8.939   4.040  0.0681 -1.1681 -0.4408
  734MOL0     C99020   2.041   9.327   3.957  0.3851 -0.5328 -1.1435
  734MOL0     C99021   2.170   9.364   3.999  0.1158  0.6768  0.0663
  734MOL0     C99022   2.234   9.298   4.128 -0.1058 -0.1459  0.1995
  734MOL0     H99023   2.587   9.603   4.085  0.5539  1.3559  1.7607
  734MOL0     H99024   2.805   9.738   4.067  0.2287 -0.7467 -0.8870
  734MOL0     H99025   2.786  10.113   3.782  0.4611  0.4597  0.2378
  734MOL0     H99026   2.800  10.155   3.950  0.1767 -3.2875  2.1849
  734MOL0     H99027   2.984  10.231   3.808 -3.8040  0.4744  0.7681
  734MOL0     H99028   3.050  10.062   3.788  0.6050 -0.1051  0.1839
  734MOL0     H99029   2.992  10.123   4.067 -0.4053  1.9272 -0.2002
  734MOL0     H99030   3.122  10.227   3.987 -0.9505  0.2514  0.0260
  734MOL0     H99031   3.102   9.929   4.013 -1.4452  0.9216 -1.1942
  734MOL0     H99032   3.235   9.997   3.919  0.4372 -3.2682  0.7831
  734MOL0     H99033   3.338  10.103   4.112  2.2586 -2.3135  1.3061
  734MOL0     H99034   3.185  10.055   4.203 -0.4360  2.4441 -0.0120
  734MOL0     H99035   3.394   9.891   4.252  0.6853 -0.9335  0.5773
  734MOL0     H99036   3.275   9.813   4.149  1.8006 -0.6049 -0.6821
  734MOL0     H99037   3.409   9.845   3.945  1.5971 -0.9958 -1.1809
  734MOL0     H99038   3.510   9.786   4.079 -1.4676 -1.0907 -1.6078
  734MOL0     H99039   3.640   9.964   3.958 -0.7386  0.0383 -0.4384
  734MOL0     H99040   3.497  10.063   3.966 -1.1196  0.2416  0.4619
  734MOL0     H99041   3.745   9.887   4.234  4.8040  2.3184  2.2159
  734MOL0     H99042   3.847   9.952   4.436 -1.0530 -0.7313 -0.0214
  734MOL0     H99043   3.833  10.124   4.484 -1.3766  0.9258  1.3996
  734MOL0     H99044   3.617  10.065   4.610 -0.3519  0.7159 -0.0273
  734MOL0     H99045   3.628   9.911   4.557  0.3609 -0.2729  1.0401
  734MOL0     H99046   3.846   9.884   4.686 -2.5836 -2.7750  1.4820
  734MOL0     H99047   3.700   9.917   4.785 -0.1870  0.9429  1.0986
  734MOL0     H99048   3.885  10.042   4.872 -0.6087 -0.2307  0.6485
  734MOL0     H99049   3.775  10.154   4.799  0.9929  1.3693 -0.5228
  734MOL0     H99050   4.068   9.890   4.827 -2.7189 -2.0364 -2.9839
  734MOL0     H99051   4.248   9.760   4.741  1.8903 -0.0979  0.1643
  734MOL0     H99052   4.585   9.716   4.322  0.1394 -0.1885 -0.0384
  734MOL0     H99053   4.813   9.611   4.289 -2.2615  1.5242 -2.8754
  734MOL0     H99054   4.997   9.506   4.400 -0.2806 -0.4662 -0.1216
  734MOL0     H99055   5.054   9.592   4.255  2.1592 -1.2330  0.1829
  734MOL0     H99056   5.222   9.571   4.494 -2.2367 -0.7598  0.2965
  734MOL0     H99057   5.237   9.457   4.351  0.5954 -1.1330  1.2822
  734MOL0     H99058   5.256   9.676   4.205 -2.7994  1.6787  0.9171
  734MOL0     H99059   5.275   9.759   4.361 -0.0893 -0.3501  1.7547
  734MOL0     H99060   5.446   9.522   4.259  0.0296 -0.7089  1.7801
  734MOL0     H99061   5.475   9.599   4.412  1.5169 -2.5947 -0.6638
  734MOL0     H99062   5.505   9.816   4.280  0.4175  1.4503 -2.3379
  734MOL0     H99063   5.490   9.719   4.134 -3.1786  0.1583  1.6665
  734MOL0     H99064   5.706   9.655   4.355 -1.1446  2.8778  0.6433
  734MOL0     H99065   5.668   9.550   4.220 -0.3478  0.1518  2.3490
  734MOL0     H99066   5.800   9.830   4.203  0.5259 -1.0050  2.3316
  734MOL0     H99067   5.731   9.746   4.058 -0.5004 -1.1519  0.1509
  734MOL0     H99068   5.939   9.628   4.244 -0.3615  1.0182  0.9546
  734MOL0     H99069   5.889   9.566   4.093  2.8493  0.5436 -0.9615
  734MOL0     H99070   4.980   9.881   4.573  0.8489  1.0661 -1.1631
  734MOL0     H99071   4.734   9.977   4.616  1.0834  1.8203 -0.6420
  734MOL0     H99072   4.354  10.066   4.465 -2.2345  0.1494 -0.8576
  734MOL0     H99073   4.144  10.180   4.519  0.1744  1.6577  3.2292
  734MOL0     H99074   2.596  10.025   3.810  0.3639  1.6645  2.7539
  734MOL0     H99075   2.405   9.862   3.816 -0.4296 -0.7827  1.4505
  734MOL0     H99076   2.180   9.640   3.812 -1.3075  0.5998 -2.0043
  734MOL0     H99077   1.987   9.557   3.727  0.2868  0.9761 -0.3471
  734MOL0     H99078   1.780   9.216   3.990  0.0300  0.9582 -0.1435
  734MOL0     H99079   1.850   9.149   3.846 -1.9217 -1.3886 -1.8291
  734MOL0     H99080   1.638   9.193   3.727 -0.6027 -0.6054  0.5754
  734MOL0     H99081   1.583   9.302   3.844  0.2825  0.7751 -1.4814
  734MOL0     H99082   1.579   9.110   4.018 -0.5929 -0.5083  0.3561
  734MOL0     H99083   1.645   9.000   3.891 -0.2870 -0.2969 -0.9103
  734MOL0     H99084   1.396   9.139   3.825  2.1756  2.8441  4.4045
  734MOL0     H99085   1.445   8.983   3.765  2.3066 -2.6104  1.0979
  734MOL0     H99086   1.214   8.895   4.117  0.1342 -1.2970 -0.4626
  734MOL0     H99087   1.993   9.246   4.012  1.3580 -1.7706 -2.0594
  734MOL0     H99088   2.314   9.227   4.104  0.0933 -0.3837  1.5135
  734MOL0     H99089   2.277   9.376   4.192 -1.6096  4.4160 -3.7106
  734MOL0     H99090   2.155   9.239   4.175 -1.2585  0.2085 -1.1955
  735MOL0     O99091   7.594   0.912   5.326 -0.0211  0.3334 -0.9981
  735MOL0     C99092   7.593   0.786   5.323  0.6722 -1.1115  0.3419
  735MOL0     O99093   7.697   0.707   5.281  0.3584 -0.2528  0.0198
  735MOL0     C99094   7.806   0.772   5.236 -0.2316  0.2505 -0.2397
  735MOL0     C99095   7.843   0.769   5.100  0.1582 -0.0110 -0.2839
  735MOL0     C99096   7.969   0.811   5.059 -0.0266 -0.1025  0.7270
  735MOL0     C99097   8.065   0.847   5.160 -1.2515 -0.3031  1.0253
  735MOL0     O99098   8.184   0.896   5.109  0.2831  1.0173 -0.2234
  735MOL0     C99099   8.267   0.970   5.191  0.7118 -1.2178  0.2345
  735MOL0     C99100   8.394   0.994   5.106 -0.3113  0.7246  0.0593
  735MOL0     C99101   8.490   1.107   5.149  0.1671  0.0128 -0.0207
  735MOL0     C99102   8.632   1.101   5.101 -0.2771 -0.3042 -0.5960
  735MOL0     C99103   8.675   1.119   4.955  0.1867 -0.0024 -0.2473
  735MOL0     C99104   8.822   1.093   4.939  0.0358 -0.2478 -0.7567
  735MOL0     C99105   8.878   1.098   4.794  0.3941 -0.0086 -0.3150
  735MOL0     C99106   8.827   0.985   4.707 -0.7445 -0.0994 -0.4175
  735MOL0     N99107   8.901   0.971   4.581 -0.0879 -0.2931  0.5259
  735MOL0     C99108   9.039   0.970   4.572 -0.2646 -0.1861 -0.8696
  735MOL0     C99109   9.060   0.983   4.441  0.3870 -0.6596 -0.1513
  735MOL0     C99110   9.197   1.012   4.378  0.6232 -0.6484 -0.8774
  735MOL0     C99111   9.220   1.157   4.328 -0.2742  0.1413  0.2955
  735MOL0     C99112   9.350   1.168   4.253 -0.1618 -0.0923 -0.5417
  735MOL0     C99113   9.347   1.297   4.167 -0.4122  1.3268  0.5549
  735MOL0     O99114   9.481   1.337   4.147  0.3074 -0.2351  0.4226
  735MOL0     C99115   9.558   1.258   4.068  0.3711 -0.7609  0.2172
  735MOL0     C99116   9.508   1.151   3.990  0.5524 -0.3087  0.6660
  735MOL0     C99117   9.609   1.068   3.934  0.0920 -0.2106  0.3268
  735MOL0     C99118   9.752   1.090   3.950  0.7159  0.1611  0.6615
  735MOL0     C99119   9.854   0.989   3.905  0.7369  1.4716  0.0122
  735MOL0     O99120   9.981   1.004   3.950  0.1192  0.0533 -0.6890
  735MOL0     C99121  10.081   0.935   3.892 -0.3870 -0.3844  0.1487
  735MOL0     C99122  10.188   0.898   3.973  0.1943 -0.0872 -0.2395
  735MOL0     C99123  10.297   0.828   3.921 -0.0676 -0.4133  0.8387
  735MOL0     C99124  10.300   0.777   3.793 -0.2520 -0.1075  0.1525
  735MOL0     O99125  10.404   0.695   3.761  0.0154  0.3355  0.6636
  735MOL0     C99126  10.386   0.605   3.652 -0.0778  0.9609 -0.8878
  735MOL0     C99127  10.527   0.548   3.626  0.3006 -0.1091  0.9898
  735MOL0     C99128  10.575   0.471   3.751  0.6009 -1.6946 -0.0686
  735MOL0     C99129  10.711   0.417   3.742 -0.1767  0.0748  0.6814
  735MOL0     C99130  10.762   0.356   3.870 -0.1793 -0.1961 -0.3887
  735MOL0     C99131  10.691   0.229   3.924  0.2906 -0.4217  0.3553
  735MOL0     C99132  10.714   0.183   4.071 -0.6054  0.8043  0.4792
  735MOL0     C99133  10.678   0.033   4.081 -0.2382 -0.1325  0.0685
  735MOL0    Cl99134  10.722  -0.030   4.242 -0.2930  0.2825 -0.3775
  735MOL0     C99135  10.186   0.809   3.707 -0.2379  0.2666 -0.5639
  735MOL0     C99136  10.083   0.893   3.754  1.0089  0.5018 -0.3106
  735MOL0     O99137   9.818   0.895   3.832  0.2564 -0.2849  0.0293
  735MOL0     C99138   9.783   1.216   4.005 -0.6379  0.3885 -0.1295
  735MOL0     C99139   9.687   1.296   4.067 -0.8554 -0.2961  0.5210
  735MOL0     N99140   8.941   0.983   4.357 -0.5069 -0.1982 -0.2991
  735MOL0     N99141   8.848   0.972   4.446  0.1556  0.0766 -0.3232
  735MOL0     C99142   8.033   0.843   5.293  0.8248 -0.5041 -1.0222
  735MOL0     C99143   7.905   0.804   5.332 -0.2226 -0.1119 -0.2641
  735MOL0     C99144   7.472   0.719   5.383 -0.5906  1.1759  0.0459
  735MOL0     C99145   7.495   0.592   5.434 -0.1255  0.6053 -0.8546
  735MOL0     C99146   7.391   0.524   5.493 -0.1935  0.7251 -0.1226
  735MOL0     C99147   7.262   0.571   5.501  0.9568 -0.8085 -0.7767
  735MOL0     O99148   7.164   0.488   5.555 -0.3786 -0.0046 -1.2681
  735MOL0     C99149   7.038   0.539   5.589  0.5651 -0.6094  0.4084
  735MOL0     C99150   6.940   0.416   5.609 -0.1420  0.0102  0.0616
  735MOL0     C99151   6.799   0.469   5.643  0.5408  0.3876  0.3696
  735MOL0     C99152   6.734   0.522   5.511 -0.7426  0.2005  0.3476
  735MOL0     C99153   6.754   0.665   5.481 -0.3789 -0.4596 -0.1729
  735MOL0     C99154   6.778   0.778   5.439 -0.3438 -0.1330 -0.0048
  735MOL0     C99155   7.229   0.694   5.439 -0.0612  0.4265 -0.8107
  735MOL0     C99156   7.336   0.758   5.379  1.1478 -0.6329 -0.5291
  735MOL0     C99157   7.298   0.893   5.300 -0.4038 -0.8424 -0.6252
  735MOL0     H99158   7.778   0.729   5.022 -0.9020  0.0074  0.5687
  735MOL0     H99159   7.996   0.819   4.954  2.4770  0.8952  1.3695
  735MOL0     H99160   8.225   1.069   5.212  2.5786  0.2242 -2.2043
  735MOL0     H99161   8.292   0.926   5.288  0.4732 -0.2486  0.7464
  735MOL0     H99162   8.359   1.009   5.004 -2.3236  2.0003  0.8800
  735MOL0     H99163   8.444   0.898   5.122 -0.6884  0.8465  2.4480
  735MOL0     H99164   8.483   1.110   5.258 -0.3620  0.1607 -0.0527
  735MOL0     H99165   8.464   1.210   5.120 -1.1213  0.4266  2.3321
  735MOL0     H99166   8.684   1.178   5.158  2.4784  0.6067 -4.0027
  735MOL0     H99167   8.669   1.002   5.129  2.7912  0.8829 -0.0766
  735MOL0     H99168   8.622   1.049   4.889 -1.7790  0.7132  0.4897
  735MOL0     H99169   8.656   1.222   4.923  1.8982  0.1367 -0.8984
  735MOL0     H99170   8.878   1.167   4.998  0.5302 -1.1483 -0.0642
  735MOL0     H99171   8.859   0.998   4.979  3.1284  0.1709 -2.2560
  735MOL0     H99172   8.986   1.104   4.810  0.1039  0.0905  1.9273
  735MOL0     H99173   8.855   1.194   4.748  0.1695  1.2506  2.2535
  735MOL0     H99174   8.837   0.898   4.772 -0.3987  0.6711  0.5737
  735MOL0     H99175   8.720   0.990   4.683 -0.8781  0.8940  0.3224
  735MOL0     H99176   9.113   0.966   4.652 -0.6290 -2.9052 -0.5741
  735MOL0     H99177   9.275   0.975   4.444 -1.0831  1.1697  2.3776
  735MOL0     H99178   9.205   0.955   4.285  2.2522 -1.1483 -0.4579
  735MOL0     H99179   9.135   1.180   4.263 -0.3842 -1.6760 -0.2795
  735MOL0     H99180   9.220   1.223   4.415 -0.2622 -1.4936  1.5905
  735MOL0     H99181   9.371   1.074   4.200  0.6317 -0.8085  0.9642
  735MOL0     H99182   9.424   1.173   4.333 -2.1377  2.0113  1.2840
  735MOL0     H99183   9.288   1.376   4.216 -3.2429 -0.9916  1.1753
  735MOL0     H99184   9.292   1.271   4.077 -0.3678  0.2178  0.8403
  735MOL0     H99185   9.403   1.122   3.980 -0.2277  2.1991  1.0082
  735MOL0     H99186   9.578   0.982   3.876  0.6144 -0.0743 -0.1685
  735MOL0     H99187  10.183   0.927   4.077  0.7900  0.0678 -0.2481
  735MOL0     H99188  10.383   0.803   3.983  1.5117  1.1897 -0.5853
  735MOL0     H99189  10.323   0.524   3.692  1.3320  1.0431  1.7460
  735MOL0     H99190  10.340   0.644   3.561  0.4484  1.8917 -0.7581
  735MOL0     H99191  10.525   0.487   3.535  0.7668  3.3481 -1.5328
  735MOL0     H99192  10.592   0.627   3.587  1.9813 -2.2396 -0.7368
  735MOL0     H99193  10.559   0.534   3.838  0.9831 -1.3334 -0.2572
  735MOL0     H99194  10.499   0.392   3.763  0.4140 -1.4382  0.4466
  735MOL0     H99195  10.782   0.491   3.704 -1.2001 -0.3099 -2.2815
  735MOL0     H99196  10.712   0.334   3.670  0.4295  0.8982 -0.2851
  735MOL0     H99197  10.750   0.432   3.948  0.3797  0.5310 -0.9916
  735MOL0     H99198  10.871   0.346   3.865 -0.1498 -0.4133  0.5633
  735MOL0     H99199  10.582   0.233   3.923  0.3018  0.6163 -1.1855
  735MOL0     H99200  10.726   0.149   3.858  0.0672  0.0515 -0.3613
  735MOL0     H99201  10.655   0.237   4.146 -2.3361 -3.0183  2.1443
  735MOL0     H99202  10.820   0.204   4.087 -0.4353 -0.4627  1.1675
  735MOL0     H99203  10.570   0.023   4.069 -0.4403 -0.7221  2.0225
  735MOL0     H99204  10.739  -0.019   4.007  2.4410  1.1123  1.2761
  735MOL0     H99205  10.188   0.788   3.601  3.2001  1.5291 -0.8873
  735MOL0     H99206  10.006   0.897   3.678 -1.3181 -2.1222  1.6681
  735MOL0     H99207   9.885   1.254   3.996 -0.5534 -0.2322 -2.1919
  735MOL0     H99208   9.721   1.388   4.113  1.1243 -0.6632 -0.1078
  735MOL0     H99209   8.096   0.873   5.376 -1.1641 -1.9728  1.1747
  735MOL0     H99210   7.878   0.804   5.438 -0.6022  0.3518 -0.3575
  735MOL0     H99211   7.595   0.550   5.449 -0.2662  0.7685  0.7297
  735MOL0     H99212   7.405   0.425   5.534  0.8497 -0.1384 -2.3964
  735MOL0     H99213   6.990   0.601   5.512 -1.6205 -0.5984  1.6885
  735MOL0     H99214   7.038   0.597   5.682  0.1378  1.8354 -1.0336
  735MOL0     H99215   6.973   0.356   5.694 -3.6769 -2.6363 -0.2079
  735MOL0     H99216   6.959   0.350   5.524  1.6589 -3.1303  2.6632
  735MOL0     H99217   6.810   0.552   5.714  1.4341 -1.3244  2.3250
  735MOL0     H99218   6.733   0.392   5.683  2.0658 -1.0819  0.1463
  735MOL0     H99219   6.768   0.459   5.428 -0.5462  0.4255  0.2545
  735MOL0     H99220   6.627   0.511   5.528 -1.0320  1.5708 -0.4176
  735MOL0     H99221   6.802   0.879   5.413 -0.9324 -0.4786 -2.0102
  735MOL0     H99222   7.133   0.745   5.444  0.4696  1.3639  1.6278
  735MOL0     H99223   7.193   0.921   5.293  0.2485  2.6124  1.2081
  735MOL0     H99224   7.351   0.969   5.358 -0.4779 -1.2203 -0.0466
  735MOL0     H99225   7.347   0.901   5.203  0.5840 -0.3160 -0.1035
  736MOL0     O99226   3.174   4.815   2.062  0.0160 -0.5625 -0.2481
  736MOL0     C99227   3.179   4.871   2.165  0.1926 -0.2513 -0.2602
  736MOL0     O99228   3.273   4.961   2.200  0.3250  0.5841  0.5753
  736MOL0     C99229   3.394   4.966   2.141 -0.4993  0.8312 -0.5617
  736MOL0     C99230   3.493   4.869   2.160  0.4138 -0.4049  0.5857
  736MOL0     C99231   3.628   4.896   2.114 -0.5856  0.0434 -0.5761
  736MOL0     C99232   3.654   5.024   2.057 -0.7837 -0.0330  0.5674
  736MOL0     O99233   3.784   5.038   2.028 -0.3256  0.3981 -0.0061
  736MOL0     C99234   3.813   5.152   1.951 -0.1654  0.1421 -0.3566
  736MOL0     C99235   3.968   5.167   1.937 -0.6166 -0.3209 -0.4373
  736MOL0     C99236   4.051   5.132   2.065  0.1226  0.3031  0.1408
  736MOL0     C99237   4.189   5.131   2.002  0.1770  0.3851  0.3537
  736MOL0     C99238   4.312   5.140   2.092 -0.3271 -0.6040  0.1738
  736MOL0     C99239   4.445   5.139   2.014  0.5431  0.3770  0.1880
  736MOL0     C99240   4.559   5.164   2.111 -0.2132  0.5114  0.0302
  736MOL0     C99241   4.683   5.184   2.027 -0.6796 -0.3832  0.2961
  736MOL0     N99242   4.747   5.056   1.984 -0.2168 -0.4047 -0.5127
  736MOL0     C99243   4.861   4.991   2.031 -0.1348 -0.2172 -0.3952
  736MOL0     C99244   4.891   4.897   1.928 -0.8532 -0.0684 -0.6365
  736MOL0     C99245   5.006   4.800   1.925 -0.3891  0.1020 -0.4565
  736MOL0     C99246   5.127   4.867   1.988 -0.8777 -0.0626 -0.1850
  736MOL0     C99247   5.242   4.765   1.986  0.3047 -0.0041  0.6830
  736MOL0     C99248   5.378   4.807   2.033 -0.5675 -0.3564  0.3231
  736MOL0     O99249   5.434   4.901   1.934 -0.1377  0.5502 -0.0587
  736MOL0     C99250   5.561   4.945   1.957 -1.6070  0.2571  0.9874
  736MOL0     C99251   5.611   5.036   1.868 -0.5472  0.0783 -0.0352
  736MOL0     C99252   5.735   5.091   1.883 -0.7258 -0.1550 -0.0305
  736MOL0     C99253   5.824   5.041   1.986 -0.2581  0.7935  0.5323
  736MOL0     C99254   5.961   5.095   1.997  0.0971 -0.3038  0.0815
  736MOL0     O99255   6.039   5.041   2.105 -0.5329 -0.0490  0.3213
  736MOL0     C99256   6.162   5.091   2.130  0.1645 -0.4454 -0.3675
  736MOL0     C99257   6.261   5.106   2.037 -0.3737 -0.5853 -0.8461
  736MOL0     C99258   6.397   5.120   2.070 -0.8159 -1.1468  0.7805
  736MOL0     C99259   6.435   5.140   2.202  0.3691 -0.0218  0.3111
  736MOL0     O99260   6.568   5.164   2.224 -0.1350 -0.3908  0.1727
  736MOL0     C99261   6.608   5.236   2.338 -0.5497  0.4619  0.4371
  736MOL0     C99262   6.598   5.384   2.309  0.1053 -0.2157  0.3443
  736MOL0     C99263   6.664   5.477   2.407  0.1916 -0.1652 -0.3089
  736MOL0     C99264   6.659   5.627   2.357  0.3517 -0.3012  0.1963
  736MOL0     C99265   6.773   5.714   2.413  0.7537  0.4374 -1.1968
  736MOL0     C99266   6.906   5.685   2.346  0.3311  0.0786  0.1844
  736MOL0     C99267   7.014   5.788   2.386 -0.0171 -0.8913  0.9820
  736MOL0     C99268   7.137   5.783   2.294  0.2235 -0.6810 -0.2448
  736MOL0    Cl99269   7.252   5.877   2.393  0.2742  0.1007 -0.3691
  736MOL0     C99270   6.333   5.145   2.299 -1.0688  0.5806 -1.0793
  736MOL0     C99271   6.201   5.114   2.265 -0.3233 -0.3104 -0.1832
  736MOL0     O99272   5.993   5.197   1.931 -0.0133 -0.1895  0.2312
  736MOL0     C99273   5.771   4.945   2.081  0.1922 -0.2963 -0.2207
  736MOL0     C99274   5.641   4.905   2.061  0.0846 -0.3706 -0.2580
  736MOL0     N99275   4.786   4.897   1.843  0.4821 -0.4810  0.7245
  736MOL0     N99276   4.701   4.988   1.872 -0.5277  0.6212  0.3328
  736MOL0     C99277   3.555   5.123   2.059  0.0716 -0.7803 -0.2047
  736MOL0     C99278   3.430   5.095   2.101 -0.1531 -0.2333  0.0678
  736MOL0     C99279   3.055   4.855   2.254 -0.3375 -0.6411  0.5136
  736MOL0     C99280   2.942   4.799   2.191  0.6335  0.6385 -0.6036
  736MOL0     C99281   2.826   4.780   2.256  0.8505 -0.1187  0.3887
  736MOL0     C99282   2.801   4.826   2.382 -1.1326  0.1344 -0.4426
  736MOL0     O99283   2.678   4.804   2.443 -0.1448  0.7691  0.9326
  736MOL0     C99284   2.579   4.901   2.413 -0.0554  0.3608  0.1450
  736MOL0     C99285   2.467   4.909   2.515 -0.0921  0.2321  0.6289
  736MOL0     C99286   2.361   5.005   2.465  0.4702 -0.2702 -0.1887
  736MOL0     C99287   2.255   5.012   2.578  0.9368  0.3138 -0.5619
  736MOL0     C99288   2.153   5.109   2.535 -0.3486  0.0070 -0.0798
  736MOL0     C99289   2.077   5.197   2.509 -0.4036 -0.8136  0.3208
  736MOL0     C99290   2.911   4.872   2.455  0.5219  0.0537  0.1139
  736MOL0     C99291   3.037   4.888   2.389  0.8266 -0.0183  0.5361
  736MOL0     C99292   3.150   4.927   2.478 -0.1435 -0.1761  0.2306
  736MOL0     H99293   3.462   4.779   2.211 -0.0498 -0.1959  0.6807
  736MOL0     H99294   3.705   4.820   2.108 -3.1467 -2.6202 -2.4586
  736MOL0     H99295   3.769   5.132   1.853  0.8545  0.0360 -0.8136
  736MOL0     H99296   3.773   5.242   1.999 -2.7460 -0.5062 -1.1687
  736MOL0     H99297   3.976   5.273   1.910 -1.6429  0.3198  1.5963
  736MOL0     H99298   4.007   5.104   1.857 -0.3692 -0.7670  0.0266
  736MOL0     H99299   4.022   5.036   2.110 -4.2633  0.9031 -0.9700
  736MOL0     H99300   4.042   5.202   2.149 -2.3945  0.3219 -0.0631
  736MOL0     H99301   4.198   5.041   1.941  1.2620  0.4893  0.3364
  736MOL0     H99302   4.199   5.209   1.927  0.4344 -0.9846 -1.0998
  736MOL0     H99303   4.309   5.224   2.162 -1.5276  0.8177 -1.5022
  736MOL0     H99304   4.311   5.054   2.161  0.6785  0.1226  1.1432
  736MOL0     H99305   4.454   5.040   1.968  0.8194  0.2826  0.4462
  736MOL0     H99306   4.427   5.211   1.933 -0.2058 -0.5923 -0.5363
  736MOL0     H99307   4.566   5.078   2.177 -2.7768  1.5961  1.8787
  736MOL0     H99308   4.535   5.242   2.184  1.2040 -0.0488  1.1383
  736MOL0     H99309   4.654   5.241   1.938  0.3075 -0.2248  0.0600
  736MOL0     H99310   4.750   5.245   2.087 -1.5260 -0.0434  0.9004
  736MOL0     H99311   4.935   5.012   2.107  0.2360 -0.5014 -0.6716
  736MOL0     H99312   4.972   4.707   1.972 -1.8112 -0.2009 -1.9651
  736MOL0     H99313   5.013   4.766   1.821 -1.5482  0.9676 -0.8400
  736MOL0     H99314   5.161   4.953   1.930 -0.6917 -1.2305 -1.8973
  736MOL0     H99315   5.117   4.889   2.094 -0.2028 -0.0783 -0.1125
  736MOL0     H99316   5.243   4.723   1.885  2.6151 -1.4038  1.2042
  736MOL0     H99317   5.216   4.672   2.038  1.1181 -1.8648 -2.0113
  736MOL0     H99318   5.439   4.719   2.054 -1.9684 -0.7213  3.3024
  736MOL0     H99319   5.352   4.857   2.127  0.2250 -0.0779  0.4038
  736MOL0     H99320   5.548   5.050   1.780  0.5258  0.5614 -0.7503
  736MOL0     H99321   5.759   5.168   1.809 -0.8027  0.1962  0.3061
  736MOL0     H99322   6.226   5.079   1.938 -2.2618  1.2060 -0.7493
  736MOL0     H99323   6.474   5.120   1.994 -0.6737 -0.7329  0.9218
  736MOL0     H99324   6.556   5.201   2.428 -3.8250 -1.4208 -1.9773
  736MOL0     H99325   6.711   5.204   2.355 -1.0184 -1.1939  0.3363
  736MOL0     H99326   6.652   5.392   2.214 -0.0171 -2.7709 -0.0173
  736MOL0     H99327   6.494   5.417   2.313  0.3716  0.7550  5.0554
  736MOL0     H99328   6.639   5.469   2.513  3.5573  4.6159  1.2070
  736MOL0     H99329   6.772   5.461   2.395  0.5094  0.7838  1.1144
  736MOL0     H99330   6.563   5.673   2.383  1.3285  2.7202 -1.1287
  736MOL0     H99331   6.670   5.630   2.249  1.0208 -0.3538  0.2602
  736MOL0     H99332   6.794   5.696   2.519  1.3930  2.8315 -0.8583
  736MOL0     H99333   6.736   5.814   2.389 -1.8572 -0.7131 -2.3256
  736MOL0     H99334   6.951   5.587   2.360  1.0469  0.5011  0.9534
  736MOL0     H99335   6.884   5.693   2.239  0.6777  1.0106  0.1725
  736MOL0     H99336   7.044   5.773   2.490  0.1426  0.1195  1.0919
  736MOL0     H99337   6.981   5.892   2.383  2.5808 -0.0139 -0.2558
  736MOL0     H99338   7.169   5.679   2.284  1.0975 -0.4624  0.2069
  736MOL0     H99339   7.123   5.825   2.194 -0.3256 -0.0324  0.0951
  736MOL0     H99340   6.360   5.150   2.403  0.6000 -1.0758 -1.3907
  736MOL0     H99341   6.126   5.097   2.342 -2.7827  0.1969 -2.3626
  736MOL0     H99342   5.828   4.917   2.169 -0.9659  1.1401  1.0651
  736MOL0     H99343   5.603   4.841   2.141 -1.4140 -0.0743 -0.6920
  736MOL0     H99344   3.574   5.220   2.016  2.5512 -0.6145  1.0456
  736MOL0     H99345   3.348   5.166   2.090 -0.7381 -0.5700  1.8730
  736MOL0     H99346   2.939   4.768   2.087 -3.6276 -2.4388  0.1917
  736MOL0     H99347   2.739   4.744   2.200  1.3594  0.8854 -1.1048
  736MOL0     H99348   2.541   4.880   2.312 -0.2191  2.3535 -0.2404
  736MOL0     H99349   2.620   5.002   2.410 -2.7130  1.5183 -0.8709
  736MOL0     H99350   2.506   4.931   2.614 -0.9444 -3.5298  1.9422
  736MOL0     H99351   2.418   4.811   2.520 -0.5846  0.2764 -1.9605
  736MOL0     H99352   2.315   4.963   2.375  1.0343 -4.6131  1.3277
  736MOL0     H99353   2.409   5.101   2.445 -1.9176  1.0251 -0.0401
  736MOL0     H99354   2.202   4.920   2.601 -1.6430  1.8270 -0.0203
  736MOL0     H99355   2.288   5.061   2.671 -1.9583 -0.3117  0.8873
  736MOL0     H99356   2.014   5.279   2.479  0.5765 -0.1774 -0.0414
  736MOL0     H99357   2.914   4.891   2.561 -0.1066 -2.3877  0.6309
  736MOL0     H99358   3.239   4.900   2.419 -0.1308  0.9987 -0.3240
  736MOL0     H99359   3.155   5.035   2.498 -0.2915 -0.3339  1.1528
  736MOL0     H99360   3.141   4.871   2.571  2.1151 -1.9439 -0.5115
  737MOL0     O99361   0.919   7.851   5.381  0.2226  0.7931  0.2734
  737MOL0     C99362   0.877   7.863   5.267 -1.0432  0.0495  0.5607
  737MOL0     O99363   0.953   7.829   5.149  0.3733 -0.4509  0.2621
  737MOL0     C99364   1.061   7.746   5.173 -0.6752 -0.5093 -1.0621
  737MOL0     C99365   1.182   7.810   5.166  0.0201  0.1200 -0.4054
  737MOL0     C99366   1.305   7.745   5.183 -0.0474 -0.9446  0.7051
  737MOL0     C99367   1.299   7.605   5.203 -0.6251 -0.3401  0.2677
  737MOL0     O99368   1.422   7.556   5.235 -0.0471  0.6306 -0.1666
  737MOL0     C99369   1.435   7.427   5.293  0.8697 -0.0600  1.3843
  737MOL0     C99370   1.579   7.389   5.329 -1.0600 -0.2984 -0.6827
  737MOL0     C99371   1.581   7.262   5.421  0.2268 -0.0220 -0.1477
  737MOL0     C99372   1.718   7.196   5.428 -0.3231  0.0829 -0.0189
  737MOL0     C99373   1.703   7.051   5.473  0.1974 -0.1195  0.4322
  737MOL0     C99374   1.847   6.995   5.487 -0.0565  0.8185 -0.4017
  737MOL0     C99375   1.847   6.854   5.549 -0.2889 -1.0801 -0.5116
  737MOL0     C99376   1.818   6.738   5.450 -0.1412  0.5398  0.2128
  737MOL0     N99377   1.821   6.603   5.512 -0.2788  0.2194  0.2949
  737MOL0     C99378   1.919   6.560   5.594 -0.2964  0.9061 -0.5292
  737MOL0     C99379   1.874   6.447   5.650 -0.0879 -0.3909 -0.4669
  737MOL0     C99380   1.948   6.355   5.754  0.3090 -0.3570  0.1695
  737MOL0     C99381   2.030   6.239   5.691  0.8876  0.5460 -0.0084
  737MOL0     C99382   1.947   6.140   5.599  0.0013  0.3744 -0.4120
  737MOL0     C99383   1.834   6.050   5.665 -0.0717  0.1409 -0.4133
  737MOL0     O99384   1.864   5.986   5.799 -0.7326 -0.5015 -0.0784
  737MOL0     C99385   1.925   5.863   5.797 -0.4692 -0.8657 -0.2757
  737MOL0     C99386   1.869   5.752   5.739  0.1924  0.4383 -0.2078
  737MOL0     C99387   1.931   5.629   5.758  0.2251  0.6370  0.0714
  737MOL0     C99388   2.045   5.610   5.836 -0.3142 -0.4532  0.5940
  737MOL0     C99389   2.125   5.477   5.851 -0.0316 -1.3552  0.6072
  737MOL0     O99390   2.250   5.486   5.901  0.0877 -0.1210 -0.0559
  737MOL0     C99391   2.339   5.377   5.909  0.1139 -0.3406 -0.1467
  737MOL0     C99392   2.304   5.252   5.968  0.6528 -0.3704 -0.3433
  737MOL0     C99393   2.397   5.148   5.977 -0.5917 -0.2902 -0.5492
  737MOL0     C99394   2.532   5.165   5.937  0.2601 -0.6085  0.2228
  737MOL0     O99395   2.625   5.063   5.949  0.5064 -0.2622  0.2778
  737MOL0     C99396   2.708   5.064   6.067 -0.0152 -0.9129 -0.1623
  737MOL0     C99397   2.838   4.982   6.038  0.0557 -0.0314  1.2333
  737MOL0     C99398   2.926   5.066   5.937 -0.1985 -0.2045  0.9441
  737MOL0     C99399   3.018   5.172   6.011  0.0293  0.7279 -0.1363
  737MOL0     C99400   3.112   5.129   6.124  0.1689  0.6373 -0.3321
  737MOL0     C99401   3.234   5.051   6.066 -0.2724  0.1611 -0.2491
  737MOL0     C99402   3.343   5.037   6.166  0.4765  0.5286  1.4093
  737MOL0     C99403   3.455   4.979   6.085  0.3138  0.7629  0.1061
  737MOL0    Cl99404   3.420   4.808   6.046  0.2679  0.1250  0.1355
  737MOL0     C99405   2.563   5.290   5.880 -0.8815  0.1068 -0.4970
  737MOL0     C99406   2.469   5.394   5.875 -0.4363  0.2845 -0.5310
  737MOL0     O99407   2.083   5.379   5.794 -0.0208 -0.1384  0.3778
  737MOL0     C99408   2.101   5.731   5.886 -0.5722  0.1320 -0.3170
  737MOL0     C99409   2.049   5.857   5.863  0.1646  0.1914  0.3323
  737MOL0     N99410   1.749   6.426   5.605  0.1237  0.4261  0.4105
  737MOL0     N99411   1.710   6.522   5.524 -0.3061 -0.5790  0.0758
  737MOL0     C99412   1.177   7.539   5.201  0.2452  0.8591 -0.1704
  737MOL0     C99413   1.055   7.609   5.186  1.0091 -0.8953  0.0473
  737MOL0     C99414   0.737   7.923   5.239  0.6191  0.5916  0.4073
  737MOL0     C99415   0.701   7.913   5.104 -0.0519 -0.0443 -0.5464
  737MOL0     C99416   0.592   7.978   5.054 -0.1534 -0.3188 -0.5846
  737MOL0     C99417   0.510   8.057   5.143  0.1756  0.4437 -0.4766
  737MOL0     O99418   0.399   8.123   5.109 -0.7623  0.4559 -0.0023
  737MOL0     C99419   0.360   8.131   4.967 -0.6935  0.4323  0.5792
  737MOL0     C99420   0.218   8.176   4.944 -0.5739  0.6609  0.1030
  737MOL0     C99421   0.216   8.327   4.960 -0.2689 -1.3779  0.2629
  737MOL0     C99422   0.070   8.380   4.939  0.7991  0.9575 -0.2848
  737MOL0     C99423   0.061   8.520   4.919 -0.7002 -0.1962  0.3106
  737MOL0     C99424   0.056   8.639   4.896  0.0745  0.1895 -0.1009
  737MOL0     C99425   0.536   8.057   5.281 -0.4863 -0.4498 -0.0325
  737MOL0     C99426   0.654   7.993   5.326  0.0447 -0.0910  0.2109
  737MOL0     C99427   0.680   8.005   5.475  0.7433  0.0800  0.1649
  737MOL0     H99428   1.195   7.914   5.137 -1.4079  0.1050 -1.2557
  737MOL0     H99429   1.403   7.791   5.185  0.5115 -2.0867  0.2532
  737MOL0     H99430   1.368   7.409   5.378 -0.2179  0.2179  0.6090
  737MOL0     H99431   1.398   7.353   5.222  0.8267  0.6692  0.6365
  737MOL0     H99432   1.617   7.476   5.384 -2.7322  0.0524 -0.0241
  737MOL0     H99433   1.631   7.377   5.234 -1.0476  0.6398 -0.8076
  737MOL0     H99434   1.503   7.192   5.391 -2.0806  2.5512 -0.5969
  737MOL0     H99435   1.559   7.291   5.524 -1.7119 -1.0819 -0.2236
  737MOL0     H99436   1.759   7.197   5.326  2.3796 -1.1787  0.9555
  737MOL0     H99437   1.784   7.253   5.494 -1.0559 -1.0924  1.8247
  737MOL0     H99438   1.636   7.039   5.559 -2.1892  1.9818 -0.9665
  737MOL0     H99439   1.656   7.000   5.388  0.1004  0.0780  0.3651
  737MOL0     H99440   1.893   6.987   5.388  0.5470  1.6575 -0.1916
  737MOL0     H99441   1.915   7.065   5.536  0.6750 -0.1967  0.0694
  737MOL0     H99442   1.773   6.835   5.627  2.6060 -0.9793  2.4775
  737MOL0     H99443   1.947   6.833   5.587 -0.5610 -2.5228 -0.5317
  737MOL0     H99444   1.721   6.752   5.400 -0.1838 -0.7471 -0.1003
  737MOL0     H99445   1.890   6.749   5.368 -1.7801  1.5342 -1.1720
  737MOL0     H99446   2.012   6.605   5.628 -0.4978  0.5669  0.5156
  737MOL0     H99447   2.020   6.411   5.813  1.0626  1.3371 -2.2176
  737MOL0     H99448   1.873   6.306   5.817  2.6307  0.1554  3.6206
  737MOL0     H99449   2.102   6.289   5.625 -1.3329  1.5138 -1.8126
  737MOL0     H99450   2.080   6.185   5.772 -0.5305 -2.1102 -0.8068
  737MOL0     H99451   2.015   6.061   5.567  0.1186 -1.3473  3.4833
  737MOL0     H99452   1.911   6.195   5.512 -0.5581  0.4277 -0.1499
  737MOL0     H99453   1.801   5.982   5.586  1.5179  1.3894 -2.2422
  737MOL0     H99454   1.745   6.107   5.692 -0.9393 -2.5312  3.0603
  737MOL0     H99455   1.770   5.748   5.696 -0.8433 -1.0169  2.0948
  737MOL0     H99456   1.885   5.544   5.708  2.6752 -2.4289  2.5923
  737MOL0     H99457   2.201   5.237   5.996  1.0259  1.0954  2.0571
  737MOL0     H99458   2.368   5.047   6.005 -1.9018 -0.5138 -2.4455
  737MOL0     H99459   2.724   5.166   6.101 -0.7598 -1.0014  0.4828
  737MOL0     H99460   2.663   5.017   6.156 -2.7645  1.1556 -0.3314
  737MOL0     H99461   2.890   4.933   6.121 -0.8807 -1.8072  0.8182
  737MOL0     H99462   2.798   4.901   5.976 -0.4639  0.6836  0.6074
  737MOL0     H99463   3.001   5.006   5.885 -0.0573  2.7242 -2.6869
  737MOL0     H99464   2.865   5.122   5.865 -0.5130 -0.6769  0.8472
  737MOL0     H99465   2.956   5.237   6.073  2.6640 -0.0062  3.6453
  737MOL0     H99466   3.062   5.239   5.936  1.0215  1.4965  1.0877
  737MOL0     H99467   3.062   5.075   6.205 -0.2209  0.7607 -0.4897
  737MOL0     H99468   3.160   5.218   6.167 -2.0511  2.2119 -0.9357
  737MOL0     H99469   3.200   4.950   6.041  2.8004 -0.9796 -0.3250
  737MOL0     H99470   3.262   5.107   5.977 -1.4964  0.5861 -0.3825
  737MOL0     H99471   3.326   4.965   6.246  0.5745 -1.2466 -0.1025
  737MOL0     H99472   3.377   5.136   6.199  1.1306  1.0477 -0.6594
  737MOL0     H99473   3.487   5.029   5.992  0.7360 -0.2589 -0.3068
  737MOL0     H99474   3.548   4.976   6.143 -0.4811  0.2953  1.3794
  737MOL0     H99475   2.664   5.296   5.840 -0.4565 -2.4132  0.0549
  737MOL0     H99476   2.512   5.489   5.847  4.3008 -2.1650 -2.8405
  737MOL0     H99477   2.188   5.704   5.945  0.7183  0.7314 -1.8479
  737MOL0     H99478   2.092   5.949   5.900  2.2552 -0.3316 -0.6241
  737MOL0     H99479   1.177   7.434   5.228  0.4170  0.8334 -0.2706
  737MOL0     H99480   0.956   7.567   5.200  0.8048 -0.5958 -0.4988
  737MOL0     H99481   0.761   7.871   5.024 -0.3237 -0.7777 -0.3706
  737MOL0     H99482   0.566   7.961   4.950 -2.2749  0.6433 -0.2514
  737MOL0     H99483   0.375   8.038   4.911 -2.5935  1.3599 -1.6618
  737MOL0     H99484   0.417   8.206   4.912 -2.8246 -0.0977 -2.6176
  737MOL0     H99485   0.154   8.123   5.016 -0.5267  0.4415 -0.0167
  737MOL0     H99486   0.194   8.157   4.839  0.0764 -0.5295  0.1481
  737MOL0     H99487   0.291   8.377   4.898  0.5837 -0.9913  1.5833
  737MOL0     H99488   0.253   8.355   5.059 -1.4955 -1.3852  0.7451
  737MOL0     H99489   0.027   8.332   4.850  2.6530  0.1258 -0.7864
  737MOL0     H99490   0.015   8.350   5.029  1.1413 -1.2198 -0.7232
  737MOL0     H99491   0.050   8.746   4.889 -1.3509  0.2363  1.1338
  737MOL0     H99492   0.469   8.091   5.359  1.5546  1.1449  1.1079
  737MOL0     H99493   0.758   8.077   5.498  0.6983  1.3912 -3.2679
  737MOL0     H99494   0.592   8.046   5.526 -0.0621 -0.5086 -0.7150
  737MOL0     H99495   0.718   7.913   5.521  0.0118  0.3619  1.3925
  738MOL0     O99496   0.628   3.394   8.466  0.1273 -0.6094 -1.0966
  738MOL0     C99497   0.558   3.441   8.552  0.4881 -0.3967  0.4092
  738MOL0     O99498   0.590   3.552   8.626  0.2579 -0.2832 -0.2522
  738MOL0     C99499   0.722   3.599   8.619 -0.3418 -0.4370 -0.7276
  738MOL0     C99500   0.789   3.642   8.502 -0.6409 -0.2768 -0.1296
  738MOL0     C99501   0.927   3.675   8.508  0.5131 -0.4246  0.1057
  738MOL0     C99502   0.993   3.689   8.638 -0.2435  0.1570  1.4533
  738MOL0     O99503   1.126   3.714   8.646 -0.2190  0.2421 -0.0791
  738MOL0     C99504   1.167   3.785   8.764 -1.1518 -0.2278  0.7422
  738MOL0     C99505   1.322   3.797   8.766  0.8714  0.1105  0.2734
  738MOL0     C99506   1.383   3.901   8.861  0.4434 -0.1400  0.2524
  738MOL0     C99507   1.541   3.896   8.844  0.1592 -0.2567  0.0658
  738MOL0     C99508   1.603   4.026   8.888  0.8218 -0.3343  0.5206
  738MOL0     C99509   1.737   4.036   8.820  0.5276 -0.4847  0.0142
  738MOL0     C99510   1.796   4.176   8.833  0.6223  1.4029  0.3721
  738MOL0     C99511   1.856   4.202   8.966 -0.2464  0.2206 -0.2939
  738MOL0     N99512   1.964   4.110   8.998 -0.2234 -0.0460  0.5667
  738MOL0     C99513   2.068   4.073   8.913  0.2898  0.0784 -1.0581
  738MOL0     C99514   2.136   3.976   8.978 -0.9975 -1.0987 -1.2683
  738MOL0     C99515   2.264   3.903   8.948  0.5561 -0.1150 -0.8902
  738MOL0     C99516   2.388   3.997   8.949 -0.8979 -1.0098  0.4390
  738MOL0     C99517   2.397   4.068   8.812 -0.1681 -0.0038 -0.6821
  738MOL0     C99518   2.504   4.183   8.823  0.1975 -1.0798 -0.4278
  738MOL0     O99519   2.623   4.115   8.840  0.1994  0.1568  0.0203
  738MOL0     C99520   2.748   4.162   8.806  0.1400 -0.4243  0.0877
  738MOL0     C99521   2.850   4.078   8.842  0.7939  0.2422 -0.1052
  738MOL0     C99522   2.984   4.096   8.809 -0.0701 -0.9140  0.9314
  738MOL0     C99523   3.014   4.227   8.756  0.4237 -0.0822 -0.3166
  738MOL0     C99524   3.158   4.267   8.736 -0.0689 -0.3466 -0.2975
  738MOL0     O99525   3.255   4.202   8.814  0.2786 -0.6270  0.1590
  738MOL0     C99526   3.390   4.230   8.812  0.0525  0.3433 -0.6793
  738MOL0     C99527   3.480   4.136   8.859 -0.1953  0.2396  0.1169
  738MOL0     C99528   3.616   4.154   8.864 -0.1151 -0.6862 -0.2563
  738MOL0     C99529   3.668   4.279   8.833  0.2711  0.6224  0.0200
  738MOL0     O99530   3.801   4.298   8.852  0.2345 -0.6723  0.1195
  738MOL0     C99531   3.866   4.401   8.783  0.1702 -0.2655 -0.5455
  738MOL0     C99532   4.011   4.386   8.783  0.0531  0.0279  0.1261
  738MOL0     C99533   4.059   4.389   8.929  0.0693 -0.2638  0.5887
  738MOL0     C99534   4.207   4.413   8.917  0.6136 -0.1910  0.3552
  738MOL0     C99535   4.273   4.445   9.049 -0.5426  0.0981 -0.6889
  738MOL0     C99536   4.423   4.465   9.017 -0.1612  0.2441  0.1068
  738MOL0     C99537   4.499   4.329   9.009  0.7858 -0.3706 -0.2805
  738MOL0     C99538   4.637   4.354   8.955 -0.8369 -0.4997 -0.5492
  738MOL0    Cl99539   4.734   4.205   8.954  0.0599 -0.2984 -0.6411
  738MOL0     C99540   3.581   4.383   8.810  0.6730 -1.3478 -0.3488
  738MOL0     C99541   3.442   4.354   8.795  0.4644  0.3161 -0.6777
  738MOL0     O99542   3.171   4.365   8.662 -0.1081 -0.9862  0.0476
  738MOL0     C99543   2.903   4.314   8.714 -0.6758  0.6649 -0.3371
  738MOL0     C99544   2.776   4.280   8.733  0.1650  0.2976  0.2118
  738MOL0     N99545   2.065   3.947   9.097 -0.0321 -0.9562  0.1590
  738MOL0     N99546   1.962   4.026   9.113  0.0776 -0.0135  0.5965
  738MOL0     C99547   0.926   3.647   8.753 -0.2262 -0.0725 -0.0606
  738MOL0     C99548   0.795   3.603   8.740 -0.3758 -0.4065  0.2854
  738MOL0     C99549   0.413   3.395   8.555 -0.5323 -0.3627  0.1581
  738MOL0     C99550   0.320   3.486   8.617 -0.8303  0.2019  0.0634
  738MOL0     C99551   0.188   3.460   8.638  0.2205  0.2731  0.6551
  738MOL0     C99552   0.138   3.340   8.588 -0.9096  0.6914  0.8625
  738MOL0     O99553   0.004   3.294   8.584 -0.6131  0.1315 -0.4915
  738MOL0     C99554  -0.093   3.380   8.642 -0.4206 -0.9328 -0.9093
  738MOL0     C99555  -0.222   3.312   8.651 -0.1582  0.7532 -0.2288
  738MOL0     C99556  -0.332   3.418   8.671  0.1434  0.3407  0.5818
  738MOL0     C99557  -0.459   3.333   8.722 -0.1949 -0.3181  0.3354
  738MOL0     C99558  -0.544   3.286   8.608 -0.7741  0.5000 -0.2385
  738MOL0     C99559  -0.628   3.245   8.531 -0.4758 -0.0546  0.4918
  738MOL0     C99560   0.222   3.253   8.517  0.0129 -0.0842  0.3524
  738MOL0     C99561   0.357   3.284   8.492 -0.6435  0.9600 -0.2565
  738MOL0     C99562   0.431   3.183   8.412 -0.1615 -1.5385 -0.1535
  738MOL0     H99563   0.726   3.657   8.415 -2.7922  0.6029  1.4700
  738MOL0     H99564   0.987   3.716   8.427  1.2798  0.0662  0.9051
  738MOL0     H99565   1.129   3.888   8.757 -2.4838 -0.6916  0.9739
  738MOL0     H99566   1.136   3.743   8.860 -0.5330  0.6003  1.3262
  738MOL0     H99567   1.353   3.815   8.663 -0.8836 -2.9692 -0.9463
  738MOL0     H99568   1.356   3.694   8.780  1.7046  0.3437  0.0159
  738MOL0     H99569   1.354   3.883   8.965  1.0949 -2.5003  0.0667
  738MOL0     H99570   1.350   4.002   8.834 -0.4863 -0.2071  1.0623
  738MOL0     H99571   1.587   3.809   8.890  1.5512  1.1621  1.4964
  738MOL0     H99572   1.563   3.888   8.738  2.5199 -2.7161  0.6528
  738MOL0     H99573   1.537   4.109   8.861  1.2245 -0.0787  0.3101
  738MOL0     H99574   1.605   4.019   8.997 -0.5893  1.5389  0.7196
  738MOL0     H99575   1.798   3.962   8.873  0.5135 -0.3719  0.1889
  738MOL0     H99576   1.726   4.020   8.712  0.9480  1.1573 -0.2974
  738MOL0     H99577   1.729   4.253   8.795  4.0914  3.2661 -2.5650
  738MOL0     H99578   1.875   4.182   8.758  0.0081 -2.1800 -0.7463
  738MOL0     H99579   1.883   4.308   8.966  1.0378 -0.0873  0.4158
  738MOL0     H99580   1.784   4.205   9.048  0.9020  0.3827  0.7343
  738MOL0     H99581   2.095   4.112   8.816  0.4177  0.2650 -0.9491
  738MOL0     H99582   2.275   3.835   9.034  0.2053 -0.6417 -1.2573
  738MOL0     H99583   2.246   3.849   8.854 -3.4628 -0.0483 -0.3141
  738MOL0     H99584   2.398   4.067   9.032 -0.6689  0.5822 -0.8823
  738MOL0     H99585   2.474   3.930   8.961  0.1045 -0.0405 -0.9850
  738MOL0     H99586   2.302   4.120   8.792  0.3927  1.3045 -0.0364
  738MOL0     H99587   2.417   4.000   8.728 -2.2953 -0.0827 -1.2004
  738MOL0     H99588   2.481   4.246   8.909 -1.2932 -0.7517 -1.0498
  738MOL0     H99589   2.499   4.249   8.736  2.0015 -0.4463 -0.0975
  738MOL0     H99590   2.819   3.993   8.903 -1.8258  2.0011  1.2020
  738MOL0     H99591   3.063   4.039   8.858 -0.5444 -0.6703  2.0160
  738MOL0     H99592   3.439   4.039   8.887  0.4335 -0.1187 -0.1831
  738MOL0     H99593   3.685   4.071   8.879 -2.0261 -1.8650  3.2098
  738MOL0     H99594   3.828   4.413   8.681 -0.6405  2.5715  0.0213
  738MOL0     H99595   3.848   4.495   8.834 -0.4925 -0.8415  0.3065
  738MOL0     H99596   4.037   4.298   8.724  1.4403  1.5928 -1.7004
  738MOL0     H99597   4.044   4.474   8.728  1.0411 -1.3858 -1.6253
  738MOL0     H99598   4.017   4.473   8.985 -0.9499 -0.7501  0.5748
  738MOL0     H99599   4.037   4.297   8.984 -2.7271 -0.2462 -0.3444
  738MOL0     H99600   4.217   4.498   8.849 -5.0079 -0.0222 -0.8181
  738MOL0     H99601   4.254   4.333   8.859 -0.7278 -0.1977 -0.7782
  738MOL0     H99602   4.270   4.367   9.126 -0.4361  0.9830  0.2193
  738MOL0     H99603   4.221   4.531   9.091 -1.5208 -1.4836  1.5239
  738MOL0     H99604   4.426   4.506   8.916  2.1866 -2.5815 -1.1399
  738MOL0     H99605   4.483   4.533   9.077 -0.3479  1.9601 -1.5730
  738MOL0     H99606   4.438   4.251   8.960 -0.0895  0.5200 -0.6489
  738MOL0     H99607   4.503   4.295   9.113 -2.8711 -0.9863 -0.1842
  738MOL0     H99608   4.643   4.390   8.852 -1.1802 -3.4496 -1.6846
  738MOL0     H99609   4.689   4.431   9.013  1.9512 -1.5686 -1.4429
  738MOL0     H99610   3.592   4.490   8.791  1.6803 -1.2106  0.8766
  738MOL0     H99611   3.372   4.432   8.767 -1.7470  0.4205  4.0896
  738MOL0     H99612   2.921   4.413   8.672 -1.6273  0.5957 -0.9344
  738MOL0     H99613   2.691   4.341   8.706  0.5534 -0.5853 -3.4914
  738MOL0     H99614   0.977   3.642   8.848  2.0805 -2.0600 -1.2758
  738MOL0     H99615   0.746   3.576   8.833 -0.6875 -3.1516 -0.6066
  738MOL0     H99616   0.352   3.580   8.659  2.0733 -0.5554 -0.2539
  738MOL0     H99617   0.130   3.541   8.681 -0.1825  0.0428  0.5500
  738MOL0     H99618  -0.114   3.472   8.586 -1.7611  0.8631  2.2789
  738MOL0     H99619  -0.075   3.392   8.749 -0.6543 -3.1113 -0.5882
  738MOL0     H99620  -0.227   3.252   8.742 -1.2279  0.9091 -0.1769
  738MOL0     H99621  -0.241   3.243   8.568  0.3109 -0.5136  0.6813
  738MOL0     H99622  -0.360   3.473   8.580 -0.3689 -1.8582 -0.6552
  738MOL0     H99623  -0.293   3.489   8.744  3.1286  0.2680 -0.7856
  738MOL0     H99624  -0.441   3.253   8.794 -1.8685 -2.3403 -1.3267
  738MOL0     H99625  -0.521   3.404   8.778  1.0751  0.0790  1.2872
  738MOL0     H99626  -0.717   3.234   8.474  0.2311 -0.0596 -0.6309
  738MOL0     H99627   0.176   3.158   8.493  1.8321 -2.7319  5.6733
  738MOL0     H99628   0.540   3.187   8.421  0.3263  0.0227 -4.3512
  738MOL0     H99629   0.393   3.081   8.420  1.6797 -2.3460 -1.0384
  738MOL0     H99630   0.433   3.205   8.304 -1.3072  1.4962  0.3268
  739MOL0     O99631  10.858   4.323   9.001 -0.5930 -0.0097 -0.1565
  739MOL0     C99632  10.914   4.265   8.908  0.4732  1.0852  0.8248
  739MOL0     O99633  11.048   4.238   8.894  0.4915  0.1038  0.4090
  739MOL0     C99634  11.128   4.302   8.985 -0.6141  0.0070 -0.3179
  739MOL0     C99635  11.242   4.353   8.926  0.9993 -0.3475  1.0050
  739MOL0     C99636  11.346   4.415   8.999  0.2337  0.1443 -1.4227
  739MOL0     C99637  11.331   4.428   9.140  0.0092  0.3790  1.0161
  739MOL0     O99638  11.431   4.498   9.209  0.1555  0.3407  0.3863
  739MOL0     C99639  11.438   4.477   9.349  0.5977 -0.6030  0.3209
  739MOL0     C99640  11.561   4.545   9.406  0.2440 -0.2527 -0.2947
  739MOL0     C99641  11.673   4.444   9.432  0.5437 -0.0085 -0.4366
  739MOL0     C99642  11.803   4.518   9.470  0.9088  0.1195 -0.3241
  739MOL0     C99643  11.908   4.425   9.529  0.3313  0.1050  0.6772
  739MOL0     C99644  12.006   4.499   9.608  0.2764  0.6175 -0.2200
  739MOL0     C99645  12.144   4.434   9.635 -0.5681  0.6486  0.6976
  739MOL0     C99646  12.230   4.514   9.742  0.1076 -0.3067  0.6497
  739MOL0     N99647  12.360   4.450   9.772  0.6279  0.6689 -0.6430
  739MOL0     C99648  12.460   4.424   9.680 -0.3914 -0.1313 -1.2152
  739MOL0     C99649  12.566   4.378   9.757 -0.0215 -0.6144  0.3095
  739MOL0     C99650  12.700   4.343   9.709  0.2279 -0.0136  0.4962
  739MOL0     C99651  12.816   4.425   9.769 -0.6606 -0.7158  0.8590
  739MOL0     C99652  12.948   4.404   9.689  0.1243  0.5177  0.2649
  739MOL0     C99653  12.939   4.488   9.565 -0.1124  0.4835 -0.5754
  739MOL0     O99654  13.014   4.436   9.454  0.0337 -0.2011  0.5717
  739MOL0     C99655  13.152   4.451   9.445 -0.0093 -0.8230 -0.7368
  739MOL0     C99656  13.229   4.536   9.523  0.5439 -0.0285 -0.4950
  739MOL0     C99657  13.366   4.523   9.525  1.1852  0.3596 -0.1409
  739MOL0     C99658  13.431   4.438   9.427  0.0148 -0.4383 -0.2859
  739MOL0     C99659  13.578   4.456   9.416 -0.1081  0.3571 -0.5425
  739MOL0     O99660  13.632   4.407   9.296 -0.5114 -0.1167 -0.5014
  739MOL0     C99661  13.767   4.403   9.280 -0.2209 -0.3159 -0.3854
  739MOL0     C99662  13.830   4.279   9.248  0.2358  0.0670  0.0641
  739MOL0     C99663  13.963   4.265   9.221  1.5705  0.2096  0.2056
  739MOL0     C99664  14.037   4.385   9.211 -0.8170  0.7213 -0.8737
  739MOL0     O99665  14.167   4.382   9.165 -0.2819 -0.2821  0.9391
  739MOL0     C99666  14.262   4.484   9.192 -0.8116 -0.7511 -0.0304
  739MOL0     C99667  14.387   4.461   9.113  0.0603  0.5805  1.2898
  739MOL0     C99668  14.501   4.558   9.152  0.8907  1.2329  0.0932
  739MOL0     C99669  14.625   4.527   9.076  1.1323  0.0158 -0.2797
  739MOL0     C99670  14.738   4.591   9.147  0.5380 -0.6460 -0.2372
  739MOL0     C99671  14.868   4.589   9.062 -0.4327 -0.3438 -0.0443
  739MOL0     C99672  14.989   4.658   9.133  0.1695  0.6501 -0.7990
  739MOL0     C99673  15.116   4.634   9.045  0.6946 -0.6747  0.4986
  739MOL0    Cl99674  15.261   4.732   9.093 -0.2750  0.1371  0.4584
  739MOL0     C99675  13.982   4.509   9.251 -1.0341 -0.2075 -0.1249
  739MOL0     C99676  13.843   4.521   9.284 -1.5234  0.6736 -0.0251
  739MOL0     O99677  13.645   4.509   9.501  0.0643  0.5032 -0.0863
  739MOL0     C99678  13.349   4.368   9.336 -0.1485 -0.4437  0.2484
  739MOL0     C99679  13.207   4.364   9.354  0.4682 -1.1270  0.1956
  739MOL0     N99680  12.522   4.383   9.890 -0.4525 -0.3753 -0.0498
  739MOL0     N99681  12.405   4.423   9.897  0.3366  0.5016 -0.1875
  739MOL0     C99682  11.213   4.381   9.196 -0.0067 -0.3564 -0.9610
  739MOL0     C99683  11.114   4.316   9.123  1.0347  0.5098  0.0393
  739MOL0     C99684  10.817   4.214   8.813 -0.4901  0.1037  0.9960
  739MOL0     C99685  10.713   4.134   8.848 -0.1005 -0.1362  0.2558
  739MOL0     C99686  10.610   4.096   8.761  0.0852 -0.2162 -0.6107
  739MOL0     C99687  10.633   4.113   8.624  0.6830 -0.1736 -0.0632
  739MOL0     O99688  10.545   4.080   8.528  0.5018  0.1317 -0.0033
  739MOL0     C99689  10.506   3.943   8.533  0.1454 -0.1419  0.1444
  739MOL0     C99690  10.358   3.915   8.491  0.0532 -0.1358 -0.7469
  739MOL0     C99691  10.258   3.972   8.589  0.4803  0.1004 -0.0116
  739MOL0     C99692  10.114   3.924   8.568  0.4272 -0.1637 -0.5262
  739MOL0     C99693  10.084   3.788   8.609  0.7093 -0.6751 -0.8773
  739MOL0     C99694  10.073   3.668   8.631  1.0643  0.5294 -0.7854
  739MOL0     C99695  10.744   4.191   8.576 -0.6882  0.3070 -0.2958
  739MOL0     C99696  10.838   4.240   8.671  0.9666  0.5032 -0.4266
  739MOL0     C99697  10.949   4.333   8.630  0.3165 -0.7163  0.3916
  739MOL0     H99698  11.268   4.338   8.822 -2.1458 -3.0230  0.4294
  739MOL0     H99699  11.446   4.445   8.969  1.0177 -1.7433 -0.8172
  739MOL0     H99700  11.352   4.534   9.388 -1.8107 -3.1053 -0.9591
  739MOL0     H99701  11.424   4.372   9.374  3.5937 -1.2854 -0.5230
  739MOL0     H99702  11.533   4.610   9.490  0.9757 -0.1578 -0.1212
  739MOL0     H99703  11.587   4.627   9.339 -1.9960  1.6176  0.9431
  739MOL0     H99704  11.698   4.381   9.346  0.1847 -0.9102  0.1152
  739MOL0     H99705  11.629   4.380   9.509 -2.4288 -0.2671 -2.2073
  739MOL0     H99706  11.838   4.568   9.379 -3.1413 -1.7658 -3.2613
  739MOL0     H99707  11.772   4.594   9.542 -0.3480 -0.7712  0.1118
  739MOL0     H99708  11.863   4.356   9.601  1.5899 -0.0011  1.3991
  739MOL0     H99709  11.956   4.361   9.454 -0.9789 -0.9919  0.7365
  739MOL0     H99710  12.036   4.591   9.557 -0.3872  1.0402  0.1228
  739MOL0     H99711  11.955   4.527   9.701 -1.6144 -0.2628 -0.9456
  739MOL0     H99712  12.203   4.423   9.544 -1.3063 -0.7743  0.3572
  739MOL0     H99713  12.153   4.333   9.676 -1.7369  0.6171  0.9154
  739MOL0     H99714  12.244   4.611   9.693 -1.5366 -0.0560  0.6296
  739MOL0     H99715  12.164   4.520   9.829 -0.6182 -1.4109  0.1948
  739MOL0     H99716  12.478   4.431   9.573  2.0444  2.1446 -0.7590
  739MOL0     H99717  12.725   4.239   9.733  2.7254  0.6784  1.1956
  739MOL0     H99718  12.697   4.352   9.600 -1.1690 -2.1537  0.2904
  739MOL0     H99719  12.788   4.531   9.772 -0.3939 -0.6284  0.4580
  739MOL0     H99720  12.846   4.393   9.869  2.5630  3.4263  1.5126
  739MOL0     H99721  12.956   4.295   9.675 -1.9041  0.4159 -0.4422
  739MOL0     H99722  13.030   4.426   9.757 -0.6202 -1.0646  1.7583
  739MOL0     H99723  12.956   4.592   9.595 -1.6994  0.5918  0.0747
  739MOL0     H99724  12.843   4.482   9.513  0.9307  1.2683 -2.7092
  739MOL0     H99725  13.178   4.602   9.593  3.0973  0.9399  0.5868
  739MOL0     H99726  13.428   4.582   9.590 -2.2521  1.4951  2.4186
  739MOL0     H99727  13.759   4.196   9.246 -0.6399  0.7974 -1.2798
  739MOL0     H99728  14.012   4.169   9.202  1.6945  0.4180 -0.5576
  739MOL0     H99729  14.218   4.582   9.173  1.4098  0.5928  1.2515
  739MOL0     H99730  14.290   4.485   9.298  2.4582  0.3937 -0.7597
  739MOL0     H99731  14.428   4.363   9.137 -1.1123 -0.6775 -1.3118
  739MOL0     H99732  14.362   4.455   9.006  1.2998 -0.1700  1.0254
  739MOL0     H99733  14.467   4.660   9.132  2.3962  1.9757  1.1007
  739MOL0     H99734  14.524   4.556   9.259  0.8607 -0.0224  0.0838
  739MOL0     H99735  14.622   4.558   8.971  0.0176 -0.9485 -0.5534
  739MOL0     H99736  14.641   4.419   9.077  2.2845  0.0316 -3.9083
  739MOL0     H99737  14.748   4.534   9.240  1.0073  1.7604  1.2908
  739MOL0     H99738  14.708   4.695   9.163 -0.0939 -0.6736 -1.1467
  739MOL0     H99739  14.880   4.484   9.034  2.4146 -0.0511 -0.1682
  739MOL0     H99740  14.833   4.649   8.977 -1.8338 -1.1521 -0.0726
  739MOL0     H99741  15.007   4.628   9.237  1.7238  1.4753 -0.8125
  739MOL0     H99742  14.982   4.767   9.132  0.2777  0.7074  0.9084
  739MOL0     H99743  15.140   4.528   9.042 -0.6059 -0.9765 -2.3154
  739MOL0     H99744  15.082   4.656   8.943 -4.3202 -2.0804  1.5836
  739MOL0     H99745  14.033   4.604   9.251  0.2069 -0.7674  2.6222
  739MOL0     H99746  13.792   4.615   9.303 -0.5570  0.6846  3.1977
  739MOL0     H99747  13.397   4.309   9.259  0.4193  0.5902 -0.2038
  739MOL0     H99748  13.137   4.315   9.287 -0.4181 -1.1419  1.1005
  739MOL0     H99749  11.185   4.402   9.298 -0.4727 -0.4432 -1.0686
  739MOL0     H99750  11.031   4.264   9.169  0.8941 -0.7559 -1.5518
  739MOL0     H99751  10.720   4.099   8.950  2.0866  0.9860  0.5557
  739MOL0     H99752  10.532   4.030   8.798  0.2743 -0.2406 -0.2466
  739MOL0     H99753  10.505   3.902   8.634 -1.1647  0.0252  0.2122
  739MOL0     H99754  10.577   3.892   8.467  1.4908 -1.7681  2.7178
  739MOL0     H99755  10.343   3.807   8.485 -1.1792  0.0822 -2.7356
  739MOL0     H99756  10.336   3.959   8.393  0.4653  0.8265 -0.4189
  739MOL0     H99757  10.265   4.081   8.584 -1.5774  0.2336 -1.2291
  739MOL0     H99758  10.283   3.953   8.693 -2.0034 -0.6638  0.4971
  739MOL0     H99759  10.063   3.994   8.634  0.7359 -0.4534  0.0344
  739MOL0     H99760  10.069   3.942   8.470 -1.2176 -1.6960 -0.1016
  739MOL0     H99761  10.058   3.563   8.640 -0.0853  0.6016 -1.5067
  739MOL0     H99762  10.754   4.225   8.473  1.5904  2.2952  0.4658
  739MOL0     H99763  10.955   4.419   8.696 -1.0986  1.1740 -1.8043
  739MOL0     H99764  11.048   4.287   8.617  1.9160  2.3014  0.9985
  739MOL0     H99765  10.933   4.370   8.528 -0.4684  0.3240  0.8815
  740MOL0     O99766   6.022   6.044   8.185  0.0991  0.2112  0.4086
  740MOL0     C99767   6.002   5.923   8.156  0.0397 -1.2332  0.3067
  740MOL0     O99768   6.097   5.825   8.140 -0.0111 -0.0186 -0.0198
  740MOL0     C99769   6.222   5.842   8.199  1.3444  0.8120  0.2546
  740MOL0     C99770   6.332   5.790   8.130 -0.0204  0.2876 -0.0429
  740MOL0     C99771   6.462   5.801   8.178  0.0745 -0.1076 -0.0212
  740MOL0     C99772   6.483   5.864   8.297  0.2899 -0.0252 -0.5966
  740MOL0     O99773   6.615   5.871   8.331  0.4323 -0.8602 -0.2266
  740MOL0     C99774   6.645   5.834   8.468 -0.2964  0.3806  0.0279
  740MOL0     C99775   6.735   5.711   8.454 -0.1859  0.0932  0.4573
  740MOL0     C99776   6.883   5.759   8.417  0.1705  0.3948 -0.2722
  740MOL0     C99777   6.977   5.635   8.397  1.2172  0.4330  0.4151
  740MOL0     C99778   7.122   5.662   8.354  1.5302 -1.0234 -0.8753
  740MOL0     C99779   7.186   5.544   8.295  0.5830  0.5147  0.4574
  740MOL0     C99780   7.331   5.572   8.246 -0.3607 -0.5324  0.2196
  740MOL0     C99781   7.349   5.562   8.098 -0.1543  0.8113 -0.9364
  740MOL0     N99782   7.492   5.561   8.051  0.2865  0.2055 -0.4249
  740MOL0     C99783   7.572   5.454   8.002 -0.1563 -0.6370  0.0538
  740MOL0     C99784   7.671   5.510   7.926  0.6103  0.0665 -0.1989
  740MOL0     C99785   7.782   5.452   7.838 -0.1543  0.3822  0.3094
  740MOL0     C99786   7.912   5.530   7.863  0.9541 -0.0800 -0.3280
  740MOL0     C99787   8.042   5.455   7.864  0.5648  0.2422 -1.4850
  740MOL0     C99788   8.066   5.400   7.720 -0.6685 -0.0032 -0.6769
  740MOL0     O99789   8.176   5.310   7.713  0.0551  0.1183 -0.7405
  740MOL0     C99790   8.206   5.250   7.591 -0.2161  0.1064  0.2781
  740MOL0     C99791   8.329   5.180   7.583 -0.6243 -0.0873  0.3535
  740MOL0     C99792   8.375   5.127   7.456  0.2842 -0.6207 -0.8294
  740MOL0     C99793   8.303   5.145   7.333 -0.7215  0.1928 -0.5792
  740MOL0     C99794   8.351   5.091   7.208  0.1061 -0.4195  0.1778
  740MOL0     O99795   8.289   5.117   7.095  0.7600 -0.4470 -0.3472
  740MOL0     C99796   8.329   5.095   6.970 -0.6022  0.2301 -0.4001
  740MOL0     C99797   8.286   5.174   6.866  0.2352 -0.3253 -0.1396
  740MOL0     C99798   8.315   5.148   6.732  0.3180 -0.8384  0.4860
  740MOL0     C99799   8.399   5.038   6.695  0.6253 -0.7129 -0.4483
  740MOL0     O99800   8.436   5.001   6.567 -0.3018 -0.7152  0.6525
  740MOL0     C99801   8.421   5.100   6.458 -0.0765  0.2020 -0.6134
  740MOL0     C99802   8.507   5.064   6.338  0.4272  0.3016 -0.0758
  740MOL0     C99803   8.654   5.043   6.361  0.2112  0.4493 -0.2742
  740MOL0     C99804   8.729   5.007   6.227 -0.3792  0.2301 -0.1035
  740MOL0     C99805   8.877   4.978   6.240  0.2222  0.4036 -0.1612
  740MOL0     C99806   8.954   4.983   6.098 -0.8964  0.3518 -0.7341
  740MOL0     C99807   9.102   4.932   6.123  0.1667  0.1782  0.4024
  740MOL0     C99808   9.204   5.024   6.055 -0.1990 -0.1501  0.0948
  740MOL0    Cl99809   9.369   4.943   6.047  0.3241 -0.2312  0.0800
  740MOL0     C99810   8.444   4.956   6.806  0.5702 -0.9820  0.1683
  740MOL0     C99811   8.410   4.981   6.936  0.5501  0.2691 -0.5462
  740MOL0     O99812   8.451   5.020   7.215  0.4279 -0.1256  0.2092
  740MOL0     C99813   8.184   5.210   7.346  0.0315  1.2642  0.1583
  740MOL0     C99814   8.135   5.257   7.470  0.1006 -0.5561 -0.1330
  740MOL0     N99815   7.652   5.645   7.940 -0.9737 -0.0343 -0.6343
  740MOL0     N99816   7.542   5.675   8.010 -0.4824 -0.6092  0.8899
  740MOL0     C99817   6.372   5.909   8.376 -0.2592  0.0806  0.1081
  740MOL0     C99818   6.240   5.905   8.317  0.0007 -0.0002  0.3160
  740MOL0     C99819   5.865   5.869   8.139  0.3459 -0.9201 -0.3774
  740MOL0     C99820   5.787   5.928   8.045 -0.5874  0.2945  1.1459
  740MOL0     C99821   5.668   5.870   8.011  0.4751  0.4125 -0.5644
  740MOL0     C99822   5.612   5.766   8.088  0.4550  1.3548 -0.1631
  740MOL0     O99823   5.485   5.708   8.061 -0.1527  0.3981 -0.1869
  740MOL0     C99824   5.372   5.783   8.077 -0.0255 -0.1485  0.2147
  740MOL0     C99825   5.242   5.716   8.121  0.1253 -0.1904  0.5042
  740MOL0     C99826   5.268   5.649   8.260  0.5011 -0.0471 -0.1751
  740MOL0     C99827   5.144   5.581   8.321  0.3341 -0.5975  0.1771
  740MOL0     C99828   5.023   5.664   8.320 -0.1929 -0.0111  0.0887
  740MOL0     C99829   4.930   5.734   8.304  0.1753  0.0260 -0.3529
  740MOL0     C99830   5.695   5.712   8.188 -0.0846 -0.1005  0.7005
  740MOL0     C99831   5.826   5.762   8.219  0.8366  0.5406 -0.5827
  740MOL0     C99832   5.915   5.704   8.325 -1.0633  0.5611 -0.0993
  740MOL0     H99833   6.309   5.737   8.038 -0.1770 -1.6587  1.0586
  740MOL0     H99834   6.542   5.774   8.110 -0.5061 -1.1814 -0.3152
  740MOL0     H99835   6.693   5.920   8.515 -2.4759  1.7873 -0.1688
  740MOL0     H99836   6.554   5.802   8.520  0.3620 -3.5028 -0.8980
  740MOL0     H99837   6.695   5.639   8.381 -2.9734  0.4427  1.5291
  740MOL0     H99838   6.736   5.657   8.549 -1.6205 -1.1543 -0.1885
  740MOL0     H99839   6.918   5.813   8.505  2.3951 -0.0824 -0.7839
  740MOL0     H99840   6.896   5.815   8.324  4.0293 -0.7665 -0.6287
  740MOL0     H99841   6.986   5.572   8.486 -0.9941 -0.5122  0.0494
  740MOL0     H99842   6.936   5.573   8.317  2.8092 -2.1430  1.4675
  740MOL0     H99843   7.111   5.744   8.283 -1.4481  1.5554  2.1723
  740MOL0     H99844   7.172   5.709   8.439 -0.3243  0.2119 -0.4013
  740MOL0     H99845   7.189   5.458   8.362  2.2709 -0.2518 -0.5211
  740MOL0     H99846   7.122   5.513   8.212  0.6499  2.2522 -0.2907
  740MOL0     H99847   7.392   5.493   8.291 -3.1719 -2.0554  1.6320
  740MOL0     H99848   7.367   5.671   8.275  1.0021 -0.7458 -0.6347
  740MOL0     H99849   7.291   5.476   8.063  1.1735 -1.2907  1.6846
  740MOL0     H99850   7.296   5.652   8.066 -2.5046  0.2496  1.0672
  740MOL0     H99851   7.564   5.352   8.037 -3.5746  0.2794  2.4151
  740MOL0     H99852   7.800   5.350   7.872 -0.1753  0.6653  1.2231
  740MOL0     H99853   7.759   5.451   7.731  0.8731  0.4062  0.0804
  740MOL0     H99854   7.915   5.614   7.792  0.4406  1.5694  1.5101
  740MOL0     H99855   7.908   5.573   7.963 -1.8633  0.7784 -0.7013
  740MOL0     H99856   8.026   5.371   7.933 -1.4913  0.6007 -1.4728
  740MOL0     H99857   8.129   5.514   7.896  1.1829 -0.4188 -1.9079
  740MOL0     H99858   8.074   5.478   7.643 -1.8316 -0.0748 -0.9006
  740MOL0     H99859   7.978   5.353   7.675  0.9676 -0.1010 -4.0910
  740MOL0     H99860   8.398   5.191   7.667 -0.1979  3.7712 -0.3065
  740MOL0     H99861   8.462   5.063   7.450 -1.0626 -2.5873 -0.4109
  740MOL0     H99862   8.213   5.250   6.894 -0.8439 -1.3958  0.0282
  740MOL0     H99863   8.280   5.211   6.651  2.4696  1.9678  1.5676
  740MOL0     H99864   8.319   5.092   6.419  0.0936 -1.4088 -0.7927
  740MOL0     H99865   8.445   5.203   6.487 -0.5327  0.2471 -0.3857
  740MOL0     H99866   8.465   4.970   6.301  0.0232  0.2599  0.4740
  740MOL0     H99867   8.487   5.137   6.259  0.8427  0.4397 -0.0522
  740MOL0     H99868   8.706   5.131   6.400  0.0470  1.5673 -2.3630
  740MOL0     H99869   8.668   4.977   6.446  2.3350  1.2919  0.0796
  740MOL0     H99870   8.737   5.093   6.160 -0.9183  1.5020  1.4026
  740MOL0     H99871   8.671   4.926   6.181 -4.3209  3.6188 -1.8041
  740MOL0     H99872   8.887   4.873   6.269 -3.5133 -0.0125  0.0912
  740MOL0     H99873   8.931   5.047   6.305  0.3094  1.0879 -0.9371
  740MOL0     H99874   8.900   4.922   6.026 -1.1139  2.6169 -2.6052
  740MOL0     H99875   8.957   5.084   6.055  0.6543  0.8041  0.3359
  740MOL0     H99876   9.114   4.827   6.094  1.8430  0.9298 -1.9091
  740MOL0     H99877   9.128   4.923   6.229  0.6284  0.1689  0.2896
  740MOL0     H99878   9.179   5.053   5.952 -0.3105 -1.5349 -0.2979
  740MOL0     H99879   9.217   5.113   6.116  0.1508 -1.0719  1.4125
  740MOL0     H99880   8.500   4.865   6.783  0.5458 -0.9283 -0.1126
  740MOL0     H99881   8.440   4.911   7.013 -1.7267 -2.1088 -1.6478
  740MOL0     H99882   8.127   5.219   7.254 -1.7451 -2.9312  0.6260
  740MOL0     H99883   8.039   5.308   7.476  1.4970  2.4201 -0.8666
  740MOL0     H99884   6.390   5.948   8.475 -0.5501 -0.6720  0.4628
  740MOL0     H99885   6.156   5.944   8.374 -0.2492 -1.9118  1.3487
  740MOL0     H99886   5.817   6.019   7.995 -1.5345 -0.0686 -0.1518
  740MOL0     H99887   5.614   5.903   7.923 -2.3735  0.2290  1.0071
  740MOL0     H99888   5.348   5.822   7.978 -2.3892  0.0694  0.8161
  740MOL0     H99889   5.395   5.860   8.152 -1.6052  0.1730  0.4114
  740MOL0     H99890   5.223   5.639   8.045  1.6626 -0.4185  0.3276
  740MOL0     H99891   5.157   5.785   8.113 -0.9759 -1.5215  0.3380
  740MOL0     H99892   5.292   5.731   8.328 -1.0017  0.5858 -0.3738
  740MOL0     H99893   5.341   5.568   8.246 -1.4781 -1.8657 -0.4295
  740MOL0     H99894   5.136   5.485   8.268  1.2001 -1.2007  1.0999
  740MOL0     H99895   5.168   5.559   8.425 -0.9779 -2.0519  0.2011
  740MOL0     H99896   4.837   5.784   8.286  0.4609  0.9472  0.6584
  740MOL0     H99897   5.643   5.646   8.257 -1.4472 -0.2584 -0.4479
  740MOL0     H99898   5.964   5.629   8.262 -0.5506  0.7352  0.0856
  740MOL0     H99899   5.989   5.773   8.369 -2.5614  2.4018 -0.3182
  740MOL0     H99900   5.855   5.656   8.402  1.5219 -0.7706  1.2297
  741MOL0     O99901   1.992   3.380   7.920 -0.2226  0.1880 -1.0267
  741MOL0     C99902   1.902   3.353   7.829 -0.5360  1.0319 -0.7036
  741MOL0     O99903   1.938   3.298   7.712  0.2176  0.3405 -0.3469
  741MOL0     C99904   2.071   3.300   7.684 -0.6176  0.0555 -0.2845
  741MOL0     C99905   2.166   3.407   7.677 -0.4732 -0.7790  0.6267
  741MOL0     C99906   2.296   3.385   7.627 -0.5231 -0.1974  0.6699
  741MOL0     C99907   2.339   3.258   7.581 -0.3132  0.2857 -0.6841
  741MOL0     O99908   2.474   3.248   7.549 -0.5001 -0.1229  0.4720
  741MOL0     C99909   2.521   3.107   7.553  0.3816 -0.4953  0.2489
  741MOL0     C99910   2.667   3.117   7.546 -0.0485 -1.1416  0.5379
  741MOL0     C99911   2.743   2.986   7.517 -0.8402 -0.5630  1.2706
  741MOL0     C99912   2.891   2.992   7.571  0.0287 -0.5635  0.1132
  741MOL0     C99913   2.981   3.093   7.496 -0.5565  0.1510  0.6489
  741MOL0     C99914   3.047   3.009   7.380 -0.1875  0.4972 -0.0086
  741MOL0     C99915   3.124   3.088   7.279  0.4091 -0.4291 -0.5253
  741MOL0     C99916   3.240   3.170   7.348 -0.4571  0.6578  0.5367
  741MOL0     N99917   3.371   3.162   7.273  0.5268 -0.0844 -0.0662
  741MOL0     C99918   3.435   3.045   7.238  0.3799 -0.3653  0.4317
  741MOL0     C99919   3.543   3.084   7.166  0.0073 -0.5259 -0.0928
  741MOL0     C99920   3.656   3.000   7.106  0.0743  0.9171  0.7041
  741MOL0     C99921   3.774   2.985   7.191 -0.9837  0.4689 -0.6106
  741MOL0     C99922   3.876   2.891   7.135 -0.3511  0.7858 -0.1238
  741MOL0     C99923   4.006   2.891   7.220 -0.4931 -0.1091  0.4340
  741MOL0     O99924   4.076   3.015   7.192 -0.3531 -0.8987  0.3280
  741MOL0     C99925   4.193   3.019   7.112  0.0854 -0.0343 -0.4124
  741MOL0     C99926   4.270   2.911   7.066  0.2421  0.4175 -0.6951
  741MOL0     C99927   4.384   2.924   6.993  1.3231 -0.6582 -0.4489
  741MOL0     C99928   4.440   3.055   6.969  0.5806 -0.5434  0.1306
  741MOL0     C99929   4.552   3.075   6.887  0.2860 -0.9446  0.5909
  741MOL0     O99930   4.577   3.210   6.844  0.3928 -0.2794  0.4111
  741MOL0     C99931   4.671   3.232   6.746 -0.5748 -1.0487  0.0868
  741MOL0     C99932   4.698   3.160   6.627 -0.0025 -0.8161  0.3701
  741MOL0     C99933   4.785   3.207   6.529  0.0797 -0.1937  0.8362
  741MOL0     C99934   4.849   3.334   6.537 -0.4610 -1.1058  0.1345
  741MOL0     O99935   4.931   3.374   6.432  0.7085  0.5225  0.1915
  741MOL0     C99936   4.974   3.505   6.401  0.2617 -1.0301  0.5006
  741MOL0     C99937   5.048   3.523   6.265  0.3000  0.4306 -0.1592
  741MOL0     C99938   5.076   3.669   6.244  0.1173 -0.6655 -0.4851
  741MOL0     C99939   5.173   3.733   6.349 -0.8634  0.5717 -0.2731
  741MOL0     C99940   5.173   3.887   6.335  0.5128  0.0576 -0.4769
  741MOL0     C99941   5.240   3.928   6.199 -0.1315 -0.0302 -0.6723
  741MOL0     C99942   5.386   3.894   6.201 -0.1167 -1.0994 -0.2941
  741MOL0     C99943   5.447   3.948   6.076 -0.5481 -0.0191 -0.0818
  741MOL0    Cl99944   5.624   3.937   6.087 -0.6311  0.3869  0.1826
  741MOL0     C99945   4.810   3.407   6.655 -0.8471 -0.2123  0.9193
  741MOL0     C99946   4.723   3.363   6.754  0.1204 -0.0886  0.1308
  741MOL0     O99947   4.611   2.979   6.839 -0.1183  0.1991  0.3217
  741MOL0     C99948   4.358   3.166   7.006 -0.6946  0.4316  0.4552
  741MOL0     C99949   4.239   3.145   7.083  0.3365  0.0890  0.3073
  741MOL0     N99950   3.530   3.228   7.150  0.8610 -0.1444  0.2367
  741MOL0     N99951   3.428   3.276   7.214  0.2577 -0.8573  0.2376
  741MOL0     C99952   2.250   3.150   7.594 -0.2995  0.1814 -0.0915
  741MOL0     C99953   2.120   3.174   7.642  1.3077 -0.1321 -0.4638
  741MOL0     C99954   1.757   3.357   7.863 -0.4479  0.0419 -0.5403
  741MOL0     C99955   1.665   3.320   7.760 -0.3272 -0.2749 -0.6591
  741MOL0     C99956   1.528   3.336   7.781 -0.4397 -0.5162 -0.0903
  741MOL0     C99957   1.476   3.393   7.890  0.0601  0.4025  0.2429
  741MOL0     O99958   1.339   3.402   7.905 -0.2033  0.1871 -0.0141
  741MOL0     C99959   1.284   3.434   8.039 -0.3935 -0.9442 -0.8499
  741MOL0     C99960   1.281   3.307   8.124  0.5383 -0.5242  0.8042
  741MOL0     C99961   1.216   3.198   8.047  0.2025 -0.2580 -1.0878
  741MOL0     C99962   1.192   3.074   8.141 -0.0491 -0.2729 -0.0364
  741MOL0     C99963   1.315   3.017   8.210 -0.1132  0.3818  0.0928
  741MOL0     C99964   1.426   2.992   8.247  0.0338 -0.1886 -0.8156
  741MOL0     C99965   1.567   3.421   7.996 -0.5968 -0.3612  1.2767
  741MOL0     C99966   1.703   3.408   7.984 -0.0849  0.5220 -0.7974
  741MOL0     C99967   1.792   3.460   8.095  1.1668 -0.3069 -0.3606
  741MOL0     H99968   2.137   3.508   7.703 -2.1761 -1.7085  2.6994
  741MOL0     H99969   2.364   3.467   7.605 -0.0594 -0.7444 -0.0001
  741MOL0     H99970   2.489   3.052   7.642  0.8736 -1.0347  0.1012
  741MOL0     H99971   2.491   3.059   7.459  3.8192  0.4664 -1.4896
  741MOL0     H99972   2.711   3.154   7.639  0.8411 -1.0878  0.1160
  741MOL0     H99973   2.697   3.191   7.471  0.8471 -1.5284  0.5011
  741MOL0     H99974   2.740   2.971   7.409  1.0605 -0.3807  1.1666
  741MOL0     H99975   2.678   2.908   7.560 -0.9790 -0.6505  0.9063
  741MOL0     H99976   2.884   3.035   7.671  2.2947  0.7179 -0.2312
  741MOL0     H99977   2.947   2.898   7.569 -0.0911 -0.6491  0.6176
  741MOL0     H99978   2.937   3.191   7.477 -0.0573  1.0733  3.7431
  741MOL0     H99979   3.054   3.115   7.575 -1.8483  2.1062  1.3652
  741MOL0     H99980   3.115   2.932   7.418 -0.0864 -1.3009 -3.4531
  741MOL0     H99981   2.977   2.951   7.319  2.4561 -1.4844 -1.3584
  741MOL0     H99982   3.058   3.155   7.223  0.4214  0.2272  0.2234
  741MOL0     H99983   3.177   3.022   7.210 -0.5230 -0.9187 -0.7914
  741MOL0     H99984   3.210   3.275   7.351 -1.6593  0.3687 -0.5229
  741MOL0     H99985   3.265   3.131   7.447  0.6006 -4.7655 -1.5141
  741MOL0     H99986   3.411   2.943   7.267  2.3576 -0.2817  2.6523
  741MOL0     H99987   3.615   2.901   7.086 -0.7387  0.8846  2.3273
  741MOL0     H99988   3.663   3.040   7.005  0.7954 -1.3749 -0.1865
  741MOL0     H99989   3.825   3.081   7.207  0.5097  0.0139 -2.3013
  741MOL0     H99990   3.748   2.946   7.290  3.3232 -1.7283 -0.1107
  741MOL0     H99991   3.904   2.915   7.033  3.2228  0.0372  0.5550
  741MOL0     H99992   3.842   2.787   7.139  2.3991 -0.1515  2.6174
  741MOL0     H99993   4.072   2.807   7.198  2.5339  2.7863 -2.9403
  741MOL0     H99994   3.960   2.876   7.318  1.4103 -0.1374  1.3692
  741MOL0     H99995   4.232   2.811   7.084  0.9545  0.6814  3.1974
  741MOL0     H99996   4.433   2.833   6.960  1.9783 -1.5291  2.6169
  741MOL0     H99997   4.634   3.074   6.610  0.5941 -1.1631 -0.1700
  741MOL0     H99998   4.815   3.138   6.451  1.4974 -1.1487  2.1569
  741MOL0     H99999   4.896   3.582   6.403  0.4346 -0.8420  0.0424
  741MOL0     H    0   5.049   3.526   6.478  1.8176  0.1383 -1.2232
  741MOL0     H    1   5.132   3.455   6.251 -2.3554 -2.8660 -1.7275
  741MOL0     H    2   4.986   3.495   6.179 -1.6520 -4.8985  2.5042
  741MOL0     H    3   5.114   3.688   6.143  0.4091 -0.5761 -0.3592
  741MOL0     H    4   4.982   3.725   6.242  0.9097  0.7904  1.1656
  741MOL0     H    5   5.268   3.681   6.339 -1.1014 -0.1740  1.0956
  741MOL0     H    6   5.137   3.718   6.451  0.0863 -0.5846 -0.0901
  741MOL0     H    7   5.223   3.933   6.421  1.5018 -0.7024 -0.6218
  741MOL0     H    8   5.073   3.931   6.339  1.5565  2.5934 -0.4002
  741MOL0     H    9   5.199   3.870   6.116  0.9385 -1.0077 -0.5433
  741MOL0     H   10   5.216   4.034   6.187  0.4008 -0.0740 -2.4402
  741MOL0     H   11   5.400   3.789   6.227  0.3632 -0.4037  2.6803
  741MOL0     H   12   5.445   3.943   6.280  3.4494 -0.4049 -3.1127
  741MOL0     H   13   5.408   3.899   5.986  1.6760 -0.8017 -0.6654
  741MOL0     H   14   5.411   4.051   6.067 -1.7153 -0.5161 -1.6695
  741MOL0     H   15   4.862   3.502   6.664  0.3761 -0.9080  1.2982
  741MOL0     H   16   4.703   3.422   6.843 -0.5251 -2.2229  1.4945
  741MOL0     H   17   4.388   3.264   6.971 -0.3113 -0.9563 -3.5699
  741MOL0     H   18   4.205   3.240   7.124 -0.4089 -0.7506  1.7019
  741MOL0     H   19   2.283   3.051   7.563 -0.6085 -0.0343  0.2617
  741MOL0     H   20   2.051   3.091   7.635  1.5476 -0.1852 -2.8243
  741MOL0     H   21   1.695   3.262   7.673  1.6274  0.0327 -0.2245
  741MOL0     H   22   1.455   3.318   7.703  1.5938 -0.0604 -2.1937
  741MOL0     H   23   1.178   3.454   8.020 -0.7278 -2.5541 -0.8185
  741MOL0     H   24   1.318   3.524   8.091 -2.3838  0.0286 -1.1129
  741MOL0     H   25   1.217   3.328   8.210  1.4019 -1.1870  1.6239
  741MOL0     H   26   1.383   3.280   8.154  0.2292 -0.0501  2.3754
  741MOL0     H   27   1.287   3.172   7.968  2.6301 -1.4430  1.3074
  741MOL0     H   28   1.119   3.230   8.007 -1.0565 -1.6609  0.6834
  741MOL0     H   29   1.127   3.111   8.221 -0.6454  0.0725 -0.6721
  741MOL0     H   30   1.141   2.990   8.093  0.8575 -0.3134 -0.9562
  741MOL0     H   31   1.528   2.976   8.276 -0.6835  0.0442  2.2617
  741MOL0     H   32   1.519   3.468   8.082 -3.4478 -0.1577 -0.2746
  741MOL0     H   33   1.730   3.497   8.176  1.3758  0.3550 -0.4992
  741MOL0     H   34   1.852   3.380   8.140  1.0257 -2.1418 -3.1638
  741MOL0     H   35   1.846   3.550   8.065 -0.9333  0.1483 -3.2752
  742MOL0     O   36   0.400   5.457  10.372 -0.3262 -0.4540 -0.3853
  742MOL0     C   37   0.449   5.432  10.480 -1.6049  0.4144 -0.6253
  742MOL0     O   38   0.409   5.330  10.564  0.7731 -0.7024  0.9726
  742MOL0     C   39   0.302   5.250  10.529  0.5731  0.2579 -0.2195
  742MOL0     C   40   0.275   5.200  10.404  0.2519 -0.6345 -0.2235
  742MOL0     C   41   0.183   5.103  10.388  0.2246  1.1463 -0.5849
  742MOL0     C   42   0.121   5.038  10.492  0.1144  0.1377  0.6571
  742MOL0     O   43   0.041   4.926  10.454  0.7531 -0.0497 -0.1188
  742MOL0     C   44  -0.034   4.859  10.558 -0.3985  0.1632  1.3060
  742MOL0     C   45  -0.091   4.724  10.505 -0.0458 -0.0408 -0.5809
  742MOL0     C   46  -0.214   4.742  10.409  1.4236 -0.7985 -0.1659
  742MOL0     C   47  -0.324   4.832  10.478  0.0894 -0.3258 -0.2547
  742MOL0     C   48  -0.479   4.803  10.459  0.4692  0.0975  0.1654
  742MOL0     C   49  -0.513   4.803  10.314  0.1242 -0.5022 -0.6308
  742MOL0     C   50  -0.659   4.765  10.294  0.4310 -0.1592  0.6389
  742MOL0     C   51  -0.705   4.829  10.171 -0.7133 -0.3141  0.0258
  742MOL0     N   52  -0.845   4.797  10.137 -0.2507  0.0972  0.4932
  742MOL0     C   53  -0.969   4.843  10.191  0.1464 -0.6872  0.7745
  742MOL0     C   54  -1.065   4.763  10.140 -0.6147  0.0665  0.5332
  742MOL0     C   55  -1.216   4.760  10.165  1.3592  0.7551 -0.6127
  742MOL0     C   56  -1.264   4.905  10.187  0.2488  0.0833  0.3365
  742MOL0     C   57  -1.410   4.913  10.219 -0.2580  0.6806  0.5022
  742MOL0     C   58  -1.464   5.055  10.201 -0.2816  0.1683  0.5247
  742MOL0     O   59  -1.444   5.110  10.067 -0.2903 -0.3826 -0.1779
  742MOL0     C   60  -1.549   5.102   9.971  0.1033  0.3073 -0.0690
  742MOL0     C   61  -1.543   5.187   9.864  0.5966 -0.5912 -0.4206
  742MOL0     C   62  -1.653   5.196   9.764 -0.6040 -0.1473  0.7294
  742MOL0     C   63  -1.764   5.119   9.770 -0.0778  0.0927  0.8254
  742MOL0     C   64  -1.877   5.131   9.677  0.7817 -0.1257  0.3375
  742MOL0     O   65  -1.868   5.239   9.589  0.7223  0.1686  0.6946
  742MOL0     C   66  -1.959   5.259   9.487  0.6585 -0.1302  0.7798
  742MOL0     C   67  -1.956   5.388   9.431 -0.1565  0.7545 -0.8721
  742MOL0     C   68  -2.021   5.412   9.312 -0.7347 -0.4885 -0.1167
  742MOL0     C   69  -2.102   5.316   9.257  0.0516 -0.0943 -0.1864
  742MOL0     O   70  -2.170   5.357   9.146 -0.3788  0.8310 -0.2663
  742MOL0     C   71  -2.239   5.256   9.070  0.6502  0.3676  0.8144
  742MOL0     C   72  -2.381   5.230   9.105 -0.4036 -0.0704  0.3852
  742MOL0     C   73  -2.446   5.122   9.015  0.1016 -1.0430  0.5693
  742MOL0     C   74  -2.598   5.142   9.010 -0.0052  0.3023  0.1031
  742MOL0     C   75  -2.653   5.013   8.942 -0.0518 -0.0367  0.1436
  742MOL0     C   76  -2.803   5.009   8.919 -0.1581 -0.6978  0.0266
  742MOL0     C   77  -2.839   4.924   8.804  0.1836  0.1502  0.4398
  742MOL0     C   78  -2.804   4.784   8.830  0.7676  0.4910  0.2729
  742MOL0    Cl   79  -2.822   4.691   8.676  0.3531  0.2514 -0.3150
  742MOL0     C   80  -2.116   5.190   9.314  0.1389  1.7051 -1.1598
  742MOL0     C   81  -2.043   5.164   9.423  0.0009  0.0048  0.3197
  742MOL0     O   82  -1.970   5.060   9.691  0.0496  0.2480 -0.0276
  742MOL0     C   83  -1.765   5.031   9.877  0.2495  0.7710 -1.2079
  742MOL0     C   84  -1.668   5.026   9.975 -0.0290  1.0130 -0.3382
  742MOL0     N   85  -1.006   4.675  10.050 -0.2455 -0.2274  0.8692
  742MOL0     N   86  -0.874   4.693  10.058  0.0030 -0.2321 -0.2693
  742MOL0     C   87   0.149   5.080  10.622 -0.1768  0.2363  0.3624
  742MOL0     C   88   0.244   5.189  10.639 -0.1591  0.0335  0.1982
  742MOL0     C   89   0.553   5.531  10.530  0.5055  0.6488 -0.3207
  742MOL0     C   90   0.578   5.535  10.670  0.3992  0.7225 -1.1099
  742MOL0     C   91   0.664   5.628  10.723 -0.9585  0.1675  0.0145
  742MOL0     C   92   0.722   5.724  10.639 -0.5027 -0.4704 -0.3658
  742MOL0     O   93   0.796   5.829  10.686 -0.0942 -0.6177 -0.1365
  742MOL0     C   94   0.875   5.813  10.810 -0.0240 -0.3433 -1.0307
  742MOL0     C   95   1.001   5.891  10.815 -0.0691  0.6704  0.1733
  742MOL0     C   96   1.093   5.828  10.713 -0.8830 -0.1121 -0.4042
  742MOL0     C   97   1.233   5.898  10.697  0.1142  0.7138  0.5161
  742MOL0     C   98   1.327   5.874  10.801  0.0990 -0.1374 -0.8442
  742MOL0     C   99   1.427   5.855  10.871 -0.1401 -0.5547 -0.8797
  742MOL0     C  100   0.699   5.717  10.501  0.8500 -0.3543 -0.1535
  742MOL0     C  101   0.621   5.616  10.446 -0.7925 -0.4530 -0.3323
  742MOL0     C  102   0.626   5.601  10.293  0.6054  0.8086 -0.2263
  742MOL0     H  103   0.310   5.240  10.309 -1.2564  1.1943 -0.0715
  742MOL0     H  104   0.157   5.077  10.286 -1.9932  3.5358 -0.7390
  742MOL0     H  105   0.032   4.841  10.643 -1.5468  2.6981  2.8424
  742MOL0     H  106  -0.114   4.926  10.592  3.0022  4.1435  2.2265
  742MOL0     H  107  -0.110   4.668  10.597  2.1142  2.0103  1.2389
  742MOL0     H  108  -0.016   4.664  10.452  1.9523  1.0800  0.8537
  742MOL0     H  109  -0.257   4.644  10.388 -0.0863 -0.1139 -0.4482
  742MOL0     H  110  -0.185   4.785  10.313 -0.0670 -0.4494 -0.4861
  742MOL0     H  111  -0.309   4.822  10.586 -2.1045 -2.2136 -0.0377
  742MOL0     H  112  -0.297   4.936  10.456 -0.9231  0.0939  0.3896
  742MOL0     H  113  -0.500   4.711  10.513  1.0211 -0.1946 -0.1080
  742MOL0     H  114  -0.529   4.886  10.509  1.5742  2.0163 -1.7168
  742MOL0     H  115  -0.501   4.910  10.293  0.4724 -0.0502  1.5557
  742MOL0     H  116  -0.441   4.733  10.271  0.4549 -0.8758  0.4853
  742MOL0     H  117  -0.710   4.803  10.383  0.3358  0.8906  0.1497
  742MOL0     H  118  -0.677   4.658  10.281 -2.9423  0.5071 -1.4269
  742MOL0     H  119  -0.711   4.938  10.184 -0.0688 -0.6379  4.9391
  742MOL0     H  120  -0.637   4.800  10.090 -0.4799 -0.7096  0.3620
  742MOL0     H  121  -0.981   4.913  10.273 -1.1814 -1.5306  1.3347
  742MOL0     H  122  -1.264   4.693  10.093  2.0259 -0.0982 -0.2928
  742MOL0     H  123  -1.235   4.706  10.258  0.9026  0.9709 -0.5822
  742MOL0     H  124  -1.212   4.963  10.264  0.7838  0.3071 -0.1870
  742MOL0     H  125  -1.254   4.967  10.097 -2.4496  1.7399  1.0410
  742MOL0     H  126  -1.443   4.895  10.321 -3.9932 -0.7294 -0.7897
  742MOL0     H  127  -1.451   4.835  10.154  4.3827 -2.1037  0.4682
  742MOL0     H  128  -1.413   5.112  10.279  0.8042 -1.4562  1.0466
  742MOL0     H  129  -1.570   5.060  10.227 -0.7747 -0.6676 -1.1497
  742MOL0     H  130  -1.469   5.266   9.857 -0.9353  0.7837 -1.5689
  742MOL0     H  131  -1.639   5.278   9.694  0.1591 -1.2051 -0.3969
  742MOL0     H  132  -1.888   5.465   9.467 -1.7009  0.4227  3.2985
  742MOL0     H  133  -2.006   5.499   9.249  1.9775  0.5910  1.8498
  742MOL0     H  134  -2.240   5.283   8.964 -2.1038 -2.7833 -0.1089
  742MOL0     H  135  -2.189   5.159   9.071  0.3415  0.2081  0.7621
  742MOL0     H  136  -2.386   5.192   9.208 -2.8370 -2.5205 -0.5100
  742MOL0     H  137  -2.437   5.323   9.099 -0.3188  0.0714  1.5815
  742MOL0     H  138  -2.402   5.129   8.916  1.7137 -2.8927  1.0782
  742MOL0     H  139  -2.419   5.025   9.060  2.7531 -0.3094  0.7201
  742MOL0     H  140  -2.616   5.225   8.941  0.1868 -1.8816 -2.7636
  742MOL0     H  141  -2.635   5.159   9.111 -5.5544 -2.6629 -1.0033
  742MOL0     H  142  -2.625   4.923   8.999  1.5812 -1.7981 -3.1734
  742MOL0     H  143  -2.605   5.013   8.844 -0.6564 -1.1424 -0.1618
  742MOL0     H  144  -2.852   4.983   9.014  1.7161 -1.1240  0.9195
  742MOL0     H  145  -2.836   5.109   8.891  1.4545 -0.0055  0.4934
  742MOL0     H  146  -2.786   4.958   8.715 -0.4588  1.0810  0.4017
  742MOL0     H  147  -2.946   4.942   8.797  0.3678  1.2910  0.4692
  742MOL0     H  148  -2.699   4.767   8.853  0.9050 -2.9259 -2.1368
  742MOL0     H  149  -2.880   4.744   8.898 -0.1278  0.7605 -0.5486
  742MOL0     H  150  -2.178   5.113   9.270  0.5333  2.3213 -2.8638
  742MOL0     H  151  -2.042   5.066   9.470  0.8734 -1.3828 -2.3871
  742MOL0     H  152  -1.847   4.962   9.891 -0.8209  1.9394 -1.5909
  742MOL0     H  153  -1.666   4.942  10.043  3.5365  0.2351 -1.2174
  742MOL0     H  154   0.101   5.034  10.707 -2.2609 -1.7000 -1.7283
  742MOL0     H  155   0.278   5.220  10.737 -0.4188  0.0916  0.2708
  742MOL0     H  156   0.532   5.466  10.740 -0.5806  0.4036 -2.0195
  742MOL0     H  157   0.690   5.632  10.829  0.8074  0.5331 -0.4043
  742MOL0     H  158   0.892   5.708  10.837  1.2096 -0.0893 -0.7813
  742MOL0     H  159   0.819   5.853  10.896  4.8277  2.2666  1.3206
  742MOL0     H  160   1.047   5.872  10.912 -2.0247 -1.2785  0.7996
  742MOL0     H  161   0.987   5.998  10.801  1.1741  0.9719  1.0187
  742MOL0     H  162   1.030   5.837  10.623 -2.1308  0.8480  0.5325
  742MOL0     H  163   1.112   5.722  10.731 -0.6858  0.0544  0.3768
  742MOL0     H  164   1.269   5.859  10.602  2.4799  3.9191 -0.0538
  742MOL0     H  165   1.219   6.006  10.694  0.0919  0.7004  0.0864
  742MOL0     H  166   1.511   5.830  10.932  0.2748 -2.0800 -2.0349
  742MOL0     H  167   0.753   5.789  10.440  1.9690 -1.3037 -0.3170
  742MOL0     H  168   0.549   5.663  10.246 -1.1752 -1.3691 -0.3373
  742MOL0     H  169   0.725   5.637  10.263  1.9750 -1.0767  1.7012
  742MOL0     H  170   0.599   5.503  10.252 -1.7163  2.2465 -2.4639
  743MOL0     O  171   7.282   5.096   3.663  0.5821 -0.4533  0.3279
  743MOL0     C  172   7.385   5.164   3.681  0.2706  0.1902  0.2582
  743MOL0     O  173   7.400   5.292   3.628 -0.6156 -0.3809 -0.4975
  743MOL0     C  174   7.321   5.334   3.528  0.3215  0.3281 -0.1584
  743MOL0     C  175   7.279   5.262   3.415  0.4318 -0.9083 -1.1947
  743MOL0     C  176   7.208   5.329   3.319  0.1629  0.6310 -0.4694
  743MOL0     C  177   7.157   5.457   3.339 -1.7484 -0.2897  1.0942
  743MOL0     O  178   7.069   5.506   3.246  0.5483  0.7183  0.0001
  743MOL0     C  179   7.046   5.646   3.250 -0.6116 -0.9433 -0.2852
  743MOL0     C  180   6.967   5.689   3.129 -0.1677  0.3862 -0.6510
  743MOL0     C  181   6.821   5.664   3.147  0.6257 -0.6170  0.7553
  743MOL0     C  182   6.746   5.708   3.023  1.1591 -0.3212  0.3937
  743MOL0     C  183   6.596   5.667   3.016 -0.3386  0.0321 -0.5261
  743MOL0     C  184   6.544   5.683   2.873  0.3022  0.6383 -0.6308
  743MOL0     C  185   6.404   5.630   2.839  0.5738  0.8187  0.3072
  743MOL0     C  186   6.384   5.485   2.881  0.3163  0.1162  0.7387
  743MOL0     N  187   6.460   5.391   2.806  0.1838  0.3552 -0.5655
  743MOL0     C  188   6.594   5.364   2.838  0.2872  1.1426 -1.2451
  743MOL0     C  189   6.633   5.272   2.742  0.2794  0.2902 -0.1911
  743MOL0     C  190   6.766   5.224   2.704 -0.3159  0.2946 -0.1054
  743MOL0     C  191   6.883   5.205   2.813 -0.0748 -0.0644  0.0158
  743MOL0     C  192   6.953   5.334   2.834  0.5667  0.3757 -0.1506
  743MOL0     C  193   7.106   5.312   2.864 -0.7008  0.2056  0.4372
  743MOL0     O  194   7.160   5.439   2.880  0.5591 -0.1830  0.4216
  743MOL0     C  195   7.267   5.437   2.965  1.0611 -0.4258 -0.2523
  743MOL0     C  196   7.286   5.547   3.043 -0.0907  0.5956 -0.1017
  743MOL0     C  197   7.395   5.567   3.130  0.3105  0.8544  1.3075
  743MOL0     C  198   7.495   5.471   3.143 -0.4241  0.8863 -0.3399
  743MOL0     C  199   7.611   5.485   3.233 -0.5927  0.4185  1.8764
  743MOL0     O  200   7.714   5.391   3.222  0.9347 -0.7249  0.0016
  743MOL0     C  201   7.800   5.391   3.321 -0.0085 -0.3856 -0.2406
  743MOL0     C  202   7.937   5.401   3.294  0.2513 -0.2812 -0.9527
  743MOL0     C  203   8.024   5.400   3.404 -0.1852  0.2232  0.5432
  743MOL0     C  204   7.984   5.357   3.528  0.1938 -0.3861  0.3215
  743MOL0     O  205   8.085   5.351   3.618  0.1347 -0.2686  0.6271
  743MOL0     C  206   8.099   5.423   3.745  0.6108  0.9472 -0.0200
  743MOL0     C  207   8.191   5.355   3.844  0.2887  0.4837  0.0831
  743MOL0     C  208   8.226   5.206   3.799  0.6567  0.1976  0.6289
  743MOL0     C  209   8.313   5.131   3.905 -0.0969  0.2775  0.7490
  743MOL0     C  210   8.440   5.203   3.959  0.0974  0.4296  0.3455
  743MOL0     C  211   8.530   5.248   3.858 -0.0634  0.2967  0.5849
  743MOL0     C  212   8.672   5.288   3.909  0.9860  0.2244 -0.8153
  743MOL0     C  213   8.762   5.367   3.804  0.1199  0.2079  0.0039
  743MOL0    Cl  214   8.842   5.240   3.687 -0.6016  0.1599 -0.0243
  743MOL0     C  215   7.849   5.343   3.559 -0.8625  1.0226  0.3235
  743MOL0     C  216   7.764   5.358   3.451 -0.1732  0.1109  0.4681
  743MOL0     O  217   7.615   5.582   3.298  0.6282  0.2170 -0.7953
  743MOL0     C  218   7.473   5.356   3.070 -0.2198  0.2399 -0.1195
  743MOL0     C  219   7.364   5.333   2.984 -0.4103  0.4801  0.9084
  743MOL0     N  220   6.523   5.255   2.660 -0.3838  0.0390  0.4757
  743MOL0     N  221   6.427   5.326   2.691  1.0594 -0.3362 -0.1802
  743MOL0     C  222   7.198   5.528   3.453  0.1473 -0.3882 -0.2044
  743MOL0     C  223   7.291   5.466   3.538 -0.3664  0.4720  0.1757
  743MOL0     C  224   7.474   5.123   3.781 -0.1583 -0.1007  0.5404
  743MOL0     C  225   7.508   5.208   3.889 -0.0642  0.0813  0.6734
  743MOL0     C  226   7.603   5.176   3.978 -0.2298 -0.2109 -0.6876
  743MOL0     C  227   7.657   5.048   3.974  0.2048 -0.5869  0.2445
  743MOL0     O  228   7.739   5.003   4.069  0.7733 -0.3006  0.8152
  743MOL0     C  229   7.794   5.083   4.175 -0.0110 -0.6258  0.4431
  743MOL0     C  230   7.888   4.998   4.260  0.3153  0.3646  0.3703
  743MOL0     C  231   7.974   4.906   4.170  0.2053 -0.2349 -0.7944
  743MOL0     C  232   8.070   4.844   4.264 -0.5895 -0.0846  0.3613
  743MOL0     C  233   8.175   4.762   4.199  0.1130 -0.7657 -0.0552
  743MOL0     C  234   8.272   4.697   4.184 -0.3886  0.0072 -0.5330
  743MOL0     C  235   7.635   4.960   3.865  0.1818  0.0717 -0.9120
  743MOL0     C  236   7.535   4.998   3.774  0.1196  0.2990 -0.0148
  743MOL0     C  237   7.521   4.892   3.662 -0.6021  0.4091 -0.2830
  743MOL0     H  238   7.311   5.159   3.398 -1.3561 -1.5152 -1.0904
  743MOL0     H  239   7.172   5.281   3.229  1.0866 -2.8207  0.8222
  743MOL0     H  240   6.992   5.675   3.341  0.4806 -3.2625  1.2074
  743MOL0     H  241   7.138   5.705   3.240 -2.0489  2.3174  3.2224
  743MOL0     H  242   6.995   5.635   3.038  1.4860  2.0626 -1.2167
  743MOL0     H  243   6.983   5.794   3.102 -0.7178  0.3642 -1.0869
  743MOL0     H  244   6.785   5.724   3.231  0.1002 -0.3236  0.3358
  743MOL0     H  245   6.812   5.557   3.165  1.9808 -0.9010 -0.0886
  743MOL0     H  246   6.755   5.815   3.007 -2.0675 -0.0363 -0.1432
  743MOL0     H  247   6.800   5.664   2.938  3.9266  0.5931  1.5374
  743MOL0     H  248   6.594   5.561   3.045  1.7692 -0.0117 -0.3850
  743MOL0     H  249   6.540   5.719   3.094  1.3789  1.1715 -0.0018
  743MOL0     H  250   6.559   5.789   2.849  1.2919  1.3688  2.6239
  743MOL0     H  251   6.617   5.634   2.809  2.9253  2.4425  0.7852
  743MOL0     H  252   6.403   5.640   2.730 -1.3679 -3.4420 -0.2614
  743MOL0     H  253   6.331   5.691   2.893  0.6814  2.3324 -1.1556
  743MOL0     H  254   6.401   5.476   2.989  2.2581 -0.3143  0.4218
  743MOL0     H  255   6.279   5.454   2.872 -0.1616  1.8937 -0.5386
  743MOL0     H  256   6.651   5.402   2.922  0.5242 -1.1992 -0.2541
  743MOL0     H  257   6.750   5.125   2.661 -2.7455  1.7506 -2.8680
  743MOL0     H  258   6.807   5.284   2.623  1.7225 -1.3505 -0.3646
  743MOL0     H  259   6.852   5.163   2.908 -0.6816 -1.5019 -0.7829
  743MOL0     H  260   6.954   5.129   2.779  1.1712  0.8769  0.4015
  743MOL0     H  261   6.899   5.383   2.915  0.8831  1.3841 -0.5411
  743MOL0     H  262   6.938   5.403   2.751 -2.5440 -0.7277 -0.6368
  743MOL0     H  263   7.161   5.261   2.784  2.2738  0.7535  1.9970
  743MOL0     H  264   7.116   5.254   2.956  1.3545 -0.5715 -0.2168
  743MOL0     H  265   7.215   5.629   3.050 -0.2216  0.4402  0.4347
  743MOL0     H  266   7.394   5.656   3.191  0.3442  3.0844 -1.7271
  743MOL0     H  267   7.968   5.411   3.191 -0.2845  0.0960 -1.0861
  743MOL0     H  268   8.132   5.412   3.401 -0.1405  0.6506  2.6698
  743MOL0     H  269   8.146   5.520   3.726  0.3689  1.2586  0.9026
  743MOL0     H  270   7.999   5.428   3.789 -0.2435 -4.6864 -0.6276
  743MOL0     H  271   8.285   5.411   3.849  1.4208 -1.4371  1.0879
  743MOL0     H  272   8.156   5.357   3.947 -0.5531 -0.2436 -0.1834
  743MOL0     H  273   8.135   5.146   3.791  0.7996 -0.0915  1.1432
  743MOL0     H  274   8.287   5.195   3.708 -1.0910 -0.5951 -0.4979
  743MOL0     H  275   8.350   5.034   3.869 -1.3733  0.1967 -0.4412
  743MOL0     H  276   8.248   5.118   3.991 -0.1623  1.5325  0.9174
  743MOL0     H  277   8.494   5.131   4.021 -2.2556 -2.5362 -0.8335
  743MOL0     H  278   8.414   5.295   4.013  0.2862  1.0177 -0.5333
  743MOL0     H  279   8.546   5.169   3.784  1.8966  0.0155  1.2414
  743MOL0     H  280   8.491   5.344   3.822 -3.2198 -0.8836  0.6077
  743MOL0     H  281   8.729   5.203   3.947  1.1691  0.6314 -0.1710
  743MOL0     H  282   8.639   5.358   3.986 -0.3772 -0.0071 -1.1615
  743MOL0     H  283   8.709   5.443   3.746 -0.2798 -0.2416 -0.2280
  743MOL0     H  284   8.844   5.422   3.851  1.4082  0.1371 -2.0261
  743MOL0     H  285   7.821   5.295   3.652  3.0201 -3.1756 -0.3730
  743MOL0     H  286   7.656   5.344   3.455  0.0828 -2.7846 -0.2048
  743MOL0     H  287   7.547   5.276   3.073 -0.9432 -0.6132 -2.6167
  743MOL0     H  288   7.349   5.242   2.926  0.9784  1.0043 -0.3329
  743MOL0     H  289   7.176   5.632   3.473 -3.1610 -1.5318  3.3280
  743MOL0     H  290   7.328   5.524   3.621 -0.3208 -1.3046  1.4510
  743MOL0     H  291   7.459   5.304   3.907  0.6494  0.2380  1.8821
  743MOL0     H  292   7.632   5.246   4.056 -0.3501 -0.5350 -0.3502
  743MOL0     H  293   7.712   5.126   4.231 -0.3276 -1.1148  0.3652
  743MOL0     H  294   7.853   5.167   4.139  0.8504 -0.4159  2.2423
  743MOL0     H  295   7.821   4.936   4.321  0.5628 -0.6045 -0.3192
  743MOL0     H  296   7.948   5.058   4.329 -1.0284  2.3732 -0.1148
  743MOL0     H  297   8.020   4.960   4.087 -0.8592  0.5176 -0.9047
  743MOL0     H  298   7.912   4.825   4.130  0.7583 -2.0075  1.6614
  743MOL0     H  299   8.122   4.923   4.319  1.3089 -0.6187 -0.5650
  743MOL0     H  300   8.015   4.770   4.323 -0.8718 -1.5279 -1.6342
  743MOL0     H  301   8.363   4.641   4.171 -0.3719 -0.1644  0.3052
  743MOL0     H  302   7.698   4.872   3.858  1.1367  0.7785 -1.2788
  743MOL0     H  303   7.567   4.924   3.569  1.7479 -0.4365  0.5268
  743MOL0     H  304   7.569   4.799   3.695 -0.0289  0.8574  0.1610
  743MOL0     H  305   7.416   4.877   3.636 -1.1088  0.3346  1.6403
  744MOL0     O  306   0.297   1.448  10.001  0.1512 -0.6859 -0.6816
  744MOL0     C  307   0.283   1.367   9.908  0.9519 -0.5946  0.1751
  744MOL0     O  308   0.160   1.328   9.859  0.0146  0.0498 -0.4033
  744MOL0     C  309   0.060   1.356   9.948  0.0028 -0.1359  0.4480
  744MOL0     C  310  -0.021   1.466   9.940  0.3599  0.3172 -0.1291
  744MOL0     C  311  -0.127   1.487  10.030  0.1368  0.5394 -0.0335
  744MOL0     C  312  -0.152   1.389  10.119  0.2631  0.4261 -0.0866
  744MOL0     O  313  -0.253   1.408  10.205 -0.0957  0.0528 -0.7704
  744MOL0     C  314  -0.252   1.343  10.335 -0.1952  0.2328  0.3968
  744MOL0     C  315  -0.337   1.433  10.432 -0.6991  0.2038 -0.1086
  744MOL0     C  316  -0.477   1.458  10.383 -0.3859 -0.8436  0.4446
  744MOL0     C  317  -0.527   1.564  10.486  0.0870 -0.1319 -0.3290
  744MOL0     C  318  -0.670   1.623  10.451  0.3832  0.7361  0.1703
  744MOL0     C  319  -0.702   1.738  10.548  0.6996 -0.2882 -0.3796
  744MOL0     C  320  -0.854   1.770  10.536 -0.3033  0.1047 -0.0533
  744MOL0     C  321  -0.894   1.889  10.626 -0.4899  0.6194  0.0086
  744MOL0     N  322  -1.031   1.935  10.599 -1.0191 -0.0270  0.0543
  744MOL0     C  323  -1.082   1.967  10.474 -0.0959 -0.0202 -0.5386
  744MOL0     C  324  -1.202   2.020  10.502  0.8486  0.1800 -0.2380
  744MOL0     C  325  -1.313   2.062  10.403 -0.1344  1.1591 -0.9951
  744MOL0     C  326  -1.383   2.200  10.431  0.1503  0.8760 -0.6014
  744MOL0     C  327  -1.277   2.314  10.413  0.1887 -0.7984  0.4036
  744MOL0     C  328  -1.284   2.426  10.519  0.1027 -0.1979  0.0652
  744MOL0     O  329  -1.222   2.399  10.643  0.4456  0.3984 -0.0149
  744MOL0     C  330  -1.090   2.389  10.650  0.2812  0.4259  0.7562
  744MOL0     C  331  -1.030   2.290  10.724  0.1294 -0.2230  0.4908
  744MOL0     C  332  -0.886   2.289  10.723  0.4531 -0.2014 -0.2963
  744MOL0     C  333  -0.810   2.368  10.645  0.0466 -0.0996  0.1869
  744MOL0     C  334  -0.660   2.364  10.642 -0.3919  0.4023 -0.4121
  744MOL0     O  335  -0.606   2.246  10.678 -0.6334  0.4988  0.1500
  744MOL0     C  336  -0.470   2.230  10.653 -0.5599  0.0136 -1.1220
  744MOL0     C  337  -0.427   2.143  10.566 -0.3712  0.0805 -0.4284
  744MOL0     C  338  -0.287   2.126  10.531  0.3884  0.2830  0.1740
  744MOL0     C  339  -0.192   2.211  10.592 -1.1682  0.2245  0.6370
  744MOL0     O  340  -0.070   2.214  10.542  0.1639 -0.2886  0.0868
  744MOL0     C  341   0.033   2.200  10.641 -0.6238 -0.2914 -0.5191
  744MOL0     C  342   0.165   2.189  10.555 -0.0726 -0.6831 -0.0941
  744MOL0     C  343   0.164   2.055  10.471 -0.0737 -0.3689 -0.5067
  744MOL0     C  344   0.301   2.002  10.447 -0.4331  0.5810 -0.8391
  744MOL0     C  345   0.372   1.939  10.567 -0.3574 -0.9715  0.9902
  744MOL0     C  346   0.308   1.803  10.592  0.3051  0.1729  0.3865
  744MOL0     C  347   0.398   1.710  10.677  0.3265  0.5801 -0.5959
  744MOL0     C  348   0.369   1.563  10.678  0.1338  0.3853 -0.8329
  744MOL0    Cl  349   0.195   1.546  10.730 -0.5605  0.0866 -0.2462
  744MOL0     C  350  -0.241   2.305  10.679  0.8959 -0.0430 -0.9100
  744MOL0     C  351  -0.381   2.315  10.716  0.1157 -0.3771  0.3506
  744MOL0     O  352  -0.596   2.454  10.592  0.4391  1.3399  0.1437
  744MOL0     C  353  -0.874   2.463  10.569 -0.0885 -0.3608  0.5551
  744MOL0     C  354  -1.011   2.473  10.570 -0.1123  0.8710 -0.0213
  744MOL0     N  355  -1.220   2.026  10.646 -0.8730 -0.4443  0.2552
  744MOL0     N  356  -1.112   1.971  10.699 -0.1905 -0.2883 -1.0552
  744MOL0     C  357  -0.063   1.279  10.129  1.3959  0.3430  0.4911
  744MOL0     C  358   0.039   1.257  10.046 -0.1651 -0.4714  1.0995
  744MOL0     C  359   0.409   1.313   9.839  0.1613 -0.2376  0.4207
  744MOL0     C  360   0.429   1.176   9.827 -0.7431  1.0356 -0.3414
  744MOL0     C  361   0.550   1.120   9.779  0.3845  1.1040  0.1140
  744MOL0     C  362   0.643   1.207   9.723  0.5749  0.1765 -0.0663
  744MOL0     O  363   0.759   1.169   9.656  0.4720  0.0393 -0.0947
  744MOL0     C  364   0.770   1.037   9.617  0.4028  0.7020 -0.1999
  744MOL0     C  365   0.861   1.012   9.501  0.1506 -0.4320  0.2738
  744MOL0     C  366   1.004   1.064   9.524  0.1771  0.0953  0.0918
  744MOL0     C  367   1.077   0.979   9.625  0.0456 -0.7746 -0.3237
  744MOL0     C  368   1.224   1.004   9.653  0.1700  0.0541 -0.8439
  744MOL0     C  369   1.340   1.023   9.674 -0.3441 -0.2931  0.2417
  744MOL0     C  370   0.613   1.342   9.724  0.0166  0.2735 -0.3016
  744MOL0     C  371   0.500   1.399   9.781 -0.6185 -0.2913  0.6378
  744MOL0     C  372   0.484   1.552   9.771 -0.6389 -0.2306 -0.4501
  744MOL0     H  373   0.012   1.531   9.859  0.2150 -1.0611 -1.3249
  744MOL0     H  374  -0.184   1.579  10.028 -0.9220 -0.1114 -0.5358
  744MOL0     H  375  -0.304   1.249  10.312 -1.4347  1.3845 -1.7962
  744MOL0     H  376  -0.150   1.331  10.375 -0.1717  1.5530  0.7872
  744MOL0     H  377  -0.286   1.528  10.446  0.7338 -0.7324  1.4278
  744MOL0     H  378  -0.349   1.375  10.524 -1.6420 -2.6199 -1.8476
  744MOL0     H  379  -0.540   1.369  10.390 -0.3214 -0.9110  0.1523
  744MOL0     H  380  -0.493   1.502  10.284  0.5038 -2.6148 -0.5291
  744MOL0     H  381  -0.518   1.528  10.589  1.9517 -0.5436 -0.5955
  744MOL0     H  382  -0.462   1.652  10.489 -1.6002  1.1772 -0.7475
  744MOL0     H  383  -0.662   1.662  10.350  1.7900  0.6333  0.2181
  744MOL0     H  384  -0.753   1.551  10.459 -0.6337  1.3727 -3.2364
  744MOL0     H  385  -0.679   1.708  10.650  1.7946  0.0736 -0.5084
  744MOL0     H  386  -0.657   1.831  10.510 -0.7563 -0.0825 -1.6987
  744MOL0     H  387  -0.911   1.682  10.567  0.1015  0.3660  1.4661
  744MOL0     H  388  -0.866   1.786  10.428  2.2776 -1.0141 -0.5830
  744MOL0     H  389  -0.887   1.869  10.733 -1.0431  1.1406  0.1473
  744MOL0     H  390  -0.841   1.983  10.605 -1.0439  0.9890  0.2376
  744MOL0     H  391  -1.033   1.934  10.384  1.2748 -0.9525  0.5126
  744MOL0     H  392  -1.266   2.074  10.305  1.1433 -1.2838 -0.7543
  744MOL0     H  393  -1.393   1.988  10.394 -0.8099  1.5923  1.0009
  744MOL0     H  394  -1.473   2.208  10.369 -0.9603 -0.9713  0.6544
  744MOL0     H  395  -1.418   2.203  10.535  3.7864  2.6839  0.7545
  744MOL0     H  396  -1.300   2.376  10.326 -0.4150 -1.1753  0.2899
  744MOL0     H  397  -1.174   2.278  10.398  0.3403  0.4943 -2.1299
  744MOL0     H  398  -1.386   2.464  10.530  1.2567  3.0711  0.7195
  744MOL0     H  399  -1.238   2.517  10.478  0.9427  1.0530  3.4979
  744MOL0     H  400  -1.095   2.218  10.773  0.1685  0.8760  2.2449
  744MOL0     H  401  -0.837   2.235  10.803 -0.1611  2.7326  2.2491
  744MOL0     H  402  -0.493   2.079  10.509  2.8660 -0.7752 -3.6232
  744MOL0     H  403  -0.248   2.048  10.466  1.3435  1.0254 -0.1548
  744MOL0     H  404   0.031   2.278  10.716 -0.4674  0.2481 -1.0676
  744MOL0     H  405   0.030   2.102  10.690 -0.0056  0.5236  1.2051
  744MOL0     H  406   0.180   2.277  10.492  0.0426 -0.5204  0.1582
  744MOL0     H  407   0.249   2.191  10.625  0.3952 -1.5900 -0.6109
  744MOL0     H  408   0.115   1.976  10.528  0.7076  0.2227  1.0357
  744MOL0     H  409   0.107   2.081  10.382 -0.1275  1.4211  0.0081
  744MOL0     H  410   0.357   2.085  10.403 -2.8296  2.5304 -0.4431
  744MOL0     H  411   0.285   1.925  10.371  1.6407  0.2221 -0.9648
  744MOL0     H  412   0.354   2.001  10.656  0.9136  0.6159  0.2004
  744MOL0     H  413   0.481   1.942  10.550 -0.0204 -0.2882  2.9683
  744MOL0     H  414   0.213   1.831  10.640  0.5652  3.2063 -0.7041
  744MOL0     H  415   0.288   1.750  10.499  4.8402  2.0577 -1.9382
  744MOL0     H  416   0.394   1.758  10.775 -1.4703  1.4674 -1.0622
  744MOL0     H  417   0.499   1.720  10.635 -0.0686 -0.3542 -1.8317
  744MOL0     H  418   0.386   1.513  10.583 -0.2229  0.3258 -0.8689
  744MOL0     H  419   0.429   1.522  10.760  0.2696  0.6865 -0.7809
  744MOL0     H  420  -0.173   2.374  10.727  0.5701 -0.7896  0.6757
  744MOL0     H  421  -0.427   2.393  10.777  2.0314  2.5241 -1.6211
  744MOL0     H  422  -0.824   2.532  10.502 -2.2348 -0.8613 -1.6929
  744MOL0     H  423  -1.047   2.549  10.502  0.6629  1.8777  0.6615
  744MOL0     H  424  -0.082   1.204  10.204  1.4348  1.9874  2.2187
  744MOL0     H  425   0.095   1.166  10.063  0.7094 -0.2814 -0.5640
  744MOL0     H  426   0.351   1.108   9.861 -3.5761  2.3425 -3.6951
  744MOL0     H  427   0.561   1.012   9.780  1.5780  1.1142  4.4496
  744MOL0     H  428   0.670   1.003   9.588 -0.6773  1.2829  2.5498
  744MOL0     H  429   0.790   0.982   9.709 -0.9460  2.4545  1.2185
  744MOL0     H  430   0.813   1.057   9.414 -2.5297 -2.2962  0.6651
  744MOL0     H  431   0.871   0.905   9.479  4.3503  0.1392 -1.5100
  744MOL0     H  432   1.002   1.169   9.554 -0.6701 -0.1287  0.8745
  744MOL0     H  433   1.057   1.056   9.429  1.5321  2.3506  0.5888
  744MOL0     H  434   1.027   1.004   9.719 -0.2583 -1.8061 -0.1921
  744MOL0     H  435   1.059   0.873   9.605  0.3342 -1.1393  1.1826
  744MOL0     H  436   1.446   1.042   9.679 -0.7159  1.6702  1.7194
  744MOL0     H  437   0.683   1.412   9.679 -0.5061  2.3803  1.9404
  744MOL0     H  438   0.385   1.592   9.793 -0.2337 -0.1803  1.4226
  744MOL0     H  439   0.554   1.584   9.848 -1.7068 -0.7794  0.7839
  744MOL0     H  440   0.511   1.590   9.672 -0.2933 -0.6352 -0.5184
  745MOL0     O  441   4.477   1.140   3.253 -0.4929 -0.3034  0.1446
  745MOL0     C  442   4.527   1.029   3.244 -0.4496  0.0166  0.1502
  745MOL0     O  443   4.456   0.913   3.269 -0.1156 -0.6110 -0.3328
  745MOL0     C  444   4.330   0.938   3.322  0.2730 -0.4401  0.2637
  745MOL0     C  445   4.324   0.977   3.454 -0.5004 -0.3838 -1.0522
  745MOL0     C  446   4.208   1.000   3.526  0.6182  0.4810 -0.3048
  745MOL0     C  447   4.088   0.972   3.463 -0.2356 -0.2464 -0.5038
  745MOL0     O  448   3.974   1.014   3.538  0.0748 -0.8187  0.0581
  745MOL0     C  449   3.850   0.988   3.488 -0.3742  0.0270 -0.0225
  745MOL0     C  450   3.815   0.839   3.501  0.3514 -0.1060  0.9733
  745MOL0     C  451   3.667   0.813   3.506 -0.5548 -0.8806  0.2860
  745MOL0     C  452   3.620   0.843   3.641  0.4328  0.0511  0.0538
  745MOL0     C  453   3.463   0.830   3.655  0.1869 -0.0326 -0.3071
  745MOL0     C  454   3.386   0.948   3.602  0.5382 -0.1506 -0.0830
  745MOL0     C  455   3.247   0.963   3.657  0.6364 -0.4739  0.1697
  745MOL0     C  456   3.167   1.089   3.622 -0.2261  0.1669 -0.0827
  745MOL0     N  457   3.142   1.098   3.479 -0.1907  0.4815  0.6917
  745MOL0     C  458   3.214   1.146   3.373 -0.3507  0.3287  0.0911
  745MOL0     C  459   3.150   1.113   3.259 -0.5144  0.1039  0.7550
  745MOL0     C  460   3.174   1.181   3.132 -0.1161 -0.1044 -0.5436
  745MOL0     C  461   3.111   1.124   3.005 -0.0296  0.1033  0.3225
  745MOL0     C  462   3.123   1.224   2.889  0.6136 -0.6342  0.0238
  745MOL0     C  463   3.269   1.255   2.847  0.1644 -0.3371 -0.0860
  745MOL0     O  464   3.267   1.338   2.732 -0.7839  0.9713  0.4883
  745MOL0     C  465   3.393   1.383   2.694  0.7747 -0.3795  0.2927
  745MOL0     C  466   3.519   1.324   2.727  0.5707 -0.3860  0.8602
  745MOL0     C  467   3.649   1.372   2.693  0.0198  0.1519  0.4594
  745MOL0     C  468   3.653   1.501   2.623  0.5751  0.3593 -0.1962
  745MOL0     C  469   3.776   1.570   2.587  0.3152  0.5633  0.2497
  745MOL0     O  470   3.887   1.526   2.659  0.3085  0.0874 -0.3794
  745MOL0     C  471   4.006   1.600   2.643  0.9931  0.7427  0.2774
  745MOL0     C  472   4.122   1.524   2.651  0.8693  0.2871 -0.5330
  745MOL0     C  473   4.242   1.591   2.663 -0.3857 -0.2071  0.0519
  745MOL0     C  474   4.252   1.731   2.668  0.9594 -0.3016  0.4584
  745MOL0     O  475   4.362   1.804   2.666  0.6730 -1.3534 -0.7873
  745MOL0     C  476   4.488   1.742   2.682 -0.4458 -0.4228  0.3408
  745MOL0     C  477   4.599   1.846   2.693  0.1465 -1.1133 -0.1952
  745MOL0     C  478   4.743   1.793   2.680  0.5075 -0.4804  0.1233
  745MOL0     C  479   4.851   1.903   2.693 -0.7929 -0.4048 -0.2162
  745MOL0     C  480   4.986   1.834   2.661  0.8229  0.2988  0.5517
  745MOL0     C  481   5.109   1.926   2.654 -0.8756 -0.7345 -0.1964
  745MOL0     C  482   5.248   1.868   2.620  0.3247  0.1155 -0.1030
  745MOL0     C  483   5.364   1.966   2.641 -0.8854 -0.0975  0.2839
  745MOL0    Cl  484   5.511   1.885   2.574 -0.4047  0.1682 -0.4851
  745MOL0     C  485   4.129   1.801   2.666 -0.0659 -0.5406  0.6829
  745MOL0     C  486   4.005   1.741   2.647  0.4702  0.2014 -0.0688
  745MOL0     O  487   3.777   1.655   2.502  0.8322  0.7385 -0.1536
  745MOL0     C  488   3.528   1.564   2.595 -0.4051 -0.4523  0.0521
  745MOL0     C  489   3.405   1.502   2.622  0.4678 -0.1811 -0.5950
  745MOL0     N  490   3.044   1.034   3.292  0.4232  0.4142  0.6375
  745MOL0     N  491   3.043   1.023   3.417 -0.4530  0.4273  0.2352
  745MOL0     C  492   4.085   0.933   3.329 -0.3176 -0.2135 -0.2716
  745MOL0     C  493   4.207   0.921   3.254 -0.0437 -0.5703  0.1038
  745MOL0     C  494   4.670   1.010   3.230 -0.3072 -0.4975  0.4685
  745MOL0     C  495   4.728   0.919   3.321  0.2286 -0.7389  0.3686
  745MOL0     C  496   4.867   0.913   3.325 -0.0778 -0.3262  0.7814
  745MOL0     C  497   4.945   0.975   3.233 -1.0926 -0.0463 -0.2156
  745MOL0     O  498   5.082   0.966   3.239  0.3667 -0.0003  0.1068
  745MOL0     C  499   5.174   1.081   3.203  0.0294 -0.0337  0.2862
  745MOL0     C  500   5.319   1.046   3.225 -0.0011  0.5704 -0.4369
  745MOL0     C  501   5.414   1.161   3.181  0.8582  0.3639  0.1204
  745MOL0     C  502   5.439   1.260   3.299  0.3713  0.3016 -0.4139
  745MOL0     C  503   5.507   1.189   3.412  0.3768 -0.2466  0.5400
  745MOL0     C  504   5.567   1.137   3.501 -0.9569 -0.0036 -0.1622
  745MOL0     C  505   4.879   1.058   3.137 -0.0116 -0.0097 -1.0017
  745MOL0     C  506   4.744   1.081   3.135  0.9771 -0.9876 -0.0661
  745MOL0     C  507   4.690   1.190   3.043  0.2467  0.4199  0.3729
  745MOL0     H  508   4.420   0.997   3.499 -0.2263 -2.7012 -0.4722
  745MOL0     H  509   4.220   1.034   3.629 -1.5440  2.0419 -0.4959
  745MOL0     H  510   3.785   1.046   3.554  1.2225  0.2444  1.4330
  745MOL0     H  511   3.838   1.025   3.386  0.3653  1.3740  0.3562
  745MOL0     H  512   3.876   0.802   3.583 -0.4911 -0.1723  1.5789
  745MOL0     H  513   3.850   0.780   3.415 -0.2174  0.0342  0.6321
  745MOL0     H  514   3.659   0.711   3.469  0.5117  0.5587 -4.7534
  745MOL0     H  515   3.610   0.871   3.432 -1.2181  0.0600  1.5104
  745MOL0     H  516   3.663   0.784   3.723 -2.7411  0.2651  2.0350
  745MOL0     H  517   3.639   0.948   3.666 -0.3857 -0.1536  1.7023
  745MOL0     H  518   3.427   0.740   3.604  2.8880 -1.3642 -0.0607
  745MOL0     H  519   3.446   0.807   3.761 -3.1303  0.7662 -0.5621
  745MOL0     H  520   3.444   1.039   3.621  1.0247 -0.3226 -0.7210
  745MOL0     H  521   3.382   0.944   3.493 -0.0187 -0.4878 -0.0571
  745MOL0     H  522   3.255   0.960   3.766  1.5400 -1.8328  0.0868
  745MOL0     H  523   3.193   0.877   3.619 -1.7886  1.4932 -1.1115
  745MOL0     H  524   3.079   1.090   3.688  1.1318 -0.2291  1.8281
  745MOL0     H  525   3.229   1.177   3.643 -2.7984  1.7996  1.2053
  745MOL0     H  526   3.306   1.202   3.383  0.8432 -1.0991 -2.1243
  745MOL0     H  527   3.130   1.282   3.137 -0.2093 -0.2062  1.4969
  745MOL0     H  528   3.282   1.196   3.120 -0.0192 -0.2134  0.1505
  745MOL0     H  529   3.170   1.039   2.970  0.7789  0.6446  0.3429
  745MOL0     H  530   3.012   1.084   3.027  0.1639 -1.5108 -1.4520
  745MOL0     H  531   3.079   1.321   2.915  2.3873  0.1790  0.1098
  745MOL0     H  532   3.082   1.181   2.797  1.5672 -0.5645 -0.4485
  745MOL0     H  533   3.313   1.161   2.812  2.1453 -0.0142  1.3755
  745MOL0     H  534   3.316   1.292   2.938 -0.8291 -1.9472  1.1466
  745MOL0     H  535   3.509   1.227   2.775 -3.8411 -1.4171 -1.5105
  745MOL0     H  536   3.740   1.326   2.727  0.7087  1.0849 -0.0773
  745MOL0     H  537   4.113   1.417   2.635  4.1893 -0.1731 -0.0488
  745MOL0     H  538   4.340   1.543   2.667 -0.5497 -0.4709  1.1939
  745MOL0     H  539   4.498   1.673   2.767  3.0118  1.8104  1.9942
  745MOL0     H  540   4.499   1.690   2.587 -1.6014  0.9814 -0.6151
  745MOL0     H  541   4.580   1.925   2.620 -1.3787  1.0520  2.3499
  745MOL0     H  542   4.596   1.903   2.787 -0.0984 -0.8022 -0.3940
  745MOL0     H  543   4.764   1.720   2.758 -3.8977 -2.3478 -0.1577
  745MOL0     H  544   4.746   1.739   2.584 -1.7777  0.9538 -0.8341
  745MOL0     H  545   4.852   1.964   2.784  4.1597  0.8229 -0.7835
  745MOL0     H  546   4.828   1.974   2.613 -2.4868 -1.3057 -0.5589
  745MOL0     H  547   4.978   1.773   2.570  0.4805  3.1983 -1.4987
  745MOL0     H  548   5.014   1.764   2.740  0.8377 -0.0055  0.2800
  745MOL0     H  549   5.082   2.006   2.584 -1.6431 -1.4308 -0.7099
  745MOL0     H  550   5.109   1.967   2.756  3.2130 -0.5319 -0.1127
  745MOL0     H  551   5.242   1.835   2.516 -2.9854 -1.1454  0.3794
  745MOL0     H  552   5.264   1.776   2.677  1.7472  0.9826  0.9811
  745MOL0     H  553   5.335   2.061   2.597  0.8200  0.7729  0.9484
  745MOL0     H  554   5.377   1.973   2.750 -0.4671 -3.6493  0.5936
  745MOL0     H  555   4.136   1.909   2.668 -3.2219 -0.2504  0.4631
  745MOL0     H  556   3.913   1.798   2.644  0.2786 -0.1105 -2.2618
  745MOL0     H  557   3.539   1.654   2.535  2.0373 -1.6375 -1.4263
  745MOL0     H  558   3.315   1.553   2.590  0.2150 -0.1719  0.1098
  745MOL0     H  559   3.990   0.922   3.278 -0.1016  1.1871 -1.0250
  745MOL0     H  560   4.197   0.888   3.151 -0.3347  1.6443 -0.6161
  745MOL0     H  561   4.659   0.878   3.394 -1.9289  0.8770 -0.6371
  745MOL0     H  562   4.912   0.845   3.397  0.1347 -1.1413 -0.0961
  745MOL0     H  563   5.141   1.172   3.255  3.0947  1.7814 -0.6685
  745MOL0     H  564   5.172   1.119   3.101  2.5585  0.7384  0.4556
  745MOL0     H  565   5.343   0.965   3.155  4.7366  0.5708  0.8518
  745MOL0     H  566   5.336   1.012   3.327 -0.9238  0.3019 -0.3585
  745MOL0     H  567   5.368   1.217   3.099 -3.0338  1.7042  2.9006
  745MOL0     H  568   5.508   1.116   3.148 -0.1049 -1.5042 -0.1796
  745MOL0     H  569   5.516   1.331   3.264  1.2042 -0.3267  0.1097
  745MOL0     H  570   5.350   1.310   3.337  0.1848 -1.3930  1.4935
  745MOL0     H  571   5.624   1.107   3.586 -0.5692  0.7590 -0.1443
  745MOL0     H  572   4.940   1.108   3.062  2.6402  1.0041  1.6300
  745MOL0     H  573   4.684   1.282   3.101 -1.0484  0.8889 -0.4713
  745MOL0     H  574   4.768   1.202   2.967  1.2235 -0.6109  1.1650
  745MOL0     H  575   4.595   1.170   2.993  0.3789 -0.1535  0.3382
  746MOL0     O  576   3.602  10.248   1.399 -0.1047 -0.1239  0.0757
  746MOL0     C  577   3.571  10.340   1.479  0.8758 -0.0306  0.4170
  746MOL0     O  578   3.661  10.414   1.551  0.2702 -0.1006  0.2928
  746MOL0     C  579   3.797  10.392   1.531 -0.6197 -0.5945  0.7837
  746MOL0     C  580   3.884  10.495   1.488  0.3145  0.1182  0.0439
  746MOL0     C  581   4.022  10.469   1.486  0.0113  0.4019  0.0618
  746MOL0     C  582   4.074  10.342   1.515  0.1613  0.0812  0.2267
  746MOL0     O  583   4.209  10.321   1.506  0.0000  0.8799  0.1365
  746MOL0     C  584   4.240  10.243   1.390  0.3191 -0.9578  0.8262
  746MOL0     C  585   4.392  10.237   1.385 -1.1929  0.0405 -0.0357
  746MOL0     C  586   4.443  10.369   1.334 -0.7593 -0.6999 -0.1400
  746MOL0     C  587   4.414  10.395   1.190  0.1662  0.2875  0.0128
  746MOL0     C  588   4.443  10.540   1.151  0.3684 -0.0073 -0.5372
  746MOL0     C  589   4.388  10.579   1.012  0.4139  0.2187 -1.1758
  746MOL0     C  590   4.445  10.499   0.888  0.3891 -0.9793 -0.0367
  746MOL0     C  591   4.348  10.519   0.766  0.3078  0.7915  0.0531
  746MOL0     N  592   4.377  10.431   0.657 -0.5834  1.2794 -0.3881
  746MOL0     C  593   4.504  10.393   0.620  0.4202  0.2409 -0.1819
  746MOL0     C  594   4.483  10.285   0.529  0.3392 -0.1527 -0.4583
  746MOL0     C  595   4.581  10.221   0.438 -0.9287  0.3032 -0.6850
  746MOL0     C  596   4.569  10.300   0.310 -0.3274 -0.6400  0.4915
  746MOL0     C  597   4.692  10.296   0.212 -0.6755  0.4632 -0.4161
  746MOL0     C  598   4.826  10.323   0.287 -0.3207  0.0676  0.5070
  746MOL0     O  599   4.832  10.453   0.345  0.5691  0.0089  0.6616
  746MOL0     C  600   4.953  10.508   0.352 -0.0136  0.0757  0.2094
  746MOL0     C  601   4.956  10.648   0.334  0.4281 -0.6053 -0.0480
  746MOL0     C  602   5.076  10.716   0.343  0.3494 -0.3147 -0.1068
  746MOL0     C  603   5.190  10.639   0.383 -0.8230 -0.4171  0.2209
  746MOL0     C  604   5.328  10.703   0.410  0.2895  0.4580 -0.2407
  746MOL0     O  605   5.348  10.825   0.366 -0.7692  0.8465 -0.9829
  746MOL0     C  606   5.468  10.882   0.380 -0.3457  0.7197 -0.3371
  746MOL0     C  607   5.577  10.856   0.305  0.2465  0.4418  0.1014
  746MOL0     C  608   5.698  10.920   0.324  0.1807  0.1231 -0.7785
  746MOL0     C  609   5.718  11.007   0.436  0.2825  0.4865 -0.8496
  746MOL0     O  610   5.834  11.060   0.454 -0.5385 -0.1578 -0.4214
  746MOL0     C  611   5.859  11.183   0.516  0.3820 -1.2791 -1.1164
  746MOL0     C  612   5.989  11.246   0.489  0.1470 -0.4921  0.0974
  746MOL0     C  613   6.114  11.159   0.521  0.3037 -0.1891 -0.6964
  746MOL0     C  614   6.236  11.245   0.495 -0.1016 -0.0625  0.2591
  746MOL0     C  615   6.351  11.140   0.507 -0.1539 -0.0944  1.2861
  746MOL0     C  616   6.480  11.206   0.485  0.2334  0.7901 -0.3442
  746MOL0     C  617   6.592  11.109   0.524  0.6009  0.2862  0.4213
  746MOL0     C  618   6.719  11.154   0.459 -0.6368 -0.4533 -0.8133
  746MOL0    Cl  619   6.795  11.292   0.548 -0.2463 -0.2590 -0.4345
  746MOL0     C  620   5.602  11.034   0.515 -0.6356  0.3907 -0.1268
  746MOL0     C  621   5.478  10.977   0.483 -0.1267 -1.1378 -0.4494
  746MOL0     O  622   5.410  10.633   0.471  0.1667 -0.0076  0.0358
  746MOL0     C  623   5.185  10.497   0.390  0.1491  0.1385 -1.4388
  746MOL0     C  624   5.070  10.431   0.376  0.5578 -0.3913  0.0462
  746MOL0     N  625   4.341  10.274   0.513  0.3284  0.3503 -0.1963
  746MOL0     N  626   4.286  10.359   0.592  0.1811  0.0390  0.2712
  746MOL0     C  627   3.980  10.241   1.550 -0.6853 -0.6747 -0.4114
  746MOL0     C  628   3.845  10.269   1.568  0.0307 -0.1136  0.8760
  746MOL0     C  629   3.417  10.366   1.495 -0.8918  0.0114 -0.3056
  746MOL0     C  630   3.386  10.482   1.586  0.0346  0.0022  0.3135
  746MOL0     C  631   3.254  10.515   1.599 -0.0447  0.6041  0.3495
  746MOL0     C  632   3.154  10.455   1.537  0.2310  0.1302  0.1259
  746MOL0     O  633   3.023  10.483   1.572  0.0246 -0.3248 -0.0760
  746MOL0     C  634   2.989  10.614   1.618 -0.4906 -0.7104  0.2703
  746MOL0     C  635   2.842  10.622   1.610  0.5453 -0.6440  0.1296
  746MOL0     C  636   2.772  10.550   1.727 -0.1473 -1.0525 -0.1042
  746MOL0     C  637   2.613  10.547   1.698  0.3658  0.5623  0.0440
  746MOL0     C  638   2.553  10.680   1.694  0.3470 -0.0213 -0.5060
  746MOL0     C  639   2.508  10.795   1.693 -0.4112 -0.5404  0.2345
  746MOL0     C  640   3.180  10.349   1.449 -0.0122 -0.7505  0.5273
  746MOL0     C  641   3.312  10.308   1.422 -0.0360  0.5183  0.2004
  746MOL0     C  642   3.325  10.212   1.307 -0.3816 -0.7402 -1.3490
  746MOL0     H  643   3.846  10.592   1.461  1.9005  0.6090 -0.5607
  746MOL0     H  644   4.100  10.534   1.449  0.4651 -0.7939 -1.1560
  746MOL0     H  645   4.200  10.142   1.393 -3.2451  0.1459 -2.3007
  746MOL0     H  646   4.192  10.305   1.314  2.4211  0.5192  0.5887
  746MOL0     H  647   4.422  10.154   1.321 -0.1317 -0.3230  0.9254
  746MOL0     H  648   4.432  10.229   1.486 -0.2887  0.7804 -0.3170
  746MOL0     H  649   4.548  10.385   1.361 -0.9045  2.1449 -0.9529
  746MOL0     H  650   4.389  10.444   1.392  1.8579 -1.8882  4.4168
  746MOL0     H  651   4.472  10.322   1.132  0.0409  1.1673 -1.2744
  746MOL0     H  652   4.307  10.376   1.180 -0.2027 -0.6540  4.1183
  746MOL0     H  653   4.387  10.605   1.219  1.4626  1.8612 -1.3407
  746MOL0     H  654   4.548  10.554   1.179  0.1990  0.4740 -0.1062
  746MOL0     H  655   4.287  10.537   1.018  1.6010 -3.0065 -1.8856
  746MOL0     H  656   4.389  10.688   1.000  1.3737  0.5507  1.3621
  746MOL0     H  657   4.442  10.391   0.908 -0.8748 -1.7297 -3.6031
  746MOL0     H  658   4.544  10.536   0.859 -0.4151  2.4470  1.1347
  746MOL0     H  659   4.244  10.505   0.795  0.3121  1.5130  0.4198
  746MOL0     H  660   4.361  10.622   0.732 -3.1919  0.7079 -1.9199
  746MOL0     H  661   4.603  10.422   0.654 -0.2219  0.4614  1.6150
  746MOL0     H  662   4.682  10.222   0.480 -1.1174  1.4412 -0.2183
  746MOL0     H  663   4.553  10.117   0.418  0.3088 -0.1530 -0.1495
  746MOL0     H  664   4.479  10.272   0.255 -1.4984  0.6820  1.6486
  746MOL0     H  665   4.564  10.409   0.318  4.1729 -0.0518 -1.2460
  746MOL0     H  666   4.672  10.366   0.130 -3.9561  0.6730  0.4423
  746MOL0     H  667   4.695  10.193   0.175  1.2784  0.3895 -0.1454
  746MOL0     H  668   4.910  10.320   0.216  1.4606 -0.3146  2.5194
  746MOL0     H  669   4.855  10.252   0.365  2.4056  0.8833  0.3371
  746MOL0     H  670   4.862  10.701   0.335 -0.1009 -1.5260  0.8247
  746MOL0     H  671   5.094  10.823   0.336  0.8454 -0.4791 -1.6723
  746MOL0     H  672   5.562  10.772   0.238 -1.7787 -1.0410  2.2566
  746MOL0     H  673   5.789  10.886   0.276  0.0336  2.6522 -3.0242
  746MOL0     H  674   5.782  11.257   0.495  0.8002 -0.9784 -1.6319
  746MOL0     H  675   5.853  11.152   0.621  0.6430  0.7464 -0.4629
  746MOL0     H  676   6.004  11.270   0.383  3.3831 -1.0106  0.3438
  746MOL0     H  677   6.003  11.341   0.542  0.6358  0.9185 -2.4078
  746MOL0     H  678   6.121  11.125   0.625  4.4785 -0.0388 -0.7563
  746MOL0     H  679   6.114  11.061   0.473  0.9680 -0.2959 -0.4854
  746MOL0     H  680   6.253  11.328   0.563 -0.8181  0.7642 -0.5475
  746MOL0     H  681   6.226  11.283   0.393 -0.5717 -1.4364 -0.2344
  746MOL0     H  682   6.346  11.059   0.434 -0.7351 -1.1588  2.4787
  746MOL0     H  683   6.354  11.104   0.610 -2.1754 -0.6124  1.1936
  746MOL0     H  684   6.499  11.225   0.379  5.3241  1.0904  0.3689
  746MOL0     H  685   6.498  11.297   0.543 -1.0352  0.2970  0.8559
  746MOL0     H  686   6.561  11.013   0.481  0.7173  0.3682  0.1550
  746MOL0     H  687   6.585  11.108   0.633 -3.0449  1.5343  0.3086
  746MOL0     H  688   6.790  11.071   0.461 -0.3618 -0.2497 -1.5681
  746MOL0     H  689   6.705  11.180   0.353  0.9024  0.0343 -0.9151
  746MOL0     H  690   5.599  11.110   0.593 -1.5263  1.2372 -0.9575
  746MOL0     H  691   5.391  11.018   0.533 -0.1132  1.4979 -2.3427
  746MOL0     H  692   5.272  10.434   0.407 -0.9083 -1.5607 -2.0073
  746MOL0     H  693   5.069  10.322   0.383  1.6520 -0.4872 -1.0394
  746MOL0     H  694   4.026  10.145   1.576  1.2639  0.8423  2.3017
  746MOL0     H  695   3.777  10.190   1.597 -1.9465  2.2066  2.9839
  746MOL0     H  696   3.461  10.540   1.638 -2.2125  1.2975  2.2833
  746MOL0     H  697   3.246  10.597   1.669  1.5081 -0.9932  2.5189
  746MOL0     H  698   3.036  10.691   1.556 -0.3346  0.1331  1.4180
  746MOL0     H  699   3.022  10.617   1.722  1.3553 -5.3411  0.0557
  746MOL0     H  700   2.816  10.582   1.511  0.9302  2.8113 -1.5033
  746MOL0     H  701   2.800  10.722   1.606 -1.3646 -1.4168 -3.0093
  746MOL0     H  702   2.784  10.615   1.814 -0.7152  2.1610 -2.2412
  746MOL0     H  703   2.809  10.451   1.754  0.9072 -0.0416  2.4973
  746MOL0     H  704   2.586  10.478   1.617  0.9186  1.3803 -0.8504
  746MOL0     H  705   2.562  10.491   1.777 -0.6303 -1.3478 -1.8171
  746MOL0     H  706   2.473  10.896   1.695 -0.5331 -0.5182 -1.4117
  746MOL0     H  707   3.101  10.298   1.394  2.0396 -0.7924 -2.6446
  746MOL0     H  708   3.359  10.120   1.356 -0.4200  0.9996  2.2782
  746MOL0     H  709   3.234  10.193   1.250 -1.8927  1.5285  0.1604
  746MOL0     H  710   3.407  10.249   1.244  2.6195  1.6164  3.3676
  747MOL0     O  711   9.182   4.278   6.402 -0.0273  0.4418 -0.4609
  747MOL0     C  712   9.104   4.372   6.377 -0.4764  0.1788  0.3771
  747MOL0     O  713   9.149   4.479   6.299  0.0875 -0.1705  0.6039
  747MOL0     C  714   9.267   4.484   6.231 -0.5151 -0.5318 -0.1203
  747MOL0     C  715   9.348   4.599   6.243 -0.1429  0.1710  0.7917
  747MOL0     C  716   9.474   4.603   6.182  1.1811 -0.2199  0.5125
  747MOL0     C  717   9.512   4.496   6.099 -1.1344  0.5970 -0.2724
  747MOL0     O  718   9.632   4.510   6.024 -0.0430 -0.6959 -0.2957
  747MOL0     C  719   9.745   4.427   6.059  0.4514  0.6061  0.6638
  747MOL0     C  720   9.864   4.472   5.985  1.5948 -0.1991  0.3644
  747MOL0     C  721   9.988   4.393   6.016  0.1918 -0.0074 -0.6169
  747MOL0     C  722  10.101   4.404   5.910  1.0432  0.3603 -0.3961
  747MOL0     C  723  10.235   4.358   5.955 -0.4224  0.6534 -0.1472
  747MOL0     C  724  10.335   4.448   5.865  0.4137  0.4820 -0.1904
  747MOL0     C  725  10.486   4.408   5.863  0.2422 -0.6924  0.0432
  747MOL0     C  726  10.541   4.382   6.005  0.1332  0.0105  1.0775
  747MOL0     N  727  10.683   4.404   5.999  0.3273  0.8599 -0.1168
  747MOL0     C  728  10.778   4.319   5.947  0.3281 -0.4500  0.3785
  747MOL0     C  729  10.896   4.345   6.006 -0.2687 -0.4526 -1.3712
  747MOL0     C  730  11.025   4.286   5.989 -0.1641  0.5827 -0.0988
  747MOL0     C  731  11.129   4.383   5.928  0.2636  0.4506  0.0242
  747MOL0     C  732  11.178   4.482   6.026 -0.3894 -0.3084  0.1488
  747MOL0     C  733  11.313   4.549   5.964 -0.2025  0.4347  0.5744
  747MOL0     O  734  11.428   4.461   5.982 -0.3623  0.0901  0.1608
  747MOL0     C  735  11.557   4.491   5.938 -1.3057 -1.1532 -0.1313
  747MOL0     C  736  11.603   4.611   5.884  0.0247 -0.1351  0.6519
  747MOL0     C  737  11.737   4.635   5.852  0.3065  0.4905 -0.2621
  747MOL0     C  738  11.834   4.533   5.873 -0.1644  1.1522 -0.1172
  747MOL0     C  739  11.974   4.557   5.862 -0.1711  0.6570  0.2481
  747MOL0     O  740  12.055   4.453   5.870 -1.5352  0.9968  0.0028
  747MOL0     C  741  12.193   4.471   5.852  0.0016  1.4851  0.6428
  747MOL0     C  742  12.271   4.415   5.952 -0.3660 -0.3247  0.2796
  747MOL0     C  743  12.416   4.435   5.940 -0.3721 -0.5334  0.2679
  747MOL0     C  744  12.474   4.494   5.827 -0.2335  0.2767  0.2399
  747MOL0     O  745  12.614   4.527   5.809  0.2805 -0.1829 -0.1776
  747MOL0     C  746  12.717   4.483   5.901 -0.0742 -0.4637  0.6183
  747MOL0     C  747  12.846   4.550   5.860 -0.7870 -0.4269 -0.1621
  747MOL0     C  748  12.875   4.540   5.710  0.6152  0.2679 -0.8241
  747MOL0     C  749  13.026   4.570   5.696 -0.5149  0.1621 -0.2932
  747MOL0     C  750  13.078   4.717   5.700  0.5222  0.0090 -0.0670
  747MOL0     C  751  13.218   4.727   5.752  1.4984 -1.4218 -0.2604
  747MOL0     C  752  13.279   4.863   5.713 -0.5907  0.8420  0.1562
  747MOL0     C  753  13.427   4.858   5.686 -0.2367  0.2837 -0.6527
  747MOL0    Cl  754  13.494   5.019   5.721 -0.0678 -0.0825  0.3965
  747MOL0     C  755  12.389   4.549   5.732 -1.3422 -0.5836  0.3007
  747MOL0     C  756  12.253   4.539   5.747  0.5749 -0.3867  0.2543
  747MOL0     O  757  12.004   4.673   5.831 -0.2845 -0.5801  0.3411
  747MOL0     C  758  11.785   4.403   5.910  0.2317 -0.5146 -0.0719
  747MOL0     C  759  11.653   4.390   5.950  0.2857  0.0081  0.0449
  747MOL0     N  760  10.875   4.440   6.097 -0.3572  0.2204 -0.4202
  747MOL0     N  761  10.746   4.471   6.100 -0.2046  0.3831 -0.5750
  747MOL0     C  762   9.431   4.382   6.083 -0.0523 -0.0800 -0.8547
  747MOL0     C  763   9.313   4.376   6.152 -0.3491  0.5790 -0.2078
  747MOL0     C  764   8.967   4.375   6.425 -0.3692 -0.0468  1.0930
  747MOL0     C  765   8.912   4.503   6.457 -0.4038  0.5208  0.4609
  747MOL0     C  766   8.776   4.517   6.497 -0.6929  0.1611 -0.7912
  747MOL0     C  767   8.690   4.409   6.525  0.2815  0.1268  0.8462
  747MOL0     O  768   8.552   4.426   6.563 -0.2792  0.1979 -0.2710
  747MOL0     C  769   8.506   4.361   6.679  0.7843 -0.1261 -0.1271
  747MOL0     C  770   8.536   4.457   6.790  0.2720 -0.6670 -0.2960
  747MOL0     C  771   8.444   4.435   6.907  0.0076 -0.5546  0.2414
  747MOL0     C  772   8.447   4.552   7.012  1.0586  0.4449  0.1801
  747MOL0     C  773   8.362   4.512   7.129  0.0403  0.6996  0.0134
  747MOL0     C  774   8.297   4.480   7.232 -0.3373 -0.1175  0.4506
  747MOL0     C  775   8.747   4.284   6.513  0.3651  0.4341  0.0783
  747MOL0     C  776   8.885   4.262   6.471  0.4235  0.2192  0.3402
  747MOL0     C  777   8.923   4.122   6.432 -0.0641  0.4640 -0.1448
  747MOL0     H  778   9.314   4.681   6.305  0.0724  1.4272 -0.6840
  747MOL0     H  779   9.539   4.690   6.186  1.0438 -0.0486 -0.6568
  747MOL0     H  780   9.764   4.421   6.166 -3.7962  0.8335  1.6210
  747MOL0     H  781   9.719   4.326   6.025  2.1753 -0.2257  1.6768
  747MOL0     H  782   9.883   4.578   6.001 -1.5776  0.3427  1.3650
  747MOL0     H  783   9.841   4.456   5.879  1.3692  0.8269  0.2427
  747MOL0     H  784   9.958   4.288   6.023 -0.2505  0.0867 -1.1200
  747MOL0     H  785  10.025   4.434   6.111 -0.2023  0.0893 -0.5039
  747MOL0     H  786  10.058   4.356   5.822  0.8046 -0.4427  0.1548
  747MOL0     H  787  10.118   4.511   5.895  0.4654  0.7581  1.4572
  747MOL0     H  788  10.260   4.368   6.061  2.3264 -0.3593 -0.6334
  747MOL0     H  789  10.256   4.254   5.929  0.5815  0.5550  1.0161
  747MOL0     H  790  10.305   4.436   5.761  0.6406 -3.4694  0.0436
  747MOL0     H  791  10.321   4.553   5.892 -1.6806  0.5970 -1.4747
  747MOL0     H  792  10.542   4.497   5.835 -0.8674  1.5524  4.2246
  747MOL0     H  793  10.518   4.327   5.796  0.6344  0.5402 -1.2968
  747MOL0     H  794  10.498   4.455   6.074 -1.4752 -4.6928  5.7715
  747MOL0     H  795  10.520   4.280   6.039  4.1339 -2.0433 -1.8150
  747MOL0     H  796  10.767   4.251   5.863  1.2904 -0.7837  0.5177
  747MOL0     H  797  11.071   4.258   6.083  2.9750  2.3657 -0.9792
  747MOL0     H  798  11.011   4.196   5.928  2.6868 -1.2772  1.7777
  747MOL0     H  799  11.216   4.326   5.898 -0.6351 -0.9997  0.0898
  747MOL0     H  800  11.083   4.426   5.838  0.3690  0.2652 -0.1177
  747MOL0     H  801  11.190   4.445   6.128 -0.5454  1.2732  0.7513
  747MOL0     H  802  11.106   4.564   6.026  1.2089  1.1557  0.0366
  747MOL0     H  803  11.331   4.649   6.005 -0.5561  0.6313  0.2494
  747MOL0     H  804  11.286   4.560   5.858 -0.3249 -4.9821 -0.2293
  747MOL0     H  805  11.522   4.682   5.874 -0.5172 -0.5470  1.9649
  747MOL0     H  806  11.765   4.735   5.821  2.3626  0.1553  0.3348
  747MOL0     H  807  12.229   4.361   6.036 -0.3871  0.4181  0.7535
  747MOL0     H  808  12.481   4.391   6.015 -2.5881 -2.8368  0.9903
  747MOL0     H  809  12.685   4.506   6.003 -1.8836  0.4407 -0.1044
  747MOL0     H  810  12.737   4.376   5.888  2.0355  0.1308 -1.6008
  747MOL0     H  811  12.848   4.655   5.890  2.5285 -1.2060  3.1034
  747MOL0     H  812  12.924   4.499   5.918  1.1580  0.4694 -1.9000
  747MOL0     H  813  12.854   4.445   5.660  1.6355  1.0559 -2.8853
  747MOL0     H  814  12.812   4.616   5.664 -3.0830 -0.1660  2.9801
  747MOL0     H  815  13.054   4.533   5.597 -2.1993  0.1858 -0.8047
  747MOL0     H  816  13.079   4.504   5.765 -0.1524  0.2649 -0.4710
  747MOL0     H  817  13.003   4.775   5.755  0.1878 -0.0398 -0.4669
  747MOL0     H  818  13.062   4.759   5.600  1.3783  4.7494  1.5331
  747MOL0     H  819  13.209   4.718   5.861 -0.3076  0.0582 -0.2288
  747MOL0     H  820  13.268   4.645   5.700 -1.2554 -2.9517 -0.7172
  747MOL0     H  821  13.266   4.916   5.808  0.0074  1.5998 -0.1754
  747MOL0     H  822  13.228   4.921   5.637  0.6390  1.1566 -0.4579
  747MOL0     H  823  13.467   4.776   5.746  1.1618 -0.1533 -2.1181
  747MOL0     H  824  13.449   4.850   5.579  0.5500  0.2980 -0.5038
  747MOL0     H  825  12.427   4.605   5.648  0.3003 -4.7586 -2.0743
  747MOL0     H  826  12.190   4.590   5.674 -0.3903  0.1228  1.4093
  747MOL0     H  827  11.850   4.317   5.920  1.1072  0.4305  5.7136
  747MOL0     H  828  11.619   4.295   5.990  1.6515 -0.1950  0.7897
  747MOL0     H  829   9.446   4.294   6.021 -2.1544 -0.9365 -0.2434
  747MOL0     H  830   9.238   4.298   6.143 -1.1970  1.3526 -0.0171
  747MOL0     H  831   8.972   4.593   6.458  0.5774 -0.1313  0.7992
  747MOL0     H  832   8.733   4.615   6.515 -0.1395  0.0930  1.1704
  747MOL0     H  833   8.546   4.261   6.701 -1.7907 -0.8563  1.8652
  747MOL0     H  834   8.398   4.345   6.664  0.8161 -0.6793  0.1816
  747MOL0     H  835   8.509   4.559   6.761 -0.9550 -0.8564  0.1200
  747MOL0     H  836   8.643   4.457   6.810  0.2824 -0.6088 -0.3496
  747MOL0     H  837   8.469   4.338   6.949  1.2568  1.1353  3.7956
  747MOL0     H  838   8.339   4.426   6.877 -0.9742  0.7176  2.9467
  747MOL0     H  839   8.554   4.562   7.033  1.1503  0.9419 -0.4806
  747MOL0     H  840   8.408   4.647   6.975  0.8547  1.4158  2.7119
  747MOL0     H  841   8.248   4.448   7.322  2.1464  0.3263  2.0748
  747MOL0     H  842   8.687   4.194   6.516 -1.5687  1.6656  0.4626
  747MOL0     H  843   8.944   4.061   6.520 -3.5877  0.2984  0.7201
  747MOL0     H  844   8.843   4.069   6.380  1.0942  0.2656 -1.8231
  747MOL0     H  845   9.009   4.120   6.365 -0.7428  2.2296 -1.1255
  748MOL0     O  846   1.801  10.311   4.854  0.7990 -0.7084 -0.0069
  748MOL0     C  847   1.792  10.320   4.735 -0.4418 -0.4609  0.0106
  748MOL0     O  848   1.892  10.352   4.654 -0.0701 -0.0516 -0.1180
  748MOL0     C  849   2.019  10.373   4.714 -0.0063  0.6770  1.1233
  748MOL0     C  850   2.084  10.490   4.689  0.0097 -0.7943  0.4034
  748MOL0     C  851   2.208  10.522   4.752 -0.2637  0.6224  0.3617
  748MOL0     C  852   2.268  10.426   4.829 -0.0017  0.6323 -0.4316
  748MOL0     O  853   2.378  10.465   4.906  0.4971  0.4357  0.1146
  748MOL0     C  854   2.482  10.366   4.916  0.3015 -0.1943  0.6268
  748MOL0     C  855   2.600  10.432   4.999  0.1410  0.6439  0.6324
  748MOL0     C  856   2.702  10.322   5.026 -0.2912  0.1472  0.7255
  748MOL0     C  857   2.798  10.356   5.139 -0.1354  0.7255  0.8805
  748MOL0     C  858   2.903  10.249   5.148 -0.0983  0.8719 -0.5988
  748MOL0     C  859   3.005  10.277   5.264 -0.5299  0.0037  0.2861
  748MOL0     C  860   3.065  10.140   5.313 -0.2956 -0.1388  0.1330
  748MOL0     C  861   3.171  10.170   5.423 -0.3718  0.2586 -0.3581
  748MOL0     N  862   3.303  10.204   5.377 -0.5432 -0.6757 -0.0255
  748MOL0     C  863   3.410  10.111   5.353 -0.1134  0.2329 -0.4906
  748MOL0     C  864   3.524  10.180   5.324  0.6866 -0.2511 -0.5062
  748MOL0     C  865   3.659  10.122   5.287  0.4945 -0.8954  0.4115
  748MOL0     C  866   3.765  10.225   5.330 -1.4155  0.3202 -0.5007
  748MOL0     C  867   3.791  10.231   5.482  0.0048 -0.1749 -0.7880
  748MOL0     C  868   3.903  10.334   5.517 -0.6269 -0.1608  0.0419
  748MOL0     O  869   4.030  10.286   5.463  0.2899  0.3220  0.3492
  748MOL0     C  870   4.131  10.374   5.455  0.4079 -0.6752 -0.1066
  748MOL0     C  871   4.162  10.473   5.551  0.1895 -0.0625  1.2903
  748MOL0     C  872   4.268  10.564   5.524  0.2473  0.3715  0.2428
  748MOL0     C  873   4.357  10.548   5.415  1.0785 -0.7799  0.3064
  748MOL0     C  874   4.481  10.626   5.400 -0.2967  0.4028 -1.1166
  748MOL0     O  875   4.527  10.688   5.517  0.1320  0.3430  0.4532
  748MOL0     C  876   4.635  10.768   5.505 -0.7323 -0.3495  0.1414
  748MOL0     C  877   4.761  10.710   5.467 -0.2776 -0.2492  0.0153
  748MOL0     C  878   4.880  10.795   5.468 -0.5563  0.3677  0.3551
  748MOL0     C  879   4.867  10.928   5.503 -0.0337  0.0447  0.0456
  748MOL0     O  880   4.964  11.025   5.488  0.7616 -0.3487  0.4822
  748MOL0     C  881   5.094  10.986   5.537  0.0526  0.0390  0.1121
  748MOL0     C  882   5.203  11.093   5.544 -0.4002  0.3670  0.3238
  748MOL0     C  883   5.348  11.045   5.560 -0.5302  0.7888 -0.2363
  748MOL0     C  884   5.456  11.155   5.575  0.2424 -0.8327  0.9329
  748MOL0     C  885   5.597  11.100   5.577 -1.2762  0.0779  0.4307
  748MOL0     C  886   5.682  11.179   5.474  0.3509  0.7696 -0.1733
  748MOL0     C  887   5.833  11.158   5.472  0.9556  0.3012  1.1678
  748MOL0     C  888   5.894  11.217   5.352  0.2535 -0.4584 -0.2235
  748MOL0    Cl  889   6.071  11.205   5.368  0.6002  0.0205 -0.1681
  748MOL0     C  890   4.743  10.981   5.554 -0.1837 -0.2620 -0.0495
  748MOL0     C  891   4.630  10.907   5.547  0.9292  0.7612 -0.9585
  748MOL0     O  892   4.533  10.627   5.294  0.3807 -0.8179  0.2058
  748MOL0     C  893   4.327  10.445   5.327  0.0544 -0.3500 -0.2315
  748MOL0     C  894   4.217  10.357   5.345 -0.1410 -0.2537 -0.7603
  748MOL0     N  895   3.488  10.311   5.328 -0.2189  0.6146 -0.0575
  748MOL0     N  896   3.368  10.326   5.361  0.0995  0.1162  0.1973
  748MOL0     C  897   2.199  10.303   4.851  0.3032 -0.2698 -0.2287
  748MOL0     C  898   2.078  10.275   4.790 -0.2560 -0.9458 -0.3643
  748MOL0     C  899   1.667  10.280   4.669 -0.0871  1.1476 -0.0959
  748MOL0     C  900   1.655  10.324   4.533  0.4792  0.6111  0.0012
  748MOL0     C  901   1.533  10.311   4.465 -0.3400  0.8863  0.5370
  748MOL0     C  902   1.428  10.245   4.528 -0.6966 -0.0029  0.5841
  748MOL0     O  903   1.305  10.224   4.469  0.1689 -0.1287  0.1725
  748MOL0     C  904   1.281  10.245   4.329 -0.2639 -0.0905 -0.0962
  748MOL0     C  905   1.223  10.384   4.302 -0.3364 -0.0161  0.1044
  748MOL0     C  906   1.157  10.396   4.169  0.6552 -0.5429 -0.0523
  748MOL0     C  907   1.255  10.378   4.062  0.2561  0.5148  0.0490
  748MOL0     C  908   1.378  10.470   4.066 -0.2488 -0.2215  0.4978
  748MOL0     C  909   1.480  10.532   4.061 -0.4128  0.0528 -0.5811
  748MOL0     C  910   1.442  10.187   4.653 -1.2798  0.1729 -0.3852
  748MOL0     C  911   1.565  10.205   4.729  1.0722 -0.1858  0.2883
  748MOL0     C  912   1.580  10.126   4.868 -0.0332 -0.1983  0.1104
  748MOL0     H  913   2.040  10.563   4.622  1.7006  0.1063  0.2291
  748MOL0     H  914   2.264  10.613   4.733  0.8140 -0.3055 -1.0958
  748MOL0     H  915   2.450  10.277   4.971 -2.4857 -0.3835 -1.1235
  748MOL0     H  916   2.519  10.339   4.816  0.0026  1.0944  0.1456
  748MOL0     H  917   2.554  10.466   5.093 -2.4680 -2.7974  0.8305
  748MOL0     H  918   2.659  10.510   4.951 -1.8889  1.4313 -0.7237
  748MOL0     H  919   2.749  10.300   4.929 -1.5174  0.3028  0.0728
  748MOL0     H  920   2.651  10.231   5.058  0.6968 -0.4240  0.7176
  748MOL0     H  921   2.851  10.447   5.113 -1.1008  0.7949 -0.9946
  748MOL0     H  922   2.735  10.379   5.226  0.5421 -0.1032  1.6089
  748MOL0     H  923   2.859  10.151   5.165  1.8002  0.3762  1.9955
  748MOL0     H  924   2.958  10.242   5.054  1.6738 -2.3384  0.5422
  748MOL0     H  925   3.083  10.343   5.223 -2.5244  0.4800 -3.1530
  748MOL0     H  926   2.958  10.325   5.351 -1.5851 -1.3108  0.4647
  748MOL0     H  927   3.127  10.096   5.234 -3.0393 -0.7326 -1.8351
  748MOL0     H  928   2.992  10.066   5.347  0.0732 -0.2135  0.7798
  748MOL0     H  929   3.131  10.255   5.480 -1.1779  0.7507 -1.6343
  748MOL0     H  930   3.181  10.086   5.492 -1.1936 -1.7343 -2.5677
  748MOL0     H  931   3.414  10.002   5.354  1.5400  0.2418 -1.7777
  748MOL0     H  932   3.673  10.032   5.348 -0.9066 -0.7763  0.9517
  748MOL0     H  933   3.670  10.114   5.179  3.4492  0.7338  0.4779
  748MOL0     H  934   3.853  10.179   5.285 -2.0049 -0.7534 -0.5901
  748MOL0     H  935   3.749  10.326   5.289 -2.9765 -0.5053 -2.0951
  748MOL0     H  936   3.820  10.136   5.526 -0.5287  1.4676  3.6314
  748MOL0     H  937   3.700  10.264   5.532 -0.4394  0.2905 -1.8642
  748MOL0     H  938   3.903  10.351   5.625  0.2813 -1.7629  0.3181
  748MOL0     H  939   3.869  10.426   5.468  1.5709  0.1226 -1.0690
  748MOL0     H  940   4.098  10.480   5.638 -1.7997  1.7990 -0.2393
  748MOL0     H  941   4.290  10.645   5.594 -0.8773  1.5237 -0.6805
  748MOL0     H  942   4.758  10.604   5.441 -0.8954 -0.4097  0.7258
  748MOL0     H  943   4.975  10.750   5.444 -0.7729  0.4851 -0.7454
  748MOL0     H  944   5.084  10.965   5.644  2.0311 -1.8539 -0.0083
  748MOL0     H  945   5.134  10.899   5.484 -2.3322 -1.4205  0.5125
  748MOL0     H  946   5.189  11.148   5.451 -1.7480 -0.5245 -0.0363
  748MOL0     H  947   5.172  11.163   5.622 -0.2963 -0.4197  1.0960
  748MOL0     H  948   5.357  10.998   5.658 -0.7912 -0.0707 -0.6167
  748MOL0     H  949   5.380  10.975   5.482  0.5697 -0.4085  1.2487
  748MOL0     H  950   5.440  11.212   5.667 -1.0023  1.3586 -0.5421
  748MOL0     H  951   5.434  11.225   5.494  2.7670 -0.8945  0.1172
  748MOL0     H  952   5.597  10.992   5.557  0.4972  0.0464  0.4926
  748MOL0     H  953   5.646  11.128   5.671  2.5900  2.4795 -2.0425
  748MOL0     H  954   5.644  11.156   5.374  1.8857 -3.6107  0.0259
  748MOL0     H  955   5.671  11.287   5.485  1.8156  1.0402 -1.0167
  748MOL0     H  956   5.857  11.051   5.467 -1.9986 -0.4001 -0.2776
  748MOL0     H  957   5.875  11.207   5.561  0.8223  0.2795  1.2432
  748MOL0     H  958   5.871  11.164   5.259  1.4608 -1.6810  0.1438
  748MOL0     H  959   5.865  11.321   5.337  2.7928  0.0095 -2.7445
  748MOL0     H  960   4.742  11.080   5.599 -0.9784 -2.0319  4.3666
  748MOL0     H  961   4.534  10.951   5.571  1.1031  0.7758 -0.2458
  748MOL0     H  962   4.392  10.442   5.241  0.2933  0.3033 -0.0788
  748MOL0     H  963   4.205  10.274   5.276 -0.1506 -1.4427  0.6316
  748MOL0     H  964   2.255  10.247   4.925  0.2287 -2.6831 -1.8793
  748MOL0     H  965   2.027  10.182   4.814 -0.2487 -1.5277 -2.4956
  748MOL0     H  966   1.744  10.364   4.486  3.1882 -1.0487  3.2657
  748MOL0     H  967   1.524  10.364   4.371  2.4969  1.2208  0.3438
  748MOL0     H  968   1.199  10.180   4.296  0.3378 -0.4211 -0.9795
  748MOL0     H  969   1.371  10.225   4.270 -1.7388 -1.9726 -1.8364
  748MOL0     H  970   1.308  10.453   4.308 -1.0401  1.2462 -2.8077
  748MOL0     H  971   1.147  10.413   4.376  0.6278  3.2174 -0.0027
  748MOL0     H  972   1.106  10.491   4.154  2.2057  0.4722  0.8185
  748MOL0     H  973   1.079  10.322   4.147  0.1718  0.3766 -1.6267
  748MOL0     H  974   1.284  10.274   4.047 -2.8208 -0.2136 -1.5778
  748MOL0     H  975   1.212  10.416   3.969  0.7409  0.5958 -0.1476
  748MOL0     H  976   1.573  10.585   4.066 -0.8916  0.9055 -0.5178
  748MOL0     H  977   1.364  10.122   4.690 -0.2706 -1.1023 -0.4527
  748MOL0     H  978   1.487  10.071   4.889 -1.3908  2.5547  1.8232
  748MOL0     H  979   1.668  10.061   4.866  0.8188  0.8256  2.1979
  748MOL0     H  980   1.584  10.194   4.953 -1.5668  0.1739 -0.0743
  749MOL0     O  981   0.910   6.402   6.334  0.2951 -0.9782  1.1786
  749MOL0     C  982   0.959   6.301   6.297  0.3364  1.5021  0.4268
  749MOL0     O  983   0.899   6.210   6.210  0.5891 -0.0828  0.0517
  749MOL0     C  984   0.762   6.217   6.195 -0.8105 -0.5189  0.9280
  749MOL0     C  985   0.717   6.203   6.064  0.4928 -0.8239 -0.7251
  749MOL0     C  986   0.577   6.202   6.034  0.1682  0.0188  0.5172
  749MOL0     C  987   0.478   6.214   6.133 -0.2387  0.2706  0.8377
  749MOL0     O  988   0.347   6.230   6.119  0.1176 -0.0337  0.1821
  749MOL0     C  989   0.312   6.299   5.998  0.6451  0.1489 -0.6583
  749MOL0     C  990   0.178   6.383   6.001  0.0472 -0.2426 -0.6947
  749MOL0     C  991   0.055   6.287   5.985 -0.4185  0.1206  0.1106
  749MOL0     C  992  -0.061   6.369   5.996 -0.2054 -0.7219  0.7898
  749MOL0     C  993  -0.188   6.306   5.936 -1.1986 -0.1061  0.3710
  749MOL0     C  994  -0.218   6.166   5.996 -0.2488 -0.3982  0.0242
  749MOL0     C  995  -0.240   6.163   6.151 -0.0596 -0.7640  0.0920
  749MOL0     C  996  -0.324   6.274   6.216  0.8668  0.7368  1.3221
  749MOL0     N  997  -0.469   6.271   6.190  0.6838  0.7061  0.8773
  749MOL0     C  998  -0.550   6.159   6.215  0.3751  0.5619  1.0262
  749MOL0     C  999  -0.676   6.202   6.177 -0.0572  1.4518 -0.3004
  749MOL0     C 1000  -0.806   6.121   6.178 -0.0113 -0.8138  0.0994
  749MOL0     C 1001  -0.918   6.176   6.272  0.5678  0.8331  0.1076
  749MOL0     C 1002  -0.866   6.154   6.419  0.4905 -0.4174  0.5400
  749MOL0     C 1003  -0.984   6.170   6.522  0.1135  0.1072 -0.7892
  749MOL0     O 1004  -1.087   6.270   6.502 -0.0575 -0.7523 -0.1506
  749MOL0     C 1005  -1.209   6.228   6.536 -0.4496 -0.1129 -0.1358
  749MOL0     C 1006  -1.306   6.272   6.453 -0.9458 -0.4911 -1.0199
  749MOL0     C 1007  -1.441   6.234   6.474 -0.5758 -0.8253  0.4484
  749MOL0     C 1008  -1.479   6.164   6.586  0.2813  0.1014 -0.1597
  749MOL0     C 1009  -1.624   6.142   6.607 -0.3658  0.5545  0.4477
  749MOL0     O 1010  -1.657   6.104   6.735  0.4778 -0.3348  0.6704
  749MOL0     C 1011  -1.782   6.055   6.761 -0.6959 -0.6797  0.6375
  749MOL0     C 1012  -1.863   6.117   6.858  0.1530 -0.0162  0.1844
  749MOL0     C 1013  -1.981   6.066   6.896 -0.2510  0.5279  0.1513
  749MOL0     C 1014  -2.030   5.946   6.843 -0.3917 -0.0150 -0.0308
  749MOL0     O 1015  -2.159   5.908   6.865  0.6533  0.2671 -0.3408
  749MOL0     C 1016  -2.255   6.001   6.918 -0.3917  0.3722  0.3394
  749MOL0     C 1017  -2.247   6.013   7.067 -0.1770 -0.4716  0.1375
  749MOL0     C 1018  -2.321   6.134   7.121  0.2702  0.2289  0.1719
  749MOL0     C 1019  -2.300   6.272   7.049 -0.1051  0.4703 -0.3899
  749MOL0     C 1020  -2.394   6.368   7.125  0.6840  0.6290 -0.0632
  749MOL0     C 1021  -2.536   6.372   7.060 -0.6036  0.3167 -0.9746
  749MOL0     C 1022  -2.636   6.441   7.151  0.3300  0.0002  0.5516
  749MOL0     C 1023  -2.782   6.440   7.092  0.3343  0.5151 -0.0661
  749MOL0    Cl 1024  -2.807   6.295   6.986 -0.3939 -0.2857 -0.6614
  749MOL0     C 1025  -1.958   5.888   6.738  0.4371 -0.8214  0.5161
  749MOL0     C 1026  -1.827   5.940   6.698  0.3456 -0.6698  0.7525
  749MOL0     O 1027  -1.709   6.164   6.517  0.1589  0.1826  0.1204
  749MOL0     C 1028  -1.377   6.120   6.674 -0.0794  0.3283  0.3974
  749MOL0     C 1029  -1.245   6.157   6.655 -0.5679 -0.5682 -0.2944
  749MOL0     N 1030  -0.664   6.335   6.145 -0.0589 -0.6364 -0.1853
  749MOL0     N 1031  -0.540   6.376   6.152  0.0621 -0.0362  0.1360
  749MOL0     C 1032   0.529   6.228   6.268 -0.0425  0.3301 -0.5824
  749MOL0     C 1033   0.668   6.227   6.300  0.2046  0.7018  0.4091
  749MOL0     C 1034   1.107   6.272   6.308  0.3549  0.2706  0.0911
  749MOL0     C 1035   1.140   6.141   6.358 -0.7795 -0.7457 -0.1613
  749MOL0     C 1036   1.277   6.106   6.376  0.1374 -0.6461 -0.0222
  749MOL0     C 1037   1.377   6.203   6.351 -0.2723  0.1044 -0.1206
  749MOL0     O 1038   1.509   6.160   6.374  0.7229 -0.6683  0.8869
  749MOL0     C 1039   1.613   6.224   6.292  0.4495  0.3542 -0.0314
  749MOL0     C 1040   1.728   6.121   6.260 -0.2034  0.1129  0.0228
  749MOL0     C 1041   1.839   6.198   6.195  0.5079 -0.0098  0.8917
  749MOL0     C 1042   1.950   6.108   6.156  0.1992 -0.0170 -0.4883
  749MOL0     C 1043   2.042   6.073   6.271 -0.0503 -0.6228 -0.4956
  749MOL0     C 1044   2.123   6.029   6.350  0.2450 -0.1716  0.4635
  749MOL0     C 1045   1.345   6.334   6.315  0.3544 -0.4751  0.3757
  749MOL0     C 1046   1.211   6.368   6.291  0.1463  0.0230 -0.4427
  749MOL0     C 1047   1.181   6.508   6.255  0.1560  0.2982 -0.1418
  749MOL0     H 1048   0.796   6.195   5.989  1.1464 -1.4501  0.0130
  749MOL0     H 1049   0.546   6.201   5.930 -1.8543  3.3023  0.9442
  749MOL0     H 1050   0.389   6.374   5.980  2.2836 -1.7764 -2.2045
  749MOL0     H 1051   0.331   6.237   5.910 -0.4280 -1.7138  0.3334
  749MOL0     H 1052   0.178   6.456   5.920 -1.3094  1.6617  0.9239
  749MOL0     H 1053   0.170   6.425   6.102  0.7375 -2.4419  0.3522
  749MOL0     H 1054   0.050   6.211   6.063 -2.9416  2.4680  2.4546
  749MOL0     H 1055   0.057   6.252   5.882 -0.9179  3.8848 -1.3646
  749MOL0     H 1056  -0.070   6.407   6.098 -1.4740 -1.6357  1.0528
  749MOL0     H 1057  -0.045   6.463   5.942  2.2924 -0.2121  2.3080
  749MOL0     H 1058  -0.271   6.374   5.954 -1.0688  1.4208 -3.8589
  749MOL0     H 1059  -0.188   6.296   5.827  0.0514 -0.1332  0.3523
  749MOL0     H 1060  -0.300   6.113   5.948 -1.6556  2.0030 -0.3875
  749MOL0     H 1061  -0.139   6.094   5.971 -1.5128 -1.6597 -0.4198
  749MOL0     H 1062  -0.146   6.159   6.207  1.2650 -0.7707 -2.0403
  749MOL0     H 1063  -0.283   6.064   6.164 -1.3865  0.0250  2.1452
  749MOL0     H 1064  -0.320   6.255   6.324  0.0087  0.7492  1.3626
  749MOL0     H 1065  -0.281   6.371   6.189  1.8049  0.1422  0.6438
  749MOL0     H 1066  -0.519   6.063   6.255 -1.0125 -0.0153  0.7932
  749MOL0     H 1067  -0.843   6.104   6.077 -0.6855 -1.1264  0.3899
  749MOL0     H 1068  -0.786   6.019   6.211 -0.5170 -1.2938 -1.0329
  749MOL0     H 1069  -0.953   6.276   6.244 -2.5127  0.0673  0.8115
  749MOL0     H 1070  -1.013   6.122   6.262  1.9408 -2.2807  2.0714
  749MOL0     H 1071  -0.792   6.233   6.435  1.9694 -1.4654 -0.8417
  749MOL0     H 1072  -0.821   6.056   6.432  1.1715 -0.2011 -0.1278
  749MOL0     H 1073  -0.942   6.193   6.620  1.1714 -4.6934  0.1577
  749MOL0     H 1074  -1.021   6.069   6.545  0.3465 -0.0148 -0.9333
  749MOL0     H 1075  -1.267   6.344   6.381 -0.9037  1.7155  1.0997
  749MOL0     H 1076  -1.513   6.293   6.417  1.6487  0.1706 -1.4837
  749MOL0     H 1077  -1.831   6.217   6.887  1.0866 -0.4769  0.7720
  749MOL0     H 1078  -2.027   6.120   6.978 -0.0654 -1.7362  1.8516
  749MOL0     H 1079  -2.240   6.097   6.867  0.6053 -0.3158 -0.7250
  749MOL0     H 1080  -2.352   5.963   6.886 -0.4214  0.1001  0.7548
  749MOL0     H 1081  -2.299   5.924   7.104 -1.1142 -0.6028 -1.3967
  749MOL0     H 1082  -2.148   6.007   7.112  0.2667  0.0353 -0.7537
  749MOL0     H 1083  -2.429   6.114   7.119  0.2962 -0.1480 -3.8138
  749MOL0     H 1084  -2.295   6.146   7.227 -0.3320 -3.0831  0.8232
  749MOL0     H 1085  -2.330   6.266   6.945  0.2454  1.6535 -0.5788
  749MOL0     H 1086  -2.194   6.301   7.059  0.7495 -2.6909  0.9779
  749MOL0     H 1087  -2.367   6.474   7.117 -1.5595  1.1593 -1.7899
  749MOL0     H 1088  -2.398   6.333   7.228 -1.2963 -2.5529 -1.0746
  749MOL0     H 1089  -2.534   6.428   6.967  0.4927 -1.4126 -2.0454
  749MOL0     H 1090  -2.564   6.269   7.035 -0.9941  0.2556 -0.3085
  749MOL0     H 1091  -2.593   6.541   7.163  2.4835 -0.7384 -0.5974
  749MOL0     H 1092  -2.634   6.392   7.249 -2.0341 -0.4380  0.4320
  749MOL0     H 1093  -2.855   6.447   7.174  2.5249  0.2568  2.0347
  749MOL0     H 1094  -2.798   6.531   7.034 -2.7423  1.0639  1.4351
  749MOL0     H 1095  -1.987   5.789   6.704  0.5389  0.3278 -3.2935
  749MOL0     H 1096  -1.769   5.866   6.643 -1.6581 -3.1291  1.7343
  749MOL0     H 1097  -1.392   6.059   6.762  2.5583  0.3490  0.9392
  749MOL0     H 1098  -1.167   6.129   6.725  1.2701  1.6784 -1.3275
  749MOL0     H 1099   0.459   6.232   6.351 -1.0206 -1.3425 -1.2854
  749MOL0     H 1100   0.696   6.229   6.405 -0.4411 -0.5335  0.6240
  749MOL0     H 1101   1.055   6.075   6.370 -1.0098 -0.3702  0.2941
  749MOL0     H 1102   1.309   6.006   6.402  0.9957 -0.8459 -1.7810
  749MOL0     H 1103   1.657   6.314   6.335 -0.9895  1.0684  0.0395
  749MOL0     H 1104   1.572   6.252   6.194  2.4380 -0.1726 -1.0623
  749MOL0     H 1105   1.691   6.049   6.186 -1.3148  0.8639 -0.1742
  749MOL0     H 1106   1.757   6.078   6.357 -0.8326 -2.7098 -0.9459
  749MOL0     H 1107   1.872   6.277   6.264  0.2429 -0.2627  1.3074
  749MOL0     H 1108   1.809   6.255   6.106  4.1076 -0.4644 -0.7897
  749MOL0     H 1109   1.910   6.028   6.094 -0.5753  1.6598 -2.2876
  749MOL0     H 1110   2.010   6.150   6.074  0.2554 -3.2852 -2.2978
  749MOL0     H 1111   2.182   5.991   6.431  0.0349 -1.1201  0.1862
  749MOL0     H 1112   1.422   6.409   6.309 -1.6265  1.7197  0.9904
  749MOL0     H 1113   1.111   6.511   6.171 -2.6576  0.3578  2.0772
  749MOL0     H 1114   1.148   6.561   6.344  2.8115  0.5747  0.7556
  749MOL0     H 1115   1.265   6.568   6.219 -1.6042  1.5615 -2.4161
  750MOL0     O 1116   5.833   5.736   1.716  0.5296 -0.4476  0.4333
  750MOL0     C 1117   5.764   5.639   1.683 -0.2924 -0.5281 -0.3100
  750MOL0     O 1118   5.809   5.529   1.614 -0.3570 -0.1682  0.4862
  750MOL0     C 1119   5.945   5.523   1.602 -0.4914  0.7997 -0.2239
  750MOL0     C 1120   6.035   5.478   1.693  0.3864 -0.2234 -0.3393
  750MOL0     C 1121   6.170   5.467   1.660  0.3321 -0.6898 -1.0191
  750MOL0     C 1122   6.221   5.509   1.539  0.4656 -0.4817  0.2638
  750MOL0     O 1123   6.354   5.495   1.517  0.5906  0.0913  0.4029
  750MOL0     C 1124   6.410   5.546   1.392 -0.1726 -0.3966 -0.8845
  750MOL0     C 1125   6.563   5.551   1.405 -0.4881  0.1175  0.3798
  750MOL0     C 1126   6.629   5.604   1.277  1.3705 -0.7760 -0.0974
  750MOL0     C 1127   6.771   5.634   1.314 -0.9576 -0.7159 -0.1438
  750MOL0     C 1128   6.852   5.682   1.191 -0.2706  0.0534  0.3509
  750MOL0     C 1129   6.995   5.711   1.232 -0.3139 -0.0587  0.3834
  750MOL0     C 1130   7.088   5.756   1.122  0.3055  0.1371 -0.6381
  750MOL0     C 1131   7.235   5.785   1.139 -0.0958 -0.0249 -0.2990
  750MOL0     N 1132   7.319   5.821   1.019  0.0272  0.6581 -0.6838
  750MOL0     C 1133   7.457   5.796   1.013 -0.1458 -0.5884 -0.4721
  750MOL0     C 1134   7.495   5.876   0.906  0.6731 -0.0545  0.4437
  750MOL0     C 1135   7.628   5.898   0.857  0.4932  0.1416 -1.1137
  750MOL0     C 1136   7.692   5.781   0.764  0.0725 -1.4672  0.1303
  750MOL0     C 1137   7.831   5.820   0.722  0.2353  0.5432 -0.7440
  750MOL0     C 1138   7.877   5.712   0.625 -0.0403 -0.2847  0.0775
  750MOL0     O 1139   7.985   5.765   0.556  0.3759 -0.0608  0.5614
  750MOL0     C 1140   8.106   5.759   0.617  0.4395  0.2834  0.1991
  750MOL0     C 1141   8.190   5.860   0.568 -0.0913  0.0660  0.8174
  750MOL0     C 1142   8.326   5.874   0.611  1.2438  0.1796 -1.8353
  750MOL0     C 1143   8.368   5.776   0.713  0.2613  0.4144  0.1692
  750MOL0     C 1144   8.514   5.786   0.750  0.3534  0.3924 -1.3162
  750MOL0     O 1145   8.579   5.900   0.716  0.1175  0.2736  0.1947
  750MOL0     C 1146   8.713   5.901   0.745  0.7373 -0.6134 -0.1296
  750MOL0     C 1147   8.758   5.993   0.846  0.4688  0.2950 -0.7864
  750MOL0     C 1148   8.888   5.991   0.885 -0.6959 -0.4362 -0.2623
  750MOL0     C 1149   8.979   5.921   0.807  0.7432 -1.7300  0.0512
  750MOL0     O 1150   9.120   5.935   0.826  0.3939 -0.0239 -0.0164
  750MOL0     C 1151   9.207   5.826   0.853  0.0980  0.4371  0.3956
  750MOL0     C 1152   9.353   5.876   0.874 -0.1791 -0.3451 -0.3421
  750MOL0     C 1153   9.430   5.767   0.944 -1.1159 -0.8757  0.3118
  750MOL0     C 1154   9.579   5.795   0.951 -0.8207  0.5448  0.1254
  750MOL0     C 1155   9.668   5.681   1.011  0.6665 -0.4556 -0.8023
  750MOL0     C 1156   9.798   5.726   1.066 -0.3404 -0.6558 -0.6270
  750MOL0     C 1157   9.881   5.615   1.128  0.1899  0.7809 -0.2022
  750MOL0     C 1158   9.990   5.667   1.214  0.1679 -0.8264 -0.7551
  750MOL0    Cl 1159   9.920   5.740   1.363  0.2119 -0.2234  0.1825
  750MOL0     C 1160   8.944   5.847   0.698 -0.0896 -0.0070 -0.0783
  750MOL0     C 1161   8.812   5.834   0.666 -0.0591  0.4791 -0.0761
  750MOL0     O 1162   8.565   5.695   0.812  0.2805 -0.1935 -0.2700
  750MOL0     C 1163   8.274   5.687   0.770  0.8405 -0.4317  0.6744
  750MOL0     C 1164   8.146   5.670   0.719 -0.3604 -0.1985  0.2865
  750MOL0     N 1165   7.382   5.951   0.862 -0.3073  0.3041 -1.2361
  750MOL0     N 1166   7.281   5.906   0.921  0.6323 -0.6916 -0.4163
  750MOL0     C 1167   6.126   5.559   1.443  0.0192 -0.3060  0.1620
  750MOL0     C 1168   5.989   5.565   1.483  0.3466 -0.3387  0.1172
  750MOL0     C 1169   5.613   5.647   1.708 -0.2265  0.3214  0.4928
  750MOL0     C 1170   5.534   5.530   1.672 -1.4060 -0.1200 -0.1601
  750MOL0     C 1171   5.401   5.528   1.691  0.5757 -0.0258 -0.3779
  750MOL0     C 1172   5.335   5.628   1.755  0.2639 -0.3810  0.0546
  750MOL0     O 1173   5.193   5.624   1.766  0.1629  0.5200  0.2790
  750MOL0     C 1174   5.121   5.707   1.856  0.4271  1.3116  0.5852
  750MOL0     C 1175   5.090   5.837   1.796  0.7284 -0.4183  0.0474
  750MOL0     C 1176   4.995   5.921   1.875  0.2289  0.2148  0.0536
  750MOL0     C 1177   5.024   5.947   2.025 -0.5888 -0.9489 -0.2582
  750MOL0     C 1178   5.150   6.026   2.052 -0.4060 -0.0483  0.3509
  750MOL0     C 1179   5.258   6.073   2.068 -1.0501 -0.8504  0.5521
  750MOL0     C 1180   5.415   5.729   1.823 -0.4185  0.5423  0.5470
  750MOL0     C 1181   5.552   5.752   1.787 -0.3061  0.7455  0.3471
  750MOL0     C 1182   5.624   5.873   1.838  0.5921  0.2883  0.2349
  750MOL0     H 1183   6.011   5.447   1.794  0.4889  0.7716  0.0084
  750MOL0     H 1184   6.229   5.423   1.739 -0.3908  2.8765  1.7991
  750MOL0     H 1185   6.382   5.494   1.300  0.2633  1.9635 -2.4354
  750MOL0     H 1186   6.369   5.648   1.388  1.3705  0.3991  1.6132
  750MOL0     H 1187   6.602   5.451   1.427  1.6799  1.0493  0.9287
  750MOL0     H 1188   6.593   5.606   1.494  1.1968 -1.9017  1.1444
  750MOL0     H 1189   6.584   5.694   1.234  0.7949 -0.6791  0.7050
  750MOL0     H 1190   6.623   5.521   1.206  0.1055  0.8681 -2.0372
  750MOL0     H 1191   6.775   5.724   1.377  2.7600  0.3673 -1.6498
  750MOL0     H 1192   6.821   5.546   1.355  4.5509  1.2596 -1.7239
  750MOL0     H 1193   6.866   5.612   1.108  1.4851 -0.3153  0.9300
  750MOL0     H 1194   6.800   5.768   1.148 -1.1758 -2.4704 -4.3607
  750MOL0     H 1195   6.997   5.781   1.315 -1.1339  0.3157  0.1055
  750MOL0     H 1196   7.056   5.627   1.267  0.2983  1.3583  2.9061
  750MOL0     H 1197   7.046   5.849   1.083  0.6166 -0.6903 -3.1319
  750MOL0     H 1198   7.083   5.695   1.031 -0.4457 -0.6578 -0.0895
  750MOL0     H 1199   7.243   5.881   1.191  1.7084  0.1587 -0.8473
  750MOL0     H 1200   7.297   5.718   1.199  0.5108 -0.0691 -0.9694
  750MOL0     H 1201   7.519   5.733   1.075  1.2731  3.0751  2.1546
  750MOL0     H 1202   7.648   5.991   0.803 -0.3695  1.2739  0.4637
  750MOL0     H 1203   7.696   5.893   0.942 -0.0518  0.2880 -0.6605
  750MOL0     H 1204   7.683   5.683   0.811 -2.4408 -0.6811  1.4701
  750MOL0     H 1205   7.642   5.771   0.667 -2.1842  0.9285  0.9113
  750MOL0     H 1206   7.901   5.815   0.807  1.5954  2.0804 -1.7258
  750MOL0     H 1207   7.825   5.924   0.691  1.7674  1.5761  2.0064
  750MOL0     H 1208   7.802   5.686   0.549 -0.4395  1.2810 -0.0898
  750MOL0     H 1209   7.902   5.621   0.681  1.0492  0.1403  0.3000
  750MOL0     H 1210   8.156   5.933   0.495  0.1328 -0.7486 -0.1326
  750MOL0     H 1211   8.391   5.947   0.564  1.6291 -0.0906 -1.7217
  750MOL0     H 1212   8.692   6.065   0.893 -1.0129 -1.1558 -0.5602
  750MOL0     H 1213   8.928   6.036   0.975  1.8661 -2.9559  0.0031
  750MOL0     H 1214   9.186   5.774   0.947 -1.5869 -0.3100 -0.3494
  750MOL0     H 1215   9.202   5.753   0.771 -0.6059  0.7969  0.1136
  750MOL0     H 1216   9.405   5.885   0.779 -0.4019  0.6400 -0.3797
  750MOL0     H 1217   9.347   5.970   0.929 -2.7607 -0.3962 -0.4197
  750MOL0     H 1218   9.392   5.756   1.047 -1.7073  1.7510  0.4589
  750MOL0     H 1219   9.406   5.673   0.895 -1.8391 -0.8826  0.6558
  750MOL0     H 1220   9.601   5.888   1.005 -1.0278 -0.4767  2.0383
  750MOL0     H 1221   9.620   5.822   0.853 -1.1115  0.7116  0.0461
  750MOL0     H 1222   9.675   5.609   0.929  3.3002  0.1801 -1.2154
  750MOL0     H 1223   9.612   5.635   1.092  1.1683  1.2334  0.5517
  750MOL0     H 1224   9.856   5.776   0.988 -0.2575 -1.9967 -1.4405
  750MOL0     H 1225   9.758   5.795   1.140 -0.4470 -0.2992 -1.0131
  750MOL0     H 1226   9.922   5.554   1.047  0.8981 -0.3443  0.9524
  750MOL0     H 1227   9.809   5.557   1.188  0.4170  1.0312  0.3192
  750MOL0     H 1228  10.056   5.588   1.251 -1.4860 -0.9330  2.3283
  750MOL0     H 1229  10.046   5.737   1.152 -3.1309  0.3234 -2.6587
  750MOL0     H 1230   9.023   5.794   0.647  1.2131 -0.9252  2.6663
  750MOL0     H 1231   8.786   5.766   0.585 -0.8827  3.1045 -2.1921
  750MOL0     H 1232   8.289   5.624   0.858 -1.6068 -3.8847 -1.1432
  750MOL0     H 1233   8.080   5.605   0.775  0.1279 -0.5125  0.5059
  750MOL0     H 1234   6.150   5.583   1.340 -1.4421 -1.1587 -0.4004
  750MOL0     H 1235   5.915   5.597   1.411 -1.8111  2.0594  3.1389
  750MOL0     H 1236   5.588   5.444   1.635 -1.5976  0.0008 -0.7304
  750MOL0     H 1237   5.334   5.451   1.655  1.7861 -0.5491 -1.5889
  750MOL0     H 1238   5.181   5.725   1.946 -0.4537 -1.9700  1.9693
  750MOL0     H 1239   5.034   5.651   1.890 -0.1018  1.3947 -0.5682
  750MOL0     H 1240   5.041   5.812   1.702 -1.3628 -0.3618  1.0633
  750MOL0     H 1241   5.175   5.891   1.755 -0.4251  0.7899 -0.8463
  750MOL0     H 1242   4.897   5.873   1.869  0.2474  0.1156  0.5377
  750MOL0     H 1243   4.986   6.013   1.817 -3.0761 -0.9922 -1.5987
  750MOL0     H 1244   4.939   6.005   2.060  0.7469 -0.8760  3.2963
  750MOL0     H 1245   5.025   5.850   2.075 -0.1054 -1.1339 -0.6139
  750MOL0     H 1246   5.353   6.123   2.067 -1.6135  0.3266  2.2195
  750MOL0     H 1247   5.374   5.805   1.889  1.4030  2.1977 -0.1304
  750MOL0     H 1248   5.558   5.928   1.905 -1.7757  1.8782 -3.1051
  750MOL0     H 1249   5.718   5.848   1.887  0.1848 -0.2871  0.7384
  750MOL0     H 1250   5.644   5.939   1.753  0.6449 -1.9892 -1.6278
  751MOL0     O 1251   5.455   7.422   4.580  0.7008  0.2687 -0.2588
  751MOL0     C 1252   5.429   7.334   4.499  0.5754 -0.5291 -0.2339
  751MOL0     O 1253   5.522   7.279   4.419  0.0674  0.1207  0.2435
  751MOL0     C 1254   5.655   7.316   4.429 -0.6868  0.1940 -0.2039
  751MOL0     C 1255   5.708   7.441   4.386 -0.3123  0.4513  0.2317
  751MOL0     C 1256   5.848   7.466   4.407  0.3526 -0.1506 -0.3931
  751MOL0     C 1257   5.937   7.368   4.461 -0.3825 -0.3382  0.0958
  751MOL0     O 1258   6.071   7.380   4.472  0.4437 -0.1057 -0.3703
  751MOL0     C 1259   6.125   7.499   4.415 -0.0790  0.7762 -0.3062
  751MOL0     C 1260   6.273   7.479   4.423  0.8636  0.6745  0.0013
  751MOL0     C 1261   6.351   7.603   4.374  0.8601  0.1576 -0.4757
  751MOL0     C 1262   6.481   7.555   4.319 -0.1045  0.2084 -0.2775
  751MOL0     C 1263   6.563   7.686   4.276  0.0603  0.3707 -0.4793
  751MOL0     C 1264   6.684   7.631   4.196  0.5493 -0.0471  0.2968
  751MOL0     C 1265   6.737   7.734   4.101 -0.0770 -0.1606  0.5922
  751MOL0     C 1266   6.873   7.698   4.039 -0.4151 -0.0116 -0.2274
  751MOL0     N 1267   6.940   7.827   4.003  0.4974  0.3236 -0.6476
  751MOL0     C 1268   6.900   7.918   3.904 -0.8867 -0.8769  0.1927
  751MOL0     C 1269   7.001   8.015   3.903 -0.4393 -0.0796 -0.4624
  751MOL0     C 1270   7.028   8.143   3.813  0.7233 -0.1402 -0.1264
  751MOL0     C 1271   7.105   8.238   3.907 -0.4440  0.2077 -0.0115
  751MOL0     C 1272   7.107   8.372   3.832 -0.3261 -0.1767 -0.0482
  751MOL0     C 1273   7.216   8.474   3.880  0.8610  0.0790 -0.0751
  751MOL0     O 1274   7.330   8.399   3.911 -0.6652  0.7792 -0.2104
  751MOL0     C 1275   7.440   8.457   3.975  0.4572 -0.3690  0.4142
  751MOL0     C 1276   7.443   8.590   4.015  0.3588 -0.4194  0.0962
  751MOL0     C 1277   7.560   8.648   4.069  0.1430 -0.4233 -0.2168
  751MOL0     C 1278   7.672   8.569   4.098  0.1810  0.7416  1.2519
  751MOL0     C 1279   7.798   8.614   4.162 -0.1537  0.4304  0.2185
  751MOL0     O 1280   7.797   8.747   4.198  0.0591 -0.3443 -0.5395
  751MOL0     C 1281   7.888   8.811   4.281 -0.0495  1.1129 -0.8555
  751MOL0     C 1282   7.968   8.749   4.386 -0.0105  0.0216 -1.3828
  751MOL0     C 1283   8.037   8.820   4.487  0.1143 -0.2532 -0.0604
  751MOL0     C 1284   8.035   8.960   4.483 -0.4217  0.5984  0.0765
  751MOL0     O 1285   8.099   9.024   4.589  0.2588  0.9636  0.1547
  751MOL0     C 1286   8.150   9.146   4.559  0.4956  0.3610  0.7928
  751MOL0     C 1287   8.247   9.159   4.670 -0.7372 -0.1989 -0.0853
  751MOL0     C 1288   8.175   9.199   4.799 -0.9790 -0.8086 -0.0496
  751MOL0     C 1289   8.286   9.230   4.907  0.5448 -0.4542  0.1221
  751MOL0     C 1290   8.229   9.234   5.043 -0.5893 -0.5479  0.6559
  751MOL0     C 1291   8.153   9.359   5.072  0.0540 -0.0356 -0.0369
  751MOL0     C 1292   8.115   9.379   5.216  0.3747 -0.7548 -0.1260
  751MOL0     C 1293   8.219   9.470   5.289 -0.2070  0.5865 -0.3999
  751MOL0    Cl 1294   8.179   9.487   5.466 -0.2672  0.4169  0.3257
  751MOL0     C 1295   7.970   9.026   4.381  0.4849  0.0069  0.2767
  751MOL0     C 1296   7.894   8.949   4.286  0.4160 -0.2566 -0.2017
  751MOL0     O 1297   7.895   8.542   4.162 -0.1392 -0.3379  0.0059
  751MOL0     C 1298   7.655   8.429   4.065  0.3436  0.5965 -0.0968
  751MOL0     C 1299   7.551   8.379   4.000 -0.1298  0.3551 -0.0535
  751MOL0     N 1300   7.097   7.967   3.997  0.4504  0.0554 -0.2765
  751MOL0     N 1301   7.057   7.861   4.058 -0.4836 -0.1312  1.0062
  751MOL0     C 1302   5.879   7.242   4.493  0.4523 -0.8315 -1.0038
  751MOL0     C 1303   5.745   7.229   4.481  0.1434  0.3139 -0.2348
  751MOL0     C 1304   5.291   7.305   4.480 -0.2105  0.4215  0.3085
  751MOL0     C 1305   5.192   7.398   4.522  0.4336  0.0757 -0.4709
  751MOL0     C 1306   5.059   7.377   4.507  0.2179  1.3111 -0.1065
  751MOL0     C 1307   5.004   7.259   4.449  0.0151 -0.1245 -0.1101
  751MOL0     O 1308   4.868   7.232   4.445 -0.4330 -0.3947 -0.2064
  751MOL0     C 1309   4.770   7.341   4.451 -0.3085 -0.0501 -0.4214
  751MOL0     C 1310   4.626   7.286   4.451  0.3522  0.6979  0.2642
  751MOL0     C 1311   4.555   7.290   4.319 -0.2111 -0.3295 -0.3313
  751MOL0     C 1312   4.413   7.245   4.350 -0.2788 -0.1659 -0.7034
  751MOL0     C 1313   4.329   7.265   4.224  1.3437  0.1575  0.5577
  751MOL0     C 1314   4.268   7.278   4.117 -0.4204 -0.8442  0.1383
  751MOL0     C 1315   5.103   7.157   4.426 -0.0666  0.3339  0.2397
  751MOL0     C 1316   5.240   7.177   4.445  0.0906  0.8170  0.2501
  751MOL0     C 1317   5.334   7.063   4.424  0.2147  0.3844 -0.0037
  751MOL0     H 1318   5.654   7.517   4.330 -1.9416 -1.6062 -1.1676
  751MOL0     H 1319   5.884   7.569   4.403  0.5048 -0.0873  1.5862
  751MOL0     H 1320   6.101   7.511   4.309  0.4996  0.6733 -0.4509
  751MOL0     H 1321   6.093   7.574   4.488  1.8476 -0.2675  1.7253
  751MOL0     H 1322   6.296   7.392   4.361  0.1382  1.3440 -1.2547
  751MOL0     H 1323   6.298   7.459   4.527  1.6738  2.3330  0.1640
  751MOL0     H 1324   6.356   7.683   4.448  3.4777  0.9287 -1.3689
  751MOL0     H 1325   6.296   7.646   4.290 -0.5283 -0.9494 -0.1747
  751MOL0     H 1326   6.535   7.502   4.398 -1.0043  0.1176  0.2865
  751MOL0     H 1327   6.469   7.489   4.233 -0.2596  0.4788 -0.4660
  751MOL0     H 1328   6.507   7.744   4.202 -2.1693 -0.1825  0.6717
  751MOL0     H 1329   6.591   7.748   4.361  1.5844  0.8363 -1.2814
  751MOL0     H 1330   6.764   7.592   4.259 -1.8447 -0.8981  3.0552
  751MOL0     H 1331   6.647   7.546   4.139 -0.1881  0.1603  0.4513
  751MOL0     H 1332   6.741   7.830   4.153 -0.1214  0.0008  0.3059
  751MOL0     H 1333   6.671   7.752   4.015  4.4644  3.1412 -2.7569
  751MOL0     H 1334   6.935   7.639   4.107 -0.4701 -1.2609 -1.2077
  751MOL0     H 1335   6.851   7.643   3.946 -1.6517 -0.5250  0.3381
  751MOL0     H 1336   6.814   7.912   3.839  2.0124  0.9694 -4.2708
  751MOL0     H 1337   7.073   8.117   3.716 -0.1925 -3.3751  0.1992
  751MOL0     H 1338   6.934   8.189   3.783  0.2153  0.2154  1.9043
  751MOL0     H 1339   7.063   8.252   4.007 -1.8624 -0.6782 -0.4540
  751MOL0     H 1340   7.206   8.204   3.932  0.1207 -0.0120 -2.3353
  751MOL0     H 1341   7.007   8.415   3.825  0.0421  0.4739 -4.8077
  751MOL0     H 1342   7.124   8.339   3.729 -1.9515  1.3329 -0.8594
  751MOL0     H 1343   7.181   8.520   3.973 -1.0510 -0.2623 -0.5977
  751MOL0     H 1344   7.235   8.548   3.801  1.5057 -0.8558 -0.8218
  751MOL0     H 1345   7.352   8.649   4.015  0.2827 -0.5230  1.3784
  751MOL0     H 1346   7.573   8.751   4.103 -0.9759 -1.1741  2.7765
  751MOL0     H 1347   7.949   8.642   4.378 -0.6946  0.1018 -0.8487
  751MOL0     H 1348   8.094   8.769   4.564 -0.8085  1.2793  1.7182
  751MOL0     H 1349   8.198   9.144   4.461 -0.3096 -0.0104  0.3928
  751MOL0     H 1350   8.072   9.222   4.560  0.5476  0.4514 -0.5530
  751MOL0     H 1351   8.284   9.058   4.687 -1.3426 -0.0047  2.8418
  751MOL0     H 1352   8.322   9.233   4.639 -0.8926 -1.1687 -3.1475
  751MOL0     H 1353   8.110   9.285   4.784  0.1461  0.0129 -0.3606
  751MOL0     H 1354   8.106   9.117   4.824  0.1211 -1.6851  0.1979
  751MOL0     H 1355   8.350   9.317   4.889  2.9568 -2.1518 -0.1468
  751MOL0     H 1356   8.364   9.153   4.905  0.3624 -0.6679  0.9435
  751MOL0     H 1357   8.311   9.241   5.115 -0.0526 -4.3690  0.5939
  751MOL0     H 1358   8.165   9.149   5.068 -0.2681 -1.1945 -0.6347
  751MOL0     H 1359   8.218   9.439   5.037  0.7685 -0.3530  0.5343
  751MOL0     H 1360   8.060   9.340   5.019 -0.5827 -1.1307  1.3953
  751MOL0     H 1361   8.124   9.281   5.265  1.5795 -1.3617 -1.4629
  751MOL0     H 1362   8.014   9.419   5.224  1.0014  0.6146  1.5399
  751MOL0     H 1363   8.317   9.424   5.278 -0.3834 -0.3100  1.4526
  751MOL0     H 1364   8.224   9.572   5.249  3.1310 -1.2103 -5.4386
  751MOL0     H 1365   7.952   9.133   4.378 -3.7773 -0.4942  1.1319
  751MOL0     H 1366   7.840   9.002   4.209  1.8528  0.0923 -0.9960
  751MOL0     H 1367   7.739   8.363   4.085  1.1776  1.4054 -0.8456
  751MOL0     H 1368   7.548   8.272   3.982 -1.9949  0.2353  0.7628
  751MOL0     H 1369   5.940   7.175   4.551  3.1336  1.9721 -0.2976
  751MOL0     H 1370   5.703   7.136   4.518  2.1367 -0.9055 -0.8768
  751MOL0     H 1371   5.223   7.491   4.569  2.0745 -0.0726 -1.2054
  751MOL0     H 1372   4.992   7.453   4.546  1.2918  1.9958  0.4414
  751MOL0     H 1373   4.800   7.410   4.371  2.0177  0.1210  0.5032
  751MOL0     H 1374   4.773   7.390   4.549 -0.0501 -2.3121  0.7848
  751MOL0     H 1375   4.568   7.348   4.521  0.0810 -1.1597  1.7527
  751MOL0     H 1376   4.632   7.181   4.478  0.9817  0.4489 -0.7848
  751MOL0     H 1377   4.599   7.228   4.241  2.2340 -0.6384  1.1883
  751MOL0     H 1378   4.551   7.396   4.291 -0.7071  0.4780  2.5381
  751MOL0     H 1379   4.414   7.142   4.386  2.9175 -0.2781 -0.8912
  751MOL0     H 1380   4.377   7.313   4.428 -0.3148  1.6426 -2.2116
  751MOL0     H 1381   4.218   7.305   4.026  1.9902  3.4382 -0.1953
  751MOL0     H 1382   5.074   7.053   4.414  0.9538 -0.2315  2.2336
  751MOL0     H 1383   5.402   7.068   4.338 -0.3992 -0.4513 -0.5616
  751MOL0     H 1384   5.371   7.026   4.520  0.5846 -1.6982 -0.8822
  751MOL0     H 1385   5.269   6.979   4.396  2.3541 -1.0670 -0.8048
  752MOL0     O 1386   8.035   9.760   5.697 -0.2831  0.6560  0.0205
  752MOL0     C 1387   7.948   9.682   5.676  0.2657  0.2098  0.2006
  752MOL0     O 1388   7.923   9.568   5.740 -0.5686 -0.7670 -0.4186
  752MOL0     C 1389   8.023   9.516   5.822 -0.4353  0.8451  0.4759
  752MOL0     C 1390   8.077   9.392   5.782  0.3670  0.2508 -0.4509
  752MOL0     C 1391   8.179   9.329   5.856  0.0460 -0.5190  0.0759
  752MOL0     C 1392   8.222   9.384   5.979  0.4723 -0.5048 -1.0757
  752MOL0     O 1393   8.327   9.326   6.062  0.2391 -0.4303  0.1890
  752MOL0     C 1394   8.378   9.193   6.037 -1.3474  0.1176  0.2238
  752MOL0     C 1395   8.482   9.200   5.930  0.1680  0.4876  0.9131
  752MOL0     C 1396   8.626   9.194   5.999  0.4380  0.7837  0.4432
  752MOL0     C 1397   8.736   9.201   5.889 -0.0152  0.0264 -0.5171
  752MOL0     C 1398   8.879   9.198   5.953 -0.1074 -0.9040  0.9062
  752MOL0     C 1399   8.984   9.211   5.847  0.7666  0.5010  0.4804
  752MOL0     C 1400   9.123   9.189   5.907 -0.2801  0.6420 -0.6953
  752MOL0     C 1401   9.236   9.218   5.803 -0.9126  0.3628  0.2078
  752MOL0     N 1402   9.379   9.216   5.848  0.6345 -0.5794  0.5869
  752MOL0     C 1403   9.433   9.302   5.941 -0.2162  0.2926 -0.1713
  752MOL0     C 1404   9.567   9.261   5.945  0.4467 -0.7138  0.0547
  752MOL0     C 1405   9.663   9.342   6.028 -0.0785 -0.1289  0.1208
  752MOL0     C 1406   9.812   9.312   5.994 -0.4541 -0.9215  0.7009
  752MOL0     C 1407   9.859   9.182   6.053  1.3812 -0.5221 -0.0459
  752MOL0     C 1408   9.986   9.115   6.004  0.5035 -0.2895  0.2054
  752MOL0     O 1409  10.104   9.194   6.024 -0.4548 -0.5956  0.2618
  752MOL0     C 1410  10.212   9.123   6.071 -0.5249 -0.2379 -0.6146
  752MOL0     C 1411  10.304   9.207   6.139 -0.1177  0.4924  0.2870
  752MOL0     C 1412  10.430   9.159   6.184  0.5480 -0.3350  0.2100
  752MOL0     C 1413  10.456   9.023   6.170 -0.4293 -0.7370 -0.3336
  752MOL0     C 1414  10.583   8.971   6.223 -0.0294 -0.2273 -0.4403
  752MOL0     O 1415  10.684   9.054   6.264 -0.2179  0.4584  0.0958
  752MOL0     C 1416  10.788   9.005   6.337 -0.3811  0.1693 -0.1189
  752MOL0     C 1417  10.832   8.872   6.364  0.6267 -0.5716  0.0575
  752MOL0     C 1418  10.955   8.848   6.422 -0.4683 -0.0154 -0.2542
  752MOL0     C 1419  11.040   8.953   6.450 -0.0952 -0.5327 -0.4984
  752MOL0     O 1420  11.169   8.918   6.490  0.4639 -0.0960  0.2488
  752MOL0     C 1421  11.281   8.985   6.429  0.7516 -0.0718  0.0350
  752MOL0     C 1422  11.404   8.907   6.485  0.0247  0.1324  0.9110
  752MOL0     C 1423  11.530   8.962   6.431  0.0662 -0.7222  0.2094
  752MOL0     C 1424  11.586   9.085   6.509 -0.6297  0.6437  0.1885
  752MOL0     C 1425  11.710   9.147   6.457 -0.3092  0.5998 -0.6970
  752MOL0     C 1426  11.829   9.052   6.453 -0.1167 -0.4193  1.1001
  752MOL0     C 1427  11.960   9.120   6.409  0.1771  1.5167 -0.8647
  752MOL0     C 1428  12.098   9.041   6.415 -0.4218  0.4331  0.1840
  752MOL0    Cl 1429  12.109   8.923   6.282 -0.1175 -0.2132  0.4059
  752MOL0     C 1430  10.999   9.089   6.431  0.0933  0.7782  0.2580
  752MOL0     C 1431  10.870   9.117   6.377  0.6239  0.9801  0.2240
  752MOL0     O 1432  10.577   8.854   6.248 -0.1558  0.3594  0.3183
  752MOL0     C 1433  10.367   8.936   6.105 -0.3107 -0.3374  0.4314
  752MOL0     C 1434  10.248   8.989   6.056 -0.1534 -0.4790 -0.5483
  752MOL0     N 1435   9.591   9.156   5.857  0.2263 -0.3890 -0.2256
  752MOL0     N 1436   9.481   9.145   5.793  0.2670  0.6927 -0.1032
  752MOL0     C 1437   8.174   9.512   6.017  0.0613 -0.0340  0.6175
  752MOL0     C 1438   8.083   9.580   5.933 -0.0738 -0.5241 -0.1966
  752MOL0     C 1439   7.860   9.731   5.570  1.1031 -0.5477 -0.2502
  752MOL0     C 1440   7.844   9.870   5.548 -0.2184 -0.7087  0.3142
  752MOL0     C 1441   7.753   9.930   5.457 -0.4808  0.4766  0.3562
  752MOL0     C 1442   7.673   9.837   5.380 -0.5787 -0.6560  0.0191
  752MOL0     O 1443   7.584   9.878   5.282 -0.3524 -0.0365 -0.6812
  752MOL0     C 1444   7.565  10.016   5.252 -0.0233 -0.5147  0.1068
  752MOL0     C 1445   7.483  10.030   5.123  0.3737 -0.1825  0.2732
  752MOL0     C 1446   7.337  10.022   5.164  0.2927 -0.5950  0.6327
  752MOL0     C 1447   7.243  10.009   5.037 -0.2093  0.6448 -0.6268
  752MOL0     C 1448   7.098  10.018   5.077 -0.0837  0.9488 -0.6059
  752MOL0     C 1449   6.988  10.042   5.111  0.2450 -1.0032  0.1543
  752MOL0     C 1450   7.691   9.699   5.390  0.1182 -0.5572  0.5647
  752MOL0     C 1451   7.778   9.650   5.487  0.5146 -0.6573  0.0744
  752MOL0     C 1452   7.797   9.497   5.491  0.2504 -0.8625 -0.1848
  752MOL0     H 1453   8.049   9.335   5.694  1.9017 -0.5417 -0.4466
  752MOL0     H 1454   8.229   9.237   5.826 -0.4718  0.5151 -4.9878
  752MOL0     H 1455   8.413   9.156   6.134  1.6188  1.3068 -0.2893
  752MOL0     H 1456   8.299   9.122   6.011  1.0125 -2.1479 -1.2442
  752MOL0     H 1457   8.487   9.285   5.861  2.0582 -1.5924 -1.7456
  752MOL0     H 1458   8.464   9.121   5.856 -1.7808  1.5529  0.1811
  752MOL0     H 1459   8.632   9.103   6.059  1.2562 -0.6566 -1.7129
  752MOL0     H 1460   8.625   9.285   6.060  1.7573  0.9937  0.1714
  752MOL0     H 1461   8.724   9.119   5.819  0.4909 -1.2634  0.8515
  752MOL0     H 1462   8.711   9.300   5.850 -1.4206  0.8730  2.2309
  752MOL0     H 1463   8.897   9.273   6.031  3.2382 -0.2888 -0.2665
  752MOL0     H 1464   8.889   9.103   6.005 -1.6755 -2.0478 -0.7555
  752MOL0     H 1465   8.974   9.129   5.776  4.1470 -0.5493  1.0135
  752MOL0     H 1466   8.971   9.310   5.801  0.4260  0.6028  0.7956
  752MOL0     H 1467   9.133   9.084   5.934 -1.8740 -0.5501 -4.1433
  752MOL0     H 1468   9.139   9.250   5.997  2.6151  0.0855 -0.7604
  752MOL0     H 1469   9.223   9.135   5.732  1.3486  1.4840 -1.6480
  752MOL0     H 1470   9.219   9.316   5.758  1.6991  1.0051  0.5103
  752MOL0     H 1471   9.387   9.374   6.008 -2.3283  0.2597 -1.4916
  752MOL0     H 1472   9.653   9.447   5.998  1.6481  0.0502  0.1063
  752MOL0     H 1473   9.630   9.337   6.132  1.8239 -1.5609  0.7068
  752MOL0     H 1474   9.823   9.310   5.885  2.9080 -3.5970  0.9213
  752MOL0     H 1475   9.882   9.391   6.024 -0.1392  0.3573 -2.9070
  752MOL0     H 1476   9.772   9.116   6.042  1.0901 -0.1520  0.0242
  752MOL0     H 1477   9.874   9.197   6.160  1.8433  1.5964 -0.3615
  752MOL0     H 1478   9.978   9.104   5.896  2.1998 -2.3073  0.2235
  752MOL0     H 1479  10.003   9.018   6.052 -3.6540  0.0625  2.9391
  752MOL0     H 1480  10.282   9.312   6.154  1.3967  0.8445  0.2298
  752MOL0     H 1481  10.498   9.215   6.247 -2.0126  2.2064  0.9712
  752MOL0     H 1482  10.778   8.788   6.323 -1.4979  1.2219 -0.9943
  752MOL0     H 1483  11.005   8.754   6.445  1.6633  1.1831  0.2941
  752MOL0     H 1484  11.269   9.000   6.322 -1.6962  1.3385  0.4381
  752MOL0     H 1485  11.298   9.085   6.469 -0.3111 -0.7803  2.4680
  752MOL0     H 1486  11.398   8.920   6.594 -0.1666  0.7975  0.8263
  752MOL0     H 1487  11.398   8.802   6.453  1.5024  0.1126  0.6075
  752MOL0     H 1488  11.602   8.880   6.436  1.1106 -0.1642 -3.0705
  752MOL0     H 1489  11.534   8.988   6.325 -1.2843 -0.3537  0.2294
  752MOL0     H 1490  11.615   9.048   6.608 -0.7387 -0.3110 -0.1194
  752MOL0     H 1491  11.503   9.152   6.532 -2.8705 -1.2868 -1.6402
  752MOL0     H 1492  11.730   9.219   6.537  0.9035 -0.4419 -0.0270
  752MOL0     H 1493  11.694   9.195   6.360  0.3606  0.4127 -0.9084
  752MOL0     H 1494  11.848   9.006   6.550  2.5143  0.7086  1.1914
  752MOL0     H 1495  11.808   8.967   6.387  0.7420 -1.3911  2.0373
  752MOL0     H 1496  11.965   9.198   6.485 -0.4030 -0.6147  1.5205
  752MOL0     H 1497  11.937   9.172   6.316 -1.9328  3.0628  0.4363
  752MOL0     H 1498  12.182   9.110   6.402 -0.8871  0.4894 -4.5726
  752MOL0     H 1499  12.108   8.993   6.513  1.3065  0.9212  0.2833
  752MOL0     H 1500  11.069   9.170   6.450 -0.8542  2.3964 -2.4931
  752MOL0     H 1501  10.832   9.217   6.358 -2.0880 -0.0418 -0.1951
  752MOL0     H 1502  10.393   8.833   6.086 -1.6344 -0.7108  0.5514
  752MOL0     H 1503  10.189   8.915   6.004  1.3563 -0.7327 -1.9780
  752MOL0     H 1504   8.204   9.571   6.103 -1.2701 -1.4780  2.1294
  752MOL0     H 1505   8.048   9.680   5.954  0.9052  0.3247 -2.2879
  752MOL0     H 1506   7.917   9.936   5.593  0.3266  0.5378 -2.1974
  752MOL0     H 1507   7.757  10.032   5.420  2.4409 -0.3136 -1.8904
  752MOL0     H 1508   7.658  10.071   5.235 -1.3677  1.0573 -2.7669
  752MOL0     H 1509   7.521  10.065   5.339 -1.3726 -0.2685 -0.6941
  752MOL0     H 1510   7.520   9.954   5.053 -0.6385 -0.3451 -0.0983
  752MOL0     H 1511   7.508  10.122   5.068 -1.0325  0.2909  0.3790
  752MOL0     H 1512   7.302  10.110   5.219  0.9878 -1.0599  1.8485
  752MOL0     H 1513   7.321   9.939   5.233  3.2509 -1.6548  0.2168
  752MOL0     H 1514   7.269  10.093   4.972  4.1125 -1.0727 -1.4071
  752MOL0     H 1515   7.261   9.918   4.979 -0.4126  0.8746 -1.0566
  752MOL0     H 1516   6.890  10.082   5.130  1.0559  1.2702 -0.1200
  752MOL0     H 1517   7.631   9.630   5.331  1.2377 -1.7342  0.7588
  752MOL0     H 1518   7.762   9.441   5.404  1.2340  0.2108 -1.3054
  752MOL0     H 1519   7.898   9.460   5.510 -0.3935 -1.5051  2.5378
  752MOL0     H 1520   7.733   9.466   5.574 -1.4988  2.4153 -0.1226
  753MOL0     O 1521   4.250   2.268   2.605  0.3756 -0.3715 -0.3834
  753MOL0     C 1522   4.236   2.182   2.519 -0.1194 -1.3975 -0.4853
  753MOL0     O 1523   4.133   2.094   2.515 -0.1667 -0.4556 -0.3320
  753MOL0     C 1524   4.015   2.130   2.574  1.1279  0.1570 -0.0540
  753MOL0     C 1525   3.906   2.043   2.552  0.4956 -0.6094 -0.2839
  753MOL0     C 1526   3.771   2.087   2.565 -1.1198  0.1273  0.2243
  753MOL0     C 1527   3.749   2.204   2.625 -0.2356 -0.7192  0.1568
  753MOL0     O 1528   3.616   2.234   2.635  0.2198 -0.6116 -0.2124
  753MOL0     C 1529   3.557   2.319   2.543 -0.7320 -0.1289 -0.9024
  753MOL0     C 1530   3.409   2.294   2.543  0.1114 -0.9301  0.9122
  753MOL0     C 1531   3.338   2.330   2.673  0.5689  0.0738 -0.6354
  753MOL0     C 1532   3.189   2.363   2.662  0.5381 -0.1394 -0.4952
  753MOL0     C 1533   3.115   2.396   2.790  0.5992 -0.0305 -0.1959
  753MOL0     C 1534   3.201   2.441   2.906  0.9837 -0.0706  0.1997
  753MOL0     C 1535   3.124   2.499   3.017  0.7476 -0.2822 -0.3525
  753MOL0     C 1536   3.210   2.553   3.137  0.6026 -0.4674  1.1273
  753MOL0     N 1537   3.315   2.473   3.198  0.1459  0.9022 -0.3095
  753MOL0     C 1538   3.440   2.464   3.142 -0.2286  0.4305  0.4245
  753MOL0     C 1539   3.498   2.368   3.226  0.3273 -0.1845 -0.7673
  753MOL0     C 1540   3.637   2.310   3.224 -0.1235 -0.3419 -0.4496
  753MOL0     C 1541   3.732   2.386   3.122  0.1711  0.0751  0.0944
  753MOL0     C 1542   3.865   2.328   3.129 -0.2682  1.0214  0.7157
  753MOL0     C 1543   3.967   2.441   3.118  0.0412  0.0141  0.2301
  753MOL0     O 1544   3.945   2.516   2.991 -0.1250  0.0392 -0.2442
  753MOL0     C 1545   4.058   2.560   2.934  0.1167 -0.6573 -0.6377
  753MOL0     C 1546   4.053   2.694   2.896  0.2090 -0.3696  0.2649
  753MOL0     C 1547   4.158   2.743   2.815  0.4651  0.6907  0.9021
  753MOL0     C 1548   4.276   2.673   2.786  0.2166  0.1965 -0.0514
  753MOL0     C 1549   4.391   2.722   2.703 -0.0508  0.6818 -0.0183
  753MOL0     O 1550   4.352   2.835   2.633 -0.0547 -0.1302 -0.4281
  753MOL0     C 1551   4.450   2.898   2.564  0.0410  0.4513  1.0127
  753MOL0     C 1552   4.466   2.877   2.426 -0.3798  0.4482 -0.4677
  753MOL0     C 1553   4.569   2.932   2.356  0.5491 -0.0260  0.9369
  753MOL0     C 1554   4.655   3.010   2.414 -0.8330 -0.8456  0.6284
  753MOL0     O 1555   4.767   3.069   2.362 -0.5208  0.7634  0.0655
  753MOL0     C 1556   4.819   3.015   2.236  0.0957 -0.6229 -0.5273
  753MOL0     C 1557   4.956   3.078   2.212  0.0696 -0.5581 -0.2805
  753MOL0     C 1558   4.943   3.215   2.148 -0.8490  0.0416 -0.5726
  753MOL0     C 1559   4.872   3.334   2.219  0.1343  0.5379  0.1124
  753MOL0     C 1560   4.922   3.463   2.156  1.3199 -0.5366  0.3999
  753MOL0     C 1561   4.873   3.483   1.999  0.0478  0.3499 -0.4837
  753MOL0     C 1562   4.717   3.493   1.990 -0.1455  0.2219  0.4896
  753MOL0     C 1563   4.664   3.511   1.844 -0.1303  0.0323 -0.3846
  753MOL0    Cl 1564   4.737   3.407   1.719 -0.1024 -0.2658 -0.2040
  753MOL0     C 1565   4.637   3.044   2.551  0.5059 -0.0050  0.1201
  753MOL0     C 1566   4.536   2.985   2.623  0.6388 -0.0012 -0.2445
  753MOL0     O 1567   4.505   2.667   2.698  0.3923 -0.8906  0.5070
  753MOL0     C 1568   4.278   2.537   2.835 -0.4890 -0.6907 -0.5667
  753MOL0     C 1569   4.177   2.488   2.913 -1.1345  0.1260  0.7244
  753MOL0     N 1570   3.414   2.343   3.330 -0.3488 -0.3773 -0.3681
  753MOL0     N 1571   3.304   2.410   3.315 -0.1909  0.1067 -0.9856
  753MOL0     C 1572   3.844   2.290   2.664 -0.6175  0.0982 -0.1500
  753MOL0     C 1573   3.973   2.261   2.626 -0.5068 -0.9052 -0.1430
  753MOL0     C 1574   4.352   2.146   2.437 -0.4934 -0.3130 -0.5560
  753MOL0     C 1575   4.369   2.015   2.400  0.2301  0.7802  0.0290
  753MOL0     C 1576   4.481   1.968   2.325 -0.1930  0.2721  0.2606
  753MOL0     C 1577   4.577   2.054   2.277 -0.2921  0.1048 -0.4532
  753MOL0     O 1578   4.684   2.019   2.204  0.2767  0.8114  0.3291
  753MOL0     C 1579   4.694   1.885   2.164 -0.3365  0.2100  0.1693
  753MOL0     C 1580   4.773   1.803   2.265 -0.1455 -0.5095 -0.1708
  753MOL0     C 1581   4.748   1.659   2.239 -0.7052  0.1568  0.3310
  753MOL0     C 1582   4.836   1.561   2.309 -0.4513 -0.0367  0.8549
  753MOL0     C 1583   4.967   1.580   2.260 -0.8426  0.4955  1.0866
  753MOL0     C 1584   5.081   1.575   2.218  0.1860  0.2195  0.0133
  753MOL0     C 1585   4.553   2.190   2.305 -0.7877 -0.3129 -0.8323
  753MOL0     C 1586   4.446   2.238   2.378 -0.4077  0.0319 -0.8303
  753MOL0     C 1587   4.441   2.388   2.404  0.7563  0.9694  0.5496
  753MOL0     H 1588   3.932   1.951   2.501 -3.1967 -2.0292  0.0765
  753MOL0     H 1589   3.690   2.021   2.538 -1.8233 -0.0321  2.5415
  753MOL0     H 1590   3.577   2.424   2.568  0.0147 -0.5315  0.2766
  753MOL0     H 1591   3.595   2.299   2.443  3.1330  1.6082  0.0011
  753MOL0     H 1592   3.393   2.186   2.533 -2.4428 -0.6568  1.3920
  753MOL0     H 1593   3.357   2.342   2.460  0.6290 -2.4763 -0.3592
  753MOL0     H 1594   3.394   2.418   2.706  1.2409 -0.5113 -0.1854
  753MOL0     H 1595   3.347   2.247   2.743 -2.0679  0.4588  0.2487
  753MOL0     H 1596   3.182   2.451   2.597  1.6052  0.6035  0.3669
  753MOL0     H 1597   3.137   2.282   2.611 -0.8699  0.8985 -0.7631
  753MOL0     H 1598   3.046   2.476   2.765 -1.1208 -0.7469  1.9284
  753MOL0     H 1599   3.053   2.310   2.816  2.0367 -1.4068 -1.1153
  753MOL0     H 1600   3.254   2.352   2.941  0.4245 -0.4163  0.1699
  753MOL0     H 1601   3.278   2.506   2.863  0.8148  0.5796  0.8622
  753MOL0     H 1602   3.064   2.414   3.051  0.5300 -0.7713 -1.8939
  753MOL0     H 1603   3.067   2.580   2.971  1.3804 -0.7205 -1.9816
  753MOL0     H 1604   3.257   2.644   3.097 -0.9350  0.0633  0.4444
  753MOL0     H 1605   3.145   2.593   3.215 -0.0965 -1.5254  1.1018
  753MOL0     H 1606   3.475   2.521   3.057 -0.2023 -0.0701  0.0941
  753MOL0     H 1607   3.685   2.327   3.321  0.4387  0.0416 -0.7861
  753MOL0     H 1608   3.635   2.202   3.205  3.5819 -0.7473  0.6483
  753MOL0     H 1609   3.685   2.360   3.027 -1.1228 -1.4524  1.1064
  753MOL0     H 1610   3.720   2.494   3.138 -1.1873  0.3875 -2.5186
  753MOL0     H 1611   3.896   2.265   3.046  0.5492  2.0747  0.1900
  753MOL0     H 1612   3.868   2.268   3.221 -0.2501  0.5413  0.4042
  753MOL0     H 1613   4.066   2.397   3.126  0.5446  0.3110 -2.8670
  753MOL0     H 1614   3.945   2.502   3.206  0.8123 -1.2874  1.3509
  753MOL0     H 1615   3.978   2.772   2.907  0.6633  0.4903 -2.0649
  753MOL0     H 1616   4.151   2.844   2.775  2.5032  1.1471  1.6169
  753MOL0     H 1617   4.405   2.809   2.367 -1.2749 -0.2841  1.2342
  753MOL0     H 1618   4.578   2.918   2.249  2.1755  2.3377  0.6690
  753MOL0     H 1619   4.818   2.906   2.235 -1.7082 -0.7225  2.4037
  753MOL0     H 1620   4.746   3.045   2.161 -0.1786  1.4838  0.5076
  753MOL0     H 1621   5.010   3.085   2.307 -0.7413  1.4874  0.0733
  753MOL0     H 1622   5.018   3.015   2.147  1.1193 -0.5723  0.7056
  753MOL0     H 1623   5.045   3.252   2.135 -0.8434 -0.5597 -2.4586
  753MOL0     H 1624   4.907   3.198   2.046 -2.6091 -1.0187  0.1748
  753MOL0     H 1625   4.888   3.327   2.327 -1.1315 -3.2603  0.2024
  753MOL0     H 1626   4.764   3.318   2.210  0.4185 -1.7547  0.0832
  753MOL0     H 1627   5.031   3.470   2.154  1.3027  1.9666 -3.8478
  753MOL0     H 1628   4.878   3.542   2.217  1.7684 -0.7744  1.0432
  753MOL0     H 1629   4.912   3.576   1.957 -1.6790  1.8050  0.9563
  753MOL0     H 1630   4.925   3.404   1.944  1.2185 -1.6847  3.1624
  753MOL0     H 1631   4.687   3.581   2.048  1.3784 -0.6390  2.6912
  753MOL0     H 1632   4.678   3.407   2.043 -1.4864  0.2923 -0.3382
  753MOL0     H 1633   4.558   3.485   1.843  0.6213 -3.4999 -0.3230
  753MOL0     H 1634   4.671   3.615   1.812  0.5590 -0.6685 -2.6922
  753MOL0     H 1635   4.713   3.102   2.602  1.3415 -0.9368 -0.0335
  753MOL0     H 1636   4.526   3.006   2.729  1.7944  1.7015 -0.4373
  753MOL0     H 1637   4.362   2.473   2.810  1.3415  0.5772  1.9350
  753MOL0     H 1638   4.188   2.384   2.945  1.1641 -0.3931 -1.4766
  753MOL0     H 1639   3.808   2.386   2.701  3.1258  0.4132  3.3447
  753MOL0     H 1640   4.035   2.344   2.659 -2.2156  0.4687 -0.2266
  753MOL0     H 1641   4.303   1.937   2.435 -0.5094  1.8935  1.2493
  753MOL0     H 1642   4.482   1.862   2.301  1.0133  0.5894 -1.2814
  753MOL0     H 1643   4.741   1.892   2.065  0.7147  0.2146  0.6572
  753MOL0     H 1644   4.604   1.827   2.141  0.0602 -0.6803  0.7995
  753MOL0     H 1645   4.733   1.830   2.364 -2.9255 -0.0435 -1.3237
  753MOL0     H 1646   4.875   1.840   2.269 -0.7024  1.1449 -0.7001
  753MOL0     H 1647   4.750   1.642   2.131 -1.3204 -1.7295  0.5856
  753MOL0     H 1648   4.651   1.624   2.276 -0.4840 -0.7515  0.0667
  753MOL0     H 1649   4.846   1.575   2.417 -3.2577 -3.1558  1.7108
  753MOL0     H 1650   4.801   1.457   2.298 -1.6416  0.3369  0.9631
  753MOL0     H 1651   5.177   1.549   2.179 -0.3494 -0.1723 -1.0739
  753MOL0     H 1652   4.631   2.254   2.266  1.2258 -1.5640  0.9240
  753MOL0     H 1653   4.477   2.433   2.311 -0.6240  1.0244  0.0114
  753MOL0     H 1654   4.337   2.418   2.417  0.1942 -1.1257  1.3041
  753MOL0     H 1655   4.488   2.434   2.491 -0.8789  2.4329  0.7055
  754MOL0     O 1656   8.881   2.570   3.254 -1.0459  0.0840  0.1613
  754MOL0     C 1657   8.925   2.532   3.146 -0.1390 -0.4532  0.1252
  754MOL0     O 1658   8.847   2.470   3.055 -0.8778 -0.2566 -0.7643
  754MOL0     C 1659   8.715   2.441   3.088  0.9742 -0.7434  0.4504
  754MOL0     C 1660   8.603   2.497   3.021  0.6486 -0.5055  0.5563
  754MOL0     C 1661   8.474   2.485   3.064 -0.6091 -0.9325  0.7776
  754MOL0     C 1662   8.448   2.396   3.164 -0.6680  0.4682 -0.1202
  754MOL0     O 1663   8.321   2.386   3.203 -0.0010  0.0620  0.3583
  754MOL0     C 1664   8.256   2.270   3.161 -0.4860  0.1058  0.5329
  754MOL0     C 1665   8.231   2.249   3.010  0.0347  0.4272  0.8582
  754MOL0     C 1666   8.168   2.370   2.930 -1.0116 -0.6993 -0.7087
  754MOL0     C 1667   8.015   2.326   2.901  0.4911  0.3872 -0.4787
  754MOL0     C 1668   7.933   2.295   3.025  0.4661  0.8511 -0.5409
  754MOL0     C 1669   7.922   2.422   3.109  0.2806  0.5702  0.5672
  754MOL0     C 1670   7.849   2.398   3.242 -0.3255  0.4977  1.0493
  754MOL0     C 1671   7.840   2.528   3.324 -0.1635 -0.6047 -0.7548
  754MOL0     N 1672   7.787   2.506   3.458 -0.2339  0.7770 -0.2626
  754MOL0     C 1673   7.852   2.537   3.579  0.4056  0.0613  0.5480
  754MOL0     C 1674   7.768   2.495   3.680  0.2694  1.2940  1.1544
  754MOL0     C 1675   7.800   2.521   3.816  1.0490  0.2682 -0.2443
  754MOL0     C 1676   7.744   2.425   3.920 -0.4017 -0.2709  0.1894
  754MOL0     C 1677   7.745   2.474   4.063  0.0375  0.0671  0.1897
  754MOL0     C 1678   7.876   2.528   4.125 -0.2666 -0.3471 -0.2185
  754MOL0     O 1679   7.987   2.442   4.079  0.7740 -0.9008 -0.0302
  754MOL0     C 1680   8.116   2.487   4.104 -0.1732 -0.0242  1.5123
  754MOL0     C 1681   8.160   2.594   4.190  0.7564  0.1118 -0.3566
  754MOL0     C 1682   8.296   2.610   4.214 -0.3860  0.3522 -0.6172
  754MOL0     C 1683   8.393   2.525   4.159 -0.0950 -0.5290 -0.0998
  754MOL0     C 1684   8.539   2.534   4.184  0.5371 -0.3561  0.1792
  754MOL0     O 1685   8.615   2.431   4.128  0.4019  0.1062 -0.0239
  754MOL0     C 1686   8.748   2.451   4.119 -0.3223  0.1154  0.1234
  754MOL0     C 1687   8.827   2.476   4.236  0.1827  0.5867  0.3047
  754MOL0     C 1688   8.963   2.483   4.227 -0.0162  0.7753  0.4506
  754MOL0     C 1689   9.029   2.440   4.108  0.2708 -1.0554 -0.6002
  754MOL0     O 1690   9.167   2.440   4.102  0.0525  0.2777  0.1136
  754MOL0     C 1691   9.227   2.519   3.992 -0.5967 -0.2920  0.2211
  754MOL0     C 1692   9.275   2.429   3.875 -0.4998 -0.8968  0.3565
  754MOL0     C 1693   9.373   2.322   3.924 -0.0609 -0.4430  0.2346
  754MOL0     C 1694   9.504   2.380   3.987 -0.0152 -0.1650 -0.6455
  754MOL0     C 1695   9.627   2.305   3.946  0.2682  0.0897 -0.3346
  754MOL0     C 1696   9.759   2.349   4.006  0.3012  0.1804  0.3201
  754MOL0     C 1697   9.796   2.499   4.012  0.1998 -0.1303 -0.2909
  754MOL0     C 1698   9.816   2.577   3.877  0.7746  0.6324 -0.9288
  754MOL0    Cl 1699   9.966   2.524   3.784 -0.5925 -0.5847  0.2693
  754MOL0     C 1700   8.953   2.415   3.992  0.2785 -0.1969  0.3363
  754MOL0     C 1701   8.812   2.423   3.994 -0.7330 -0.2593  0.4172
  754MOL0     O 1702   8.582   2.631   4.252  0.9905  0.5672  0.8684
  754MOL0     C 1703   8.346   2.429   4.072  0.4661  1.0982 -0.3424
  754MOL0     C 1704   8.214   2.411   4.041 -0.6431  0.0997  0.3186
  754MOL0     N 1705   7.647   2.458   3.616  0.0002 -0.3753 -0.0299
  754MOL0     N 1706   7.662   2.459   3.487 -0.3015 -0.0321 -0.3951
  754MOL0     C 1707   8.556   2.331   3.232 -0.0769  0.5616  0.6254
  754MOL0     C 1708   8.692   2.351   3.199  0.5567 -0.1699 -0.0299
  754MOL0     C 1709   9.061   2.558   3.122  0.3603  0.0025 -0.8145
  754MOL0     C 1710   9.145   2.553   3.237  0.1729  0.0425 -0.2180
  754MOL0     C 1711   9.288   2.563   3.230 -0.9720 -0.4175 -0.1740
  754MOL0     C 1712   9.335   2.580   3.101  0.0452 -0.2933  0.4470
  754MOL0     O 1713   9.472   2.590   3.097 -0.1397 -0.4835  0.4416
  754MOL0     C 1714   9.536   2.617   2.972  0.0261 -0.6309 -0.3126
  754MOL0     C 1715   9.685   2.652   3.005  0.1986 -0.6953 -0.3559
  754MOL0     C 1716   9.783   2.627   2.898  0.3785 -0.4001  0.3452
  754MOL0     C 1717   9.926   2.648   2.942 -0.3159 -0.1147 -0.7929
  754MOL0     C 1718  10.026   2.579   2.856 -0.3126  0.3287 -0.8243
  754MOL0     C 1719  10.110   2.510   2.802 -0.0812 -0.5157  0.2367
  754MOL0     C 1720   9.250   2.593   2.985 -0.6843  0.4947 -0.7652
  754MOL0     C 1721   9.112   2.572   2.997 -0.2961  0.0075  0.0470
  754MOL0     C 1722   9.025   2.603   2.877  0.2328  0.0087  0.6158
  754MOL0     H 1723   8.619   2.567   2.940  0.0848 -1.2125 -0.1914
  754MOL0     H 1724   8.399   2.548   3.019  0.4461  0.2051  0.5654
  754MOL0     H 1725   8.317   2.186   3.197  0.9900  2.4398  4.0172
  754MOL0     H 1726   8.165   2.280   3.220  1.2644  0.3603  3.4110
  754MOL0     H 1727   8.182   2.154   2.988  0.8520  0.1477  0.1807
  754MOL0     H 1728   8.319   2.222   2.951 -0.5951 -0.3971  0.2897
  754MOL0     H 1729   8.225   2.393   2.839  1.8985  2.0864  1.5568
  754MOL0     H 1730   8.181   2.461   2.989  1.9026 -0.0795 -2.0745
  754MOL0     H 1731   7.958   2.398   2.842 -1.9721 -1.1894 -0.1877
  754MOL0     H 1732   8.009   2.238   2.836 -0.6741 -0.2445  0.4592
  754MOL0     H 1733   7.836   2.247   3.004 -0.1132  1.5728  0.3922
  754MOL0     H 1734   7.978   2.218   3.087 -4.0990 -0.9397  0.9742
  754MOL0     H 1735   8.022   2.456   3.135  0.4243 -1.9197  3.9416
  754MOL0     H 1736   7.860   2.484   3.042  0.6984 -0.6372 -0.9964
  754MOL0     H 1737   7.904   2.322   3.298 -0.4042  1.5699  2.6343
  754MOL0     H 1738   7.748   2.360   3.221  0.3425  0.1070 -1.8897
  754MOL0     H 1739   7.938   2.575   3.327 -1.8332  3.3591 -1.8084
  754MOL0     H 1740   7.766   2.593   3.274 -1.9910 -2.3095 -0.4026
  754MOL0     H 1741   7.955   2.568   3.593  0.7300  0.4396 -2.2257
  754MOL0     H 1742   7.909   2.530   3.821  1.0971  1.4715 -2.2728
  754MOL0     H 1743   7.748   2.613   3.845  0.4153 -0.7426  2.0459
  754MOL0     H 1744   7.638   2.417   3.893 -0.7104  1.8082  0.6372
  754MOL0     H 1745   7.798   2.332   3.900  2.0238  1.5755 -2.5727
  754MOL0     H 1746   7.719   2.388   4.125  0.4493 -0.9629 -1.0017
  754MOL0     H 1747   7.673   2.552   4.088 -1.8122 -1.7754  0.9135
  754MOL0     H 1748   7.870   2.540   4.234  3.6580  3.9612 -0.1617
  754MOL0     H 1749   7.899   2.627   4.084 -1.6553  0.5278  1.0033
  754MOL0     H 1750   8.100   2.664   4.248  1.3015  0.3130 -0.0350
  754MOL0     H 1751   8.328   2.687   4.283  1.5663 -0.3779 -0.6463
  754MOL0     H 1752   8.772   2.484   4.330 -2.2811 -2.1451 -0.7739
  754MOL0     H 1753   9.023   2.497   4.317 -0.1984  0.5709  0.6052
  754MOL0     H 1754   9.167   2.604   3.958 -1.0986 -0.6049  0.3097
  754MOL0     H 1755   9.323   2.561   4.024 -0.6186  0.5228 -0.7283
  754MOL0     H 1756   9.189   2.381   3.826 -3.0961  3.3881  0.2107
  754MOL0     H 1757   9.324   2.493   3.802 -3.6052 -1.4799 -2.4865
  754MOL0     H 1758   9.315   2.275   4.003  0.0612 -0.3163  0.4016
  754MOL0     H 1759   9.390   2.256   3.838  3.0463  1.2160 -0.5824
  754MOL0     H 1760   9.488   2.393   4.095 -0.1843 -0.2494 -0.6607
  754MOL0     H 1761   9.522   2.476   3.938 -0.1442 -0.9232 -2.2386
  754MOL0     H 1762   9.631   2.316   3.838  2.0534  1.8148 -0.1460
  754MOL0     H 1763   9.627   2.198   3.972  0.7906  0.3269  0.7100
  754MOL0     H 1764   9.765   2.312   4.109  3.2707  2.5038  1.1239
  754MOL0     H 1765   9.841   2.304   3.948 -0.6649  0.9626 -1.7607
  754MOL0     H 1766   9.888   2.519   4.066  0.5643  2.7444 -1.8211
  754MOL0     H 1767   9.713   2.540   4.070  0.2589  0.1274 -0.3877
  754MOL0     H 1768   9.730   2.573   3.809  1.2789 -0.5363 -1.5073
  754MOL0     H 1769   9.830   2.683   3.899  2.2708  0.2850 -0.1205
  754MOL0     H 1770   8.996   2.383   3.897  0.6892 -1.6476  0.9891
  754MOL0     H 1771   8.754   2.390   3.909 -0.4814 -2.5869  1.0849
  754MOL0     H 1772   8.416   2.368   4.016  0.1204 -0.6574  1.0469
  754MOL0     H 1773   8.182   2.337   3.968 -1.6108  0.3625  0.4581
  754MOL0     H 1774   8.528   2.274   3.320 -2.8481 -3.6674 -2.5867
  754MOL0     H 1775   8.767   2.295   3.254  1.7066  0.2048 -1.1649
  754MOL0     H 1776   9.106   2.564   3.338  1.3274  1.6545  0.1037
  754MOL0     H 1777   9.357   2.553   3.313 -0.9777 -1.9048 -0.3290
  754MOL0     H 1778   9.485   2.696   2.916 -2.8215 -3.3374 -1.8516
  754MOL0     H 1779   9.534   2.533   2.902  1.4572 -0.5274 -0.5202
  754MOL0     H 1780   9.722   2.591   3.088  1.9029  0.4720 -0.2088
  754MOL0     H 1781   9.684   2.757   3.035 -0.3405 -1.4768  2.6631
  754MOL0     H 1782   9.753   2.701   2.823  1.3553  1.3838  1.6267
  754MOL0     H 1783   9.779   2.528   2.851 -1.5004 -1.4313  2.5162
  754MOL0     H 1784   9.959   2.753   2.950 -1.8352  0.2607  1.4071
  754MOL0     H 1785   9.936   2.619   3.047  0.4526 -2.3154 -1.4165
  754MOL0     H 1786  10.184   2.450   2.751 -0.7445  1.0727 -2.8926
  754MOL0     H 1787   9.294   2.610   2.887  3.2162  2.6207  1.1590
  754MOL0     H 1788   8.926   2.630   2.914  0.7060  1.3775  0.9493
  754MOL0     H 1789   9.073   2.687   2.826 -0.7261 -0.4654 -1.1622
  754MOL0     H 1790   9.024   2.524   2.801  1.9497  2.0152 -1.6634
  755MOL0     O 1791  10.276   7.486   3.988 -0.6143 -0.1111  0.2998
  755MOL0     C 1792  10.279   7.476   4.106 -0.5290 -0.0396  0.3359
  755MOL0     O 1793  10.393   7.439   4.168  0.4624  0.2109  0.4703
  755MOL0     C 1794  10.490   7.392   4.086 -0.5453  0.9509 -0.0110
  755MOL0     C 1795  10.491   7.254   4.044  0.1534 -0.3682 -0.0958
  755MOL0     C 1796  10.599   7.207   3.964  0.2054 -0.2239 -0.4864
  755MOL0     C 1797  10.707   7.290   3.936 -0.8232  0.6508  0.3208
  755MOL0     O 1798  10.804   7.217   3.872  0.3159 -0.0793 -0.4550
  755MOL0     C 1799  10.931   7.264   3.896 -0.5594  0.6747 -0.4208
  755MOL0     C 1800  11.017   7.142   3.847 -0.1705  0.2563 -0.0095
  755MOL0     C 1801  11.169   7.179   3.835  0.6340  0.3514  0.6367
  755MOL0     C 1802  11.222   7.088   3.725 -0.0075 -0.6087  0.3354
  755MOL0     C 1803  11.366   7.049   3.734  0.5297  0.6490  0.4607
  755MOL0     C 1804  11.393   6.970   3.862 -0.4611  0.3506 -0.6144
  755MOL0     C 1805  11.529   6.925   3.863 -1.5124  0.1619  1.1307
  755MOL0     C 1806  11.554   6.790   3.933  0.4896 -0.4344 -0.6765
  755MOL0     N 1807  11.696   6.760   3.952 -0.2149 -0.5917  0.5619
  755MOL0     C 1808  11.791   6.787   3.856 -0.4771  0.4201 -0.7154
  755MOL0     C 1809  11.915   6.766   3.913  0.7270  0.8465 -0.6983
  755MOL0     C 1810  12.054   6.782   3.860  0.8166  0.0670 -0.1777
  755MOL0     C 1811  12.081   6.668   3.761  0.4412  0.3154 -0.2980
  755MOL0     C 1812  12.190   6.713   3.662 -0.6112  0.6329 -0.2905
  755MOL0     C 1813  12.249   6.588   3.595  0.2852 -0.1158  0.2719
  755MOL0     O 1814  12.324   6.521   3.698 -0.2974  0.2726  0.1995
  755MOL0     C 1815  12.463   6.505   3.681  0.4933  0.3480  0.4098
  755MOL0     C 1816  12.521   6.386   3.730 -0.5995 -0.2268  0.1169
  755MOL0     C 1817  12.658   6.359   3.696  0.5243  1.0616  0.0321
  755MOL0     C 1818  12.737   6.447   3.618 -0.5163 -0.5178  0.0910
  755MOL0     C 1819  12.870   6.409   3.575 -0.2715 -0.4522 -0.3843
  755MOL0     O 1820  12.899   6.276   3.590  0.0200  0.6510  0.2054
  755MOL0     C 1821  13.033   6.230   3.606 -0.3188 -0.2613  0.4086
  755MOL0     C 1822  13.138   6.309   3.657 -0.2545 -0.1433  0.0155
  755MOL0     C 1823  13.260   6.253   3.690  0.0953 -1.1245  0.1361
  755MOL0     C 1824  13.282   6.109   3.669  0.1663  0.5939 -0.4003
  755MOL0     O 1825  13.388   6.042   3.715 -0.1168 -0.7917  0.1247
  755MOL0     C 1826  13.514   6.108   3.719 -0.2493 -0.0247  0.5512
  755MOL0     C 1827  13.568   6.142   3.571  0.1786  0.3467  0.5260
  755MOL0     C 1828  13.714   6.205   3.578  1.0304 -1.0825  0.3325
  755MOL0     C 1829  13.708   6.359   3.623 -0.7464 -0.1444 -0.2585
  755MOL0     C 1830  13.853   6.405   3.652  0.2472  0.3063 -0.2042
  755MOL0     C 1831  13.920   6.472   3.539  0.0060 -0.8027  0.4467
  755MOL0     C 1832  13.894   6.419   3.389 -0.1448  0.2976 -0.9311
  755MOL0     C 1833  13.992   6.487   3.301  0.3244  0.8029  0.0199
  755MOL0    Cl 1834  14.152   6.406   3.298 -0.0933 -0.3332 -0.2553
  755MOL0     C 1835  13.181   6.033   3.614 -0.7366 -0.4783 -0.5304
  755MOL0     C 1836  13.059   6.093   3.586  0.1554 -0.5907 -0.5518
  755MOL0     O 1837  12.948   6.489   3.523 -0.5407  0.3958 -0.1804
  755MOL0     C 1838  12.678   6.569   3.587  0.1608 -0.0905 -1.0082
  755MOL0     C 1839  12.538   6.590   3.606 -0.3256 -0.1869  0.9661
  755MOL0     N 1840  11.895   6.717   4.043 -0.2041 -0.0417 -0.1153
  755MOL0     N 1841  11.764   6.715   4.063  0.0597 -0.3772 -0.2559
  755MOL0     C 1842  10.708   7.415   3.991 -0.3033  0.2076 -0.3693
  755MOL0     C 1843  10.602   7.471   4.065 -0.0973 -0.1057 -0.0452
  755MOL0     C 1844  10.159   7.474   4.183  0.1568  0.4413 -0.1895
  755MOL0     C 1845  10.166   7.418   4.311  0.4383  0.2749  0.2885
  755MOL0     C 1846  10.061   7.432   4.400  0.2609 -1.0136 -0.4787
  755MOL0     C 1847   9.941   7.496   4.359 -0.6493  0.0906  0.1783
  755MOL0     O 1848   9.835   7.531   4.438 -0.3198 -0.4611 -0.3420
  755MOL0     C 1849   9.846   7.513   4.578  0.4328 -0.7502  0.2025
  755MOL0     C 1850   9.711   7.526   4.642  1.0190 -0.1994 -0.4008
  755MOL0     C 1851   9.632   7.391   4.648 -0.8045  0.2413  0.2899
  755MOL0     C 1852   9.514   7.401   4.740 -0.6085  0.3836 -0.3999
  755MOL0     C 1853   9.430   7.522   4.721 -0.3057  0.0386  0.5042
  755MOL0     C 1854   9.348   7.610   4.706 -0.4904 -0.3897  0.6564
  755MOL0     C 1855   9.921   7.530   4.226 -0.1495  0.4146  0.7086
  755MOL0     C 1856  10.032   7.515   4.136  1.2315  0.1292  0.2550
  755MOL0     C 1857  10.001   7.561   3.989  0.7485 -0.1153 -0.8161
  755MOL0     H 1858  10.413   7.187   4.079 -0.7008  2.5565  4.4924
  755MOL0     H 1859  10.598   7.108   3.920  1.3313 -0.4083 -0.1310
  755MOL0     H 1860  10.943   7.356   3.838  1.7698  3.1498  3.5406
  755MOL0     H 1861  10.940   7.274   4.004 -1.1273 -1.9102 -0.0546
  755MOL0     H 1862  10.968   7.105   3.757  1.1106  0.0292 -0.6298
  755MOL0     H 1863  11.006   7.075   3.933 -1.3441  0.3306 -0.0888
  755MOL0     H 1864  11.221   7.167   3.931  0.2903 -2.1432  0.5875
  755MOL0     H 1865  11.166   7.280   3.795 -0.3445  0.6215  1.3452
  755MOL0     H 1866  11.170   6.993   3.744 -2.9540  0.7695 -0.2598
  755MOL0     H 1867  11.200   7.121   3.623  1.6404 -1.3871 -0.3181
  755MOL0     H 1868  11.408   7.006   3.643  0.5624  1.4190  0.1043
  755MOL0     H 1869  11.423   7.142   3.743  0.6709  0.8424 -1.8264
  755MOL0     H 1870  11.371   7.016   3.959  1.3407  0.3629 -0.1721
  755MOL0     H 1871  11.335   6.878   3.853 -0.2886  0.1213  0.4228
  755MOL0     H 1872  11.600   7.005   3.886 -0.3774 -0.1102 -1.1388
  755MOL0     H 1873  11.555   6.899   3.760 -2.4554  1.3885  0.5599
  755MOL0     H 1874  11.502   6.800   4.028  0.9346  0.6956 -0.5342
  755MOL0     H 1875  11.516   6.712   3.867 -1.6173 -1.0538  1.1513
  755MOL0     H 1876  11.789   6.802   3.749  1.4323 -1.0669 -1.0187
  755MOL0     H 1877  12.068   6.883   3.821 -1.6275  0.5633  0.0995
  755MOL0     H 1878  12.125   6.778   3.943  2.2000  1.4505 -1.2506
  755MOL0     H 1879  12.120   6.582   3.816 -2.5715  0.4121  2.2391
  755MOL0     H 1880  11.992   6.643   3.702  0.6265  0.7510 -0.7671
  755MOL0     H 1881  12.282   6.752   3.705  2.5523 -1.6282 -4.2722
  755MOL0     H 1882  12.159   6.794   3.595 -1.8406  1.1585  0.8644
  755MOL0     H 1883  12.295   6.612   3.499 -1.9419  1.4575 -0.4845
  755MOL0     H 1884  12.163   6.527   3.565 -0.7072  0.5936  1.5590
  755MOL0     H 1885  12.458   6.317   3.785 -0.7587  0.2986  0.5899
  755MOL0     H 1886  12.701   6.262   3.717  1.8806  2.0384  2.0626
  755MOL0     H 1887  13.133   6.417   3.666  0.0024  0.1956 -2.9567
  755MOL0     H 1888  13.324   6.322   3.744  0.5845 -0.1530 -1.6246
  755MOL0     H 1889  13.501   6.190   3.791  0.1490  0.1070  0.4737
  755MOL0     H 1890  13.585   6.035   3.756  0.6299  0.7225  0.3729
  755MOL0     H 1891  13.574   6.048   3.517  1.8537 -0.9442  2.7563
  755MOL0     H 1892  13.501   6.214   3.523 -0.9977 -0.1020  1.4421
  755MOL0     H 1893  13.771   6.154   3.656  0.7045 -0.3182  1.0791
  755MOL0     H 1894  13.756   6.206   3.477  3.1641  3.4519  0.9831
  755MOL0     H 1895  13.658   6.354   3.720  1.7638 -2.7344  1.0319
  755MOL0     H 1896  13.646   6.421   3.557 -1.5887 -0.7309 -0.0396
  755MOL0     H 1897  13.914   6.324   3.694  0.4587  1.2258  1.3500
  755MOL0     H 1898  13.849   6.482   3.730  1.2971  1.5856 -1.3727
  755MOL0     H 1899  13.896   6.579   3.549  0.1044 -0.8845  1.7661
  755MOL0     H 1900  14.027   6.465   3.557 -0.2478 -1.7658  1.6768
  755MOL0     H 1901  13.791   6.445   3.365 -0.5394  0.1386  0.5201
  755MOL0     H 1902  13.908   6.311   3.376  0.4536 -0.0389  1.7867
  755MOL0     H 1903  13.944   6.502   3.204 -0.9580 -3.3767 -0.1601
  755MOL0     H 1904  14.012   6.588   3.338  1.1927  0.1145  1.4934
  755MOL0     H 1905  13.189   5.930   3.581 -0.6537 -0.6400 -0.0105
  755MOL0     H 1906  12.986   6.020   3.554  0.1062 -1.4409  1.3735
  755MOL0     H 1907  12.740   6.641   3.535 -1.2123  1.0440 -1.1519
  755MOL0     H 1908  12.496   6.684   3.570 -2.3732 -0.7443  1.7126
  755MOL0     H 1909  10.791   7.468   3.946  0.7852 -0.1568  1.1248
  755MOL0     H 1910  10.615   7.569   4.110  1.5861 -2.0449  4.3464
  755MOL0     H 1911  10.257   7.380   4.357 -0.4525  0.7134  2.5404
  755MOL0     H 1912  10.072   7.380   4.494  0.9239 -4.0603 -2.1074
  755MOL0     H 1913   9.928   7.580   4.607 -1.0203  1.1587  0.0940
  755MOL0     H 1914   9.886   7.414   4.600  2.1308 -1.0205 -3.2313
  755MOL0     H 1915   9.653   7.588   4.572  3.8343 -0.5805 -3.3204
  755MOL0     H 1916   9.711   7.574   4.740 -2.0611  0.2866 -0.5112
  755MOL0     H 1917   9.700   7.309   4.673 -1.4483 -0.0466  1.1213
  755MOL0     H 1918   9.588   7.368   4.551  1.4790 -0.5541 -0.6381
  755MOL0     H 1919   9.451   7.315   4.717 -1.3195  1.2252 -1.7120
  755MOL0     H 1920   9.552   7.395   4.843 -1.3745  0.1092 -0.1232
  755MOL0     H 1921   9.285   7.696   4.695 -0.0199  0.0295  1.1751
  755MOL0     H 1922   9.826   7.572   4.196 -0.7894 -1.4008  0.0280
  755MOL0     H 1923   9.998   7.476   3.919  0.9842 -1.9900  1.3457
  755MOL0     H 1924   9.907   7.617   3.985  0.4486 -0.5419  0.0249
  755MOL0     H 1925  10.083   7.631   3.969 -0.7861  2.4505  1.2756
  756MOL0     O 1926   7.312   6.304  11.096  0.1724  0.1225 -0.4284
  756MOL0     C 1927   7.293   6.375  10.994  0.1837  0.8394 -0.0951
  756MOL0     O 1928   7.379   6.473  10.949 -0.0478  0.1594  0.3358
  756MOL0     C 1929   7.498   6.487  11.009 -0.4133  0.6790 -0.3757
  756MOL0     C 1930   7.500   6.562  11.122 -0.4243  0.4516  0.1371
  756MOL0     C 1931   7.623   6.587  11.187 -0.5537  0.2041  0.6693
  756MOL0     C 1932   7.736   6.528  11.143 -0.1376  0.4234 -0.5285
  756MOL0     O 1933   7.845   6.560  11.221  0.1250  0.3369 -0.3545
  756MOL0     C 1934   7.980   6.555  11.177  0.0877 -0.1742 -0.2946
  756MOL0     C 1935   8.008   6.650  11.065 -0.3038 -0.2453  0.3486
  756MOL0     C 1936   8.001   6.791  11.104 -0.4890  0.2873  1.0478
  756MOL0     C 1937   8.028   6.881  10.987  0.0993 -0.1884  0.2840
  756MOL0     C 1938   8.037   7.025  11.032 -0.0269 -0.3394  0.6546
  756MOL0     C 1939   8.166   7.053  11.109  0.2036 -0.3940  0.4729
  756MOL0     C 1940   8.198   7.204  11.093  0.1936  0.2166 -0.1964
  756MOL0     C 1941   8.315   7.253  11.161 -0.6461  0.3224  0.6026
  756MOL0     N 1942   8.445   7.195  11.123  0.5331  0.1571  0.5915
  756MOL0     C 1943   8.511   7.083  11.169  0.1685 -0.6937  0.2170
  756MOL0     C 1944   8.625   7.079  11.105 -1.1394 -0.1858 -0.6518
  756MOL0     C 1945   8.730   6.974  11.106 -0.5196 -0.7901 -0.0286
  756MOL0     C 1946   8.876   7.030  11.122  0.3768  0.2787 -0.2365
  756MOL0     C 1947   8.895   7.081  11.259 -0.7580  0.5317 -0.6148
  756MOL0     C 1948   9.035   7.136  11.284  0.2540  0.5417  0.1035
  756MOL0     O 1949   9.130   7.028  11.271 -0.2736 -0.0632 -0.9518
  756MOL0     C 1950   9.265   7.049  11.298  0.6899 -0.0209 -0.6390
  756MOL0     C 1951   9.331   7.152  11.371 -0.3946  0.5968  0.3388
  756MOL0     C 1952   9.467   7.144  11.391  0.2676 -0.8834 -0.8248
  756MOL0     C 1953   9.543   7.037  11.345 -0.0929  0.5866  0.3733
  756MOL0     C 1954   9.685   7.027  11.373 -0.5899 -0.8454  0.0934
  756MOL0     O 1955   9.746   7.123  11.444  0.1983  0.3384 -0.9413
  756MOL0     C 1956   9.871   7.107  11.489 -0.3676 -0.0338  0.7017
  756MOL0     C 1957   9.895   7.014  11.594 -0.5380 -0.1931  0.3183
  756MOL0     C 1958  10.021   6.995  11.637  0.0715  0.6530 -0.7968
  756MOL0     C 1959  10.122   7.077  11.604 -0.5358 -0.0580  0.2515
  756MOL0     O 1960  10.241   7.046  11.658 -0.0121 -0.2154  0.4042
  756MOL0     C 1961  10.333   7.160  11.682  0.3490 -0.0737  0.4707
  756MOL0     C 1962  10.449   7.140  11.779 -0.2921  0.3066 -0.7206
  756MOL0     C 1963  10.519   7.276  11.814 -0.1978  0.0151  0.1219
  756MOL0     C 1964  10.657   7.251  11.868 -0.6554  0.3337  0.9217
  756MOL0     C 1965  10.711   7.367  11.956 -0.0241  0.7439 -0.1891
  756MOL0     C 1966  10.843   7.305  12.018 -0.5558  0.5745  0.2854
  756MOL0     C 1967  10.912   7.397  12.121  0.3254  0.3764  0.0401
  756MOL0     C 1968  11.036   7.344  12.184 -0.3998  0.4861 -0.3763
  756MOL0    Cl 1969  11.008   7.178  12.259  0.1551 -0.3481  0.0633
  756MOL0     C 1970  10.099   7.180  11.503  0.4061 -0.1555 -0.3399
  756MOL0     C 1971   9.970   7.202  11.456 -0.6358  1.0317  0.4825
  756MOL0     O 1972   9.739   6.931  11.329 -0.2938  0.3626 -0.2201
  756MOL0     C 1973   9.474   6.935  11.279 -0.4859 -0.5919 -1.0194
  756MOL0     C 1974   9.344   6.940  11.261  0.5219 -0.1913  0.2544
  756MOL0     N 1975   8.622   7.182  11.015 -0.3629  0.9025  0.2177
  756MOL0     N 1976   8.512   7.253  11.020 -0.2518  0.1505  0.7153
  756MOL0     C 1977   7.734   6.433  11.043  0.9020 -0.3257  0.2142
  756MOL0     C 1978   7.615   6.423  10.976  0.1392 -0.0098 -0.1439
  756MOL0     C 1979   7.172   6.345  10.919  0.6095  1.2217  0.2866
  756MOL0     C 1980   7.069   6.438  10.926  0.7509 -0.4413  0.0103
  756MOL0     C 1981   6.955   6.411  10.856 -0.2692 -0.8330  0.3673
  756MOL0     C 1982   6.924   6.292  10.795  0.6738 -0.6660 -0.3474
  756MOL0     O 1983   6.803   6.281  10.728  0.6846  0.0240 -0.1016
  756MOL0     C 1984   6.803   6.191  10.623  0.5405 -0.6896  0.5130
  756MOL0     C 1985   6.674   6.213  10.542  0.2509 -0.5127 -0.0558
  756MOL0     C 1986   6.546   6.224  10.626 -0.5704 -0.4732 -0.3443
  756MOL0     C 1987   6.418   6.223  10.545 -0.4444 -0.0541 -0.6944
  756MOL0     C 1988   6.394   6.091  10.483 -0.3058  0.3513 -0.3254
  756MOL0     C 1989   6.375   5.977  10.442 -1.5554  0.0486  0.0577
  756MOL0     C 1990   7.021   6.193  10.811 -0.2023  0.5151 -0.2988
  756MOL0     C 1991   7.148   6.219  10.864  0.3027 -0.1543  0.5214
  756MOL0     C 1992   7.245   6.113  10.859 -0.2494  0.1408  0.4728
  756MOL0     H 1993   7.409   6.605  11.163 -0.1302 -0.7677  2.2451
  756MOL0     H 1994   7.631   6.665  11.263 -1.5514  0.6498  0.3392
  756MOL0     H 1995   8.032   6.589  11.267  0.4675 -1.9217  0.1658
  756MOL0     H 1996   8.021   6.457  11.155  2.3664  0.2850  1.5124
  756MOL0     H 1997   7.940   6.641  10.979 -0.6603  2.7454  0.1985
  756MOL0     H 1998   8.107   6.632  11.022 -0.5912 -3.9321  0.9115
  756MOL0     H 1999   8.081   6.811  11.175  0.6714 -1.7694  0.4311
  756MOL0     H 2000   7.908   6.823  11.151  1.1441  1.2953  3.8531
  756MOL0     H 2001   8.118   6.853  10.931  0.4437  0.8333  0.3170
  756MOL0     H 2002   7.945   6.872  10.917 -0.3398  2.4234  0.3861
  756MOL0     H 2003   8.042   7.086  10.942 -0.3198 -1.8280 -0.4161
  756MOL0     H 2004   7.948   7.050  11.090 -2.9327 -1.2753 -3.0792
  756MOL0     H 2005   8.158   7.029  11.216 -2.1522 -0.1393  0.4034
  756MOL0     H 2006   8.239   6.984  11.064  0.4136 -1.1761  1.9211
  756MOL0     H 2007   8.112   7.267  11.116  0.5084  1.7098 -2.6191
  756MOL0     H 2008   8.207   7.225  10.985  1.4497 -2.4522 -0.6840
  756MOL0     H 2009   8.322   7.360  11.135  3.0498  0.5886  2.0397
  756MOL0     H 2010   8.310   7.252  11.270 -0.3629 -0.4698  0.6163
  756MOL0     H 2011   8.463   7.009  11.233 -0.7087 -0.7097 -0.4379
  756MOL0     H 2012   8.714   6.899  11.184 -1.3534  1.0803  1.7144
  756MOL0     H 2013   8.735   6.925  11.009  0.2693  1.9041 -1.4396
  756MOL0     H 2014   8.950   6.953  11.096  1.5689  1.8308 -1.6930
  756MOL0     H 2015   8.877   7.109  11.047 -2.0328 -1.4098 -2.2290
  756MOL0     H 2016   8.886   6.997  11.328 -4.1595  0.6264 -0.7494
  756MOL0     H 2017   8.828   7.162  11.289 -0.4915 -0.2837  2.5036
  756MOL0     H 2018   9.038   7.184  11.382  0.1291  1.6424 -0.4126
  756MOL0     H 2019   9.061   7.217  11.214 -0.8996  0.1883 -0.7654
  756MOL0     H 2020   9.277   7.232  11.420  1.1515  2.1157 -0.3383
  756MOL0     H 2021   9.519   7.225  11.440 -0.4840  0.1545 -1.7059
  756MOL0     H 2022   9.804   6.964  11.628 -0.7314  0.1699  0.3367
  756MOL0     H 2023  10.035   6.906  11.698  2.9739  1.6625  0.1740
  756MOL0     H 2024  10.376   7.186  11.584 -1.9855  0.7156 -0.4212
  756MOL0     H 2025  10.276   7.248  11.711  1.3293  0.3582  1.1273
  756MOL0     H 2026  10.423   7.094  11.875  2.9931  0.2688  0.2956
  756MOL0     H 2027  10.515   7.073  11.722  0.6822  1.2720 -0.7722
  756MOL0     H 2028  10.520   7.336  11.722 -3.0448  5.6388  3.2369
  756MOL0     H 2029  10.466   7.336  11.888 -1.0717 -0.4934 -0.0875
  756MOL0     H 2030  10.725   7.218  11.788 -2.0552 -1.6088  0.4580
  756MOL0     H 2031  10.651   7.165  11.935 -0.0769 -0.8226 -0.4411
  756MOL0     H 2032  10.639   7.396  12.033 -2.7886  0.8722 -2.6674
  756MOL0     H 2033  10.727   7.461  11.903 -0.7657  1.8350  1.4298
  756MOL0     H 2034  10.825   7.207  12.063  1.7171  0.2634  0.6000
  756MOL0     H 2035  10.907   7.284  11.932 -1.4982  2.0515 -0.8278
  756MOL0     H 2036  10.832   7.419  12.193 -0.8519 -1.8553 -0.4654
  756MOL0     H 2037  10.950   7.481  12.062  4.7577 -2.3737 -1.4399
  756MOL0     H 2038  11.115   7.342  12.107  1.1430  1.1769  1.1260
  756MOL0     H 2039  11.086   7.389  12.270  1.6775 -3.4541  0.7641
  756MOL0     H 2040  10.170   7.258  11.480  0.2962 -0.7024 -2.8182
  756MOL0     H 2041   9.942   7.276  11.381 -1.7245 -1.4637 -1.7186
  756MOL0     H 2042   9.517   6.839  11.251 -0.7282 -1.0748  0.1797
  756MOL0     H 2043   9.295   6.856  11.213 -0.5399 -0.5503  1.8906
  756MOL0     H 2044   7.830   6.394  11.010  0.2304 -0.2542 -2.0488
  756MOL0     H 2045   7.614   6.348  10.898 -1.4383 -0.9858  0.7573
  756MOL0     H 2046   7.087   6.537  10.967  0.5399  1.5242 -4.1038
  756MOL0     H 2047   6.883   6.491  10.837  2.8285  1.4518 -3.5070
  756MOL0     H 2048   6.806   6.091  10.667 -0.1572 -0.7019  0.5582
  756MOL0     H 2049   6.889   6.220  10.563  0.1522  1.2099  0.8118
  756MOL0     H 2050   6.662   6.133  10.470  1.7611 -1.1614  0.3684
  756MOL0     H 2051   6.701   6.306  10.491  2.2617 -0.5045  0.9379
  756MOL0     H 2052   6.548   6.320  10.679 -0.8600 -0.6010 -0.0971
  756MOL0     H 2053   6.554   6.140  10.696  2.3722 -0.7928 -0.9237
  756MOL0     H 2054   6.333   6.243  10.612  1.1414 -0.0873  1.4543
  756MOL0     H 2055   6.417   6.304  10.472 -4.7936  1.9834  1.2907
  756MOL0     H 2056   6.371   5.882  10.392 -0.7438  1.5751 -3.1728
  756MOL0     H 2057   6.999   6.094  10.774 -0.3119  0.7436 -0.8511
  756MOL0     H 2058   7.336   6.132  10.917 -0.0861 -0.4522  0.4064
  756MOL0     H 2059   7.203   6.020  10.898  2.4166 -1.0415  0.7673
  756MOL0     H 2060   7.278   6.102  10.755  0.7669 -4.8865  1.0723
  757MOL0     O 2061   8.803  11.033   0.373  0.2883  0.2452 -0.1562
  757MOL0     C 2062   8.760  10.947   0.444 -0.6548  0.7370 -0.2345
  757MOL0     O 2063   8.815  10.907   0.562 -0.4490 -1.0700 -0.4913
  757MOL0     C 2064   8.936  10.952   0.591  0.0682 -1.3099  0.2006
  757MOL0     C 2065   8.943  11.093   0.626  0.4750  0.9487  0.1495
  757MOL0     C 2066   9.060  11.144   0.667 -0.4480  0.0359  0.3379
  757MOL0     C 2067   9.173  11.067   0.687 -0.5330 -0.8124  0.4400
  757MOL0     O 2068   9.288  11.130   0.733 -0.0224 -0.2750  0.2706
  757MOL0     C 2069   9.404  11.053   0.757 -0.1127  0.0674  0.6009
  757MOL0     C 2070   9.520  11.126   0.832 -0.0060  0.0952  0.7459
  757MOL0     C 2071   9.626  11.028   0.888 -0.3819  0.2217  0.3685
  757MOL0     C 2072   9.732  11.092   0.978 -0.1636 -0.3135 -0.0197
  757MOL0     C 2073   9.853  11.139   0.904  0.5506  0.0132  0.5385
  757MOL0     C 2074   9.957  11.183   0.998 -0.0994 -0.1734 -0.0954
  757MOL0     C 2075  10.083  11.224   0.927 -0.7021 -0.0396  0.6892
  757MOL0     C 2076  10.060  11.336   0.830 -0.3874 -0.2590 -0.5007
  757MOL0     N 2077  10.154  11.441   0.830 -1.1671  0.5217 -0.7094
  757MOL0     C 2078  10.291  11.434   0.872  0.9793 -0.7519 -0.2362
  757MOL0     C 2079  10.330  11.565   0.880  0.6193 -0.4356 -0.3291
  757MOL0     C 2080  10.478  11.608   0.896  0.8482 -0.0855  0.5932
  757MOL0     C 2081  10.482  11.751   0.919 -0.5184  0.4797 -0.9950
  757MOL0     C 2082  10.464  11.778   1.068 -0.6657 -0.2634 -0.5090
  757MOL0     C 2083  10.460  11.931   1.104 -0.7062  0.1298  0.1014
  757MOL0     O 2084  10.583  12.000   1.083 -0.2880 -0.5598 -0.1090
  757MOL0     C 2085  10.695  11.969   1.154 -0.8436  0.6352 -0.0911
  757MOL0     C 2086  10.708  11.888   1.271 -0.2154  0.0865 -0.2780
  757MOL0     C 2087  10.842  11.875   1.328 -0.1447  0.2930 -0.1119
  757MOL0     C 2088  10.953  11.919   1.271 -1.4613 -0.0375  0.1017
  757MOL0     C 2089  11.084  11.880   1.325 -0.3495  0.3324  1.0590
  757MOL0     O 2090  11.195  11.945   1.271  1.2363 -0.0519  0.3764
  757MOL0     C 2091  11.317  11.951   1.329 -0.7917  0.9237 -0.4130
  757MOL0     C 2092  11.356  11.920   1.466 -0.3985  0.6854  1.0013
  757MOL0     C 2093  11.482  11.932   1.504 -0.8650 -0.0096 -0.1140
  757MOL0     C 2094  11.575  11.997   1.424 -1.4463  0.7223  0.8632
  757MOL0     O 2095  11.701  12.013   1.480 -0.7026 -0.3331 -0.2320
  757MOL0     C 2096  11.798  12.087   1.403 -0.0222  0.5660  0.0520
  757MOL0     C 2097  11.912  12.118   1.496  0.4959  0.6241 -0.1848
  757MOL0     C 2098  12.022  12.013   1.493 -0.5320 -0.8711  0.1527
  757MOL0     C 2099  12.121  12.024   1.605  1.2175  0.2925  0.2037
  757MOL0     C 2100  12.216  11.900   1.605  0.3111 -0.7768  0.4524
  757MOL0     C 2101  12.341  11.929   1.685 -0.1160 -0.7982  0.3923
  757MOL0     C 2102  12.320  11.960   1.836  0.3679 -1.3071  0.3637
  757MOL0     C 2103  12.286  11.831   1.911 -0.6425  0.2796  0.1828
  757MOL0    Cl 2104  12.283  11.834   2.091 -0.0938  0.0247  0.2584
  757MOL0     C 2105  11.537  12.033   1.293 -0.1356 -0.1287 -0.5471
  757MOL0     C 2106  11.411  12.002   1.248 -0.4302 -1.4591  0.1589
  757MOL0     O 2107  11.086  11.795   1.418  0.3258 -0.1020 -0.5885
  757MOL0     C 2108  10.942  12.013   1.162  0.3401 -0.5801  0.1490
  757MOL0     C 2109  10.813  12.030   1.107  0.6352  0.6801 -0.0708
  757MOL0     N 2110  10.217  11.643   0.859  0.5251 -0.4942  0.2197
  757MOL0     N 2111  10.118  11.573   0.810  0.4519  0.1220 -0.0935
  757MOL0     C 2112   9.171  10.928   0.644 -0.7497 -0.2141  0.2278
  757MOL0     C 2113   9.051  10.879   0.595 -0.1303  0.1783  1.0290
  757MOL0     C 2114   8.656  10.865   0.380 -0.3734 -0.2804 -1.1534
  757MOL0     C 2115   8.625  10.740   0.436  0.3804 -0.5832 -0.0418
  757MOL0     C 2116   8.525  10.651   0.392 -0.4244  0.0160  0.1631
  757MOL0     C 2117   8.456  10.689   0.276  0.0098 -1.1975 -0.3865
  757MOL0     O 2118   8.356  10.616   0.216  0.7688  0.0051 -0.1462
  757MOL0     C 2119   8.319  10.496   0.282 -0.1230 -0.7362  0.6157
  757MOL0     C 2120   8.203  10.433   0.210  0.5745  0.2189  0.5257
  757MOL0     C 2121   8.077  10.518   0.235 -0.4325 -0.5860 -0.0779
  757MOL0     C 2122   7.957  10.435   0.183 -0.2047 -0.4110 -0.0396
  757MOL0     C 2123   7.851  10.522   0.138  0.7553  0.4174 -0.0901
  757MOL0     C 2124   7.751  10.583   0.092  0.7331 -0.2323  0.0238
  757MOL0     C 2125   8.485  10.811   0.219  0.3452  0.3631 -0.3006
  757MOL0     C 2126   8.585  10.900   0.269  0.2643  1.4226  0.5301
  757MOL0     C 2127   8.605  11.010   0.168  0.0876  0.2236 -0.6630
  757MOL0     H 2128   8.860  11.161   0.610  0.5949  0.6468 -2.1433
  757MOL0     H 2129   9.076  11.245   0.703  2.8554 -0.4308  0.4765
  757MOL0     H 2130   9.389  10.958   0.809  0.1516  0.3724  1.2493
  757MOL0     H 2131   9.439  11.031   0.656  0.4921 -1.6676  1.1517
  757MOL0     H 2132   9.464  11.172   0.914 -3.0143 -0.3805 -0.8973
  757MOL0     H 2133   9.566  11.206   0.774  0.5968 -0.2308  0.7650
  757MOL0     H 2134   9.671  10.978   0.801 -0.7338  0.1334  0.2348
  757MOL0     H 2135   9.580  10.946   0.943  0.5514 -2.6021 -2.6959
  757MOL0     H 2136   9.688  11.170   1.041 -3.7109 -2.1796  0.0128
  757MOL0     H 2137   9.766  11.014   1.047  0.4049 -2.6524 -2.7615
  757MOL0     H 2138   9.876  11.050   0.844 -2.2829 -0.1282 -0.4448
  757MOL0     H 2139   9.832  11.214   0.828  1.4155  2.9166  2.9690
  757MOL0     H 2140   9.925  11.265   1.063 -0.4965  0.8384 -1.5343
  757MOL0     H 2141   9.975  11.097   1.064  1.2711  1.0007  1.1381
  757MOL0     H 2142  10.124  11.144   0.865 -0.3011  1.4989 -1.1280
  757MOL0     H 2143  10.159  11.248   1.002 -0.0918 -0.8014  0.3302
  757MOL0     H 2144  10.055  11.303   0.726 -1.9435  0.9456 -0.8486
  757MOL0     H 2145   9.958  11.372   0.847 -0.3806  0.0658 -1.1369
  757MOL0     H 2146  10.344  11.340   0.887 -1.3775 -2.0314  0.5776
  757MOL0     H 2147  10.528  11.551   0.974  0.3422  0.4212  1.3059
  757MOL0     H 2148  10.533  11.575   0.807  0.4682  0.7723  0.0233
  757MOL0     H 2149  10.576  11.791   0.879  0.1358  0.6118  0.6135
  757MOL0     H 2150  10.406  11.801   0.858 -2.4238 -1.9334 -0.7674
  757MOL0     H 2151  10.545  11.724   1.116 -1.3554 -0.8980 -0.0352
  757MOL0     H 2152  10.375  11.725   1.103 -0.5485 -1.3583 -1.7764
  757MOL0     H 2153  10.429  11.943   1.208 -0.2483 -2.2494  0.5867
  757MOL0     H 2154  10.389  11.982   1.039 -1.4509 -0.8694  0.1068
  757MOL0     H 2155  10.622  11.834   1.310  1.9485 -2.0193  1.9627
  757MOL0     H 2156  10.852  11.811   1.415  1.0431 -0.9806 -1.1260
  757MOL0     H 2157  11.279  11.899   1.539 -1.4482 -1.1525 -0.5527
  757MOL0     H 2158  11.507  11.922   1.609 -0.0984 -0.1850 -0.3003
  757MOL0     H 2159  11.835  12.019   1.325  1.6556  0.1877  1.1126
  757MOL0     H 2160  11.753  12.181   1.372  0.1193  0.3441 -0.8397
  757MOL0     H 2161  11.957  12.212   1.462 -0.6332  1.9135  1.6806
  757MOL0     H 2162  11.880  12.148   1.596 -0.4903  0.2378 -0.3802
  757MOL0     H 2163  11.988  11.909   1.495 -1.8788 -0.4540  0.0153
  757MOL0     H 2164  12.072  12.039   1.399 -1.4225  3.9693  0.7450
  757MOL0     H 2165  12.076  12.041   1.703  1.6867  1.7898  0.1789
  757MOL0     H 2166  12.179  12.116   1.597  2.6282 -0.6439 -1.0283
  757MOL0     H 2167  12.249  11.886   1.502 -1.7914  0.8599 -0.5484
  757MOL0     H 2168  12.166  11.806   1.629 -0.6435 -0.1974  0.8344
  757MOL0     H 2169  12.417  11.851   1.672  0.8877 -0.1179  1.9740
  757MOL0     H 2170  12.396  12.013   1.642 -1.2716 -0.8475 -1.2744
  757MOL0     H 2171  12.246  12.037   1.856  2.3141  0.6753  0.2958
  757MOL0     H 2172  12.414  12.009   1.863  0.4114 -0.3384 -1.4119
  757MOL0     H 2173  12.187  11.800   1.874  0.0510 -2.8497  0.7275
  757MOL0     H 2174  12.363  11.756   1.893 -0.0803  0.8719  0.1096
  757MOL0     H 2175  11.611  12.085   1.233  1.6140 -1.9843 -0.0856
  757MOL0     H 2176  11.386  12.035   1.147 -2.2903 -0.6423  0.8428
  757MOL0     H 2177  11.028  12.066   1.122  0.0253 -0.7421 -0.7752
  757MOL0     H 2178  10.804  12.084   1.014  2.7624  0.8352 -0.2329
  757MOL0     H 2179   9.264  10.873   0.642  0.0581  1.0648  1.3475
  757MOL0     H 2180   9.032  10.777   0.561  2.0530 -0.4612  1.5301
  757MOL0     H 2181   8.675  10.710   0.528 -0.6374  2.2890  1.5981
  757MOL0     H 2182   8.508  10.553   0.435  0.1682 -0.6602 -1.0709
  757MOL0     H 2183   8.289  10.521   0.384  3.1906  1.6273  1.1836
  757MOL0     H 2184   8.399  10.421   0.276  1.7722  1.1399  1.2587
  757MOL0     H 2185   8.198  10.329   0.243  2.9207 -0.1756 -0.1698
  757MOL0     H 2186   8.224  10.415   0.104 -0.1837  0.3912  0.3358
  757MOL0     H 2187   8.084  10.618   0.191 -0.6641 -1.2576 -1.7036
  757MOL0     H 2188   8.063  10.528   0.343 -0.7250 -2.1719  0.0505
  757MOL0     H 2189   7.993  10.364   0.109  0.6071  2.4982 -2.6834
  757MOL0     H 2190   7.927  10.379   0.272  0.2616 -1.1562 -0.3426
  757MOL0     H 2191   7.663  10.625   0.047 -0.4406 -1.4338  1.0791
  757MOL0     H 2192   8.443  10.844   0.125  0.7214  0.8986 -0.2860
  757MOL0     H 2193   8.621  11.104   0.223 -1.3794  1.1234 -1.6906
  757MOL0     H 2194   8.693  10.993   0.107  0.9711 -0.0824  0.6513
  757MOL0     H 2195   8.518  11.026   0.104 -2.9739 -2.7161  2.3372
  758MOL0     O 2196   2.081   9.227   2.560  0.0920  0.1364  0.3657
  758MOL0     C 2197   2.015   9.221   2.456 -0.5750  0.1161  0.2011
  758MOL0     O 2198   2.070   9.242   2.330  0.0768  0.2235  0.1606
  758MOL0     C 2199   2.203   9.269   2.309  0.0687 -0.4023  0.4976
  758MOL0     C 2200   2.298   9.325   2.402 -0.2433 -0.8855  0.3118
  758MOL0     C 2201   2.421   9.378   2.365  0.7875 -0.1855  0.4017
  758MOL0     C 2202   2.463   9.364   2.229 -0.8991  0.2967  1.1691
  758MOL0     O 2203   2.578   9.418   2.181 -0.0617  0.2342  0.0911
  758MOL0     C 2204   2.692   9.439   2.267  0.9596  0.1014  0.1190
  758MOL0     C 2205   2.807   9.471   2.178  1.0862  0.9470 -0.5180
  758MOL0     C 2206   2.930   9.475   2.257 -0.1663 -0.9564 -0.3697
  758MOL0     C 2207   3.044   9.503   2.150  0.6553 -0.4647 -0.5938
  758MOL0     C 2208   3.182   9.519   2.229  1.6279 -0.1589 -0.4509
  758MOL0     C 2209   3.289   9.583   2.148  1.0053 -0.0210  0.4299
  758MOL0     C 2210   3.413   9.633   2.221 -0.9423  0.2796  0.3836
  758MOL0     C 2211   3.493   9.517   2.271 -0.3803 -0.0250 -0.7667
  758MOL0     N 2212   3.617   9.556   2.333  0.1803  0.8356 -0.3721
  758MOL0     C 2213   3.631   9.611   2.449  0.9838  0.4106 -0.2896
  758MOL0     C 2214   3.764   9.611   2.474 -0.1762 -0.3697  0.1449
  758MOL0     C 2215   3.850   9.673   2.576 -0.5429 -0.9327  0.9664
  758MOL0     C 2216   3.863   9.592   2.701 -0.9162  0.7193  0.2519
  758MOL0     C 2217   3.962   9.645   2.800 -0.6340  0.6561  0.2552
  758MOL0     C 2218   4.114   9.634   2.750  0.1744 -0.2310  0.7289
  758MOL0     O 2219   4.198   9.671   2.861 -0.4357 -0.4302 -0.5332
  758MOL0     C 2220   4.329   9.636   2.871  0.2553 -0.1450 -0.0783
  758MOL0     C 2221   4.389   9.657   2.992 -0.1999 -0.1057 -0.3603
  758MOL0     C 2222   4.522   9.625   3.012 -0.2971  0.4459  0.7188
  758MOL0     C 2223   4.600   9.568   2.906  0.0726  0.8770 -0.6247
  758MOL0     C 2224   4.745   9.526   2.917  0.0555  0.0419  0.5362
  758MOL0     O 2225   4.814   9.488   2.807  0.5617 -0.3406 -0.0396
  758MOL0     C 2226   4.944   9.451   2.831  0.2680  0.0889  1.0018
  758MOL0     C 2227   4.970   9.313   2.855  0.4085 -0.2314 -0.3085
  758MOL0     C 2228   5.106   9.277   2.881  0.2308 -0.0499 -0.1141
  758MOL0     C 2229   5.210   9.371   2.889 -0.0128  0.2043 -0.0847
  758MOL0     O 2230   5.338   9.322   2.918 -0.4756 -0.6047 -0.0963
  758MOL0     C 2231   5.447   9.415   2.907 -0.0884  0.1102 -0.1159
  758MOL0     C 2232   5.583   9.345   2.947  0.9823  0.0999 -0.3776
  758MOL0     C 2233   5.651   9.261   2.837 -0.3353  0.1090  0.3464
  758MOL0     C 2234   5.759   9.343   2.754  0.5010  0.6404 -0.8693
  758MOL0     C 2235   5.888   9.357   2.845  0.4009 -0.5256  0.8004
  758MOL0     C 2236   5.971   9.471   2.784  0.1064 -0.0496  0.3997
  758MOL0     C 2237   6.075   9.513   2.891  0.9560  0.5279 -0.1960
  758MOL0     C 2238   6.176   9.617   2.857  0.2591 -0.2586  0.2472
  758MOL0    Cl 2239   6.115   9.789   2.848 -0.2366  0.3881 -0.5120
  758MOL0     C 2240   5.183   9.510   2.870 -0.1910 -0.4595 -0.1781
  758MOL0     C 2241   5.053   9.540   2.831  0.9810  0.2954  0.0214
  758MOL0     O 2242   4.788   9.527   3.030 -1.0030  0.1439 -0.1135
  758MOL0     C 2243   4.541   9.556   2.782  0.0192  1.4472  0.5265
  758MOL0     C 2244   4.402   9.589   2.764 -0.6304  0.0284  0.0289
  758MOL0     N 2245   3.829   9.557   2.363 -0.1399 -0.7327 -0.3131
  758MOL0     N 2246   3.738   9.527   2.278  0.1725 -1.0104  1.1715
  758MOL0     C 2247   2.376   9.303   2.135  0.3971 -0.1114  0.2596
  758MOL0     C 2248   2.246   9.264   2.178  0.0036 -0.0411 -0.4074
  758MOL0     C 2249   1.874   9.173   2.460  0.8444  0.7503 -0.3355
  758MOL0     C 2250   1.801   9.191   2.578  0.1580 -0.7436 -0.4945
  758MOL0     C 2251   1.666   9.166   2.586 -0.4599  0.0898 -0.1463
  758MOL0     C 2252   1.590   9.122   2.483  0.2262  0.2675 -0.0192
  758MOL0     O 2253   1.458   9.094   2.483 -0.1478 -0.2189 -0.9979
  758MOL0     C 2254   1.386   9.055   2.601 -0.0984 -0.1678 -0.2831
  758MOL0     C 2255   1.306   9.179   2.661  0.4775 -0.2917 -0.6227
  758MOL0     C 2256   1.207   9.138   2.774  0.6938 -0.2845  0.2622
  758MOL0     C 2257   1.129   9.258   2.818 -1.0705  0.5053  0.4238
  758MOL0     C 2258   1.012   9.215   2.898 -0.2494 -0.2399  1.6415
  758MOL0     C 2259   0.923   9.168   2.962  0.7302 -0.4058  0.5572
  758MOL0     C 2260   1.650   9.114   2.364 -0.3196 -0.1954  0.1793
  758MOL0     C 2261   1.787   9.133   2.344  1.1645  0.0768 -0.9716
  758MOL0     C 2262   1.840   9.128   2.201 -0.2491 -0.2008  0.4968
  758MOL0     H 2263   2.268   9.363   2.500 -0.1791 -3.9163  1.6196
  758MOL0     H 2264   2.482   9.429   2.439 -2.6081  0.4983  3.0129
  758MOL0     H 2265   2.671   9.520   2.337 -2.6068 -2.5239  2.4590
  758MOL0     H 2266   2.727   9.353   2.323 -0.6324 -0.0639  0.9281
  758MOL0     H 2267   2.800   9.560   2.115  0.0117  0.6687 -0.8200
  758MOL0     H 2268   2.815   9.389   2.105  0.0625  0.6763 -0.3461
  758MOL0     H 2269   2.954   9.387   2.317  1.9827  0.4154  0.9073
  758MOL0     H 2270   2.927   9.561   2.325  1.3657 -0.6395 -0.6643
  758MOL0     H 2271   3.047   9.418   2.082 -0.3222  1.3568 -3.0192
  758MOL0     H 2272   3.028   9.593   2.090  1.6522  0.9622  1.1781
  758MOL0     H 2273   3.156   9.591   2.307 -0.8652 -0.9892 -0.4204
  758MOL0     H 2274   3.210   9.420   2.268  0.1656 -1.2415 -2.0213
  758MOL0     H 2275   3.325   9.505   2.080  0.4440  2.1742 -2.6504
  758MOL0     H 2276   3.242   9.663   2.090 -2.0194 -2.4428 -0.7242
  758MOL0     H 2277   3.389   9.707   2.297  0.3124  4.7566 -3.1279
  758MOL0     H 2278   3.485   9.679   2.152  0.2884 -3.3279 -0.9729
  758MOL0     H 2279   3.442   9.464   2.352  2.3772  0.5928  1.5328
  758MOL0     H 2280   3.514   9.442   2.195 -0.8342 -0.4310 -0.4958
  758MOL0     H 2281   3.554   9.633   2.523  0.3258 -0.1537 -0.7878
  758MOL0     H 2282   3.951   9.662   2.535 -1.2523 -1.0017 -0.8337
  758MOL0     H 2283   3.835   9.782   2.580 -0.4365 -0.8161 -0.9168
  758MOL0     H 2284   3.760   9.581   2.738 -1.5916  0.3877 -1.6384
  758MOL0     H 2285   3.892   9.489   2.677 -0.8210  1.0369 -1.0620
  758MOL0     H 2286   3.954   9.575   2.884 -2.6952 -0.3914 -0.7286
  758MOL0     H 2287   3.947   9.752   2.818 -1.8918  0.3758  1.0647
  758MOL0     H 2288   4.116   9.696   2.660 -4.5228 -1.9839 -0.8702
  758MOL0     H 2289   4.124   9.535   2.706 -2.7064 -1.9366  3.4827
  758MOL0     H 2290   4.324   9.700   3.068 -0.8523 -1.1173 -0.3279
  758MOL0     H 2291   4.573   9.638   3.106  0.7953 -2.3210  0.5964
  758MOL0     H 2292   4.897   9.238   2.882 -1.1511  1.9699  2.0968
  758MOL0     H 2293   5.131   9.176   2.912 -0.0703  0.1660  0.8778
  758MOL0     H 2294   5.442   9.434   2.799 -0.0535  0.6253 -0.0267
  758MOL0     H 2295   5.438   9.508   2.963 -0.0012 -1.4007  2.5588
  758MOL0     H 2296   5.639   9.435   2.973 -1.6850  1.2852  1.8293
  758MOL0     H 2297   5.580   9.287   3.040 -0.4514  1.4227  0.4612
  758MOL0     H 2298   5.695   9.168   2.875  0.0978  0.3565  0.4519
  758MOL0     H 2299   5.572   9.226   2.770  0.2131  0.0383 -0.2807
  758MOL0     H 2300   5.711   9.437   2.726 -0.4889 -0.1222 -1.8169
  758MOL0     H 2301   5.786   9.286   2.664 -3.7160  1.7509 -3.0966
  758MOL0     H 2302   5.940   9.263   2.863  3.6335  0.7647 -0.9088
  758MOL0     H 2303   5.854   9.383   2.946  3.0974  2.8462  1.0158
  758MOL0     H 2304   6.009   9.443   2.686 -2.6322 -0.3040 -0.6431
  758MOL0     H 2305   5.907   9.557   2.761  2.7413  2.0608  0.4303
  758MOL0     H 2306   6.129   9.423   2.919  0.5413 -0.0163 -1.1238
  758MOL0     H 2307   6.022   9.535   2.984  0.5760 -0.5762 -0.1475
  758MOL0     H 2308   6.255   9.609   2.933 -0.4938  1.4571  1.2620
  758MOL0     H 2309   6.218   9.601   2.758 -2.7457 -0.2456 -1.1287
  758MOL0     H 2310   5.266   9.580   2.867  0.3280 -1.0980 -2.1582
  758MOL0     H 2311   5.038   9.644   2.806 -1.3036  0.7145  2.6825
  758MOL0     H 2312   4.586   9.518   2.691  0.2666  2.6533  0.1151
  758MOL0     H 2313   4.363   9.578   2.664  5.5157 -0.4947 -2.7710
  758MOL0     H 2314   2.407   9.294   2.031  0.5037  0.3656  0.2459
  758MOL0     H 2315   2.181   9.233   2.096  1.6785  0.4448 -1.9957
  758MOL0     H 2316   1.865   9.225   2.659  0.9987 -2.3685 -0.4243
  758MOL0     H 2317   1.611   9.172   2.679 -2.2344 -2.0297 -0.9843
  758MOL0     H 2318   1.463   9.010   2.665  0.4904 -0.9804 -1.5427
  758MOL0     H 2319   1.324   8.966   2.586 -1.4901  0.8239 -0.6530
  758MOL0     H 2320   1.250   9.229   2.581 -0.8510  0.7923  0.9253
  758MOL0     H 2321   1.372   9.250   2.711  0.0867 -0.0354 -0.4660
  758MOL0     H 2322   1.263   9.090   2.854 -2.0358 -0.8217  1.9782
  758MOL0     H 2323   1.137   9.068   2.728 -2.0778  1.3584  1.7404
  758MOL0     H 2324   1.194   9.335   2.862  1.2586 -1.1983  0.1846
  758MOL0     H 2325   1.085   9.308   2.732  2.2576  2.2272 -0.4674
  758MOL0     H 2326   0.851   9.105   3.011 -0.5295  1.5998  1.3967
  758MOL0     H 2327   1.591   9.070   2.284  0.5017 -0.3729 -0.3376
  758MOL0     H 2328   1.910   9.044   2.202 -0.7529 -0.6292  0.4100
  758MOL0     H 2329   1.762   9.137   2.125 -2.3122  0.2169  2.5137
  758MOL0     H 2330   1.899   9.217   2.180 -1.7322  0.4843 -0.9916
  759MOL0     O 2331   5.131   6.714  10.311  0.1115  0.5259 -0.1955
  759MOL0     C 2332   5.231   6.778  10.287  0.0477  0.0886 -0.2383
  759MOL0     O 2333   5.351   6.760  10.359  1.1073  0.2404 -0.6024
  759MOL0     C 2334   5.367   6.673  10.467  0.4792 -1.1177 -0.5874
  759MOL0     C 2335   5.271   6.654  10.566 -0.4848 -0.7177 -0.7994
  759MOL0     C 2336   5.288   6.567  10.674 -0.0834  0.3740  0.1447
  759MOL0     C 2337   5.406   6.502  10.687 -1.2783  0.7511 -0.7506
  759MOL0     O 2338   5.434   6.411  10.792 -0.0081  0.5197  0.9930
  759MOL0     C 2339   5.403   6.276  10.775  0.3999 -0.5521 -0.7837
  759MOL0     C 2340   5.465   6.216  10.642  0.4981  0.0810 -0.7972
  759MOL0     C 2341   5.445   6.064  10.641  0.3998 -0.6174 -0.1641
  759MOL0     C 2342   5.514   5.993  10.530  0.6268 -0.1551  0.3554
  759MOL0     C 2343   5.417   5.983  10.409 -0.2439 -1.1145 -0.3941
  759MOL0     C 2344   5.300   5.884  10.436 -0.9930 -0.7541  0.3649
  759MOL0     C 2345   5.337   5.735  10.462  0.6488  0.4330 -0.0290
  759MOL0     C 2346   5.354   5.655  10.334  0.2376 -0.8044  0.3820
  759MOL0     N 2347   5.420   5.523  10.346  0.5066 -0.6313  0.1655
  759MOL0     C 2348   5.524   5.484  10.261 -0.0641  0.0493 -0.0080
  759MOL0     C 2349   5.548   5.353  10.290  0.1727  0.3295 -0.2460
  759MOL0     C 2350   5.647   5.253  10.233  0.0866  0.4210  0.6256
  759MOL0     C 2351   5.788   5.289  10.275  0.6613 -0.8994  0.4894
  759MOL0     C 2352   5.835   5.407  10.190 -0.4946 -0.4727 -0.2028
  759MOL0     C 2353   5.988   5.421  10.198 -0.0939  1.0160  0.8878
  759MOL0     O 2354   6.038   5.383  10.322 -0.1715 -0.4362 -0.3001
  759MOL0     C 2355   6.151   5.449  10.375 -0.4803 -0.4615  0.7418
  759MOL0     C 2356   6.156   5.464  10.516  0.4661 -0.0548 -0.6154
  759MOL0     C 2357   6.264   5.538  10.573 -0.0196 -0.0768  0.2522
  759MOL0     C 2358   6.355   5.602  10.493  0.1251  1.2203 -0.2828
  759MOL0     C 2359   6.478   5.658  10.562  0.7060 -0.1183 -0.1429
  759MOL0     O 2360   6.471   5.671  10.700  0.0790  0.5893 -0.2291
  759MOL0     C 2361   6.584   5.687  10.780  0.5796  0.0795 -0.5068
  759MOL0     C 2362   6.570   5.657  10.915 -0.0922  0.6176  0.0881
  759MOL0     C 2363   6.679   5.661  11.008  0.4337  0.4232  0.6039
  759MOL0     C 2364   6.803   5.714  10.964 -0.8033  0.6105  0.7155
  759MOL0     O 2365   6.911   5.724  11.058  0.3882 -0.5364  0.4290
  759MOL0     C 2366   7.013   5.813  11.031 -0.0372  0.1737  0.0413
  759MOL0     C 2367   7.124   5.767  11.123  0.0341  0.3459 -0.4474
  759MOL0     C 2368   7.248   5.858  11.130 -0.8610 -0.0053 -0.1338
  759MOL0     C 2369   7.356   5.821  11.234  0.8731  0.0594 -0.0646
  759MOL0     C 2370   7.450   5.934  11.243 -0.5850  0.2335 -0.4617
  759MOL0     C 2371   7.571   5.910  11.343  0.8839  0.5059  0.0154
  759MOL0     C 2372   7.679   6.004  11.307 -0.2809  0.2482 -0.2471
  759MOL0     C 2373   7.650   6.160  11.312 -0.7814 -0.0375 -0.2644
  759MOL0    Cl 2374   7.812   6.232  11.288  0.1133 -0.2745  0.3210
  759MOL0     C 2375   6.819   5.752  10.827  0.2104  0.0057  1.0180
  759MOL0     C 2376   6.709   5.735  10.738  0.4662 -0.0245  0.1306
  759MOL0     O 2377   6.579   5.658  10.495 -0.4372 -0.2962  0.5495
  759MOL0     C 2378   6.347   5.588  10.351  0.7188 -0.0552 -0.2049
  759MOL0     C 2379   6.248   5.512  10.291  0.1927 -0.0609 -0.3384
  759MOL0     N 2380   5.458   5.319  10.404  0.1465  0.0486  0.0493
  759MOL0     N 2381   5.380   5.419  10.422 -0.0826 -0.1031 -0.1771
  759MOL0     C 2382   5.513   6.531  10.592 -0.1819  0.5728 -0.4925
  759MOL0     C 2383   5.491   6.608  10.480  0.0933 -0.7145 -0.2085
  759MOL0     C 2384   5.235   6.877  10.185  0.1541  0.3577 -0.4111
  759MOL0     C 2385   5.343   6.870  10.098  0.3702 -0.7756  0.6808
  759MOL0     C 2386   5.349   6.959   9.989 -0.6103 -0.8966 -0.4176
  759MOL0     C 2387   5.242   7.047   9.967 -0.5979  0.4713 -0.6888
  759MOL0     O 2388   5.238   7.137   9.860 -0.0001  0.0481 -0.8142
  759MOL0     C 2389   5.289   7.093   9.739  0.5478  0.1623  0.2525
  759MOL0     C 2390   5.225   7.175   9.634  0.0668 -0.0829 -0.0883
  759MOL0     C 2391   5.269   7.327   9.644 -0.0688 -0.5810 -0.1699
  759MOL0     C 2392   5.184   7.443   9.586 -0.2179  0.1915 -0.1733
  759MOL0     C 2393   5.284   7.553   9.564  0.1462  0.5520  0.3669
  759MOL0     C 2394   5.345   7.659   9.555  0.0020  0.4079 -0.7013
  759MOL0     C 2395   5.143   7.057  10.052  0.1443 -1.0959 -1.1338
  759MOL0     C 2396   5.132   6.975  10.166 -0.6537  0.7758 -0.7789
  759MOL0     C 2397   5.017   6.989  10.271  0.0454 -0.1605 -0.8802
  759MOL0     H 2398   5.174   6.701  10.559 -1.5489 -2.8681 -1.3425
  759MOL0     H 2399   5.211   6.562  10.750  1.0125  1.6314  1.4015
  759MOL0     H 2400   5.446   6.229  10.864 -1.8369 -0.6025  0.3308
  759MOL0     H 2401   5.294   6.267  10.772  0.1429  1.4322  0.7132
  759MOL0     H 2402   5.573   6.234  10.642  0.2755  1.5667 -0.5992
  759MOL0     H 2403   5.415   6.258  10.554 -2.2995 -1.9237 -0.2898
  759MOL0     H 2404   5.337   6.045  10.643  0.7619 -3.0740 -0.8054
  759MOL0     H 2405   5.481   6.019  10.734  0.1552 -3.7768 -1.4803
  759MOL0     H 2406   5.606   6.044  10.502 -0.7493  2.4005  0.1698
  759MOL0     H 2407   5.549   5.893  10.557 -0.1725 -0.9963 -1.5197
  759MOL0     H 2408   5.380   6.083  10.383  1.4897 -0.4827 -0.5840
  759MOL0     H 2409   5.477   5.949  10.324  0.3722  2.5349 -1.5948
  759MOL0     H 2410   5.250   5.924  10.525 -1.6477 -1.1375  0.1808
  759MOL0     H 2411   5.235   5.891  10.348  0.4267 -0.6391 -0.7165
  759MOL0     H 2412   5.261   5.681  10.519 -2.3524  3.6196 -0.6643
  759MOL0     H 2413   5.430   5.729  10.518  0.6178  0.9888  0.0862
  759MOL0     H 2414   5.254   5.652  10.289  1.2189  2.6230 -2.4342
  759MOL0     H 2415   5.414   5.711  10.262 -1.6044  0.6589 -0.1043
  759MOL0     H 2416   5.573   5.540  10.183 -2.0970  0.5379 -1.0077
  759MOL0     H 2417   5.622   5.153  10.270 -2.0267  0.6174 -0.1636
  759MOL0     H 2418   5.648   5.245  10.124 -1.1371 -1.1357  0.7024
  759MOL0     H 2419   5.797   5.311  10.382 -1.6587  0.4838  0.4658
  759MOL0     H 2420   5.845   5.198  10.253 -0.5131 -1.5456  0.0778
  759MOL0     H 2421   5.806   5.510  10.216  2.2235  0.3000  0.0958
  759MOL0     H 2422   5.805   5.387  10.087 -0.4216  2.4426 -0.8928
  759MOL0     H 2423   6.019   5.524  10.175  3.6185 -0.0372  0.4113
  759MOL0     H 2424   6.031   5.361  10.116 -1.8523  0.5207  0.2930
  759MOL0     H 2425   6.081   5.413  10.575  2.4482 -3.0693 -0.4570
  759MOL0     H 2426   6.276   5.547  10.680  1.8684 -1.4798  0.2199
  759MOL0     H 2427   6.480   5.604  10.944 -0.3882  0.6125 -0.8254
  759MOL0     H 2428   6.655   5.630  11.109 -1.3130  1.3829  0.5360
  759MOL0     H 2429   7.050   5.828  10.929 -2.8526 -4.5401 -2.0202
  759MOL0     H 2430   6.973   5.910  11.062  2.9643  1.3890  0.4030
  759MOL0     H 2431   7.081   5.762  11.224  2.7666 -0.0880  0.7790
  759MOL0     H 2432   7.152   5.666  11.094 -0.2604  0.9938 -3.2485
  759MOL0     H 2433   7.297   5.858  11.032 -4.2419  1.8534 -2.0251
  759MOL0     H 2434   7.208   5.959  11.148  0.9233  0.8210 -0.5626
  759MOL0     H 2435   7.411   5.733  11.203 -0.1942  0.2985 -2.8991
  759MOL0     H 2436   7.308   5.820  11.333  2.2380  1.2408  0.6354
  759MOL0     H 2437   7.399   6.027  11.271 -0.7621 -0.2697  1.0084
  759MOL0     H 2438   7.506   5.949  11.151 -1.5420 -3.7272 -1.8991
  759MOL0     H 2439   7.532   5.903  11.445  0.8993 -3.1398 -0.1014
  759MOL0     H 2440   7.607   5.808  11.326  3.4899  1.3468  0.1031
  759MOL0     H 2441   7.713   5.989  11.204 -0.6891 -3.1970  0.0277
  759MOL0     H 2442   7.762   5.981  11.375 -0.3256 -5.4535 -1.6216
  759MOL0     H 2443   7.580   6.197  11.237 -1.1295 -1.4752 -0.6771
  759MOL0     H 2444   7.606   6.186  11.408  0.1036  2.7093 -0.5178
  759MOL0     H 2445   6.909   5.803  10.794 -0.7391  0.3760 -1.0749
  759MOL0     H 2446   6.726   5.771  10.637  0.1106 -0.5934 -0.1396
  759MOL0     H 2447   6.431   5.631  10.296  0.9236 -1.6248 -1.1824
  759MOL0     H 2448   6.260   5.514  10.184  1.2187 -1.9303 -0.2896
  759MOL0     H 2449   5.608   6.482  10.606 -0.4964  0.0793 -0.0617
  759MOL0     H 2450   5.565   6.614  10.401  1.4246  1.1074  1.0936
  759MOL0     H 2451   5.427   6.804  10.117  0.6008 -0.5791  0.3461
  759MOL0     H 2452   5.435   6.977   9.925 -0.5592 -1.4003 -0.4949
  759MOL0     H 2453   5.286   6.986   9.714  2.5198  0.1891 -0.2709
  759MOL0     H 2454   5.395   7.119   9.751 -0.1019  2.1678  2.4167
  759MOL0     H 2455   5.117   7.159   9.634  0.0604 -0.0682  0.5901
  759MOL0     H 2456   5.244   7.140   9.532 -1.2623  1.5189 -0.9435
  759MOL0     H 2457   5.370   7.324   9.603  0.1907  4.0474 -0.4316
  759MOL0     H 2458   5.286   7.350   9.749 -0.9701 -2.8666  0.5260
  759MOL0     H 2459   5.129   7.424   9.494  1.8073 -1.7396 -1.0822
  759MOL0     H 2460   5.120   7.481   9.666  1.1715  1.7354  0.2739
  759MOL0     H 2461   5.400   7.751   9.546  0.4152  0.1052 -1.3746
  759MOL0     H 2462   5.066   7.130  10.029 -0.0642 -1.7743 -2.6989
  759MOL0     H 2463   5.049   6.965  10.373 -2.2186 -1.7560 -0.4671
  759MOL0     H 2464   4.957   7.080  10.270 -1.2411 -0.8712  1.7396
  759MOL0     H 2465   4.950   6.906  10.247  0.7502 -1.2402  0.6745
  760MOL0     O 2466  10.676   8.747   3.865  0.0882  0.1306  0.1275
  760MOL0     C 2467  10.603   8.767   3.965  0.8262 -0.1586 -0.2220
  760MOL0     O 2468  10.462   8.787   3.959 -0.1572 -0.0897  0.2194
  760MOL0     C 2469  10.398   8.710   3.863 -0.6970 -1.1261 -0.6111
  760MOL0     C 2470  10.435   8.591   3.797 -0.9339  0.5729 -0.3538
  760MOL0     C 2471  10.336   8.512   3.734 -0.3656 -0.4996  0.1948
  760MOL0     C 2472  10.204   8.558   3.717  0.5485  0.5527 -0.0787
  760MOL0     O 2473  10.115   8.478   3.643 -0.3510 -0.6505 -0.4840
  760MOL0     C 2474   9.984   8.537   3.602 -0.3752 -0.3950 -1.0490
  760MOL0     C 2475   9.902   8.438   3.537  0.0689 -0.4156 -0.7730
  760MOL0     C 2476   9.770   8.505   3.493  0.3445 -0.0370  0.6478
  760MOL0     C 2477   9.693   8.421   3.389  0.0885  0.1394 -0.7044
  760MOL0     C 2478   9.546   8.457   3.370  0.2400 -0.1375  0.7044
  760MOL0     C 2479   9.529   8.605   3.338  0.1784  0.0065 -0.1181
  760MOL0     C 2480   9.386   8.646   3.305  0.3743 -0.3467  0.3362
  760MOL0     C 2481   9.374   8.794   3.278 -0.8817  0.0522  0.4907
  760MOL0     N 2482   9.234   8.842   3.266 -0.3467 -0.4313  0.2655
  760MOL0     C 2483   9.161   8.835   3.151  0.1624 -0.2854  0.3642
  760MOL0     C 2484   9.038   8.900   3.173 -0.7643 -0.2678  0.7021
  760MOL0     C 2485   8.933   8.939   3.059  0.0985  0.0307 -0.0920
  760MOL0     C 2486   8.994   8.952   2.923  0.9026  0.6152 -0.0476
  760MOL0     C 2487   9.087   9.077   2.913 -0.4975 -0.9690  0.3185
  760MOL0     C 2488   9.197   9.052   2.816 -0.3929  0.6877 -0.3025
  760MOL0     O 2489   9.284   8.948   2.845 -0.2896  0.0886  0.3528
  760MOL0     C 2490   9.396   8.961   2.911 -0.7098  1.1540  0.0013
  760MOL0     C 2491   9.448   9.068   2.977 -0.6865  0.4596 -0.5155
  760MOL0     C 2492   9.566   9.061   3.050 -0.2647  0.1018  0.4094
  760MOL0     C 2493   9.642   8.937   3.048 -0.2164 -0.3148  0.1823
  760MOL0     C 2494   9.783   8.924   3.116 -0.2021 -0.6719  0.3907
  760MOL0     O 2495   9.829   8.797   3.147  0.0272 -0.3033 -0.3636
  760MOL0     C 2496   9.966   8.768   3.157  0.1667 -0.3222  0.3479
  760MOL0     C 2497  10.003   8.654   3.240 -0.2319 -0.2335 -0.6902
  760MOL0     C 2498  10.137   8.618   3.276 -0.6884 -0.4864 -0.7009
  760MOL0     C 2499  10.241   8.699   3.226  0.2184 -0.2296 -0.4505
  760MOL0     O 2500  10.376   8.672   3.252 -0.0241 -0.1285  0.0830
  760MOL0     C 2501  10.407   8.576   3.352 -0.2372  0.1862  1.4549
  760MOL0     C 2502  10.559   8.577   3.381  0.5301  0.5239 -0.1514
  760MOL0     C 2503  10.642   8.511   3.266  0.5198  0.1067 -0.2215
  760MOL0     C 2504  10.791   8.536   3.316  0.0613 -0.3700 -1.0659
  760MOL0     C 2505  10.884   8.477   3.218  0.3695 -0.0068 -0.4215
  760MOL0     C 2506  11.030   8.521   3.234 -1.0125  0.0173 -0.2491
  760MOL0     C 2507  11.109   8.439   3.342 -0.0998  0.2934 -0.0581
  760MOL0     C 2508  11.253   8.482   3.361  0.5086  0.5969  1.0803
  760MOL0    Cl 2509  11.346   8.511   3.205  0.1183  0.0740 -0.3611
  760MOL0     C 2510  10.219   8.802   3.138  1.2265 -0.3722 -0.6523
  760MOL0     C 2511  10.083   8.841   3.107  0.5892  0.0851  0.1668
  760MOL0     O 2512   9.847   9.030   3.125  0.0373 -0.2224 -0.5335
  760MOL0     C 2513   9.592   8.830   2.974 -0.3311  0.1500 -1.2402
  760MOL0     C 2514   9.472   8.838   2.907  1.1400  0.3672 -0.3038
  760MOL0     N 2515   9.047   8.935   3.302 -0.2166  0.1315  0.9304
  760MOL0     N 2516   9.156   8.898   3.359 -0.1284 -0.0227 -1.0980
  760MOL0     C 2517  10.173   8.680   3.778 -0.4068 -0.0588 -0.2714
  760MOL0     C 2518  10.266   8.756   3.846  0.0642  0.4109  0.2068
  760MOL0     C 2519  10.672   8.788   4.095  0.7525  0.1361 -0.2636
  760MOL0     C 2520  10.615   8.885   4.185 -1.0445 -0.0511 -0.4355
  760MOL0     C 2521  10.685   8.929   4.297  0.0737 -0.3657 -1.0789
  760MOL0     C 2522  10.805   8.867   4.327  0.2950  0.4826 -0.1969
  760MOL0     O 2523  10.855   8.908   4.448  0.1004  0.2904  0.0826
  760MOL0     C 2524  10.976   8.849   4.499  0.2742  0.2503 -0.2620
  760MOL0     C 2525  11.007   8.899   4.641 -0.1923  0.4322 -0.8406
  760MOL0     C 2526  11.126   8.828   4.706  0.0901 -0.3676 -0.4803
  760MOL0     C 2527  11.151   8.883   4.854  0.5017  0.1814  0.1095
  760MOL0     C 2528  11.075   8.791   4.940 -0.2651  0.4515  0.0842
  760MOL0     C 2529  11.005   8.723   5.015 -0.5937  0.2601 -0.1875
  760MOL0     C 2530  10.863   8.777   4.241 -0.6673  0.5090 -0.1156
  760MOL0     C 2531  10.799   8.737   4.120 -0.1176 -0.1344 -0.3356
  760MOL0     C 2532  10.876   8.639   4.039  1.0151  0.6972 -0.3035
  760MOL0     H 2533  10.531   8.543   3.812 -1.0867  0.0981 -0.8492
  760MOL0     H 2534  10.372   8.415   3.700 -2.3179 -0.8279 -1.1207
  760MOL0     H 2535   9.934   8.583   3.687  2.4049  1.2565 -0.1799
  760MOL0     H 2536  10.000   8.620   3.533  1.1885  0.5244  0.3573
  760MOL0     H 2537   9.882   8.359   3.610 -1.6216  0.4537 -0.2382
  760MOL0     H 2538   9.965   8.394   3.459  1.8147 -1.6002  1.1983
  760MOL0     H 2539   9.782   8.602   3.445 -1.3043  0.4617  1.1927
  760MOL0     H 2540   9.708   8.519   3.582 -0.9990 -1.5438  0.0076
  760MOL0     H 2541   9.739   8.420   3.290  0.7866  4.3667 -0.5876
  760MOL0     H 2542   9.701   8.318   3.425  1.0405  0.9771  1.6495
  760MOL0     H 2543   9.501   8.393   3.294  0.3057  0.8476 -0.1754
  760MOL0     H 2544   9.499   8.426   3.464 -0.2374 -2.1637 -0.1452
  760MOL0     H 2545   9.569   8.662   3.423 -0.8438 -0.2206  0.5303
  760MOL0     H 2546   9.594   8.631   3.253  2.5959 -1.6606  1.1157
  760MOL0     H 2547   9.329   8.615   3.393 -2.3870  1.6966 -0.6072
  760MOL0     H 2548   9.349   8.585   3.222  2.4266  0.5862 -1.3575
  760MOL0     H 2549   9.419   8.848   3.362  1.0824 -0.3231 -0.2629
  760MOL0     H 2550   9.429   8.823   3.188 -0.6775  2.5298  1.3558
  760MOL0     H 2551   9.184   8.806   3.049 -0.3387  1.2796 -0.2218
  760MOL0     H 2552   8.849   8.870   3.055 -0.8381  0.8784  2.9070
  760MOL0     H 2553   8.881   9.034   3.074  0.4718 -0.0466  1.9478
  760MOL0     H 2554   9.041   8.861   2.884 -0.4013  0.0589 -0.3636
  760MOL0     H 2555   8.913   8.976   2.853 -1.1682  1.6240  2.5294
  760MOL0     H 2556   9.135   9.105   3.007  0.0245  0.4954 -0.3575
  760MOL0     H 2557   9.031   9.159   2.868  1.9896 -0.0237 -1.2606
  760MOL0     H 2558   9.259   9.142   2.808  0.3520  0.1797 -0.3501
  760MOL0     H 2559   9.155   9.033   2.717 -0.3649 -0.3457 -0.1293
  760MOL0     H 2560   9.395   9.163   2.976 -0.2805  0.7033 -2.1754
  760MOL0     H 2561   9.604   9.150   3.098  2.2455  0.5735 -2.1733
  760MOL0     H 2562   9.922   8.609   3.297  0.6684  1.5728  2.1700
  760MOL0     H 2563  10.146   8.522   3.325 -2.6052 -0.5069 -0.2862
  760MOL0     H 2564  10.344   8.591   3.441 -2.7768 -1.3221  0.0625
  760MOL0     H 2565  10.389   8.477   3.308  0.8916  0.3862  0.5096
  760MOL0     H 2566  10.596   8.678   3.400  1.6253 -0.2514  2.1594
  760MOL0     H 2567  10.583   8.517   3.469  2.4300 -1.9677 -2.2244
  760MOL0     H 2568  10.604   8.409   3.258  0.2276 -0.1764  3.2771
  760MOL0     H 2569  10.622   8.561   3.170 -0.1408 -2.1896 -1.3552
  760MOL0     H 2570  10.814   8.486   3.411  3.7989 -0.6713 -1.9697
  760MOL0     H 2571  10.816   8.642   3.325  2.4082 -0.7504 -2.3155
  760MOL0     H 2572  10.855   8.502   3.116  0.2846  0.1406 -0.3622
  760MOL0     H 2573  10.879   8.368   3.216  1.5231 -0.0685 -1.7437
  760MOL0     H 2574  11.080   8.493   3.141 -1.2542 -0.9452 -0.1057
  760MOL0     H 2575  11.046   8.628   3.251  2.8992 -0.4036 -0.2534
  760MOL0     H 2576  11.111   8.331   3.324  0.2589 -0.5336  3.9310
  760MOL0     H 2577  11.065   8.436   3.443 -1.3859  1.8565 -0.5363
  760MOL0     H 2578  11.257   8.578   3.415 -2.2507  0.2742  1.9936
  760MOL0     H 2579  11.309   8.414   3.426 -1.9355 -1.1313  1.4898
  760MOL0     H 2580  10.301   8.865   3.105 -2.3940  4.2063 -1.9793
  760MOL0     H 2581  10.068   8.942   3.069  3.3447  0.9079  1.0118
  760MOL0     H 2582   9.651   8.740   2.981  2.5846  2.0321  0.2869
  760MOL0     H 2583   9.451   8.751   2.846 -1.5278  1.5986 -1.2777
  760MOL0     H 2584  10.070   8.715   3.772 -0.2325  0.7264  0.9068
  760MOL0     H 2585  10.242   8.852   3.891 -0.4682  0.4049 -0.0584
  760MOL0     H 2586  10.525   8.936   4.152  1.0489  3.5798 -1.1563
  760MOL0     H 2587  10.647   9.005   4.365  1.3222  1.0253 -1.8708
  760MOL0     H 2588  11.055   8.880   4.431  1.2379  0.4880  0.9385
  760MOL0     H 2589  10.962   8.740   4.503 -0.1292  0.2937 -0.4177
  760MOL0     H 2590  10.918   8.901   4.705 -1.0290 -0.9292 -1.9108
  760MOL0     H 2591  11.040   9.003   4.635 -1.9063  0.9450 -2.6224
  760MOL0     H 2592  11.219   8.850   4.653  1.5289  0.9943  2.3689
  760MOL0     H 2593  11.111   8.720   4.709  0.8223 -0.4804 -0.6906
  760MOL0     H 2594  11.257   8.868   4.874  0.6938  1.9658  0.6181
  760MOL0     H 2595  11.126   8.987   4.874  3.4163  0.7067  1.5606
  760MOL0     H 2596  10.954   8.654   5.080 -1.5267  0.3355 -0.8239
  760MOL0     H 2597  10.956   8.736   4.280 -0.3556  0.9571 -0.3806
  760MOL0     H 2598  10.845   8.539   4.069  0.7679  1.3951  1.9103
  760MOL0     H 2599  10.874   8.666   3.933  0.0682  0.9121 -0.2419
  760MOL0     H 2600  10.981   8.632   4.066  0.1032  0.6488  3.8509
  761MOL0     O 2601   9.596   9.132   8.571 -0.0169 -0.1101  0.2904
  761MOL0     C 2602   9.521   9.227   8.537 -0.6110 -0.8591  0.5739
  761MOL0     O 2603   9.552   9.332   8.451 -0.1621  0.3315  0.0595
  761MOL0     C 2604   9.673   9.339   8.388 -0.4214  0.5658  0.0343
  761MOL0     C 2605   9.803   9.296   8.436  0.5210  0.0945  0.1175
  761MOL0     C 2606   9.924   9.314   8.371  0.6622 -0.4650 -0.1716
  761MOL0     C 2607   9.918   9.373   8.245  0.3378 -0.3541  0.6006
  761MOL0     O 2608  10.026   9.383   8.168  0.2715  0.3136 -0.5095
  761MOL0     C 2609  10.147   9.310   8.184  0.1675  0.6961 -0.4472
  761MOL0     C 2610  10.233   9.412   8.275  1.0256  0.0652  0.6845
  761MOL0     C 2611  10.356   9.338   8.313  0.1456  1.0792  0.0391
  761MOL0     C 2612  10.446   9.395   8.421  0.6720  0.6106  0.4627
  761MOL0     C 2613  10.545   9.274   8.461  0.6227 -0.2795 -0.1418
  761MOL0     C 2614  10.655   9.333   8.555  0.2173 -0.3086 -0.3187
  761MOL0     C 2615  10.777   9.233   8.574 -0.3536 -0.4070  0.9635
  761MOL0     C 2616  10.837   9.186   8.442 -0.2892  0.1856 -0.1818
  761MOL0     N 2617  10.971   9.110   8.464  0.7148  0.3978  0.9180
  761MOL0     C 2618  10.985   8.975   8.471 -0.8018 -0.0994 -0.7833
  761MOL0     C 2619  11.115   8.951   8.503  0.3236 -0.7215  0.5908
  761MOL0     C 2620  11.183   8.817   8.530  0.4708  0.1034 -0.2506
  761MOL0     C 2621  11.336   8.827   8.551  0.3933  0.5466  1.0581
  761MOL0     C 2622  11.409   8.701   8.584  0.4600  0.8447  0.5018
  761MOL0     C 2623  11.546   8.726   8.647  0.4954  0.1100  0.7056
  761MOL0     O 2624  11.577   8.594   8.701  0.3304 -0.0673  0.1669
  761MOL0     C 2625  11.709   8.570   8.733  0.5517 -0.5242  0.2241
  761MOL0     C 2626  11.733   8.445   8.789 -0.3760  0.4136 -0.2975
  761MOL0     C 2627  11.865   8.403   8.820 -0.1598  0.2086  0.5870
  761MOL0     C 2628  11.974   8.479   8.779  0.7444  0.1996  0.9021
  761MOL0     C 2629  12.121   8.439   8.796 -0.3252  0.3310  0.1120
  761MOL0     O 2630  12.156   8.329   8.871  0.1185  0.0170  0.2538
  761MOL0     C 2631  12.274   8.263   8.872  0.0646 -0.1899  0.2571
  761MOL0     C 2632  12.294   8.194   8.988 -0.1981  1.1773  0.6572
  761MOL0     C 2633  12.414   8.120   8.998 -0.7752 -0.2269  0.1684
  761MOL0     C 2634  12.520   8.119   8.904  0.3149  0.2476  0.0975
  761MOL0     O 2635  12.623   8.036   8.926 -0.3480 -0.5951  0.2434
  761MOL0     C 2636  12.742   8.055   8.854  0.1333  0.5852 -0.4677
  761MOL0     C 2637  12.856   7.996   8.939 -0.1743  0.1678 -0.5201
  761MOL0     C 2638  12.994   8.050   8.872 -0.1061  0.1576 -1.0890
  761MOL0     C 2639  13.109   8.051   8.977 -0.2867 -0.2420  0.0053
  761MOL0     C 2640  13.163   7.906   9.021 -0.8638  0.1581  0.2940
  761MOL0     C 2641  13.286   7.908   9.113  0.6361  0.1979 -0.5086
  761MOL0     C 2642  13.266   7.966   9.251 -1.2063 -1.0535 -0.5300
  761MOL0     C 2643  13.135   7.919   9.319 -0.0783  0.2351 -0.1249
  761MOL0    Cl 2644  13.107   7.997   9.478 -0.1141  0.2462  0.2620
  761MOL0     C 2645  12.505   8.205   8.789  0.3830  0.6068 -0.7039
  761MOL0     C 2646  12.376   8.270   8.769  0.3472 -0.1164 -0.3799
  761MOL0     O 2647  12.202   8.502   8.727  0.0900 -0.3045  0.1956
  761MOL0     C 2648  11.944   8.611   8.726 -0.2893  0.9079 -0.6931
  761MOL0     C 2649  11.818   8.652   8.705  0.4331  0.0819 -0.8703
  761MOL0     N 2650  11.182   9.077   8.510  0.1292  0.4434  0.3133
  761MOL0     N 2651  11.095   9.171   8.489 -0.2203 -0.1562 -0.1257
  761MOL0     C 2652   9.790   9.416   8.200  0.6774  0.6798  0.7095
  761MOL0     C 2653   9.673   9.408   8.271 -0.4475  0.5019  0.0203
  761MOL0     C 2654   9.373   9.200   8.566 -0.2614  0.6153 -0.4977
  761MOL0     C 2655   9.332   9.070   8.580  0.6225  0.6447 -0.8639
  761MOL0     C 2656   9.192   9.043   8.587  0.0074 -0.7323  0.7991
  761MOL0     C 2657   9.092   9.135   8.580 -0.6444 -0.0478 -0.8431
  761MOL0     O 2658   8.958   9.099   8.582 -0.3026 -0.0767 -0.8468
  761MOL0     C 2659   8.873   9.205   8.615  1.3844 -0.6048 -0.0317
  761MOL0     C 2660   8.730   9.153   8.592  0.1529 -0.1249  0.7393
  761MOL0     C 2661   8.617   9.253   8.644 -0.1553  0.6324  0.2392
  761MOL0     C 2662   8.477   9.227   8.588  0.5221  0.6228 -0.0844
  761MOL0     C 2663   8.426   9.092   8.628 -0.2997 -0.1082 -0.3933
  761MOL0     C 2664   8.375   8.982   8.649 -0.7117 -0.4143 -0.3159
  761MOL0     C 2665   9.136   9.270   8.575 -1.8432 -0.0801 -0.6551
  761MOL0     C 2666   9.277   9.301   8.571 -0.8604  0.0073 -0.3877
  761MOL0     C 2667   9.316   9.445   8.533 -0.3401  0.8079 -0.6271
  761MOL0     H 2668   9.818   9.240   8.528 -0.6916 -1.6164 -0.6822
  761MOL0     H 2669  10.017   9.280   8.415  0.8176 -0.3757 -0.4280
  761MOL0     H 2670  10.117   9.218   8.234  0.5641  0.8160  0.0177
  761MOL0     H 2671  10.192   9.280   8.089 -2.1468 -2.0824 -0.8099
  761MOL0     H 2672  10.172   9.443   8.361 -1.5703  0.0152 -1.0174
  761MOL0     H 2673  10.252   9.500   8.213 -0.2924  0.0715  0.2595
  761MOL0     H 2674  10.417   9.328   8.223  0.6567  0.5381  0.4365
  761MOL0     H 2675  10.335   9.235   8.344  0.1519  1.1513  0.2863
  761MOL0     H 2676  10.498   9.484   8.383  0.1089 -0.1873 -2.4070
  761MOL0     H 2677  10.374   9.418   8.501 -1.0264  1.5259 -1.2631
  761MOL0     H 2678  10.483   9.198   8.508  0.6810  0.2818  0.8661
  761MOL0     H 2679  10.586   9.225   8.372 -1.2115  0.2894 -1.3685
  761MOL0     H 2680  10.685   9.433   8.521 -1.3280 -0.1381 -1.2902
  761MOL0     H 2681  10.608   9.349   8.652  2.5112 -0.1824  0.8498
  761MOL0     H 2682  10.735   9.152   8.633 -2.2879  0.1370  0.4428
  761MOL0     H 2683  10.857   9.285   8.628  1.2059  0.0335 -1.6032
  761MOL0     H 2684  10.772   9.108   8.402  1.0763 -1.2285  0.2533
  761MOL0     H 2685  10.840   9.272   8.374 -0.9337 -0.2980 -0.8297
  761MOL0     H 2686  10.908   8.899   8.465  0.0172 -1.1981  1.5279
  761MOL0     H 2687  11.133   8.766   8.612  1.2004  0.8959  0.7173
  761MOL0     H 2688  11.171   8.748   8.446  0.1909  0.0550 -0.1719
  761MOL0     H 2689  11.374   8.852   8.452 -0.6599 -1.0521  0.2147
  761MOL0     H 2690  11.343   8.904   8.628 -2.5471  2.9284 -0.8327
  761MOL0     H 2691  11.405   8.634   8.497 -0.1828  3.4786 -1.6211
  761MOL0     H 2692  11.346   8.653   8.659 -0.2471 -1.9718 -1.7157
  761MOL0     H 2693  11.546   8.808   8.720  0.1237  0.9719 -0.2456
  761MOL0     H 2694  11.613   8.762   8.569 -1.0642  1.4133 -0.0913
  761MOL0     H 2695  11.642   8.393   8.817 -0.8651  1.5847  0.3623
  761MOL0     H 2696  11.886   8.307   8.866 -1.8329 -0.4875  0.0122
  761MOL0     H 2697  12.226   8.178   9.071 -0.9356  1.5378  0.1288
  761MOL0     H 2698  12.416   8.060   9.088  0.5527 -0.7303 -0.1852
  761MOL0     H 2699  12.743   8.007   8.755 -0.7798  2.0121 -1.1989
  761MOL0     H 2700  12.773   8.157   8.829 -1.0342  0.3128 -3.4415
  761MOL0     H 2701  12.850   8.043   9.038  0.6913  0.4796 -0.6101
  761MOL0     H 2702  12.862   7.887   8.946  1.1112  0.3073  1.1746
  761MOL0     H 2703  13.026   7.975   8.799 -1.7135 -1.8448  0.1631
  761MOL0     H 2704  12.978   8.148   8.826 -0.0557  0.6926  0.0151
  761MOL0     H 2705  13.078   8.106   9.067  0.7877 -0.7646  0.7264
  761MOL0     H 2706  13.191   8.108   8.934  0.6098 -2.9181 -2.1154
  761MOL0     H 2707  13.183   7.855   8.927  0.0466  3.1280 -1.2561
  761MOL0     H 2708  13.082   7.843   9.061 -2.9227  1.4455 -1.6187
  761MOL0     H 2709  13.327   7.807   9.125  0.7975  0.2289 -0.7768
  761MOL0     H 2710  13.367   7.969   9.071  0.7064  0.3436 -0.1672
  761MOL0     H 2711  13.270   8.075   9.254 -0.2269 -1.0543 -1.2773
  761MOL0     H 2712  13.349   7.921   9.306 -0.0308  1.8694  0.2469
  761MOL0     H 2713  13.051   7.949   9.256 -0.5860 -1.0499 -0.0851
  761MOL0     H 2714  13.149   7.811   9.326  0.1205  0.3205  0.9509
  761MOL0     H 2715  12.584   8.212   8.715  0.7237 -0.2715 -0.4433
  761MOL0     H 2716  12.356   8.333   8.683  1.8001  0.2736 -0.4435
  761MOL0     H 2717  12.026   8.670   8.687  0.3569 -0.0971 -0.8821
  761MOL0     H 2718  11.812   8.743   8.647  1.6119  0.9670  0.3192
  761MOL0     H 2719   9.780   9.468   8.105 -1.9536 -0.2226  0.4106
  761MOL0     H 2720   9.589   9.456   8.222 -0.1418  2.1920  1.0471
  761MOL0     H 2721   9.404   8.989   8.571  1.2163  1.1903 -1.0717
  761MOL0     H 2722   9.151   8.943   8.598 -0.8447 -0.3418  1.3020
  761MOL0     H 2723   8.885   9.287   8.543 -0.2979  1.5804  2.0124
  761MOL0     H 2724   8.890   9.244   8.716 -0.9548 -0.7059  0.4490
  761MOL0     H 2725   8.717   9.065   8.656  0.9304  0.3787  1.6036
  761MOL0     H 2726   8.713   9.125   8.487 -2.3799 -2.3663  1.6278
  761MOL0     H 2727   8.642   9.353   8.606 -0.7478  0.4225 -0.7109
  761MOL0     H 2728   8.624   9.260   8.753 -2.1329 -2.5234  0.6807
  761MOL0     H 2729   8.412   9.309   8.619  1.8481 -0.1511  5.8360
  761MOL0     H 2730   8.497   9.237   8.480 -1.1540 -0.4567 -0.5200
  761MOL0     H 2731   8.309   8.900   8.669 -3.1944  2.2274  4.1438
  761MOL0     H 2732   9.072   9.357   8.583  0.8354  2.1148 -1.5940
  761MOL0     H 2733   9.359   9.453   8.432 -3.2082 -3.0888 -2.4185
  761MOL0     H 2734   9.220   9.495   8.521 -0.4802  0.8579  0.6195
  761MOL0     H 2735   9.376   9.493   8.610 -1.4670 -0.8933  1.4234
  762MOL0     O 2736   4.700   1.677   0.686 -0.2429 -0.1369 -0.1815
  762MOL0     C 2737   4.626   1.665   0.589 -0.2212  0.2249  0.3472
  762MOL0     O 2738   4.661   1.638   0.458 -0.0196  0.4463  0.8438
  762MOL0     C 2739   4.792   1.640   0.422 -0.0687  0.4491 -0.2829
  762MOL0     C 2740   4.884   1.741   0.467  0.2812  0.2282 -0.4861
  762MOL0     C 2741   5.020   1.728   0.428  0.0892 -0.0384  0.2605
  762MOL0     C 2742   5.075   1.622   0.356  0.4490 -0.7539 -0.1296
  762MOL0     O 2743   5.210   1.626   0.336  0.0812  0.7336 -0.2465
  762MOL0     C 2744   5.275   1.532   0.256  0.0550 -0.6693 -0.0554
  762MOL0     C 2745   5.423   1.577   0.233 -0.1885 -0.0142 -0.2518
  762MOL0     C 2746   5.515   1.453   0.225  0.0787  0.0897 -0.1120
  762MOL0     C 2747   5.649   1.489   0.295 -0.6139  0.5738 -0.2645
  762MOL0     C 2748   5.765   1.397   0.270  0.2937  0.1478  0.2589
  762MOL0     C 2749   5.886   1.416   0.358 -0.2192 -0.3798 -0.1828
  762MOL0     C 2750   5.964   1.287   0.397  0.5343 -0.6655  0.0132
  762MOL0     C 2751   6.060   1.247   0.282  0.9476 -0.3275 -0.2294
  762MOL0     N 2752   6.168   1.148   0.323  0.5113 -0.0010  0.5057
  762MOL0     C 2753   6.297   1.176   0.344  0.3082 -1.0000 -1.5392
  762MOL0     C 2754   6.362   1.058   0.362  0.7273 -0.2242 -0.2581
  762MOL0     C 2755   6.512   1.042   0.365  0.3640  0.3791  0.1670
  762MOL0     C 2756   6.565   0.940   0.473 -0.0015  1.2395  0.7037
  762MOL0     C 2757   6.535   0.792   0.431  0.0287 -0.2165  0.4497
  762MOL0     C 2758   6.600   0.682   0.518 -0.2847  0.0419 -0.0329
  762MOL0     O 2759   6.745   0.699   0.514  0.2283  0.0015  0.2965
  762MOL0     C 2760   6.816   0.601   0.574  0.7208 -0.1404 -0.1809
  762MOL0     C 2761   6.950   0.601   0.538  0.2657 -0.1585 -0.6052
  762MOL0     C 2762   7.031   0.500   0.591  0.5804  0.1096  0.0309
  762MOL0     C 2763   6.981   0.394   0.669  0.2482  0.0982 -0.7315
  762MOL0     C 2764   7.068   0.283   0.723 -0.1298  0.5104  0.4368
  762MOL0     O 2765   7.192   0.261   0.659 -0.5108  0.0272  0.1965
  762MOL0     C 2766   7.229   0.134   0.625 -0.4173  0.1837 -0.5871
  762MOL0     C 2767   7.148   0.018   0.618 -1.1223  0.1496  0.1629
  762MOL0     C 2768   7.203  -0.110   0.595 -0.2259 -0.8868  0.6502
  762MOL0     C 2769   7.341  -0.119   0.568  0.1733 -0.4968  1.1788
  762MOL0     O 2770   7.385  -0.241   0.517  0.2254  0.0684 -0.2191
  762MOL0     C 2771   7.524  -0.260   0.503 -0.5386  0.1072 -0.8963
  762MOL0     C 2772   7.556  -0.417   0.500  0.4183  0.1679  0.0990
  762MOL0     C 2773   7.702  -0.450   0.477 -0.3483 -0.0457  0.9021
  762MOL0     C 2774   7.741  -0.431   0.323  0.5418  0.3419  0.0026
  762MOL0     C 2775   7.885  -0.470   0.292  0.6009  0.8176 -0.4483
  762MOL0     C 2776   7.977  -0.371   0.364 -0.4434  0.5471 -0.1721
  762MOL0     C 2777   8.121  -0.386   0.304 -0.8529 -0.3521 -0.3622
  762MOL0     C 2778   8.231  -0.301   0.380 -0.1502 -0.0175 -1.0262
  762MOL0    Cl 2779   8.283  -0.385   0.532  0.1543  0.0824 -0.2921
  762MOL0     C 2780   7.419   0.004   0.558  0.8258  0.4917  0.1922
  762MOL0     C 2781   7.366   0.126   0.591 -0.5328  0.3966  0.0064
  762MOL0     O 2782   7.019   0.214   0.817 -0.0931 -0.0109 -0.2347
  762MOL0     C 2783   6.847   0.390   0.695  0.0679  0.6943  0.3619
  762MOL0     C 2784   6.768   0.499   0.655  0.0887 -0.2808  0.2060
  762MOL0     N 2785   6.269   0.958   0.344 -0.0245  0.1957 -0.7789
  762MOL0     N 2786   6.152   1.016   0.321  0.0722 -0.1959 -0.3350
  762MOL0     C 2787   4.981   1.533   0.308 -0.2267  0.2624  0.9811
  762MOL0     C 2788   4.843   1.542   0.335  0.0974  0.0223  0.1778
  762MOL0     C 2789   4.476   1.687   0.618 -0.0054  0.3507 -0.1238
  762MOL0     C 2790   4.443   1.749   0.734 -0.0227 -0.2241 -0.0612
  762MOL0     C 2791   4.315   1.765   0.782  0.1744 -0.3863 -0.1097
  762MOL0     C 2792   4.213   1.717   0.700 -0.6891  0.0228 -0.4549
  762MOL0     O 2793   4.081   1.712   0.730 -0.2363  0.3973 -0.0426
  762MOL0     C 2794   4.030   1.839   0.772  0.6234  0.0911 -0.5367
  762MOL0     C 2795   3.924   1.795   0.873  0.5701  0.2463  0.6675
  762MOL0     C 2796   3.792   1.786   0.806  0.9152  0.2579  0.0586
  762MOL0     C 2797   3.761   1.647   0.732 -0.0043  0.4889  0.0543
  762MOL0     C 2798   3.720   1.542   0.829  0.1192  0.4164  0.2919
  762MOL0     C 2799   3.684   1.463   0.914  0.5773  0.1117  0.4645
  762MOL0     C 2800   4.231   1.651   0.584 -0.8268  0.1924  0.9749
  762MOL0     C 2801   4.365   1.635   0.539  0.7558 -0.4623  1.3797
  762MOL0     C 2802   4.376   1.565   0.408  0.8173 -0.1251 -0.4815
  762MOL0     H 2803   4.852   1.828   0.524  0.7345 -0.7570  1.3438
  762MOL0     H 2804   5.089   1.798   0.476  0.6618 -1.4661  1.6025
  762MOL0     H 2805   5.274   1.426   0.283  0.8988 -1.0985 -1.5938
  762MOL0     H 2806   5.227   1.547   0.159 -0.6896  0.4213  0.4660
  762MOL0     H 2807   5.457   1.647   0.309  1.6582 -1.0188 -0.1072
  762MOL0     H 2808   5.423   1.630   0.137  2.8476 -0.7394 -0.7559
  762MOL0     H 2809   5.538   1.424   0.122  0.7690 -0.2915  0.1402
  762MOL0     H 2810   5.472   1.365   0.274 -0.8449  0.4491 -0.2731
  762MOL0     H 2811   5.667   1.586   0.249 -2.0373  1.0696  0.1885
  762MOL0     H 2812   5.631   1.483   0.403 -4.7068 -1.2537 -0.8651
  762MOL0     H 2813   5.725   1.297   0.291  2.1176  0.1174  4.7584
  762MOL0     H 2814   5.790   1.398   0.163 -0.1899 -0.1432  0.1397
  762MOL0     H 2815   5.944   1.498   0.316 -2.0750  1.0106 -0.1184
  762MOL0     H 2816   5.843   1.455   0.450 -1.4734 -0.0024 -0.9127
  762MOL0     H 2817   5.886   1.213   0.418 -1.7749  0.9861 -2.1473
  762MOL0     H 2818   6.031   1.311   0.480  0.5839 -3.0377  0.7168
  762MOL0     H 2819   6.021   1.212   0.186  3.0530  0.5771 -1.4827
  762MOL0     H 2820   6.108   1.339   0.250  2.4345 -0.6435  0.9927
  762MOL0     H 2821   6.336   1.277   0.340  3.0719 -1.8996  0.0143
  762MOL0     H 2822   6.548   1.012   0.266 -3.3050  0.8218 -1.4926
  762MOL0     H 2823   6.549   1.144   0.380 -1.1421  1.0989 -0.7518
  762MOL0     H 2824   6.673   0.955   0.476  0.5361 -1.9152  0.8732
  762MOL0     H 2825   6.522   0.964   0.570  1.5769  1.1446  1.4577
  762MOL0     H 2826   6.555   0.763   0.328 -1.2150 -0.2172  0.2025
  762MOL0     H 2827   6.427   0.779   0.432  0.0134 -0.2473 -0.8378
  762MOL0     H 2828   6.561   0.587   0.479 -0.7175  0.0140  0.4756
  762MOL0     H 2829   6.558   0.694   0.618  1.2788  0.3788  0.6164
  762MOL0     H 2830   6.983   0.677   0.467 -0.2517  0.0705 -0.6082
  762MOL0     H 2831   7.135   0.496   0.560  0.6649 -1.5510  0.4114
  762MOL0     H 2832   7.041   0.028   0.633 -1.0813  1.9074 -0.5316
  762MOL0     H 2833   7.135  -0.195   0.591 -1.6885  0.2465  0.5960
  762MOL0     H 2834   7.548  -0.211   0.408  2.0554  0.3098 -0.1866
  762MOL0     H 2835   7.582  -0.205   0.576 -1.4598 -0.6289  0.4391
  762MOL0     H 2836   7.524  -0.467   0.592  2.9832 -1.8916 -0.0146
  762MOL0     H 2837   7.495  -0.458   0.419  0.7437 -1.8565  0.8163
  762MOL0     H 2838   7.760  -0.386   0.544 -0.3563 -1.0501  1.9190
  762MOL0     H 2839   7.718  -0.556   0.500 -1.8202 -0.8191 -1.3800
  762MOL0     H 2840   7.736  -0.326   0.293  1.6475 -0.0779 -1.8176
  762MOL0     H 2841   7.667  -0.476   0.257 -0.0086 -0.8877  1.4331
  762MOL0     H 2842   7.882  -0.465   0.182 -2.2521  2.1739 -0.4137
  762MOL0     H 2843   7.911  -0.570   0.327 -0.1266 -0.0732 -2.3051
  762MOL0     H 2844   7.947  -0.269   0.339  0.3037  0.9916  0.6844
  762MOL0     H 2845   7.966  -0.386   0.472 -2.0141  2.1077 -0.0809
  762MOL0     H 2846   8.128  -0.348   0.201 -2.2313 -2.9835 -1.5213
  762MOL0     H 2847   8.148  -0.491   0.291  0.7282  0.0616 -0.5967
  762MOL0     H 2848   8.321  -0.294   0.318  2.0015  0.6459  1.9185
  762MOL0     H 2849   8.209  -0.198   0.407  2.9823  0.5323 -0.1717
  762MOL0     H 2850   7.522  -0.013   0.527  0.0172 -0.2046 -2.3389
  762MOL0     H 2851   7.440   0.205   0.586  2.7027 -2.2980  1.3931
  762MOL0     H 2852   6.807   0.304   0.747  2.9745 -0.2667  1.2112
  762MOL0     H 2853   6.661   0.491   0.676  0.1179 -0.2454  0.3662
  762MOL0     H 2854   5.015   1.462   0.234  1.1413  3.9934 -2.3066
  762MOL0     H 2855   4.772   1.469   0.299 -1.7477  1.0483  1.5315
  762MOL0     H 2856   4.518   1.799   0.795 -0.4321  0.4054 -0.0597
  762MOL0     H 2857   4.288   1.817   0.874  1.1749 -1.9994  1.1655
  762MOL0     H 2858   3.989   1.889   0.685 -1.3032  0.5729  0.5821
  762MOL0     H 2859   4.096   1.911   0.821 -3.1128  1.5645  2.9252
  762MOL0     H 2860   3.900   1.867   0.952 -0.2586 -1.6860  2.2489
  762MOL0     H 2861   3.952   1.701   0.920 -1.2895 -0.2115  0.9409
  762MOL0     H 2862   3.795   1.857   0.723  0.0265  0.4017  0.1400
  762MOL0     H 2863   3.706   1.821   0.864  0.6712 -0.3234  0.0567
  762MOL0     H 2864   3.682   1.655   0.658  1.3337 -2.9318 -1.9654
  762MOL0     H 2865   3.852   1.615   0.680  1.0879  4.4523 -0.7995
  762MOL0     H 2866   3.660   1.405   1.001 -3.1165  1.3965  0.4564
  762MOL0     H 2867   4.155   1.614   0.516 -0.2012  0.5006  0.0782
  762MOL0     H 2868   4.282   1.569   0.353  1.1097  0.7769 -0.9399
  762MOL0     H 2869   4.456   1.615   0.352  1.5105 -2.6983 -1.9441
  762MOL0     H 2870   4.407   1.460   0.417  2.0527  0.3898  3.1200
  763MOL0     O 2871   2.136   8.905   7.963  0.7780  0.2002  0.1571
  763MOL0     C 2872   2.040   8.839   8.007 -0.8414  0.1452  0.6979
  763MOL0     O 2873   2.060   8.707   8.045 -0.0829  0.7318 -0.3223
  763MOL0     C 2874   2.187   8.653   8.011 -0.0747 -0.0258 -0.3738
  763MOL0     C 2875   2.283   8.652   8.109 -0.4146  0.4635  0.1052
  763MOL0     C 2876   2.414   8.602   8.079 -0.1784 -0.4052  0.0732
  763MOL0     C 2877   2.442   8.547   7.947  0.8244  0.3017  0.3686
  763MOL0     O 2878   2.570   8.498   7.907 -0.1307 -0.7629 -0.7879
  763MOL0     C 2879   2.676   8.480   8.013  0.2171  0.4300  0.1686
  763MOL0     C 2880   2.807   8.500   7.958  1.0479 -0.2270  0.4433
  763MOL0     C 2881   2.859   8.418   7.834 -0.3503 -0.1290 -0.3762
  763MOL0     C 2882   2.829   8.266   7.855  0.7575  0.6232 -0.3322
  763MOL0     C 2883   2.901   8.169   7.754 -0.6476  0.3382 -0.2833
  763MOL0     C 2884   3.052   8.170   7.784  0.4483 -0.4398 -0.2460
  763MOL0     C 2885   3.126   8.041   7.731 -0.4599 -0.2909  0.2449
  763MOL0     C 2886   3.053   7.931   7.657 -1.1092 -0.4973 -0.1277
  763MOL0     N 2887   3.132   7.825   7.596  0.5375  0.1292  0.3012
  763MOL0     C 2888   3.217   7.745   7.669  0.2016  0.0300  0.4822
  763MOL0     C 2889   3.268   7.669   7.573  1.0915 -0.0019  0.9006
  763MOL0     C 2890   3.359   7.555   7.604 -0.4104 -0.9745 -0.2558
  763MOL0     C 2891   3.306   7.415   7.575  0.0872 -0.3968 -0.8480
  763MOL0     C 2892   3.396   7.302   7.629 -0.3884  0.2187  0.6800
  763MOL0     C 2893   3.514   7.278   7.544 -0.9009  0.3364  0.1906
  763MOL0     O 2894   3.609   7.387   7.575  0.0414 -0.1750 -0.2928
  763MOL0     C 2895   3.735   7.389   7.525  0.1379 -0.2981  0.4312
  763MOL0     C 2896   3.821   7.483   7.585 -0.4536  0.2313 -0.7295
  763MOL0     C 2897   3.956   7.486   7.543 -0.0346 -0.7912  0.1541
  763MOL0     C 2898   4.002   7.404   7.437  0.0053  1.2634 -0.1749
  763MOL0     C 2899   4.145   7.389   7.387  0.5600 -0.8376  0.3967
  763MOL0     O 2900   4.186   7.316   7.275 -0.2198  1.1484 -0.6932
  763MOL0     C 2901   4.322   7.305   7.242  0.1723 -0.8331 -0.1037
  763MOL0     C 2902   4.417   7.271   7.338 -0.7678  0.6671 -0.2352
  763MOL0     C 2903   4.556   7.259   7.304 -0.9534  0.0515 -0.0452
  763MOL0     C 2904   4.595   7.302   7.177  0.3161 -0.3618 -0.7508
  763MOL0     O 2905   4.731   7.302   7.143  0.0361  0.0909 -0.3131
  763MOL0     C 2906   4.828   7.289   7.243  0.0362  0.3543  0.0615
  763MOL0     C 2907   4.967   7.308   7.189 -1.1101 -0.4549 -0.0567
  763MOL0     C 2908   5.064   7.282   7.304  0.2071 -0.0342  0.7006
  763MOL0     C 2909   5.199   7.353   7.303  0.6174  0.0929  0.8812
  763MOL0     C 2910   5.289   7.312   7.414  0.2913  0.8245 -0.0773
  763MOL0     C 2911   5.433   7.346   7.367 -0.2430 -0.1378 -0.0689
  763MOL0     C 2912   5.515   7.316   7.493  0.3876  0.9125  0.0347
  763MOL0     C 2913   5.661   7.332   7.464 -0.0046 -0.3263  0.1353
  763MOL0    Cl 2914   5.730   7.266   7.621 -0.0134 -0.0928 -0.1784
  763MOL0     C 2915   4.499   7.361   7.088 -0.0117 -0.0759  0.7452
  763MOL0     C 2916   4.365   7.351   7.118  0.9721  1.3362  0.1658
  763MOL0     O 2917   4.220   7.442   7.466 -0.0576 -0.1145 -0.2205
  763MOL0     C 2918   3.907   7.316   7.374  0.2284 -0.0119 -0.0879
  763MOL0     C 2919   3.779   7.310   7.420  0.5660  0.7201 -0.0499
  763MOL0     N 2920   3.209   7.698   7.450  0.2841  0.3866  0.6747
  763MOL0     N 2921   3.133   7.804   7.462 -0.4234 -0.5824 -0.3143
  763MOL0     C 2922   2.341   8.556   7.853  0.1522 -0.0514 -0.4609
  763MOL0     C 2923   2.215   8.605   7.882 -0.3325 -0.1287 -0.4637
  763MOL0     C 2924   1.902   8.892   8.009 -0.7917  0.7238 -0.7184
  763MOL0     C 2925   1.798   8.798   8.023  0.6108 -0.7114  0.2533
  763MOL0     C 2926   1.674   8.849   8.049  0.3062 -0.2686 -0.4195
  763MOL0     C 2927   1.641   8.988   8.053 -0.0495  0.0902 -0.1502
  763MOL0     O 2928   1.512   9.040   8.086 -0.1474  0.1265 -0.5627
  763MOL0     C 2929   1.395   8.963   8.053  0.0130 -0.1071 -0.8592
  763MOL0     C 2930   1.276   9.058   8.050  0.2568  0.3347  0.7769
  763MOL0     C 2931   1.237   9.092   8.194 -0.1231  0.4213  0.4163
  763MOL0     C 2932   1.089   9.089   8.212 -0.0394  0.0952 -0.0332
  763MOL0     C 2933   1.032   8.954   8.200  0.6057 -0.0936  0.6094
  763MOL0     C 2934   1.001   8.842   8.192  0.7657 -0.4211  0.1248
  763MOL0     C 2935   1.742   9.077   8.027  0.5962  0.7127 -0.4123
  763MOL0     C 2936   1.873   9.031   8.007 -0.2404 -0.3999  0.5980
  763MOL0     C 2937   1.988   9.141   8.010  0.0897  0.4753 -0.5259
  763MOL0     H 2938   2.264   8.673   8.214  0.6784  0.7240  0.2532
  763MOL0     H 2939   2.483   8.592   8.162 -1.8506  1.4884  1.7742
  763MOL0     H 2940   2.668   8.548   8.098 -3.4519  2.1335 -1.3401
  763MOL0     H 2941   2.666   8.379   8.054  1.0400  0.8909  1.5608
  763MOL0     H 2942   2.879   8.482   8.039  1.3306 -1.0291  0.0268
  763MOL0     H 2943   2.807   8.606   7.934 -1.2658 -0.4127 -0.6150
  763MOL0     H 2944   2.968   8.433   7.828  0.0845 -1.7632  1.8953
  763MOL0     H 2945   2.809   8.450   7.743 -0.3063  0.1968 -0.2868
  763MOL0     H 2946   2.856   8.239   7.958 -0.6002 -3.0100 -0.7784
  763MOL0     H 2947   2.721   8.255   7.845  0.7347 -0.1512  0.5969
  763MOL0     H 2948   2.865   8.066   7.750 -0.0878  0.1576 -0.7142
  763MOL0     H 2949   2.878   8.209   7.655 -2.8287  1.1060  0.4632
  763MOL0     H 2950   3.083   8.261   7.733 -1.9030 -0.8650 -2.6201
  763MOL0     H 2951   3.073   8.185   7.890  1.8575 -0.0303 -0.5567
  763MOL0     H 2952   3.189   7.995   7.809  1.8056 -0.6747 -1.6817
  763MOL0     H 2953   3.191   8.078   7.652 -2.5392 -0.2757 -1.5429
  763MOL0     H 2954   2.976   7.877   7.713 -1.1856 -0.9901 -0.6997
  763MOL0     H 2955   3.002   7.982   7.575 -0.6316 -2.4014 -1.6648
  763MOL0     H 2956   3.239   7.745   7.776  1.7880 -0.2356  0.1806
  763MOL0     H 2957   3.448   7.567   7.542 -0.1100 -3.2793 -0.3645
  763MOL0     H 2958   3.380   7.579   7.709 -2.0735  1.6962 -0.4450
  763MOL0     H 2959   3.215   7.414   7.635  0.4882 -2.3729 -0.2082
  763MOL0     H 2960   3.295   7.403   7.467 -1.2679 -0.4883 -0.7172
  763MOL0     H 2961   3.338   7.210   7.628  2.8392 -2.2490 -4.4279
  763MOL0     H 2962   3.431   7.321   7.730 -1.1931  3.1251  0.5124
  763MOL0     H 2963   3.503   7.254   7.437 -0.7040 -1.2017  0.4850
  763MOL0     H 2964   3.559   7.184   7.576 -0.7138  0.2704 -0.2479
  763MOL0     H 2965   3.791   7.549   7.665 -0.7218 -1.1397  0.3335
  763MOL0     H 2966   4.031   7.540   7.599  0.7759 -1.6577 -0.0689
  763MOL0     H 2967   4.378   7.242   7.436  0.4446  1.0876  0.3908
  763MOL0     H 2968   4.624   7.221   7.379 -3.6773 -3.9496  0.7245
  763MOL0     H 2969   4.813   7.364   7.321  1.9363  0.4947  0.3409
  763MOL0     H 2970   4.818   7.189   7.287 -2.4020  1.4968  2.3696
  763MOL0     H 2971   4.990   7.242   7.104 -0.6940  1.8463 -1.8508
  763MOL0     H 2972   4.980   7.407   7.145  2.2071 -0.9819 -0.5046
  763MOL0     H 2973   5.016   7.315   7.396 -1.9542 -3.1965  0.8717
  763MOL0     H 2974   5.085   7.175   7.319  0.0870  0.0222  1.3020
  763MOL0     H 2975   5.184   7.462   7.305 -2.9786 -0.1728 -1.9578
  763MOL0     H 2976   5.250   7.330   7.210  0.1523 -2.2444  1.1558
  763MOL0     H 2977   5.288   7.203   7.419  1.0958  0.8078 -0.1882
  763MOL0     H 2978   5.264   7.369   7.503  0.1422  0.0272  0.4006
  763MOL0     H 2979   5.466   7.287   7.281 -2.0102  1.4184 -1.9264
  763MOL0     H 2980   5.451   7.451   7.343  0.7834  0.1119  1.6252
  763MOL0     H 2981   5.505   7.216   7.535 -1.3743  1.6222  1.4142
  763MOL0     H 2982   5.490   7.390   7.570  1.6489  0.6868  0.6971
  763MOL0     H 2983   5.697   7.285   7.372 -0.7354 -1.4272  0.3950
  763MOL0     H 2984   5.701   7.433   7.451 -1.4488  0.0260 -2.2920
  763MOL0     H 2985   4.539   7.413   7.001 -0.8596  3.3547  2.2158
  763MOL0     H 2986   4.296   7.384   7.041 -0.5548  2.0112  1.7399
  763MOL0     H 2987   3.922   7.255   7.285 -0.2561  0.6269 -0.6192
  763MOL0     H 2988   3.708   7.240   7.377 -1.1315  2.0287  0.4759
  763MOL0     H 2989   2.357   8.508   7.758 -1.0289 -0.8081 -0.2972
  763MOL0     H 2990   2.136   8.618   7.808 -0.0754  0.7077 -0.6098
  763MOL0     H 2991   1.813   8.691   8.026 -0.6739 -0.8865  2.5781
  763MOL0     H 2992   1.595   8.781   8.076  0.5115 -0.7796 -1.0979
  763MOL0     H 2993   1.367   8.885   8.125 -0.8859 -1.8580 -2.9893
  763MOL0     H 2994   1.415   8.919   7.955 -3.1254 -0.3364 -1.4847
  763MOL0     H 2995   1.199   9.003   7.995  2.0756 -1.7431  0.1551
  763MOL0     H 2996   1.298   9.152   7.999  0.0525  0.7663  1.4811
  763MOL0     H 2997   1.258   9.197   8.218 -0.1676  1.1416 -2.3628
  763MOL0     H 2998   1.290   9.021   8.258 -0.9062 -4.2365 -3.5035
  763MOL0     H 2999   1.082   9.131   8.312  0.8547 -1.1352  0.5718
  763MOL0     H 3000   1.040   9.165   8.151  2.2131  2.5290  0.9754
  763MOL0     H 3001   0.960   8.743   8.189  2.0680 -1.0645  1.7474
  763MOL0     H 3002   1.706   9.180   8.030 -1.7684 -0.0586 -0.3438
  763MOL0     H 3003   2.043   9.148   7.916  0.2783  1.9174 -0.3250
  763MOL0     H 3004   1.940   9.238   8.024  1.6085  1.6115 -2.6115
  763MOL0     H 3005   2.049   9.104   8.093  0.0705  1.3903 -0.0993
  764MOL0     O 3006  10.227   6.264  10.929 -0.3531  0.7842  0.8327
  764MOL0     C 3007  10.122   6.307  10.973 -0.0230 -1.1165  0.2679
  764MOL0     O 3008  10.093   6.437  11.011 -0.1432  0.0855  0.7167
  764MOL0     C 3009  10.182   6.533  11.053  0.0511  0.9049  0.7941
  764MOL0     C 3010  10.318   6.520  11.066 -0.5023 -0.6015 -0.1816
  764MOL0     C 3011  10.403   6.628  11.094  0.5613  0.3082 -0.5197
  764MOL0     C 3012  10.337   6.753  11.120  0.8047 -0.4138 -0.4331
  764MOL0     O 3013  10.421   6.860  11.157  0.1636  0.9209  0.3272
  764MOL0     C 3014  10.381   6.918  11.282 -1.2971  0.0654 -0.7746
  764MOL0     C 3015  10.489   7.026  11.310 -0.3401 -0.6295 -0.4301
  764MOL0     C 3016  10.633   6.965  11.333 -0.0899  0.8388 -0.6165
  764MOL0     C 3017  10.725   7.069  11.373 -0.7106 -0.2175 -0.7016
  764MOL0     C 3018  10.865   7.007  11.419  0.1007  0.1603  0.0922
  764MOL0     C 3019  10.971   7.117  11.456 -0.6472 -0.0026 -0.0250
  764MOL0     C 3020  10.920   7.210  11.572  0.0927  0.3826 -0.4015
  764MOL0     C 3021  11.037   7.309  11.594  1.0634  0.7725  0.3552
  764MOL0     N 3022  11.136   7.254  11.674 -0.5869 -0.0801  0.3795
  764MOL0     C 3023  11.240   7.171  11.635  1.0524 -0.1673  1.1163
  764MOL0     C 3024  11.304   7.147  11.747  0.0324 -0.8431 -0.7190
  764MOL0     C 3025  11.429   7.063  11.744 -0.2369  1.0189 -0.6325
  764MOL0     C 3026  11.558   7.144  11.721  0.2148 -0.4434  0.5651
  764MOL0     C 3027  11.665   7.105  11.828  0.0245  0.1548  0.3652
  764MOL0     C 3028  11.801   7.182  11.816  0.0311  0.2680  0.3408
  764MOL0     O 3029  11.851   7.184  11.679  1.3321 -0.3537  0.4300
  764MOL0     C 3030  11.975   7.241  11.645 -0.2436 -0.5249  0.6584
  764MOL0     C 3031  12.043   7.209  11.531 -0.5050 -0.3391  0.3604
  764MOL0     C 3032  12.177   7.244  11.508  1.1875  0.0558  0.0099
  764MOL0     C 3033  12.237   7.332  11.602 -0.4226 -1.0796  0.1257
  764MOL0     C 3034  12.363   7.393  11.562  0.3098 -1.2105 -0.7943
  764MOL0     O 3035  12.406   7.505  11.622  0.3841 -0.2030 -0.4363
  764MOL0     C 3036  12.517   7.570  11.564  0.4500 -0.8784 -0.6821
  764MOL0     C 3037  12.644   7.510  11.554 -0.0352  0.1196  0.0249
  764MOL0     C 3038  12.750   7.588  11.516 -0.0206  0.4435  0.2604
  764MOL0     C 3039  12.732   7.730  11.501 -0.1130  0.3746  0.0406
  764MOL0     O 3040  12.830   7.812  11.456 -0.4283 -0.9906 -0.0575
  764MOL0     C 3041  12.964   7.765  11.420  0.9087  0.0632 -0.4720
  764MOL0     C 3042  13.055   7.857  11.343 -1.2680  1.0523  0.2921
  764MOL0     C 3043  13.175   7.782  11.283 -0.7531 -0.1044  0.9853
  764MOL0     C 3044  13.250   7.850  11.176  0.1641  0.4436 -0.0223
  764MOL0     C 3045  13.165   7.902  11.053  0.3990 -0.2094 -0.0931
  764MOL0     C 3046  13.260   7.950  10.942 -0.5394  0.6339 -0.0237
  764MOL0     C 3047  13.385   8.035  10.987  0.2071 -0.2189  0.4420
  764MOL0     C 3048  13.446   8.110  10.867 -0.6465 -0.5593  0.1127
  764MOL0    Cl 3049  13.560   8.010  10.781  0.1702  0.0408 -0.1689
  764MOL0     C 3050  12.606   7.788  11.520  0.1686 -0.1794 -0.0912
  764MOL0     C 3051  12.498   7.707  11.554 -0.9769 -0.0560 -0.3103
  764MOL0     O 3052  12.425   7.331  11.482  0.7333 -1.0439  0.8424
  764MOL0     C 3053  12.169   7.373  11.716 -0.0061 -0.2248 -0.8987
  764MOL0     C 3054  12.037   7.327  11.730 -0.5807  0.4533 -0.5932
  764MOL0     N 3055  11.244   7.213  11.854  0.1105  0.0743  0.2837
  764MOL0     N 3056  11.149   7.273  11.806  0.0272 -0.3823 -0.0332
  764MOL0     C 3057  10.197   6.760  11.115  0.8352  0.1528 -1.2782
  764MOL0     C 3058  10.118   6.654  11.076 -0.0286  0.5051 -0.0093
  764MOL0     C 3059  10.004   6.210  10.969  0.6682 -0.5248 -0.1406
  764MOL0     C 3060  10.033   6.073  10.955 -0.3849 -0.8408  1.3419
  764MOL0     C 3061   9.938   5.978  10.931 -0.5318 -0.6803  0.2041
  764MOL0     C 3062   9.809   6.018  10.929  0.0316  0.5231 -1.0302
  764MOL0     O 3063   9.719   5.920  10.916  0.8788 -0.0438 -0.0941
  764MOL0     C 3064   9.575   5.929  10.942 -0.1009 -0.1399  0.2585
  764MOL0     C 3065   9.508   5.991  10.820  0.8734 -1.0630 -0.3754
  764MOL0     C 3066   9.532   5.920  10.687 -0.0925  0.6900 -0.2861
  764MOL0     C 3067   9.445   5.969  10.569  0.2700  0.4235 -0.1362
  764MOL0     C 3068   9.295   5.956  10.580 -0.6698 -0.4521 -0.0677
  764MOL0     C 3069   9.178   5.947  10.576  1.0436 -0.3997  0.0726
  764MOL0     C 3070   9.770   6.150  10.949  1.1698 -0.3816 -0.2449
  764MOL0     C 3071   9.858   6.248  10.969 -0.5753 -0.7880 -0.7835
  764MOL0     C 3072   9.811   6.382  11.004 -1.3955 -0.4913 -0.1859
  764MOL0     H 3073  10.357   6.423  11.037 -3.4586 -2.8330  2.5633
  764MOL0     H 3074  10.510   6.634  11.111 -0.0188  2.6711  3.8380
  764MOL0     H 3075  10.280   6.960  11.279 -2.0738 -1.7413 -2.6979
  764MOL0     H 3076  10.390   6.851  11.368 -1.1782  1.6202  0.4669
  764MOL0     H 3077  10.456   7.079  11.400 -2.8653  1.1582 -2.2379
  764MOL0     H 3078  10.487   7.099  11.228 -1.1177 -0.8886 -0.6565
  764MOL0     H 3079  10.659   6.909  11.242 -2.2181  1.2850 -1.5717
  764MOL0     H 3080  10.634   6.896  11.418 -0.6091 -0.6134 -1.7374
  764MOL0     H 3081  10.739   7.147  11.298  2.0440 -0.0639 -0.1150
  764MOL0     H 3082  10.680   7.123  11.456 -0.8672 -2.3943  0.7292
  764MOL0     H 3083  10.854   6.947  11.510  0.2835  0.5059  0.3460
  764MOL0     H 3084  10.898   6.941  11.339  1.5727  0.2835  0.5577
  764MOL0     H 3085  11.064   7.061  11.471  0.6184  1.7934 -0.8527
  764MOL0     H 3086  10.986   7.180  11.368 -0.5114  0.5669  0.3986
  764MOL0     H 3087  10.899   7.152  11.662  0.4502  1.0606  0.1313
  764MOL0     H 3088  10.838   7.279  11.548  1.1033  0.5126 -3.9412
  764MOL0     H 3089  11.069   7.351  11.498  0.4267 -0.2742 -0.3361
  764MOL0     H 3090  10.989   7.394  11.644 -0.9449  0.3461 -0.7238
  764MOL0     H 3091  11.266   7.145  11.533  2.2182 -0.8219  1.5669
  764MOL0     H 3092  11.442   7.019  11.843 -0.3563  1.0048 -0.6237
  764MOL0     H 3093  11.421   6.977  11.677 -0.0544  1.7644 -1.6410
  764MOL0     H 3094  11.597   7.124  11.621  0.5413 -2.0164  0.9797
  764MOL0     H 3095  11.546   7.253  11.725 -1.5489 -0.6022  0.0735
  764MOL0     H 3096  11.690   6.999  11.825 -2.6050 -0.5241  0.0540
  764MOL0     H 3097  11.632   7.124  11.931 -0.2246 -1.8963  0.6994
  764MOL0     H 3098  11.879   7.140  11.880  1.1157  1.0926 -0.3941
  764MOL0     H 3099  11.781   7.285  11.845 -1.4336 -0.4109  1.9207
  764MOL0     H 3100  11.985   7.149  11.461 -0.0877 -1.4079  0.9076
  764MOL0     H 3101  12.238   7.219  11.421  4.0619 -0.1758  1.9636
  764MOL0     H 3102  12.672   7.405  11.551  0.6415  0.2943 -2.8552
  764MOL0     H 3103  12.846   7.545  11.489 -0.4940  0.1123 -0.9634
  764MOL0     H 3104  13.011   7.721  11.509 -0.2194 -1.0888 -0.4166
  764MOL0     H 3105  12.938   7.684  11.351 -1.0363 -1.1569  1.5462
  764MOL0     H 3106  12.999   7.918  11.271  1.6235  0.3504 -2.8511
  764MOL0     H 3107  13.089   7.934  11.412 -0.0939  0.1104  0.7841
  764MOL0     H 3108  13.257   7.773  11.355 -0.1228 -0.0406  0.2969
  764MOL0     H 3109  13.153   7.678  11.255 -1.5868  0.7118 -1.6066
  764MOL0     H 3110  13.326   7.778  11.146 -1.3721 -2.2668  2.1698
  764MOL0     H 3111  13.294   7.938  11.225 -1.0554 -0.3176  2.6247
  764MOL0     H 3112  13.104   7.989  11.079  2.4655  0.8267  1.6059
  764MOL0     H 3113  13.113   7.812  11.017 -0.7546  0.6841 -0.7405
  764MOL0     H 3114  13.306   7.864  10.893 -2.2631  0.2004 -0.9608
  764MOL0     H 3115  13.200   8.007  10.871 -0.9474  1.7995  1.2169
  764MOL0     H 3116  13.457   7.967  11.033 -2.1815 -4.2154 -1.1659
  764MOL0     H 3117  13.363   8.103  11.071  2.1715  0.6193  0.3282
  764MOL0     H 3118  13.370   8.143  10.795  1.9449  0.1063 -2.4835
  764MOL0     H 3119  13.487   8.205  10.903 -1.3645 -0.6744  1.3126
  764MOL0     H 3120  12.588   7.893  11.501  0.7026  0.9077  4.3278
  764MOL0     H 3121  12.404   7.755  11.578  0.1596  1.9171  0.5070
  764MOL0     H 3122  12.202   7.434  11.799  1.3864 -0.5040 -1.2146
  764MOL0     H 3123  11.977   7.370  11.809 -1.4791  0.5498 -1.3105
  764MOL0     H 3124  10.158   6.855  11.151  1.6227 -0.4643  1.4251
  764MOL0     H 3125  10.012   6.671  11.056  0.0813  2.4067  0.8440
  764MOL0     H 3126  10.138   6.051  10.971  0.8332  1.0302 -2.6871
  764MOL0     H 3127   9.974   5.875  10.930  0.9482 -0.1941 -0.0034
  764MOL0     H 3128   9.555   5.989  11.031 -1.5178  0.0810 -0.1802
  764MOL0     H 3129   9.532   5.831  10.964  0.1564 -0.5308 -0.8658
  764MOL0     H 3130   9.543   6.095  10.817  0.5231 -0.9375 -0.2140
  764MOL0     H 3131   9.402   5.992  10.849  1.6705 -0.1852  2.9814
  764MOL0     H 3132   9.505   5.815  10.700 -0.8644  0.4823 -2.8865
  764MOL0     H 3133   9.640   5.938  10.676 -0.5502  3.8542 -0.4659
  764MOL0     H 3134   9.473   6.072  10.548  1.2448  0.4306  1.0834
  764MOL0     H 3135   9.463   5.907  10.480 -0.5359  1.6456 -1.1785
  764MOL0     H 3136   9.076   5.914  10.571  0.7819  0.3692  0.1435
  764MOL0     H 3137   9.667   6.183  10.963  1.0537 -0.0208 -1.7478
  764MOL0     H 3138   9.715   6.380  11.058 -1.2174  0.7568  0.2187
  764MOL0     H 3139   9.872   6.426  11.084 -0.8111 -0.0489 -0.8663
  764MOL0     H 3140   9.783   6.435  10.912  0.2504 -0.5796 -0.7584
  765MOL0     O 3141   9.635   3.211   5.518  0.2606 -0.2887 -0.5883
  765MOL0     C 3142   9.614   3.320   5.475 -0.5353 -1.2852  0.9318
  765MOL0     O 3143   9.707   3.423   5.452  0.1877  0.0373 -0.4752
  765MOL0     C 3144   9.838   3.385   5.464 -0.8830 -0.0094  0.4539
  765MOL0     C 3145   9.902   3.447   5.572  0.0906 -0.0742  0.4529
  765MOL0     C 3146  10.037   3.418   5.582  0.3270 -0.1697  0.0594
  765MOL0     C 3147  10.103   3.344   5.483  0.6545  0.3016  0.0709
  765MOL0     O 3148  10.240   3.324   5.503  0.2806 -0.7968 -0.3043
  765MOL0     C 3149  10.320   3.264   5.403  0.0372  0.2670 -0.8706
  765MOL0     C 3150  10.468   3.255   5.454 -0.0749  0.3945  0.1570
  765MOL0     C 3151  10.494   3.164   5.570 -0.3886 -0.6428  0.0680
  765MOL0     C 3152  10.639   3.181   5.636 -0.9411 -0.1012 -0.3144
  765MOL0     C 3153  10.656   3.118   5.778 -0.3137 -0.3334  0.1867
  765MOL0     C 3154  10.789   3.146   5.839 -0.1394 -0.3147 -0.7498
  765MOL0     C 3155  10.820   3.060   5.974 -0.9895  0.6262 -0.1231
  765MOL0     C 3156  10.753   3.109   6.100 -0.0922  0.9738  0.2011
  765MOL0     N 3157  10.806   3.031   6.215  0.0499 -0.0093 -0.0370
  765MOL0     C 3158  10.934   3.031   6.269 -0.1246  0.0909 -0.0213
  765MOL0     C 3159  10.924   2.966   6.384 -0.7476 -0.0054  0.2928
  765MOL0     C 3160  11.046   2.943   6.469 -0.8732  0.9360  0.1338
  765MOL0     C 3161  11.175   2.904   6.395 -0.2676 -0.2455 -0.6914
  765MOL0     C 3162  11.280   2.893   6.506  0.6577  0.5231  0.6389
  765MOL0     C 3163  11.420   2.898   6.449 -0.4527  0.2688 -0.7513
  765MOL0     O 3164  11.463   2.761   6.424  0.3324  0.4373 -1.0744
  765MOL0     C 3165  11.606   2.738   6.416  0.4180  0.0371  0.3726
  765MOL0     C 3166  11.697   2.842   6.409 -0.5849  0.1207 -0.2005
  765MOL0     C 3167  11.843   2.821   6.406  0.3426 -0.1214  0.3684
  765MOL0     C 3168  11.888   2.689   6.410  0.4066 -1.0393 -0.1320
  765MOL0     C 3169  12.034   2.663   6.430 -0.3099  0.5611  0.5596
  765MOL0     O 3170  12.057   2.550   6.505 -0.2816  0.0241  0.4679
  765MOL0     C 3171  12.172   2.513   6.564  0.0584 -0.1582  1.2623
  765MOL0     C 3172  12.300   2.573   6.540  0.0967 -0.2084  0.3833
  765MOL0     C 3173  12.419   2.530   6.596 -0.4127 -0.4367  0.7479
  765MOL0     C 3174  12.418   2.416   6.673 -0.1475 -0.5657 -1.1509
  765MOL0     O 3175  12.534   2.381   6.738 -0.0523  0.2247 -0.5999
  765MOL0     C 3176  12.661   2.395   6.675  0.6268 -0.5961  0.5751
  765MOL0     C 3177  12.664   2.332   6.534 -0.1628  0.0034 -0.5942
  765MOL0     C 3178  12.803   2.294   6.478  0.1321  0.8361  0.5534
  765MOL0     C 3179  12.849   2.160   6.526  0.3361  0.4172 -1.4950
  765MOL0     C 3180  12.987   2.130   6.479 -0.3535  0.8427  0.3403
  765MOL0     C 3181  13.033   2.006   6.540  0.7875 -0.1151  0.0257
  765MOL0     C 3182  13.182   1.975   6.497 -0.0902  0.3006 -0.1749
  765MOL0     C 3183  13.237   1.872   6.600  0.4217 -0.6244  0.1652
  765MOL0    Cl 3184  13.406   1.840   6.559 -0.1092 -0.1619  0.4445
  765MOL0     C 3185  12.299   2.359   6.703  0.4402  0.0271  0.7801
  765MOL0     C 3186  12.175   2.395   6.647 -0.0862 -0.7326 -0.8976
  765MOL0     O 3187  12.113   2.753   6.397 -0.3781  0.0569 -1.0932
  765MOL0     C 3188  11.792   2.589   6.433 -0.1420 -0.1458 -0.1542
  765MOL0     C 3189  11.657   2.609   6.436  0.3048  0.0986  0.2032
  765MOL0     N 3190  10.797   2.917   6.392  0.2767 -0.0349 -0.6486
  765MOL0     N 3191  10.727   2.955   6.297  0.1663  0.4784  0.2842
  765MOL0     C 3192  10.040   3.296   5.368 -0.0194  1.3847 -0.8893
  765MOL0     C 3193   9.903   3.310   5.366  0.4733  0.0550 -0.7977
  765MOL0     C 3194   9.469   3.366   5.439  0.2535  0.3996 -0.3950
  765MOL0     C 3195   9.437   3.500   5.403 -0.4282  0.3146 -1.0322
  765MOL0     C 3196   9.309   3.548   5.370 -0.0930  0.3701 -0.3769
  765MOL0     C 3197   9.204   3.453   5.356 -1.6995  0.2216 -0.7019
  765MOL0     O 3198   9.075   3.490   5.320 -0.0690 -0.3649 -0.0714
  765MOL0     C 3199   9.034   3.627   5.336 -0.0769  1.1074  0.8858
  765MOL0     C 3200   8.884   3.648   5.300 -0.8260 -1.1912  0.2012
  765MOL0     C 3201   8.839   3.677   5.155 -0.1239  0.0195 -0.5521
  765MOL0     C 3202   8.688   3.679   5.129 -0.0434 -0.1684 -0.0200
  765MOL0     C 3203   8.629   3.542   5.137 -0.1807 -0.4419 -0.4242
  765MOL0     C 3204   8.582   3.432   5.143  0.3826 -0.1905 -0.8909
  765MOL0     C 3205   9.233   3.316   5.382  0.6582 -0.2402 -0.4617
  765MOL0     C 3206   9.360   3.277   5.413  0.1354  0.0117 -0.7869
  765MOL0     C 3207   9.374   3.128   5.431 -0.2408  0.1025 -0.0255
  765MOL0     H 3208   9.857   3.511   5.647  1.0485  1.1511  0.0138
  765MOL0     H 3209  10.089   3.466   5.664 -0.4491 -1.1121  1.1219
  765MOL0     H 3210  10.283   3.163   5.385 -2.3029  0.7793  0.6110
  765MOL0     H 3211  10.318   3.319   5.308 -1.0667  2.3552  0.2950
  765MOL0     H 3212  10.502   3.359   5.463  1.5524 -0.1534  0.5035
  765MOL0     H 3213  10.538   3.210   5.384 -0.2344 -0.7706  0.7296
  765MOL0     H 3214  10.481   3.058   5.545  0.5154 -0.8390  0.3716
  765MOL0     H 3215  10.420   3.186   5.648  0.7827 -1.1480  1.3817
  765MOL0     H 3216  10.709   3.136   5.565  0.2770  0.1725  0.6626
  765MOL0     H 3217  10.669   3.286   5.625 -1.7963  0.4354  1.9072
  765MOL0     H 3218  10.578   3.155   5.845 -1.2485  0.4835 -1.2914
  765MOL0     H 3219  10.649   3.009   5.768 -1.8582 -0.3918  1.4406
  765MOL0     H 3220  10.856   3.122   5.755  1.0233 -0.2824  0.1374
  765MOL0     H 3221  10.795   3.250   5.870  1.6865 -0.9033  1.0758
  765MOL0     H 3222  10.927   3.071   5.996 -0.5639 -3.4844  0.6953
  765MOL0     H 3223  10.798   2.955   5.953  0.5411  0.3140 -0.2752
  765MOL0     H 3224  10.756   3.216   6.124  1.4800  0.0984  4.9257
  765MOL0     H 3225  10.647   3.086   6.087  0.4250 -2.0002  0.6546
  765MOL0     H 3226  11.019   3.093   6.239 -0.7908  1.6607  1.2145
  765MOL0     H 3227  11.069   3.043   6.506  0.4904  1.6279 -2.3626
  765MOL0     H 3228  11.017   2.863   6.538 -2.3570  0.6373 -0.7808
  765MOL0     H 3229  11.157   2.801   6.363  1.7005 -0.1467 -2.3501
  765MOL0     H 3230  11.195   2.974   6.314  0.4134 -1.3763 -1.5368
  765MOL0     H 3231  11.266   2.801   6.564 -1.0510 -0.4540 -1.2028
  765MOL0     H 3232  11.269   2.982   6.569 -2.5719  0.6379  0.0840
  765MOL0     H 3233  11.481   2.938   6.530 -0.5476 -0.0758 -0.5102
  765MOL0     H 3234  11.439   2.972   6.370  0.2136  0.5653 -0.3207
  765MOL0     H 3235  11.676   2.948   6.402  4.2089  1.3239  0.0928
  765MOL0     H 3236  11.917   2.898   6.393 -2.3789  2.4269 -1.3449
  765MOL0     H 3237  12.315   2.665   6.484  3.1146 -1.9519 -1.9936
  765MOL0     H 3238  12.507   2.583   6.562 -1.1671  0.2249 -0.2370
  765MOL0     H 3239  12.694   2.499   6.667 -3.3949  0.8465  0.4795
  765MOL0     H 3240  12.732   2.335   6.733 -1.1468 -4.2002 -0.7157
  765MOL0     H 3241  12.600   2.243   6.537 -0.8732  0.5415  0.6874
  765MOL0     H 3242  12.621   2.405   6.464  0.0965 -0.1451 -0.9144
  765MOL0     H 3243  12.800   2.302   6.369 -0.8223  1.8042  0.6302
  765MOL0     H 3244  12.871   2.374   6.508  0.4623  0.7598  0.0231
  765MOL0     H 3245  12.787   2.076   6.494  0.6999 -0.0232 -1.0573
  765MOL0     H 3246  12.841   2.152   6.635 -0.1921 -2.4414 -1.6656
  765MOL0     H 3247  13.046   2.207   6.530 -4.0907  4.7260 -0.6101
  765MOL0     H 3248  12.996   2.127   6.370 -2.8487 -0.5215  0.0915
  765MOL0     H 3249  13.019   2.013   6.649 -0.1012 -3.4691  0.2445
  765MOL0     H 3250  12.965   1.924   6.517 -0.3779  0.2622  1.9117
  765MOL0     H 3251  13.253   2.058   6.489  0.1794  0.2200  1.1260
  765MOL0     H 3252  13.167   1.922   6.403 -0.5913 -0.5687  0.3813
  765MOL0     H 3253  13.235   1.912   6.702 -0.8742  2.5028 -0.9748
  765MOL0     H 3254  13.178   1.782   6.583  0.7912 -0.4526 -2.4454
  765MOL0     H 3255  12.300   2.275   6.772  1.6873 -0.8303 -0.2275
  765MOL0     H 3256  12.080   2.347   6.669 -0.0203 -1.2555 -1.6935
  765MOL0     H 3257  11.828   2.488   6.451  1.8537  0.8324  1.9602
  765MOL0     H 3258  11.592   2.525   6.458  0.3764 -0.6536 -2.2486
  765MOL0     H 3259  10.090   3.250   5.283  1.7385  0.8059  0.4183
  765MOL0     H 3260   9.859   3.257   5.282 -2.2699 -3.6438  2.5575
  765MOL0     H 3261   9.509   3.582   5.402  0.9481 -0.8666 -2.2548
  765MOL0     H 3262   9.297   3.655   5.360 -2.1927  0.2124  0.0025
  765MOL0     H 3263   9.091   3.698   5.277 -3.2825  3.0850 -0.0963
  765MOL0     H 3264   9.042   3.653   5.442 -1.1229 -2.8738  2.1395
  765MOL0     H 3265   8.846   3.736   5.354 -0.0349 -1.0063  0.4665
  765MOL0     H 3266   8.834   3.555   5.329 -0.5605 -1.1693  0.7398
  765MOL0     H 3267   8.888   3.607   5.087 -1.7522  1.1647 -3.0547
  765MOL0     H 3268   8.872   3.778   5.127 -2.0578  0.2128 -2.4308
  765MOL0     H 3269   8.662   3.748   5.210 -1.1130 -0.3136 -0.2315
  765MOL0     H 3270   8.672   3.734   5.036  0.0745  3.0890  1.7187
  765MOL0     H 3271   8.548   3.331   5.146  1.0305 -0.4770 -2.2424
  765MOL0     H 3272   9.149   3.251   5.360  0.4743 -0.1734  0.0213
  765MOL0     H 3273   9.409   3.108   5.533  5.0446 -1.5823 -1.8370
  765MOL0     H 3274   9.279   3.076   5.417 -1.6148  2.8799 -1.8517
  765MOL0     H 3275   9.450   3.083   5.366 -0.1089 -2.0539  1.4766
  766MOL0     O 3276  10.327   1.613   8.697 -0.8408  0.5533 -0.2812
  766MOL0     C 3277  10.284   1.629   8.584  0.3280 -0.5162  0.7954
  766MOL0     O 3278  10.342   1.719   8.490  0.2758  0.7232 -0.7818
  766MOL0     C 3279  10.470   1.756   8.488 -0.5196 -0.3504  0.1407
  766MOL0     C 3280  10.588   1.718   8.564  0.7358 -0.3134  0.0958
  766MOL0     C 3281  10.716   1.777   8.533  0.8006  0.2481  0.2282
  766MOL0     C 3282  10.730   1.873   8.435 -1.1148 -0.2949  0.0351
  766MOL0     O 3283  10.845   1.931   8.401  1.0585 -0.0701 -0.1276
  766MOL0     C 3284  10.952   1.975   8.501  0.4303  0.7890 -0.2584
  766MOL0     C 3285  10.993   2.111   8.459 -0.3043 -0.2442 -0.3581
  766MOL0     C 3286  10.892   2.228   8.489  0.8733  0.8467 -0.2718
  766MOL0     C 3287  10.855   2.256   8.631  0.1707 -0.2696  0.6444
  766MOL0     C 3288  10.772   2.385   8.647  0.2529 -0.7006  0.7799
  766MOL0     C 3289  10.736   2.427   8.787  0.2678  0.6315  0.2033
  766MOL0     C 3290  10.851   2.482   8.872  0.0136 -0.4714  0.3504
  766MOL0     C 3291  10.819   2.484   9.027  0.6120  1.0003  0.1975
  766MOL0     N 3292  10.929   2.537   9.111  0.4420  0.0322  0.5578
  766MOL0     C 3293  11.006   2.447   9.176 -1.3732 -0.9519 -0.2092
  766MOL0     C 3294  11.101   2.515   9.240  0.2411 -0.2557 -0.2562
  766MOL0     C 3295  11.214   2.451   9.319 -0.1798 -0.8975  0.3809
  766MOL0     C 3296  11.252   2.535   9.442 -0.3178 -0.3265 -0.6769
  766MOL0     C 3297  11.130   2.558   9.534  0.0696 -0.7074  0.4585
  766MOL0     C 3298  11.163   2.577   9.687  0.7594 -0.9317  0.3466
  766MOL0     O 3299  11.248   2.694   9.713  0.0157 -0.6016  0.4688
  766MOL0     C 3300  11.378   2.680   9.752 -0.7347  0.1175 -0.8006
  766MOL0     C 3301  11.443   2.799   9.752 -0.3830  0.2825 -0.4175
  766MOL0     C 3302  11.579   2.813   9.792  0.2000 -0.1253  0.1865
  766MOL0     C 3303  11.660   2.710   9.823  0.2451 -0.2827 -0.3979
  766MOL0     C 3304  11.805   2.732   9.849  0.4305 -0.3385  0.3683
  766MOL0     O 3305  11.860   2.860   9.855  0.1808  1.1389  0.0844
  766MOL0     C 3306  11.991   2.893   9.881  0.4318 -0.7628 -0.3465
  766MOL0     C 3307  12.099   2.818   9.848  0.0654 -0.4884  0.3243
  766MOL0     C 3308  12.226   2.858   9.898  0.2496  1.0929  0.1232
  766MOL0     C 3309  12.242   2.975   9.975  0.3619 -0.1146  0.2282
  766MOL0     O 3310  12.360   3.036  10.023 -0.1128  0.8401 -0.1132
  766MOL0     C 3311  12.483   2.983   9.969  0.4888  0.4787 -0.2553
  766MOL0     C 3312  12.581   3.100   9.947 -0.3974 -0.3960 -0.2963
  766MOL0     C 3313  12.530   3.220   9.864  0.0105  0.6656  0.1987
  766MOL0     C 3314  12.442   3.316   9.934  0.5200  0.0446  0.0581
  766MOL0     C 3315  12.377   3.423   9.841  0.0629 -0.8204 -0.2720
  766MOL0     C 3316  12.483   3.536   9.805  0.2783  0.4557 -0.8275
  766MOL0     C 3317  12.420   3.629   9.702  0.6008  0.2090  0.2990
  766MOL0     C 3318  12.517   3.723   9.640  0.3479 -0.1445  0.3307
  766MOL0    Cl 3319  12.637   3.786   9.762 -0.2442 -0.3891 -0.0933
  766MOL0     C 3320  12.124   3.041  10.012 -0.2698 -0.6807 -0.1862
  766MOL0     C 3321  12.000   2.999   9.974 -0.0540 -0.4148  1.1372
  766MOL0     O 3322  11.863   2.633   9.875 -0.0185  0.0952  0.6733
  766MOL0     C 3323  11.599   2.580   9.826 -0.0400  0.1865 -0.7301
  766MOL0     C 3324  11.459   2.574   9.806  0.1256 -0.2783  0.2209
  766MOL0     N 3325  11.084   2.650   9.200 -0.0866 -0.1621 -0.5851
  766MOL0     N 3326  10.979   2.655   9.125 -0.5575 -0.4083 -0.6512
  766MOL0     C 3327  10.614   1.918   8.371  0.2366  0.3059 -0.2338
  766MOL0     C 3328  10.481   1.861   8.399 -0.0218 -1.0365  0.0380
  766MOL0     C 3329  10.152   1.589   8.567  0.0414  0.2225 -0.0778
  766MOL0     C 3330  10.063   1.676   8.507 -1.1177  0.0378 -0.4868
  766MOL0     C 3331   9.932   1.649   8.490 -0.7497 -0.4599 -0.3108
  766MOL0     C 3332   9.881   1.528   8.540  0.1218  0.6604 -0.0207
  766MOL0     O 3333   9.741   1.514   8.545 -0.3283 -0.6072 -0.5427
  766MOL0     C 3334   9.655   1.636   8.525 -0.5717 -0.9560  0.4358
  766MOL0     C 3335   9.521   1.615   8.589  0.8190 -0.6981 -1.3164
  766MOL0     C 3336   9.431   1.738   8.563 -0.9454  0.0288 -0.3545
  766MOL0     C 3337   9.400   1.757   8.414 -1.3837  0.2383  0.9365
  766MOL0     C 3338   9.263   1.803   8.413  0.3230  0.9164  0.4991
  766MOL0     C 3339   9.150   1.843   8.424  0.6303 -0.6301 -0.3319
  766MOL0     C 3340   9.966   1.431   8.594 -0.6328  0.2096  0.2728
  766MOL0     C 3341  10.107   1.464   8.613  0.1026  0.0001 -0.0034
  766MOL0     C 3342  10.187   1.364   8.680 -0.3209  0.3029 -0.3853
  766MOL0     H 3343  10.574   1.651   8.649  1.0075 -0.5161 -0.0175
  766MOL0     H 3344  10.796   1.749   8.601  1.5865  1.0664 -0.3291
  766MOL0     H 3345  10.931   1.974   8.609  0.4677  0.5257 -0.2527
  766MOL0     H 3346  11.040   1.910   8.508 -0.2905 -0.2733 -0.7812
  766MOL0     H 3347  10.994   2.111   8.350  1.1237  0.3128 -0.3711
  766MOL0     H 3348  11.095   2.137   8.488 -0.5244  0.3215 -0.0818
  766MOL0     H 3349  10.804   2.221   8.424  2.9741 -1.2533 -3.1418
  766MOL0     H 3350  10.937   2.325   8.465  1.4007  0.6478 -0.1016
  766MOL0     H 3351  10.803   2.173   8.680  4.8483 -2.3316  2.7176
  766MOL0     H 3352  10.948   2.278   8.683  1.4701  1.0188 -2.0248
  766MOL0     H 3353  10.806   2.466   8.582 -0.8373 -0.7132  0.1638
  766MOL0     H 3354  10.684   2.352   8.590  2.0145 -1.0861 -1.9156
  766MOL0     H 3355  10.646   2.490   8.781  0.7873  1.2916 -0.8821
  766MOL0     H 3356  10.688   2.341   8.836  0.8513 -0.5444 -1.2056
  766MOL0     H 3357  10.878   2.585   8.845 -0.9022 -0.2347  0.2750
  766MOL0     H 3358  10.940   2.420   8.862  0.1534 -0.0260 -1.4134
  766MOL0     H 3359  10.733   2.550   9.042 -0.5799 -0.3554 -0.4544
  766MOL0     H 3360  10.793   2.382   9.054 -2.0613  0.7608 -2.7272
  766MOL0     H 3361  10.993   2.341   9.191 -0.0822 -0.9918  0.8668
  766MOL0     H 3362  11.196   2.350   9.356  1.6218 -0.1596  3.6697
  766MOL0     H 3363  11.301   2.458   9.253  0.6881 -1.4971  1.4315
  766MOL0     H 3364  11.321   2.477   9.503  0.3686  1.4439  0.3139
  766MOL0     H 3365  11.307   2.624   9.410 -0.5894  0.2109  0.3117
  766MOL0     H 3366  11.063   2.471   9.529 -2.2699  0.9590  1.3051
  766MOL0     H 3367  11.076   2.644   9.493  2.5282  0.4592 -0.4944
  766MOL0     H 3368  11.212   2.485   9.720  0.8991 -1.1902 -0.5660
  766MOL0     H 3369  11.072   2.600   9.744  0.2141 -1.8332 -0.1466
  766MOL0     H 3370  11.401   2.892   9.716  0.1836  0.1992 -1.3383
  766MOL0     H 3371  11.619   2.914   9.790 -3.9783  1.7811 -2.8003
  766MOL0     H 3372  12.091   2.727   9.790  1.6468 -1.5011  1.6047
  766MOL0     H 3373  12.304   2.788   9.872  0.1366  2.0226 -3.1048
  766MOL0     H 3374  12.525   2.911  10.039 -0.0831 -0.3868 -0.7944
  766MOL0     H 3375  12.476   2.934   9.871  3.2392  2.1545 -1.4286
  766MOL0     H 3376  12.616   3.146  10.040 -1.8016  0.1278  0.0042
  766MOL0     H 3377  12.669   3.056   9.899 -1.3253 -3.4776  0.6075
  766MOL0     H 3378  12.624   3.268   9.836  2.5088 -1.5610  3.9324
  766MOL0     H 3379  12.470   3.190   9.778 -2.6410  0.9598  1.8303
  766MOL0     H 3380  12.499   3.361  10.016  0.6588  1.3998 -0.7626
  766MOL0     H 3381  12.357   3.266   9.982  0.1781 -1.1196 -1.6616
  766MOL0     H 3382  12.295   3.474   9.893  0.2445 -1.2095  0.4179
  766MOL0     H 3383  12.336   3.379   9.750  0.8612  1.9336 -2.0993
  766MOL0     H 3384  12.506   3.590   9.897 -1.0582 -0.0314 -0.1807
  766MOL0     H 3385  12.580   3.498   9.772  0.8783  2.2300 -1.2268
  766MOL0     H 3386  12.335   3.675   9.755 -1.7218 -2.1942 -1.0910
  766MOL0     H 3387  12.375   3.554   9.636  0.2791 -0.5166  1.3044
  766MOL0     H 3388  12.576   3.682   9.558 -1.7308  0.3092 -1.4900
  766MOL0     H 3389  12.458   3.808   9.606 -1.4365 -1.5141 -0.1987
  766MOL0     H 3390  12.133   3.135  10.065 -1.2979 -1.3962  1.3454
  766MOL0     H 3391  11.909   3.056   9.991  0.6589  1.6760 -1.4532
  766MOL0     H 3392  11.641   2.491   9.873 -0.2271  0.6482  0.3452
  766MOL0     H 3393  11.415   2.476   9.820  1.5227 -0.9002  0.4445
  766MOL0     H 3394  10.618   2.000   8.301 -1.3596 -0.2744 -1.0501
  766MOL0     H 3395  10.386   1.884   8.351 -1.3370 -1.4526  2.2641
  766MOL0     H 3396  10.111   1.773   8.495 -1.0628  0.0192 -0.4210
  766MOL0     H 3397   9.873   1.730   8.449  2.9522  2.4867 -0.3810
  766MOL0     H 3398   9.633   1.654   8.419  1.6353  2.4896  0.4029
  766MOL0     H 3399   9.694   1.730   8.566 -0.5782  0.6734 -2.9358
  766MOL0     H 3400   9.553   1.596   8.692  2.3416 -0.9882 -1.8148
  766MOL0     H 3401   9.479   1.522   8.548  1.1773 -0.8506 -1.3498
  766MOL0     H 3402   9.465   1.835   8.601  0.3762 -0.8430  0.7999
  766MOL0     H 3403   9.347   1.726   8.632  0.4325  1.9100  1.7849
  766MOL0     H 3404   9.462   1.833   8.366 -0.1904 -0.1799  1.7572
  766MOL0     H 3405   9.403   1.668   8.351  2.3552  2.6932 -2.9023
  766MOL0     H 3406   9.045   1.862   8.432  1.1202  3.0085 -0.8979
  766MOL0     H 3407   9.931   1.345   8.650 -0.4348  1.6204  2.7532
  766MOL0     H 3408  10.285   1.333   8.641 -0.1059 -1.5322  1.4550
  766MOL0     H 3409  10.204   1.394   8.784  2.2342 -1.1984 -0.2701
  766MOL0     H 3410  10.137   1.268   8.662  0.1698  0.2134 -1.3547
  767MOL0     O 3411   6.030   2.324   1.335  0.2303  0.8455  0.0302
  767MOL0     C 3412   6.080   2.392   1.427  0.7268  0.0758 -0.4944
  767MOL0     O 3413   6.010   2.475   1.504 -0.2946 -0.2022  0.0396
  767MOL0     C 3414   5.881   2.467   1.512  0.2635 -0.9918  0.9590
  767MOL0     C 3415   5.808   2.582   1.478 -0.3372  0.0593  0.1856
  767MOL0     C 3416   5.663   2.589   1.490  0.3350  1.1675 -0.3409
  767MOL0     C 3417   5.595   2.466   1.521  0.0408 -0.1157 -0.2760
  767MOL0     O 3418   5.457   2.459   1.539 -0.4589 -0.7520 -0.2996
  767MOL0     C 3419   5.385   2.582   1.562 -1.3697  0.7259 -0.1989
  767MOL0     C 3420   5.242   2.532   1.569  0.2402  0.2937  0.1794
  767MOL0     C 3421   5.132   2.636   1.576  0.3375 -0.2992 -0.0538
  767MOL0     C 3422   4.994   2.570   1.564 -0.0948 -0.1562  0.1719
  767MOL0     C 3423   4.882   2.677   1.540 -0.4608 -0.0859 -0.0163
  767MOL0     C 3424   4.889   2.730   1.398 -0.3943  0.9993  0.7069
  767MOL0     C 3425   4.749   2.773   1.343 -0.3501 -0.2204 -0.2112
  767MOL0     C 3426   4.678   2.863   1.440 -0.7476 -0.6883 -0.1919
  767MOL0     N 3427   4.547   2.901   1.382  0.3578 -0.8387  0.4432
  767MOL0     C 3428   4.425   2.842   1.385 -0.6136  0.5934 -0.4575
  767MOL0     C 3429   4.346   2.933   1.321  0.4611 -0.3441  0.1241
  767MOL0     C 3430   4.204   2.902   1.283  0.0371 -0.6821  0.6402
  767MOL0     C 3431   4.101   2.932   1.401 -0.5882  0.8181  0.6672
  767MOL0     C 3432   3.964   2.854   1.376  1.1778  0.7260  0.5322
  767MOL0     C 3433   3.882   2.911   1.270  0.3947 -0.2524  0.5124
  767MOL0     O 3434   3.866   3.051   1.306 -0.2213 -0.1492 -0.4354
  767MOL0     C 3435   3.768   3.124   1.247 -0.8769  0.0936  0.6828
  767MOL0     C 3436   3.703   3.077   1.139 -0.4334 -0.4144  0.6147
  767MOL0     C 3437   3.602   3.149   1.076  0.7097  0.2899 -0.3525
  767MOL0     C 3438   3.537   3.258   1.137 -0.1917 -0.4876  0.0667
  767MOL0     C 3439   3.408   3.315   1.091  0.0607 -0.7743 -0.2588
  767MOL0     O 3440   3.328   3.221   1.022  0.4558 -0.3156  0.3570
  767MOL0     C 3441   3.221   3.256   0.948  0.8171  0.2533  0.2474
  767MOL0     C 3442   3.210   3.372   0.874  0.7999 -0.6850 -1.0845
  767MOL0     C 3443   3.097   3.395   0.789 -0.1496  0.0548  0.3033
  767MOL0     C 3444   3.008   3.297   0.767 -0.1614 -0.3718 -0.5022
  767MOL0     O 3445   2.917   3.332   0.669 -0.0884  0.1746 -0.8550
  767MOL0     C 3446   2.894   3.235   0.569 -0.8624 -0.0078  0.1852
  767MOL0     C 3447   2.755   3.191   0.569 -0.0157  1.3458 -0.8974
  767MOL0     C 3448   2.646   3.286   0.518  0.0701  0.0263  0.2617
  767MOL0     C 3449   2.502   3.229   0.538 -0.0516  0.0678 -1.0654
  767MOL0     C 3450   2.383   3.321   0.491 -0.1896  0.2812  0.3423
  767MOL0     C 3451   2.376   3.295   0.341 -0.4589 -0.5191 -0.0102
  767MOL0     C 3452   2.278   3.408   0.291  0.4699 -0.6581 -0.2699
  767MOL0     C 3453   2.257   3.427   0.142  0.4165 -0.5376  0.1081
  767MOL0    Cl 3454   2.129   3.555   0.122 -0.3534 -0.0975 -0.0103
  767MOL0     C 3455   3.027   3.170   0.822  0.1974  0.7442 -0.2228
  767MOL0     C 3456   3.136   3.149   0.913  0.4006  0.1523 -0.4397
  767MOL0     O 3457   3.382   3.432   1.112  0.2261 -0.1711 -0.0896
  767MOL0     C 3458   3.601   3.312   1.251  0.0446 -0.6202  0.8725
  767MOL0     C 3459   3.721   3.248   1.302 -0.1560 -0.3727  0.2511
  767MOL0     N 3460   4.425   3.031   1.273 -0.0446 -0.1778  1.0955
  767MOL0     N 3461   4.545   3.019   1.315  0.4477 -0.8699 -0.5405
  767MOL0     C 3462   5.663   2.350   1.533 -0.5349  0.7639 -0.4023
  767MOL0     C 3463   5.807   2.348   1.534  0.1357  0.0763  0.2630
  767MOL0     C 3464   6.228   2.400   1.447 -0.0391 -0.7024 -1.1522
  767MOL0     C 3465   6.294   2.517   1.422  0.2040  0.6238 -0.4477
  767MOL0     C 3466   6.431   2.535   1.442 -0.3258  0.7654  0.4840
  767MOL0     C 3467   6.500   2.418   1.491  1.1207 -0.4822  0.2651
  767MOL0     O 3468   6.633   2.428   1.516  0.6321 -0.0601 -0.3989
  767MOL0     C 3469   6.690   2.551   1.577  0.7761  0.0311 -0.2839
  767MOL0     C 3470   6.810   2.540   1.669  0.0102 -0.5630 -0.5930
  767MOL0     C 3471   6.837   2.675   1.727  0.1258 -0.3545 -0.8934
  767MOL0     C 3472   6.910   2.675   1.859 -0.0494  0.4070 -0.2375
  767MOL0     C 3473   6.892   2.800   1.934  0.6024  0.8989 -0.0718
  767MOL0     C 3474   6.872   2.901   2.000 -0.1054  0.1699 -0.6916
  767MOL0     C 3475   6.433   2.300   1.511  0.0569 -0.4689  0.0231
  767MOL0     C 3476   6.290   2.285   1.497  0.6575 -0.0353 -0.9254
  767MOL0     C 3477   6.226   2.158   1.541 -0.0216  0.1066 -0.1310
  767MOL0     H 3478   5.855   2.678   1.461 -2.6539  1.2144 -0.0272
  767MOL0     H 3479   5.604   2.676   1.465 -1.8008 -0.2293 -0.3695
  767MOL0     H 3480   5.413   2.635   1.654 -0.6972  0.3106 -0.1569
  767MOL0     H 3481   5.393   2.655   1.481  0.2296  0.1193 -0.6257
  767MOL0     H 3482   5.234   2.461   1.652  0.3059 -1.8685 -1.5771
  767MOL0     H 3483   5.223   2.472   1.480  0.8589  2.2378 -1.3363
  767MOL0     H 3484   5.146   2.713   1.500 -2.8722 -0.8145 -1.3364
  767MOL0     H 3485   5.139   2.683   1.674 -1.9476 -0.0907  0.0583
  767MOL0     H 3486   4.996   2.494   1.486 -1.4657 -1.5376  1.4133
  767MOL0     H 3487   4.972   2.529   1.663  2.8336 -3.4675 -0.3751
  767MOL0     H 3488   4.790   2.619   1.547  0.5754 -1.8250 -0.0684
  767MOL0     H 3489   4.890   2.757   1.613  0.6112 -1.6089  1.6147
  767MOL0     H 3490   4.966   2.807   1.381  1.8016 -0.8763  1.5937
  767MOL0     H 3491   4.915   2.653   1.325  0.3496  0.8445  1.1208
  767MOL0     H 3492   4.680   2.691   1.320 -2.1137  1.5316 -1.4601
  767MOL0     H 3493   4.769   2.825   1.249 -1.9686  2.4782  0.8369
  767MOL0     H 3494   4.662   2.807   1.532  0.0170  1.9159  1.6299
  767MOL0     H 3495   4.731   2.954   1.467 -0.6067 -1.2717  1.6179
  767MOL0     H 3496   4.394   2.747   1.426 -0.1032  0.5347 -0.2060
  767MOL0     H 3497   4.180   2.969   1.201  0.3174 -0.0656  1.0593
  767MOL0     H 3498   4.180   2.804   1.239  1.5551 -0.6843 -0.2440
  767MOL0     H 3499   4.151   2.885   1.485 -0.6234 -1.5816 -0.5704
  767MOL0     H 3500   4.091   3.039   1.421  0.4508  1.1160 -0.2946
  767MOL0     H 3501   3.893   2.851   1.459  0.0123  1.1579 -0.4049
  767MOL0     H 3502   3.970   2.746   1.363 -1.5303  0.3340  1.7759
  767MOL0     H 3503   3.782   2.868   1.284 -0.1838  0.5655 -0.8403
  767MOL0     H 3504   3.920   2.892   1.170  0.1365  1.6113  0.0245
  767MOL0     H 3505   3.724   2.980   1.094  0.4799 -0.1111  0.3680
  767MOL0     H 3506   3.576   3.114   0.976  0.9516  1.1451 -0.7280
  767MOL0     H 3507   3.278   3.454   0.894 -2.0594  1.4384  0.6326
  767MOL0     H 3508   3.089   3.492   0.741  2.1235  0.2801  0.2698
  767MOL0     H 3509   2.902   3.297   0.479 -2.6567 -1.1331 -0.8011
  767MOL0     H 3510   2.966   3.155   0.548 -0.4274 -0.1226  1.9871
  767MOL0     H 3511   2.750   3.101   0.507 -1.4165  1.9920 -1.7653
  767MOL0     H 3512   2.735   3.171   0.675  2.2931  0.3141 -0.6181
  767MOL0     H 3513   2.647   3.382   0.570  1.1585  0.4554 -0.5259
  767MOL0     H 3514   2.663   3.309   0.413 -0.6884 -1.0549 -0.1148
  767MOL0     H 3515   2.491   3.209   0.645 -0.1385 -0.7044 -1.2114
  767MOL0     H 3516   2.502   3.123   0.513  2.2661 -0.1294 -0.4044
  767MOL0     H 3517   2.417   3.422   0.514  1.1310  0.1239 -0.8021
  767MOL0     H 3518   2.293   3.290   0.545  1.2460 -1.4817  1.8735
  767MOL0     H 3519   2.473   3.288   0.292 -1.0326  2.3721 -1.8038
  767MOL0     H 3520   2.337   3.196   0.317  1.1125 -0.7338 -1.9103
  767MOL0     H 3521   2.303   3.505   0.337 -0.0945 -0.3348 -0.6407
  767MOL0     H 3522   2.178   3.380   0.324 -0.4404  1.3413 -1.1733
  767MOL0     H 3523   2.346   3.463   0.089 -0.8694 -0.2176 -1.9300
  767MOL0     H 3524   2.226   3.330   0.102  2.2639 -1.4564  0.7885
  767MOL0     H 3525   2.958   3.096   0.784  1.8626 -0.1449 -1.6689
  767MOL0     H 3526   3.157   3.056   0.965 -2.1776 -0.9591 -1.2304
  767MOL0     H 3527   3.577   3.410   1.291  0.6787  0.0368 -0.3001
  767MOL0     H 3528   3.773   3.284   1.390  1.4464 -1.5329 -0.1647
  767MOL0     H 3529   5.599   2.263   1.539  0.0057  0.0478 -3.3878
  767MOL0     H 3530   5.839   2.244   1.534 -2.8753 -0.9767  1.9080
  767MOL0     H 3531   6.229   2.595   1.383 -3.4743 -1.8368  0.2237
  767MOL0     H 3532   6.491   2.623   1.423 -1.3339  0.8938 -2.7086
  767MOL0     H 3533   6.607   2.595   1.633 -0.7672 -0.9884 -1.6874
  767MOL0     H 3534   6.714   2.620   1.496 -0.1763  1.0241  0.2529
  767MOL0     H 3535   6.901   2.504   1.620  0.0902 -1.2817  0.0539
  767MOL0     H 3536   6.783   2.476   1.753  0.9629 -0.1665  0.0340
  767MOL0     H 3537   6.747   2.736   1.743  0.3723 -0.6632  2.4654
  767MOL0     H 3538   6.895   2.737   1.658  2.1600 -1.3443 -0.1554
  767MOL0     H 3539   6.872   2.601   1.930  3.0935 -0.9392  0.2288
  767MOL0     H 3540   7.016   2.652   1.844  0.8477  3.6712  0.2862
  767MOL0     H 3541   6.854   2.987   2.062 -0.4852 -1.9884  2.4293
  767MOL0     H 3542   6.499   2.225   1.553  2.1900  0.5614 -1.3105
  767MOL0     H 3543   6.224   2.156   1.650  1.5038  0.4242 -0.0777
  767MOL0     H 3544   6.123   2.144   1.506 -1.2714 -0.1447  3.2451
  767MOL0     H 3545   6.288   2.073   1.513  1.8935  1.4092 -0.0083
  768MOL0     O 3546   0.289   8.683   6.230  0.2672 -0.4895  0.0423
  768MOL0     C 3547   0.276   8.601   6.320 -0.4892 -1.3634 -0.1393
  768MOL0     O 3548   0.378   8.556   6.391 -0.4081 -0.1449 -0.0801
  768MOL0     C 3549   0.512   8.578   6.361  0.0931 -0.3688 -0.8641
  768MOL0     C 3550   0.570   8.547   6.235  0.3045  0.2565  0.5526
  768MOL0     C 3551   0.712   8.556   6.212  1.0117  0.3869  0.2069
  768MOL0     C 3552   0.795   8.604   6.317  0.2690 -0.0561  0.2055
  768MOL0     O 3553   0.932   8.590   6.320 -1.0734  0.0290  0.5309
  768MOL0     C 3554   1.002   8.582   6.197  0.8686  0.5309 -0.1483
  768MOL0     C 3555   1.148   8.620   6.203 -0.0622 -0.6132  0.3122
  768MOL0     C 3556   1.203   8.558   6.074 -0.2177  0.8427 -0.3702
  768MOL0     C 3557   1.360   8.566   6.089  0.3926  0.0592 -0.0659
  768MOL0     C 3558   1.431   8.540   5.957 -0.0681 -0.2645 -0.0675
  768MOL0     C 3559   1.368   8.443   5.859  0.4257 -0.4641  0.7728
  768MOL0     C 3560   1.469   8.432   5.745 -0.7088 -0.7287  0.7453
  768MOL0     C 3561   1.433   8.347   5.619  0.3151 -1.5545 -0.4024
  768MOL0     N 3562   1.530   8.357   5.509 -0.7065 -0.4242  1.1956
  768MOL0     C 3563   1.510   8.379   5.373  0.7489  0.3105 -0.1918
  768MOL0     C 3564   1.618   8.329   5.313  0.6805  0.1139 -0.6148
  768MOL0     C 3565   1.643   8.310   5.172  0.2283 -1.1765 -0.2774
  768MOL0     C 3566   1.699   8.428   5.102  0.0437  0.1959  0.4351
  768MOL0     C 3567   1.770   8.400   4.977  0.0414 -0.3509  0.5718
  768MOL0     C 3568   1.820   8.526   4.899  0.1127  0.6723  0.3309
  768MOL0     O 3569   1.906   8.607   4.989 -0.7279 -0.5054  0.3012
  768MOL0     C 3570   2.044   8.585   4.996  1.3497  1.0448  0.3314
  768MOL0     C 3571   2.110   8.633   5.113 -0.2644 -0.5293  0.1975
  768MOL0     C 3572   2.243   8.616   5.141  0.3655  0.4198  0.2434
  768MOL0     C 3573   2.321   8.539   5.054 -0.3032  0.2416 -1.5109
  768MOL0     C 3574   2.465   8.518   5.093 -0.1348  0.6445  0.4599
  768MOL0     O 3575   2.514   8.554   5.221  0.3475  0.4615 -0.0299
  768MOL0     C 3576   2.640   8.524   5.270 -0.7005  0.0520  0.8339
  768MOL0     C 3577   2.679   8.582   5.391  0.1936 -0.4818 -0.1657
  768MOL0     C 3578   2.807   8.537   5.452  0.5779  0.0686 -0.1310
  768MOL0     C 3579   2.880   8.435   5.404  0.0527 -1.1173  0.3502
  768MOL0     O 3580   2.998   8.391   5.459  0.4592 -0.2215  0.8846
  768MOL0     C 3581   3.118   8.446   5.399  1.2920  0.7569 -0.0346
  768MOL0     C 3582   3.231   8.371   5.452 -0.3206  0.3659 -0.2348
  768MOL0     C 3583   3.370   8.436   5.423  0.3211 -0.2787 -0.2499
  768MOL0     C 3584   3.479   8.333   5.389  0.7747  0.2488  0.1953
  768MOL0     C 3585   3.614   8.379   5.362  0.2905 -0.2458  1.2486
  768MOL0     C 3586   3.697   8.278   5.281  0.1736 -0.2256  0.3098
  768MOL0     C 3587   3.835   8.332   5.252 -0.3717  0.3683 -0.4732
  768MOL0     C 3588   3.890   8.278   5.118 -0.5104 -0.4153  0.2026
  768MOL0    Cl 3589   3.977   8.123   5.152  0.0451  0.4219 -0.2783
  768MOL0     C 3590   2.835   8.366   5.291  0.0318  0.1905  1.0621
  768MOL0     C 3591   2.718   8.406   5.225 -0.2776 -0.1701 -0.0342
  768MOL0     O 3592   2.540   8.484   4.997  0.3581  0.3388  0.1032
  768MOL0     C 3593   2.259   8.472   4.951 -0.2992  0.7161 -0.3234
  768MOL0     C 3594   2.121   8.492   4.919  0.4936 -0.0384 -0.1594
  768MOL0     N 3595   1.712   8.294   5.414 -0.2489 -0.0909 -0.2883
  768MOL0     N 3596   1.649   8.305   5.524  0.3954 -0.1599 -0.4527
  768MOL0     C 3597   0.738   8.639   6.441 -0.5752  0.4029  0.8638
  768MOL0     C 3598   0.605   8.626   6.460  0.3171 -0.7518  0.3677
  768MOL0     C 3599   0.138   8.577   6.369  0.3789  0.3070  1.1602
  768MOL0     C 3600   0.032   8.593   6.281 -0.3213  1.0180  0.3310
  768MOL0     C 3601  -0.093   8.570   6.318  0.4398 -0.4251 -0.1663
  768MOL0     C 3602  -0.125   8.528   6.447  0.4263  0.1223 -0.4878
  768MOL0     O 3603  -0.259   8.511   6.467  0.6309  0.2753 -0.0224
  768MOL0     C 3604  -0.301   8.457   6.591  0.3153  0.3612 -0.4852
  768MOL0     C 3605  -0.454   8.475   6.627  0.0924  0.0104  0.1070
  768MOL0     C 3606  -0.539   8.412   6.526 -0.0123  0.2388  0.2087
  768MOL0     C 3607  -0.683   8.441   6.558  0.4558  1.1581  0.0959
  768MOL0     C 3608  -0.779   8.362   6.478  0.7254 -0.0890 -0.0490
  768MOL0     C 3609  -0.863   8.295   6.415 -0.9944 -0.2640 -0.4437
  768MOL0     C 3610  -0.019   8.511   6.537  0.3021 -0.6840  0.0763
  768MOL0     C 3611   0.113   8.537   6.504 -0.1048 -0.1229  0.1700
  768MOL0     C 3612   0.216   8.537   6.620  0.4378 -0.4680 -0.3952
  768MOL0     H 3613   0.506   8.506   6.157  3.3146 -2.0226 -0.9607
  768MOL0     H 3614   0.756   8.523   6.118 -2.8890  1.5139 -2.2638
  768MOL0     H 3615   0.986   8.484   6.151 -0.0662  0.8427 -0.5202
  768MOL0     H 3616   0.945   8.644   6.128 -1.8586  0.1039  1.5429
  768MOL0     H 3617   1.199   8.572   6.287  0.3051 -0.8188 -0.0225
  768MOL0     H 3618   1.167   8.728   6.203 -1.1754 -0.4051 -0.6251
  768MOL0     H 3619   1.168   8.627   5.997 -3.0118  1.1456  1.0594
  768MOL0     H 3620   1.174   8.453   6.058 -0.8681  0.9741 -0.0789
  768MOL0     H 3621   1.388   8.666   6.124  3.1277 -0.9446  0.8419
  768MOL0     H 3622   1.395   8.500   6.169 -2.3010  1.2268  2.2555
  768MOL0     H 3623   1.454   8.634   5.906 -1.0558  0.5386  0.9141
  768MOL0     H 3624   1.521   8.485   5.983  0.0376  1.0510  2.7727
  768MOL0     H 3625   1.348   8.353   5.919 -2.5836  0.4621  1.3496
  768MOL0     H 3626   1.276   8.488   5.820  0.6928 -1.6255 -1.3420
  768MOL0     H 3627   1.564   8.393   5.783  0.5013  1.8516  0.6056
  768MOL0     H 3628   1.495   8.530   5.704 -0.5610 -1.7165 -1.6607
  768MOL0     H 3629   1.425   8.239   5.634 -0.4384 -1.3651  0.6952
  768MOL0     H 3630   1.337   8.381   5.579  1.6924  3.0979 -0.3193
  768MOL0     H 3631   1.424   8.426   5.325  1.7498 -0.0144 -2.4080
  768MOL0     H 3632   1.701   8.218   5.162 -2.7577 -3.5038  1.9247
  768MOL0     H 3633   1.548   8.289   5.122 -1.3612  1.8084  1.2068
  768MOL0     H 3634   1.617   8.496   5.078 -0.0032  1.5807  3.9243
  768MOL0     H 3635   1.752   8.493   5.173 -2.1237  0.7691  1.6129
  768MOL0     H 3636   1.697   8.345   4.917 -0.7924 -0.7371  1.8998
  768MOL0     H 3637   1.852   8.330   4.996 -1.7344 -1.9524  2.9530
  768MOL0     H 3638   1.739   8.591   4.864 -0.1149  0.5535  0.6260
  768MOL0     H 3639   1.862   8.491   4.805 -0.7941  1.9834 -0.5858
  768MOL0     H 3640   2.049   8.686   5.185  0.5138  0.9177 -0.1840
  768MOL0     H 3641   2.288   8.658   5.230 -2.8050 -0.5764  2.4775
  768MOL0     H 3642   2.627   8.655   5.453  0.3691 -1.6777  1.4857
  768MOL0     H 3643   2.839   8.573   5.549  0.3246  1.7093 -0.6268
  768MOL0     H 3644   3.123   8.445   5.290  4.0424 -0.8615  0.0149
  768MOL0     H 3645   3.125   8.550   5.434  1.1846  0.6759  0.2339
  768MOL0     H 3646   3.214   8.347   5.557  0.8976 -2.3508 -0.5531
  768MOL0     H 3647   3.229   8.280   5.391  0.7771  0.4037 -0.3434
  768MOL0     H 3648   3.361   8.500   5.334 -1.9955 -1.9242 -1.2958
  768MOL0     H 3649   3.408   8.495   5.506  0.0035 -0.3773 -0.0362
  768MOL0     H 3650   3.448   8.267   5.308  0.5265 -0.1436  0.6066
  768MOL0     H 3651   3.494   8.263   5.471  1.8343 -1.3240 -1.2685
  768MOL0     H 3652   3.652   8.417   5.457 -0.4641  0.9025  1.1197
  768MOL0     H 3653   3.610   8.469   5.300 -1.0876 -0.7992  0.4886
  768MOL0     H 3654   3.697   8.185   5.339  1.6933  1.3940  3.1299
  768MOL0     H 3655   3.652   8.255   5.184 -0.5438 -0.5832  0.7261
  768MOL0     H 3656   3.900   8.318   5.339 -1.8029  1.0279  0.7479
  768MOL0     H 3657   3.827   8.440   5.241  0.4312  0.2466 -2.9350
  768MOL0     H 3658   3.809   8.257   5.047  1.0822 -0.1175 -1.8020
  768MOL0     H 3659   3.957   8.354   5.077 -0.9355  0.4739  1.1006
  768MOL0     H 3660   2.890   8.283   5.248 -0.7687 -0.2001  0.7558
  768MOL0     H 3661   2.704   8.349   5.133  1.2445  0.6805 -0.8251
  768MOL0     H 3662   2.325   8.410   4.891  0.0567  1.9053 -1.1947
  768MOL0     H 3663   2.076   8.432   4.841 -1.1343 -0.3875  0.9912
  768MOL0     H 3664   0.798   8.662   6.528 -0.7290 -1.3852  1.4871
  768MOL0     H 3665   0.562   8.647   6.557 -0.7957 -0.8105 -0.0962
  768MOL0     H 3666   0.050   8.633   6.182  0.5698  2.8439  1.1765
  768MOL0     H 3667  -0.173   8.595   6.250 -1.6588  2.2061  2.9927
  768MOL0     H 3668  -0.236   8.487   6.674 -2.2892  1.6950  1.2379
  768MOL0     H 3669  -0.286   8.349   6.589  1.4550  0.5212 -0.7350
  768MOL0     H 3670  -0.491   8.577   6.639 -0.5547 -0.2348  0.2654
  768MOL0     H 3671  -0.469   8.430   6.726  1.9521 -2.9820 -0.8330
  768MOL0     H 3672  -0.518   8.305   6.516 -1.7441 -0.1046 -0.2340
  768MOL0     H 3673  -0.514   8.451   6.427  1.1363  1.7564  1.0530
  768MOL0     H 3674  -0.700   8.412   6.662  5.6993 -2.1736  0.3854
  768MOL0     H 3675  -0.710   8.544   6.534 -0.4942  1.2896  1.5966
  768MOL0     H 3676  -0.950   8.249   6.373  0.0082 -1.2712 -1.5147
  768MOL0     H 3677  -0.031   8.467   6.635  2.0489 -0.5485  0.3918
  768MOL0     H 3678   0.155   8.541   6.711  1.7779  3.4955  0.5547
  768MOL0     H 3679   0.274   8.444   6.619 -1.8747 -1.9924  0.1718
  768MOL0     H 3680   0.266   8.634   6.610 -0.3810  0.1958  1.4750
  769MOL0     O 3681   7.574   4.101   1.915  0.0854  0.7391  0.0006
  769MOL0     C 3682   7.458   4.066   1.959  0.4745  0.0793 -0.5092
  769MOL0     O 3683   7.421   4.077   2.088 -0.2090  0.2335  0.6532
  769MOL0     C 3684   7.517   4.077   2.189 -0.5426 -0.4241 -0.4324
  769MOL0     C 3685   7.652   4.020   2.185 -0.1439  0.5640 -0.2092
  769MOL0     C 3686   7.742   4.036   2.291 -0.1442 -0.7063  0.7334
  769MOL0     C 3687   7.699   4.118   2.398 -0.0986  0.2530  0.1985
  769MOL0     O 3688   7.798   4.143   2.501  0.0674  0.9487  1.3280
  769MOL0     C 3689   7.754   4.136   2.635  0.6265 -0.1870 -1.0735
  769MOL0     C 3690   7.863   4.181   2.728  0.1942  0.1087 -0.4905
  769MOL0     C 3691   7.974   4.083   2.749 -0.1089 -0.0081 -0.2053
  769MOL0     C 3692   8.050   4.030   2.629  0.6198  0.6205 -0.0450
  769MOL0     C 3693   8.143   4.129   2.559  0.5558 -0.0729 -0.1333
  769MOL0     C 3694   8.203   4.075   2.426  0.2560  0.7745 -0.9712
  769MOL0     C 3695   8.254   3.930   2.420  0.0628 -0.1517  0.9119
  769MOL0     C 3696   8.363   3.895   2.524  0.0777  0.7971 -0.2557
  769MOL0     N 3697   8.400   3.760   2.507  0.5426 -0.0012 -0.3208
  769MOL0     C 3698   8.462   3.709   2.398 -0.3145  0.4227  0.1602
  769MOL0     C 3699   8.507   3.586   2.436  0.2081 -0.0211  1.1933
  769MOL0     C 3700   8.602   3.508   2.351 -0.8876 -0.3182  0.6862
  769MOL0     C 3701   8.734   3.479   2.426 -1.3012  0.5381 -0.2683
  769MOL0     C 3702   8.814   3.610   2.468 -0.2062  0.5221  0.6931
  769MOL0     C 3703   8.964   3.593   2.474  0.2999 -0.5626 -0.2723
  769MOL0     O 3704   9.017   3.615   2.346 -0.0395  0.1448  0.4692
  769MOL0     C 3705   9.156   3.617   2.336 -0.0126 -0.0937 -0.2698
  769MOL0     C 3706   9.247   3.579   2.443 -0.4583  0.0860 -0.1323
  769MOL0     C 3707   9.384   3.584   2.421 -0.3291 -0.8903 -0.0845
  769MOL0     C 3708   9.441   3.628   2.299 -0.5870 -0.5040 -0.1261
  769MOL0     C 3709   9.588   3.634   2.273 -0.4388  0.1707 -0.4714
  769MOL0     O 3710   9.636   3.702   2.161 -0.2483  0.4041 -0.1882
  769MOL0     C 3711   9.775   3.711   2.163 -0.2361 -0.0365  0.0260
  769MOL0     C 3712   9.839   3.833   2.186  0.3104  0.0685 -0.0133
  769MOL0     C 3713   9.978   3.852   2.168  0.9205 -0.9408 -1.0744
  769MOL0     C 3714  10.056   3.745   2.136  0.8318  0.0335  1.3825
  769MOL0     O 3715  10.197   3.749   2.131  0.1939 -0.0952 -0.2090
  769MOL0     C 3716  10.269   3.813   2.239  0.3908 -0.0745 -0.3340
  769MOL0     C 3717  10.421   3.821   2.210  0.1127  0.1559  0.1315
  769MOL0     C 3718  10.479   3.680   2.177 -0.2300 -0.2787  0.1803
  769MOL0     C 3719  10.626   3.646   2.158 -0.3184 -1.2645 -0.2321
  769MOL0     C 3720  10.624   3.496   2.135 -0.1312  0.5353 -0.1181
  769MOL0     C 3721  10.763   3.433   2.131  0.8562 -0.5403 -0.7095
  769MOL0     C 3722  10.765   3.278   2.127 -1.3192 -0.3568  0.6231
  769MOL0     C 3723  10.765   3.217   1.987  0.9552 -0.4664 -0.6014
  769MOL0    Cl 3724  10.915   3.289   1.887  0.1139  0.3046  0.0086
  769MOL0     C 3725   9.993   3.619   2.105 -0.1625 -0.4857 -0.1874
  769MOL0     C 3726   9.852   3.602   2.119  0.4516 -0.3847  0.0386
  769MOL0     O 3727   9.653   3.596   2.365 -0.0647  0.2640 -0.1493
  769MOL0     C 3728   9.352   3.669   2.202  0.5768  0.5886  1.2886
  769MOL0     C 3729   9.214   3.655   2.217  0.5571  0.2951 -0.3900
  769MOL0     N 3730   8.479   3.573   2.565 -0.7355  1.1592  0.1287
  769MOL0     N 3731   8.413   3.675   2.609 -0.0002  0.3513  0.4472
  769MOL0     C 3732   7.569   4.164   2.403  0.1289 -0.5254 -1.0677
  769MOL0     C 3733   7.486   4.151   2.295  0.2476 -0.5209  0.2735
  769MOL0     C 3734   7.358   3.997   1.874  0.1662 -0.0695 -0.0936
  769MOL0     C 3735   7.224   4.035   1.880  0.0447  0.9117  0.5350
  769MOL0     C 3736   7.120   3.954   1.812  0.3181 -0.9527  0.1362
  769MOL0     C 3737   7.160   3.834   1.741 -0.6642  0.6342  0.0322
  769MOL0     O 3738   7.085   3.751   1.662  0.4351  0.0216 -0.4244
  769MOL0     C 3739   6.938   3.766   1.679 -0.3667 -1.0618  0.6559
  769MOL0     C 3740   6.861   3.676   1.594 -0.0969 -0.7482  0.1413
  769MOL0     C 3741   6.857   3.524   1.634 -0.5133  0.6012  0.0055
  769MOL0     C 3742   6.994   3.468   1.668  0.1207  0.4498  0.1619
  769MOL0     C 3743   6.994   3.326   1.702 -0.0334 -0.5465 -0.2128
  769MOL0     C 3744   7.001   3.217   1.748  0.6373 -0.2255  0.4577
  769MOL0     C 3745   7.293   3.813   1.726 -0.5353  0.4298  0.2468
  769MOL0     C 3746   7.390   3.889   1.787 -0.6709 -0.8358  0.8352
  769MOL0     C 3747   7.530   3.826   1.793  0.4705 -0.6534  0.1767
  769MOL0     H 3748   7.693   3.967   2.100 -1.6473  0.3187 -0.8257
  769MOL0     H 3749   7.844   3.998   2.296  0.0569 -0.2447  0.2359
  769MOL0     H 3750   7.669   4.198   2.665  1.1483  0.6908 -1.3459
  769MOL0     H 3751   7.727   4.034   2.662 -0.3366 -0.2341 -2.1240
  769MOL0     H 3752   7.821   4.205   2.826 -1.9227  4.4399 -2.1711
  769MOL0     H 3753   7.916   4.269   2.692  0.8235  0.5879  1.5003
  769MOL0     H 3754   7.922   3.998   2.796 -2.5301  1.5224  0.0763
  769MOL0     H 3755   8.044   4.123   2.823  0.2312  2.0771 -1.6017
  769MOL0     H 3756   8.105   3.937   2.649 -1.5406 -0.7084 -0.0308
  769MOL0     H 3757   7.980   4.009   2.549 -1.1254  1.1275  1.2917
  769MOL0     H 3758   8.075   4.214   2.558 -3.3590 -2.8555  1.9527
  769MOL0     H 3759   8.224   4.155   2.628 -0.3644  1.7090  0.3324
  769MOL0     H 3760   8.120   4.084   2.356  0.3756  2.3400 -0.9412
  769MOL0     H 3761   8.281   4.141   2.387 -0.6431  1.7946 -1.0928
  769MOL0     H 3762   8.282   3.900   2.318 -3.0010 -1.9815  0.4755
  769MOL0     H 3763   8.165   3.868   2.430 -0.2157  0.0261 -0.2538
  769MOL0     H 3764   8.446   3.965   2.510  0.1033  1.0574  1.1073
  769MOL0     H 3765   8.331   3.912   2.627 -2.1096  1.9829 -1.0646
  769MOL0     H 3766   8.481   3.756   2.302  1.5948  1.7953  1.1508
  769MOL0     H 3767   8.563   3.417   2.305 -1.8050  0.3419  0.1204
  769MOL0     H 3768   8.628   3.568   2.264 -0.5523  0.0835  1.0558
  769MOL0     H 3769   8.715   3.415   2.512 -0.7208  0.8368  0.0898
  769MOL0     H 3770   8.795   3.414   2.362 -0.6734  0.8812 -0.0250
  769MOL0     H 3771   8.783   3.651   2.565  3.8187  1.7431  1.6726
  769MOL0     H 3772   8.782   3.691   2.403 -2.0655 -0.3919  0.4213
  769MOL0     H 3773   8.992   3.503   2.529  1.5126  1.2385  2.2999
  769MOL0     H 3774   8.995   3.671   2.544  1.9756  0.7417 -2.3276
  769MOL0     H 3775   9.214   3.541   2.539 -0.2008 -1.4950 -0.6495
  769MOL0     H 3776   9.453   3.557   2.500 -0.4793  2.2538  1.2582
  769MOL0     H 3777   9.771   3.916   2.202 -2.6993 -1.7846 -2.0944
  769MOL0     H 3778  10.024   3.948   2.187  0.2240 -1.0752  1.7277
  769MOL0     H 3779  10.236   3.916   2.258 -0.8962 -0.7833  1.5968
  769MOL0     H 3780  10.257   3.751   2.329  1.3709 -1.5332 -1.1677
  769MOL0     H 3781  10.442   3.896   2.133  2.3673 -1.8272 -1.3083
  769MOL0     H 3782  10.473   3.856   2.300  1.4418  2.7209 -1.4812
  769MOL0     H 3783  10.449   3.612   2.258 -1.5136  0.6056  0.4663
  769MOL0     H 3784  10.436   3.652   2.080  0.6640 -0.7721 -0.0905
  769MOL0     H 3785  10.679   3.669   2.252 -0.3506  0.4304 -0.5988
  769MOL0     H 3786  10.671   3.701   2.075  2.3096 -1.6769  0.7903
  769MOL0     H 3787  10.576   3.471   2.040 -0.1132  0.3100 -0.0698
  769MOL0     H 3788  10.563   3.443   2.209 -3.1300 -0.5236 -3.1000
  769MOL0     H 3789  10.815   3.467   2.040  0.6763 -2.7842 -1.7184
  769MOL0     H 3790  10.823   3.471   2.215  0.0846 -2.4788  0.7760
  769MOL0     H 3791  10.673   3.243   2.175 -0.5904 -1.4315  1.2853
  769MOL0     H 3792  10.855   3.235   2.174  1.2885  1.1393 -2.5859
  769MOL0     H 3793  10.781   3.110   2.002  1.0257 -0.3489  0.2570
  769MOL0     H 3794  10.674   3.230   1.927  2.3722  0.7357 -2.6165
  769MOL0     H 3795  10.060   3.539   2.075 -0.2852 -0.5415 -0.3092
  769MOL0     H 3796   9.810   3.506   2.094  1.3676 -0.6226 -0.6129
  769MOL0     H 3797   9.396   3.700   2.108 -1.2832 -3.5306 -1.2111
  769MOL0     H 3798   9.138   3.678   2.143  2.2422  1.1224 -1.9407
  769MOL0     H 3799   7.548   4.220   2.494 -0.2231  0.6728 -1.8505
  769MOL0     H 3800   7.391   4.202   2.291 -0.0810 -1.1283  0.2160
  769MOL0     H 3801   7.186   4.123   1.932 -2.9254  0.5539 -0.8039
  769MOL0     H 3802   7.016   3.984   1.814 -0.2311 -2.7875  1.4001
  769MOL0     H 3803   6.907   3.870   1.665  4.1698  0.5018  0.8780
  769MOL0     H 3804   6.913   3.734   1.781  4.4575 -3.0598  1.4715
  769MOL0     H 3805   6.896   3.684   1.490  0.2566 -2.8273  0.0484
  769MOL0     H 3806   6.755   3.700   1.586  0.1527 -0.0573 -1.7148
  769MOL0     H 3807   6.808   3.451   1.568 -3.5007 -0.3798  3.0328
  769MOL0     H 3808   6.787   3.521   1.718 -2.3274  0.2404 -1.4524
  769MOL0     H 3809   7.069   3.478   1.589 -0.8712  0.8293 -0.7706
  769MOL0     H 3810   7.035   3.523   1.753  0.7019  1.6598 -0.8718
  769MOL0     H 3811   6.992   3.123   1.798 -0.4501  1.4026  3.5545
  769MOL0     H 3812   7.324   3.714   1.694  1.4315  1.0123  0.1986
  769MOL0     H 3813   7.527   3.723   1.757  3.3710 -0.8826  0.4003
  769MOL0     H 3814   7.606   3.875   1.732  0.5682 -1.4077 -0.3188
  769MOL0     H 3815   7.574   3.831   1.893 -0.9472  0.9289  0.7749
  770MOL0     O 3816   8.783   5.435   8.195 -0.4541 -1.3357  0.3396
  770MOL0     C 3817   8.792   5.501   8.090  1.6128  0.4510 -0.1122
  770MOL0     O 3818   8.753   5.457   7.967 -0.0100  0.0996 -0.0445
  770MOL0     C 3819   8.711   5.331   7.950  0.0768  0.0116 -0.3017
  770MOL0     C 3820   8.575   5.314   7.957  0.1382  0.2800 -0.8260
  770MOL0     C 3821   8.526   5.186   7.950  0.1279 -0.4824  0.0218
  770MOL0     C 3822   8.616   5.077   7.923 -0.0460  0.0386 -0.6331
  770MOL0     O 3823   8.575   4.945   7.903  0.6166  0.2227 -0.2240
  770MOL0     C 3824   8.443   4.915   7.861 -0.2272  1.0216 -0.2438
  770MOL0     C 3825   8.440   4.774   7.801 -0.2987  0.9016 -0.5303
  770MOL0     C 3826   8.523   4.767   7.677 -0.4126  0.7321 -0.5465
  770MOL0     C 3827   8.521   4.622   7.606  0.0469  0.1070 -0.2885
  770MOL0     C 3828   8.616   4.613   7.488 -0.3161  0.6767  0.5105
  770MOL0     C 3829   8.573   4.714   7.382 -0.4642 -0.5579  0.2905
  770MOL0     C 3830   8.634   4.692   7.245 -0.2570 -0.5310 -0.1713
  770MOL0     C 3831   8.768   4.772   7.222  1.1460 -0.3207 -0.2612
  770MOL0     N 3832   8.836   4.729   7.097 -0.2467  0.3407 -0.6734
  770MOL0     C 3833   8.914   4.614   7.095 -0.3132  0.3031  0.2685
  770MOL0     C 3834   8.908   4.570   6.965 -0.4038 -0.2643  0.3216
  770MOL0     C 3835   8.985   4.465   6.896  0.2659 -0.9143 -0.0337
  770MOL0     C 3836   9.107   4.516   6.814  1.0305  0.1594  1.3429
  770MOL0     C 3837   9.204   4.398   6.781  0.0256 -0.1383 -0.1297
  770MOL0     C 3838   9.313   4.434   6.668 -0.0924 -0.1467 -0.9003
  770MOL0     O 3839   9.425   4.499   6.735 -0.8260  0.6285 -0.0241
  770MOL0     C 3840   9.539   4.517   6.667 -0.5979 -0.0826 -0.1915
  770MOL0     C 3841   9.550   4.491   6.528 -1.0004 -0.7416  0.4614
  770MOL0     C 3842   9.669   4.519   6.459  1.0094 -0.1745  0.2180
  770MOL0     C 3843   9.784   4.553   6.526 -0.4373 -1.0844  0.2007
  770MOL0     C 3844   9.910   4.581   6.450 -0.1977 -0.1055  0.1277
  770MOL0     O 3845  10.013   4.630   6.520  0.4029 -0.1631  0.5107
  770MOL0     C 3846  10.141   4.665   6.471 -0.3190 -0.1926  0.8703
  770MOL0     C 3847  10.191   4.656   6.335  0.6228 -0.1091 -0.5642
  770MOL0     C 3848  10.329   4.683   6.316  0.7195  0.1019  0.3530
  770MOL0     C 3849  10.421   4.721   6.414  1.4561  0.4126  0.1823
  770MOL0     O 3850  10.559   4.712   6.389 -0.4722 -0.9429  0.3615
  770MOL0     C 3851  10.647   4.718   6.498 -0.3524 -0.3992  0.4274
  770MOL0     C 3852  10.786   4.673   6.461  0.2686 -1.3710  0.0177
  770MOL0     C 3853  10.874   4.784   6.408  0.5092  0.1376 -0.2609
  770MOL0     C 3854  11.020   4.746   6.401  0.4172 -0.0259  0.8787
  770MOL0     C 3855  11.102   4.838   6.324 -0.5053 -1.2663 -0.0071
  770MOL0     C 3856  11.252   4.792   6.344  0.3590 -0.3261  0.0211
  770MOL0     C 3857  11.337   4.885   6.257  0.2897 -0.5367 -0.0607
  770MOL0     C 3858  11.488   4.837   6.256  0.2366 -0.5815 -0.2667
  770MOL0    Cl 3859  11.570   4.887   6.113 -0.2673  0.1297  0.0521
  770MOL0     C 3860  10.358   4.737   6.539 -0.5405  0.0557 -0.0775
  770MOL0     C 3861  10.235   4.709   6.566 -0.0303 -0.0187 -0.7820
  770MOL0     O 3862   9.916   4.562   6.326  0.1161 -0.2597  0.2033
  770MOL0     C 3863   9.779   4.576   6.662  0.4059  0.4248  0.0294
  770MOL0     C 3864   9.652   4.566   6.739 -0.1143 -0.1135  0.9854
  770MOL0     N 3865   8.837   4.665   6.887 -0.8915  0.0461 -0.3121
  770MOL0     N 3866   8.790   4.747   6.973 -0.3345 -0.4836 -0.6505
  770MOL0     C 3867   8.754   5.096   7.910  0.7209  0.4705 -0.1687
  770MOL0     C 3868   8.803   5.229   7.939  0.3826 -0.1164  0.5012
  770MOL0     C 3869   8.867   5.631   8.107  0.7366 -0.2634  0.0302
  770MOL0     C 3870   8.934   5.653   8.232  1.1441  0.1379  0.5628
  770MOL0     C 3871   8.988   5.769   8.271 -0.6039  0.3774 -0.0085
  770MOL0     C 3872   8.987   5.883   8.185  0.1850 -0.5671 -0.5262
  770MOL0     O 3873   9.020   6.012   8.223  0.1749 -0.0714  0.4329
  770MOL0     C 3874   9.079   6.035   8.354 -0.1789 -0.3616 -0.2733
  770MOL0     C 3875   9.105   6.188   8.359  0.1673  0.4430  0.0016
  770MOL0     C 3876   9.190   6.214   8.481  0.4004 -0.4384  1.1668
  770MOL0     C 3877   9.232   6.356   8.467 -0.1072 -0.1063  0.3671
  770MOL0     C 3878   9.348   6.375   8.554  0.8405 -0.5681 -0.6957
  770MOL0     C 3879   9.440   6.376   8.629  0.2392  0.5946  0.4913
  770MOL0     C 3880   8.924   5.864   8.060 -0.3081  0.7535 -0.5681
  770MOL0     C 3881   8.871   5.742   8.017  0.1445 -0.2615  0.2044
  770MOL0     C 3882   8.807   5.751   7.884 -0.2563  0.1748 -0.1606
  770MOL0     H 3883   8.497   5.387   7.979  0.6464 -0.3543  4.2978
  770MOL0     H 3884   8.419   5.167   7.957 -0.1972  1.5506  1.9332
  770MOL0     H 3885   8.379   4.920   7.950  3.3806  1.3322  2.5780
  770MOL0     H 3886   8.405   4.984   7.785 -1.1709  3.3794  2.2092
  770MOL0     H 3887   8.337   4.742   7.779  0.0856  0.4710 -1.8057
  770MOL0     H 3888   8.474   4.719   7.889 -1.9791  1.6210  0.6220
  770MOL0     H 3889   8.625   4.804   7.695  0.0463 -0.5934 -0.3331
  770MOL0     H 3890   8.476   4.830   7.602 -1.2299 -1.0683 -1.6036
  770MOL0     H 3891   8.543   4.544   7.679 -0.4195  0.3980  0.1719
  770MOL0     H 3892   8.419   4.608   7.570  0.7505  1.3691 -3.0250
  770MOL0     H 3893   8.715   4.639   7.526 -1.1176  0.8367  2.6494
  770MOL0     H 3894   8.617   4.513   7.444  2.7089  0.7299  0.2352
  770MOL0     H 3895   8.470   4.693   7.353  0.2710 -1.2031 -2.0649
  770MOL0     H 3896   8.589   4.818   7.414  1.2780 -0.7948  0.3184
  770MOL0     H 3897   8.566   4.739   7.174  0.1300 -1.2709 -1.0481
  770MOL0     H 3898   8.631   4.583   7.238  1.2081 -1.0396  4.0815
  770MOL0     H 3899   8.739   4.877   7.214 -0.1976 -0.5120  1.5349
  770MOL0     H 3900   8.843   4.766   7.302 -0.2523  3.0893  1.5120
  770MOL0     H 3901   8.973   4.562   7.170 -0.0656 -1.3085 -0.9803
  770MOL0     H 3902   9.025   4.402   6.976  1.2753  2.7856  2.6978
  770MOL0     H 3903   8.921   4.408   6.828 -1.6635  1.6453 -0.5333
  770MOL0     H 3904   9.071   4.553   6.717  2.3086  1.5643  1.3607
  770MOL0     H 3905   9.149   4.599   6.872 -0.4112  0.8578  1.4271
  770MOL0     H 3906   9.149   4.318   6.730  1.4358  0.4567 -2.8071
  770MOL0     H 3907   9.254   4.351   6.866 -1.4565  0.2199  0.9863
  770MOL0     H 3908   9.279   4.505   6.592 -1.4365  0.1015 -0.1000
  770MOL0     H 3909   9.345   4.335   6.634 -1.5020 -0.3892 -1.5519
  770MOL0     H 3910   9.470   4.454   6.464 -0.2775  0.1647 -1.0048
  770MOL0     H 3911   9.687   4.513   6.353  2.1214 -0.6095  0.4267
  770MOL0     H 3912  10.133   4.624   6.248  1.8793  0.0239 -1.4698
  770MOL0     H 3913  10.376   4.660   6.221 -0.6056  1.6889 -0.7537
  770MOL0     H 3914  10.652   4.815   6.549  1.1508  0.2507 -0.8751
  770MOL0     H 3915  10.614   4.653   6.579  0.6866 -0.1650  1.0545
  770MOL0     H 3916  10.825   4.634   6.556 -2.6946 -3.2884  0.5931
  770MOL0     H 3917  10.790   4.602   6.378  2.6694  1.4797 -2.5236
  770MOL0     H 3918  10.842   4.828   6.313  2.8015 -0.4075 -1.3564
  770MOL0     H 3919  10.875   4.865   6.482  0.6578  0.9648 -1.1501
  770MOL0     H 3920  11.029   4.661   6.332  3.2053  0.8057  0.0930
  770MOL0     H 3921  11.068   4.728   6.498 -1.6665  0.5684  2.0954
  770MOL0     H 3922  11.090   4.945   6.346  3.2287 -1.1565  2.3681
  770MOL0     H 3923  11.069   4.825   6.221 -2.2108  2.9319 -0.1747
  770MOL0     H 3924  11.290   4.789   6.446  0.9620 -0.0202 -0.1907
  770MOL0     H 3925  11.265   4.694   6.297  0.0795 -0.7669  0.8346
  770MOL0     H 3926  11.341   4.990   6.287  0.8073 -0.0571 -1.7327
  770MOL0     H 3927  11.292   4.880   6.157 -1.3151  0.3287  0.5846
  770MOL0     H 3928  11.536   4.870   6.349  0.8864 -0.7879 -0.5257
  770MOL0     H 3929  11.487   4.728   6.257  0.0548 -0.6048  1.7073
  770MOL0     H 3930  10.427   4.768   6.617  2.7428 -2.9466 -1.5060
  770MOL0     H 3931  10.205   4.712   6.670 -1.5758 -1.8140 -1.1320
  770MOL0     H 3932   9.861   4.619   6.718  0.0703 -1.4180  2.0537
  770MOL0     H 3933   9.643   4.582   6.846 -1.7639 -2.0865  1.1944
  770MOL0     H 3934   8.827   5.024   7.875 -0.6120 -0.5392 -1.0022
  770MOL0     H 3935   8.908   5.254   7.933  0.6703 -1.5582 -2.3642
  770MOL0     H 3936   8.926   5.580   8.312 -2.2639 -1.2129 -0.8320
  770MOL0     H 3937   9.029   5.782   8.370 -1.5462  3.7484  0.0509
  770MOL0     H 3938   9.170   5.975   8.343 -1.0005 -1.3361 -2.1508
  770MOL0     H 3939   9.007   6.006   8.431 -0.8135 -1.5822 -1.3056
  770MOL0     H 3940   9.016   6.251   8.369 -1.7827 -2.1701  0.4553
  770MOL0     H 3941   9.165   6.212   8.271  0.2780  1.8759  0.4468
  770MOL0     H 3942   9.271   6.141   8.475 -2.1781 -3.6163  1.7626
  770MOL0     H 3943   9.131   6.188   8.570 -2.2917  1.1923  0.0150
  770MOL0     H 3944   9.253   6.391   8.365 -1.8321  0.9601  0.3316
  770MOL0     H 3945   9.166   6.435   8.502 -0.3106 -0.1139  0.0079
  770MOL0     H 3946   9.520   6.360   8.699 -0.0091 -1.3601  0.3845
  770MOL0     H 3947   8.910   5.951   7.996  0.5664 -0.1280 -1.9886
  770MOL0     H 3948   8.733   5.672   7.868  0.1530  0.2888 -3.2377
  770MOL0     H 3949   8.757   5.845   7.861 -3.5811 -1.1999  0.8429
  770MOL0     H 3950   8.888   5.730   7.813  1.4046 -0.5570  1.8436
  771MOL0     O 3951   3.998   7.398   1.048  0.8055 -1.0067  0.2545
  771MOL0     C 3952   3.922   7.467   0.984  0.0325  0.9911  0.4685
  771MOL0     O 3953   3.951   7.543   0.875  0.2990  0.4032  0.1137
  771MOL0     C 3954   4.076   7.523   0.824 -0.6374  0.1614 -0.4089
  771MOL0     C 3955   4.144   7.397   0.806  1.5636 -0.6585 -0.3331
  771MOL0     C 3956   4.278   7.387   0.756  0.2422 -0.3717 -0.2217
  771MOL0     C 3957   4.334   7.509   0.717 -0.5870 -0.8032  0.9194
  771MOL0     O 3958   4.461   7.515   0.662 -0.1322  0.1488  0.2322
  771MOL0     C 3959   4.478   7.432   0.543 -0.1833 -0.0069  0.7201
  771MOL0     C 3960   4.577   7.502   0.447 -0.1702 -0.3553 -0.1133
  771MOL0     C 3961   4.715   7.491   0.511  1.0370 -0.3370  0.0750
  771MOL0     C 3962   4.829   7.556   0.423  0.2640  0.7201  0.5214
  771MOL0     C 3963   4.969   7.516   0.486 -0.1732  0.1976 -0.2114
  771MOL0     C 3964   5.073   7.539   0.382 -0.7753 -0.0447  0.0826
  771MOL0     C 3965   5.211   7.485   0.435 -1.0610  0.5224 -0.2897
  771MOL0     C 3966   5.316   7.496   0.324  0.0467 -0.3290 -0.2086
  771MOL0     N 3967   5.442   7.434   0.358 -1.0425  0.5154  0.2792
  771MOL0     C 3968   5.480   7.302   0.358 -0.2320 -0.0778 -0.2729
  771MOL0     C 3969   5.613   7.296   0.380  0.4685  0.0655 -0.6334
  771MOL0     C 3970   5.707   7.177   0.389 -0.1065  0.2565 -0.7876
  771MOL0     C 3971   5.815   7.172   0.284 -0.3346 -0.1247 -1.0810
  771MOL0     C 3972   5.761   7.197   0.140 -0.2735  0.6730  0.5245
  771MOL0     C 3973   5.868   7.190   0.031 -0.5863 -0.3066 -0.1944
  771MOL0     O 3974   5.899   7.334   0.001  0.3180  0.1279 -0.5087
  771MOL0     C 3975   6.000   7.358  -0.089  1.1676 -1.0948  0.3036
  771MOL0     C 3976   6.044   7.495  -0.110  0.1909  0.4624  0.1240
  771MOL0     C 3977   6.134   7.524  -0.214  0.0977 -0.3452  0.3062
  771MOL0     C 3978   6.199   7.425  -0.287  0.5720  0.1965  0.0787
  771MOL0     C 3979   6.306   7.451  -0.376 -0.1668 -0.0425 -0.3151
  771MOL0     O 3980   6.364   7.579  -0.369 -0.3861  0.0517  0.3615
  771MOL0     C 3981   6.426   7.626  -0.486  0.0076  0.0731  0.8463
  771MOL0     C 3982   6.546   7.690  -0.467 -0.1339  0.1589 -0.2193
  771MOL0     C 3983   6.618   7.737  -0.577  0.0585 -0.5437  0.4827
  771MOL0     C 3984   6.556   7.733  -0.702  0.5331  0.6251 -0.2371
  771MOL0     O 3985   6.620   7.782  -0.808 -0.5726 -0.6401  0.0222
  771MOL0     C 3986   6.587   7.916  -0.839 -0.7048  0.2172 -0.4621
  771MOL0     C 3987   6.669   7.956  -0.963 -0.4153 -0.1108 -0.0952
  771MOL0     C 3988   6.814   7.963  -0.928  0.1712 -0.4824  0.0483
  771MOL0     C 3989   6.851   8.093  -0.860 -0.0758  0.1457  0.5503
  771MOL0     C 3990   6.968   8.067  -0.765  0.9808 -0.9270  0.2979
  771MOL0     C 3991   7.100   8.019  -0.817  0.6890 -0.3015 -1.1368
  771MOL0     C 3992   7.163   8.127  -0.903 -0.2255  0.1390  0.8445
  771MOL0     C 3993   7.311   8.102  -0.902  0.6307  0.0990  0.7764
  771MOL0    Cl 3994   7.335   7.955  -0.995  0.1416  0.2907  0.3452
  771MOL0     C 3995   6.442   7.658  -0.724  0.6851 -0.1383 -0.3284
  771MOL0     C 3996   6.368   7.609  -0.612  0.1132 -0.2993  0.0361
  771MOL0     O 3997   6.331   7.365  -0.465  0.1046  0.5197 -0.2014
  771MOL0     C 3998   6.165   7.292  -0.254  0.4718  0.1983  0.6220
  771MOL0     C 3999   6.057   7.260  -0.172  0.7101 -0.0230  0.7371
  771MOL0     N 4000   5.656   7.433   0.376 -0.0290  0.7948  0.3618
  771MOL0     N 4001   5.556   7.513   0.380  0.3997  0.5175 -0.0637
  771MOL0     C 4002   4.267   7.628   0.745 -0.6457  0.4701  0.3354
  771MOL0     C 4003   4.145   7.640   0.793  0.5835 -0.2409  0.3747
  771MOL0     C 4004   3.780   7.468   1.027  0.2433 -0.0267  0.1583
  771MOL0     C 4005   3.719   7.347   1.018 -0.6152 -0.2866  0.0324
  771MOL0     C 4006   3.575   7.340   1.036 -0.2066  0.3656  0.4295
  771MOL0     C 4007   3.507   7.456   1.080  0.1140 -0.6953  0.0086
  771MOL0     O 4008   3.379   7.445   1.118  0.9375 -0.4045 -0.9979
  771MOL0     C 4009   3.285   7.426   1.010  0.3732 -0.2756 -0.2536
  771MOL0     C 4010   3.140   7.459   1.044  0.3150  0.2374 -0.7059
  771MOL0     C 4011   3.092   7.415   1.189 -0.1800  0.4381  1.7105
  771MOL0     C 4012   3.091   7.259   1.190  0.3886  0.2972 -0.4979
  771MOL0     C 4013   3.018   7.222   1.312  0.7086  0.2073  0.4293
  771MOL0     C 4014   2.953   7.184   1.409 -0.2894 -0.3002  0.6879
  771MOL0     C 4015   3.579   7.575   1.091  0.8091  0.0438  0.3038
  771MOL0     C 4016   3.715   7.584   1.063 -0.1725  1.3164  0.3260
  771MOL0     C 4017   3.797   7.705   1.077  0.0452 -0.0261 -0.2608
  771MOL0     H 4018   4.094   7.302   0.820  1.6447 -0.4359  1.7064
  771MOL0     H 4019   4.330   7.295   0.731 -0.6328 -0.9921  0.2106
  771MOL0     H 4020   4.528   7.339   0.574  0.6716  0.6758  1.4778
  771MOL0     H 4021   4.388   7.402   0.490  0.4280  0.6571 -0.7547
  771MOL0     H 4022   4.557   7.607   0.423 -2.4304 -1.1699 -2.2086
  771MOL0     H 4023   4.582   7.451   0.350 -1.2389 -2.0268  0.6680
  771MOL0     H 4024   4.749   7.391   0.536  1.8805 -0.6137 -1.9801
  771MOL0     H 4025   4.711   7.534   0.612 -1.0573  0.9777 -0.4880
  771MOL0     H 4026   4.809   7.510   0.326 -0.6653  2.9152 -0.3934
  771MOL0     H 4027   4.820   7.665   0.415  2.1511  0.8239 -0.7169
  771MOL0     H 4028   4.988   7.562   0.583  1.8143 -1.4010  0.2193
  771MOL0     H 4029   4.972   7.408   0.502 -1.1009  0.3067  0.8336
  771MOL0     H 4030   5.046   7.471   0.300 -2.1534 -2.3416  2.2668
  771MOL0     H 4031   5.075   7.643   0.350  2.8023 -0.1105 -0.2728
  771MOL0     H 4032   5.194   7.381   0.465  2.7780  0.4706  2.5045
  771MOL0     H 4033   5.244   7.534   0.527 -3.0677 -1.6465  1.7284
  771MOL0     H 4034   5.279   7.432   0.243  1.3054 -1.7709  0.2852
  771MOL0     H 4035   5.329   7.601   0.298 -1.5156  0.4787  1.9559
  771MOL0     H 4036   5.416   7.215   0.345  0.1600 -0.0057 -3.2749
  771MOL0     H 4037   5.766   7.171   0.481 -0.2711  1.5489 -0.5858
  771MOL0     H 4038   5.646   7.086   0.380 -1.4673  0.8094  1.8766
  771MOL0     H 4039   5.891   7.247   0.306  1.5658 -2.6008  1.6073
  771MOL0     H 4040   5.862   7.074   0.286  0.0375  0.0514  0.2725
  771MOL0     H 4041   5.713   7.295   0.139 -2.1239 -0.0735  3.4830
  771MOL0     H 4042   5.677   7.132   0.119  1.3321 -1.2212 -0.3462
  771MOL0     H 4043   5.827   7.144  -0.059 -0.1448 -3.7338  1.1750
  771MOL0     H 4044   5.957   7.138   0.067 -1.5781 -0.4225  2.2780
  771MOL0     H 4045   6.005   7.584  -0.061  0.8201  2.3041 -2.4994
  771MOL0     H 4046   6.164   7.628  -0.226 -1.6528 -0.0441 -2.5092
  771MOL0     H 4047   6.586   7.697  -0.366  1.3957 -0.4867 -0.7501
  771MOL0     H 4048   6.709   7.782  -0.538 -0.9051  2.4569 -0.4876
  771MOL0     H 4049   6.482   7.930  -0.865 -0.9597 -1.6675 -0.5642
  771MOL0     H 4050   6.605   7.992  -0.762 -0.3741 -1.0873  0.7865
  771MOL0     H 4051   6.656   7.881  -1.042  1.6793  1.4687 -2.0842
  771MOL0     H 4052   6.625   8.049  -1.000 -1.9556 -1.1502 -0.9804
  771MOL0     H 4053   6.821   7.880  -0.856  0.3801 -0.1158  0.4582
  771MOL0     H 4054   6.877   7.942  -1.015  1.9991  1.1844  0.8782
  771MOL0     H 4055   6.763   8.129  -0.806  0.4076  4.5623 -1.2053
  771MOL0     H 4056   6.887   8.166  -0.933  5.0133 -1.4831  1.0347
  771MOL0     H 4057   6.931   8.005  -0.683 -0.3704  0.0880  0.4859
  771MOL0     H 4058   6.979   8.164  -0.716 -2.2076  0.2651 -1.0214
  771MOL0     H 4059   7.165   7.984  -0.735 -0.5656 -1.3833 -0.5621
  771MOL0     H 4060   7.095   7.928  -0.877  0.2159 -0.8750 -0.2484
  771MOL0     H 4061   7.145   8.227  -0.864 -2.2806 -0.7062  2.2185
  771MOL0     H 4062   7.116   8.108  -1.000  1.6535  0.2017 -0.1226
  771MOL0     H 4063   7.361   8.180  -0.960 -0.9476 -0.0911 -0.9410
  771MOL0     H 4064   7.348   8.095  -0.799  1.7667  3.3277  0.7016
  771MOL0     H 4065   6.400   7.650  -0.824  0.9300  0.0696 -0.4481
  771MOL0     H 4066   6.272   7.565  -0.634 -0.6929  1.7920 -0.8103
  771MOL0     H 4067   6.215   7.210  -0.303 -0.8141 -0.5995  0.6106
  771MOL0     H 4068   6.023   7.156  -0.172  1.3798 -0.5087 -4.5294
  771MOL0     H 4069   4.298   7.729   0.723 -1.3492  1.0256  1.7920
  771MOL0     H 4070   4.117   7.743   0.814  4.8475  1.0338  0.7148
  771MOL0     H 4071   3.785   7.266   0.989  3.7323  2.1214  2.1574
  771MOL0     H 4072   3.522   7.249   1.014 -0.8985  1.0355 -0.8186
  771MOL0     H 4073   3.294   7.323   0.972  1.9014 -0.5084  0.6686
  771MOL0     H 4074   3.319   7.487   0.926  0.6594  0.4724  0.4006
  771MOL0     H 4075   3.074   7.408   0.974 -1.0401  1.7643 -0.5938
  771MOL0     H 4076   3.111   7.564   1.030  1.7849  0.6151 -1.1254
  771MOL0     H 4077   2.989   7.450   1.198 -0.4188  0.8103 -1.4529
  771MOL0     H 4078   3.154   7.441   1.276  0.7325  1.5119  0.7729
  771MOL0     H 4079   3.033   7.221   1.106  2.9731 -0.6344 -1.9702
  771MOL0     H 4080   3.187   7.207   1.193  1.1788  1.5721 -2.1480
  771MOL0     H 4081   2.876   7.155   1.477  1.6561 -0.8268  2.7936
  771MOL0     H 4082   3.548   7.673   1.127 -3.2209 -0.6700 -0.7349
  771MOL0     H 4083   3.738   7.787   1.119 -0.6569 -0.8591  0.4235
  771MOL0     H 4084   3.872   7.679   1.153  0.7227 -1.9406 -1.5315
  771MOL0     H 4085   3.852   7.727   0.986 -0.2038  2.4311  0.1039
  772MOL0     O 4086   6.391   1.844   8.287  0.8337 -0.3363  0.0114
  772MOL0     C 4087   6.353   1.948   8.324 -0.8328 -1.1600 -0.2335
  772MOL0     O 4088   6.422   2.028   8.409  0.6228  0.2020  0.3387
  772MOL0     C 4089   6.547   1.999   8.454 -0.4039 -0.2610  0.5795
  772MOL0     C 4090   6.580   2.049   8.582  0.9105  0.8579  0.7182
  772MOL0     C 4091   6.708   2.048   8.625  0.2155  0.3968 -0.2110
  772MOL0     C 4092   6.806   1.975   8.562  0.3914  0.0132  0.5875
  772MOL0     O 4093   6.934   1.975   8.617  0.0725 -0.4570  0.2141
  772MOL0     C 4094   7.034   1.884   8.570  0.8185 -0.2299 -0.1773
  772MOL0     C 4095   7.126   1.923   8.451  0.3079 -0.0845  0.0469
  772MOL0     C 4096   7.235   2.021   8.497  0.8292 -0.3779 -0.0833
  772MOL0     C 4097   7.361   1.945   8.536  1.0487  0.0776 -0.6472
  772MOL0     C 4098   7.472   2.048   8.581 -0.3947 -0.4055 -0.1729
  772MOL0     C 4099   7.590   1.973   8.654 -1.4389 -0.1846 -0.0713
  772MOL0     C 4100   7.713   2.064   8.664 -0.1661 -0.3676  0.1165
  772MOL0     C 4101   7.835   1.988   8.721 -0.1003 -0.2995  0.5041
  772MOL0     N 4102   7.950   2.071   8.741 -0.6472 -0.3124 -0.2435
  772MOL0     C 4103   7.978   2.186   8.680 -0.0244  0.3954 -0.2294
  772MOL0     C 4104   8.072   2.235   8.765  0.3259 -0.3825  0.4293
  772MOL0     C 4105   8.122   2.382   8.772 -0.7225 -0.0084 -0.6686
  772MOL0     C 4106   8.270   2.380   8.834 -0.0381 -0.1212 -1.4353
  772MOL0     C 4107   8.311   2.517   8.894  0.4984  0.1296 -0.1380
  772MOL0     C 4108   8.450   2.522   8.965  0.4404 -0.7590  0.5712
  772MOL0     O 4109   8.549   2.503   8.867 -0.0334  0.0151 -0.3321
  772MOL0     C 4110   8.683   2.488   8.901  0.3276  0.4138 -0.2172
  772MOL0     C 4111   8.734   2.466   9.024  0.1090 -0.5254 -0.3907
  772MOL0     C 4112   8.876   2.461   9.044 -0.0938  0.0999  0.6815
  772MOL0     C 4113   8.958   2.469   8.933 -1.1474 -0.1577  0.9092
  772MOL0     C 4114   9.107   2.449   8.948  0.2232  0.0466  0.6812
  772MOL0     O 4115   9.163   2.434   9.075 -0.2877 -0.4015  0.1522
  772MOL0     C 4116   9.291   2.429   9.087 -0.8016  0.9224 -0.3866
  772MOL0     C 4117   9.374   2.515   9.025  0.7082 -0.1241 -0.5943
  772MOL0     C 4118   9.516   2.505   9.031 -0.1267 -0.8063 -0.6482
  772MOL0     C 4119   9.573   2.408   9.120  0.3829 -0.2059  0.5724
  772MOL0     O 4120   9.713   2.384   9.133 -0.3217 -0.1304  0.2887
  772MOL0     C 4121   9.811   2.489   9.135 -0.0380  0.3266  0.3751
  772MOL0     C 4122   9.946   2.425   9.079 -0.1163 -0.0257 -0.3344
  772MOL0     C 4123  10.041   2.535   9.030 -0.1932  0.0735  0.5853
  772MOL0     C 4124  10.168   2.454   8.975  0.5562  0.3764 -0.1571
  772MOL0     C 4125  10.290   2.538   8.942  0.5344  0.2848  0.1207
  772MOL0     C 4126  10.267   2.604   8.809  1.6790 -0.6647 -0.0340
  772MOL0     C 4127  10.369   2.694   8.754 -0.1093  0.7528 -0.4087
  772MOL0     C 4128  10.304   2.781   8.644 -0.2028 -0.5110 -0.0443
  772MOL0    Cl 4129  10.416   2.919   8.606 -0.5364 -0.6230  0.3740
  772MOL0     C 4130   9.492   2.334   9.196  0.1321 -0.1335 -0.8501
  772MOL0     C 4131   9.356   2.332   9.178  0.0061 -0.7675 -0.2077
  772MOL0     O 4132   9.173   2.434   8.844  0.0132  0.2578 -0.1034
  772MOL0     C 4133   8.902   2.489   8.806 -0.4550  0.9470  0.0578
  772MOL0     C 4134   8.768   2.492   8.789 -0.2906 -0.6101 -0.3567
  772MOL0     N 4135   8.095   2.145   8.863 -0.1850  0.2666  0.8985
  772MOL0     N 4136   8.022   2.045   8.850 -0.2300 -0.3574 -0.3772
  772MOL0     C 4137   6.778   1.927   8.431  0.3067 -0.2512  1.0663
  772MOL0     C 4138   6.650   1.946   8.378  0.4275 -0.6946  0.3432
  772MOL0     C 4139   6.233   2.000   8.260 -0.0985  0.5064 -0.4264
  772MOL0     C 4140   6.219   2.140   8.255  0.6338  0.5953 -0.1474
  772MOL0     C 4141   6.099   2.200   8.214 -0.3592  0.2587 -0.0873
  772MOL0     C 4142   5.996   2.120   8.172  0.3487  0.3461  0.4685
  772MOL0     O 4143   5.887   2.193   8.132 -0.5662 -0.0994  0.4762
  772MOL0     C 4144   5.766   2.126   8.086 -0.7589  0.5500 -0.0000
  772MOL0     C 4145   5.673   2.114   8.208  0.3331 -0.6236 -0.6563
  772MOL0     C 4146   5.534   2.112   8.151  0.9215  0.1876 -0.7039
  772MOL0     C 4147   5.431   2.040   8.236  0.1965 -0.0132  0.1682
  772MOL0     C 4148   5.429   2.091   8.371  0.7185 -0.3425  0.2545
  772MOL0     C 4149   5.417   2.133   8.478  0.0620 -0.9352  0.8488
  772MOL0     C 4150   6.003   1.983   8.183 -1.0914  0.4161 -0.0711
  772MOL0     C 4151   6.119   1.920   8.231 -0.6842 -0.0506  0.2670
  772MOL0     C 4152   6.108   1.775   8.245 -0.5732  0.5902 -0.0531
  772MOL0     H 4153   6.502   2.089   8.646 -1.1250 -0.2089 -0.9766
  772MOL0     H 4154   6.728   2.092   8.722  2.3285 -4.9095  2.1438
  772MOL0     H 4155   7.097   1.861   8.656  1.5857 -0.8709 -0.8900
  772MOL0     H 4156   6.989   1.788   8.544  1.4913 -0.4451 -0.5768
  772MOL0     H 4157   7.062   1.979   8.381 -0.1201 -0.4360  0.1545
  772MOL0     H 4158   7.165   1.841   8.392 -0.1248 -0.5754  0.4314
  772MOL0     H 4159   7.197   2.084   8.578 -1.4926 -0.4488 -1.0408
  772MOL0     H 4160   7.261   2.090   8.416 -2.0555 -0.8002 -1.4877
  772MOL0     H 4161   7.345   1.886   8.626  1.9271 -0.7833 -1.0379
  772MOL0     H 4162   7.390   1.875   8.457  4.3508 -1.6284  1.8672
  772MOL0     H 4163   7.506   2.091   8.486 -0.7984 -2.3925 -1.2755
  772MOL0     H 4164   7.426   2.125   8.644 -1.1020 -1.1724  0.2621
  772MOL0     H 4165   7.555   1.932   8.750 -0.1238 -2.3450 -0.4440
  772MOL0     H 4166   7.625   1.884   8.601 -1.3909 -2.1220  2.9127
  772MOL0     H 4167   7.686   2.148   8.728 -0.6859 -0.5456  0.1375
  772MOL0     H 4168   7.734   2.110   8.567 -0.5514  0.3141  0.3472
  772MOL0     H 4169   7.816   1.944   8.819 -0.7762 -3.6376 -0.9914
  772MOL0     H 4170   7.864   1.909   8.651  0.7336  1.6897 -1.5185
  772MOL0     H 4171   7.922   2.229   8.596 -0.6670  0.3900  0.1885
  772MOL0     H 4172   8.120   2.430   8.673  3.2274 -1.4626 -1.6300
  772MOL0     H 4173   8.055   2.429   8.844 -0.9570 -0.6616 -0.4519
  772MOL0     H 4174   8.277   2.308   8.916 -1.5741  0.1850 -0.9968
  772MOL0     H 4175   8.331   2.340   8.753 -1.5340 -2.2782 -1.5636
  772MOL0     H 4176   8.226   2.553   8.953  0.3744 -1.0698  0.4504
  772MOL0     H 4177   8.315   2.590   8.812  0.3119  1.5026  1.0295
  772MOL0     H 4178   8.445   2.453   9.050 -1.5708  1.5234  2.4563
  772MOL0     H 4179   8.471   2.618   9.014  0.9510 -1.3448  1.5519
  772MOL0     H 4180   8.671   2.473   9.112 -0.0704 -1.9205 -0.3774
  772MOL0     H 4181   8.914   2.454   9.145 -2.2119 -1.3425  1.4559
  772MOL0     H 4182   9.333   2.600   8.971  2.4006  1.2471  0.1803
  772MOL0     H 4183   9.587   2.552   8.963  0.9133 -3.8492 -1.8611
  772MOL0     H 4184   9.785   2.574   9.070  1.9145 -0.8371 -2.1189
  772MOL0     H 4185   9.827   2.517   9.239  4.2382  1.2267 -0.3516
  772MOL0     H 4186   9.996   2.361   9.153 -0.4602 -0.6182 -0.6137
  772MOL0     H 4187   9.919   2.364   8.993  0.5968 -0.7257 -0.0775
  772MOL0     H 4188   9.999   2.596   8.950  2.2573  2.0791  0.6980
  772MOL0     H 4189  10.059   2.607   9.110 -2.9144  3.2710 -1.4266
  772MOL0     H 4190  10.141   2.379   8.900  1.9248 -1.0449  0.7126
  772MOL0     H 4191  10.207   2.384   9.050 -0.7195 -0.8784 -0.6006
  772MOL0     H 4192  10.383   2.482   8.934 -0.9704 -2.2785 -0.6088
  772MOL0     H 4193  10.310   2.606   9.026  1.7922 -0.0934  0.1507
  772MOL0     H 4194  10.246   2.524   8.737 -3.8405  0.6390 -0.3188
  772MOL0     H 4195  10.170   2.654   8.817  1.4598 -1.0166 -0.4192
  772MOL0     H 4196  10.453   2.637   8.716  0.6672  1.2804  0.4940
  772MOL0     H 4197  10.407   2.764   8.829 -1.3981  0.7200  0.2986
  772MOL0     H 4198  10.301   2.717   8.556 -2.3244  0.2964 -0.6249
  772MOL0     H 4199  10.202   2.811   8.670  0.6774  2.5730  0.3305
  772MOL0     H 4200   9.540   2.258   9.257 -3.4513 -3.0340 -1.2546
  772MOL0     H 4201   9.282   2.278   9.236  0.5241 -0.3744  0.8497
  772MOL0     H 4202   8.963   2.500   8.717  2.6428 -3.4572  1.3220
  772MOL0     H 4203   8.723   2.492   8.690  0.4974 -0.2109 -0.7222
  772MOL0     H 4204   6.866   1.902   8.374  0.5072 -1.8941  2.0217
  772MOL0     H 4205   6.639   1.908   8.277 -0.3085 -0.8401  0.4777
  772MOL0     H 4206   6.295   2.204   8.297 -0.3786  2.1380 -0.5666
  772MOL0     H 4207   6.069   2.304   8.220 -1.7728  0.1690 -3.2224
  772MOL0     H 4208   5.778   2.031   8.034  0.1452  1.7148 -2.0438
  772MOL0     H 4209   5.714   2.195   8.018 -3.1541 -1.2632 -0.1254
  772MOL0     H 4210   5.675   2.194   8.282 -1.2518 -2.8203  1.9396
  772MOL0     H 4211   5.701   2.021   8.257  4.1543  0.5179 -0.3680
  772MOL0     H 4212   5.534   2.058   8.055  2.4377  2.0719 -1.8279
  772MOL0     H 4213   5.492   2.210   8.129 -0.4785  0.4710  2.7071
  772MOL0     H 4214   5.336   2.055   8.186 -0.4791 -0.1965  1.3562
  772MOL0     H 4215   5.451   1.933   8.223 -0.0106  0.2018 -2.2462
  772MOL0     H 4216   5.415   2.189   8.570 -0.2694  2.3796 -0.9937
  772MOL0     H 4217   5.922   1.920   8.147 -1.9803  0.7679  1.2711
  772MOL0     H 4218   6.129   1.740   8.346  2.0488  0.8668 -0.4256
  772MOL0     H 4219   6.015   1.727   8.216  1.5829 -3.9044 -0.4591
  772MOL0     H 4220   6.184   1.730   8.180 -1.1451  0.5839 -0.7200
  773MOL0     O 4221   2.810   8.983   9.422 -0.1326  0.1265 -0.7162
  773MOL0     C 4222   2.746   9.012   9.316  1.3616 -0.0532 -0.4770
  773MOL0     O 4223   2.791   8.985   9.194 -0.0337 -0.8357 -0.2354
  773MOL0     C 4224   2.897   8.898   9.170  0.5138  0.2790  0.3004
  773MOL0     C 4225   3.018   8.949   9.124 -0.3363 -0.7132 -0.2342
  773MOL0     C 4226   3.132   8.868   9.110  0.3588 -0.8331  0.1135
  773MOL0     C 4227   3.125   8.727   9.132  0.5745 -0.2014  0.0266
  773MOL0     O 4228   3.224   8.635   9.112  0.6722  0.0585  0.2290
  773MOL0     C 4229   3.332   8.632   9.205 -0.2460 -0.0528 -0.1230
  773MOL0     C 4230   3.427   8.516   9.167 -0.8680 -0.0448  0.6057
  773MOL0     C 4231   3.353   8.381   9.136 -0.2849  0.0190 -0.2940
  773MOL0     C 4232   3.451   8.268   9.105 -0.4683  0.0462  0.8733
  773MOL0     C 4233   3.388   8.126   9.105  0.0689  0.0275 -0.7059
  773MOL0     C 4234   3.263   8.114   9.014  0.1637  1.2637  0.1747
  773MOL0     C 4235   3.199   7.972   8.990 -0.7520 -0.7165 -0.5096
  773MOL0     C 4236   3.144   7.905   9.113 -0.4929  0.0562  1.0563
  773MOL0     N 4237   3.010   7.953   9.152  0.4161 -0.1470 -0.8948
  773MOL0     C 4238   2.900   7.868   9.152 -0.1802 -0.0226  0.0793
  773MOL0     C 4239   2.805   7.925   9.227  1.0481  0.7114  0.2435
  773MOL0     C 4240   2.679   7.868   9.274 -0.3665  0.1298  0.4270
  773MOL0     C 4241   2.669   7.840   9.427  0.2775 -0.4546 -0.6089
  773MOL0     C 4242   2.514   7.838   9.442  0.3299  0.3918 -0.8000
  773MOL0     C 4243   2.473   7.777   9.571  0.1124 -0.0978 -0.0209
  773MOL0     O 4244   2.340   7.812   9.598  0.0207 -0.6848  0.1877
  773MOL0     C 4245   2.229   7.732   9.583  0.4318  0.9647 -0.6902
  773MOL0     C 4246   2.111   7.796   9.574  0.0933  0.3253  1.0914
  773MOL0     C 4247   1.990   7.739   9.553  1.2221 -0.0506 -0.6673
  773MOL0     C 4248   1.981   7.597   9.545 -0.4099 -0.6053  0.7387
  773MOL0     C 4249   1.862   7.531   9.500  0.9097 -0.4188  0.1105
  773MOL0     O 4250   1.856   7.393   9.501 -0.1823  0.0057  0.0258
  773MOL0     C 4251   1.726   7.351   9.467 -0.8491  0.7960 -0.2975
  773MOL0     C 4252   1.672   7.345   9.336  0.7253  0.2968 -0.2837
  773MOL0     C 4253   1.540   7.306   9.315 -0.7257 -0.3940 -0.0633
  773MOL0     C 4254   1.467   7.264   9.421 -0.3424  0.0406 -0.3151
  773MOL0     O 4255   1.344   7.212   9.377  0.0316 -0.3889 -0.2987
  773MOL0     C 4256   1.244   7.213   9.481 -0.2592 -0.2310 -0.0399
  773MOL0     C 4257   1.116   7.152   9.443  0.7097  0.2764 -0.8066
  773MOL0     C 4258   1.057   7.222   9.315  0.6270 -0.7012 -0.0571
  773MOL0     C 4259   0.920   7.163   9.281 -0.1035  1.0021  0.1355
  773MOL0     C 4260   0.884   7.193   9.129  0.1557 -0.3051  0.4831
  773MOL0     C 4261   0.744   7.147   9.084  0.0685 -0.0468 -0.1937
  773MOL0     C 4262   0.766   6.994   9.081  0.2537 -0.0337 -0.3833
  773MOL0     C 4263   0.642   6.930   9.021 -0.1229 -0.4232 -0.3198
  773MOL0    Cl 4264   0.645   6.948   8.843 -0.0746  0.4675  0.1433
  773MOL0     C 4265   1.516   7.274   9.553 -0.5662 -0.4873 -0.0646
  773MOL0     C 4266   1.646   7.322   9.575 -0.7925 -0.5010 -0.3644
  773MOL0     O 4267   1.768   7.603   9.465  0.6567  0.1661 -0.2565
  773MOL0     C 4268   2.100   7.522   9.563 -0.0178 -0.3910  1.3933
  773MOL0     C 4269   2.222   7.592   9.584 -0.1166  0.0069 -1.0659
  773MOL0     N 4270   2.854   8.043   9.279 -0.1425 -0.1218 -0.5947
  773MOL0     N 4271   2.971   8.061   9.229  0.5705  0.1651  0.8616
  773MOL0     C 4272   3.001   8.676   9.180 -0.5047 -0.7485  0.1029
  773MOL0     C 4273   2.891   8.766   9.200 -0.4844 -0.2692  0.3994
  773MOL0     C 4274   2.600   9.050   9.314  0.1424  0.4622 -0.2937
  773MOL0     C 4275   2.507   8.962   9.251  1.0918 -0.1351 -0.6836
  773MOL0     C 4276   2.368   8.995   9.252  0.2343 -0.3527  0.1361
  773MOL0     C 4277   2.327   9.113   9.313  0.8384  0.0097 -0.5819
  773MOL0     O 4278   2.197   9.154   9.291  0.2925  1.0361 -0.4680
  773MOL0     C 4279   2.150   9.282   9.321 -0.2485 -0.2896 -0.7375
  773MOL0     C 4280   2.184   9.366   9.197  0.3129 -0.5358 -0.7671
  773MOL0     C 4281   2.133   9.510   9.205 -0.5647 -0.2743 -0.4422
  773MOL0     C 4282   1.986   9.532   9.169 -0.4287 -1.0128 -0.2512
  773MOL0     C 4283   1.888   9.475   9.264  0.2657 -0.4456 -0.4720
  773MOL0     C 4284   1.807   9.418   9.339  0.0668 -0.8086  0.1909
  773MOL0     C 4285   2.420   9.184   9.395  0.2049 -0.5558  0.8647
  773MOL0     C 4286   2.557   9.159   9.380 -1.2521  0.3729 -0.4705
  773MOL0     C 4287   2.662   9.247   9.444  0.3827 -0.5159  0.3595
  773MOL0     H 4288   3.013   9.055   9.102 -2.9559 -0.7171 -0.0311
  773MOL0     H 4289   3.223   8.910   9.069  1.0713 -1.2846  1.1967
  773MOL0     H 4290   3.390   8.723   9.189 -1.3039  0.1920 -3.1766
  773MOL0     H 4291   3.293   8.623   9.307 -0.0155 -0.1535 -0.0443
  773MOL0     H 4292   3.504   8.498   9.242 -0.4345  0.4839  0.2930
  773MOL0     H 4293   3.490   8.544   9.083 -0.6231 -2.9864 -0.2741
  773MOL0     H 4294   3.292   8.394   9.047 -0.7130  0.2795  0.0345
  773MOL0     H 4295   3.294   8.345   9.221  1.0412  0.3182  0.7890
  773MOL0     H 4296   3.494   8.289   9.006  0.6052  2.8939  1.8455
  773MOL0     H 4297   3.529   8.262   9.181 -0.8803 -3.4720  1.1878
  773MOL0     H 4298   3.460   8.054   9.065 -0.0455  0.4669 -1.7264
  773MOL0     H 4299   3.370   8.089   9.206  0.7324  1.4326 -0.0516
  773MOL0     H 4300   3.182   8.167   9.065  0.6787  0.2840  2.0735
  773MOL0     H 4301   3.284   8.165   8.920 -3.7758  0.3466 -1.4411
  773MOL0     H 4302   3.281   7.908   8.958 -0.9418 -0.6927 -1.0432
  773MOL0     H 4303   3.116   7.971   8.919 -3.5086 -2.2621  2.4830
  773MOL0     H 4304   3.141   7.796   9.106  2.4052 -0.1428  1.5940
  773MOL0     H 4305   3.223   7.930   9.185  2.2838 -0.8543 -1.4825
  773MOL0     H 4306   2.896   7.776   9.096 -0.3252 -0.3049  0.5527
  773MOL0     H 4307   2.604   7.941   9.243 -0.4918 -1.1869 -2.8278
  773MOL0     H 4308   2.666   7.778   9.212  0.8055  0.3745 -0.2094
  773MOL0     H 4309   2.722   7.749   9.456 -0.2853 -0.7485 -0.4898
  773MOL0     H 4310   2.711   7.925   9.481 -0.1508  0.5207 -1.7538
  773MOL0     H 4311   2.466   7.787   9.357 -0.3411  1.7650 -1.2762
  773MOL0     H 4312   2.476   7.941   9.437  1.2261  0.7629 -0.0407
  773MOL0     H 4313   2.548   7.809   9.643  0.8963 -1.6360 -0.0897
  773MOL0     H 4314   2.469   7.667   9.567 -0.8277 -0.0767  0.1357
  773MOL0     H 4315   2.111   7.905   9.578 -1.6932  0.3212  1.9473
  773MOL0     H 4316   1.899   7.798   9.553  0.4538 -1.0986  2.3290
  773MOL0     H 4317   1.737   7.387   9.260  1.9247 -3.4439 -1.5189
  773MOL0     H 4318   1.504   7.293   9.214  0.4565  0.4982 -0.6194
  773MOL0     H 4319   1.282   7.157   9.567 -0.2932 -0.4141 -0.1446
  773MOL0     H 4320   1.221   7.316   9.513 -0.9403 -0.2934 -0.3075
  773MOL0     H 4321   1.136   7.045   9.435  0.8366  0.4080 -2.7897
  773MOL0     H 4322   1.049   7.180   9.525 -0.9409 -0.1254 -1.9633
  773MOL0     H 4323   1.055   7.330   9.334  1.6219 -0.8431  0.9322
  773MOL0     H 4324   1.122   7.206   9.228  0.6025  0.3378 -0.2866
  773MOL0     H 4325   0.842   7.215   9.338 -2.2157 -1.4485 -0.3381
  773MOL0     H 4326   0.924   7.056   9.303 -0.9684  1.0050  0.3407
  773MOL0     H 4327   0.956   7.147   9.060  0.8220 -1.1676  1.7276
  773MOL0     H 4328   0.894   7.301   9.114  1.6446 -0.1514  2.2969
  773MOL0     H 4329   0.675   7.168   9.166  1.5593 -2.6938  1.9275
  773MOL0     H 4330   0.710   7.193   8.990  2.7292  0.2259 -1.1151
  773MOL0     H 4331   0.777   6.946   9.178  0.6693 -3.9590 -2.1718
  773MOL0     H 4332   0.855   6.960   9.027 -0.0765 -0.0366 -0.9348
  773MOL0     H 4333   0.616   6.827   9.048 -1.0770  0.3365  1.8464
  773MOL0     H 4334   0.552   6.984   9.053  0.5028 -0.0442  0.8640
  773MOL0     H 4335   1.462   7.246   9.642  0.4061 -0.0439  0.6919
  773MOL0     H 4336   1.698   7.324   9.671 -0.3309  1.9584 -0.6176
  773MOL0     H 4337   2.109   7.414   9.552 -2.5865 -0.4161 -2.5426
  773MOL0     H 4338   2.319   7.545   9.592  0.0996  0.7820  1.6108
  773MOL0     H 4339   3.001   8.568   9.189  1.8703 -0.8303 -0.2532
  773MOL0     H 4340   2.797   8.723   9.235 -0.3297 -1.4709 -0.5743
  773MOL0     H 4341   2.546   8.867   9.214 -0.6465 -2.3500  2.6691
  773MOL0     H 4342   2.302   8.924   9.203 -0.6212  0.5597 -0.0408
  773MOL0     H 4343   2.183   9.334   9.411 -1.0436  0.6219 -0.9575
  773MOL0     H 4344   2.041   9.274   9.313 -0.3458  1.3940 -1.4743
  773MOL0     H 4345   2.149   9.315   9.107  2.1644  0.1367 -1.9028
  773MOL0     H 4346   2.292   9.379   9.194 -0.0761  4.2384 -1.1421
  773MOL0     H 4347   2.197   9.573   9.142 -1.9016  1.6012 -0.0207
  773MOL0     H 4348   2.167   9.539   9.305  0.5718 -1.7841 -0.3481
  773MOL0     H 4349   1.962   9.639   9.171 -0.6256 -1.0454 -0.7266
  773MOL0     H 4350   1.964   9.494   9.069 -0.6560 -0.7173 -0.3129
  773MOL0     H 4351   1.739   9.355   9.393 -0.2092  0.7463  1.7451
  773MOL0     H 4352   2.396   9.278   9.443 -1.8470 -1.1567  1.1087
  773MOL0     H 4353   2.711   9.201   9.530  0.4802  2.0935  1.8038
  773MOL0     H 4354   2.738   9.284   9.375 -0.0843  1.3295  0.7916
  773MOL0     H 4355   2.610   9.333   9.488  1.0466 -0.2337  0.5991
  774MOL0     O 4356   5.483   6.927   5.725 -0.1285  0.9286 -0.1716
  774MOL0     C 4357   5.475   7.046   5.694  0.2776 -0.2039 -0.3360
  774MOL0     O 4358   5.583   7.122   5.666 -0.2349  0.3337  0.0422
  774MOL0     C 4359   5.697   7.096   5.736  0.2297 -0.6656 -0.0809
  774MOL0     C 4360   5.775   7.001   5.672 -0.4458 -0.4247 -0.6737
  774MOL0     C 4361   5.907   6.976   5.725 -0.9420  0.9737 -0.3400
  774MOL0     C 4362   5.954   7.030   5.841 -0.8609 -0.5367 -0.3612
  774MOL0     O 4363   6.076   7.006   5.883  0.0069 -0.2746 -0.2458
  774MOL0     C 4364   6.178   6.995   5.783  0.3981  0.3162  0.8085
  774MOL0     C 4365   6.317   7.006   5.856  0.6625  1.1079  0.0230
  774MOL0     C 4366   6.369   6.871   5.897  0.4115  0.5980 -0.7107
  774MOL0     C 4367   6.509   6.887   5.967 -0.2512  0.3244  0.6554
  774MOL0     C 4368   6.561   6.758   6.034 -0.1344 -0.2020 -1.0703
  774MOL0     C 4369   6.593   6.628   5.940  0.7346 -0.0987 -0.1497
  774MOL0     C 4370   6.710   6.645   5.846  0.2676  1.1013  0.1533
  774MOL0     C 4371   6.841   6.704   5.910 -0.1119  0.9274 -0.6806
  774MOL0     N 4372   6.955   6.650   5.838  0.5813  0.8047 -0.5309
  774MOL0     C 4373   6.973   6.679   5.713  0.1177  0.3671  0.3289
  774MOL0     C 4374   7.082   6.600   5.684  0.1817 -0.5185  0.5159
  774MOL0     C 4375   7.147   6.615   5.545 -0.0149 -0.4127 -0.1721
  774MOL0     C 4376   7.097   6.522   5.436  0.6482  0.0211 -0.1180
  774MOL0     C 4377   7.198   6.506   5.312  0.7607  0.8510  0.5897
  774MOL0     C 4378   7.166   6.592   5.184 -0.4581  1.1578 -0.2687
  774MOL0     O 4379   7.214   6.727   5.200 -0.0906 -0.2532 -0.7117
  774MOL0     C 4380   7.350   6.759   5.175  0.3546 -0.3637  0.9007
  774MOL0     C 4381   7.397   6.896   5.192  0.4922  1.4821  0.1282
  774MOL0     C 4382   7.535   6.924   5.175 -1.1293  0.0606 -0.1266
  774MOL0     C 4383   7.633   6.824   5.141  0.3378  0.5038 -0.0971
  774MOL0     C 4384   7.780   6.852   5.127  0.2244  0.1407  0.7741
  774MOL0     O 4385   7.814   6.987   5.123  0.2981  0.5135  0.2412
  774MOL0     C 4386   7.939   7.025   5.109 -1.0721 -0.8718  0.2279
  774MOL0     C 4387   7.985   7.053   4.977 -0.8535 -0.5297  0.4788
  774MOL0     C 4388   8.104   7.121   4.955 -0.3261  0.6274 -0.1094
  774MOL0     C 4389   8.174   7.167   5.062  0.4811 -0.5458 -0.9360
  774MOL0     O 4390   8.287   7.234   5.048  0.5542 -0.4734  0.1346
  774MOL0     C 4391   8.299   7.334   4.944  0.5934  0.3202 -0.2272
  774MOL0     C 4392   8.419   7.425   4.978  1.0573 -0.3490 -0.5097
  774MOL0     C 4393   8.437   7.539   4.875  0.3412 -0.3647 -0.9885
  774MOL0     C 4394   8.523   7.644   4.940 -0.5385 -0.1482 -0.6685
  774MOL0     C 4395   8.661   7.599   4.972 -0.7479 -1.0718  0.0831
  774MOL0     C 4396   8.742   7.725   4.990  0.6815 -0.1850  0.0848
  774MOL0     C 4397   8.868   7.685   5.065  0.7201  0.8041  0.3425
  774MOL0     C 4398   8.973   7.794   5.066 -0.4207  0.2546  0.3267
  774MOL0    Cl 4399   9.139   7.728   5.113 -0.1783  0.1854 -0.0278
  774MOL0     C 4400   8.127   7.153   5.196  0.2399  0.0875 -0.4057
  774MOL0     C 4401   8.012   7.078   5.222 -0.5253 -0.1052 -0.0423
  774MOL0     O 4402   7.861   6.762   5.113  0.7457 -0.4549 -0.3000
  774MOL0     C 4403   7.581   6.698   5.119  0.3358  0.3295 -0.1129
  774MOL0     C 4404   7.448   6.663   5.138 -0.9410 -0.5588 -0.0662
  774MOL0     N 4405   7.118   6.519   5.785  0.0043 -0.0774  0.9241
  774MOL0     N 4406   7.028   6.543   5.881  0.2432 -0.4078 -0.0503
  774MOL0     C 4407   5.866   7.115   5.913 -0.6759 -0.6812  0.1545
  774MOL0     C 4408   5.737   7.156   5.858  0.4824  0.6220 -0.0402
  774MOL0     C 4409   5.339   7.107   5.671  0.1120  1.2376  0.5882
  774MOL0     C 4410   5.324   7.226   5.598 -1.0442  0.6547 -0.3596
  774MOL0     C 4411   5.200   7.270   5.554  0.6742  0.7542  1.2605
  774MOL0     C 4412   5.093   7.187   5.572 -0.1481 -0.5056  0.4952
  774MOL0     O 4413   4.986   7.240   5.510 -0.1324 -0.1879  0.2728
  774MOL0     C 4414   4.866   7.189   5.560  0.1381 -0.4174  1.1165
  774MOL0     C 4415   4.757   7.272   5.495 -0.8502 -0.1495  0.0282
  774MOL0     C 4416   4.616   7.226   5.543  0.2100  0.0724 -0.7321
  774MOL0     C 4417   4.502   7.304   5.491 -0.1960 -0.6181  0.2588
  774MOL0     C 4418   4.471   7.284   5.347 -0.2275  0.3466  0.1532
  774MOL0     C 4419   4.429   7.273   5.229  0.6290  0.1754 -0.2073
  774MOL0     C 4420   5.093   7.073   5.653 -0.1763  0.5024  0.4580
  774MOL0     C 4421   5.214   7.033   5.707 -2.0416  0.5621 -1.1489
  774MOL0     C 4422   5.213   6.904   5.787  0.2806 -0.4827  0.5913
  774MOL0     H 4423   5.739   6.977   5.573  0.4139  0.6116 -1.2669
  774MOL0     H 4424   5.971   6.914   5.664 -0.7312  0.1137  0.7154
  774MOL0     H 4425   6.177   6.901   5.728  1.8634 -0.9383  2.7938
  774MOL0     H 4426   6.177   7.077   5.710 -0.8977 -0.0243  0.4089
  774MOL0     H 4427   6.310   7.073   5.942 -0.2534 -0.5061  1.2549
  774MOL0     H 4428   6.385   7.050   5.782  3.4541  0.6255  2.1548
  774MOL0     H 4429   6.383   6.796   5.819  1.6886 -2.3729  2.1241
  774MOL0     H 4430   6.299   6.829   5.970  0.0853  0.5788 -1.0377
  774MOL0     H 4431   6.587   6.919   5.898  0.1156 -1.2132  0.3257
  774MOL0     H 4432   6.497   6.959   6.048  1.5321  1.8155 -0.3210
  774MOL0     H 4433   6.655   6.800   6.072 -2.6530  2.0621  3.6077
  774MOL0     H 4434   6.495   6.731   6.118 -0.6551  1.9676 -0.7214
  774MOL0     H 4435   6.616   6.545   6.007 -1.4267 -0.6045  0.0549
  774MOL0     H 4436   6.497   6.605   5.893 -1.7403  2.8627  2.8844
  774MOL0     H 4437   6.693   6.716   5.765 -1.1607  1.8163  1.0397
  774MOL0     H 4438   6.731   6.543   5.813  0.5913  0.4519  2.1925
  774MOL0     H 4439   6.828   6.812   5.924 -1.6808  0.4501  2.4169
  774MOL0     H 4440   6.857   6.667   6.011 -0.1474  0.5610 -0.8085
  774MOL0     H 4441   6.924   6.754   5.653 -1.9722 -0.3742  1.0134
  774MOL0     H 4442   7.121   6.717   5.517 -0.5296 -0.1074  1.3053
  774MOL0     H 4443   7.256   6.612   5.547  0.0876 -0.7882 -2.7277
  774MOL0     H 4444   7.066   6.426   5.479  1.2158 -0.4945 -0.8365
  774MOL0     H 4445   6.998   6.552   5.400  0.2862 -0.3734  0.5173
  774MOL0     H 4446   7.200   6.400   5.285  1.2134  0.8301  0.6959
  774MOL0     H 4447   7.300   6.515   5.349 -0.2489  1.2673  3.5904
  774MOL0     H 4448   7.058   6.600   5.169 -0.5995 -0.0928 -0.0807
  774MOL0     H 4449   7.206   6.548   5.092 -1.6530 -1.9114  0.5195
  774MOL0     H 4450   7.331   6.979   5.217  1.6642  2.1504  1.0887
  774MOL0     H 4451   7.565   7.022   5.210  3.6970 -0.2765 -2.3960
  774MOL0     H 4452   7.926   7.016   4.894 -0.3559  1.1427 -0.6739
  774MOL0     H 4453   8.121   7.119   4.847  0.3611 -1.8304 -0.0245
  774MOL0     H 4454   8.318   7.303   4.841 -0.9080  1.7609 -0.9976
  774MOL0     H 4455   8.206   7.392   4.958  0.6168  0.6691 -1.4084
  774MOL0     H 4456   8.390   7.473   5.072 -0.8415  1.1695 -1.7914
  774MOL0     H 4457   8.506   7.362   4.998 -0.1148 -1.4574  1.3974
  774MOL0     H 4458   8.485   7.492   4.788  0.2499  0.5481 -1.5381
  774MOL0     H 4459   8.343   7.584   4.843  0.7196 -0.4150 -2.2170
  774MOL0     H 4460   8.474   7.662   5.036 -0.8849  2.4905 -1.2754
  774MOL0     H 4461   8.511   7.733   4.878 -1.1270 -0.2696 -0.7333
  774MOL0     H 4462   8.712   7.552   4.888  2.5921  2.9300 -0.4673
  774MOL0     H 4463   8.669   7.535   5.060 -3.8060  1.1571  2.1826
  774MOL0     H 4464   8.765   7.784   4.900 -1.5256  0.6498  0.0172
  774MOL0     H 4465   8.688   7.795   5.054 -0.3613 -0.7234 -0.1805
  774MOL0     H 4466   8.909   7.595   5.019 -0.2185  0.7440 -0.3831
  774MOL0     H 4467   8.844   7.664   5.170  0.4723 -0.1516  0.1031
  774MOL0     H 4468   8.973   7.835   4.965 -3.4590  1.2860  0.6576
  774MOL0     H 4469   8.948   7.880   5.130 -1.3290  0.4841 -0.3136
  774MOL0     H 4470   8.189   7.194   5.275  0.6931 -0.4639 -0.4705
  774MOL0     H 4471   7.972   7.072   5.323  3.0654  1.0304  1.6106
  774MOL0     H 4472   7.651   6.620   5.089  0.9890  0.1569  1.7283
  774MOL0     H 4473   7.432   6.556   5.137 -2.5111 -0.5187  3.8914
  774MOL0     H 4474   5.909   7.153   6.005  1.9403 -2.4972 -0.1985
  774MOL0     H 4475   5.702   7.247   5.905  1.6071  0.6066  0.8639
  774MOL0     H 4476   5.407   7.289   5.567 -1.2853 -0.0178 -2.5593
  774MOL0     H 4477   5.196   7.362   5.495 -0.4013 -0.1908 -0.2018
  774MOL0     H 4478   4.864   7.191   5.669 -0.8695 -0.7374  1.1136
  774MOL0     H 4479   4.861   7.082   5.534  2.5308 -0.2655 -0.2728
  774MOL0     H 4480   4.755   7.254   5.388  2.5497 -1.1340  0.0178
  774MOL0     H 4481   4.775   7.374   5.529 -0.4234 -0.9179  2.3554
  774MOL0     H 4482   4.629   7.259   5.647  4.2685  3.0644 -1.9164
  774MOL0     H 4483   4.603   7.120   5.521  1.5692  0.0573 -1.5656
  774MOL0     H 4484   4.413   7.266   5.541  0.0497 -2.6430 -0.7289
  774MOL0     H 4485   4.514   7.411   5.505  0.7036 -0.2129 -2.7692
  774MOL0     H 4486   4.391   7.266   5.129 -2.7789 -0.8981  1.0102
  774MOL0     H 4487   5.002   7.021   5.681 -0.5411  0.5065 -0.6807
  774MOL0     H 4488   5.245   6.823   5.720  1.1215  1.2747 -1.2638
  774MOL0     H 4489   5.274   6.911   5.877 -1.3094  0.1630  1.6561
  774MOL0     H 4490   5.111   6.889   5.823 -0.3746 -0.7082 -1.2552
  775MOL0     O 4491   9.660  10.961   5.531  0.1371 -0.3354 -0.2472
  775MOL0     C 4492   9.602  10.924   5.427 -0.6487  0.2142 -0.1999
  775MOL0     O 4493   9.662  10.909   5.305 -0.1532 -0.2328  0.2191
  775MOL0     C 4494   9.791  10.944   5.294  0.4055 -0.5569  0.1159
  775MOL0     C 4495   9.826  11.081   5.294  0.2654 -0.6609 -0.5317
  775MOL0     C 4496   9.950  11.120   5.279 -0.1566 -0.3526  0.1844
  775MOL0     C 4497  10.055  11.023   5.254 -0.0519  0.8307  0.1038
  775MOL0     O 4498  10.189  11.047   5.263 -0.1226  0.0439  0.7068
  775MOL0     C 4499  10.229  11.183   5.260 -0.0788  0.4637  0.2993
  775MOL0     C 4500  10.380  11.180   5.274 -0.4069  0.1313 -0.2352
  775MOL0     C 4501  10.439  11.316   5.284  0.3413 -0.7554 -0.1743
  775MOL0     C 4502  10.585  11.324   5.326  0.5817  0.0676  0.4530
  775MOL0     C 4503  10.649  11.462   5.352 -0.7951 -0.1142  0.2709
  775MOL0     C 4504  10.596  11.539   5.474  0.9350  0.3672 -0.9568
  775MOL0     C 4505  10.652  11.682   5.505  0.5095  0.5449 -1.0731
  775MOL0     C 4506  10.801  11.709   5.499 -0.2147 -0.0904 -0.0650
  775MOL0     N 4507  10.867  11.658   5.618 -0.0660 -0.5377  0.5757
  775MOL0     C 4508  10.878  11.527   5.632  0.1962  0.1342  0.8002
  775MOL0     C 4509  10.877  11.517   5.764 -0.6882 -0.5469 -1.0798
  775MOL0     C 4510  10.879  11.390   5.841 -0.2741  0.3916 -0.4415
  775MOL0     C 4511  10.746  11.313   5.861  0.3140 -0.3645 -0.2131
  775MOL0     C 4512  10.776  11.193   5.939 -0.8755  1.2721 -0.1847
  775MOL0     C 4513  10.653  11.101   5.958  0.2884 -0.1422 -0.3342
  775MOL0     O 4514  10.555  11.185   6.029  0.1266  0.6466  0.3221
  775MOL0     C 4515  10.423  11.137   6.024  0.1096 -0.2431 -0.1393
  775MOL0     C 4516  10.311  11.218   6.061  0.2690  0.0623 -0.5510
  775MOL0     C 4517  10.181  11.180   6.043  0.7303  0.7692  1.0658
  775MOL0     C 4518  10.153  11.043   6.014 -0.7095  0.5084 -0.8692
  775MOL0     C 4519  10.018  10.993   6.008  0.4525 -0.3886 -0.2598
  775MOL0     O 4520   9.916  11.088   5.994  0.1209  0.2324  0.1948
  775MOL0     C 4521   9.793  11.024   5.988  0.0689 -0.5141 -0.4932
  775MOL0     C 4522   9.715  11.049   6.098  0.3014  0.0812  0.5447
  775MOL0     C 4523   9.590  10.978   6.111  0.0262  0.1273  0.4273
  775MOL0     C 4524   9.552  10.892   6.004  0.0225  0.4124  0.1285
  775MOL0     O 4525   9.437  10.817   6.002 -0.4715 -0.0494 -0.5508
  775MOL0     C 4526   9.318  10.895   6.041  0.0806  0.3157 -0.6662
  775MOL0     C 4527   9.272  10.880   6.194  0.3725  0.5413 -0.3006
  775MOL0     C 4528   9.184  10.751   6.214  0.4298 -0.3169  0.2275
  775MOL0     C 4529   9.061  10.793   6.295 -0.1407 -0.7006 -0.4981
  775MOL0     C 4530   8.932  10.709   6.257 -0.0466 -0.4437 -0.8904
  775MOL0     C 4531   8.815  10.740   6.352  0.4009 -0.3007  0.0248
  775MOL0     C 4532   8.692  10.721   6.274  0.1817  0.7762 -0.1852
  775MOL0     C 4533   8.561  10.731   6.356  0.3155 -0.1490 -0.0369
  775MOL0    Cl 4534   8.434  10.667   6.244  0.1380 -0.1069 -0.1555
  775MOL0     C 4535   9.628  10.897   5.882 -0.4137  0.3429  0.0806
  775MOL0     C 4536   9.739  10.958   5.883 -0.4566  0.4542 -0.0284
  775MOL0     O 4537  10.009  10.871   6.034  0.2695  0.7962 -0.1339
  775MOL0     C 4538  10.265  10.958   5.997 -0.6075 -0.4406 -0.1761
  775MOL0     C 4539  10.394  11.005   5.991 -0.1378 -0.2124  0.3426
  775MOL0     N 4540  10.879  11.637   5.830  0.0443 -0.0751  0.5625
  775MOL0     N 4541  10.879  11.727   5.734 -0.4872 -0.0657 -0.4629
  775MOL0     C 4542  10.019  10.889   5.235 -0.3459  0.7220  1.2812
  775MOL0     C 4543   9.885  10.861   5.254  0.0816  0.2812  0.1006
  775MOL0     C 4544   9.456  10.904   5.439 -0.3063 -1.1947  0.1781
  775MOL0     C 4545   9.378  10.939   5.547 -0.2891  0.8392 -1.1701
  775MOL0     C 4546   9.241  10.915   5.551 -0.2657 -0.1734 -0.7027
  775MOL0     C 4547   9.172  10.856   5.448 -0.0143  0.0535  1.0465
  775MOL0     O 4548   9.040  10.823   5.441 -0.1295 -0.6222 -0.0557
  775MOL0     C 4549   8.952  10.877   5.542 -0.3416  0.1364  0.9836
  775MOL0     C 4550   8.812  10.845   5.497 -0.0864  0.2251  0.4780
  775MOL0     C 4551   8.711  10.871   5.609 -0.2296  0.1922  0.8004
  775MOL0     C 4552   8.570  10.835   5.560 -0.5297 -0.1685 -0.3403
  775MOL0     C 4553   8.565  10.680   5.554 -0.2683 -0.2046 -0.9563
  775MOL0     C 4554   8.575  10.561   5.567  0.4039  0.2396 -0.0300
  775MOL0     C 4555   9.248  10.811   5.338  0.3219  0.8492 -0.3591
  775MOL0     C 4556   9.387  10.835   5.331 -0.6075 -0.3688  0.2978
  775MOL0     C 4557   9.442  10.771   5.203 -0.9229  0.2396 -0.1384
  775MOL0     H 4558   9.747  11.156   5.303 -3.5301 -4.2702 -0.7840
  775MOL0     H 4559   9.976  11.224   5.294  0.6736 -0.5701  0.3133
  775MOL0     H 4560  10.197  11.233   5.168 -0.2294  1.0644  0.6704
  775MOL0     H 4561  10.188  11.232   5.349  0.6141  2.4184 -0.4007
  775MOL0     H 4562  10.438  11.128   5.197 -1.0145 -0.4995 -0.2751
  775MOL0     H 4563  10.409  11.119   5.360 -2.4910 -2.4965 -1.2497
  775MOL0     H 4564  10.380  11.369   5.359 -2.0177 -2.0896 -0.9953
  775MOL0     H 4565  10.427  11.368   5.188  1.1082  0.3576  0.3022
  775MOL0     H 4566  10.597  11.264   5.416  2.6740  0.5556  0.5509
  775MOL0     H 4567  10.645  11.281   5.245 -1.7501 -0.6946 -0.9735
  775MOL0     H 4568  10.755  11.440   5.368 -0.5632  0.8953  0.1851
  775MOL0     H 4569  10.644  11.529   5.266  1.7955  1.6216  1.3647
  775MOL0     H 4570  10.488  11.549   5.457 -0.1908  1.0629  4.7701
  775MOL0     H 4571  10.626  11.472   5.555  1.8415 -0.4051 -1.8934
  775MOL0     H 4572  10.617  11.721   5.602  3.3478 -3.4315  1.8833
  775MOL0     H 4573  10.594  11.748   5.440 -0.0138  3.2851  1.8829
  775MOL0     H 4574  10.843  11.663   5.410 -0.4327  2.5944 -1.6578
  775MOL0     H 4575  10.818  11.817   5.496 -0.3997  0.0469  2.1458
  775MOL0     H 4576  10.885  11.463   5.544 -0.7697 -0.0922  0.8708
  775MOL0     H 4577  10.945  11.317   5.793 -0.8998 -1.5254  1.4484
  775MOL0     H 4578  10.912  11.424   5.940  1.5064 -0.1906 -0.7962
  775MOL0     H 4579  10.673  11.379   5.908  1.3373  2.1541 -1.9099
  775MOL0     H 4580  10.694  11.300   5.766 -1.9473 -0.1039  0.9290
  775MOL0     H 4581  10.818  11.208   6.039  2.3134 -4.8840 -0.1035
  775MOL0     H 4582  10.852  11.126   5.896 -2.0730 -2.1635  2.6623
  775MOL0     H 4583  10.676  11.006   6.007 -0.9440  0.9505  2.6150
  775MOL0     H 4584  10.611  11.097   5.857  2.3497  2.1045 -1.3722
  775MOL0     H 4585  10.331  11.322   6.086 -0.0408 -0.1703  0.7726
  775MOL0     H 4586  10.103  11.248   6.074 -0.4375  0.3500 -0.7800
  775MOL0     H 4587   9.754  11.105   6.183 -1.4163  0.0787  1.3705
  775MOL0     H 4588   9.532  10.987   6.202 -0.3728 -1.2346  0.3280
  775MOL0     H 4589   9.333  11.002   6.025  0.9536  0.0810 -1.5185
  775MOL0     H 4590   9.245  10.852   5.972 -0.1829 -0.3777  0.0175
  775MOL0     H 4591   9.354  10.861   6.263 -1.0364 -3.0353  0.6238
  775MOL0     H 4592   9.217  10.965   6.234 -0.1437  0.3645 -0.6146
  775MOL0     H 4593   9.155  10.712   6.116  1.7350 -0.4715 -0.1118
  775MOL0     H 4594   9.243  10.677   6.269  2.4844  3.3676  3.4545
  775MOL0     H 4595   9.027  10.896   6.283 -0.4497 -0.7653 -0.2012
  775MOL0     H 4596   9.081  10.792   6.403 -1.6183  0.4023 -0.1837
  775MOL0     H 4597   8.945  10.600   6.264  0.1850 -0.3340  0.9645
  775MOL0     H 4598   8.898  10.739   6.158  0.5591  2.3311 -0.3359
  775MOL0     H 4599   8.808  10.667   6.434  0.3234 -0.7557 -0.3841
  775MOL0     H 4600   8.823  10.842   6.389 -2.3415  0.8648 -2.2576
  775MOL0     H 4601   8.697  10.618   6.238 -0.2218  0.4380  0.7111
  775MOL0     H 4602   8.683  10.795   6.194 -2.2589  0.1265 -0.5881
  775MOL0     H 4603   8.565  10.661   6.439  1.3014 -3.2585 -2.5168
  775MOL0     H 4604   8.544  10.836   6.384 -0.4398 -0.0200 -0.9244
  775MOL0     H 4605   9.605  10.842   5.791 -0.8421  1.2242 -0.3478
  775MOL0     H 4606   9.802  10.944   5.796 -0.1544  0.9113  0.1148
  775MOL0     H 4607  10.251  10.852   5.976 -0.7496 -0.9291  2.0537
  775MOL0     H 4608  10.466  10.933   5.954 -2.0727 -1.5653 -1.0169
  775MOL0     H 4609  10.085  10.809   5.202  1.4516  2.3447  0.7772
  775MOL0     H 4610   9.860  10.755   5.250 -1.7203  0.7004 -0.8162
  775MOL0     H 4611   9.432  11.006   5.614  0.1656  3.0804 -3.5922
  775MOL0     H 4612   9.193  10.940   5.645  1.9477  0.9624  0.1969
  775MOL0     H 4613   8.965  10.985   5.553  0.3824  0.0139  1.4599
  775MOL0     H 4614   8.978  10.831   5.639  5.2617  0.6274  0.0728
  775MOL0     H 4615   8.800  10.740   5.467 -2.3891 -0.1891  2.4765
  775MOL0     H 4616   8.788  10.906   5.410  1.8332  1.7822  0.9611
  775MOL0     H 4617   8.728  10.974   5.644 -1.2513  0.9041 -0.6882
  775MOL0     H 4618   8.738  10.810   5.696  4.7942  1.0077  0.1246
  775MOL0     H 4619   8.496  10.869   5.633  1.0286  0.8087  0.8404
  775MOL0     H 4620   8.545  10.873   5.460  0.0535 -0.9676 -0.8031
  775MOL0     H 4621   8.594  10.456   5.578 -3.3307 -0.5017  0.4212
  775MOL0     H 4622   9.192  10.760   5.261  0.0968  2.3706 -1.2498
  775MOL0     H 4623   9.373  10.699   5.159 -0.7730 -1.0916  1.7048
  775MOL0     H 4624   9.472  10.836   5.120  0.2906 -2.0324 -1.5857
  775MOL0     H 4625   9.534  10.719   5.232 -1.4146 -0.2504  0.5576
  776MOL0     O 4626   6.865   6.195  10.027 -0.0566 -0.0073  0.5915
  776MOL0     C 4627   6.756   6.187   9.970  0.3994  0.5066 -0.2865
  776MOL0     O 4628   6.737   6.161   9.837  0.3404  0.6444 -0.4781
  776MOL0     C 4629   6.852   6.147   9.759  0.5466  0.5067 -0.7431
  776MOL0     C 4630   6.900   6.250   9.683  0.2125  0.0143 -0.3518
  776MOL0     C 4631   7.018   6.244   9.607  1.2757 -0.6454 -0.4036
  776MOL0     C 4632   7.079   6.123   9.598 -0.9486 -0.2615 -0.4173
  776MOL0     O 4633   7.193   6.097   9.530 -0.4649  0.3328  0.0557
  776MOL0     C 4634   7.303   6.122   9.613  0.1406 -0.5001  0.1949
  776MOL0     C 4635   7.421   6.167   9.538  0.0469  0.1826  0.1716
  776MOL0     C 4636   7.472   6.064   9.446  0.1310 -0.6289 -0.7426
  776MOL0     C 4637   7.604   6.110   9.388 -0.2435  1.0440 -0.3567
  776MOL0     C 4638   7.663   5.989   9.317  0.5627 -0.6428 -0.2786
  776MOL0     C 4639   7.586   5.956   9.188 -1.1442  0.3435  0.4180
  776MOL0     C 4640   7.645   5.824   9.118  0.2381 -0.7877 -0.4206
  776MOL0     C 4641   7.615   5.822   8.967 -0.0159  0.1385  0.3897
  776MOL0     N 4642   7.690   5.923   8.889 -0.3339 -0.3969 -0.3640
  776MOL0     C 4643   7.798   5.891   8.821 -0.6157  0.4371  0.8042
  776MOL0     C 4644   7.826   5.989   8.732 -0.3203 -0.2858  0.3774
  776MOL0     C 4645   7.930   6.002   8.628  0.3136 -0.2609 -0.2668
  776MOL0     C 4646   8.019   6.129   8.659  0.3197  0.4661 -0.1539
  776MOL0     C 4647   8.096   6.096   8.788 -0.3116 -0.3146  1.4045
  776MOL0     C 4648   8.231   6.174   8.790  0.1120  0.0295  0.2868
  776MOL0     O 4649   8.298   6.132   8.905 -0.3165 -0.0347 -0.5131
  776MOL0     C 4650   8.377   6.220   8.974 -0.1267 -0.4619  0.0963
  776MOL0     C 4651   8.429   6.337   8.904 -0.6939  0.0967 -0.3306
  776MOL0     C 4652   8.506   6.417   8.978 -0.0436 -0.1751 -0.2907
  776MOL0     C 4653   8.542   6.389   9.112  0.3894  0.3691 -1.2024
  776MOL0     C 4654   8.617   6.485   9.197  0.2519 -0.3119 -0.7047
  776MOL0     O 4655   8.635   6.621   9.151  0.4027  0.7355 -0.2028
  776MOL0     C 4656   8.724   6.695   9.218 -0.5507 -0.2814  0.2127
  776MOL0     C 4657   8.684   6.764   9.330  0.7178  0.2279 -0.5635
  776MOL0     C 4658   8.767   6.849   9.409 -0.2970 -0.1865  0.4870
  776MOL0     C 4659   8.898   6.878   9.366  0.2380  0.7289 -0.4964
  776MOL0     O 4660   8.981   6.965   9.425 -0.1510 -0.5888  0.8589
  776MOL0     C 4661   8.959   7.013   9.558 -0.1579  0.0111 -0.3964
  776MOL0     C 4662   9.096   7.062   9.600  0.3079  0.6252 -0.0121
  776MOL0     C 4663   9.101   7.115   9.744 -0.3398 -0.1314 -0.5995
  776MOL0     C 4664   9.043   7.258   9.763 -0.1409 -0.8164  0.3476
  776MOL0     C 4665   9.031   7.321   9.902 -0.8062 -0.0663  0.6028
  776MOL0     C 4666   8.974   7.459   9.920  0.3076 -0.0386  0.6993
  776MOL0     C 4667   8.827   7.479   9.859 -1.0143 -0.0628 -0.5973
  776MOL0     C 4668   8.713   7.425   9.943  0.3108 -0.3604  0.3293
  776MOL0    Cl 4669   8.557   7.454   9.860 -0.3860 -0.2483  0.2569
  776MOL0     C 4670   8.942   6.802   9.256  0.0851  0.2678  0.2087
  776MOL0     C 4671   8.860   6.718   9.185  0.6223  0.2045 -0.1941
  776MOL0     O 4672   8.657   6.444   9.304  0.1964 -0.8026 -0.7110
  776MOL0     C 4673   8.492   6.272   9.178  0.9915  0.0681 -0.0616
  776MOL0     C 4674   8.402   6.189   9.107  0.2189  0.3605 -0.4802
  776MOL0     N 4675   7.725   6.078   8.754 -0.6225  0.6345  1.3202
  776MOL0     N 4676   7.641   6.035   8.845  0.0576 -0.5115 -0.2694
  776MOL0     C 4677   7.030   6.011   9.667  0.3423 -0.1816 -0.2057
  776MOL0     C 4678   6.915   6.025   9.751  0.0892 -0.2487  0.7029
  776MOL0     C 4679   6.635   6.197  10.048 -0.1916 -0.4198  0.0574
  776MOL0     C 4680   6.522   6.124  10.008 -0.4463 -0.1590  0.2239
  776MOL0     C 4681   6.394   6.151  10.058  0.0430  0.4969 -0.5822
  776MOL0     C 4682   6.381   6.259  10.141  0.7292 -0.5302 -0.3148
  776MOL0     O 4683   6.252   6.290  10.188 -0.5965  0.4672 -0.4244
  776MOL0     C 4684   6.164   6.177  10.219 -0.2584  0.2412 -0.2137
  776MOL0     C 4685   6.071   6.205  10.333 -0.6676  0.6297  0.0616
  776MOL0     C 4686   5.951   6.286  10.288 -0.2941  1.2609 -0.3099
  776MOL0     C 4687   5.844   6.200  10.225  0.2960 -0.0512  0.6416
  776MOL0     C 4688   5.716   6.275  10.217  0.4265 -0.2304 -0.2793
  776MOL0     C 4689   5.606   6.325  10.221 -0.3579 -0.2247 -0.2753
  776MOL0     C 4690   6.488   6.334  10.187 -0.0350  0.2907 -0.3037
  776MOL0     C 4691   6.616   6.294  10.155 -0.0858 -0.8455  0.9440
  776MOL0     C 4692   6.733   6.368  10.202  0.7429 -0.2409  1.0397
  776MOL0     H 4693   6.843   6.343   9.691 -0.8180 -0.7081  1.1871
  776MOL0     H 4694   7.066   6.331   9.561 -1.6550  2.9517  2.6250
  776MOL0     H 4695   7.289   6.184   9.703 -1.6108  0.5031 -0.7275
  776MOL0     H 4696   7.332   6.023   9.649  0.0107 -2.3325 -4.1455
  776MOL0     H 4697   7.498   6.194   9.611  1.0940 -0.7010 -0.5731
  776MOL0     H 4698   7.407   6.258   9.481 -0.6959  2.1311  3.2259
  776MOL0     H 4699   7.399   6.043   9.367 -0.6096 -0.4682 -0.1146
  776MOL0     H 4700   7.487   5.974   9.506  2.1180 -0.0919 -0.3517
  776MOL0     H 4701   7.595   6.202   9.330  2.4453  2.0797  0.6911
  776MOL0     H 4702   7.669   6.132   9.473  1.6162 -1.5718 -1.0044
  776MOL0     H 4703   7.768   6.007   9.290  0.1952  0.5269 -0.9847
  776MOL0     H 4704   7.656   5.902   9.383  0.7818  0.3872  1.1356
  776MOL0     H 4705   7.482   5.924   9.200 -0.3256 -2.4631  0.7048
  776MOL0     H 4706   7.590   6.044   9.123  0.8585 -0.8200 -1.1372
  776MOL0     H 4707   7.602   5.735   9.165 -0.5415 -1.6525 -2.6355
  776MOL0     H 4708   7.749   5.812   9.151  0.2874 -0.8512 -0.5940
  776MOL0     H 4709   7.635   5.721   8.931 -1.0638 -0.1958  0.7259
  776MOL0     H 4710   7.508   5.845   8.964  0.1956  1.3718  1.3962
  776MOL0     H 4711   7.841   5.791   8.825 -1.7246 -0.4198 -3.4364
  776MOL0     H 4712   7.996   5.915   8.637  2.3073  1.2998  1.2783
  776MOL0     H 4713   7.903   6.000   8.522  1.7253 -1.5608 -0.6360
  776MOL0     H 4714   8.081   6.163   8.576  0.6776 -1.0902 -0.5506
  776MOL0     H 4715   7.955   6.216   8.678  0.8399  0.7544  0.3133
  776MOL0     H 4716   8.125   5.990   8.796 -0.7161 -0.4184  1.5148
  776MOL0     H 4717   8.038   6.121   8.877  0.1245  1.4839  1.2234
  776MOL0     H 4718   8.207   6.279   8.806  1.9010  0.4843  0.2374
  776MOL0     H 4719   8.282   6.171   8.693 -1.9678  1.0345 -0.9060
  776MOL0     H 4720   8.394   6.347   8.802 -1.9718 -0.6859  0.0015
  776MOL0     H 4721   8.557   6.498   8.927 -1.3824  1.6106  1.0589
  776MOL0     H 4722   8.584   6.741   9.366  0.2043 -0.3140 -2.2365
  776MOL0     H 4723   8.719   6.894   9.496  2.4676  4.4992 -0.0967
  776MOL0     H 4724   8.875   7.082   9.570  2.3319  3.3539 -0.6873
  776MOL0     H 4725   8.932   6.930   9.623  0.6413  0.2926  0.3295
  776MOL0     H 4726   9.169   6.981   9.612 -1.7228 -1.2811  0.0047
  776MOL0     H 4727   9.130   7.134   9.526  3.5385 -0.2821  0.4172
  776MOL0     H 4728   9.051   7.048   9.815 -0.7547  0.6176 -0.1705
  776MOL0     H 4729   9.208   7.125   9.762 -0.4854  5.5610 -1.2323
  776MOL0     H 4730   8.946   7.257   9.713  0.1823 -1.2433 -0.2895
  776MOL0     H 4731   9.099   7.327   9.699 -2.2186 -2.4637 -3.6075
  776MOL0     H 4732   9.128   7.315   9.952  0.2358  0.7721 -1.2259
  776MOL0     H 4733   8.964   7.265   9.968  0.6582  0.6455  2.8055
  776MOL0     H 4734   8.976   7.491  10.025  0.3192  0.9743  0.4067
  776MOL0     H 4735   9.044   7.525   9.867 -0.4530  2.5441  2.6975
  776MOL0     H 4736   8.824   7.440   9.757  1.5246  0.3318 -0.8885
  776MOL0     H 4737   8.811   7.588   9.857 -0.9549  0.0459  1.9803
  776MOL0     H 4738   8.741   7.320   9.952  1.6850 -0.0710 -0.3084
  776MOL0     H 4739   8.704   7.464  10.045 -2.1655  0.1520 -0.0153
  776MOL0     H 4740   9.046   6.806   9.228  0.3656 -1.4273  0.9073
  776MOL0     H 4741   8.900   6.657   9.104 -0.2618  0.4536 -0.8384
  776MOL0     H 4742   8.504   6.259   9.285 -2.1795  1.1570  0.5428
  776MOL0     H 4743   8.362   6.098   9.150 -0.4563  0.6101 -0.5679
  776MOL0     H 4744   7.071   5.912   9.648  1.3067  0.2118 -0.2055
  776MOL0     H 4745   6.874   5.942   9.809 -2.7587  0.8227  0.3805
  776MOL0     H 4746   6.523   6.048   9.930 -1.0314  2.0653 -2.1207
  776MOL0     H 4747   6.307   6.088  10.045 -2.0265  3.2427 -1.1205
  776MOL0     H 4748   6.211   6.079  10.233 -1.9136 -0.5560  0.1091
  776MOL0     H 4749   6.105   6.169  10.127  2.1803 -1.3344 -1.7372
  776MOL0     H 4750   6.126   6.259  10.411  0.9039  1.9884 -1.8981
  776MOL0     H 4751   6.040   6.109  10.375  0.3814  0.8328  1.3748
  776MOL0     H 4752   5.964   6.382  10.238 -2.3241  1.0658 -1.3320
  776MOL0     H 4753   5.909   6.321  10.383 -2.4937  0.5475 -0.9692
  776MOL0     H 4754   5.865   6.166  10.123  0.3140  0.6822  0.3926
  776MOL0     H 4755   5.825   6.115  10.292  2.4675 -0.7033  0.5027
  776MOL0     H 4756   5.513   6.378  10.213 -0.4072 -0.2133  0.3178
  776MOL0     H 4757   6.466   6.417  10.253  0.4483  0.7021 -0.6526
  776MOL0     H 4758   6.795   6.416  10.126  2.8293  0.9786  3.3718
  776MOL0     H 4759   6.708   6.454  10.265  0.4021 -0.7464  1.6029
  776MOL0     H 4760   6.810   6.313  10.257  0.8362 -1.7648 -0.5106
  777MOL0     O 4761   4.348   5.359   1.697 -0.1539 -0.1068 -1.0288
  777MOL0     C 4762   4.421   5.440   1.647 -0.2262 -0.0823  0.1764
  777MOL0     O 4763   4.384   5.556   1.591  0.9556  0.1048 -0.3559
  777MOL0     C 4764   4.247   5.569   1.567  0.1917 -1.0335 -0.0526
  777MOL0     C 4765   4.177   5.513   1.453 -0.6796  0.5562  0.3038
  777MOL0     C 4766   4.035   5.509   1.444  0.5206 -0.0158 -0.4090
  777MOL0     C 4767   3.955   5.575   1.542 -0.0496  0.0128 -0.4771
  777MOL0     O 4768   3.814   5.566   1.549 -0.4688  0.0315  0.1555
  777MOL0     C 4769   3.747   5.452   1.489  0.6529 -0.2715 -0.0187
  777MOL0     C 4770   3.627   5.414   1.584  0.2176 -0.0498 -0.3110
  777MOL0     C 4771   3.527   5.327   1.504  0.8865  0.4574 -0.0314
  777MOL0     C 4772   3.414   5.419   1.450  0.3771 -0.5284 -0.4880
  777MOL0     C 4773   3.329   5.358   1.333 -0.1685 -0.2785  0.3333
  777MOL0     C 4774   3.236   5.241   1.366 -0.0411  0.7453 -0.3960
  777MOL0     C 4775   3.089   5.261   1.325  0.6592 -0.6438  0.2583
  777MOL0     C 4776   3.006   5.136   1.289  0.6792 -1.0370 -0.1812
  777MOL0     N 4777   3.026   5.076   1.158 -0.7472  0.8504 -0.1417
  777MOL0     C 4778   3.010   5.130   1.032  0.3030  0.5917  0.1782
  777MOL0     C 4779   3.059   5.030   0.944 -0.0968 -0.6176 -0.6989
  777MOL0     C 4780   3.085   5.030   0.799 -0.0295  0.1947  0.8226
  777MOL0     C 4781   3.184   5.139   0.737  0.5401  0.7227  0.6447
  777MOL0     C 4782   3.253   5.100   0.598  1.2592 -0.4226 -0.9965
  777MOL0     C 4783   3.364   5.206   0.562 -0.1267  0.1792 -0.9633
  777MOL0     O 4784   3.406   5.176   0.431  0.6744  0.1978 -0.6877
  777MOL0     C 4785   3.498   5.249   0.360 -0.2854  0.7504 -0.5607
  777MOL0     C 4786   3.492   5.241   0.225  0.5039  0.8332 -0.1709
  777MOL0     C 4787   3.574   5.309   0.131  0.0441 -0.3116  0.2707
  777MOL0     C 4788   3.682   5.383   0.181 -0.2896 -0.2378  0.2812
  777MOL0     C 4789   3.775   5.464   0.088 -0.0954 -0.1959  0.0793
  777MOL0     O 4790   3.754   5.450  -0.048 -0.5745 -0.9111 -0.3551
  777MOL0     C 4791   3.848   5.523  -0.125 -0.0186  0.6741 -0.1262
  777MOL0     C 4792   3.955   5.446  -0.192  0.0199  0.0678 -0.5969
  777MOL0     C 4793   4.056   5.507  -0.270  0.8354  0.0877  0.0894
  777MOL0     C 4794   4.064   5.645  -0.267 -0.0262  0.5265  0.5891
  777MOL0     O 4795   4.169   5.698  -0.341 -0.0293  0.1030 -0.3129
  777MOL0     C 4796   4.244   5.795  -0.270  0.4081  0.0778 -0.1006
  777MOL0     C 4797   4.380   5.825  -0.317 -0.1209 -0.1937 -0.4781
  777MOL0     C 4798   4.471   5.707  -0.300 -0.8392  0.0586 -0.5885
  777MOL0     C 4799   4.602   5.744  -0.372 -1.0011 -0.5291  0.1029
  777MOL0     C 4800   4.712   5.635  -0.362  0.9920 -0.1732 -0.4028
  777MOL0     C 4801   4.861   5.675  -0.404 -0.1049 -0.1793 -0.3825
  777MOL0     C 4802   4.874   5.714  -0.557  0.3780  0.2759 -0.1236
  777MOL0     C 4803   5.012   5.703  -0.628 -0.0435 -0.1573 -0.2152
  777MOL0    Cl 4804   5.085   5.867  -0.599  0.1481 -0.5304 -0.0285
  777MOL0     C 4805   3.959   5.725  -0.206  0.1257 -0.5067 -0.9707
  777MOL0     C 4806   3.850   5.665  -0.135 -0.4823  0.7998 -0.0200
  777MOL0     O 4807   3.854   5.540   0.145  0.6253  0.1723 -0.5180
  777MOL0     C 4808   3.692   5.393   0.319  0.7704  0.7603 -0.3359
  777MOL0     C 4809   3.599   5.330   0.411 -0.3384  0.4645 -0.0742
  777MOL0     N 4810   3.085   4.919   1.019  0.4203 -0.5146  0.2593
  777MOL0     N 4811   3.062   4.940   1.138  0.5693 -0.3771 -0.8992
  777MOL0     C 4812   4.022   5.648   1.646  0.3272  0.0568  1.5287
  777MOL0     C 4813   4.163   5.638   1.661 -0.2425  0.0822  1.5431
  777MOL0     C 4814   4.563   5.407   1.662 -0.6332 -0.3694  0.3486
  777MOL0     C 4815   4.646   5.512   1.683  0.4338  0.2399 -0.2499
  777MOL0     C 4816   4.778   5.490   1.695 -0.7285 -0.1966 -0.8355
  777MOL0     C 4817   4.834   5.365   1.668 -0.3708  0.5378 -0.2093
  777MOL0     O 4818   4.971   5.357   1.652  0.0502  0.7122  1.0270
  777MOL0     C 4819   5.051   5.252   1.713 -0.0174  0.1014 -0.0152
  777MOL0     C 4820   5.032   5.246   1.865 -0.0665 -0.4032 -0.0618
  777MOL0     C 4821   5.097   5.361   1.945  0.0472 -0.5721 -0.9332
  777MOL0     C 4822   5.113   5.320   2.094  0.9803 -0.0696 -0.0100
  777MOL0     C 4823   5.245   5.272   2.139  0.1076 -0.6077  0.5997
  777MOL0     C 4824   5.347   5.230   2.179 -0.2438  0.0822 -0.8704
  777MOL0     C 4825   4.762   5.252   1.653  0.2372 -0.6416  0.7702
  777MOL0     C 4826   4.620   5.275   1.651  0.2121  0.2449 -0.5421
  777MOL0     C 4827   4.546   5.145   1.639  0.1081 -0.1490 -0.2469
  777MOL0     H 4828   4.237   5.452   1.387 -1.0975  2.3019 -1.8106
  777MOL0     H 4829   3.988   5.455   1.363 -0.5566 -0.9798  0.8183
  777MOL0     H 4830   3.708   5.470   1.388 -2.4922  0.4813  1.2475
  777MOL0     H 4831   3.813   5.364   1.486  2.0109  0.6765  0.7327
  777MOL0     H 4832   3.574   5.504   1.617 -1.0561 -1.9594  3.4412
  777MOL0     H 4833   3.655   5.360   1.675 -4.4585 -1.8805  0.3404
  777MOL0     H 4834   3.476   5.253   1.566 -2.4940  2.3900 -0.2687
  777MOL0     H 4835   3.576   5.272   1.423 -0.0085 -2.6599  1.3737
  777MOL0     H 4836   3.352   5.441   1.537 -0.3330 -0.8336 -0.9100
  777MOL0     H 4837   3.468   5.508   1.418  2.2512 -2.5471 -3.4671
  777MOL0     H 4838   3.272   5.442   1.292 -0.5795 -0.0015  1.4478
  777MOL0     H 4839   3.394   5.328   1.249 -2.4243  0.1483 -1.6838
  777MOL0     H 4840   3.273   5.149   1.321  1.9645  0.9482  0.7209
  777MOL0     H 4841   3.233   5.230   1.475 -1.9001 -2.1827 -0.6469
  777MOL0     H 4842   3.086   5.328   1.239 -1.1473 -5.5840 -4.1262
  777MOL0     H 4843   3.034   5.317   1.402 -1.6410  1.9425 -2.9938
  777MOL0     H 4844   3.011   5.062   1.369  3.5120  0.3522  1.0512
  777MOL0     H 4845   2.903   5.171   1.283  0.1023 -2.6594 -0.3118
  777MOL0     H 4846   2.985   5.235   1.019 -0.1184  0.3998 -0.6790
  777MOL0     H 4847   3.137   4.934   0.783  1.2869  0.8179  1.2071
  777MOL0     H 4848   2.994   5.042   0.739  0.4999 -3.6009 -1.0748
  777MOL0     H 4849   3.145   5.239   0.715  0.1147  0.4486  0.1290
  777MOL0     H 4850   3.254   5.173   0.814 -1.9717 -1.0397  3.9238
  777MOL0     H 4851   3.176   5.083   0.522 -0.2841  0.6575  0.2785
  777MOL0     H 4852   3.314   5.011   0.616  2.4034  0.2263 -1.5345
  777MOL0     H 4853   3.449   5.193   0.631 -0.5209  0.3983 -0.4301
  777MOL0     H 4854   3.344   5.313   0.562  0.2090  0.2499 -2.1303
  777MOL0     H 4855   3.405   5.194   0.182  0.3236  0.4901  0.5484
  777MOL0     H 4856   3.568   5.313   0.023  1.1857 -3.6875 -0.0277
  777MOL0     H 4857   3.949   5.338  -0.187 -0.6688  0.0375 -1.7279
  777MOL0     H 4858   4.134   5.461  -0.330  0.1024 -0.5078 -0.4276
  777MOL0     H 4859   4.192   5.891  -0.264  0.0171 -0.2132  2.4922
  777MOL0     H 4860   4.260   5.756  -0.168  0.8007  1.7531  0.5024
  777MOL0     H 4861   4.380   5.859  -0.421  0.0037  1.4650  0.0395
  777MOL0     H 4862   4.404   5.907  -0.250 -1.6540 -0.9306  1.0302
  777MOL0     H 4863   4.488   5.707  -0.192 -1.4742  3.0124 -0.4101
  777MOL0     H 4864   4.432   5.617  -0.348 -0.0536 -0.0888 -0.9804
  777MOL0     H 4865   4.636   5.833  -0.319  2.4935 -1.0239 -1.0367
  777MOL0     H 4866   4.579   5.757  -0.478 -2.4233  1.4921  0.5996
  777MOL0     H 4867   4.668   5.552  -0.418 -1.7800  1.0358 -0.1506
  777MOL0     H 4868   4.713   5.610  -0.255 -4.2060 -3.1707 -0.7339
  777MOL0     H 4869   4.893   5.760  -0.342 -0.3011 -1.2455  1.2541
  777MOL0     H 4870   4.930   5.594  -0.377  0.3020  0.6968  1.3687
  777MOL0     H 4871   4.837   5.817  -0.566  1.3934  0.8189  1.3394
  777MOL0     H 4872   4.797   5.658  -0.610  0.9024 -1.0290  0.4501
  777MOL0     H 4873   5.067   5.619  -0.585  2.0587  2.7398  3.3337
  777MOL0     H 4874   5.018   5.685  -0.736 -1.9137 -4.2141  0.1650
  777MOL0     H 4875   3.971   5.833  -0.208 -0.4253 -0.3566  1.2677
  777MOL0     H 4876   3.763   5.717  -0.096 -0.9410  1.1915 -1.5098
  777MOL0     H 4877   3.766   5.448   0.377 -1.4439  0.0737  3.4774
  777MOL0     H 4878   3.603   5.332   0.519 -1.2541  4.5973  0.0626
  777MOL0     H 4879   3.967   5.702   1.722  0.8670  0.9961  1.2690
  777MOL0     H 4880   4.209   5.685   1.748 -1.3731  2.6027  0.8834
  777MOL0     H 4881   4.611   5.613   1.699  1.8818  0.3821  2.7044
  777MOL0     H 4882   4.854   5.565   1.713  1.6944 -2.2925 -1.6261
  777MOL0     H 4883   5.156   5.270   1.686  0.2093  1.3089  1.5522
  777MOL0     H 4884   5.018   5.156   1.671  0.4489  0.4887 -1.3061
  777MOL0     H 4885   5.070   5.150   1.900  1.0236 -0.2395 -0.7621
  777MOL0     H 4886   4.925   5.239   1.887  0.0254 -1.9560 -0.0160
  777MOL0     H 4887   5.039   5.453   1.931 -0.7382 -1.0723 -1.0120
  777MOL0     H 4888   5.191   5.371   1.891 -1.3484 -0.5521 -3.5389
  777MOL0     H 4889   5.082   5.411   2.145  3.3409  1.8123 -1.6703
  777MOL0     H 4890   5.044   5.236   2.106 -2.8452  2.6278 -1.0980
  777MOL0     H 4891   5.441   5.206   2.225  0.6631  0.7830 -2.3049
  777MOL0     H 4892   4.802   5.153   1.633 -1.9204 -1.5066  0.4648
  777MOL0     H 4893   4.493   5.139   1.543  1.3629 -2.4849 -0.8888
  777MOL0     H 4894   4.605   5.053   1.629  0.5154  0.0587  0.2549
  777MOL0     H 4895   4.473   5.140   1.720 -1.5045  1.9759 -1.4527
  778MOL0     O 4896   9.517   5.588   5.018 -0.2273 -0.3253  0.4029
  778MOL0     C 4897   9.516   5.652   4.912 -0.2723  0.8800  0.1359
  778MOL0     O 4898   9.612   5.739   4.875 -0.1253  0.4734 -0.2679
  778MOL0     C 4899   9.734   5.713   4.928 -1.2479 -0.5017 -0.6942
  778MOL0     C 4900   9.802   5.799   5.016  0.5916 -0.8878 -0.2093
  778MOL0     C 4901   9.932   5.771   5.056  0.5440 -0.1826  0.9671
  778MOL0     C 4902   9.988   5.654   5.028 -0.6037 -0.6414 -0.0484
  778MOL0     O 4903  10.110   5.614   5.067  0.0093  0.2390 -0.0224
  778MOL0     C 4904  10.176   5.663   5.183  0.4740  0.3711  0.0854
  778MOL0     C 4905  10.292   5.565   5.202 -0.0640  0.4976 -0.0309
  778MOL0     C 4906  10.387   5.604   5.319 -0.6680  0.7948 -0.3860
  778MOL0     C 4907  10.488   5.492   5.337 -0.1524  0.1411  1.1333
  778MOL0     C 4908  10.614   5.529   5.430  0.4004  0.3268  1.1323
  778MOL0     C 4909  10.732   5.580   5.349 -0.2711 -0.3814 -0.9286
  778MOL0     C 4910  10.862   5.595   5.436  0.1893 -0.2692  0.0410
  778MOL0     C 4911  10.921   5.731   5.401  0.5191 -0.4356  0.5543
  778MOL0     N 4912  11.036   5.750   5.492 -0.2200 -0.1688 -0.4570
  778MOL0     C 4913  11.129   5.654   5.514  0.5044 -0.1374  0.6358
  778MOL0     C 4914  11.199   5.694   5.619 -0.7485 -0.0493  0.5989
  778MOL0     C 4915  11.301   5.603   5.675  0.3103  0.3745  0.3196
  778MOL0     C 4916  11.399   5.572   5.560 -0.1352  0.1874 -0.4903
  778MOL0     C 4917  11.469   5.707   5.520  0.1969  0.2410 -0.3535
  778MOL0     C 4918  11.493   5.718   5.375 -0.8114 -0.4592 -0.4353
  778MOL0     O 4919  11.561   5.608   5.324  0.0484  0.5231 -0.1736
  778MOL0     C 4920  11.695   5.609   5.308  0.2642  0.8114 -1.4525
  778MOL0     C 4921  11.785   5.711   5.354 -0.3394 -0.0420  0.1262
  778MOL0     C 4922  11.920   5.702   5.335 -0.4671  0.3222  0.5697
  778MOL0     C 4923  11.972   5.591   5.264 -0.8918 -0.3314 -0.2084
  778MOL0     C 4924  12.117   5.581   5.243 -0.3996 -0.4762 -0.7346
  778MOL0     O 4925  12.171   5.477   5.161  0.4273 -0.5364 -0.4644
  778MOL0     C 4926  12.301   5.463   5.122 -0.7358 -0.2488  0.1386
  778MOL0     C 4927  12.330   5.409   4.992 -0.1687  0.1794 -0.6606
  778MOL0     C 4928  12.460   5.414   4.946  0.1013  0.3962  0.1714
  778MOL0     C 4929  12.576   5.451   5.032 -0.4361 -0.9222  1.4629
  778MOL0     O 4930  12.708   5.444   4.995 -0.4800  0.5173  0.3227
  778MOL0     C 4931  12.747   5.350   4.890 -0.0752 -0.6129 -0.2130
  778MOL0     C 4932  12.897   5.377   4.861 -0.7868 -0.4126 -1.1111
  778MOL0     C 4933  12.984   5.307   4.963  0.3282 -0.8778 -0.0239
  778MOL0     C 4934  13.126   5.327   4.915  0.0667  0.9550 -0.9282
  778MOL0     C 4935  13.223   5.239   5.001  0.0254  0.7545  0.3056
  778MOL0     C 4936  13.356   5.236   4.922 -0.2304  0.1810  1.0528
  778MOL0     C 4937  13.465   5.161   4.994  0.6167  0.2634 -1.1029
  778MOL0     C 4938  13.602   5.176   4.925  0.2650 -0.0257  0.1124
  778MOL0    Cl 4939  13.730   5.096   5.019 -0.1803  0.0366 -0.1682
  778MOL0     C 4940  12.545   5.498   5.164  0.4735 -0.4889  0.4849
  778MOL0     C 4941  12.410   5.505   5.201  0.5692  1.0050  0.4552
  778MOL0     O 4942  12.188   5.672   5.295  0.0842 -0.2908  0.0979
  778MOL0     C 4943  11.885   5.504   5.208 -0.3551 -0.2588  1.1807
  778MOL0     C 4944  11.744   5.510   5.229  0.0533  0.7832 -0.5887
  778MOL0     N 4945  11.158   5.819   5.653  0.1155  0.1864  0.6179
  778MOL0     N 4946  11.058   5.855   5.578  0.6131 -0.6096  0.2579
  778MOL0     C 4947   9.930   5.568   4.934  0.7969 -0.2770 -0.2525
  778MOL0     C 4948   9.802   5.600   4.879 -0.6089  1.2989 -0.7489
  778MOL0     C 4949   9.387   5.637   4.838  0.0860 -0.7622 -0.4180
  778MOL0     C 4950   9.271   5.579   4.903 -1.3000  0.4788  0.0679
  778MOL0     C 4951   9.144   5.576   4.851 -0.5546  0.2468  0.6428
  778MOL0     C 4952   9.126   5.620   4.724  0.2085  0.4164  1.4571
  778MOL0     O 4953   9.009   5.593   4.645  0.4357  0.2228 -0.2735
  778MOL0     C 4954   8.901   5.529   4.719  0.3741 -0.6646 -0.9553
  778MOL0     C 4955   8.782   5.528   4.624 -0.7401 -0.2437  0.0534
  778MOL0     C 4956   8.653   5.467   4.670 -0.8538  0.6257 -0.5558
  778MOL0     C 4957   8.537   5.511   4.568 -0.3223 -0.2575 -0.1780
  778MOL0     C 4958   8.417   5.553   4.629 -0.0981  0.1584 -0.7775
  778MOL0     C 4959   8.324   5.578   4.703  0.8250  0.3109 -0.3889
  778MOL0     C 4960   9.236   5.674   4.652 -0.7610 -0.3349  0.7500
  778MOL0     C 4961   9.361   5.700   4.719 -0.2329 -0.5801  0.4073
  778MOL0     C 4962   9.466   5.780   4.634 -0.3530  0.4533  0.4825
  778MOL0     H 4963   9.755   5.892   5.048  2.5295 -0.3142  1.2191
  778MOL0     H 4964   9.975   5.839   5.128  0.9086 -0.2752  0.8404
  778MOL0     H 4965  10.225   5.757   5.158  0.0575  0.5511 -0.0603
  778MOL0     H 4966  10.110   5.670   5.270  0.6258  2.8060  0.0798
  778MOL0     H 4967  10.348   5.564   5.108  1.2778  0.8287  0.7317
  778MOL0     H 4968  10.260   5.463   5.221  0.4880  0.3351  0.0619
  778MOL0     H 4969  10.328   5.635   5.406  2.3756 -0.8404  2.4655
  778MOL0     H 4970  10.448   5.688   5.282  1.6312 -1.0991 -1.1539
  778MOL0     H 4971  10.437   5.423   5.405  0.9714 -0.7788  1.0679
  778MOL0     H 4972  10.507   5.444   5.241 -3.7655  0.9295 -0.1283
  778MOL0     H 4973  10.583   5.598   5.509 -0.1715  1.3197  0.0860
  778MOL0     H 4974  10.639   5.434   5.478 -2.5741 -3.8698 -4.3910
  778MOL0     H 4975  10.750   5.497   5.279 -0.2307 -2.4225  1.3883
  778MOL0     H 4976  10.717   5.676   5.300  0.2513 -0.3517 -1.0358
  778MOL0     H 4977  10.926   5.514   5.398 -0.4587 -1.8224  2.0642
  778MOL0     H 4978  10.843   5.589   5.543 -1.2710 -0.4986 -0.2135
  778MOL0     H 4979  10.951   5.740   5.297  0.6995 -0.5977  0.5900
  778MOL0     H 4980  10.844   5.808   5.403  0.6800 -0.2351 -0.5119
  778MOL0     H 4981  11.136   5.560   5.461 -0.6652  0.0057  0.1961
  778MOL0     H 4982  11.345   5.647   5.766 -2.7444  2.1298  1.0855
  778MOL0     H 4983  11.244   5.517   5.712 -1.5032  0.3119 -2.3840
  778MOL0     H 4984  11.472   5.498   5.590  2.1783  2.8068  0.7897
  778MOL0     H 4985  11.348   5.531   5.472  1.4239  0.0634 -1.3612
  778MOL0     H 4986  11.569   5.712   5.561  0.5125 -0.4713 -0.9964
  778MOL0     H 4987  11.403   5.790   5.545  0.7558 -0.3904  4.0299
  778MOL0     H 4988  11.551   5.805   5.341  0.7721 -0.7571  1.3078
  778MOL0     H 4989  11.397   5.727   5.325 -1.5203 -3.0995  0.3230
  778MOL0     H 4990  11.749   5.784   5.425  0.8065  1.8668 -1.1610
  778MOL0     H 4991  11.991   5.774   5.375 -2.7379  1.5200  2.7977
  778MOL0     H 4992  12.250   5.372   4.929 -0.9961 -1.2733  1.1621
  778MOL0     H 4993  12.485   5.392   4.843  3.3597  3.2643  0.1774
  778MOL0     H 4994  12.719   5.249   4.922  2.7634 -0.7134  2.4542
  778MOL0     H 4995  12.685   5.389   4.808  0.7239  1.5496  0.1439
  778MOL0     H 4996  12.929   5.346   4.761  2.5429 -0.8250 -0.0264
  778MOL0     H 4997  12.915   5.484   4.868 -1.8562 -0.1984 -1.4395
  778MOL0     H 4998  12.970   5.351   5.062 -1.2441  0.5819 -0.8249
  778MOL0     H 4999  12.941   5.206   4.965 -3.2426  0.4960  1.5526
  778MOL0     H 5000  13.156   5.431   4.928 -1.9170  1.4027  0.4656
  778MOL0     H 5001  13.139   5.295   4.811 -1.9807 -1.1430 -0.6210
  778MOL0     H 5002  13.188   5.135   5.006  0.1807  0.5488 -1.8127
  778MOL0     H 5003  13.239   5.270   5.105 -0.9327  3.0210 -0.1681
  778MOL0     H 5004  13.330   5.189   4.827 -1.2904 -0.1782  1.4986
  778MOL0     H 5005  13.383   5.336   4.887  1.6604 -0.4397  0.6435
  778MOL0     H 5006  13.444   5.054   5.004 -4.0709  1.2314  4.2844
  778MOL0     H 5007  13.470   5.202   5.095 -0.6321  0.1426 -0.9706
  778MOL0     H 5008  13.591   5.132   4.826 -0.2377  0.3573 -0.0065
  778MOL0     H 5009  13.628   5.281   4.911  2.0450  0.1545  3.4857
  778MOL0     H 5010  12.618   5.520   5.242  0.2354 -1.8584  1.1172
  778MOL0     H 5011  12.390   5.535   5.303  0.7533 -0.0377  0.8026
  778MOL0     H 5012  11.914   5.423   5.143  0.0569  0.5736  0.3112
  778MOL0     H 5013  11.679   5.430   5.195 -1.4867  1.8124 -0.1666
  778MOL0     H 5014   9.986   5.482   4.898  1.6619 -0.8638  2.3115
  778MOL0     H 5015   9.766   5.532   4.803  0.9837 -0.9623  0.4276
  778MOL0     H 5016   9.290   5.536   5.001  3.1544 -0.2425 -0.9272
  778MOL0     H 5017   9.072   5.522   4.911 -0.5309 -1.5121 -0.8057
  778MOL0     H 5018   8.864   5.574   4.811  2.6165  1.6218 -1.0609
  778MOL0     H 5019   8.936   5.428   4.743 -0.8499 -0.5570  1.6575
  778MOL0     H 5020   8.805   5.476   4.530 -2.7068 -0.7163 -0.2175
  778MOL0     H 5021   8.769   5.634   4.600  0.4435  0.0771  0.7577
  778MOL0     H 5022   8.632   5.503   4.771  0.4656  0.0724 -0.0742
  778MOL0     H 5023   8.672   5.359   4.668 -1.0466  0.5541  0.6958
  778MOL0     H 5024   8.562   5.595   4.502 -1.6732 -1.2755 -2.1087
  778MOL0     H 5025   8.511   5.425   4.506  3.7307 -1.8087 -0.0288
  778MOL0     H 5026   8.242   5.608   4.764 -0.3157 -2.4104 -0.4470
  778MOL0     H 5027   9.219   5.723   4.556  0.3092 -2.6234 -0.6813
  778MOL0     H 5028   9.534   5.702   4.596  0.7860  1.4870  0.3630
  778MOL0     H 5029   9.420   5.838   4.553  1.0460  2.0703  0.7982
  778MOL0     H 5030   9.522   5.851   4.694  3.5231 -0.2250 -1.9862
  779MOL0     O 5031   3.772   7.341   5.302 -0.2242  1.3765  0.6145
  779MOL0     C 5032   3.764   7.371   5.181  0.8018  0.3091 -0.6366
  779MOL0     O 5033   3.806   7.295   5.073 -0.4726  0.0396  0.4930
  779MOL0     C 5034   3.892   7.187   5.088  0.0019 -0.1246 -0.6771
  779MOL0     C 5035   3.996   7.180   5.174  0.5546 -0.0163  1.0030
  779MOL0     C 5036   4.079   7.070   5.173  0.5261 -0.7916 -0.2057
  779MOL0     C 5037   4.059   6.961   5.081 -0.0577 -0.3113  0.2920
  779MOL0     O 5038   4.134   6.848   5.065 -0.3361  0.4293 -0.0343
  779MOL0     C 5039   4.215   6.809   5.171  0.0025 -0.0793 -0.1415
  779MOL0     C 5040   4.359   6.869   5.166  0.3031 -0.0823  0.2224
  779MOL0     C 5041   4.450   6.831   5.288  0.5015  0.0809  1.0033
  779MOL0     C 5042   4.585   6.904   5.278  0.5346  0.4992  0.4138
  779MOL0     C 5043   4.686   6.838   5.381  0.1356 -0.1041  0.0372
  779MOL0     C 5044   4.838   6.824   5.338 -0.3767  0.7407  0.1288
  779MOL0     C 5045   4.938   6.764   5.448  0.3311 -0.7648  0.1778
  779MOL0     C 5046   4.913   6.622   5.466 -0.8485 -0.6700 -0.4032
  779MOL0     N 5047   5.024   6.573   5.538 -0.3822  0.3273 -0.7405
  779MOL0     C 5048   5.123   6.519   5.467  0.2589 -0.5645  0.4149
  779MOL0     C 5049   5.220   6.502   5.560  0.3237  0.2370 -0.2325
  779MOL0     C 5050   5.357   6.437   5.538  0.3330 -0.0255 -0.3155
  779MOL0     C 5051   5.458   6.458   5.647 -0.2997 -0.5143  0.1682
  779MOL0     C 5052   5.590   6.388   5.610  0.1066  0.1187  0.0467
  779MOL0     C 5053   5.696   6.382   5.721  0.1677 -0.1213  0.7116
  779MOL0     O 5054   5.639   6.331   5.843  0.0778  0.0405  0.2005
  779MOL0     C 5055   5.730   6.281   5.930  0.2354  0.5877 -0.3146
  779MOL0     C 5056   5.675   6.236   6.048 -0.5983  0.6299 -0.5841
  779MOL0     C 5057   5.749   6.175   6.158 -0.7645 -0.7029  0.3122
  779MOL0     C 5058   5.887   6.168   6.143 -0.1282 -0.0096 -0.1190
  779MOL0     C 5059   5.959   6.099   6.246 -0.3937 -1.3077 -1.0294
  779MOL0     O 5060   5.899   6.068   6.363  0.0843 -0.6590  0.0954
  779MOL0     C 5061   5.964   5.993   6.464 -0.6248 -0.7650  0.2263
  779MOL0     C 5062   6.093   6.029   6.511  0.2219 -0.1520 -0.2112
  779MOL0     C 5063   6.149   5.964   6.623  0.7765  0.9268  0.9189
  779MOL0     C 5064   6.079   5.868   6.696  0.3055 -0.0490 -0.5002
  779MOL0     O 5065   6.127   5.798   6.807 -0.6763  0.1928 -0.2964
  779MOL0     C 5066   6.223   5.849   6.888 -0.5219 -0.3223 -1.3067
  779MOL0     C 5067   6.358   5.806   6.846 -0.9277 -0.1737  0.2697
  779MOL0     C 5068   6.471   5.895   6.906  0.7277  1.1395  0.2107
  779MOL0     C 5069   6.590   5.813   6.961 -0.3779 -0.2065  0.2789
  779MOL0     C 5070   6.661   5.888   7.078  0.1401  0.3163 -1.0674
  779MOL0     C 5071   6.745   5.788   7.153  0.3049  0.4987 -0.5968
  779MOL0     C 5072   6.667   5.673   7.220 -0.5540  0.0309 -0.7911
  779MOL0     C 5073   6.734   5.617   7.344  0.0936  0.2479 -0.1081
  779MOL0    Cl 5074   6.622   5.493   7.432 -0.2543 -0.0083  0.2456
  779MOL0     C 5075   5.956   5.827   6.653 -0.0012  0.3156  0.0889
  779MOL0     C 5076   5.896   5.888   6.532 -0.4394 -0.0741 -0.0173
  779MOL0     O 5077   6.080   6.096   6.226  0.5383 -0.1027  0.1323
  779MOL0     C 5078   5.948   6.212   6.021  0.1566 -0.0553  0.8099
  779MOL0     C 5079   5.870   6.268   5.917  0.0695 -0.4869 -0.1593
  779MOL0     N 5080   5.171   6.534   5.685 -0.0346  0.6651 -0.3948
  779MOL0     N 5081   5.047   6.577   5.675  0.0642 -0.1211  0.3985
  779MOL0     C 5082   3.950   6.973   4.987 -0.6409  0.3470 -0.9822
  779MOL0     C 5083   3.867   7.085   4.992 -0.3366 -0.5432  0.6920
  779MOL0     C 5084   3.691   7.502   5.138 -0.2384  0.2500 -1.1562
  779MOL0     C 5085   3.643   7.586   5.245 -0.0210  0.2138  0.1894
  779MOL0     C 5086   3.571   7.699   5.221 -0.4764 -0.0518  0.6292
  779MOL0     C 5087   3.553   7.737   5.084 -0.4703  0.0629 -0.2025
  779MOL0     O 5088   3.470   7.841   5.043 -0.0454  0.2254  0.2154
  779MOL0     C 5089   3.400   7.917   5.142 -0.3772  0.5392  0.8252
  779MOL0     C 5090   3.270   7.848   5.164  0.4724  0.0523 -0.5610
  779MOL0     C 5091   3.161   7.925   5.240 -0.2693 -0.2096  0.1297
  779MOL0     C 5092   3.107   8.057   5.176  0.6040 -0.2983  0.8729
  779MOL0     C 5093   3.023   8.025   5.062  0.2558 -0.3263  0.4055
  779MOL0     C 5094   2.954   7.999   4.970 -0.4091  0.4867 -1.0405
  779MOL0     C 5095   3.607   7.662   4.982 -0.2463  0.4633  0.6581
  779MOL0     C 5096   3.675   7.545   5.009 -0.4671 -0.7327  0.3197
  779MOL0     C 5097   3.717   7.468   4.880  0.2350 -0.3782  1.0239
  779MOL0     H 5098   4.014   7.237   5.265  2.5477 -0.0855  0.6928
  779MOL0     H 5099   4.162   7.068   5.243  0.6284  1.2257 -0.2248
  779MOL0     H 5100   4.176   6.843   5.268  0.0642 -0.5605  0.0563
  779MOL0     H 5101   4.219   6.700   5.177 -0.5220 -0.0373  1.6440
  779MOL0     H 5102   4.347   6.977   5.181 -1.2092 -0.4063  1.7224
  779MOL0     H 5103   4.416   6.856   5.074  2.0810  0.1725  1.2417
  779MOL0     H 5104   4.476   6.724   5.286  0.5602  0.0450 -2.3562
  779MOL0     H 5105   4.405   6.856   5.385 -0.0870  0.7215  0.5716
  779MOL0     H 5106   4.627   6.892   5.178 -0.4492 -1.0717  0.1526
  779MOL0     H 5107   4.578   7.011   5.298 -1.4884  0.5544 -0.3040
  779MOL0     H 5108   4.687   6.912   5.461  0.1033  1.1834 -1.1288
  779MOL0     H 5109   4.654   6.739   5.416 -1.4091  0.1535 -0.5805
  779MOL0     H 5110   4.846   6.766   5.245  2.1844  0.0864  0.6878
  779MOL0     H 5111   4.870   6.924   5.307 -3.0007  1.1945 -1.3894
  779MOL0     H 5112   4.918   6.825   5.537  0.8362  1.7555 -1.3228
  779MOL0     H 5113   5.037   6.779   5.405  0.6642 -2.9133  0.0898
  779MOL0     H 5114   4.817   6.600   5.515  0.1137 -5.1457 -0.1294
  779MOL0     H 5115   4.905   6.566   5.372 -1.1825  0.5244 -1.1162
  779MOL0     H 5116   5.126   6.501   5.360  1.0355  0.7060  0.2110
  779MOL0     H 5117   5.342   6.329   5.529 -0.6367 -0.2414  2.7150
  779MOL0     H 5118   5.407   6.465   5.445 -1.2692 -1.3168 -1.6181
  779MOL0     H 5119   5.454   6.567   5.660 -4.3476 -0.5068  0.0833
  779MOL0     H 5120   5.416   6.413   5.738  0.1593  0.4681  0.8972
  779MOL0     H 5121   5.634   6.425   5.517 -4.0995  2.0352 -1.4329
  779MOL0     H 5122   5.562   6.283   5.594 -0.1866  0.4657 -1.9601
  779MOL0     H 5123   5.736   6.483   5.729  0.1455  0.0401 -0.8899
  779MOL0     H 5124   5.772   6.318   5.675 -1.1778 -0.5984 -0.9663
  779MOL0     H 5125   5.570   6.258   6.061 -0.6128  1.2876 -1.6904
  779MOL0     H 5126   5.701   6.146   6.251 -2.6551  1.2340  0.0411
  779MOL0     H 5127   6.138   6.113   6.461 -1.4723  0.4608 -0.7921
  779MOL0     H 5128   6.250   5.983   6.657  2.7708 -2.2213 -2.4561
  779MOL0     H 5129   6.209   5.957   6.883  1.9422  0.0776 -0.8946
  779MOL0     H 5130   6.200   5.824   6.992  0.2080  2.4768 -0.3613
  779MOL0     H 5131   6.364   5.701   6.878 -1.0874  0.0165  0.9590
  779MOL0     H 5132   6.358   5.812   6.737 -0.0358 -4.4149 -0.1612
  779MOL0     H 5133   6.509   5.963   6.829 -1.4825  0.5475 -1.4892
  779MOL0     H 5134   6.429   5.956   6.987 -0.1480  3.1654 -1.6600
  779MOL0     H 5135   6.656   5.800   6.876  0.0198 -0.9034  0.6820
  779MOL0     H 5136   6.551   5.715   6.994 -1.9190 -0.2870 -1.5984
  779MOL0     H 5137   6.573   5.915   7.138  0.7821 -1.8251  1.0223
  779MOL0     H 5138   6.727   5.971   7.053  3.5625 -2.2303 -1.2905
  779MOL0     H 5139   6.818   5.751   7.080  1.7136  1.4871  0.2473
  779MOL0     H 5140   6.799   5.850   7.226 -0.6888  1.8537 -0.9634
  779MOL0     H 5141   6.658   5.595   7.143 -2.1154  0.3884 -0.9989
  779MOL0     H 5142   6.570   5.715   7.247  1.1699  1.9899  3.1340
  779MOL0     H 5143   6.825   5.562   7.316 -1.7436 -3.3194  0.4080
  779MOL0     H 5144   6.752   5.704   7.407 -1.2124  1.9481 -1.9541
  779MOL0     H 5145   5.897   5.763   6.718  1.4665 -0.5209  0.6401
  779MOL0     H 5146   5.790   5.867   6.517 -0.7926  1.2388  0.4555
  779MOL0     H 5147   6.056   6.212   6.009 -0.1199 -1.2554 -3.0345
  779MOL0     H 5148   5.915   6.304   5.824 -0.9076 -0.4187 -0.6192
  779MOL0     H 5149   3.940   6.901   4.907  0.5070  0.8552 -1.6023
  779MOL0     H 5150   3.795   7.093   4.911 -0.2327  0.4458  0.6870
  779MOL0     H 5151   3.652   7.564   5.351  1.9162  2.3993  0.5414
  779MOL0     H 5152   3.525   7.750   5.304  0.1520 -1.2212  1.7372
  779MOL0     H 5153   3.378   8.018   5.105 -1.6012 -0.1091 -0.3065
  779MOL0     H 5154   3.466   7.931   5.228 -0.3834  0.7461  0.7973
  779MOL0     H 5155   3.287   7.747   5.201 -2.2070 -0.2971 -0.1004
  779MOL0     H 5156   3.232   7.826   5.064 -0.3023 -3.5203  0.4024
  779MOL0     H 5157   3.197   7.955   5.338 -0.4964 -0.4319  0.2814
  779MOL0     H 5158   3.073   7.862   5.257 -2.1376  2.5010  1.2910
  779MOL0     H 5159   3.047   8.102   5.255 -0.5816 -2.3318  1.1993
  779MOL0     H 5160   3.184   8.127   5.140  1.0099 -1.2735 -0.2387
  779MOL0     H 5161   2.910   7.994   4.872  1.1354  3.3045 -1.9934
  779MOL0     H 5162   3.580   7.685   4.880 -5.8712  2.4144  2.1969
  779MOL0     H 5163   3.660   7.377   4.859  0.7066 -0.5795  0.6093
  779MOL0     H 5164   3.711   7.531   4.790  1.4090 -0.7335  0.6777
  779MOL0     H 5165   3.822   7.441   4.888  0.4213 -0.4511 -1.1409
  780MOL0     O 5166   1.442   3.523   9.342 -0.5772 -0.7027 -0.4903
  780MOL0     C 5167   1.400   3.411   9.325 -0.8249  0.2096 -0.0658
  780MOL0     O 5168   1.431   3.307   9.405  0.3052 -0.2178 -0.1476
  780MOL0     C 5169   1.509   3.320   9.524 -1.0255 -0.2242  0.8140
  780MOL0     C 5170   1.653   3.334   9.492  0.2350  0.3929 -0.1982
  780MOL0     C 5171   1.740   3.338   9.597 -0.0260 -0.2543  0.4059
  780MOL0     C 5172   1.689   3.316   9.728 -0.1463  0.2408 -0.0245
  780MOL0     O 5173   1.784   3.313   9.829  0.0271 -0.4008  0.1238
  780MOL0     C 5174   1.862   3.192   9.854 -0.1585 -0.1486  0.9684
  780MOL0     C 5175   2.011   3.204   9.813  0.3417 -0.2237  0.1048
  780MOL0     C 5176   2.100   3.220   9.943  0.0059  0.4552 -0.7225
  780MOL0     C 5177   2.233   3.285   9.909 -0.6698 -0.2135 -0.3179
  780MOL0     C 5178   2.327   3.300  10.028  0.3092  0.1644 -0.5486
  780MOL0     C 5179   2.420   3.416  10.005 -0.0583 -0.0362  0.1901
  780MOL0     C 5180   2.532   3.422  10.107  0.4027 -0.6306  0.0419
  780MOL0     C 5181   2.628   3.528  10.087 -0.0333  0.1093 -0.0923
  780MOL0     N 5182   2.698   3.563  10.218  0.1836 -0.0344  0.4009
  780MOL0     C 5183   2.823   3.516  10.258  0.3063  0.6714  0.9256
  780MOL0     C 5184   2.842   3.581  10.374 -0.5132  0.1846 -0.5512
  780MOL0     C 5185   2.965   3.569  10.450 -0.8130  0.3391  0.9615
  780MOL0     C 5186   3.076   3.635  10.375  0.1559 -1.4694  0.8185
  780MOL0     C 5187   3.211   3.636  10.443 -1.0348 -0.2228  0.0200
  780MOL0     C 5188   3.225   3.696  10.577 -0.0828 -0.0960 -0.8293
  780MOL0     O 5189   3.214   3.595  10.686  0.5502  0.0550 -0.2065
  780MOL0     C 5190   3.267   3.626  10.808  0.5201 -1.1257  0.2500
  780MOL0     C 5191   3.277   3.757  10.855 -0.6428 -0.5835  0.9154
  780MOL0     C 5192   3.338   3.788  10.975 -0.3724  0.0113 -0.4168
  780MOL0     C 5193   3.380   3.686  11.062 -0.5657 -0.2434  0.3380
  780MOL0     C 5194   3.429   3.728  11.200 -0.4662  0.2405 -0.7098
  780MOL0     O 5195   3.477   3.626  11.276  0.3282 -0.2479 -0.2493
  780MOL0     C 5196   3.549   3.643  11.389 -0.8911  0.0619 -0.2268
  780MOL0     C 5197   3.501   3.709  11.508 -1.0700  0.2703  0.1324
  780MOL0     C 5198   3.578   3.693  11.620 -0.4124  0.2398  1.1285
  780MOL0     C 5199   3.691   3.624  11.633 -0.1435  0.3142  0.2995
  780MOL0     O 5200   3.743   3.616  11.760  0.0902  0.0831  0.4544
  780MOL0     C 5201   3.827   3.503  11.790 -0.4365 -0.1670  0.4948
  780MOL0     C 5202   3.972   3.537  11.783 -0.4399 -0.0259  0.0528
  780MOL0     C 5203   4.059   3.452  11.884  0.1913  0.3275  0.5123
  780MOL0     C 5204   4.201   3.512  11.894  0.0765 -0.1872  0.8681
  780MOL0     C 5205   4.286   3.424  11.986  0.2614 -0.6146  0.8211
  780MOL0     C 5206   4.423   3.486  11.995 -0.0283  0.2076  0.1620
  780MOL0     C 5207   4.503   3.422  12.112 -0.8446  0.0851 -0.5586
  780MOL0     C 5208   4.652   3.454  12.083  0.3248 -0.2666 -1.1342
  780MOL0    Cl 5209   4.684   3.625  12.054 -0.3211 -0.0261 -0.0302
  780MOL0     C 5210   3.746   3.566  11.519 -0.6375 -0.3231 -0.0215
  780MOL0     C 5211   3.679   3.587  11.394 -0.2073 -0.0096 -0.1907
  780MOL0     O 5212   3.447   3.849  11.225  0.3475 -0.0994  0.2209
  780MOL0     C 5213   3.367   3.550  11.017  0.1622 -0.5263  0.4772
  780MOL0     C 5214   3.309   3.519  10.890  0.0263 -0.3717 -0.8141
  780MOL0     N 5215   2.737   3.663  10.412 -0.9645  0.1470  0.1706
  780MOL0     N 5216   2.648   3.643  10.319 -0.6278  0.1158 -0.5139
  780MOL0     C 5217   1.555   3.296   9.761 -0.7681  1.3213  0.6690
  780MOL0     C 5218   1.462   3.300   9.649 -0.6251 -0.1112  0.2915
  780MOL0     C 5219   1.301   3.401   9.210 -0.1590 -0.0659  0.1376
  780MOL0     C 5220   1.232   3.277   9.203 -1.1665  0.6472 -0.2186
  780MOL0     C 5221   1.139   3.243   9.104 -0.5564  0.4486 -0.8167
  780MOL0     C 5222   1.107   3.335   9.003  1.1210 -0.2987  0.8433
  780MOL0     O 5223   1.003   3.338   8.907  0.0559  0.2826 -0.8278
  780MOL0     C 5224   0.903   3.229   8.910  0.1699 -0.3753  0.3078
  780MOL0     C 5225   0.788   3.249   8.814 -1.0544 -0.1183  0.0370
  780MOL0     C 5226   0.693   3.131   8.777 -0.5846 -1.4684 -0.4508
  780MOL0     C 5227   0.602   3.087   8.881  0.2181 -0.0949  0.2517
  780MOL0     C 5228   0.491   3.188   8.886  0.4920  0.1063  0.2360
  780MOL0     C 5229   0.398   3.267   8.876  0.3920  0.5922 -0.0833
  780MOL0     C 5230   1.169   3.458   9.007 -0.8676 -0.8958 -1.1693
  780MOL0     C 5231   1.265   3.497   9.108 -0.1996 -0.1542 -1.1826
  780MOL0     C 5232   1.336   3.623   9.095  0.0653 -0.3488  0.0283
  780MOL0     H 5233   1.691   3.354   9.392 -1.1429  0.2309 -0.7615
  780MOL0     H 5234   1.845   3.353   9.573 -0.1725  0.0852 -0.0587
  780MOL0     H 5235   1.851   3.172   9.961 -2.7208 -0.1242  0.7698
  780MOL0     H 5236   1.818   3.113   9.792  1.3471  0.5634 -1.1295
  780MOL0     H 5237   2.035   3.283   9.740  0.1510  0.8439  1.1717
  780MOL0     H 5238   2.041   3.110   9.767 -1.4161 -0.2012 -1.1785
  780MOL0     H 5239   2.131   3.126   9.989  3.5084  1.2684 -1.1012
  780MOL0     H 5240   2.048   3.283  10.016 -1.0281 -0.9743 -0.1976
  780MOL0     H 5241   2.284   3.227   9.831 -1.7765  3.0036 -3.7394
  780MOL0     H 5242   2.219   3.383   9.862  0.4169 -0.2854 -0.8300
  780MOL0     H 5243   2.259   3.312  10.114 -0.1025 -0.2046 -0.8173
  780MOL0     H 5244   2.380   3.209  10.058  0.1389  0.5511  1.0391
  780MOL0     H 5245   2.448   3.425   9.900  1.0159  1.7119  0.5794
  780MOL0     H 5246   2.373   3.513  10.022  1.7151  0.7929  0.5342
  780MOL0     H 5247   2.587   3.328  10.112 -0.2059 -1.0533 -0.8316
  780MOL0     H 5248   2.478   3.437  10.201  1.2670 -1.3737  0.6724
  780MOL0     H 5249   2.691   3.502  10.001  2.8127  1.6454  1.3917
  780MOL0     H 5250   2.580   3.620  10.053  0.2840  0.2029 -0.2949
  780MOL0     H 5251   2.881   3.448  10.198 -1.1055 -0.0002  0.2637
  780MOL0     H 5252   2.960   3.614  10.550  0.3494  0.5984  0.9175
  780MOL0     H 5253   2.990   3.463  10.457 -1.3738  0.0463 -0.8922
  780MOL0     H 5254   3.081   3.590  10.275  2.7939  0.2789  0.0817
  780MOL0     H 5255   3.053   3.741  10.362  0.8959 -1.3285  0.6590
  780MOL0     H 5256   3.279   3.688  10.375 -1.4017 -0.4944 -0.5588
  780MOL0     H 5257   3.256   3.536  10.443 -0.2838  0.0360 -2.5695
  780MOL0     H 5258   3.149   3.772  10.598 -0.0336 -0.0719 -0.7349
  780MOL0     H 5259   3.328   3.731  10.586  1.6892 -4.5354 -1.0781
  780MOL0     H 5260   3.245   3.839  10.791  1.0094  0.5767  1.5055
  780MOL0     H 5261   3.356   3.894  10.991 -1.9848 -0.0488  2.4041
  780MOL0     H 5262   3.409   3.766  11.517 -0.1448  1.7445  0.5091
  780MOL0     H 5263   3.523   3.745  11.698  0.0661 -0.6908  2.1092
  780MOL0     H 5264   3.803   3.469  11.891 -0.6819 -1.1448  0.1228
  780MOL0     H 5265   3.812   3.417  11.724 -0.6300 -0.1720  0.5432
  780MOL0     H 5266   4.009   3.529  11.681 -0.1373  0.7578  0.1008
  780MOL0     H 5267   3.974   3.637  11.828  2.0190  0.4650 -1.0368
  780MOL0     H 5268   4.014   3.435  11.983  1.2214 -0.0777  0.9340
  780MOL0     H 5269   4.065   3.350  11.843 -1.5794  1.1362 -1.9385
  780MOL0     H 5270   4.200   3.619  11.921 -0.9787  0.6631 -2.1602
  780MOL0     H 5271   4.244   3.514  11.794 -0.2167  1.8292  0.7362
  780MOL0     H 5272   4.301   3.326  11.940  3.1337  0.5568 -0.9559
  780MOL0     H 5273   4.245   3.432  12.088  3.5816  3.0501  2.0897
  780MOL0     H 5274   4.466   3.464  11.897 -1.3230 -0.4803 -0.2743
  780MOL0     H 5275   4.422   3.593  12.018 -0.0326 -0.2715  2.7798
  780MOL0     H 5276   4.488   3.314  12.110  1.2152 -0.2286 -0.6794
  780MOL0     H 5277   4.485   3.455  12.215 -1.8126  1.1300 -1.0471
  780MOL0     H 5278   4.708   3.439  12.176 -0.8764 -1.1000 -0.5187
  780MOL0     H 5279   4.692   3.397  11.998 -1.3586  0.0244 -2.1752
  780MOL0     H 5280   3.836   3.507  11.516 -0.6767 -0.3735 -0.1823
  780MOL0     H 5281   3.715   3.542  11.302 -0.6215  0.7803 -0.7452
  780MOL0     H 5282   3.388   3.462  11.076  0.2245 -1.4410 -0.8567
  780MOL0     H 5283   3.300   3.417  10.851 -1.8392 -0.2823 -0.7152
  780MOL0     H 5284   1.513   3.289   9.861  1.6051 -1.9084  1.6092
  780MOL0     H 5285   1.354   3.289   9.657 -0.5263 -1.2138  0.2606
  780MOL0     H 5286   1.245   3.200   9.278 -0.1017 -0.9271 -1.9029
  780MOL0     H 5287   1.070   3.161   9.120 -2.0496  1.9299  0.8299
  780MOL0     H 5288   0.878   3.207   9.015  0.7393  0.9106  0.7256
  780MOL0     H 5289   0.959   3.150   8.860  1.0405  1.8357 -2.4353
  780MOL0     H 5290   0.837   3.288   8.725  3.2460 -2.3411  1.1852
  780MOL0     H 5291   0.718   3.323   8.855 -0.2515 -0.1125  1.4716
  780MOL0     H 5292   0.759   3.046   8.760  3.0422  0.6923  1.4616
  780MOL0     H 5293   0.648   3.159   8.682 -2.5463  2.0033  1.3168
  780MOL0     H 5294   0.563   2.986   8.865  1.0301 -0.2868 -0.6317
  780MOL0     H 5295   0.658   3.085   8.975  1.7893  2.1310 -0.5408
  780MOL0     H 5296   0.324   3.344   8.864  0.1386  0.2986 -0.4575
  780MOL0     H 5297   1.155   3.526   8.924  2.1244  1.5663  0.1412
  780MOL0     H 5298   1.294   3.669   9.005  1.1884 -1.0079 -0.8425
  780MOL0     H 5299   1.325   3.695   9.178 -4.8468 -2.3812  1.5399
  780MOL0     H 5300   1.444   3.623   9.079  0.1791  0.9073  0.6011
  781MOL0     O 5301   2.281   0.736  10.551  0.4141 -0.5167 -0.3015
  781MOL0     C 5302   2.371   0.678  10.496 -0.3515  0.2620  0.6105
  781MOL0     O 5303   2.470   0.612  10.557 -0.1950  0.0267  0.5257
  781MOL0     C 5304   2.472   0.602  10.698 -0.3210 -0.0746  0.4584
  781MOL0     C 5305   2.357   0.573  10.775  0.0654 -0.0723  0.2078
  781MOL0     C 5306   2.355   0.582  10.913  0.0407 -0.0437 -0.0191
  781MOL0     C 5307   2.471   0.605  10.984 -0.8397  0.6225  0.0962
  781MOL0     O 5308   2.477   0.623  11.122  0.0805 -0.1968  0.0460
  781MOL0     C 5309   2.379   0.715  11.166 -0.3076 -0.1933  1.1216
  781MOL0     C 5310   2.388   0.729  11.321 -0.5081  0.9201 -0.1228
  781MOL0     C 5311   2.322   0.849  11.388  1.2343 -0.8548 -0.3185
  781MOL0     C 5312   2.176   0.828  11.419  0.5402  0.1677  0.0336
  781MOL0     C 5313   2.109   0.953  11.478 -0.9906  0.4970 -0.3912
  781MOL0     C 5314   1.955   0.953  11.482  0.5351 -0.6928 -0.1838
  781MOL0     C 5315   1.903   1.014  11.352 -0.7113  0.1723 -0.4419
  781MOL0     C 5316   1.743   1.029  11.317 -0.1605 -0.1220 -0.0728
  781MOL0     N 5317   1.667   0.921  11.377  0.2733  0.2501  0.2837
  781MOL0     C 5318   1.649   0.805  11.308  0.3453  0.6447  0.8328
  781MOL0     C 5319   1.576   0.727  11.394  0.4559  0.8245 -0.5842
  781MOL0     C 5320   1.561   0.582  11.374 -0.5930 -0.0825  0.2897
  781MOL0     C 5321   1.699   0.514  11.412  0.4607 -0.2439  1.0983
  781MOL0     C 5322   1.713   0.512  11.564  0.3779  0.3934  0.9598
  781MOL0     C 5323   1.825   0.416  11.596  0.2909  0.2682 -0.8839
  781MOL0     O 5324   1.943   0.426  11.522  0.1692 -0.1819  0.4254
  781MOL0     C 5325   2.045   0.345  11.572 -0.7000 -0.3555 -0.0782
  781MOL0     C 5326   2.023   0.251  11.669 -0.8258 -0.1677  0.1215
  781MOL0     C 5327   2.142   0.189  11.719  1.0056 -0.5094  0.3694
  781MOL0     C 5328   2.273   0.220  11.679  0.5462  0.1678 -0.0545
  781MOL0     C 5329   2.392   0.180  11.766  0.4923 -0.7365  0.4191
  781MOL0     O 5330   2.509   0.242  11.753  0.3248  0.4005 -0.5668
  781MOL0     C 5331   2.610   0.199  11.832 -0.9782  0.3144  0.2852
  781MOL0     C 5332   2.621   0.244  11.961 -0.3144  0.1362 -0.7165
  781MOL0     C 5333   2.729   0.190  12.038  0.0414 -0.1247  0.7543
  781MOL0     C 5334   2.824   0.117  11.977  0.3059  0.3119 -0.5541
  781MOL0     O 5335   2.923   0.069  12.059  0.1843 -0.5098  0.5089
  781MOL0     C 5336   3.011   0.161  12.122  0.1253 -0.4908  0.2384
  781MOL0     C 5337   3.115   0.221  12.025 -0.0396 -0.6440  0.5528
  781MOL0     C 5338   3.216   0.287  12.118 -0.7034 -0.4891  0.6608
  781MOL0     C 5339   3.347   0.265  12.059  0.3741 -0.7462  0.3501
  781MOL0     C 5340   3.465   0.315  12.148 -1.1630  0.4287 -0.2632
  781MOL0     C 5341   3.604   0.304  12.084 -0.4553  0.6094  0.3425
  781MOL0     C 5342   3.619   0.420  11.970  0.0198  0.0245 -0.1071
  781MOL0     C 5343   3.750   0.484  11.978 -0.0303  0.2213  0.1807
  781MOL0    Cl 5344   3.760   0.627  12.081  0.6428  0.1444  0.0096
  781MOL0     C 5345   2.820   0.066  11.850  0.5380 -0.6342  0.7527
  781MOL0     C 5346   2.704   0.105  11.780  0.9935  0.5038 -0.1196
  781MOL0     O 5347   2.370   0.090  11.846  0.1817  0.7749  0.3060
  781MOL0     C 5348   2.283   0.320  11.576 -1.1682  0.0465  1.6954
  781MOL0     C 5349   2.173   0.375  11.525  0.2336  0.1195  0.5178
  781MOL0     N 5350   1.546   0.808  11.505 -0.3104  0.6429 -0.0989
  781MOL0     N 5351   1.598   0.925  11.491 -0.1735 -0.3037  0.1631
  781MOL0     C 5352   2.592   0.636  10.909  0.1308  0.3272 -0.6494
  781MOL0     C 5353   2.593   0.632  10.769 -0.5231  0.3236  0.5507
  781MOL0     C 5354   2.367   0.662  10.346  0.9666  0.0380  0.3363
  781MOL0     C 5355   2.482   0.673  10.269 -0.5708 -0.3126 -0.5003
  781MOL0     C 5356   2.486   0.667  10.129 -0.8587  0.1816  0.3152
  781MOL0     C 5357   2.374   0.632  10.052  0.3804 -0.7031  0.3722
  781MOL0     O 5358   2.386   0.624   9.919 -0.1116  0.2222  0.8363
  781MOL0     C 5359   2.280   0.602   9.831 -0.1174  0.2150 -0.6701
  781MOL0     C 5360   2.338   0.609   9.696  0.2149  0.1848  0.2980
  781MOL0     C 5361   2.277   0.503   9.605 -0.0701 -0.2349  0.6074
  781MOL0     C 5362   2.328   0.512   9.460 -1.0483 -0.0901 -0.2635
  781MOL0     C 5363   2.299   0.647   9.406 -0.4920 -0.0920  0.6821
  781MOL0     C 5364   2.275   0.754   9.350 -0.2355 -0.5069 -0.2295
  781MOL0     C 5365   2.256   0.624  10.130  0.5109 -0.1856  0.7471
  781MOL0     C 5366   2.252   0.649  10.265 -0.6092 -0.0728 -0.5731
  781MOL0     C 5367   2.117   0.648  10.337 -0.0156 -0.2931 -0.0374
  781MOL0     H 5368   2.269   0.544  10.718  0.5785 -2.5428  0.5662
  781MOL0     H 5369   2.261   0.577  10.966 -0.9677  1.1878 -1.6116
  781MOL0     H 5370   2.401   0.802  11.103 -0.2744 -0.6003  0.5696
  781MOL0     H 5371   2.283   0.666  11.151 -0.5130  0.0243  1.7164
  781MOL0     H 5372   2.490   0.747  11.357 -1.2121  1.2924  1.8639
  781MOL0     H 5373   2.358   0.631  11.360  0.7418 -0.0509 -1.4870
  781MOL0     H 5374   2.330   0.934  11.320  1.3420 -0.0563  0.6734
  781MOL0     H 5375   2.375   0.876  11.479 -0.2466 -0.0341  0.3288
  781MOL0     H 5376   2.129   0.790  11.327 -1.7015  0.6688  0.8907
  781MOL0     H 5377   2.153   0.756  11.498 -3.0160  1.3897  0.3295
  781MOL0     H 5378   2.152   0.965  11.578 -0.2618 -1.0596 -0.4902
  781MOL0     H 5379   2.144   1.041  11.423 -0.5283  0.2958 -0.4210
  781MOL0     H 5380   1.921   0.856  11.520 -1.7419  0.9811  2.5190
  781MOL0     H 5381   1.920   1.013  11.567 -3.2265  0.1463 -2.0974
  781MOL0     H 5382   1.946   0.946  11.278  0.6426 -0.1669  0.6160
  781MOL0     H 5383   1.958   1.109  11.344  0.8754 -0.7356 -0.8046
  781MOL0     H 5384   1.712   1.119  11.370 -0.5071 -0.9980  1.2440
  781MOL0     H 5385   1.729   1.037  11.209 -2.0267 -0.0990  0.1428
  781MOL0     H 5386   1.702   0.781  11.216  2.1474  0.1011  1.9584
  781MOL0     H 5387   1.472   0.531  11.413 -2.6579  1.2839 -2.3436
  781MOL0     H 5388   1.544   0.565  11.267  0.9150  0.8484 -0.1275
  781MOL0     H 5389   1.698   0.410  11.379  0.8794  0.3808 -1.0055
  781MOL0     H 5390   1.783   0.561  11.360 -1.4731  2.2907  0.0726
  781MOL0     H 5391   1.624   0.480  11.619 -1.4550  0.0991 -1.9441
  781MOL0     H 5392   1.733   0.617  11.583  1.2368  1.1930 -3.2741
  781MOL0     H 5393   1.784   0.316  11.578 -1.3859  1.2467 -2.9872
  781MOL0     H 5394   1.845   0.419  11.703  0.1984 -2.7885 -0.6885
  781MOL0     H 5395   1.925   0.228  11.710 -1.2101  0.1355 -0.5981
  781MOL0     H 5396   2.123   0.121  11.802 -0.4025 -0.9349 -0.2667
  781MOL0     H 5397   2.554   0.314  12.011  1.8886  1.3866  0.6819
  781MOL0     H 5398   2.724   0.221  12.142  0.8965 -0.2108  0.8287
  781MOL0     H 5399   2.955   0.246  12.162 -1.8934 -2.2913  1.4815
  781MOL0     H 5400   3.055   0.116  12.212  1.3660  1.5305  0.7170
  781MOL0     H 5401   3.153   0.141  11.961  0.7706 -0.4702  0.8074
  781MOL0     H 5402   3.065   0.295  11.960  0.1290 -0.1954  0.9294
  781MOL0     H 5403   3.190   0.393  12.124  2.1774  0.6162 -2.6224
  781MOL0     H 5404   3.230   0.236  12.214 -3.5985 -1.4749  0.6640
  781MOL0     H 5405   3.349   0.335  11.975 -2.1381  1.0660  1.6779
  781MOL0     H 5406   3.357   0.160  12.027  2.5781 -1.8768  4.1252
  781MOL0     H 5407   3.474   0.276  12.250 -0.6419 -0.2578 -0.5675
  781MOL0     H 5408   3.451   0.422  12.170  0.6039  0.7797 -0.6629
  781MOL0     H 5409   3.682   0.315  12.161  1.5602 -1.9616 -1.1671
  781MOL0     H 5410   3.610   0.201  12.050  0.0635  0.6456  0.3124
  781MOL0     H 5411   3.535   0.490  11.977  0.5923  0.6990  0.1434
  781MOL0     H 5412   3.615   0.373  11.872  0.9372 -0.7337  0.2044
  781MOL0     H 5413   3.831   0.416  12.009  1.9983  1.2120 -2.5619
  781MOL0     H 5414   3.783   0.520  11.880 -0.0665 -1.0683 -0.3217
  781MOL0     H 5415   2.902   0.005  11.813 -0.6825 -1.0204 -1.5307
  781MOL0     H 5416   2.712   0.070  11.678 -0.1080 -0.8413  0.2211
  781MOL0     H 5417   2.380   0.360  11.551 -1.6669  0.0596 -0.3503
  781MOL0     H 5418   2.182   0.443  11.442 -0.9102  0.6156  0.7847
  781MOL0     H 5419   2.686   0.655  10.960  0.0574 -1.2721  0.1376
  781MOL0     H 5420   2.686   0.667  10.727 -1.2460  1.2704 -0.3202
  781MOL0     H 5421   2.581   0.687  10.312  1.2221 -0.1510 -4.2100
  781MOL0     H 5422   2.583   0.675  10.082 -1.4513 -0.5305 -1.0913
  781MOL0     H 5423   2.199   0.673   9.847  1.6497  2.7439 -2.2502
  781MOL0     H 5424   2.238   0.503   9.853  1.4331  0.0830  2.1368
  781MOL0     H 5425   2.445   0.587   9.702 -0.6677 -4.8289  2.7077
  781MOL0     H 5426   2.314   0.712   9.668  0.9304  0.3423  0.2501
  781MOL0     H 5427   2.169   0.515   9.609 -0.1514 -0.1847 -1.0636
  781MOL0     H 5428   2.300   0.401   9.639 -0.5200 -0.6325 -0.2562
  781MOL0     H 5429   2.436   0.496   9.457 -0.9666  0.1117  0.8999
  781MOL0     H 5430   2.274   0.435   9.404 -0.6050 -0.8050  0.2723
  781MOL0     H 5431   2.256   0.849   9.305 -1.6711  0.7879  2.7947
  781MOL0     H 5432   2.168   0.618  10.066  0.0810 -1.2996  1.4181
  781MOL0     H 5433   2.040   0.622  10.264 -0.7810 -0.8451  0.9598
  781MOL0     H 5434   2.110   0.571  10.414  0.3996 -0.5240 -0.2285
  781MOL0     H 5435   2.093   0.744  10.383 -1.0859  0.5592 -2.2035
  782MOL0     O 5436   7.793   4.963   5.053  0.3121  0.4781  0.3303
  782MOL0     C 5437   7.842   4.918   5.154 -0.6093 -0.1439  0.8635
  782MOL0     O 5438   7.968   4.860   5.161  0.2856 -0.8449 -0.2257
  782MOL0     C 5439   8.043   4.848   5.047 -0.1938 -0.2745 -1.7860
  782MOL0     C 5440   8.165   4.914   5.043 -0.4653 -0.0649 -0.5923
  782MOL0     C 5441   8.243   4.898   4.929 -0.4299  0.3549  1.0323
  782MOL0     C 5442   8.196   4.812   4.829  0.0941  0.5414  0.3502
  782MOL0     O 5443   8.272   4.771   4.723 -0.7548 -0.1824  0.4908
  782MOL0     C 5444   8.371   4.675   4.745  0.2160 -1.0798 -0.1654
  782MOL0     C 5445   8.418   4.626   4.611  0.2436  0.4535  0.3604
  782MOL0     C 5446   8.319   4.529   4.549  0.0085  0.2998  0.4055
  782MOL0     C 5447   8.375   4.460   4.428  0.5755 -0.3436  0.0943
  782MOL0     C 5448   8.264   4.362   4.375 -0.3575 -0.1669 -0.9378
  782MOL0     C 5449   8.323   4.273   4.262 -0.6830 -0.1084 -0.1626
  782MOL0     C 5450   8.217   4.209   4.180  1.1529  0.2394  0.3379
  782MOL0     C 5451   8.269   4.155   4.048  1.1047 -0.7687 -0.2849
  782MOL0     N 5452   8.352   4.038   4.060  0.5328 -0.2923  0.0591
  782MOL0     C 5453   8.480   4.039   4.017 -0.9081  0.8854 -0.3210
  782MOL0     C 5454   8.534   3.918   4.043  0.1688  0.4117  0.5288
  782MOL0     C 5455   8.668   3.863   3.994 -1.0794 -0.3422  0.9560
  782MOL0     C 5456   8.790   3.934   4.041 -0.8358  0.4269 -0.4871
  782MOL0     C 5457   8.918   3.858   3.993 -1.1447 -1.0722 -0.2213
  782MOL0     C 5458   9.047   3.922   4.057  0.0237  1.4954  0.4990
  782MOL0     O 5459   9.146   3.819   4.096  0.0014  0.0007  0.6064
  782MOL0     C 5460   9.276   3.851   4.097  0.1249 -0.1519  0.0292
  782MOL0     C 5461   9.359   3.743   4.086 -0.4729 -0.8979  0.5554
  782MOL0     C 5462   9.497   3.764   4.095  0.1444  0.8758 -0.1820
  782MOL0     C 5463   9.559   3.891   4.108 -0.2543 -0.7865  0.6046
  782MOL0     C 5464   9.706   3.908   4.102  0.5316 -0.4311  0.1428
  782MOL0     O 5465   9.781   3.794   4.092 -0.2034 -0.8167  0.4065
  782MOL0     C 5466   9.914   3.815   4.080 -0.7066  0.5938  0.3361
  782MOL0     C 5467   9.990   3.822   4.194  0.0698  0.4170 -0.8663
  782MOL0     C 5468  10.125   3.854   4.178 -0.2024 -0.3074 -0.6082
  782MOL0     C 5469  10.190   3.871   4.056 -0.2078  0.4392 -0.0187
  782MOL0     O 5470  10.327   3.892   4.058 -0.6425  0.7493  0.1219
  782MOL0     C 5471  10.402   3.879   3.928 -0.5383 -0.4553 -0.8618
  782MOL0     C 5472  10.544   3.926   3.955 -0.3650 -0.2901  0.3757
  782MOL0     C 5473  10.631   3.830   4.037  0.2669  1.1921 -0.6528
  782MOL0     C 5474  10.770   3.878   4.079  0.5532  0.5540  0.2116
  782MOL0     C 5475  10.848   3.778   4.158 -0.2417  0.9581  0.0008
  782MOL0     C 5476  10.988   3.756   4.096 -0.1576 -0.6273 -0.5563
  782MOL0     C 5477  10.992   3.697   3.956  0.0043  0.4976 -0.1184
  782MOL0     C 5478  11.098   3.586   3.951 -1.1539  0.0391  0.0758
  782MOL0    Cl 5479  11.250   3.642   4.034  0.1832 -0.1513 -0.5611
  782MOL0     C 5480  10.111   3.861   3.945  0.4277 -0.4500  0.6855
  782MOL0     C 5481   9.978   3.841   3.956 -0.4989 -0.7006  1.2984
  782MOL0     O 5482   9.742   4.025   4.092 -0.4801  0.6230  0.0946
  782MOL0     C 5483   9.469   3.997   4.112  0.4327  0.2156 -0.5028
  782MOL0     C 5484   9.327   3.977   4.115 -0.7080 -0.1259  1.3078
  782MOL0     N 5485   8.418   3.837   4.071 -1.3731  0.1899  0.0279
  782MOL0     N 5486   8.315   3.904   4.091  0.1071  0.1112 -0.2457
  782MOL0     C 5487   8.079   4.738   4.841 -0.2301 -0.3123 -0.2996
  782MOL0     C 5488   8.004   4.755   4.954  0.4041 -0.4094 -0.4642
  782MOL0     C 5489   7.767   4.931   5.279  0.1425  0.8828  0.2496
  782MOL0     C 5490   7.850   4.957   5.392  0.2695  0.4219 -0.8233
  782MOL0     C 5491   7.790   4.962   5.522 -0.4699 -0.9912 -0.3989
  782MOL0     C 5492   7.653   4.950   5.542 -0.3625 -0.2236  0.5842
  782MOL0     O 5493   7.610   4.945   5.683 -0.7183  0.1685  0.8109
  782MOL0     C 5494   7.471   4.933   5.713 -0.4632 -0.2042 -0.3943
  782MOL0     C 5495   7.457   4.932   5.869  0.6500  1.3935 -0.1632
  782MOL0     C 5496   7.485   4.791   5.927 -0.4047  0.7594 -0.5405
  782MOL0     C 5497   7.454   4.800   6.076 -0.8109  0.2297  1.1861
  782MOL0     C 5498   7.557   4.893   6.135  0.2583 -0.7200  0.6565
  782MOL0     C 5499   7.640   4.974   6.179 -0.5953  0.2843 -0.1167
  782MOL0     C 5500   7.568   4.946   5.430  0.0467  0.4202  0.2804
  782MOL0     C 5501   7.625   4.944   5.301  0.3210  0.3627  0.3321
  782MOL0     C 5502   7.527   4.930   5.185  0.1681  0.3720 -0.0356
  782MOL0     H 5503   8.212   4.967   5.125 -3.7026  2.3061 -0.0878
  782MOL0     H 5504   8.338   4.950   4.926  0.3659 -1.0850 -1.4957
  782MOL0     H 5505   8.459   4.717   4.795 -0.2557 -0.6550  0.3210
  782MOL0     H 5506   8.324   4.601   4.810 -0.4561 -0.4827  0.0415
  782MOL0     H 5507   8.517   4.579   4.610 -0.5036 -1.2001  0.5373
  782MOL0     H 5508   8.414   4.707   4.537 -2.1295 -0.5142 -0.6690
  782MOL0     H 5509   8.226   4.582   4.527 -0.2953 -0.6052 -0.5716
  782MOL0     H 5510   8.300   4.448   4.621  2.5923 -2.4097 -1.6989
  782MOL0     H 5511   8.402   4.540   4.360  0.7358  1.1354  1.8227
  782MOL0     H 5512   8.472   4.415   4.450  0.0534 -1.3361  0.4412
  782MOL0     H 5513   8.238   4.296   4.458 -0.8876  1.7633  0.5040
  782MOL0     H 5514   8.173   4.416   4.347  0.9349  1.7177 -1.6465
  782MOL0     H 5515   8.380   4.339   4.196  0.0575  1.3321  1.8268
  782MOL0     H 5516   8.395   4.203   4.305  0.6552 -0.9387 -3.4425
  782MOL0     H 5517   8.143   4.287   4.159  2.1993  1.3359  0.6129
  782MOL0     H 5518   8.177   4.127   4.240 -1.5180  1.6107  0.5715
  782MOL0     H 5519   8.191   4.137   3.975 -0.2936  3.3647 -0.0764
  782MOL0     H 5520   8.322   4.243   4.009  1.2073 -1.3905 -1.5613
  782MOL0     H 5521   8.510   4.124   3.956  0.4861  1.0717  0.5715
  782MOL0     H 5522   8.666   3.758   4.025 -2.5732 -0.0602  1.9263
  782MOL0     H 5523   8.671   3.879   3.885  0.5132 -0.6317  0.9353
  782MOL0     H 5524   8.793   4.035   3.998  0.1160  0.9189  0.6753
  782MOL0     H 5525   8.790   3.956   4.148  0.3168  1.2292 -0.6329
  782MOL0     H 5526   8.924   3.858   3.884  0.2996 -0.8415 -0.1560
  782MOL0     H 5527   8.918   3.754   4.027 -1.5124 -1.5749 -1.6919
  782MOL0     H 5528   9.013   3.976   4.145 -0.2353  0.6181  0.9517
  782MOL0     H 5529   9.092   3.996   3.990 -0.2805  0.2125 -1.1851
  782MOL0     H 5530   9.316   3.648   4.056 -3.6490  0.8001 -0.7137
  782MOL0     H 5531   9.559   3.683   4.060  0.1074 -1.2760  4.0737
  782MOL0     H 5532   9.936   3.817   4.288  0.3532 -0.5979 -0.7450
  782MOL0     H 5533  10.176   3.884   4.269  0.1882  2.8310 -1.7415
  782MOL0     H 5534  10.399   3.773   3.899  1.0453 -0.7465 -0.0769
  782MOL0     H 5535  10.352   3.940   3.853 -0.7853 -0.9728 -1.1237
  782MOL0     H 5536  10.598   3.926   3.860  0.6259 -0.7809  0.9200
  782MOL0     H 5537  10.536   4.028   3.996 -1.7523 -0.5903  0.9186
  782MOL0     H 5538  10.580   3.805   4.130  3.1466  2.3795  1.3779
  782MOL0     H 5539  10.642   3.740   3.976 -0.5879  3.1724 -3.9942
  782MOL0     H 5540  10.761   3.967   4.142 -1.0830  1.8928 -1.7527
  782MOL0     H 5541  10.824   3.911   3.989 -0.0291  0.8974 -0.0185
  782MOL0     H 5542  10.802   3.680   4.172  0.9821  0.0632 -1.8988
  782MOL0     H 5543  10.858   3.825   4.257 -1.9929 -2.3120  1.9336
  782MOL0     H 5544  11.032   3.856   4.090 -1.5288  0.0499  0.2220
  782MOL0     H 5545  11.043   3.702   4.173 -0.1290 -0.6639 -0.6024
  782MOL0     H 5546  11.015   3.770   3.878 -0.9942  0.4718 -0.4405
  782MOL0     H 5547  10.895   3.651   3.936  0.0852  1.1251 -2.2710
  782MOL0     H 5548  11.051   3.495   3.991 -0.1006 -1.1810 -1.3251
  782MOL0     H 5549  11.138   3.574   3.850  4.3841  0.1074  1.9141
  782MOL0     H 5550  10.167   3.872   3.853  2.0900 -1.5157  1.5249
  782MOL0     H 5551   9.917   3.845   3.866 -1.1925 -1.8546  1.6910
  782MOL0     H 5552   9.505   4.099   4.123  0.6841  0.3522 -2.2424
  782MOL0     H 5553   9.263   4.065   4.121  0.9458  1.1934  0.2805
  782MOL0     H 5554   8.049   4.670   4.762 -2.4547  0.9240 -0.5996
  782MOL0     H 5555   7.911   4.703   4.976 -1.1628  1.3295 -2.5369
  782MOL0     H 5556   7.958   4.954   5.387  0.2616  0.3383 -0.9813
  782MOL0     H 5557   7.845   4.976   5.615  1.4797  0.4756 -1.6927
  782MOL0     H 5558   7.431   4.836   5.680 -1.7756 -0.0201  0.5857
  782MOL0     H 5559   7.409   5.008   5.664 -0.1863  0.6329  0.4999
  782MOL0     H 5560   7.352   4.957   5.888  0.3326 -0.2133  0.3693
  782MOL0     H 5561   7.519   5.013   5.909  0.1483  2.6658 -1.8607
  782MOL0     H 5562   7.583   4.748   5.905 -0.2928  1.3971 -1.3138
  782MOL0     H 5563   7.412   4.719   5.889 -0.6311  0.5330  0.2979
  782MOL0     H 5564   7.352   4.835   6.093 -2.0274 -1.5768 -1.5697
  782MOL0     H 5565   7.464   4.702   6.125  1.0564 -0.8908 -1.1636
  782MOL0     H 5566   7.703   5.048   6.224  1.2850 -2.1657  1.4984
  782MOL0     H 5567   7.460   4.936   5.438 -0.6627  3.1451 -3.1530
  782MOL0     H 5568   7.509   4.824   5.165  1.7538  0.4334 -2.1897
  782MOL0     H 5569   7.434   4.982   5.206 -0.0545 -0.2873  0.6504
  782MOL0     H 5570   7.569   4.963   5.089  2.2257  1.4829  1.1834
  783MOL0     O 5571  11.216   1.778   2.628  0.1164 -0.2901  0.6964
  783MOL0     C 5572  11.151   1.757   2.526  0.2523  0.2144  0.5575
  783MOL0     O 5573  11.182   1.811   2.407  0.7118 -0.1368  0.6401
  783MOL0     C 5574  11.302   1.865   2.392  0.0099 -1.2660  0.1591
  783MOL0     C 5575  11.317   2.009   2.407  0.3114  0.7045  0.3945
  783MOL0     C 5576  11.444   2.058   2.381  0.5746 -0.1063 -0.1709
  783MOL0     C 5577  11.552   1.983   2.343  0.2129 -0.1464 -0.3212
  783MOL0     O 5578  11.669   2.058   2.340 -0.1524 -0.5212 -0.7348
  783MOL0     C 5579  11.792   1.984   2.356  0.5864 -0.7683  0.1655
  783MOL0     C 5580  11.908   2.075   2.384  0.0170  0.0983 -0.0850
  783MOL0     C 5581  12.036   1.996   2.375  0.3236 -0.2449 -0.4189
  783MOL0     C 5582  12.145   2.111   2.388 -0.5665  0.9484  0.3566
  783MOL0     C 5583  12.283   2.044   2.377  0.0946  0.1104 -0.7724
  783MOL0     C 5584  12.409   2.139   2.392 -0.9051 -0.7300 -0.2510
  783MOL0     C 5585  12.543   2.066   2.375  0.2287  0.3407  0.2609
  783MOL0     C 5586  12.663   2.164   2.390 -0.1258  1.2253 -0.2659
  783MOL0     N 5587  12.784   2.110   2.332  0.7983  0.3379  0.7779
  783MOL0     C 5588  12.802   2.098   2.203  0.2672  0.3295  0.6527
  783MOL0     C 5589  12.927   2.056   2.192 -0.4461  0.9979  0.6344
  783MOL0     C 5590  12.994   2.018   2.059  0.7266 -0.6086 -0.5883
  783MOL0     C 5591  13.147   1.993   2.085 -0.0606 -0.1658 -0.2520
  783MOL0     C 5592  13.233   1.952   1.961 -0.2305  0.1710  0.2371
  783MOL0     C 5593  13.227   1.803   1.914 -0.8262  0.2978  0.2857
  783MOL0     O 5594  13.329   1.801   1.817 -0.0124  0.4609 -0.3915
  783MOL0     C 5595  13.463   1.808   1.850 -0.6131  0.2822  0.1621
  783MOL0     C 5596  13.520   1.786   1.980  0.3160  0.3911 -0.7699
  783MOL0     C 5597  13.652   1.780   1.998  0.0502 -0.6323 -0.3148
  783MOL0     C 5598  13.739   1.828   1.902 -0.0102 -0.2469  0.2611
  783MOL0     C 5599  13.880   1.832   1.927 -0.1039  0.1154 -0.5322
  783MOL0     O 5600  13.954   1.792   1.821 -0.3904  0.0918 -0.8461
  783MOL0     C 5601  14.092   1.769   1.830 -0.3773 -0.3058  0.1220
  783MOL0     C 5602  14.157   1.761   1.708 -0.4386  0.5957  0.6189
  783MOL0     C 5603  14.283   1.713   1.702  0.1393 -0.0974 -0.3593
  783MOL0     C 5604  14.356   1.685   1.813 -0.0585  0.3866  0.5195
  783MOL0     O 5605  14.481   1.649   1.791  0.1011 -0.3676 -0.0927
  783MOL0     C 5606  14.538   1.567   1.893  0.9227  0.3763 -0.7928
  783MOL0     C 5607  14.682   1.559   1.870 -0.5542 -0.4158 -0.1828
  783MOL0     C 5608  14.713   1.464   1.759  0.0117 -0.3469  0.3037
  783MOL0     C 5609  14.871   1.454   1.758  0.6917  1.1133 -0.7098
  783MOL0     C 5610  14.923   1.379   1.638  0.1287 -0.0501 -0.2581
  783MOL0     C 5611  15.067   1.321   1.662  0.6265 -0.9188  0.0791
  783MOL0     C 5612  15.117   1.230   1.549 -0.7176  0.9986 -0.7268
  783MOL0     C 5613  15.130   1.293   1.409 -0.2372  0.2452 -0.4679
  783MOL0    Cl 5614  14.985   1.261   1.314  0.6146  0.0479 -0.3683
  783MOL0     C 5615  14.297   1.704   1.934 -0.2233 -0.6759  0.4733
  783MOL0     C 5616  14.168   1.741   1.945  0.7013 -1.4540  0.3576
  783MOL0     O 5617  13.922   1.872   2.032 -0.5912 -0.1369 -1.7011
  783MOL0     C 5618  13.686   1.865   1.780 -0.1222 -0.1496  0.3336
  783MOL0     C 5619  13.547   1.868   1.752  0.9533  0.3453  0.9087
  783MOL0     N 5620  12.988   2.058   2.310 -0.3737 -0.1886 -0.2519
  783MOL0     N 5621  12.903   2.102   2.395  0.0249  0.3133 -0.1213
  783MOL0     C 5622  11.535   1.846   2.334 -0.2441  1.3176 -0.3083
  783MOL0     C 5623  11.418   1.784   2.364  0.7048 -0.9250 -0.6328
  783MOL0     C 5624  11.023   1.672   2.522  0.0028  0.3851  0.1594
  783MOL0     C 5625  10.950   1.661   2.401 -0.1426  0.1811  0.6964
  783MOL0     C 5626  10.841   1.579   2.393 -0.6566 -0.3217  0.2059
  783MOL0     C 5627  10.800   1.503   2.510 -0.3695 -0.0682  0.4846
  783MOL0     O 5628  10.678   1.436   2.514 -0.2863 -0.0999  0.1050
  783MOL0     C 5629  10.603   1.407   2.398 -0.1000 -0.7622 -0.0237
  783MOL0     C 5630  10.476   1.332   2.442 -0.2832  0.2899 -0.3033
  783MOL0     C 5631  10.498   1.195   2.507  0.3759  0.5351 -0.4067
  783MOL0     C 5632  10.402   1.172   2.626 -0.1384 -0.0255  0.2150
  783MOL0     C 5633  10.257   1.172   2.602 -0.2583  1.7150  0.5910
  783MOL0     C 5634  10.140   1.168   2.568  0.0808  0.4417  0.2258
  783MOL0     C 5635  10.872   1.517   2.627  0.3889 -0.8103  0.1392
  783MOL0     C 5636  10.979   1.602   2.636  0.0580  0.0128  0.4180
  783MOL0     C 5637  11.043   1.609   2.772 -0.0973 -0.3104  0.3855
  783MOL0     H 5638  11.235   2.078   2.423  0.7539  0.6048  3.9695
  783MOL0     H 5639  11.457   2.166   2.388  0.2574 -0.2021  3.8420
  783MOL0     H 5640  11.783   1.909   2.436 -0.5303 -2.7230 -1.6822
  783MOL0     H 5641  11.805   1.932   2.261 -0.2033 -0.7880  0.0601
  783MOL0     H 5642  11.891   2.113   2.485 -2.1882 -0.1460 -0.3087
  783MOL0     H 5643  11.916   2.148   2.302  0.7608  0.2547  0.1178
  783MOL0     H 5644  12.042   1.948   2.277 -2.2849 -1.3984 -0.1153
  783MOL0     H 5645  12.050   1.929   2.460  3.9323  0.8177 -0.0364
  783MOL0     H 5646  12.142   2.185   2.308  2.4413  2.9674  1.9227
  783MOL0     H 5647  12.140   2.174   2.477  0.2901  2.5979 -0.7071
  783MOL0     H 5648  12.288   1.969   2.456 -2.2404  0.2843 -0.3720
  783MOL0     H 5649  12.287   1.994   2.279  3.8711  1.9178 -1.7291
  783MOL0     H 5650  12.404   2.231   2.333 -0.0271  0.0125  0.7951
  783MOL0     H 5651  12.409   2.170   2.497  0.8946  0.9286 -0.6850
  783MOL0     H 5652  12.550   2.028   2.273  0.8321 -0.5512  0.6183
  783MOL0     H 5653  12.554   1.978   2.439 -0.3967 -0.7853 -1.1393
  783MOL0     H 5654  12.630   2.259   2.347 -2.2000  0.4002 -0.6061
  783MOL0     H 5655  12.677   2.177   2.498 -0.2054  1.4803 -0.2848
  783MOL0     H 5656  12.735   2.123   2.121  1.6800  0.2765 -0.5614
  783MOL0     H 5657  12.952   1.932   2.007 -0.4999  0.0203 -0.6716
  783MOL0     H 5658  12.992   2.108   1.996  0.4433  1.1899  1.8466
  783MOL0     H 5659  13.185   2.090   2.120  0.8230 -0.1830 -1.1428
  783MOL0     H 5660  13.165   1.923   2.167  1.6291  0.2990 -0.1877
  783MOL0     H 5661  13.334   1.989   1.984  0.7623 -0.6838 -2.3576
  783MOL0     H 5662  13.195   2.005   1.873 -0.5146 -0.0680  0.2177
  783MOL0     H 5663  13.135   1.765   1.869  0.1472  0.8652 -2.3534
  783MOL0     H 5664  13.260   1.739   1.997  0.5825  0.6875  0.0433
  783MOL0     H 5665  13.454   1.760   2.062  1.5329 -0.6226 -0.0770
  783MOL0     H 5666  13.692   1.764   2.097 -0.3363 -0.9119 -0.2046
  783MOL0     H 5667  14.098   1.771   1.617 -1.1413  1.7462  1.1674
  783MOL0     H 5668  14.324   1.693   1.603  2.1680  2.7576 -0.2265
  783MOL0     H 5669  14.531   1.619   1.989 -0.4405  2.0704 -1.7609
  783MOL0     H 5670  14.484   1.472   1.905 -1.8947  2.0399  0.7482
  783MOL0     H 5671  14.710   1.664   1.853 -0.4876 -0.3563  0.2735
  783MOL0     H 5672  14.733   1.524   1.960  0.3818 -0.1749 -0.6036
  783MOL0     H 5673  14.671   1.363   1.767  1.2816 -1.2659 -2.9607
  783MOL0     H 5674  14.677   1.502   1.663 -3.0758 -0.1346  1.4206
  783MOL0     H 5675  14.914   1.414   1.850  0.0914  0.0358 -0.8875
  783MOL0     H 5676  14.910   1.554   1.738  3.7335  0.0050 -0.8394
  783MOL0     H 5677  14.932   1.449   1.554 -4.0439 -0.5044 -1.2686
  783MOL0     H 5678  14.849   1.304   1.609 -0.2163  0.1309  0.1447
  783MOL0     H 5679  15.130   1.411   1.656  0.0156 -0.3797  1.4940
  783MOL0     H 5680  15.085   1.278   1.761 -0.7735 -0.3932  0.5812
  783MOL0     H 5681  15.055   1.140   1.537 -0.2293  0.8462 -2.2367
  783MOL0     H 5682  15.209   1.191   1.595 -2.5203 -3.4442 -0.3092
  783MOL0     H 5683  15.159   1.399   1.414  0.6452  0.0324 -0.8613
  783MOL0     H 5684  15.216   1.244   1.362 -0.8577  0.6231 -2.0695
  783MOL0     H 5685  14.347   1.691   2.029  0.7279  3.9921  0.8752
  783MOL0     H 5686  14.123   1.756   2.042 -0.6483  2.9251 -0.7213
  783MOL0     H 5687  13.754   1.884   1.697 -0.2183 -1.1841  0.0033
  783MOL0     H 5688  13.504   1.898   1.657 -3.5036 -2.5972  1.6500
  783MOL0     H 5689  11.622   1.783   2.320  0.3588  2.0805 -0.0602
  783MOL0     H 5690  11.388   1.679   2.359 -3.8466  0.2067 -3.4985
  783MOL0     H 5691  10.982   1.713   2.311 -1.3529 -0.5270 -0.1719
  783MOL0     H 5692  10.787   1.579   2.299 -0.1612 -2.2317 -0.1325
  783MOL0     H 5693  10.656   1.336   2.333 -1.6750 -0.2585 -1.9736
  783MOL0     H 5694  10.585   1.501   2.346  1.3821 -0.1788  0.4918
  783MOL0     H 5695  10.407   1.329   2.357 -0.1580  2.2218 -0.5336
  783MOL0     H 5696  10.426   1.402   2.509 -2.2947 -0.8772 -0.5052
  783MOL0     H 5697  10.600   1.190   2.544  0.6950 -2.7287 -1.4594
  783MOL0     H 5698  10.482   1.116   2.434 -1.0935  0.9444 -0.5695
  783MOL0     H 5699  10.422   1.074   2.670 -3.6302 -1.9207 -1.9212
  783MOL0     H 5700  10.424   1.256   2.692 -2.5132  1.5893 -0.9073
  783MOL0     H 5701  10.036   1.166   2.540 -0.1112 -0.2904  0.9620
  783MOL0     H 5702  10.829   1.469   2.714 -2.0135  0.5676 -0.2009
  783MOL0     H 5703  11.029   1.711   2.810 -0.7728 -0.0218 -0.6197
  783MOL0     H 5704  10.997   1.545   2.847 -3.8510  2.9328  1.1407
  783MOL0     H 5705  11.150   1.585   2.766  0.1534 -0.1990  3.1677
  784MOL0     O 5706   5.765  10.080   0.311 -0.3632  0.6295 -0.6244
  784MOL0     C 5707   5.880  10.050   0.352 -0.5199  0.0797  0.2460
  784MOL0     O 5708   5.941   9.927   0.339  0.0353  0.0897 -0.2645
  784MOL0     C 5709   5.875   9.825   0.276 -0.5330 -0.6933  0.0053
  784MOL0     C 5710   5.753   9.772   0.341 -0.5719  0.1279  0.6952
  784MOL0     C 5711   5.675   9.666   0.292 -0.3453 -0.0006 -0.1870
  784MOL0     C 5712   5.739   9.600   0.181  0.3896 -0.6184 -0.5477
  784MOL0     O 5713   5.673   9.486   0.153 -0.2807 -0.0027  0.6871
  784MOL0     C 5714   5.751   9.376   0.090  0.3137 -0.0172  0.1575
  784MOL0     C 5715   5.667   9.243   0.095  0.2727  0.4577 -0.2367
  784MOL0     C 5716   5.754   9.125   0.041 -0.2843 -0.1897 -0.1330
  784MOL0     C 5717   5.675   9.006  -0.012  0.7797  0.0033  0.4693
  784MOL0     C 5718   5.750   8.878  -0.052 -0.3564 -0.4832  1.3772
  784MOL0     C 5719   5.813   8.892  -0.192 -0.0472 -0.7940 -0.0977
  784MOL0     C 5720   5.712   8.903  -0.306 -0.5369 -0.1070  0.2450
  784MOL0     C 5721   5.778   8.891  -0.442 -0.5543 -0.4194  0.6420
  784MOL0     N 5722   5.704   8.951  -0.554  0.0061 -0.0451 -0.3764
  784MOL0     C 5723   5.747   9.056  -0.634  0.5967  0.1303  0.3493
  784MOL0     C 5724   5.643   9.074  -0.718  0.2997  0.7493  0.4228
  784MOL0     C 5725   5.636   9.180  -0.823  0.1217 -1.3094 -0.0029
  784MOL0     C 5726   5.719   9.156  -0.957 -0.0558 -0.3082  0.1977
  784MOL0     C 5727   5.728   9.279  -1.034  0.2216  0.6090 -0.0561
  784MOL0     C 5728   5.832   9.287  -1.142  0.1528  0.8367  0.0951
  784MOL0     O 5729   5.833   9.169  -1.218 -0.2852 -1.1492  0.8709
  784MOL0     C 5730   5.920   9.166  -1.336  0.7684 -0.3993  0.3416
  784MOL0     C 5731   5.899   9.064  -1.421 -0.9001  0.1423 -0.2748
  784MOL0     C 5732   5.969   9.056  -1.542 -0.1526 -0.3305  0.0159
  784MOL0     C 5733   6.059   9.162  -1.580 -0.5632  0.1010 -0.5169
  784MOL0     C 5734   6.118   9.175  -1.712 -0.7392 -0.6358  0.1765
  784MOL0     O 5735   6.187   9.283  -1.741  0.2063  0.0423  0.6933
  784MOL0     C 5736   6.210   9.306  -1.875 -0.7170 -0.2403  1.2418
  784MOL0     C 5737   6.113   9.313  -1.972 -0.7636  1.0477  0.6680
  784MOL0     C 5738   6.142   9.336  -2.112 -0.4027 -0.1850 -0.3388
  784MOL0     C 5739   6.269   9.357  -2.150 -0.4927 -0.5363  0.5928
  784MOL0     O 5740   6.278   9.368  -2.288  0.3567 -0.1775  0.0277
  784MOL0     C 5741   6.395   9.435  -2.342  0.3117  0.1846  0.1878
  784MOL0     C 5742   6.384   9.462  -2.491  0.8466  0.5436  0.1866
  784MOL0     C 5743   6.520   9.490  -2.551  0.9273 -0.2659 -0.6869
  784MOL0     C 5744   6.506   9.505  -2.711 -0.8082  1.3436 -0.6571
  784MOL0     C 5745   6.645   9.544  -2.775  0.4750  0.2161  0.2684
  784MOL0     C 5746   6.641   9.686  -2.842 -0.6167  0.0328  0.0905
  784MOL0     C 5747   6.784   9.743  -2.876 -0.6106  0.3664  0.0639
  784MOL0     C 5748   6.787   9.849  -2.982  0.5277  0.0083  0.2987
  784MOL0    Cl 5749   6.962   9.897  -3.000  0.2545 -0.2260 -0.2867
  784MOL0     C 5750   6.367   9.375  -2.053 -0.1676  0.8355  0.6691
  784MOL0     C 5751   6.333   9.332  -1.922 -0.2741 -0.3268  0.4560
  784MOL0     O 5752   6.080   9.089  -1.791 -0.3471  0.0265 -0.5589
  784MOL0     C 5753   6.083   9.265  -1.484 -0.9904  0.3629 -0.2058
  784MOL0     C 5754   6.012   9.265  -1.368 -0.4825 -1.2105 -0.1331
  784MOL0     N 5755   5.539   8.995  -0.676  0.4860 -0.3504 -0.5256
  784MOL0     N 5756   5.576   8.917  -0.581 -0.2757  0.3310  0.6604
  784MOL0     C 5757   5.855   9.653   0.113 -0.2439 -0.3516 -0.3156
  784MOL0     C 5758   5.919   9.766   0.163 -0.7699  0.6867  0.0015
  784MOL0     C 5759   5.961  10.153   0.428  0.9601  1.1839  0.1613
  784MOL0     C 5760   6.074  10.096   0.485  0.2578  0.7476  0.4117
  784MOL0     C 5761   6.167  10.174   0.555 -0.0340  0.6336  0.9465
  784MOL0     C 5762   6.144  10.308   0.578 -1.0143 -0.0877  0.7160
  784MOL0     O 5763   6.220  10.396   0.653 -0.0630  0.3953 -0.3658
  784MOL0     C 5764   6.308  10.345   0.755  0.8299  0.8620  0.0316
  784MOL0     C 5765   6.401  10.451   0.800 -0.9308  0.1443  0.0870
  784MOL0     C 5766   6.533  10.391   0.858 -0.9743 -0.2103  0.1149
  784MOL0     C 5767   6.636  10.501   0.881  0.1304 -0.1070 -0.3607
  784MOL0     C 5768   6.744  10.449   0.955  0.0622  0.1861 -0.1279
  784MOL0     C 5769   6.829  10.388   1.018  1.2218  0.1058 -0.2647
  784MOL0     C 5770   6.024  10.355   0.520  0.5279  0.5577 -0.0467
  784MOL0     C 5771   5.936  10.285   0.444 -0.1809  0.3458  0.7142
  784MOL0     C 5772   5.833  10.369   0.364  0.5964 -0.8957  0.3955
  784MOL0     H 5773   5.718   9.811   0.436  0.5637  1.4170  0.5985
  784MOL0     H 5774   5.579   9.638   0.333 -0.9217  3.0553  0.7911
  784MOL0     H 5775   5.758   9.407  -0.015  0.3067  4.0762  1.1990
  784MOL0     H 5776   5.849   9.356   0.133  0.6826  0.4251 -0.4724
  784MOL0     H 5777   5.572   9.249   0.042  1.2128 -0.7809 -2.1893
  784MOL0     H 5778   5.652   9.218   0.201  2.0700 -0.3630 -0.1427
  784MOL0     H 5779   5.821   9.099   0.124  2.3112  2.3266 -1.2514
  784MOL0     H 5780   5.818   9.160  -0.040 -0.2015  1.9156  0.7564
  784MOL0     H 5781   5.603   8.972   0.063 -0.7581  0.1269 -0.8888
  784MOL0     H 5782   5.615   9.053  -0.091 -0.1329  0.4355  1.4042
  784MOL0     H 5783   5.819   8.848   0.028  0.1559  1.7854  1.8642
  784MOL0     H 5784   5.671   8.805  -0.071 -2.1547  2.1838 -2.9269
  784MOL0     H 5785   5.877   8.980  -0.189 -2.5634  1.1245  0.5226
  784MOL0     H 5786   5.871   8.799  -0.199 -1.2869 -1.5906 -0.0032
  784MOL0     H 5787   5.651   8.993  -0.293 -0.5194 -0.0325 -0.1748
  784MOL0     H 5788   5.641   8.820  -0.301 -1.3627  0.2952 -2.7203
  784MOL0     H 5789   5.867   8.954  -0.435 -1.7803  1.4006  0.4125
  784MOL0     H 5790   5.803   8.789  -0.472  0.1383  0.5018 -2.2209
  784MOL0     H 5791   5.836   9.115  -0.620 -0.0817  2.7009 -4.2920
  784MOL0     H 5792   5.530   9.194  -0.841  0.1182  2.2104  1.9446
  784MOL0     H 5793   5.667   9.274  -0.777 -1.9310 -0.6984  0.2217
  784MOL0     H 5794   5.821   9.120  -0.940  0.2561 -0.3459 -1.5649
  784MOL0     H 5795   5.674   9.075  -1.015  0.4826  1.0401 -2.2455
  784MOL0     H 5796   5.750   9.364  -0.969 -0.4369 -0.4704  1.6435
  784MOL0     H 5797   5.633   9.308  -1.080 -0.3222 -0.0751  0.6094
  784MOL0     H 5798   5.928   9.313  -1.096  0.0718  1.6698 -0.1834
  784MOL0     H 5799   5.809   9.382  -1.191  0.1721  1.0936  0.5783
  784MOL0     H 5800   5.828   8.984  -1.398  1.0445 -1.6415 -0.2014
  784MOL0     H 5801   5.956   8.969  -1.606 -1.0527  0.1321 -0.4610
  784MOL0     H 5802   6.015   9.280  -1.939 -0.1837  1.6251  3.1882
  784MOL0     H 5803   6.056   9.335  -2.178  0.2743  1.6373 -1.3022
  784MOL0     H 5804   6.391   9.526  -2.281 -0.8476 -1.7060  3.1862
  784MOL0     H 5805   6.472   9.360  -2.329 -2.5797 -3.1680 -0.5609
  784MOL0     H 5806   6.334   9.374  -2.532 -1.4139  0.7805  2.2100
  784MOL0     H 5807   6.312   9.544  -2.495  0.2684  0.1931  2.2411
  784MOL0     H 5808   6.556   9.583  -2.508 -0.9317  0.0313  0.3202
  784MOL0     H 5809   6.583   9.407  -2.517  2.1893  1.1474  0.5112
  784MOL0     H 5810   6.441   9.589  -2.737  2.2627  3.8351 -0.8686
  784MOL0     H 5811   6.471   9.412  -2.756  0.4490 -0.1370  1.2482
  784MOL0     H 5812   6.673   9.478  -2.858  1.8235 -0.2492  1.0673
  784MOL0     H 5813   6.729   9.532  -2.706  1.4981 -1.8984 -1.2333
  784MOL0     H 5814   6.581   9.689  -2.933 -1.5061  0.2996  0.6771
  784MOL0     H 5815   6.597   9.760  -2.775 -1.0943  0.5925 -0.8289
  784MOL0     H 5816   6.833   9.658  -2.923 -1.3325  1.3737 -2.7228
  784MOL0     H 5817   6.832   9.780  -2.785 -1.1040  0.2758  0.3658
  784MOL0     H 5818   6.750   9.806  -3.076 -0.2279 -0.8442  0.9803
  784MOL0     H 5819   6.730   9.937  -2.951 -0.0926 -0.4584  0.5007
  784MOL0     H 5820   6.472   9.388  -2.075 -0.2854  1.3074  0.3668
  784MOL0     H 5821   6.406   9.327  -1.842 -3.0103 -2.0594  3.0489
  784MOL0     H 5822   6.154   9.345  -1.503  1.1278 -1.1714  0.9532
  784MOL0     H 5823   6.021   9.346  -1.296 -0.1211  1.7009 -3.2132
  784MOL0     H 5824   5.885   9.603   0.021  1.4596  3.3741 -2.0095
  784MOL0     H 5825   6.000   9.812   0.108 -2.5699  0.0048 -3.4671
  784MOL0     H 5826   6.102   9.991   0.483  1.8587  1.1489  0.6251
  784MOL0     H 5827   6.253  10.129   0.603  2.0176  1.7130 -1.5194
  784MOL0     H 5828   6.363  10.259   0.715 -1.5244  0.2632 -2.1273
  784MOL0     H 5829   6.240  10.318   0.836  1.0524  1.6387  0.4950
  784MOL0     H 5830   6.342  10.519   0.863  2.8358  0.3764  3.7773
  784MOL0     H 5831   6.425  10.513   0.714  0.5595  0.8163  0.9426
  784MOL0     H 5832   6.570  10.318   0.785 -1.0989  1.3624 -1.5849
  784MOL0     H 5833   6.508  10.342   0.952 -2.3580 -1.1636 -0.7214
  784MOL0     H 5834   6.673  10.550   0.791  2.5750 -1.1930 -0.0071
  784MOL0     H 5835   6.587  10.587   0.928 -3.2365 -1.3540 -1.2915
  784MOL0     H 5836   6.904  10.344   1.080 -0.0559 -3.1138 -0.8352
  784MOL0     H 5837   6.009  10.461   0.540  3.2037  0.6222  2.1385
  784MOL0     H 5838   5.745  10.362   0.429  3.3846 -1.6995  4.4624
  784MOL0     H 5839   5.863  10.474   0.350 -1.6597  0.2964  3.3349
  784MOL0     H 5840   5.815  10.322   0.267  0.2803  0.0405 -0.0108
  785MOL0     O 5841   6.145   2.606   2.345 -0.4148 -0.0312  0.0785
  785MOL0     C 5842   6.077   2.636   2.443 -0.4378  0.7275 -0.5292
  785MOL0     O 5843   6.125   2.649   2.569 -0.1532 -0.4865 -0.1880
  785MOL0     C 5844   6.266   2.621   2.588  0.0266  0.1442 -0.3653
  785MOL0     C 5845   6.319   2.497   2.567  0.7734 -0.6533  1.1720
  785MOL0     C 5846   6.451   2.471   2.571  0.2051 -0.5254 -0.2270
  785MOL0     C 5847   6.536   2.569   2.605 -0.4734 -0.5606  0.0773
  785MOL0     O 5848   6.674   2.565   2.612 -0.0711  0.2720 -0.0912
  785MOL0     C 5849   6.725   2.430   2.629 -0.7287 -0.8339 -0.5928
  785MOL0     C 5850   6.857   2.459   2.688 -1.2446  0.2223  0.2793
  785MOL0     C 5851   6.929   2.328   2.720 -0.1427  0.1694 -0.2087
  785MOL0     C 5852   6.990   2.271   2.588 -0.5151  0.8187  0.2713
  785MOL0     C 5853   7.061   2.132   2.626  0.7448  0.8194 -0.2315
  785MOL0     C 5854   7.206   2.136   2.688 -0.0913  0.0290 -0.0938
  785MOL0     C 5855   7.257   2.001   2.733  0.0186 -0.0989  0.2260
  785MOL0     C 5856   7.328   1.915   2.632 -0.0651  0.3897 -0.3588
  785MOL0     N 5857   7.473   1.949   2.636  0.0797  0.8216 -0.1468
  785MOL0     C 5858   7.558   1.902   2.731  0.0736 -0.0756 -0.6346
  785MOL0     C 5859   7.681   1.932   2.686  0.3730 -0.0714 -0.2999
  785MOL0     C 5860   7.813   1.903   2.751  0.6552  0.0883  0.4046
  785MOL0     C 5861   7.934   1.952   2.672  0.3508  0.2031 -0.2603
  785MOL0     C 5862   8.061   1.957   2.769  0.8363  0.0118  0.7673
  785MOL0     C 5863   8.193   1.968   2.696 -0.1346 -0.1051  0.1396
  785MOL0     O 5864   8.243   2.097   2.668  0.8796 -0.1818  0.7050
  785MOL0     C 5865   8.354   2.104   2.589  0.3001 -1.0837  0.1067
  785MOL0     C 5866   8.439   2.200   2.638  0.5447  0.7896  0.3833
  785MOL0     C 5867   8.567   2.204   2.580  0.0858 -0.0617  0.0612
  785MOL0     C 5868   8.608   2.116   2.473  0.7408  0.4828  0.2632
  785MOL0     C 5869   8.732   2.121   2.407 -0.5228  0.5689  0.2392
  785MOL0     O 5870   8.823   2.197   2.468  0.5876 -0.0920  0.1286
  785MOL0     C 5871   8.944   2.217   2.408  0.4983  0.2692  0.3586
  785MOL0     C 5872   8.978   2.351   2.373  0.1375  0.0851  0.8882
  785MOL0     C 5873   9.111   2.376   2.339 -0.2936 -0.3580  0.5909
  785MOL0     C 5874   9.199   2.267   2.305 -0.5010  0.2299  0.0409
  785MOL0     O 5875   9.315   2.302   2.245 -1.3950  0.6451  0.7421
  785MOL0     C 5876   9.397   2.207   2.175  0.3796  1.3791 -0.2771
  785MOL0     C 5877   9.518   2.157   2.250  0.6793 -0.2345 -0.1208
  785MOL0     C 5878   9.640   2.260   2.246  0.2962 -0.2512  0.0919
  785MOL0     C 5879   9.721   2.252   2.117 -0.4346 -0.8421  0.0174
  785MOL0     C 5880   9.828   2.360   2.110  0.5631  1.1180 -0.3801
  785MOL0     C 5881   9.935   2.347   2.214 -0.2729 -0.1654 -1.1112
  785MOL0     C 5882  10.036   2.465   2.212  0.5077  0.9664  0.8866
  785MOL0     C 5883  10.148   2.439   2.308  0.0503 -0.3778  0.2448
  785MOL0    Cl 5884  10.088   2.490   2.455  0.2067 -0.3032  0.1566
  785MOL0     C 5885   9.160   2.138   2.327 -0.6016 -0.8408  0.1910
  785MOL0     C 5886   9.040   2.114   2.390 -0.1659 -0.0875 -0.3810
  785MOL0     O 5887   8.740   2.063   2.299 -0.0235  0.1427  0.4859
  785MOL0     C 5888   8.514   2.029   2.422 -0.2509  0.4093  0.4607
  785MOL0     C 5889   8.387   2.018   2.475 -0.0590 -0.8494  0.2903
  785MOL0     N 5890   7.664   1.990   2.564  0.6454 -0.0222 -0.8142
  785MOL0     N 5891   7.538   1.986   2.525 -0.3133 -0.6367 -0.1974
  785MOL0     C 5892   6.492   2.699   2.633 -0.6060 -0.2028  0.8012
  785MOL0     C 5893   6.354   2.721   2.621 -0.0455  0.5250 -0.3445
  785MOL0     C 5894   5.933   2.623   2.426 -1.1154 -0.8737 -0.3992
  785MOL0     C 5895   5.866   2.568   2.538  1.2160 -0.7311  0.4737
  785MOL0     C 5896   5.729   2.536   2.528 -0.4452  0.4077  1.2298
  785MOL0     C 5897   5.664   2.568   2.414  0.2415 -0.1944  0.6027
  785MOL0     O 5898   5.541   2.524   2.406  0.8018  0.4770 -0.6771
  785MOL0     C 5899   5.460   2.548   2.282 -0.8553  0.7536 -0.7346
  785MOL0     C 5900   5.398   2.693   2.274  0.3120  0.4160 -0.6118
  785MOL0     C 5901   5.267   2.691   2.353  0.3128  0.1230 -0.4875
  785MOL0     C 5902   5.197   2.829   2.355  0.1385  0.4871 -0.4537
  785MOL0     C 5903   5.080   2.826   2.447 -0.0234 -0.1660 -0.6315
  785MOL0     C 5904   4.984   2.826   2.521  0.3833  0.6540 -0.6350
  785MOL0     C 5905   5.727   2.637   2.303  0.1277  0.5933 -0.0399
  785MOL0     C 5906   5.867   2.663   2.312  0.1661 -0.8408  0.4332
  785MOL0     C 5907   5.941   2.735   2.193 -0.4492 -1.1764  0.2483
  785MOL0     H 5908   6.242   2.424   2.544 -0.3416  0.6869  0.4581
  785MOL0     H 5909   6.491   2.372   2.549  2.4399  0.5575 -1.3169
  785MOL0     H 5910   6.663   2.378   2.703  2.0575 -0.9255  1.8997
  785MOL0     H 5911   6.722   2.371   2.537  1.0908 -0.8511 -0.6763
  785MOL0     H 5912   6.845   2.522   2.776 -1.8128  1.5863 -0.7316
  785MOL0     H 5913   6.911   2.529   2.623 -0.9429  1.2728  1.6206
  785MOL0     H 5914   6.862   2.255   2.765  0.8850 -3.1590 -3.5367
  785MOL0     H 5915   7.013   2.343   2.788  0.2983  1.9143 -1.0609
  785MOL0     H 5916   6.920   2.269   2.504 -1.9955  0.4188  1.4693
  785MOL0     H 5917   7.061   2.343   2.547 -0.4522 -0.2708 -1.6255
  785MOL0     H 5918   7.004   2.064   2.689  1.1731 -1.2751 -1.9725
  785MOL0     H 5919   7.080   2.080   2.531 -0.7536  1.0461 -0.6725
  785MOL0     H 5920   7.274   2.191   2.622 -0.1759  0.4367  0.1480
  785MOL0     H 5921   7.203   2.206   2.773 -0.7524 -1.4719  1.1710
  785MOL0     H 5922   7.170   1.943   2.767  0.2130  0.6806  2.1320
  785MOL0     H 5923   7.321   2.020   2.819  1.8220 -1.1343 -0.8268
  785MOL0     H 5924   7.314   1.818   2.680  1.7522  0.6540  0.8322
  785MOL0     H 5925   7.289   1.929   2.530 -0.1420 -1.7937 -0.6631
  785MOL0     H 5926   7.529   1.854   2.824 -1.8320  2.0284 -0.0627
  785MOL0     H 5927   7.809   1.946   2.852 -3.6972  0.1102  0.4133
  785MOL0     H 5928   7.820   1.795   2.761 -2.2022 -0.5315 -2.4558
  785MOL0     H 5929   7.952   1.889   2.584 -1.6921  2.7323 -2.7090
  785MOL0     H 5930   7.914   2.053   2.633  0.6940  1.2344  2.0766
  785MOL0     H 5931   8.066   1.861   2.820 -1.9043  0.7323  2.6057
  785MOL0     H 5932   8.056   2.031   2.850 -1.6094  0.0719  0.6247
  785MOL0     H 5933   8.183   1.920   2.598 -2.8205  2.2919 -0.9062
  785MOL0     H 5934   8.274   1.922   2.754 -1.3907 -2.6131  0.0250
  785MOL0     H 5935   8.417   2.253   2.730  1.0394 -1.2288  1.7184
  785MOL0     H 5936   8.637   2.275   2.623 -0.6615  0.2286  0.8320
  785MOL0     H 5937   8.918   2.440   2.386  0.3669  0.0952  1.9920
  785MOL0     H 5938   9.151   2.475   2.321 -1.3449  0.1730  1.0465
  785MOL0     H 5939   9.335   2.124   2.141 -0.7890  1.5729  1.2292
  785MOL0     H 5940   9.442   2.257   2.089 -0.0809  1.0368 -0.7248
  785MOL0     H 5941   9.488   2.134   2.353  0.4147  1.8931  0.3210
  785MOL0     H 5942   9.545   2.059   2.209 -2.1386  0.0121 -2.9372
  785MOL0     H 5943   9.612   2.365   2.252  2.4945  0.4088 -0.5586
  785MOL0     H 5944   9.702   2.252   2.335  2.0263 -0.2593 -1.0796
  785MOL0     H 5945   9.661   2.254   2.025  0.7979  0.9709 -0.7899
  785MOL0     H 5946   9.772   2.155   2.118  0.7138 -0.4050  4.4588
  785MOL0     H 5947   9.767   2.451   2.113  0.9091  1.3422  1.0777
  785MOL0     H 5948   9.881   2.363   2.015  2.4987 -1.3457  0.4911
  785MOL0     H 5949   9.895   2.342   2.316 -0.6279  1.4544 -1.1536
  785MOL0     H 5950   9.996   2.259   2.191  0.4014  0.1476 -0.5665
  785MOL0     H 5951   9.987   2.558   2.241 -2.1553  0.1483 -0.6120
  785MOL0     H 5952  10.063   2.474   2.106 -0.8067  0.3342  0.4713
  785MOL0     H 5953  10.184   2.335   2.314  2.2459  0.2867 -0.4924
  785MOL0     H 5954  10.234   2.505   2.303 -0.4146  0.5787  3.2042
  785MOL0     H 5955   9.234   2.060   2.313 -1.2773 -1.1469 -2.3477
  785MOL0     H 5956   9.020   2.013   2.425  1.8960 -1.3285 -2.5610
  785MOL0     H 5957   8.549   1.955   2.351  2.2132  1.8392  0.0550
  785MOL0     H 5958   8.315   1.943   2.445 -2.9085  1.6262  0.5180
  785MOL0     H 5959   6.560   2.779   2.661  1.6443 -1.7328  0.0242
  785MOL0     H 5960   6.309   2.817   2.646 -0.6340  0.9595 -2.8015
  785MOL0     H 5961   5.929   2.535   2.620  3.1065 -0.6463 -0.8666
  785MOL0     H 5962   5.689   2.482   2.614 -1.0273 -0.3118  0.5213
  785MOL0     H 5963   5.378   2.475   2.272 -0.6993  0.5475 -0.5260
  785MOL0     H 5964   5.521   2.526   2.194 -0.6265 -0.5173 -0.2953
  785MOL0     H 5965   5.377   2.724   2.171 -2.2607  1.1004  0.0530
  785MOL0     H 5966   5.467   2.767   2.316  0.4611 -0.5053  0.8201
  785MOL0     H 5967   5.284   2.661   2.457 -0.1106  1.7573  0.0930
  785MOL0     H 5968   5.200   2.611   2.321  0.8653 -0.6565  0.2607
  785MOL0     H 5969   5.272   2.907   2.371  0.3377  0.2581 -0.2649
  785MOL0     H 5970   5.151   2.853   2.259 -1.1387  3.9604  0.8551
  785MOL0     H 5971   4.892   2.822   2.576  1.0719  0.1704  0.5115
  785MOL0     H 5972   5.690   2.668   2.206  3.6426 -0.0470 -1.7355
  785MOL0     H 5973   5.876   2.780   2.117  1.4143 -3.4357 -2.8995
  785MOL0     H 5974   5.992   2.820   2.239 -1.9023 -1.3040  2.2422
  785MOL0     H 5975   6.010   2.676   2.133 -0.2842  1.5897 -2.5943
  786MOL0     O 5976  10.026   6.873   6.375  0.2136 -0.0396 -0.1863
  786MOL0     C 5977  10.009   6.755   6.372  0.3685  0.0136  0.2942
  786MOL0     O 5978  10.093   6.660   6.314  0.5642 -0.1706  0.5456
  786MOL0     C 5979  10.198   6.706   6.235  0.7393 -0.1113 -0.0267
  786MOL0     C 5980  10.328   6.673   6.272 -0.0375 -0.3908 -0.2842
  786MOL0     C 5981  10.433   6.727   6.202 -0.0015 -1.4555  0.0818
  786MOL0     C 5982  10.421   6.802   6.083  0.3269  0.1666  0.2775
  786MOL0     O 5983  10.527   6.849   6.007  0.0018 -0.5273  0.3675
  786MOL0     C 5984  10.651   6.781   6.023 -0.3317 -1.1401  0.3229
  786MOL0     C 5985  10.641   6.643   5.964 -0.2351 -0.3762 -0.6898
  786MOL0     C 5986  10.773   6.581   5.919  0.0588  0.3088  0.4588
  786MOL0     C 5987  10.845   6.616   5.779  0.3959 -0.0134 -0.7483
  786MOL0     C 5988  10.998   6.622   5.796 -0.5353 -0.1305 -0.2531
  786MOL0     C 5989  11.063   6.674   5.666  0.5112  0.0561 -1.2180
  786MOL0     C 5990  11.191   6.740   5.713 -0.2508 -0.8175  1.4156
  786MOL0     C 5991  11.288   6.800   5.603 -0.3682 -0.2270 -0.3097
  786MOL0     N 5992  11.415   6.820   5.667 -0.3686  0.3420 -0.0600
  786MOL0     C 5993  11.534   6.812   5.598 -0.1269  0.4094 -0.4662
  786MOL0     C 5994  11.626   6.860   5.686  0.0870  0.0541 -0.3879
  786MOL0     C 5995  11.772   6.889   5.664 -0.1425  0.6302 -0.2216
  786MOL0     C 5996  11.863   6.768   5.657 -0.5798  0.0337 -0.3216
  786MOL0     C 5997  11.970   6.772   5.550  0.6732 -0.7793 -0.2330
  786MOL0     C 5998  12.087   6.858   5.592  1.2635 -1.1127 -0.0187
  786MOL0     O 5999  12.182   6.881   5.491  0.4866  0.4954  0.1741
  786MOL0     C 6000  12.275   6.787   5.467  0.5536 -1.4041 -0.3886
  786MOL0     C 6001  12.322   6.697   5.569 -0.1235  0.4619 -0.6380
  786MOL0     C 6002  12.417   6.594   5.541  0.3195 -0.2100 -0.0011
  786MOL0     C 6003  12.474   6.584   5.407 -0.0765  0.4349 -0.2387
  786MOL0     C 6004  12.564   6.474   5.380 -0.6760 -0.4698  0.2643
  786MOL0     O 6005  12.576   6.373   5.480  0.8967  0.4912 -0.2171
  786MOL0     C 6006  12.681   6.290   5.467  0.4564 -0.2975  0.0249
  786MOL0     C 6007  12.661   6.160   5.510 -0.3494 -0.0321 -0.2517
  786MOL0     C 6008  12.760   6.070   5.498 -0.6701 -0.2875  0.2915
  786MOL0     C 6009  12.883   6.094   5.425  0.2267 -0.4196 -0.3819
  786MOL0     O 6010  12.978   5.997   5.406 -0.1413 -0.1468  0.4923
  786MOL0     C 6011  12.942   5.865   5.357 -0.7016  0.3315  0.7220
  786MOL0     C 6012  13.049   5.807   5.265  0.7529 -0.1451 -0.3115
  786MOL0     C 6013  13.181   5.788   5.347  0.3227  0.2901 -0.5193
  786MOL0     C 6014  13.292   5.728   5.258  0.5951  0.7207  0.5428
  786MOL0     C 6015  13.427   5.729   5.334 -0.0003 -0.3594  0.6650
  786MOL0     C 6016  13.453   5.601   5.425 -0.2715 -0.1915  0.1403
  786MOL0     C 6017  13.596   5.606   5.475 -1.0168  0.0693 -0.3292
  786MOL0     C 6018  13.633   5.737   5.560  1.1388 -0.1832  0.5111
  786MOL0    Cl 6019  13.746   5.700   5.696  0.4646 -0.1585 -0.2108
  786MOL0     C 6020  12.911   6.225   5.387  0.2729  0.0869  0.1845
  786MOL0     C 6021  12.810   6.322   5.407 -0.1458 -0.0146 -0.0445
  786MOL0     O 6022  12.608   6.473   5.264  0.3651 -1.0594  0.1734
  786MOL0     C 6023  12.438   6.687   5.313  0.1900 -0.7118  0.6076
  786MOL0     C 6024  12.334   6.774   5.344 -0.6379 -0.9317  0.2755
  786MOL0     N 6025  11.557   6.905   5.798 -0.8611  0.2554  0.1293
  786MOL0     N 6026  11.437   6.876   5.792  0.5317 -0.1174  0.0291
  786MOL0     C 6027  10.289   6.822   6.040 -0.0531 -0.1173 -0.0776
  786MOL0     C 6028  10.181   6.779   6.119  0.6401  0.4440  1.3159
  786MOL0     C 6029   9.896   6.693   6.431 -0.1503  0.0810  0.2688
  786MOL0     C 6030   9.765   6.716   6.394  0.4127 -0.1302  0.2087
  786MOL0     C 6031   9.654   6.649   6.440 -0.9070 -0.2593  0.2310
  786MOL0     C 6032   9.672   6.542   6.532 -0.9425 -0.4838 -0.0924
  786MOL0     O 6033   9.575   6.466   6.587  0.0184 -0.0342  0.3837
  786MOL0     C 6034   9.451   6.460   6.524 -0.8736  0.0920  0.1944
  786MOL0     C 6035   9.369   6.361   6.607 -0.3178  0.2772 -0.3709
  786MOL0     C 6036   9.229   6.334   6.556  0.1121 -0.4808  0.5715
  786MOL0     C 6037   9.184   6.214   6.640  0.5568  1.1257 -0.1893
  786MOL0     C 6038   9.035   6.194   6.642 -0.7534 -0.4240 -1.1718
  786MOL0     C 6039   8.912   6.196   6.639 -0.0478 -0.0418 -0.5241
  786MOL0     C 6040   9.803   6.518   6.579 -0.3115 -0.0371 -0.4667
  786MOL0     C 6041   9.914   6.593   6.526  0.5379  0.5058 -0.6490
  786MOL0     C 6042  10.056   6.577   6.585 -0.7135  0.6743 -0.4309
  786MOL0     H 6043  10.349   6.604   6.353  0.5505 -0.2751 -0.3349
  786MOL0     H 6044  10.534   6.710   6.238 -0.6125 -3.9265  0.8372
  786MOL0     H 6045  10.722   6.844   5.968  0.0738 -2.8330 -1.2052
  786MOL0     H 6046  10.681   6.782   6.128 -0.3993  0.6979  0.3551
  786MOL0     H 6047  10.579   6.641   5.873 -1.4736 -1.5796  0.1544
  786MOL0     H 6048  10.585   6.582   6.034 -0.9089  0.4472 -0.4901
  786MOL0     H 6049  10.748   6.474   5.922  4.4786 -0.9060  1.3526
  786MOL0     H 6050  10.842   6.605   6.001  0.2224  0.2054  0.3541
  786MOL0     H 6051  10.823   6.544   5.699  2.5628 -2.1098  0.4129
  786MOL0     H 6052  10.805   6.712   5.747  0.0878  0.1405  0.0565
  786MOL0     H 6053  11.009   6.698   5.873 -0.1528  1.0156 -1.3898
  786MOL0     H 6054  11.044   6.524   5.812  1.8664  0.8288 -0.8242
  786MOL0     H 6055  11.086   6.589   5.601  0.8255  0.2092 -1.3104
  786MOL0     H 6056  10.994   6.744   5.618 -0.4815  0.1311  0.2572
  786MOL0     H 6057  11.251   6.672   5.774  1.2565 -0.9082 -0.0781
  786MOL0     H 6058  11.161   6.825   5.775 -0.5360  0.8207 -0.8493
  786MOL0     H 6059  11.294   6.732   5.517 -0.3878  1.2928 -1.5726
  786MOL0     H 6060  11.248   6.894   5.563 -0.3801  0.2183  0.7301
  786MOL0     H 6061  11.550   6.788   5.493  0.0593 -2.6868  0.1705
  786MOL0     H 6062  11.783   6.962   5.583 -3.3837  2.1993  0.6125
  786MOL0     H 6063  11.809   6.945   5.750 -0.0273 -0.9425  0.7838
  786MOL0     H 6064  11.901   6.762   5.760 -0.2876  1.1886 -0.3461
  786MOL0     H 6065  11.805   6.677   5.640 -0.3646 -0.2204  0.2771
  786MOL0     H 6066  11.939   6.813   5.454  0.1085  2.8708  1.3181
  786MOL0     H 6067  12.002   6.668   5.542  1.1668 -0.5472 -1.4408
  786MOL0     H 6068  12.120   6.816   5.687 -0.2802  0.2320  1.1593
  786MOL0     H 6069  12.042   6.955   5.615 -0.2592 -1.5046 -1.1669
  786MOL0     H 6070  12.299   6.706   5.675  1.6528 -3.5136  0.2682
  786MOL0     H 6071  12.431   6.525   5.624  0.4825  1.0553  1.0590
  786MOL0     H 6072  12.574   6.118   5.559  0.4380 -3.3502 -1.4603
  786MOL0     H 6073  12.734   5.978   5.549 -1.1595  0.7945  2.1239
  786MOL0     H 6074  12.928   5.812   5.452  0.3581  0.2948  0.8697
  786MOL0     H 6075  12.855   5.867   5.291  1.7912 -1.4659 -2.9311
  786MOL0     H 6076  13.009   5.713   5.224  0.4002 -0.8203  1.4918
  786MOL0     H 6077  13.060   5.878   5.183  1.6348  0.4515  0.3089
  786MOL0     H 6078  13.225   5.882   5.381  0.4624  0.1331 -0.2578
  786MOL0     H 6079  13.163   5.722   5.433  1.5588 -1.4378 -1.5157
  786MOL0     H 6080  13.291   5.787   5.166 -1.3114 -1.4580 -0.9540
  786MOL0     H 6081  13.268   5.624   5.233  2.1835  0.9413 -2.3369
  786MOL0     H 6082  13.439   5.820   5.395 -0.8166  0.9890 -1.0919
  786MOL0     H 6083  13.500   5.728   5.253 -2.6243  2.3218 -2.0478
  786MOL0     H 6084  13.389   5.603   5.515  3.3819 -3.0519  3.1581
  786MOL0     H 6085  13.431   5.506   5.375  0.5176 -0.2357 -0.1224
  786MOL0     H 6086  13.653   5.594   5.382  0.1332  0.3198  0.3355
  786MOL0     H 6087  13.617   5.516   5.532 -1.3024 -0.3099 -0.8150
  786MOL0     H 6088  13.674   5.816   5.497 -0.5133  1.8488  1.8614
  786MOL0     H 6089  13.538   5.774   5.598 -0.2253 -2.0412 -0.8938
  786MOL0     H 6090  12.989   6.254   5.317  0.7199 -0.3250  0.5023
  786MOL0     H 6091  12.842   6.423   5.386  2.8078 -1.0544 -1.0092
  786MOL0     H 6092  12.476   6.683   5.212 -0.1593  1.2528  0.3630
  786MOL0     H 6093  12.315   6.846   5.265  0.2525  1.1056  1.7943
  786MOL0     H 6094  10.275   6.885   5.952 -0.8994 -0.2680 -0.0503
  786MOL0     H 6095  10.081   6.800   6.083  1.1602 -0.7854 -1.0263
  786MOL0     H 6096   9.752   6.802   6.330 -0.8759  0.9942  1.8976
  786MOL0     H 6097   9.561   6.680   6.392  0.7009  4.3584 -0.4390
  786MOL0     H 6098   9.451   6.423   6.421 -0.4041  2.6175 -0.8113
  786MOL0     H 6099   9.400   6.556   6.537  0.2243  0.4068  2.7203
  786MOL0     H 6100   9.361   6.403   6.708  1.9821 -0.5896  0.2426
  786MOL0     H 6101   9.428   6.270   6.618  1.9429  1.8994  2.1315
  786MOL0     H 6102   9.227   6.309   6.450 -0.7819  1.1315  0.1819
  786MOL0     H 6103   9.169   6.422   6.580 -2.2149  0.1877 -5.7741
  786MOL0     H 6104   9.232   6.124   6.600 -2.7473 -0.3196 -1.1701
  786MOL0     H 6105   9.216   6.226   6.744  1.6001  5.0401 -0.8253
  786MOL0     H 6106   8.806   6.210   6.648 -0.2515 -0.6969 -1.6988
  786MOL0     H 6107   9.804   6.443   6.658  2.2840  0.5782  0.1677
  786MOL0     H 6108  10.130   6.538   6.514 -1.3518  0.8689 -1.2208
  786MOL0     H 6109  10.086   6.672   6.631 -0.1954 -0.3963  1.5389
  786MOL0     H 6110  10.063   6.510   6.671 -0.4139  1.4156  0.1344
  787MOL0     O 6111   9.019   1.946   3.017 -0.0773  0.4556  0.3669
  787MOL0     C 6112   8.932   2.025   2.980  0.1170  0.2188 -0.9052
  787MOL0     O 6113   8.952   2.142   2.916 -0.1760 -0.1509  0.2815
  787MOL0     C 6114   9.083   2.184   2.887  0.2992 -0.1824 -0.0800
  787MOL0     C 6115   9.128   2.192   2.760 -0.0550 -0.3666  0.1214
  787MOL0     C 6116   9.255   2.237   2.728 -0.6021 -0.7964 -0.7759
  787MOL0     C 6117   9.342   2.266   2.836 -0.5497 -1.0426  0.0771
  787MOL0     O 6118   9.482   2.301   2.829  0.7435  0.0171  0.1449
  787MOL0     C 6119   9.556   2.188   2.782 -0.0107 -0.6313 -0.1727
  787MOL0     C 6120   9.685   2.253   2.738 -0.6757 -0.2463  0.3797
  787MOL0     C 6121   9.787   2.137   2.699 -0.1216 -0.3852  0.2259
  787MOL0     C 6122   9.914   2.204   2.635 -0.2791  0.2167  0.3571
  787MOL0     C 6123  10.041   2.118   2.615 -0.1275  0.2901  1.2056
  787MOL0     C 6124  10.019   2.006   2.518  0.1853  0.7749  0.8050
  787MOL0     C 6125  10.013   2.047   2.374 -0.2763  0.2218  0.9324
  787MOL0     C 6126  10.068   1.941   2.288 -0.5051 -0.1643  0.4959
  787MOL0     N 6127  10.002   1.813   2.314 -0.3121 -0.1588 -0.5318
  787MOL0     C 6128   9.865   1.785   2.320 -0.9638 -0.4187  0.2737
  787MOL0     C 6129   9.847   1.654   2.295 -0.4090  0.3814 -0.8079
  787MOL0     C 6130   9.721   1.583   2.268 -0.5008 -0.5694  0.1691
  787MOL0     C 6131   9.701   1.462   2.372 -0.7541  0.3964  0.7750
  787MOL0     C 6132   9.793   1.337   2.368  0.2433  0.4669  0.5389
  787MOL0     C 6133   9.790   1.267   2.232  0.3105  0.6093 -0.8030
  787MOL0     O 6134   9.866   1.332   2.126 -0.2496  0.0271 -0.0990
  787MOL0     C 6135  10.001   1.313   2.123  0.2516 -1.2748 -0.4298
  787MOL0     C 6136  10.081   1.227   2.201 -0.3324  1.2545  0.1100
  787MOL0     C 6137  10.209   1.209   2.179 -0.6291 -0.3674 -0.1820
  787MOL0     C 6138  10.274   1.284   2.073  0.2481 -0.8345 -0.3366
  787MOL0     C 6139  10.416   1.265   2.042 -0.1316  0.2108 -1.1812
  787MOL0     O 6140  10.466   1.359   1.957 -0.2650 -0.5734 -1.0866
  787MOL0     C 6141  10.595   1.343   1.916  0.1990  0.2171 -0.0262
  787MOL0     C 6142  10.641   1.236   1.847 -0.0580 -0.6658  0.1542
  787MOL0     C 6143  10.777   1.200   1.823  0.7010 -0.5338 -0.2098
  787MOL0     C 6144  10.877   1.277   1.899  0.1415 -0.3129  0.9427
  787MOL0     O 6145  11.007   1.246   1.910  0.3320 -0.0948  0.5523
  787MOL0     C 6146  11.057   1.126   1.848  0.3009  0.2864  0.0515
  787MOL0     C 6147  11.208   1.130   1.861 -0.5650  0.2022 -0.1096
  787MOL0     C 6148  11.229   1.110   2.009 -0.2555 -0.0762 -0.2648
  787MOL0     C 6149  11.380   1.098   2.037  0.3039  0.5031  0.6601
  787MOL0     C 6150  11.454   0.991   1.956  0.0908  0.4364 -0.4632
  787MOL0     C 6151  11.589   0.965   2.017  0.2789  0.3994 -0.6408
  787MOL0     C 6152  11.668   1.097   2.041 -0.1486 -0.1166  0.4135
  787MOL0     C 6153  11.821   1.075   2.077 -0.2255  0.0754  0.4682
  787MOL0    Cl 6154  11.878   1.235   2.127 -0.4962  0.0954  0.7272
  787MOL0     C 6155  10.834   1.397   1.960  0.1341 -0.4280 -0.3025
  787MOL0     C 6156  10.693   1.428   1.967 -0.6712 -0.1614 -0.0652
  787MOL0     O 6157  10.478   1.167   2.093  0.2831  0.7460 -0.4971
  787MOL0     C 6158  10.195   1.372   1.997 -0.4168  0.0994  0.2494
  787MOL0     C 6159  10.062   1.397   2.030 -0.6862 -0.2885 -0.1994
  787MOL0     N 6160   9.978   1.603   2.288  0.5040 -0.5232 -0.3051
  787MOL0     N 6161  10.069   1.694   2.304 -0.0753 -0.0851  1.1033
  787MOL0     C 6162   9.297   2.268   2.967  0.2972  1.4929 -0.3102
  787MOL0     C 6163   9.168   2.224   2.990  0.0494  0.0381 -0.6966
  787MOL0     C 6164   8.795   1.989   3.014  0.0558  0.0087 -0.0351
  787MOL0     C 6165   8.685   2.028   2.928 -0.3357 -0.7655  0.4782
  787MOL0     C 6166   8.558   1.994   2.942  0.4099 -0.1238  0.2512
  787MOL0     C 6167   8.519   1.928   3.057 -0.7471 -0.4365  0.0659
  787MOL0     O 6168   8.383   1.923   3.084 -0.1853  0.3823  0.1723
  787MOL0     C 6169   8.344   1.861   3.207  0.3172 -0.7655  0.0700
  787MOL0     C 6170   8.193   1.866   3.239 -0.5753 -0.2719 -0.1798
  787MOL0     C 6171   8.117   1.779   3.134  0.1277 -0.3572  0.0903
  787MOL0     C 6172   7.974   1.813   3.137 -0.0769 -0.3503  0.3574
  787MOL0     C 6173   7.888   1.720   3.072 -0.5151  0.3759  0.4184
  787MOL0     C 6174   7.841   1.621   3.020 -0.2865 -0.1368 -0.3323
  787MOL0     C 6175   8.617   1.884   3.151 -0.4071 -0.4709 -0.4686
  787MOL0     C 6176   8.754   1.910   3.121  0.3736 -0.0196 -0.1503
  787MOL0     C 6177   8.844   1.831   3.221 -0.3121  0.1617 -0.8412
  787MOL0     H 6178   9.057   2.163   2.683 -0.8128  2.5935 -0.4486
  787MOL0     H 6179   9.286   2.240   2.624 -0.6094 -3.3221 -0.9205
  787MOL0     H 6180   9.570   2.127   2.871 -2.0508  0.8120  1.2414
  787MOL0     H 6181   9.512   2.139   2.695  0.3098  0.3306 -0.8983
  787MOL0     H 6182   9.725   2.301   2.827 -0.4929  1.4828 -0.6029
  787MOL0     H 6183   9.664   2.335   2.669  1.3209 -0.8778 -1.0785
  787MOL0     H 6184   9.748   2.059   2.634 -1.5521  1.4134 -1.1870
  787MOL0     H 6185   9.805   2.093   2.798 -2.6871  0.3766  1.1110
  787MOL0     H 6186   9.889   2.240   2.535  1.0263  1.0489  0.3061
  787MOL0     H 6187   9.940   2.288   2.699 -0.4338  0.1629  0.4915
  787MOL0     H 6188  10.125   2.184   2.594 -0.8007  0.9532  0.5124
  787MOL0     H 6189  10.064   2.056   2.702 -0.1673 -1.0607  0.2857
  787MOL0     H 6190  10.098   1.932   2.530 -2.3170 -1.8786  1.9835
  787MOL0     H 6191   9.937   1.940   2.544  1.4948 -1.2090  0.1478
  787MOL0     H 6192  10.075   2.137   2.372  0.3454 -0.2026 -0.5894
  787MOL0     H 6193   9.911   2.067   2.342  0.2467  0.7085 -0.5085
  787MOL0     H 6194  10.055   1.980   2.187 -3.2237  1.1675  1.2482
  787MOL0     H 6195  10.177   1.936   2.293 -0.5880 -1.7413  1.1198
  787MOL0     H 6196   9.781   1.853   2.331 -1.3767 -0.4782 -2.1383
  787MOL0     H 6197   9.644   1.659   2.283 -0.9956 -1.1809  0.7824
  787MOL0     H 6198   9.721   1.537   2.168  3.9115 -1.7666  0.5408
  787MOL0     H 6199   9.703   1.503   2.473 -0.0262 -0.0496  0.9491
  787MOL0     H 6200   9.598   1.429   2.351  0.7075 -4.0287 -0.4781
  787MOL0     H 6201   9.778   1.266   2.449  0.2425  1.1816  1.1772
  787MOL0     H 6202   9.899   1.361   2.381  0.9621 -1.4349 -1.2645
  787MOL0     H 6203   9.685   1.265   2.200  0.3239 -2.7051 -1.0216
  787MOL0     H 6204   9.830   1.166   2.249  1.3684  1.1850  0.2739
  787MOL0     H 6205  10.031   1.177   2.283  0.6272 -2.2531 -1.2268
  787MOL0     H 6206  10.272   1.154   2.248  3.3337  1.5394 -1.9354
  787MOL0     H 6207  10.567   1.171   1.801  0.6964 -0.5657 -1.2343
  787MOL0     H 6208  10.806   1.107   1.775 -1.2747 -1.8324  0.9661
  787MOL0     H 6209  11.019   1.034   1.893 -0.2200  0.4848  0.0264
  787MOL0     H 6210  11.039   1.128   1.740  2.6272 -0.6209 -0.4109
  787MOL0     H 6211  11.256   1.046   1.812 -0.3775 -0.9172  1.8831
  787MOL0     H 6212  11.245   1.229   1.832 -4.5092  1.9030  0.0451
  787MOL0     H 6213  11.195   1.204   2.053  0.8540 -0.9284  2.6634
  787MOL0     H 6214  11.175   1.029   2.060 -1.6639  1.6574  1.1404
  787MOL0     H 6215  11.389   1.079   2.144 -1.5506 -0.4877  0.6756
  787MOL0     H 6216  11.426   1.193   2.008  1.3112 -0.2036 -0.1334
  787MOL0     H 6217  11.450   1.022   1.851 -0.9933 -0.5815 -0.7503
  787MOL0     H 6218  11.391   0.901   1.961 -1.5419  1.5845  0.5037
  787MOL0     H 6219  11.562   0.916   2.111 -1.1454  1.6615 -0.3479
  787MOL0     H 6220  11.633   0.885   1.957 -0.6837 -1.7626  1.3927
  787MOL0     H 6221  11.632   1.137   2.137 -0.1230 -1.6805  1.1034
  787MOL0     H 6222  11.651   1.171   1.962 -0.7475 -0.2347  0.4264
  787MOL0     H 6223  11.823   0.998   2.155  0.6973 -2.5544 -1.9383
  787MOL0     H 6224  11.872   1.026   1.993  2.2041 -0.1316  1.9582
  787MOL0     H 6225  10.917   1.458   1.995  1.1603 -0.5942 -2.2925
  787MOL0     H 6226  10.659   1.515   2.023 -2.3724 -2.4252  2.7237
  787MOL0     H 6227  10.240   1.433   1.918 -1.8576  0.4290 -0.3396
  787MOL0     H 6228  10.006   1.469   1.971 -0.6733 -0.2646 -0.1822
  787MOL0     H 6229   9.357   2.293   3.053  0.5638 -1.0655  0.3179
  787MOL0     H 6230   9.128   2.231   3.090  0.7350 -1.9405 -0.2497
  787MOL0     H 6231   8.697   2.095   2.844 -1.4629 -2.7789 -1.3976
  787MOL0     H 6232   8.484   2.017   2.866  0.3858 -2.5630 -0.5347
  787MOL0     H 6233   8.403   1.917   3.280  0.7056  1.6847 -1.9939
  787MOL0     H 6234   8.389   1.761   3.217  0.4407 -0.6320  0.9095
  787MOL0     H 6235   8.158   1.968   3.219 -1.4466 -0.6898 -0.8456
  787MOL0     H 6236   8.173   1.828   3.340  3.6426 -0.6472  0.6865
  787MOL0     H 6237   8.129   1.674   3.163 -0.0244 -0.1100  1.0884
  787MOL0     H 6238   8.155   1.801   3.034 -1.5091 -0.4306 -0.5841
  787MOL0     H 6239   7.936   1.830   3.238 -1.7990 -1.2654 -0.0982
  787MOL0     H 6240   7.966   1.909   3.085 -1.6832 -0.6379  0.0347
  787MOL0     H 6241   7.792   1.526   3.010 -0.7741  0.2733 -2.2503
  787MOL0     H 6242   8.590   1.820   3.234 -2.4251 -0.8065 -1.3299
  787MOL0     H 6243   8.926   1.778   3.172 -0.1156 -0.3061 -0.0220
  787MOL0     H 6244   8.900   1.892   3.292  1.6525 -3.0674  0.6380
  787MOL0     H 6245   8.781   1.766   3.283 -2.2948  1.0552 -1.8395
  788MOL0     O 6246   4.406   5.463   5.052  0.0281 -0.2023  0.3937
  788MOL0     C 6247   4.395   5.374   4.966 -0.1859  0.7987  0.0534
  788MOL0     O 6248   4.507   5.328   4.889 -0.3166  0.1669  0.7382
  788MOL0     C 6249   4.635   5.353   4.933 -0.6605 -0.0064  0.3517
  788MOL0     C 6250   4.701   5.301   5.051  0.2152 -0.1972  0.2315
  788MOL0     C 6251   4.840   5.326   5.073 -0.7487 -0.2254  0.1664
  788MOL0     C 6252   4.913   5.405   4.986 -0.1872 -0.6588  0.0739
  788MOL0     O 6253   5.050   5.415   4.978  0.4089 -0.3541  0.2505
  788MOL0     C 6254   5.131   5.316   5.044 -1.0065  0.2731  0.2937
  788MOL0     C 6255   5.238   5.268   4.943 -0.1734  0.6884  0.0969
  788MOL0     C 6256   5.316   5.371   4.873 -0.2213  0.3503 -0.5632
  788MOL0     C 6257   5.382   5.470   4.979 -0.3806  0.0347  0.2416
  788MOL0     C 6258   5.518   5.527   4.931  0.1816 -0.3199  0.6158
  788MOL0     C 6259   5.644   5.456   4.978 -1.6154 -0.0077  0.0422
  788MOL0     C 6260   5.764   5.505   4.898 -0.6695 -0.3947  0.5806
  788MOL0     C 6261   5.788   5.653   4.873  0.2973 -0.1702 -0.5207
  788MOL0     N 6262   5.834   5.711   4.999 -1.1893  0.0695 -0.3142
  788MOL0     C 6263   5.966   5.692   5.038 -0.5089 -0.6586  0.5111
  788MOL0     C 6264   5.983   5.776   5.140  0.8611 -0.3103 -0.2156
  788MOL0     C 6265   6.097   5.800   5.233 -0.2049  0.4223 -0.2356
  788MOL0     C 6266   6.243   5.782   5.178  0.4519  0.2672  1.1558
  788MOL0     C 6267   6.274   5.896   5.078 -0.7130 -0.0224 -0.1559
  788MOL0     C 6268   6.381   5.860   4.977  0.2603 -1.0847  0.0359
  788MOL0     O 6269   6.517   5.842   5.028  0.1848  0.3295 -0.4917
  788MOL0     C 6270   6.604   5.947   5.027  1.1108 -0.1312  0.3339
  788MOL0     C 6271   6.736   5.908   5.054 -1.4600  0.4562  0.6017
  788MOL0     C 6272   6.840   5.997   5.039  0.0028 -0.1546 -0.0711
  788MOL0     C 6273   6.811   6.134   5.017 -1.2129 -0.0572 -0.1239
  788MOL0     C 6274   6.926   6.233   5.025 -0.1002 -0.1436  0.4580
  788MOL0     O 6275   7.053   6.171   5.015 -0.5400 -0.3853 -0.4724
  788MOL0     C 6276   7.161   6.247   4.973  0.4451  0.0286  0.3570
  788MOL0     C 6277   7.291   6.199   4.996 -0.2900  0.2822 -0.2481
  788MOL0     C 6278   7.409   6.279   4.960  0.9256 -0.8925 -0.6803
  788MOL0     C 6279   7.396   6.390   4.880 -0.6998 -0.2453  0.1483
  788MOL0     O 6280   7.515   6.449   4.856  0.5447  0.7268  0.4341
  788MOL0     C 6281   7.512   6.580   4.799  0.2849  0.3017 -0.6466
  788MOL0     C 6282   7.655   6.623   4.772  0.0130 -0.1714 -1.2621
  788MOL0     C 6283   7.672   6.738   4.666  0.1425 -0.1247 -0.2189
  788MOL0     C 6284   7.598   6.868   4.692  0.4738 -0.0049 -0.6666
  788MOL0     C 6285   7.636   6.936   4.816 -0.1762 -0.6913 -0.2829
  788MOL0     C 6286   7.596   7.084   4.826  0.7032 -1.5172  0.2353
  788MOL0     C 6287   7.439   7.102   4.822 -0.4480 -0.2117 -0.2878
  788MOL0     C 6288   7.390   7.229   4.878 -0.5657 -0.3873 -0.1023
  788MOL0    Cl 6289   7.392   7.235   5.061 -0.1282 -0.4314  0.2304
  788MOL0     C 6290   7.260   6.431   4.837  0.4738 -0.1626  0.3566
  788MOL0     C 6291   7.149   6.361   4.894  0.3626 -0.2043  0.2596
  788MOL0     O 6292   6.897   6.353   5.046 -0.0808 -0.6687 -0.2680
  788MOL0     C 6293   6.679   6.176   5.005  0.2661 -0.0140  0.8369
  788MOL0     C 6294   6.577   6.083   5.007  0.4426 -0.4610  1.1415
  788MOL0     N 6295   5.864   5.848   5.162  0.0498  0.0199 -0.2732
  788MOL0     N 6296   5.780   5.811   5.066  0.2785  0.0398 -0.3978
  788MOL0     C 6297   4.846   5.474   4.886  0.0265 -0.4808 -0.9545
  788MOL0     C 6298   4.708   5.455   4.862 -0.6373 -0.3385 -0.1101
  788MOL0     C 6299   4.257   5.312   4.936 -0.5563 -0.8124 -0.8316
  788MOL0     C 6300   4.159   5.386   4.871 -0.3022 -0.1436  0.1129
  788MOL0     C 6301   4.038   5.338   4.843  0.4109 -0.2549  0.8040
  788MOL0     C 6302   4.001   5.214   4.898  0.1761  0.8039 -0.2888
  788MOL0     O 6303   3.879   5.160   4.877 -0.9829  0.2337  0.9220
  788MOL0     C 6304   3.867   5.113   4.741 -0.7062 -0.1941 -0.3994
  788MOL0     C 6305   3.727   5.054   4.731 -0.0471  0.3643  0.5947
  788MOL0     C 6306   3.720   4.936   4.828 -0.0209  0.1136 -0.1646
  788MOL0     C 6307   3.577   4.876   4.829  0.4680 -0.5295  0.4167
  788MOL0     C 6308   3.564   4.762   4.920 -0.3023 -0.1449  0.0497
  788MOL0     C 6309   3.560   4.674   5.006  0.1029  0.1714 -1.1029
  788MOL0     C 6310   4.098   5.136   4.971  0.7969  0.1068  0.2276
  788MOL0     C 6311   4.234   5.180   4.985  0.9723  0.5430  0.0815
  788MOL0     C 6312   4.327   5.098   5.077 -0.0865 -0.0960 -0.2968
  788MOL0     H 6313   4.639   5.239   5.115 -1.2017  0.5972 -0.3272
  788MOL0     H 6314   4.886   5.276   5.158 -3.4178  0.0272  1.8712
  788MOL0     H 6315   5.172   5.371   5.130 -1.6668 -2.1137  2.2421
  788MOL0     H 6316   5.087   5.225   5.083 -0.1437 -0.2970 -0.0330
  788MOL0     H 6317   5.187   5.208   4.867  3.8222 -1.5593 -1.1226
  788MOL0     H 6318   5.309   5.203   4.995 -0.1172  0.5651 -0.1324
  788MOL0     H 6319   5.247   5.423   4.806 -1.0154 -0.6211 -0.5370
  788MOL0     H 6320   5.392   5.330   4.806  1.2111 -2.2420  2.3537
  788MOL0     H 6321   5.312   5.550   5.004  0.7890  1.4488 -0.8134
  788MOL0     H 6322   5.403   5.412   5.070 -0.7187 -2.5699 -1.2382
  788MOL0     H 6323   5.513   5.542   4.823  1.6673 -1.2622  0.3879
  788MOL0     H 6324   5.521   5.629   4.972  1.3170 -0.8792  2.0422
  788MOL0     H 6325   5.659   5.466   5.086  0.0752  1.2673 -0.2772
  788MOL0     H 6326   5.626   5.350   4.956 -0.2006 -0.0287 -1.1334
  788MOL0     H 6327   5.757   5.473   4.794  4.0078  1.6297 -0.6196
  788MOL0     H 6328   5.860   5.459   4.927 -0.4198  0.1136  0.5671
  788MOL0     H 6329   5.856   5.674   4.791  0.3623 -0.8005 -0.6307
  788MOL0     H 6330   5.693   5.699   4.844 -0.1525 -0.0034  1.1231
  788MOL0     H 6331   6.034   5.619   4.994  1.3129  1.2088  0.0299
  788MOL0     H 6332   6.095   5.903   5.270  2.0127 -0.7562  3.6788
  788MOL0     H 6333   6.069   5.738   5.319 -2.1001 -0.1888 -1.2317
  788MOL0     H 6334   6.317   5.773   5.258  2.3911 -0.3524 -0.6248
  788MOL0     H 6335   6.242   5.685   5.129  0.3087  1.0623 -0.4888
  788MOL0     H 6336   6.293   5.991   5.130  0.6592 -0.8985  1.0309
  788MOL0     H 6337   6.183   5.907   5.019  0.1922  0.9781 -1.4323
  788MOL0     H 6338   6.376   5.939   4.901 -1.8831  0.6091  1.8237
  788MOL0     H 6339   6.350   5.763   4.938 -1.6801 -1.7583  2.9285
  788MOL0     H 6340   6.758   5.805   5.082 -0.7400  0.5388  0.3507
  788MOL0     H 6341   6.940   5.955   5.052 -1.0962 -2.3763  1.9263
  788MOL0     H 6342   7.292   6.112   5.061 -1.2456  0.2820 -0.2109
  788MOL0     H 6343   7.509   6.251   4.992  0.4218 -1.9614  0.0120
  788MOL0     H 6344   7.466   6.574   4.700 -3.8940  1.2900  1.0673
  788MOL0     H 6345   7.460   6.659   4.852 -2.1180 -1.8378  0.4061
  788MOL0     H 6346   7.710   6.635   4.866  0.3542 -3.3488 -0.9397
  788MOL0     H 6347   7.700   6.534   4.726 -0.0501 -2.5854  2.8636
  788MOL0     H 6348   7.775   6.775   4.658  0.3934 -0.7154  0.2283
  788MOL0     H 6349   7.642   6.706   4.565  0.4206 -1.7178  0.1676
  788MOL0     H 6350   7.490   6.856   4.691 -0.1935  3.3837  3.2225
  788MOL0     H 6351   7.622   6.926   4.603 -1.3679  0.3616 -0.9452
  788MOL0     H 6352   7.742   6.925   4.839  0.2608  3.0036  0.1363
  788MOL0     H 6353   7.587   6.888   4.901  2.9793  2.5346  3.8052
  788MOL0     H 6354   7.649   7.124   4.913 -0.7637 -0.9052  0.8939
  788MOL0     H 6355   7.614   7.144   4.736 -3.8560 -2.1933 -1.4280
  788MOL0     H 6356   7.400   7.010   4.868 -2.2183  2.2633  3.7286
  788MOL0     H 6357   7.403   7.104   4.719 -2.9761 -1.8185  0.4577
  788MOL0     H 6358   7.455   7.309   4.843  0.9930 -1.5613  0.0162
  788MOL0     H 6359   7.286   7.240   4.845 -0.1079  0.2990 -1.3484
  788MOL0     H 6360   7.249   6.519   4.776  0.9881 -0.0481  0.4194
  788MOL0     H 6361   7.058   6.414   4.868  1.3773  0.7727 -1.4318
  788MOL0     H 6362   6.675   6.282   4.979  0.4087  0.5317  2.8810
  788MOL0     H 6363   6.477   6.122   4.991  0.7362  0.2843  1.1270
  788MOL0     H 6364   4.900   5.556   4.839  0.0422 -0.0634 -0.2162
  788MOL0     H 6365   4.660   5.516   4.787 -0.7118  1.0694  1.0272
  788MOL0     H 6366   4.182   5.490   4.849  1.1501  0.0105  2.1001
  788MOL0     H 6367   3.975   5.402   4.782  3.9486  0.9667 -1.9485
  788MOL0     H 6368   3.940   5.033   4.726 -0.9100 -1.3211  3.4044
  788MOL0     H 6369   3.888   5.197   4.674 -1.7218  0.9570  0.6755
  788MOL0     H 6370   3.702   5.033   4.627  0.2574  0.5677  0.4804
  788MOL0     H 6371   3.651   5.126   4.765  1.7821  2.5421  0.3053
  788MOL0     H 6372   3.746   4.978   4.926 -0.2420  2.9438 -1.2215
  788MOL0     H 6373   3.796   4.865   4.795 -1.2966 -0.1768 -2.6607
  788MOL0     H 6374   3.512   4.962   4.848  0.5693 -0.1536 -0.8214
  788MOL0     H 6375   3.561   4.849   4.724  1.8045 -1.2130  0.3645
  788MOL0     H 6376   3.555   4.600   5.083 -0.6703  0.7920 -0.5308
  788MOL0     H 6377   4.067   5.047   5.025  0.8026 -0.6505 -0.9990
  788MOL0     H 6378   4.283   5.011   5.126 -1.2280  1.5656  1.8566
  788MOL0     H 6379   4.420   5.071   5.026  0.9310  3.9835 -0.9622
  788MOL0     H 6380   4.357   5.161   5.162 -2.0405 -0.2478  0.5450
  789MOL0     O 6381   1.577   0.937  10.929  0.0849 -0.5067  0.1655
  789MOL0     C 6382   1.491   0.964  10.850  1.4398 -0.1578  0.4162
  789MOL0     O 6383   1.501   1.059  10.742 -0.7547  0.3453 -0.3400
  789MOL0     C 6384   1.623   1.082  10.694  1.2683  0.4068  0.6243
  789MOL0     C 6385   1.733   0.985  10.681  0.7333 -0.7210 -0.6097
  789MOL0     C 6386   1.859   1.034  10.637  0.8239  0.7878  0.2379
  789MOL0     C 6387   1.883   1.168  10.607  0.6729  0.5939 -0.0772
  789MOL0     O 6388   1.994   1.220  10.556 -0.2057 -0.1708 -0.8640
  789MOL0     C 6389   2.119   1.161  10.609 -0.3343 -0.4211  0.0643
  789MOL0     C 6390   2.165   1.055  10.509 -0.4972  0.3765 -0.3339
  789MOL0     C 6391   2.204   1.096  10.359  0.4196 -0.0284  0.6433
  789MOL0     C 6392   2.333   1.185  10.342  0.4458  0.5076  0.5564
  789MOL0     C 6393   2.455   1.097  10.366  0.8568  0.1950 -0.3118
  789MOL0     C 6394   2.588   1.170  10.345 -0.5764 -0.6902  0.8246
  789MOL0     C 6395   2.709   1.079  10.344 -0.1910  0.6005 -0.4107
  789MOL0     C 6396   2.754   1.037  10.202 -0.1192 -0.0437  0.0614
  789MOL0     N 6397   2.882   0.964  10.189 -0.4450 -0.1343  0.2646
  789MOL0     C 6398   3.002   0.991  10.249  0.4610  0.1387  0.4356
  789MOL0     C 6399   3.076   0.880  10.217 -0.5674 -1.1496  0.1705
  789MOL0     C 6400   3.215   0.844  10.271  0.4815  0.1453 -0.8234
  789MOL0     C 6401   3.337   0.935  10.258  0.4355  0.3109 -0.3526
  789MOL0     C 6402   3.466   0.854  10.228  0.3778 -0.6979 -0.3955
  789MOL0     C 6403   3.580   0.956  10.206 -1.1284 -0.2012 -0.0272
  789MOL0     O 6404   3.584   1.062  10.300 -0.2668 -0.5260 -0.6707
  789MOL0     C 6405   3.702   1.121  10.326 -0.3497  0.1900  0.0797
  789MOL0     C 6406   3.823   1.111  10.253  0.7680 -0.0153  0.1956
  789MOL0     C 6407   3.928   1.193  10.280 -0.2407  0.4932 -0.3881
  789MOL0     C 6408   3.923   1.278  10.390  0.1289 -0.3068 -0.3335
  789MOL0     C 6409   4.046   1.353  10.419  0.9763 -0.4809 -0.1478
  789MOL0     O 6410   4.162   1.298  10.374  0.8714 -0.1428 -1.2179
  789MOL0     C 6411   4.276   1.370  10.386  0.0698  0.2545  0.0257
  789MOL0     C 6412   4.345   1.383  10.505 -0.6273 -0.1819 -0.1014
  789MOL0     C 6413   4.473   1.434  10.499 -0.4437 -0.1817 -0.5876
  789MOL0     C 6414   4.530   1.479  10.382 -0.1366  0.0683  0.1742
  789MOL0     O 6415   4.652   1.549  10.394 -0.0352  0.3193 -0.1657
  789MOL0     C 6416   4.726   1.572  10.271 -0.5284 -0.3934 -0.7237
  789MOL0     C 6417   4.864   1.621  10.310 -0.3198 -0.1825  0.2777
  789MOL0     C 6418   4.871   1.765  10.347 -0.0146 -0.2013  0.2019
  789MOL0     C 6419   5.016   1.811  10.380  0.5064  0.8135 -0.5659
  789MOL0     C 6420   5.018   1.970  10.396  0.6202  0.0264  0.6064
  789MOL0     C 6421   5.153   2.024  10.448  0.3100  0.5183  0.4320
  789MOL0     C 6422   5.251   2.019  10.339 -0.5881  0.1638  0.0917
  789MOL0     C 6423   5.393   2.028  10.397  0.1773 -0.7478  1.1487
  789MOL0    Cl 6424   5.421   2.206  10.439 -0.0342  0.3066 -0.2085
  789MOL0     C 6425   4.454   1.478  10.265  0.1871  0.7246 -0.5022
  789MOL0     C 6426   4.321   1.427  10.268 -0.9299  0.0860 -0.2052
  789MOL0     O 6427   4.033   1.468  10.453 -0.3805 -0.5484  0.6243
  789MOL0     C 6428   3.818   1.272  10.479 -0.0698 -0.0552 -0.2854
  789MOL0     C 6429   3.703   1.193  10.445 -0.0539  0.6886  1.2020
  789MOL0     N 6430   2.994   0.792  10.153  0.1445  0.2406 -0.5201
  789MOL0     N 6431   2.880   0.840  10.137 -0.1494 -0.4253  0.6461
  789MOL0     C 6432   1.779   1.255  10.630 -0.0668 -0.8324 -0.8890
  789MOL0     C 6433   1.656   1.217  10.670  0.0059 -0.2779  0.3574
  789MOL0     C 6434   1.370   0.875  10.856  0.7743  0.0455 -0.3412
  789MOL0     C 6435   1.290   0.873  10.746 -0.6059 -0.0571  1.0261
  789MOL0     C 6436   1.190   0.776  10.730 -0.7142 -0.4616  0.0101
  789MOL0     C 6437   1.159   0.686  10.832 -0.0231 -0.8179  0.7036
  789MOL0     O 6438   1.053   0.590  10.823 -0.1748 -0.8145 -0.5819
  789MOL0     C 6439   0.945   0.605  10.723 -0.1274 -0.3814  0.6950
  789MOL0     C 6440   0.808   0.636  10.786 -0.0781 -0.2694 -0.5476
  789MOL0     C 6441   0.817   0.762  10.882  0.4833 -0.1928 -0.0102
  789MOL0     C 6442   0.681   0.785  10.953  0.4010  0.3698  0.9741
  789MOL0     C 6443   0.686   0.861  11.084  0.2045  0.0908 -0.1137
  789MOL0     C 6444   0.684   0.927  11.190  0.0348 -0.2942 -0.0518
  789MOL0     C 6445   1.223   0.698  10.951  0.6251 -0.3049  0.4689
  789MOL0     C 6446   1.333   0.790  10.968  0.9794 -0.6132 -0.5014
  789MOL0     C 6447   1.401   0.787  11.101 -0.3232 -0.1783 -0.7366
  789MOL0     H 6448   1.713   0.881  10.706 -3.4298  0.0343 -0.0727
  789MOL0     H 6449   1.942   0.966  10.616  0.7624  1.0312 -0.8235
  789MOL0     H 6450   2.189   1.245  10.608 -0.0306 -0.6655 -1.2983
  789MOL0     H 6451   2.103   1.126  10.712  1.1993 -1.4600 -0.0234
  789MOL0     H 6452   2.096   0.970  10.500  1.0588 -1.0342  0.3607
  789MOL0     H 6453   2.261   1.016  10.544 -0.5889 -1.5488 -2.0485
  789MOL0     H 6454   2.117   1.140  10.310 -0.8888 -0.8694  2.1029
  789MOL0     H 6455   2.230   1.009  10.298  3.3274  1.1703 -0.0243
  789MOL0     H 6456   2.336   1.211  10.236  1.0948  2.5478  1.0296
  789MOL0     H 6457   2.338   1.276  10.403  3.8099  1.1870 -0.5264
  789MOL0     H 6458   2.445   1.058  10.468 -2.2999 -2.4606 -1.4656
  789MOL0     H 6459   2.451   1.014  10.296 -1.1250  0.4169 -0.5155
  789MOL0     H 6460   2.587   1.220  10.247  2.5939 -0.0997  1.0002
  789MOL0     H 6461   2.593   1.238  10.430 -1.3224 -1.7712  1.7654
  789MOL0     H 6462   2.693   0.989  10.405 -0.6686  2.3700  2.2489
  789MOL0     H 6463   2.794   1.133  10.387  1.1837 -2.3787  0.9070
  789MOL0     H 6464   2.669   0.988  10.154  0.3450  0.9730 -1.9185
  789MOL0     H 6465   2.776   1.126  10.144  0.7258 -0.5109 -0.3635
  789MOL0     H 6466   3.021   1.083  10.304 -1.6264  0.4979  0.6148
  789MOL0     H 6467   3.205   0.807  10.373 -0.9773 -0.7060 -1.2534
  789MOL0     H 6468   3.243   0.767  10.199 -0.9772 -0.5291 -0.7003
  789MOL0     H 6469   3.327   1.000  10.171  0.3825  0.0436 -0.5486
  789MOL0     H 6470   3.352   0.995  10.349 -0.4980  1.1666 -0.7389
  789MOL0     H 6471   3.456   0.791  10.139  0.1946  1.0900 -1.6961
  789MOL0     H 6472   3.482   0.797  10.319 -3.3940  0.9240  1.5164
  789MOL0     H 6473   3.565   0.999  10.106 -0.3825 -1.0191 -0.5035
  789MOL0     H 6474   3.667   0.890  10.198 -1.1657 -0.1109 -1.6582
  789MOL0     H 6475   3.833   1.061  10.157  1.5892  3.9007 -2.0068
  789MOL0     H 6476   4.013   1.193  10.212  0.8805 -0.6743  0.9488
  789MOL0     H 6477   4.311   1.344  10.600 -1.4186 -1.6993 -0.9721
  789MOL0     H 6478   4.527   1.439  10.593  1.5937  0.1783 -1.7136
  789MOL0     H 6479   4.729   1.479  10.214 -0.1944 -2.1548  1.9441
  789MOL0     H 6480   4.676   1.649  10.214 -2.1009 -2.1652 -1.8446
  789MOL0     H 6481   4.921   1.562  10.382  0.1777 -1.0767 -0.8192
  789MOL0     H 6482   4.926   1.618  10.219 -0.6539  1.0046 -0.0158
  789MOL0     H 6483   4.829   1.824  10.265  3.9079  0.6436 -1.4327
  789MOL0     H 6484   4.813   1.783  10.438 -0.2561  0.9246 -0.1562
  789MOL0     H 6485   5.087   1.782  10.302  1.8327 -1.0746  1.2452
  789MOL0     H 6486   5.052   1.765  10.472 -0.8624 -1.8695 -1.2627
  789MOL0     H 6487   4.939   1.987  10.470 -0.3436 -0.9559 -0.1707
  789MOL0     H 6488   4.987   2.024  10.306  0.0651 -1.7870 -0.3439
  789MOL0     H 6489   5.135   2.123  10.491 -0.4585 -0.5319  2.6944
  789MOL0     H 6490   5.191   1.954  10.524 -0.4334  2.3007  2.5552
  789MOL0     H 6491   5.228   2.098  10.267 -0.8633  1.2105  1.2868
  789MOL0     H 6492   5.243   1.924  10.284 -3.9593  1.0042 -1.1454
  789MOL0     H 6493   5.406   1.964  10.484 -1.7066 -0.2616  1.8319
  789MOL0     H 6494   5.462   2.005  10.315 -2.1696 -2.5196 -0.4724
  789MOL0     H 6495   4.496   1.516  10.172  1.1055  1.7155  0.2855
  789MOL0     H 6496   4.253   1.425  10.183  0.0778 -0.9804 -1.0267
  789MOL0     H 6497   3.819   1.337  10.566  1.1305 -0.8200  0.3017
  789MOL0     H 6498   3.614   1.180  10.506  0.6828  0.1287  2.1829
  789MOL0     H 6499   1.795   1.359  10.602 -1.7431  0.5618  2.6744
  789MOL0     H 6500   1.572   1.284  10.688  1.1249  0.3925  3.9092
  789MOL0     H 6501   1.303   0.945  10.665 -0.5527 -0.4516  0.6810
  789MOL0     H 6502   1.143   0.778  10.632  0.4616 -1.1345 -0.5958
  789MOL0     H 6503   0.936   0.508  10.672  1.4288 -0.6670  0.9182
  789MOL0     H 6504   0.968   0.675  10.641  2.6171 -1.7824  0.1529
  789MOL0     H 6505   0.779   0.549  10.847 -0.9755  0.6850  0.4407
  789MOL0     H 6506   0.740   0.643  10.701  0.2298 -0.6892 -0.8306
  789MOL0     H 6507   0.823   0.851  10.819 -2.4229 -0.1089 -0.3308
  789MOL0     H 6508   0.899   0.762  10.954  0.5244  1.2418 -0.0348
  789MOL0     H 6509   0.606   0.816  10.879 -0.2944 -2.0687  0.5665
  789MOL0     H 6510   0.639   0.690  10.987  0.0939  0.9534  2.2865
  789MOL0     H 6511   0.689   0.975  11.285 -2.0859  0.6404 -0.3580
  789MOL0     H 6512   1.179   0.653  11.039  0.2078  1.0732  0.9978
  789MOL0     H 6513   1.405   0.892  11.130 -4.1999  0.5777 -2.3380
  789MOL0     H 6514   1.344   0.733  11.177  1.4163  1.7641  2.1223
  789MOL0     H 6515   1.496   0.736  11.088 -0.0614  0.3094 -0.7540
  790MOL0     O 6516   4.953   9.920   2.230 -0.3580 -0.1648 -0.2943
  790MOL0     C 6517   4.880   9.911   2.131 -0.2146  0.6172 -0.5311
  790MOL0     O 6518   4.918   9.857   2.012  0.1139 -0.0236 -0.0793
  790MOL0     C 6519   5.054   9.833   2.000  0.2005  0.3179 -0.0505
  790MOL0     C 6520   5.145   9.912   1.936 -1.3696 -0.2103  0.1751
  790MOL0     C 6521   5.281   9.867   1.915  0.1422  0.1483 -0.0864
  790MOL0     C 6522   5.327   9.739   1.961  0.6229  0.3277  0.0592
  790MOL0     O 6523   5.456   9.694   1.927 -0.2128  0.7549  0.0979
  790MOL0     C 6524   5.518   9.631   2.038 -0.0928  0.3015 -0.1040
  790MOL0     C 6525   5.676   9.657   2.048  1.0071  0.5817 -0.1913
  790MOL0     C 6526   5.707   9.804   2.086 -0.1174 -0.4307 -0.1173
  790MOL0     C 6527   5.854   9.834   2.092  0.2155  0.4792  0.0815
  790MOL0     C 6528   5.924   9.793   2.229  0.4031  0.3764  1.0328
  790MOL0     C 6529   5.885   9.884   2.337 -0.4824  0.0779 -0.2682
  790MOL0     C 6530   5.928   9.826   2.473  0.3776  0.4405  0.4965
  790MOL0     C 6531   5.916   9.938   2.571 -0.2690 -0.2390 -0.2285
  790MOL0     N 6532   5.772   9.977   2.575 -0.1307 -0.0140 -0.7905
  790MOL0     C 6533   5.660   9.893   2.604 -0.1896  0.6712  0.4619
  790MOL0     C 6534   5.551   9.964   2.582  0.5041 -0.5253 -0.7500
  790MOL0     C 6535   5.400   9.928   2.608  0.4122  0.4835  0.0987
  790MOL0     C 6536   5.315   9.910   2.479 -0.6003 -0.2450  0.0331
  790MOL0     C 6537   5.365   9.810   2.374  0.5799  0.4738 -0.6160
  790MOL0     C 6538   5.354   9.652   2.400 -0.2118 -0.1402 -0.5254
  790MOL0     O 6539   5.479   9.609   2.463  0.1356 -0.6898 -1.2545
  790MOL0     C 6540   5.516   9.484   2.477  0.7880  0.0616  0.3739
  790MOL0     C 6541   5.430   9.383   2.518 -0.2602  0.6569  0.4273
  790MOL0     C 6542   5.465   9.249   2.512  1.0085 -0.4640  0.0768
  790MOL0     C 6543   5.586   9.208   2.458 -0.4538  0.4732  0.1275
  790MOL0     C 6544   5.631   9.076   2.484  0.4923  0.0516  0.0551
  790MOL0     O 6545   5.532   8.986   2.529 -0.2289  0.7285 -0.2433
  790MOL0     C 6546   5.555   8.845   2.513 -0.3967 -0.1428 -0.0623
  790MOL0     C 6547   5.457   8.767   2.455  0.1195 -0.6099 -0.4752
  790MOL0     C 6548   5.476   8.629   2.443  0.0474 -0.2283 -0.2669
  790MOL0     C 6549   5.591   8.570   2.480 -0.4197 -0.7659 -0.3515
  790MOL0     O 6550   5.619   8.432   2.484 -0.3738 -0.2303 -0.3038
  790MOL0     C 6551   5.559   8.367   2.601 -0.7178  0.2607 -0.3624
  790MOL0     C 6552   5.513   8.229   2.551  0.2684 -0.5060 -0.6925
  790MOL0     C 6553   5.419   8.242   2.441 -0.0804 -0.0583 -0.6916
  790MOL0     C 6554   5.346   8.108   2.409 -0.0275  0.5274 -0.1548
  790MOL0     C 6555   5.295   8.105   2.264  0.0005  0.5386 -0.6830
  790MOL0     C 6556   5.181   8.199   2.239  0.8165 -0.2308  0.5960
  790MOL0     C 6557   5.121   8.165   2.106  0.2847  0.3184  0.7154
  790MOL0     C 6558   4.997   8.249   2.079 -0.4104  0.9476 -0.0192
  790MOL0    Cl 6559   4.841   8.173   2.108 -0.6248 -0.9435  0.2276
  790MOL0     C 6560   5.693   8.639   2.539  1.1413  0.3462  0.3797
  790MOL0     C 6561   5.659   8.773   2.574 -0.2918 -0.4095 -0.4341
  790MOL0     O 6562   5.748   9.043   2.449 -0.5410  0.3326  0.8482
  790MOL0     C 6563   5.678   9.314   2.418 -0.2138  0.1605  0.1874
  790MOL0     C 6564   5.652   9.449   2.443  0.8628 -0.1831  0.0155
  790MOL0     N 6565   5.596  10.088   2.537 -0.0690  0.4194  0.2764
  790MOL0     N 6566   5.724  10.101   2.540  0.6456  0.2842 -0.2335
  790MOL0     C 6567   5.228   9.657   2.023 -0.0603  0.7947  0.2382
  790MOL0     C 6568   5.096   9.705   2.040 -0.8476 -0.1025 -0.4611
  790MOL0     C 6569   4.735   9.955   2.138 -0.7091 -0.3569 -0.3261
  790MOL0     C 6570   4.672   9.999   2.267 -0.6063  0.7320  0.3955
  790MOL0     C 6571   4.546  10.053   2.271 -0.2232  0.1501 -0.2656
  790MOL0     C 6572   4.475  10.074   2.152  0.2152  0.2259 -0.3431
  790MOL0     O 6573   4.356  10.127   2.164 -0.4230  0.1279 -0.3323
  790MOL0     C 6574   4.328  10.249   2.102 -0.2211 -0.2155 -0.2862
  790MOL0     C 6575   4.331  10.383   2.186 -0.2594  0.4922 -0.2434
  790MOL0     C 6576   4.474  10.445   2.167  0.0809  0.4236 -0.2098
  790MOL0     C 6577   4.483  10.567   2.255 -0.7494  0.7394 -0.1849
  790MOL0     C 6578   4.624  10.619   2.264 -0.0142  0.4212  0.2736
  790MOL0     C 6579   4.740  10.663   2.281  0.9887 -0.3427  0.3334
  790MOL0     C 6580   4.517  10.019   2.032 -1.0415 -0.3811  0.1362
  790MOL0     C 6581   4.649   9.964   2.027  0.0307  0.1992 -0.4707
  790MOL0     C 6582   4.676   9.904   1.887 -0.3506 -0.1788  0.6007
  790MOL0     H 6583   5.111  10.011   1.909  0.3824  0.4368  0.1902
  790MOL0     H 6584   5.356   9.930   1.868  4.1779 -2.6934  1.9325
  790MOL0     H 6585   5.480   9.653   2.138  2.1340  0.0644  0.8465
  790MOL0     H 6586   5.513   9.522   2.028 -0.5506  0.2548  0.5660
  790MOL0     H 6587   5.714   9.638   1.947 -3.0002  0.1453 -1.8130
  790MOL0     H 6588   5.726   9.588   2.117  0.4203  0.3391 -0.0000
  790MOL0     H 6589   5.659   9.837   2.179  0.7393 -1.4600  0.7109
  790MOL0     H 6590   5.650   9.859   2.012 -1.5367  0.3813  1.5025
  790MOL0     H 6591   5.894   9.794   1.998  1.5330  0.9197  0.4246
  790MOL0     H 6592   5.865   9.943   2.081 -1.1881  0.6083 -0.2915
  790MOL0     H 6593   5.899   9.690   2.257 -3.1400  0.3513 -1.5754
  790MOL0     H 6594   6.031   9.791   2.210  0.0904  0.3348 -0.8782
  790MOL0     H 6595   5.938   9.975   2.308  2.8822 -0.8902  2.1981
  790MOL0     H 6596   5.776   9.895   2.329 -0.6165 -0.9526 -0.1093
  790MOL0     H 6597   6.037   9.812   2.472  0.4343  0.9053 -0.3590
  790MOL0     H 6598   5.880   9.732   2.503  1.2092  0.5328  2.2840
  790MOL0     H 6599   5.941   9.890   2.666 -1.0443 -2.2410 -0.9994
  790MOL0     H 6600   5.983  10.023   2.553  0.1769 -0.3342  0.9055
  790MOL0     H 6601   5.647   9.794   2.646 -3.6804  1.3373  1.3307
  790MOL0     H 6602   5.393   9.834   2.664 -1.0148 -0.4207 -1.5031
  790MOL0     H 6603   5.356  10.010   2.666 -0.8616  0.7456 -1.1759
  790MOL0     H 6604   5.208   9.902   2.501 -0.0516  0.6087  3.5011
  790MOL0     H 6605   5.320  10.003   2.422 -3.1896  0.5614  0.9836
  790MOL0     H 6606   5.467   9.836   2.345  2.6506  2.3817  6.3544
  790MOL0     H 6607   5.297   9.824   2.290 -0.1780  0.2297 -0.0550
  790MOL0     H 6608   5.350   9.596   2.306  1.1339  0.7276 -1.1306
  790MOL0     H 6609   5.282   9.617   2.475  2.2800 -3.0645  0.7598
  790MOL0     H 6610   5.326   9.403   2.541 -0.9336  0.1043 -1.8805
  790MOL0     H 6611   5.399   9.170   2.545 -2.9382  1.4494 -2.4750
  790MOL0     H 6612   5.359   8.802   2.425 -1.2364 -4.6426 -1.4481
  790MOL0     H 6613   5.390   8.570   2.415 -0.7379  1.3023 -1.2164
  790MOL0     H 6614   5.633   8.351   2.679 -0.3421  1.7239 -0.3812
  790MOL0     H 6615   5.469   8.412   2.644 -0.8504 -1.8400  1.7350
  790MOL0     H 6616   5.599   8.174   2.511  0.2629 -1.0909  0.0633
  790MOL0     H 6617   5.466   8.174   2.633  0.9340 -0.9003 -0.5626
  790MOL0     H 6618   5.342   8.315   2.468 -1.0551 -1.8353  1.7428
  790MOL0     H 6619   5.473   8.269   2.350  1.6196 -1.8565 -0.2947
  790MOL0     H 6620   5.261   8.108   2.479  1.3160  0.1985  1.5292
  790MOL0     H 6621   5.399   8.015   2.430  2.0541  1.5712 -0.6101
  790MOL0     H 6622   5.266   8.003   2.238  2.4189 -0.7641  1.2743
  790MOL0     H 6623   5.372   8.147   2.199 -0.5301  3.0272  0.1937
  790MOL0     H 6624   5.098   8.159   2.299 -1.0820  2.7818  0.2252
  790MOL0     H 6625   5.209   8.304   2.252  3.8735 -0.5568 -2.1442
  790MOL0     H 6626   5.105   8.058   2.089  1.8703  0.2784 -0.7961
  790MOL0     H 6627   5.196   8.201   2.035 -0.5240 -0.7224 -0.7260
  790MOL0     H 6628   4.999   8.342   2.135 -0.0875  0.7344  0.3258
  790MOL0     H 6629   4.986   8.275   1.973 -0.2425 -2.0635 -0.8875
  790MOL0     H 6630   5.782   8.583   2.567  2.4843  2.3890  0.4288
  790MOL0     H 6631   5.715   8.838   2.639 -0.7978 -1.6166  1.2907
  790MOL0     H 6632   5.779   9.291   2.386  0.3321  0.6132  1.5045
  790MOL0     H 6633   5.717   9.535   2.434  1.9804 -1.0756 -0.6513
  790MOL0     H 6634   5.243   9.557   2.064 -3.5064  0.3579  0.6859
  790MOL0     H 6635   5.027   9.633   2.085 -1.3091 -0.5585 -1.8315
  790MOL0     H 6636   4.725   9.988   2.361  0.6150  0.1049 -0.3431
  790MOL0     H 6637   4.501  10.096   2.360 -2.7952 -0.0914 -1.3588
  790MOL0     H 6638   4.225  10.235   2.067 -0.5968  4.4551 -1.6191
  790MOL0     H 6639   4.388  10.269   2.013 -1.4702  0.3159 -1.0222
  790MOL0     H 6640   4.308  10.361   2.291  0.7115  2.2157  0.3680
  790MOL0     H 6641   4.250  10.447   2.151  2.0579  2.6606 -1.9614
  790MOL0     H 6642   4.493  10.481   2.066  2.6885 -0.1362  0.0184
  790MOL0     H 6643   4.547  10.365   2.183 -0.3776  0.3643  1.9521
  790MOL0     H 6644   4.418  10.648   2.221 -1.8708 -0.4071 -0.8750
  790MOL0     H 6645   4.452  10.539   2.357 -0.6407  0.5379 -0.2061
  790MOL0     H 6646   4.834  10.695   2.320  0.4188  1.5667  0.2581
  790MOL0     H 6647   4.460  10.042   1.943 -0.9307 -1.2851 -0.1825
  790MOL0     H 6648   4.735   9.812   1.896 -0.4201 -0.4116 -1.0556
  790MOL0     H 6649   4.581   9.885   1.836  0.8183 -2.3936 -0.9240
  790MOL0     H 6650   4.738   9.961   1.818  0.4778 -0.1456  1.3546
  791MOL0     O 6651   4.519   2.061   6.218 -0.2651 -0.1861 -0.2809
  791MOL0     C 6652   4.473   2.126   6.314  0.4286  0.1350 -0.0138
  791MOL0     O 6653   4.529   2.235   6.371  0.0542 -0.3834  0.2925
  791MOL0     C 6654   4.658   2.274   6.344  0.7095  0.7870  0.5692
  791MOL0     C 6655   4.787   2.218   6.371 -0.3501 -0.4518  0.5167
  791MOL0     C 6656   4.903   2.292   6.359 -1.0833 -0.8785 -0.1481
  791MOL0     C 6657   4.905   2.421   6.313  0.0110 -0.5096  0.4377
  791MOL0     O 6658   5.028   2.487   6.312  0.6299  0.3027  0.0637
  791MOL0     C 6659   5.056   2.565   6.192  0.4258 -0.3399  0.1100
  791MOL0     C 6660   5.201   2.607   6.177 -0.8358  0.6745  0.4934
  791MOL0     C 6661   5.302   2.488   6.160  0.4882 -0.2425 -0.0505
  791MOL0     C 6662   5.294   2.408   6.030 -0.3682  0.1532  0.1180
  791MOL0     C 6663   5.315   2.259   6.056 -0.2090 -0.1170  0.2122
  791MOL0     C 6664   5.450   2.224   6.122 -0.3821 -0.2260  0.4920
  791MOL0     C 6665   5.573   2.292   6.060  0.0466  0.0108  0.5624
  791MOL0     C 6666   5.702   2.272   6.152  0.0636  0.3485 -0.1021
  791MOL0     N 6667   5.752   2.128   6.148 -0.6321  0.4845 -0.0972
  791MOL0     C 6668   5.740   2.032   6.244  0.1499  0.1736  0.2592
  791MOL0     C 6669   5.781   1.914   6.191  0.4111 -0.1764 -0.4827
  791MOL0     C 6670   5.764   1.786   6.263 -0.6324  0.4499 -0.2625
  791MOL0     C 6671   5.897   1.715   6.259 -0.9939  0.0638 -0.1849
  791MOL0     C 6672   5.880   1.577   6.323  0.0427  0.2744  0.4616
  791MOL0     C 6673   6.003   1.497   6.348  0.5138  0.0947 -0.7546
  791MOL0     O 6674   6.121   1.559   6.290 -0.3211  0.1959  0.7741
  791MOL0     C 6675   6.243   1.493   6.307  0.3659  0.7298 -0.9708
  791MOL0     C 6676   6.261   1.374   6.384 -1.0640  0.5408  0.1833
  791MOL0     C 6677   6.390   1.316   6.403  0.6535 -0.2268 -0.2960
  791MOL0     C 6678   6.498   1.381   6.322  0.3533 -0.3388 -1.4223
  791MOL0     C 6679   6.635   1.323   6.323  0.2853 -0.7323  1.0846
  791MOL0     O 6680   6.728   1.388   6.247  0.1070  0.1509  0.3803
  791MOL0     C 6681   6.842   1.332   6.202  0.5888  0.8638  0.7573
  791MOL0     C 6682   6.953   1.410   6.181  0.9914 -0.3921 -0.3064
  791MOL0     C 6683   7.072   1.364   6.122  0.0652 -0.5588  0.4365
  791MOL0     C 6684   7.077   1.229   6.080 -0.3101 -0.2541  0.0230
  791MOL0     O 6685   7.190   1.168   6.019 -0.6678  0.8178  0.2642
  791MOL0     C 6686   7.318   1.210   6.070 -0.4589  1.5389  0.0576
  791MOL0     C 6687   7.415   1.158   5.965 -0.1128  0.2801  0.4805
  791MOL0     C 6688   7.558   1.229   5.965  0.6495  0.0966 -0.6490
  791MOL0     C 6689   7.628   1.218   6.099  0.6165 -0.1586  0.0519
  791MOL0     C 6690   7.761   1.300   6.080  0.2883  0.2717  0.6956
  791MOL0     C 6691   7.889   1.241   6.008 -0.5612 -0.3297  0.4024
  791MOL0     C 6692   7.982   1.174   6.107 -0.0942  0.2616 -0.3838
  791MOL0     C 6693   8.102   1.126   6.031  0.0778 -0.4619  0.0863
  791MOL0    Cl 6694   8.198   1.265   5.967 -0.1380 -0.0082  0.0301
  791MOL0     C 6695   6.965   1.153   6.095  0.4280 -0.0039 -0.3690
  791MOL0     C 6696   6.852   1.203   6.157  0.2284 -0.5842 -0.4049
  791MOL0     O 6697   6.657   1.221   6.385  0.5024 -0.2061 -0.4693
  791MOL0     C 6698   6.476   1.502   6.269 -0.1829  0.5398 -0.1719
  791MOL0     C 6699   6.352   1.563   6.263  0.3136  0.6060 -0.6291
  791MOL0     N 6700   5.810   1.936   6.052  0.7345  0.1739 -0.0998
  791MOL0     N 6701   5.784   2.060   6.032 -1.1285  0.2979 -0.3698
  791MOL0     C 6702   4.779   2.477   6.281  0.3777 -0.8882  0.0478
  791MOL0     C 6703   4.663   2.401   6.291  0.5815  0.7560 -0.2156
  791MOL0     C 6704   4.355   2.068   6.384  1.0999 -0.1606  0.6490
  791MOL0     C 6705   4.271   1.980   6.309  0.3201 -0.4836  0.7721
  791MOL0     C 6706   4.143   1.939   6.352 -0.7780  0.0667 -0.4193
  791MOL0     C 6707   4.093   1.977   6.480 -0.3543  0.4685  0.4648
  791MOL0     O 6708   3.973   1.951   6.535 -0.1709 -0.0153  0.5414
  791MOL0     C 6709   3.886   1.863   6.466  0.5422  0.5635  0.2791
  791MOL0     C 6710   3.752   1.850   6.533  0.4554  0.0316  0.3230
  791MOL0     C 6711   3.678   1.984   6.520 -0.9640 -0.1490 -0.2124
  791MOL0     C 6712   3.529   1.956   6.512  0.4381  0.2305 -0.4286
  791MOL0     C 6713   3.476   1.889   6.638  0.8420  0.5676 -0.1880
  791MOL0     C 6714   3.427   1.818   6.722 -0.2435 -0.6551  0.5711
  791MOL0     C 6715   4.173   2.068   6.543 -0.7701  0.4012  0.4896
  791MOL0     C 6716   4.298   2.117   6.505  0.1917  0.8817  0.1908
  791MOL0     C 6717   4.350   2.218   6.604  0.2320 -0.7561  0.1166
  791MOL0     H 6718   4.808   2.122   6.417  1.0761 -0.8433 -0.8632
  791MOL0     H 6719   4.997   2.247   6.391 -0.8595  1.0426  2.2300
  791MOL0     H 6720   5.030   2.501   6.108  1.3301  0.8325 -1.1210
  791MOL0     H 6721   5.003   2.662   6.193  0.8155 -0.1286  0.6615
  791MOL0     H 6722   5.228   2.672   6.261 -5.0324  1.0712  1.7708
  791MOL0     H 6723   5.228   2.662   6.086  2.3282 -1.8517 -0.2831
  791MOL0     H 6724   5.281   2.429   6.250  0.9328  1.7047  1.4043
  791MOL0     H 6725   5.407   2.519   6.170  0.7862 -1.7641  2.0661
  791MOL0     H 6726   5.197   2.420   5.981  0.3924 -0.6985 -1.6665
  791MOL0     H 6727   5.373   2.441   5.962 -0.8038 -4.2581 -3.0136
  791MOL0     H 6728   5.240   2.218   6.124  2.5918 -4.0820  1.3050
  791MOL0     H 6729   5.306   2.204   5.962 -1.9103 -0.1304  0.3586
  791MOL0     H 6730   5.447   2.260   6.225 -1.1416  0.1309  0.3601
  791MOL0     H 6731   5.452   2.115   6.112  1.3806 -0.0322 -2.1998
  791MOL0     H 6732   5.552   2.400   6.054 -2.2986 -0.4669 -2.3810
  791MOL0     H 6733   5.580   2.252   5.958 -2.2167 -0.9730  0.7279
  791MOL0     H 6734   5.778   2.337   6.106  0.9010  0.9891  2.0548
  791MOL0     H 6735   5.690   2.314   6.253  1.8061  2.1702 -0.5840
  791MOL0     H 6736   5.701   2.033   6.345  0.2515  1.4493  0.3113
  791MOL0     H 6737   5.713   1.797   6.359 -1.1908 -1.8425 -0.2333
  791MOL0     H 6738   5.694   1.740   6.193 -2.1705  1.4841  0.5405
  791MOL0     H 6739   5.929   1.710   6.155 -1.8997 -1.2256 -0.4324
  791MOL0     H 6740   5.973   1.770   6.315 -1.4397  0.6161 -0.1102
  791MOL0     H 6741   5.816   1.523   6.251 -0.5488  2.8755 -1.0843
  791MOL0     H 6742   5.831   1.575   6.421 -1.0885  1.2525 -0.0590
  791MOL0     H 6743   5.986   1.401   6.299  0.8267 -0.1527 -0.3822
  791MOL0     H 6744   6.013   1.486   6.457 -0.9078  0.8085 -0.5217
  791MOL0     H 6745   6.184   1.321   6.439  1.4083 -1.2554  2.1516
  791MOL0     H 6746   6.407   1.225   6.459  1.6181  0.0412 -0.1337
  791MOL0     H 6747   6.941   1.513   6.210 -1.2530 -1.0977  1.5537
  791MOL0     H 6748   7.150   1.434   6.093  0.7218 -2.1981 -2.1532
  791MOL0     H 6749   7.322   1.318   6.083  0.1630  1.4465  0.7100
  791MOL0     H 6750   7.336   1.171   6.171  2.6894  1.0828 -0.6037
  791MOL0     H 6751   7.430   1.051   5.981 -0.9545 -0.1391 -1.3310
  791MOL0     H 6752   7.373   1.167   5.865  2.5727 -0.3720 -0.8038
  791MOL0     H 6753   7.617   1.188   5.884  3.0493  1.0595  0.5023
  791MOL0     H 6754   7.545   1.335   5.939 -1.6141  0.0927  0.1977
  791MOL0     H 6755   7.646   1.115   6.131  0.1698 -1.9279 -4.5086
  791MOL0     H 6756   7.575   1.271   6.178  1.6200  1.3142 -0.2000
  791MOL0     H 6757   7.802   1.328   6.178 -0.0315  1.7020  0.4418
  791MOL0     H 6758   7.737   1.392   6.027  0.0352 -1.5175 -2.5370
  791MOL0     H 6759   7.860   1.171   5.930 -1.9217 -1.0854  1.5330
  791MOL0     H 6760   7.939   1.324   5.957  1.8106 -1.9057 -0.0165
  791MOL0     H 6761   7.937   1.082   6.144  1.2523  0.2647  1.3977
  791MOL0     H 6762   8.010   1.247   6.183  2.2270  1.0789 -1.9055
  791MOL0     H 6763   8.167   1.066   6.096  1.5388  0.6396 -0.3095
  791MOL0     H 6764   8.075   1.071   5.941  1.9447  3.5983 -3.2648
  791MOL0     H 6765   6.971   1.050   6.061  2.9282 -1.5434  3.9949
  791MOL0     H 6766   6.771   1.131   6.167  0.1854 -0.4334  0.3699
  791MOL0     H 6767   6.551   1.560   6.216 -0.4308 -0.2069 -1.3814
  791MOL0     H 6768   6.344   1.650   6.198 -1.8242  0.3152 -0.8247
  791MOL0     H 6769   4.770   2.578   6.244 -0.9800 -1.2208 -0.6128
  791MOL0     H 6770   4.579   2.455   6.249  1.0950  0.9664 -0.9920
  791MOL0     H 6771   4.292   1.943   6.209  0.8936  1.0933  0.2760
  791MOL0     H 6772   4.076   1.881   6.289  0.7664 -0.4707 -1.6103
  791MOL0     H 6773   3.937   1.766   6.458 -0.4760 -0.0774  1.2509
  791MOL0     H 6774   3.864   1.895   6.364 -2.2012 -1.9525 -0.0607
  791MOL0     H 6775   3.759   1.825   6.639  0.1533  0.2665  0.4011
  791MOL0     H 6776   3.686   1.780   6.481 -2.2180  2.6528 -0.1240
  791MOL0     H 6777   3.692   2.044   6.430 -3.1729 -0.1624 -0.6159
  791MOL0     H 6778   3.694   2.047   6.607 -1.0774 -1.5015  0.8261
  791MOL0     H 6779   3.489   2.058   6.500 -0.1550 -0.1889 -2.4071
  791MOL0     H 6780   3.492   1.910   6.420 -1.3319  2.7662 -1.0962
  791MOL0     H 6781   3.386   1.777   6.813 -1.7893  1.3683  0.8707
  791MOL0     H 6782   4.122   2.113   6.627 -3.5804  2.1455 -1.9600
  791MOL0     H 6783   4.302   2.209   6.702 -2.5374  2.0092 -0.8150
  791MOL0     H 6784   4.459   2.218   6.616  0.3609 -0.0945 -0.8446
  791MOL0     H 6785   4.336   2.321   6.569  2.7739 -0.9425 -1.7824
  792MOL0     O 6786   8.381   6.090   4.092  0.9064  0.6914  0.3608
  792MOL0     C 6787   8.307   6.193   4.122  0.5228  0.2070 -0.7771
  792MOL0     O 6788   8.346   6.300   4.193 -0.4854  0.0989 -0.1308
  792MOL0     C 6789   8.479   6.295   4.246  1.6560  0.3976  0.6589
  792MOL0     C 6790   8.507   6.246   4.368 -0.3065 -1.5117 -0.5723
  792MOL0     C 6791   8.644   6.244   4.409  1.0559 -1.0524 -0.2415
  792MOL0     C 6792   8.748   6.286   4.324 -0.8040 -0.2475 -0.4471
  792MOL0     O 6793   8.880   6.274   4.367  0.2751 -0.5146  0.1605
  792MOL0     C 6794   8.974   6.344   4.290 -0.2542  0.0950  0.1515
  792MOL0     C 6795   9.107   6.349   4.362  0.1200  0.0503  0.2322
  792MOL0     C 6796   9.163   6.222   4.424 -0.5993 -0.3260 -0.7297
  792MOL0     C 6797   9.218   6.125   4.316  0.0613  0.8944 -0.3212
  792MOL0     C 6798   9.093   6.039   4.274 -0.0910  0.2592  0.7283
  792MOL0     C 6799   9.133   5.919   4.184  0.6754 -0.3574 -1.2762
  792MOL0     C 6800   9.209   5.809   4.249 -0.7314 -0.0547 -0.3828
  792MOL0     C 6801   9.360   5.822   4.246  0.3404 -0.4789  0.2942
  792MOL0     N 6802   9.421   5.695   4.235  0.2317  0.3243 -0.4383
  792MOL0     C 6803   9.429   5.620   4.117  0.3485  0.0408  0.0682
  792MOL0     C 6804   9.467   5.494   4.164 -0.4538 -0.6485  0.1914
  792MOL0     C 6805   9.473   5.370   4.084 -0.4587  0.4094 -0.8691
  792MOL0     C 6806   9.518   5.255   4.164  0.1682  0.7901 -0.6816
  792MOL0     C 6807   9.474   5.134   4.093  0.1236 -0.0054  0.5068
  792MOL0     C 6808   9.458   5.022   4.193  0.1574  0.5221 -0.2227
  792MOL0     O 6809   9.575   4.988   4.269  0.2885  0.7303 -0.1581
  792MOL0     C 6810   9.691   4.955   4.195 -0.2053  0.6679  0.6062
  792MOL0     C 6811   9.812   5.024   4.232 -0.1974  0.1066 -0.1324
  792MOL0     C 6812   9.928   4.982   4.159  0.4291  0.3790 -0.6093
  792MOL0     C 6813   9.926   4.890   4.052  0.5838 -0.9049 -0.4892
  792MOL0     C 6814  10.051   4.869   3.982 -0.0330  0.5785  0.0202
  792MOL0     O 6815  10.028   4.845   3.842 -0.5340  0.4221 -0.0955
  792MOL0     C 6816  10.139   4.872   3.760  0.3634 -0.2326 -0.4889
  792MOL0     C 6817  10.153   5.006   3.727 -0.2082 -0.6830 -0.5658
  792MOL0     C 6818  10.252   5.027   3.629 -0.8166  0.3026 -0.3678
  792MOL0     C 6819  10.335   4.932   3.577 -0.3609  0.6693 -0.1979
  792MOL0     O 6820  10.445   4.970   3.504 -0.0369 -0.4772 -0.8069
  792MOL0     C 6821  10.562   4.891   3.517 -0.1379 -0.0756  0.9449
  792MOL0     C 6822  10.673   4.998   3.527 -0.6468 -0.4704  0.6606
  792MOL0     C 6823  10.811   4.930   3.517 -0.9405  0.5323  0.3654
  792MOL0     C 6824  10.846   4.932   3.372 -0.8023  0.6332  0.3499
  792MOL0     C 6825  10.954   4.829   3.325 -0.6627 -0.2701  0.4289
  792MOL0     C 6826  11.088   4.878   3.377  0.8569 -0.3664 -0.8569
  792MOL0     C 6827  11.204   4.786   3.328 -0.2431  0.1971  0.3844
  792MOL0     C 6828  11.340   4.827   3.388 -0.0266  0.5891 -0.4840
  792MOL0    Cl 6829  11.469   4.710   3.336 -0.4094 -0.1558  0.0366
  792MOL0     C 6830  10.312   4.804   3.615  0.2692  0.9536 -1.2462
  792MOL0     C 6831  10.213   4.773   3.708 -0.1364  0.0047  0.2869
  792MOL0     O 6832  10.160   4.880   4.028  0.0039 -0.1539  0.0295
  792MOL0     C 6833   9.805   4.825   4.019  0.0335 -0.4131  0.7293
  792MOL0     C 6834   9.693   4.856   4.096  0.0958 -0.7886 -0.3619
  792MOL0     N 6835   9.485   5.507   4.306  0.0442  0.2694  0.6670
  792MOL0     N 6836   9.457   5.624   4.345 -0.2291 -0.0619  0.0192
  792MOL0     C 6837   8.708   6.340   4.203  0.2156  0.0531 -0.4440
  792MOL0     C 6838   8.577   6.338   4.157  0.1254  0.4701  0.4082
  792MOL0     C 6839   8.171   6.214   4.066 -0.0746  0.8278 -0.2503
  792MOL0     C 6840   8.159   6.246   3.935 -0.0752  0.2771  0.5865
  792MOL0     C 6841   8.039   6.273   3.863 -0.3184  0.1237  0.2089
  792MOL0     C 6842   7.923   6.276   3.946 -0.2687  0.1019  0.8993
  792MOL0     O 6843   7.805   6.309   3.875  0.2379  0.4509  0.4439
  792MOL0     C 6844   7.678   6.282   3.938 -0.8427 -0.6576  0.3201
  792MOL0     C 6845   7.622   6.143   3.905 -0.7551 -0.1609 -0.2674
  792MOL0     C 6846   7.602   6.108   3.755  0.3384 -0.0361 -0.1589
  792MOL0     C 6847   7.476   6.177   3.693  0.7115 -0.3366  0.5434
  792MOL0     C 6848   7.364   6.141   3.765  1.0234 -0.4290 -0.3175
  792MOL0     C 6849   7.258   6.118   3.823  0.6847  0.2336 -0.5739
  792MOL0     C 6850   7.941   6.247   4.082  0.3436  0.0308  0.9331
  792MOL0     C 6851   8.056   6.211   4.140  0.2095 -0.5779 -0.7791
  792MOL0     C 6852   8.058   6.197   4.293  1.0902  0.2907 -0.0550
  792MOL0     H 6853   8.432   6.212   4.439 -0.7356  0.7581  0.1623
  792MOL0     H 6854   8.669   6.199   4.504  2.7250  1.5107  0.6198
  792MOL0     H 6855   8.981   6.301   4.190  0.5966  0.9640 -0.1686
  792MOL0     H 6856   8.945   6.449   4.281  1.5343  0.6031  0.1010
  792MOL0     H 6857   9.090   6.415   4.447  0.8386  1.9817 -1.0359
  792MOL0     H 6858   9.182   6.395   4.296  0.2928  0.8061  0.9431
  792MOL0     H 6859   9.082   6.180   4.486  0.0108  0.3933  0.5910
  792MOL0     H 6860   9.245   6.249   4.491 -0.9011  2.0735 -1.2340
  792MOL0     H 6861   9.271   6.173   4.234  3.0131 -1.7264 -0.1411
  792MOL0     H 6862   9.289   6.067   4.376  0.4893  0.2600 -1.4016
  792MOL0     H 6863   9.030   5.999   4.354  0.2783 -1.3458  0.2557
  792MOL0     H 6864   9.033   6.107   4.213  0.8864 -1.4882 -2.4158
  792MOL0     H 6865   9.034   5.879   4.161  0.2856 -0.3095  0.2615
  792MOL0     H 6866   9.178   5.944   4.087  0.7877 -0.5637 -1.2770
  792MOL0     H 6867   9.187   5.719   4.191 -2.2543 -1.6237  2.3974
  792MOL0     H 6868   9.172   5.790   4.350 -0.3882  1.0774 -0.0317
  792MOL0     H 6869   9.389   5.875   4.155 -0.3288  0.7597  0.7860
  792MOL0     H 6870   9.406   5.869   4.334  0.2973  2.7067 -1.2535
  792MOL0     H 6871   9.388   5.649   4.021 -3.0315  1.7104  1.8414
  792MOL0     H 6872   9.372   5.356   4.045 -2.3402 -0.3548  3.6332
  792MOL0     H 6873   9.534   5.380   3.994  2.0296 -2.8542  0.2225
  792MOL0     H 6874   9.624   5.251   4.186 -0.0565 -2.2727  0.2525
  792MOL0     H 6875   9.463   5.259   4.258 -0.0507  1.2190 -0.8224
  792MOL0     H 6876   9.555   5.114   4.022 -1.8501 -1.7165 -1.4253
  792MOL0     H 6877   9.374   5.137   4.048 -1.4854 -0.7830  3.7250
  792MOL0     H 6878   9.443   4.935   4.128 -2.5982  0.7880 -0.0571
  792MOL0     H 6879   9.366   5.023   4.252 -0.0780 -2.8072 -0.3175
  792MOL0     H 6880   9.808   5.095   4.314 -3.2211 -2.4777  2.2465
  792MOL0     H 6881  10.024   5.022   4.188  1.0735  0.6820 -3.0083
  792MOL0     H 6882  10.098   5.090   3.770 -1.8545 -1.6934 -0.6261
  792MOL0     H 6883  10.279   5.128   3.600  2.5151  0.1023  1.4471
  792MOL0     H 6884  10.571   4.825   3.605  1.1077 -1.2187 -0.0014
  792MOL0     H 6885  10.568   4.826   3.429 -1.8027  2.0544 -0.8576
  792MOL0     H 6886  10.653   5.084   3.463 -2.4613  0.0493  1.8632
  792MOL0     H 6887  10.664   5.048   3.623  1.9325  0.2386  0.6034
  792MOL0     H 6888  10.892   4.982   3.568 -0.5638  2.4120 -1.9911
  792MOL0     H 6889  10.806   4.830   3.563  1.0233  1.4257  2.7192
  792MOL0     H 6890  10.872   5.036   3.350  0.9457  0.5750  1.8736
  792MOL0     H 6891  10.758   4.892   3.320  1.1269 -2.2427 -0.9685
  792MOL0     H 6892  10.955   4.824   3.216 -1.8051  1.9567  0.2569
  792MOL0     H 6893  10.946   4.725   3.358  3.2719 -0.5831  0.8966
  792MOL0     H 6894  11.087   4.986   3.363 -1.5021  0.2233  2.5666
  792MOL0     H 6895  11.087   4.879   3.486  1.0571 -0.3028 -0.8549
  792MOL0     H 6896  11.208   4.784   3.218 -3.3328  0.6561  0.1773
  792MOL0     H 6897  11.183   4.682   3.356 -1.9522  0.4413  0.0807
  792MOL0     H 6898  11.373   4.927   3.358 -2.2617  1.4076 -0.4139
  792MOL0     H 6899  11.338   4.817   3.497  0.2607 -0.3230 -0.5592
  792MOL0     H 6900  10.361   4.718   3.572 -0.9558 -1.0475  1.1120
  792MOL0     H 6901  10.174   4.673   3.722  0.3099 -0.1247  0.6417
  792MOL0     H 6902   9.798   4.755   3.937  1.4825 -2.0668  1.9618
  792MOL0     H 6903   9.598   4.815   4.065 -0.0014  0.6344 -2.0690
  792MOL0     H 6904   8.779   6.362   4.125  1.9732  2.8035  1.7553
  792MOL0     H 6905   8.554   6.376   4.058 -2.9610 -2.5312 -0.1865
  792MOL0     H 6906   8.253   6.251   3.880 -2.4878  0.5955 -3.9673
  792MOL0     H 6907   8.050   6.303   3.759  0.9817  0.8963  0.5473
  792MOL0     H 6908   7.609   6.353   3.894  4.1952  4.4154 -0.5558
  792MOL0     H 6909   7.681   6.308   4.044  2.2304  1.9529 -0.2435
  792MOL0     H 6910   7.530   6.122   3.961 -0.7638  3.6748  1.4505
  792MOL0     H 6911   7.702   6.080   3.948  1.2678  1.3995 -1.5801
  792MOL0     H 6912   7.589   6.000   3.750 -0.5675 -0.0304  1.3906
  792MOL0     H 6913   7.695   6.140   3.706 -0.9078 -1.6388 -3.9042
  792MOL0     H 6914   7.478   6.286   3.684 -0.6849 -0.4868 -2.8050
  792MOL0     H 6915   7.469   6.136   3.592  2.4607 -0.0767  0.2860
  792MOL0     H 6916   7.177   6.092   3.888  0.9785  2.3362  0.7161
  792MOL0     H 6917   7.854   6.252   4.147 -1.2482  0.5592 -1.1216
  792MOL0     H 6918   8.131   6.126   4.332  0.7518  0.3759  0.7784
  792MOL0     H 6919   8.078   6.300   4.324  0.4408 -0.1730  2.1426
  792MOL0     H 6920   7.964   6.170   4.342  0.7195 -1.7093 -1.7322
  793MOL0     O 6921   4.598   1.488  10.902 -0.8955 -0.0394  0.0884
  793MOL0     C 6922   4.541   1.593  10.859  1.2385  0.6152  0.5422
  793MOL0     O 6923   4.603   1.709  10.821  0.1173  0.2999 -0.1614
  793MOL0     C 6924   4.746   1.713  10.800  0.3507  0.7569 -0.2283
  793MOL0     C 6925   4.816   1.629  10.702  0.1720 -0.6366 -0.6764
  793MOL0     C 6926   4.952   1.634  10.693 -0.3120 -0.8414 -0.9477
  793MOL0     C 6927   5.029   1.713  10.780 -0.1626 -0.0315 -1.0577
  793MOL0     O 6928   5.165   1.718  10.792  1.0555 -0.2620 -0.9005
  793MOL0     C 6929   5.232   1.596  10.746 -0.4392  0.2761 -0.0713
  793MOL0     C 6930   5.369   1.603  10.817 -0.6373 -0.9798 -0.2887
  793MOL0     C 6931   5.368   1.591  10.962  0.3791 -0.7567  0.7902
  793MOL0     C 6932   5.499   1.620  11.030  0.1790 -0.4966  0.4991
  793MOL0     C 6933   5.500   1.592  11.176 -0.2954 -0.4525 -0.3930
  793MOL0     C 6934   5.616   1.666  11.256  0.3518 -0.0310 -0.3736
  793MOL0     C 6935   5.577   1.809  11.308 -0.4890  0.4167 -0.6716
  793MOL0     C 6936   5.679   1.924  11.311 -0.1837 -0.5131 -0.2346
  793MOL0     N 6937   5.812   1.900  11.363 -0.2111  0.4864 -0.2986
  793MOL0     C 6938   5.896   1.806  11.322 -0.4266  0.0142 -0.0476
  793MOL0     C 6939   5.985   1.781  11.422  0.0018 -1.3246 -0.3817
  793MOL0     C 6940   6.103   1.699  11.428  0.7597 -0.6867  0.1761
  793MOL0     C 6941   6.226   1.785  11.462  0.2972  0.2343  0.3857
  793MOL0     C 6942   6.351   1.692  11.472 -0.3945  0.8465 -1.0071
  793MOL0     C 6943   6.484   1.760  11.457 -0.1527  0.6086 -0.1678
  793MOL0     O 6944   6.586   1.659  11.428  0.3086  0.4814 -0.3704
  793MOL0     C 6945   6.648   1.593  11.541  0.9895 -0.5033  0.3635
  793MOL0     C 6946   6.753   1.502  11.518 -0.2280 -0.5961 -0.3579
  793MOL0     C 6947   6.812   1.429  11.621  0.5394  0.6361  1.5726
  793MOL0     C 6948   6.778   1.445  11.755 -0.1532  0.7316 -0.0990
  793MOL0     C 6949   6.858   1.385  11.865  0.3268 -0.2703 -0.2107
  793MOL0     O 6950   6.959   1.295  11.838 -1.1292  0.7858 -0.1415
  793MOL0     C 6951   7.020   1.237  11.945 -0.1854  0.0028 -0.2616
  793MOL0     C 6952   7.027   1.101  11.961 -0.1842 -0.5100 -0.7620
  793MOL0     C 6953   7.091   1.049  12.081  0.1164 -0.4642 -0.0737
  793MOL0     C 6954   7.173   1.129  12.155 -0.3177  0.2124 -0.2626
  793MOL0     O 6955   7.252   1.072  12.257 -0.3277  0.2771 -0.1083
  793MOL0     C 6956   7.355   0.967  12.223 -0.0762 -0.2500 -0.5108
  793MOL0     C 6957   7.499   1.027  12.192 -0.3265 -0.5625 -0.1597
  793MOL0     C 6958   7.560   0.933  12.084  0.4159 -0.2732 -0.8899
  793MOL0     C 6959   7.713   0.920  12.094  0.1478  0.8163  0.0518
  793MOL0     C 6960   7.786   1.059  12.117  0.6189  0.0000  0.2033
  793MOL0     C 6961   7.938   1.048  12.105 -0.5187  1.5623  0.2668
  793MOL0     C 6962   7.989   0.993  11.972 -0.1157 -0.8575 -0.5856
  793MOL0     C 6963   8.014   1.099  11.855 -0.1123 -0.7360 -0.7910
  793MOL0    Cl 6964   7.852   1.143  11.770 -0.2382 -0.0164  0.2582
  793MOL0     C 6965   7.179   1.264  12.132 -0.0108  0.1253  0.3879
  793MOL0     C 6966   7.097   1.321  12.033  0.9357 -0.3062 -0.1320
  793MOL0     O 6967   6.829   1.431  11.981 -0.6803  0.2900 -0.4479
  793MOL0     C 6968   6.665   1.528  11.779  0.1894  0.3828  0.1831
  793MOL0     C 6969   6.608   1.598  11.671 -0.2665 -0.9447  0.1291
  793MOL0     N 6970   5.940   1.853  11.524  0.0776 -0.4127  0.6784
  793MOL0     N 6971   5.840   1.933  11.492 -0.1517  0.5278 -0.6546
  793MOL0     C 6972   4.960   1.810  10.859 -0.0006  0.1513 -0.0183
  793MOL0     C 6973   4.816   1.813  10.869 -0.5852 -0.3740  0.2922
  793MOL0     C 6974   4.392   1.580  10.849  0.5454  0.3396  0.4739
  793MOL0     C 6975   4.326   1.486  10.933  0.2293  0.1209 -0.1961
  793MOL0     C 6976   4.184   1.470  10.927 -0.8666  0.2313  0.8406
  793MOL0     C 6977   4.114   1.535  10.825 -0.5516 -0.7010 -1.1956
  793MOL0     O 6978   3.981   1.516  10.839  0.0400 -0.1285 -0.1200
  793MOL0     C 6979   3.885   1.602  10.773 -0.3953 -0.2459  0.0102
  793MOL0     C 6980   3.746   1.568  10.827 -0.8160  0.5505  0.9084
  793MOL0     C 6981   3.655   1.689  10.790  0.7762 -0.2999 -0.3744
  793MOL0     C 6982   3.556   1.658  10.672 -0.5457 -0.2621 -0.3704
  793MOL0     C 6983   3.630   1.626  10.551 -0.1736  0.5013  0.6235
  793MOL0     C 6984   3.687   1.592  10.449 -0.1875 -0.2913  1.1673
  793MOL0     C 6985   4.178   1.623  10.735  0.5766 -0.4138 -0.2932
  793MOL0     C 6986   4.316   1.644  10.745 -0.3404  1.2229  0.3278
  793MOL0     C 6987   4.377   1.744  10.643  0.2692 -0.0390 -0.1009
  793MOL0     H 6988   4.759   1.556  10.646 -0.6760 -0.4646 -0.0643
  793MOL0     H 6989   4.988   1.558  10.623 -1.6642 -1.1817 -1.3053
  793MOL0     H 6990   5.183   1.500  10.769 -3.1093  1.8333  1.2615
  793MOL0     H 6991   5.242   1.605  10.638 -1.9143 -4.5499 -0.8603
  793MOL0     H 6992   5.407   1.703  10.795 -1.2757 -0.0474  2.4724
  793MOL0     H 6993   5.428   1.524  10.769 -0.9004 -1.1977 -0.2533
  793MOL0     H 6994   5.333   1.492  10.990  0.2223 -0.5168  1.4653
  793MOL0     H 6995   5.294   1.663  10.997 -0.7035 -2.7993  2.9588
  793MOL0     H 6996   5.595   1.583  10.995  0.1936 -1.1161  1.1856
  793MOL0     H 6997   5.504   1.727  11.008  1.7589 -0.5019  0.7441
  793MOL0     H 6998   5.405   1.619  11.223  0.3042  1.1008 -0.0233
  793MOL0     H 6999   5.514   1.483  11.173 -0.7044 -0.5214  0.0787
  793MOL0     H 7000   5.657   1.601  11.334  1.6873 -1.4761 -2.1771
  793MOL0     H 7001   5.700   1.663  11.185  0.2223 -5.0547 -0.7110
  793MOL0     H 7002   5.545   1.785  11.409 -1.5886  0.5241 -0.9880
  793MOL0     H 7003   5.484   1.841  11.262 -1.9284  0.0465  1.8201
  793MOL0     H 7004   5.712   1.951  11.211  3.0570 -1.0337  0.5607
  793MOL0     H 7005   5.625   2.015  11.339  0.2480  0.0073 -1.0500
  793MOL0     H 7006   5.897   1.754  11.227  0.3506 -0.1834  0.0638
  793MOL0     H 7007   6.085   1.616  11.496 -1.5199  0.6419  1.3394
  793MOL0     H 7008   6.123   1.651  11.332 -2.1054  1.0539 -1.4757
  793MOL0     H 7009   6.239   1.857  11.380 -0.2739  0.0671  0.1427
  793MOL0     H 7010   6.215   1.837  11.557  0.1227 -1.2782  1.2253
  793MOL0     H 7011   6.350   1.622  11.388 -3.6551  0.1115 -0.4758
  793MOL0     H 7012   6.350   1.636  11.566  0.8698  0.9945 -0.8763
  793MOL0     H 7013   6.500   1.823  11.546 -0.7938  0.8531 -0.2192
  793MOL0     H 7014   6.471   1.827  11.372  0.1742 -0.6878 -1.2659
  793MOL0     H 7015   6.785   1.485  11.416 -1.8645  0.6151 -1.1135
  793MOL0     H 7016   6.888   1.356  11.596 -0.2349  0.2272  0.2594
  793MOL0     H 7017   6.986   1.030  11.890 -0.7255 -2.4355  1.3443
  793MOL0     H 7018   7.097   0.943  12.103  1.0992 -0.7044 -1.3451
  793MOL0     H 7019   7.371   0.899  12.307  1.6533 -1.4915 -1.7764
  793MOL0     H 7020   7.317   0.908  12.140 -2.3563  3.5362 -2.4440
  793MOL0     H 7021   7.479   1.126  12.151  0.7148  0.1815  1.0379
  793MOL0     H 7022   7.563   1.042  12.279  1.5018 -1.7727 -1.2313
  793MOL0     H 7023   7.511   0.835  12.082  1.3492 -0.9151  1.9783
  793MOL0     H 7024   7.530   0.976  11.989  2.7096 -1.1472 -2.0919
  793MOL0     H 7025   7.751   0.860  12.011  0.7578 -0.1822  1.0206
  793MOL0     H 7026   7.724   0.848  12.176 -3.0139  0.3306  0.1864
  793MOL0     H 7027   7.769   1.088  12.221  1.1988  0.3454  0.2052
  793MOL0     H 7028   7.749   1.136  12.049 -0.4689 -0.2717  0.4543
  793MOL0     H 7029   7.987   1.143  12.125  0.0483  1.2624  0.3205
  793MOL0     H 7030   7.976   0.979  12.181  1.1947  2.0651 -0.0956
  793MOL0     H 7031   7.941   0.900  11.942 -1.9903 -0.6624  1.5358
  793MOL0     H 7032   8.089   0.971  12.011  0.0947  0.4084 -0.3809
  793MOL0     H 7033   8.066   1.187  11.896 -1.1049 -0.7041  0.4522
  793MOL0     H 7034   8.079   1.046  11.785  0.5892 -2.0241  0.7697
  793MOL0     H 7035   7.249   1.327  12.186 -1.3098  1.5672  0.4344
  793MOL0     H 7036   7.100   1.428  12.017  0.4388 -0.4897 -1.7296
  793MOL0     H 7037   6.628   1.544  11.880 -0.8971  1.9930 -0.4312
  793MOL0     H 7038   6.529   1.666  11.703 -0.3011 -0.9082 -0.0333
  793MOL0     H 7039   5.016   1.878  10.922  1.1335 -2.0830  1.5038
  793MOL0     H 7040   4.776   1.879  10.945  1.7761  2.0646 -0.4234
  793MOL0     H 7041   4.392   1.433  11.001  1.6978  0.4096 -1.3322
  793MOL0     H 7042   4.129   1.402  10.991  0.5331 -0.6074  1.1864
  793MOL0     H 7043   3.895   1.584  10.666  1.4856  1.4038 -0.1536
  793MOL0     H 7044   3.909   1.703  10.807  4.2030 -1.0792 -0.0560
  793MOL0     H 7045   3.742   1.561  10.936 -2.3634  1.7014  0.9672
  793MOL0     H 7046   3.709   1.469  10.799 -0.2961  0.2525  1.2643
  793MOL0     H 7047   3.716   1.771  10.752 -0.0323  0.0409 -0.9803
  793MOL0     H 7048   3.593   1.724  10.873  0.8334 -1.7019  0.2973
  793MOL0     H 7049   3.492   1.574  10.700 -2.1787  0.2259 -2.4412
  793MOL0     H 7050   3.491   1.744  10.652 -2.3450 -0.9503  1.9756
  793MOL0     H 7051   3.749   1.567  10.365  1.7275 -1.2628  2.7946
  793MOL0     H 7052   4.115   1.674  10.664 -0.9843 -0.1209  1.2300
  793MOL0     H 7053   4.484   1.727  10.629  0.1464 -1.3805  0.4689
  793MOL0     H 7054   4.322   1.735  10.549 -1.9207  3.1386  0.6963
  793MOL0     H 7055   4.360   1.847  10.677 -1.5203  0.8472 -3.2603
  794MOL0     O 7056   3.636   4.885  10.624 -0.8805  0.5804 -0.2331
  794MOL0     C 7057   3.627   4.923  10.509 -0.0919  0.7190 -0.8266
  794MOL0     O 7058   3.719   4.899  10.410 -0.1027 -0.2464 -0.8417
  794MOL0     C 7059   3.840   4.839  10.443  0.1214  0.4731 -0.1053
  794MOL0     C 7060   3.852   4.710  10.483  0.5241 -0.3319  0.5320
  794MOL0     C 7061   3.973   4.647  10.528  0.1580 -0.1043 -0.0147
  794MOL0     C 7062   4.093   4.719  10.520 -0.4846  0.2921  0.2129
  794MOL0     O 7063   4.208   4.667  10.566  0.1090 -0.2106 -1.0484
  794MOL0     C 7064   4.295   4.632  10.463  0.4106 -0.5556  0.1052
  794MOL0     C 7065   4.419   4.562  10.520  0.0625 -0.6268 -0.2952
  794MOL0     C 7066   4.543   4.597  10.442 -0.6873  0.3923  0.0552
  794MOL0     C 7067   4.672   4.547  10.510 -0.0918 -0.8545 -0.2372
  794MOL0     C 7068   4.794   4.554  10.424 -0.5097 -0.6434  0.1709
  794MOL0     C 7069   4.822   4.679  10.339  0.4718 -0.8058  0.9158
  794MOL0     C 7070   4.951   4.664  10.266 -0.2359 -0.9472  0.3427
  794MOL0     C 7071   4.961   4.566  10.144  0.1193  0.3712 -0.9673
  794MOL0     N 7072   5.103   4.563  10.100  0.0793 -0.3670 -0.6303
  794MOL0     C 7073   5.153   4.446  10.049  0.8118  0.0947  0.2879
  794MOL0     C 7074   5.287   4.467  10.042  0.2688 -0.3667 -0.3834
  794MOL0     C 7075   5.388   4.367   9.980  0.7263 -0.5259  0.0357
  794MOL0     C 7076   5.340   4.332   9.831  0.0294 -0.1958 -0.3126
  794MOL0     C 7077   5.343   4.463   9.739  0.0612  0.0689  0.0621
  794MOL0     C 7078   5.274   4.445   9.611  0.0970  0.8316  1.0237
  794MOL0     O 7079   5.333   4.333   9.531 -0.7368  0.2834  0.4542
  794MOL0     C 7080   5.476   4.337   9.514 -0.1237 -0.7255  0.4592
  794MOL0     C 7081   5.554   4.231   9.540 -0.0482  0.0093  0.8366
  794MOL0     C 7082   5.692   4.228   9.528 -0.0264  0.4357  0.0874
  794MOL0     C 7083   5.762   4.337   9.478 -0.1048  0.2872  0.5135
  794MOL0     C 7084   5.907   4.342   9.468 -0.2756 -0.7759 -0.2660
  794MOL0     O 7085   5.984   4.238   9.533  0.0530  0.6345  0.0888
  794MOL0     C 7086   6.116   4.229   9.493 -0.5330  0.0613  0.6595
  794MOL0     C 7087   6.157   4.128   9.411 -0.1713 -0.6502 -0.9899
  794MOL0     C 7088   6.288   4.118   9.372  0.0616  0.6238  0.1750
  794MOL0     C 7089   6.391   4.207   9.418  0.0927  0.7228  0.7472
  794MOL0     O 7090   6.514   4.194   9.358  0.3555  0.0630  0.1352
  794MOL0     C 7091   6.617   4.274   9.426 -0.2081 -0.4533 -0.2647
  794MOL0     C 7092   6.757   4.225   9.382 -0.3205 -0.1835  0.3212
  794MOL0     C 7093   6.869   4.304   9.445 -0.0719  0.2143 -0.0732
  794MOL0     C 7094   7.017   4.283   9.401 -0.2359  0.7200 -0.3723
  794MOL0     C 7095   7.117   4.326   9.508  0.3793  0.2875 -0.1498
  794MOL0     C 7096   7.262   4.278   9.473 -0.4929  0.1222 -0.9450
  794MOL0     C 7097   7.363   4.322   9.585 -0.0111  0.8088  0.9694
  794MOL0     C 7098   7.501   4.255   9.554  1.0101 -0.9507  0.2616
  794MOL0    Cl 7099   7.623   4.301   9.664  0.1243 -0.1696  0.0540
  794MOL0     C 7100   6.348   4.292   9.517 -0.2821 -0.4401 -0.5177
  794MOL0     C 7101   6.212   4.297   9.560 -0.0986 -0.0460  0.1640
  794MOL0     O 7102   5.957   4.429   9.402 -0.5334 -0.3072  0.8796
  794MOL0     C 7103   5.685   4.448   9.438  0.7105  0.1344 -0.0677
  794MOL0     C 7104   5.549   4.446   9.455  0.2802  0.2610 -0.3272
  794MOL0     N 7105   5.319   4.588  10.103 -0.1018 -0.2135 -0.8185
  794MOL0     N 7106   5.205   4.647  10.140 -0.2472  0.3450 -0.2611
  794MOL0     C 7107   4.080   4.848  10.456  0.7870 -0.1018 -0.0578
  794MOL0     C 7108   3.957   4.896  10.418 -0.5519 -0.2499  0.1501
  794MOL0     C 7109   3.532   5.026  10.490 -0.3643  0.1183  0.6547
  794MOL0     C 7110   3.564   5.121  10.395 -0.1544  0.0937 -0.0418
  794MOL0     C 7111   3.486   5.234  10.367 -0.3799 -1.1071 -0.5111
  794MOL0     C 7112   3.370   5.251  10.434  0.4821  0.1190 -0.1600
  794MOL0     O 7113   3.285   5.350  10.384 -0.2909 -0.6870  0.2575
  794MOL0     C 7114   3.156   5.387  10.444 -0.2510  0.3063  0.5254
  794MOL0     C 7115   3.169   5.512  10.536  0.3205  0.4522 -0.7159
  794MOL0     C 7116   3.223   5.473  10.682  0.0146 -0.2014 -0.3473
  794MOL0     C 7117   3.103   5.412  10.756  0.1775 -0.1181  0.1388
  794MOL0     C 7118   3.000   5.513  10.797  0.6293 -0.2390 -0.1123
  794MOL0     C 7119   2.909   5.580  10.842  0.5811  0.1575 -0.9292
  794MOL0     C 7120   3.335   5.171  10.543  0.7089  0.1475 -0.1553
  794MOL0     C 7121   3.416   5.054  10.569 -0.4394  0.1133 -0.3609
  794MOL0     C 7122   3.353   4.948  10.668 -0.0772 -0.4202  0.4650
  794MOL0     H 7123   3.760   4.653  10.489  0.8780 -1.3288 -2.2798
  794MOL0     H 7124   3.977   4.550  10.576 -2.4031  0.0208  0.5825
  794MOL0     H 7125   4.250   4.564  10.390 -0.0932  0.5385 -0.6368
  794MOL0     H 7126   4.336   4.718  10.411  1.7622 -0.7202  0.8356
  794MOL0     H 7127   4.396   4.455  10.515  1.2748 -1.0146  1.4226
  794MOL0     H 7128   4.435   4.591  10.624  1.5561 -2.3497  0.0075
  794MOL0     H 7129   4.551   4.705  10.426 -0.6990  0.6620  1.6577
  794MOL0     H 7130   4.537   4.548  10.345  1.6366 -0.5557  0.3427
  794MOL0     H 7131   4.684   4.592  10.609  0.7742 -2.3971  0.3960
  794MOL0     H 7132   4.662   4.442  10.537  2.7508 -0.5002  2.9339
  794MOL0     H 7133   4.876   4.524  10.490 -1.0910 -1.7310  0.4242
  794MOL0     H 7134   4.777   4.468  10.358  1.1212 -0.5638 -0.3863
  794MOL0     H 7135   4.752   4.690  10.256 -0.3329  4.2935  1.9845
  794MOL0     H 7136   4.822   4.774  10.393  0.7187 -0.4847  0.3558
  794MOL0     H 7137   5.034   4.637  10.333  1.5285 -2.2415 -2.1846
  794MOL0     H 7138   4.983   4.760  10.223  0.7140 -0.6020  1.7273
  794MOL0     H 7139   4.922   4.465  10.154  2.1081 -0.5432 -2.0128
  794MOL0     H 7140   4.890   4.608  10.072  0.6205 -0.2827 -1.8648
  794MOL0     H 7141   5.104   4.357  10.009  1.0710  0.7207 -1.5277
  794MOL0     H 7142   5.481   4.424   9.983  2.0969 -2.4692 -2.1303
  794MOL0     H 7143   5.395   4.274  10.037 -1.7846  0.1511  1.6175
  794MOL0     H 7144   5.416   4.265   9.791  1.8487  1.6137 -0.0871
  794MOL0     H 7145   5.240   4.290   9.828  0.5351 -1.3951 -0.8078
  794MOL0     H 7146   5.437   4.516   9.726 -1.1393  2.6116  1.0448
  794MOL0     H 7147   5.280   4.542   9.781 -0.5778  0.0261 -0.7906
  794MOL0     H 7148   5.277   4.536   9.550  0.8314 -0.9757 -1.8830
  794MOL0     H 7149   5.169   4.424   9.632 -1.0988  3.5563 -1.4968
  794MOL0     H 7150   5.502   4.146   9.582  0.0965 -0.7708 -0.5100
  794MOL0     H 7151   5.753   4.143   9.556  1.3365  0.9372 -1.2512
  794MOL0     H 7152   6.090   4.055   9.368 -1.7317  1.0437 -1.5464
  794MOL0     H 7153   6.304   4.051   9.288  1.0724 -0.8673  1.4794
  794MOL0     H 7154   6.594   4.376   9.394  0.8210 -0.7880 -2.2256
  794MOL0     H 7155   6.620   4.264   9.535  0.4577  1.2308 -0.0859
  794MOL0     H 7156   6.760   4.121   9.415  1.9467 -0.4512 -0.5751
  794MOL0     H 7157   6.764   4.244   9.274 -1.2856  2.8312  0.6693
  794MOL0     H 7158   6.842   4.408   9.422 -2.1494 -0.2326  0.1325
  794MOL0     H 7159   6.858   4.301   9.554 -2.3268  1.4385 -0.1903
  794MOL0     H 7160   7.029   4.332   9.304 -1.1150  1.3173 -0.1941
  794MOL0     H 7161   7.038   4.176   9.388  0.5452  0.7610  0.4839
  794MOL0     H 7162   7.079   4.277   9.598 -0.1107  2.0980  0.6813
  794MOL0     H 7163   7.105   4.432   9.536 -2.4326 -0.2379  0.9551
  794MOL0     H 7164   7.273   4.171   9.454  0.8196  0.2489 -1.0157
  794MOL0     H 7165   7.290   4.326   9.379  2.0970  0.7744  0.0706
  794MOL0     H 7166   7.340   4.288   9.686 -1.1096 -1.4270  0.0279
  794MOL0     H 7167   7.380   4.430   9.583 -0.0216  0.8555 -1.8322
  794MOL0     H 7168   7.489   4.146   9.563 -2.6930 -0.9554 -2.1323
  794MOL0     H 7169   7.534   4.283   9.453  0.2735  0.7624  0.4706
  794MOL0     H 7170   6.421   4.359   9.562  0.0311  0.3834 -2.1552
  794MOL0     H 7171   6.187   4.377   9.630  3.8707 -0.3874  2.1992
  794MOL0     H 7172   5.732   4.534   9.391 -0.6314  1.2125  0.4891
  794MOL0     H 7173   5.494   4.537   9.432  1.4161  1.2224  0.7016
  794MOL0     H 7174   4.170   4.902  10.428  0.4717  0.5872  0.2258
  794MOL0     H 7175   3.958   4.992  10.367 -0.5808  0.2313  1.0480
  794MOL0     H 7176   3.659   5.127  10.343 -0.7158  2.8982 -0.9618
  794MOL0     H 7177   3.506   5.299  10.282 -1.9134  0.2050  0.0901
  794MOL0     H 7178   3.111   5.294  10.481 -0.8417 -0.2064 -1.3672
  794MOL0     H 7179   3.092   5.418  10.361  1.7794 -2.0126 -2.1025
  794MOL0     H 7180   3.069   5.557  10.539 -0.0787 -0.4412 -0.1733
  794MOL0     H 7181   3.228   5.591  10.490 -2.0678  2.7062 -0.1547
  794MOL0     H 7182   3.253   5.568  10.726 -1.1301 -0.3901  0.9273
  794MOL0     H 7183   3.301   5.396  10.675 -1.4560 -1.7980 -0.0205
  794MOL0     H 7184   3.053   5.337  10.695  1.0761 -3.9046  3.6488
  794MOL0     H 7185   3.141   5.365  10.847  0.4618 -0.0577  0.0519
  794MOL0     H 7186   2.822   5.636  10.869  0.6976 -1.2794  3.3333
  794MOL0     H 7187   3.242   5.178  10.599  1.3193  0.1930  0.8740
  794MOL0     H 7188   3.246   4.961  10.686 -0.0126  0.2095  0.4133
  794MOL0     H 7189   3.357   4.849  10.622 -0.4730 -1.0334  1.7269
  794MOL0     H 7190   3.404   4.940  10.764 -0.1477  0.8235  0.6278
  795MOL0     O 7191  10.752   6.635   8.668 -0.9321  0.1387 -0.3597
  795MOL0     C 7192  10.665   6.577   8.728  0.0346  0.0310  0.2863
  795MOL0     O 7193  10.652   6.556   8.863  0.9465 -0.0447  0.2152
  795MOL0     C 7194  10.762   6.554   8.948  0.3636 -0.2970  0.8298
  795MOL0     C 7195  10.725   6.595   9.073 -0.5730 -0.5063  0.5740
  795MOL0     C 7196  10.828   6.611   9.167 -0.1870  0.1239  0.2521
  795MOL0     C 7197  10.963   6.585   9.131  0.0563  0.0183  0.0029
  795MOL0     O 7198  11.063   6.608   9.222  0.4438 -0.0727  0.1143
  795MOL0     C 7199  11.144   6.499   9.259 -0.4230 -0.1019  0.6163
  795MOL0     C 7200  11.206   6.512   9.401  0.0693  0.1137 -0.6470
  795MOL0     C 7201  11.309   6.626   9.387 -0.4833 -0.2223 -0.2510
  795MOL0     C 7202  11.452   6.593   9.423 -0.1744  0.6935 -0.7878
  795MOL0     C 7203  11.474   6.572   9.576 -0.3178  0.1170  0.3609
  795MOL0     C 7204  11.629   6.603   9.608 -0.5408  1.2213 -0.3160
  795MOL0     C 7205  11.744   6.511   9.541  1.1921 -0.3916  0.7282
  795MOL0     C 7206  11.708   6.359   9.560  0.2206  0.8911 -0.1868
  795MOL0     N 7207  11.820   6.265   9.539  0.1513 -0.6675 -0.1587
  795MOL0     C 7208  11.871   6.240   9.422 -0.1388  1.0718 -0.0086
  795MOL0     C 7209  11.982   6.172   9.443  0.7895  0.1220  0.2060
  795MOL0     C 7210  12.080   6.116   9.342 -0.4409  0.0334  0.0497
  795MOL0     C 7211  12.006   6.010   9.258  0.1227  0.0845 -0.3632
  795MOL0     C 7212  12.094   5.968   9.132  0.3471 -0.6191 -0.1845
  795MOL0     C 7213  12.249   5.950   9.149  1.0502 -0.1924 -0.3792
  795MOL0     O 7214  12.317   6.082   9.129 -0.5857  0.2697  0.2848
  795MOL0     C 7215  12.453   6.084   9.137 -0.4334  0.9061  0.6841
  795MOL0     C 7216  12.511   6.213   9.160  0.1564  0.2861  0.7749
  795MOL0     C 7217  12.657   6.235   9.187  0.0519  0.4218  0.6096
  795MOL0     C 7218  12.739   6.121   9.184 -0.0455  1.3458  0.5783
  795MOL0     C 7219  12.878   6.133   9.229  0.4135  0.3504  0.4251
  795MOL0     O 7220  12.972   6.028   9.214 -0.1239  0.0738 -0.3922
  795MOL0     C 7221  13.103   6.058   9.244  0.1537  0.1194 -0.7291
  795MOL0     C 7222  13.175   6.146   9.165  0.4928 -0.2995 -0.1988
  795MOL0     C 7223  13.303   6.191   9.208  0.3694  0.4131  1.3912
  795MOL0     C 7224  13.366   6.127   9.317 -0.0543  0.2463 -0.0847
  795MOL0     O 7225  13.494   6.178   9.337  0.2246  0.2013  0.4150
  795MOL0     C 7226  13.582   6.103   9.419 -0.0784 -0.3764  0.3354
  795MOL0     C 7227  13.566   6.133   9.570  0.5326  0.0672 -0.1580
  795MOL0     C 7228  13.694   6.071   9.628 -0.7985 -0.4234 -0.6538
  795MOL0     C 7229  13.683   6.033   9.775  0.7962 -0.1275  0.9539
  795MOL0     C 7230  13.807   5.959   9.825 -0.0989 -0.3687 -0.8994
  795MOL0     C 7231  13.798   5.948   9.981  0.0060 -1.2883 -0.5507
  795MOL0     C 7232  13.921   5.880  10.047  0.5922  0.4928 -0.5933
  795MOL0     C 7233  14.051   5.950  10.012 -1.1913 -0.5992  0.4279
  795MOL0    Cl 7234  14.175   5.827  10.084 -0.0265 -0.0907  0.0014
  795MOL0     C 7235  13.293   6.044   9.396  0.3524 -0.8140  0.2245
  795MOL0     C 7236  13.164   6.015   9.361  0.3389 -0.4161  0.8206
  795MOL0     O 7237  12.900   6.237   9.282 -0.3831 -0.1624  0.2657
  795MOL0     C 7238  12.682   5.998   9.135  0.4658 -0.1176 -0.1055
  795MOL0     C 7239  12.538   5.974   9.121 -0.2797 -0.2002  0.1223
  795MOL0     N 7240  12.004   6.170   9.580 -0.1648  0.1413  0.4024
  795MOL0     N 7241  11.910   6.234   9.635 -0.6163 -0.6011  0.4444
  795MOL0     C 7242  10.996   6.537   9.008  0.1085  0.2755 -0.4110
  795MOL0     C 7243  10.892   6.523   8.913 -0.1934  0.5661  0.3965
  795MOL0     C 7244  10.542   6.521   8.653  0.4648  0.3124 -0.4781
  795MOL0     C 7245  10.442   6.453   8.730 -0.3083 -0.5876  0.1143
  795MOL0     C 7246  10.332   6.404   8.670  0.5599  0.1670 -0.0474
  795MOL0     C 7247  10.303   6.418   8.534 -0.2004  0.4998  0.4792
  795MOL0     O 7248  10.174   6.380   8.489 -0.2548  0.1112  0.2162
  795MOL0     C 7249  10.126   6.412   8.355 -0.5813 -0.7011 -0.1374
  795MOL0     C 7250  10.095   6.556   8.334  0.3348 -0.4373 -0.6264
  795MOL0     C 7251  10.023   6.631   8.450 -1.5941  0.7835  0.6953
  795MOL0     C 7252  10.014   6.778   8.427 -0.2916 -0.7380  0.2579
  795MOL0     C 7253   9.919   6.807   8.323 -0.0928  0.0826 -0.4751
  795MOL0     C 7254   9.828   6.819   8.250  0.0133  0.0032  0.6904
  795MOL0     C 7255  10.398   6.481   8.459 -0.1533 -0.4891  0.9721
  795MOL0     C 7256  10.511   6.528   8.516 -0.2631 -0.4343  0.5208
  795MOL0     C 7257  10.606   6.593   8.414 -0.1725  0.0623  0.5537
  795MOL0     H 7258  10.622   6.616   9.100 -1.7741 -0.2724 -3.4471
  795MOL0     H 7259  10.808   6.631   9.271  0.2111 -1.4515  0.6601
  795MOL0     H 7260  11.075   6.414   9.253  0.0025 -0.3925 -0.2886
  795MOL0     H 7261  11.220   6.487   9.182  0.3847 -1.3346  1.5620
  795MOL0     H 7262  11.241   6.421   9.449  0.3286  0.6956  0.3057
  795MOL0     H 7263  11.127   6.546   9.470 -0.6809 -0.4864 -1.1940
  795MOL0     H 7264  11.284   6.718   9.440 -0.5623 -0.2280 -0.2784
  795MOL0     H 7265  11.304   6.658   9.282 -0.0042  3.6582  0.7756
  795MOL0     H 7266  11.502   6.517   9.363  3.0599  2.4853 -0.6040
  795MOL0     H 7267  11.511   6.681   9.395  0.1233  0.7027 -0.1420
  795MOL0     H 7268  11.410   6.633   9.640  3.3688 -0.4011  5.0457
  795MOL0     H 7269  11.441   6.473   9.609  2.7911 -1.7090 -1.5097
  795MOL0     H 7270  11.646   6.708   9.585  2.6722  0.9188  0.3010
  795MOL0     H 7271  11.633   6.597   9.717  0.0127 -0.5216 -0.3965
  795MOL0     H 7272  11.834   6.537   9.598  1.2769  1.2820 -0.0990
  795MOL0     H 7273  11.757   6.542   9.437 -0.5059 -0.0279  0.5946
  795MOL0     H 7274  11.676   6.345   9.664 -1.2219  3.9113 -0.0998
  795MOL0     H 7275  11.622   6.335   9.497 -0.3304  0.5162  0.6961
  795MOL0     H 7276  11.850   6.283   9.325 -0.3560  0.0760 -0.4115
  795MOL0     H 7277  12.119   6.207   9.295  0.8132 -0.2752  0.4645
  795MOL0     H 7278  12.165   6.064   9.387  1.3412 -0.9266 -4.0155
  795MOL0     H 7279  11.989   5.921   9.319 -0.4118  0.9317  0.7519
  795MOL0     H 7280  11.901   6.039   9.247  0.5145  1.7387  0.0062
  795MOL0     H 7281  12.065   6.044   9.060  0.0173  0.8034  1.3897
  795MOL0     H 7282  12.063   5.872   9.088  0.1648 -0.4610 -0.3988
  795MOL0     H 7283  12.289   5.879   9.076  1.4198 -0.2592 -0.1185
  795MOL0     H 7284  12.275   5.926   9.252 -1.7002  0.8417  0.6413
  795MOL0     H 7285  12.445   6.298   9.174  0.9144  0.9969  0.1445
  795MOL0     H 7286  12.692   6.336   9.207  0.6422  0.6056 -1.1865
  795MOL0     H 7287  13.129   6.191   9.078 -1.0532 -2.4081 -0.5579
  795MOL0     H 7288  13.334   6.282   9.158  1.8145 -1.6317 -1.7406
  795MOL0     H 7289  13.577   5.995   9.403  1.3769 -0.6797  1.6578
  795MOL0     H 7290  13.673   6.148   9.377 -1.6626  1.7473 -1.0081
  795MOL0     H 7291  13.563   6.241   9.586 -1.9387 -0.2806  2.6014
  795MOL0     H 7292  13.477   6.093   9.618 -1.7695  3.1914 -1.4851
  795MOL0     H 7293  13.730   5.986   9.569  1.2063  1.2802 -2.0676
  795MOL0     H 7294  13.778   6.142   9.619 -0.9706 -0.4166 -2.5901
  795MOL0     H 7295  13.596   5.968   9.788  1.5014 -1.2351  0.2898
  795MOL0     H 7296  13.669   6.128   9.828 -1.7397 -0.9531  1.8844
  795MOL0     H 7297  13.893   6.019   9.795  1.2385 -1.8774 -0.2331
  795MOL0     H 7298  13.824   5.865   9.772 -1.5601 -0.8035 -0.6373
  795MOL0     H 7299  13.786   6.051  10.015 -0.9220 -1.0429 -1.5626
  795MOL0     H 7300  13.707   5.893  10.007 -2.1116  2.6451  1.3036
  795MOL0     H 7301  13.911   5.775  10.019 -0.2729  0.1282  0.9881
  795MOL0     H 7302  13.903   5.885  10.155 -4.1654 -1.5741 -1.0429
  795MOL0     H 7303  14.070   5.955   9.904 -0.5504  0.6546  0.5865
  795MOL0     H 7304  14.045   6.044  10.067  0.1837 -1.1504  1.5729
  795MOL0     H 7305  13.337   6.006   9.488 -0.1921 -0.9123  0.4436
  795MOL0     H 7306  13.107   5.939   9.413  1.5812 -4.8823 -3.6014
  795MOL0     H 7307  12.742   5.908   9.125 -1.5817 -1.3163 -3.0045
  795MOL0     H 7308  12.496   5.877   9.095 -2.1270  0.8344 -0.9966
  795MOL0     H 7309  11.098   6.502   8.990 -0.3466 -0.4023 -1.7604
  795MOL0     H 7310  10.917   6.494   8.811 -2.6174 -1.0454  0.1820
  795MOL0     H 7311  10.453   6.435   8.837  1.3073 -3.3853 -0.4368
  795MOL0     H 7312  10.260   6.347   8.727  3.2864 -2.5869  0.8943
  795MOL0     H 7313  10.031   6.365   8.328 -1.0207  0.0519  0.0439
  795MOL0     H 7314  10.198   6.398   8.274 -1.6908 -0.2452 -1.2328
  795MOL0     H 7315  10.017   6.557   8.257 -0.6409 -0.7343  0.3192
  795MOL0     H 7316  10.182   6.617   8.311  0.4294 -0.4950 -0.4194
  795MOL0     H 7317  10.073   6.616   8.546 -0.2067 -1.5483 -0.3064
  795MOL0     H 7318   9.921   6.592   8.462 -1.1760 -0.0897  1.6417
  795MOL0     H 7319   9.973   6.810   8.523  3.2825  0.3961  1.5728
  795MOL0     H 7320  10.108   6.832   8.413 -2.2807  2.7014 -1.1160
  795MOL0     H 7321   9.753   6.815   8.174  1.8191 -2.2753 -1.1072
  795MOL0     H 7322  10.375   6.494   8.354 -2.0446  0.8870  1.5104
  795MOL0     H 7323  10.711   6.576   8.440  0.4040  0.8666 -1.1034
  795MOL0     H 7324  10.589   6.547   8.316 -0.4863 -1.3331  1.2327
  795MOL0     H 7325  10.587   6.700   8.397  3.5513  0.5158 -1.8715
  796MOL0     O 7326   6.682  11.150   1.293  0.2708 -0.0644 -0.2395
  796MOL0     C 7327   6.641  11.157   1.178  0.0826  0.0823  0.3877
  796MOL0     O 7328   6.717  11.153   1.063  0.0822 -0.1497 -0.5109
  796MOL0     C 7329   6.851  11.161   1.074  0.2053 -0.1824  0.3059
  796MOL0     C 7330   6.930  11.089   1.155  0.7762 -0.1927  0.1317
  796MOL0     C 7331   7.067  11.087   1.157  0.3668 -0.1866  0.4402
  796MOL0     C 7332   7.131  11.168   1.063  0.1087  0.4894  0.4152
  796MOL0     O 7333   7.264  11.150   1.040  0.5663  0.7572 -0.6743
  796MOL0     C 7334   7.332  11.211   0.928 -0.0199  0.2124 -0.4121
  796MOL0     C 7335   7.482  11.196   0.937  0.0159  0.0516  0.6700
  796MOL0     C 7336   7.536  11.055   0.944 -0.5706 -0.1390  0.3438
  796MOL0     C 7337   7.691  11.052   0.930 -0.2799 -0.2912  0.4441
  796MOL0     C 7338   7.750  10.915   0.893 -0.8466 -0.4448 -0.3183
  796MOL0     C 7339   7.901  10.908   0.935  0.7072 -0.2441 -0.6595
  796MOL0     C 7340   7.983  11.024   0.867  0.0316  0.8005  0.1301
  796MOL0     C 7341   8.132  10.992   0.864  0.1762  0.1504 -0.9594
  796MOL0     N 7342   8.187  11.032   1.001  0.3825  0.1412  0.4232
  796MOL0     C 7343   8.189  11.164   1.042  0.8084 -0.1002 -0.3435
  796MOL0     C 7344   8.231  11.172   1.170  1.0340  0.2247  0.4580
  796MOL0     C 7345   8.238  11.297   1.255 -0.0169 -1.0195  0.8244
  796MOL0     C 7346   8.372  11.335   1.300 -0.7001 -0.0124 -0.0491
  796MOL0     C 7347   8.465  11.401   1.190 -0.1788 -0.0695 -0.1061
  796MOL0     C 7348   8.592  11.457   1.250 -0.8679 -0.5550  0.0367
  796MOL0     O 7349   8.686  11.345   1.285 -0.3054  0.4859  0.1180
  796MOL0     C 7350   8.819  11.373   1.297  0.3900  0.5059  0.0284
  796MOL0     C 7351   8.911  11.277   1.243 -0.3157 -0.5213  0.4318
  796MOL0     C 7352   9.049  11.300   1.265  0.6458 -0.8230  0.9540
  796MOL0     C 7353   9.097  11.417   1.337 -0.4039  0.5684  0.2613
  796MOL0     C 7354   9.238  11.429   1.381 -0.4287  0.4130 -0.3140
  796MOL0     O 7355   9.320  11.329   1.342 -0.1374  0.1570  0.6858
  796MOL0     C 7356   9.440  11.299   1.408 -0.6557  0.1759  0.8438
  796MOL0     C 7357   9.545  11.263   1.321 -0.0734  0.3155 -0.0558
  796MOL0     C 7358   9.665  11.229   1.373 -0.4850 -0.0988  0.2331
  796MOL0     C 7359   9.691  11.236   1.515  0.6755  0.2131  0.5130
  796MOL0     O 7360   9.824  11.212   1.561  1.1614  0.2349  0.4344
  796MOL0     C 7361   9.868  11.302   1.663  0.0712  0.1368  0.7382
  796MOL0     C 7362  10.015  11.259   1.681 -0.3392 -0.3490  0.0737
  796MOL0     C 7363  10.088  11.373   1.754 -0.5287  0.6854 -0.5872
  796MOL0     C 7364  10.222  11.323   1.813 -0.4795 -0.0005 -0.5146
  796MOL0     C 7365  10.275  11.414   1.913 -0.5978 -0.5389 -0.3457
  796MOL0     C 7366  10.319  11.545   1.846 -0.0644 -0.4091  0.0568
  796MOL0     C 7367  10.412  11.619   1.928 -0.4027 -0.5861  0.5071
  796MOL0     C 7368  10.352  11.667   2.058 -0.3886 -0.5741  0.6023
  796MOL0    Cl 7369  10.401  11.546   2.182  0.7546  0.2091 -0.4893
  796MOL0     C 7370   9.583  11.276   1.598 -0.1085  1.7918 -0.1297
  796MOL0     C 7371   9.462  11.309   1.542  0.4798 -0.8413  0.1670
  796MOL0     O 7372   9.283  11.525   1.440  0.4598 -0.1579  0.4810
  796MOL0     C 7373   9.003  11.508   1.374  0.2715 -0.7453 -0.8475
  796MOL0     C 7374   8.862  11.491   1.362 -0.1021  0.2784  0.4659
  796MOL0     N 7375   8.246  11.039   1.207 -0.7589 -0.5448  0.3377
  796MOL0     N 7376   8.227  10.958   1.104 -1.1312 -0.3770  0.6336
  796MOL0     C 7377   7.054  11.247   0.968 -0.5355  0.3480  0.2045
  796MOL0     C 7378   6.916  11.242   0.979 -0.0346 -0.1283  1.2060
  796MOL0     C 7379   6.492  11.169   1.155  0.2772  0.1068  0.5431
  796MOL0     C 7380   6.441  11.159   1.025  0.1850  1.1637 -0.4242
  796MOL0     C 7381   6.305  11.180   1.003 -0.4877 -0.0656  0.1754
  796MOL0     C 7382   6.212  11.203   1.107  0.2768 -0.6354 -0.3086
  796MOL0     O 7383   6.090  11.243   1.077 -0.2554 -0.1046  0.0570
  796MOL0     C 7384   6.002  11.293   1.178  0.3426 -0.0720  0.0232
  796MOL0     C 7385   6.008  11.448   1.192 -0.0774  0.1769  0.1394
  796MOL0     C 7386   5.948  11.518   1.066  0.1228  0.1643  0.7694
  796MOL0     C 7387   6.040  11.527   0.949  0.1718  0.4175  0.4843
  796MOL0     C 7388   5.979  11.593   0.836  0.0578 -0.2097 -0.3358
  796MOL0     C 7389   5.942  11.635   0.724  1.0736  0.0666 -0.0201
  796MOL0     C 7390   6.267  11.208   1.232  0.4141 -0.0794  0.3524
  796MOL0     C 7391   6.406  11.197   1.263 -0.2306 -0.0464 -0.4109
  796MOL0     C 7392   6.438  11.230   1.402 -0.6033  0.1878  0.0220
  796MOL0     H 7393   6.867  11.036   1.226 -3.1203  0.5948 -2.3804
  796MOL0     H 7394   7.107  11.005   1.216 -1.0401 -0.9141  0.4367
  796MOL0     H 7395   7.301  11.176   0.829 -0.0836 -1.2485  0.1092
  796MOL0     H 7396   7.328  11.320   0.937  1.6941  0.2272  0.6935
  796MOL0     H 7397   7.516  11.249   1.026  3.0822 -3.8630  2.1601
  796MOL0     H 7398   7.526  11.231   0.843 -0.0704 -3.6192 -0.9292
  796MOL0     H 7399   7.498  11.017   0.848 -1.6679  0.4938  0.5177
  796MOL0     H 7400   7.500  10.992   1.026  0.6518 -1.1597  0.1315
  796MOL0     H 7401   7.705  11.117   0.844 -0.9504 -1.8011 -0.8476
  796MOL0     H 7402   7.739  11.092   1.020  1.4608 -1.3361  0.0295
  796MOL0     H 7403   7.698  10.830   0.937  1.1914 -1.2215  0.7325
  796MOL0     H 7404   7.748  10.903   0.784 -0.8134 -2.1826 -0.1602
  796MOL0     H 7405   7.923  10.904   1.043  3.7574 -1.7165 -1.2255
  796MOL0     H 7406   7.938  10.813   0.896  1.4706 -1.6311  3.0306
  796MOL0     H 7407   7.971  11.121   0.915  1.1583  0.5694  0.9457
  796MOL0     H 7408   7.955  11.026   0.762 -0.7187  2.5956  0.3437
  796MOL0     H 7409   8.148  10.885   0.846  1.5532 -0.1386  1.4020
  796MOL0     H 7410   8.181  11.055   0.790  0.9878 -0.2401 -0.7767
  796MOL0     H 7411   8.164  11.256   0.990 -0.7622 -0.4156 -0.1814
  796MOL0     H 7412   8.190  11.377   1.198  0.5747 -0.5690  0.9569
  796MOL0     H 7413   8.179  11.283   1.346 -1.4238 -0.1672  0.0639
  796MOL0     H 7414   8.359  11.404   1.384 -2.8611 -0.7156  0.2608
  796MOL0     H 7415   8.419  11.242   1.331 -1.6740 -1.0871 -1.6639
  796MOL0     H 7416   8.409  11.486   1.149  2.0925  2.1506  1.1545
  796MOL0     H 7417   8.498  11.328   1.115  0.6943 -0.5580  0.7340
  796MOL0     H 7418   8.568  11.498   1.349 -1.3790  0.6636 -0.5741
  796MOL0     H 7419   8.622  11.529   1.173 -0.2669  0.3936  1.1088
  796MOL0     H 7420   8.881  11.186   1.191  0.7403 -0.9494  0.5550
  796MOL0     H 7421   9.127  11.230   1.237  0.1544 -1.3531  0.8854
  796MOL0     H 7422   9.505  11.265   1.220  1.5469  0.2624 -0.7203
  796MOL0     H 7423   9.733  11.190   1.298  0.0830  1.0145  0.1473
  796MOL0     H 7424   9.858  11.404   1.624  1.1496 -0.5149 -1.4372
  796MOL0     H 7425   9.809  11.295   1.755  0.7008  2.0425  1.3483
  796MOL0     H 7426  10.012  11.179   1.755 -0.2379 -2.2764 -1.9140
  796MOL0     H 7427  10.062  11.222   1.590 -0.8750  0.6173 -0.6155
  796MOL0     H 7428  10.095  11.458   1.685 -1.7751 -0.1695 -1.8233
  796MOL0     H 7429  10.021  11.417   1.829 -2.8715  1.0503 -2.7278
  796MOL0     H 7430  10.287  11.299   1.729 -0.6718  0.9861 -0.9566
  796MOL0     H 7431  10.205  11.228   1.865  0.9478  0.5880  1.1048
  796MOL0     H 7432  10.362  11.372   1.965 -0.2831 -1.9890 -1.9759
  796MOL0     H 7433  10.198  11.433   1.989 -0.9623  0.2099 -0.8916
  796MOL0     H 7434  10.367  11.520   1.750  0.4789  0.6819  0.0304
  796MOL0     H 7435  10.227  11.600   1.828 -2.7365 -4.5069 -0.2797
  796MOL0     H 7436  10.444  11.707   1.873  0.3194 -0.5032  1.0332
  796MOL0     H 7437  10.498  11.555   1.952  0.0626 -0.8816 -1.7524
  796MOL0     H 7438  10.405  11.760   2.082  0.1186 -1.3584  2.6295
  796MOL0     H 7439  10.243  11.676   2.065 -0.5377 -0.8682 -0.8359
  796MOL0     H 7440   9.601  11.277   1.705  0.8467 -0.7741 -0.1864
  796MOL0     H 7441   9.377  11.334   1.604  0.1784 -0.1969 -0.4976
  796MOL0     H 7442   9.035  11.597   1.426 -0.6951 -0.3575 -0.8943
  796MOL0     H 7443   8.803  11.581   1.378  1.9279  1.8859 -0.6415
  796MOL0     H 7444   7.111  11.295   0.889  0.4954 -3.0902 -1.3331
  796MOL0     H 7445   6.861  11.297   0.903  1.0693  1.4537  1.5016
  796MOL0     H 7446   6.511  11.161   0.941  1.1114 -0.9016  0.2538
  796MOL0     H 7447   6.263  11.186   0.903 -0.8455  0.0980  0.3309
  796MOL0     H 7448   6.006  11.244   1.276  0.5981 -1.7630 -0.7841
  796MOL0     H 7449   5.899  11.272   1.149 -0.5284  1.0991  2.0613
  796MOL0     H 7450   6.107  11.491   1.208  0.6928 -0.9046 -1.3946
  796MOL0     H 7451   5.948  11.473   1.280 -0.6503  2.6594 -0.8651
  796MOL0     H 7452   5.932  11.623   1.093 -1.1403 -0.1313  1.2369
  796MOL0     H 7453   5.856  11.467   1.038  0.1707  0.8296 -0.6796
  796MOL0     H 7454   6.132  11.575   0.986 -0.3629 -0.1397  2.6576
  796MOL0     H 7455   6.072  11.432   0.907 -0.0829  0.8758 -0.7781
  796MOL0     H 7456   5.913  11.657   0.623 -2.9949 -2.2966  0.3899
  796MOL0     H 7457   6.205  11.206   1.321 -0.8499 -2.4048 -0.5066
  796MOL0     H 7458   6.358  11.283   1.455 -0.1689  1.2897 -0.4041
  796MOL0     H 7459   6.460  11.137   1.456  0.1829  0.6409  0.5028
  796MOL0     H 7460   6.521  11.299   1.416  0.4342 -1.3698  2.2026
  797MOL0     O 7461   4.121   0.862   1.644  0.2175  0.3041 -0.3094
  797MOL0     C 7462   4.052   0.788   1.574  0.8992 -0.1523  0.0048
  797MOL0     O 7463   3.920   0.785   1.584 -0.1415  0.6045 -0.3390
  797MOL0     C 7464   3.843   0.830   1.689 -0.7940  0.0411  0.2927
  797MOL0     C 7465   3.714   0.863   1.649  0.9693 -0.7033  0.2851
  797MOL0     C 7466   3.614   0.892   1.744  0.9216  0.0731 -0.0310
  797MOL0     C 7467   3.646   0.880   1.879  0.2210 -1.0787  0.0191
  797MOL0     O 7468   3.556   0.896   1.979  0.4237  0.2614  0.7893
  797MOL0     C 7469   3.428   0.962   1.952  0.0976 -0.4091  0.0954
  797MOL0     C 7470   3.393   1.033   2.084 -0.0286  0.2069 -0.5986
  797MOL0     C 7471   3.314   1.159   2.057  0.7564 -0.1347 -0.2709
  797MOL0     C 7472   3.257   1.197   2.187  0.4367 -0.1307  0.4830
  797MOL0     C 7473   3.174   1.330   2.172  0.0756 -1.5697  0.1148
  797MOL0     C 7474   3.083   1.356   2.298  0.8495 -0.5018 -0.1351
  797MOL0     C 7475   3.008   1.498   2.295 -0.2242 -0.6803 -1.2194
  797MOL0     C 7476   2.959   1.539   2.434  0.7410 -0.0326 -0.0496
  797MOL0     N 7477   2.841   1.471   2.491  0.7171 -0.3356  0.2661
  797MOL0     C 7478   2.712   1.477   2.439 -0.3190  0.8367  0.0134
  797MOL0     C 7479   2.643   1.380   2.492 -0.4863  0.0795  0.6803
  797MOL0     C 7480   2.492   1.362   2.483  0.0105 -0.3906  0.5370
  797MOL0     C 7481   2.436   1.213   2.519  0.1430 -1.1835 -0.7959
  797MOL0     C 7482   2.432   1.106   2.412  0.1520  0.3844 -1.3336
  797MOL0     C 7483   2.568   1.099   2.333 -0.6825 -0.6979  1.3973
  797MOL0     O 7484   2.555   1.002   2.234  0.7863  0.2241  0.0309
  797MOL0     C 7485   2.668   0.966   2.169  0.1597  0.8814  0.2797
  797MOL0     C 7486   2.802   0.996   2.205 -0.5108 -0.7191 -0.8110
  797MOL0     C 7487   2.914   0.953   2.141 -0.1088  0.2786 -0.0925
  797MOL0     C 7488   2.885   0.890   2.026 -0.7327  0.5985 -0.1640
  797MOL0     C 7489   3.002   0.855   1.939  0.2486 -0.3839 -1.1023
  797MOL0     O 7490   2.976   0.844   1.805  0.1412 -0.3695  0.3502
  797MOL0     C 7491   3.081   0.840   1.711 -0.0296 -0.0209  0.0676
  797MOL0     C 7492   3.115   0.718   1.651  0.0639 -1.2221  0.0223
  797MOL0     C 7493   3.206   0.721   1.547  0.2319 -0.1474 -0.5072
  797MOL0     C 7494   3.279   0.838   1.516  0.3506  0.1355 -0.0459
  797MOL0     O 7495   3.374   0.847   1.412 -0.0913  0.2736 -0.1766
  797MOL0     C 7496   3.460   0.735   1.381  0.6140 -0.6549 -0.3050
  797MOL0     C 7497   3.540   0.783   1.256 -0.2163 -1.1393 -0.9296
  797MOL0     C 7498   3.656   0.693   1.229 -0.4896 -0.3596  0.3278
  797MOL0     C 7499   3.608   0.553   1.210  0.4686  0.1916  0.0281
  797MOL0     C 7500   3.721   0.445   1.222  1.0344  0.5851 -0.5183
  797MOL0     C 7501   3.767   0.396   1.078 -0.0376 -0.5696 -0.6476
  797MOL0     C 7502   3.895   0.310   1.084  0.0958  0.1735  0.4471
  797MOL0     C 7503   3.918   0.221   0.965 -0.9297 -0.2456 -0.3577
  797MOL0    Cl 7504   3.833   0.070   0.982 -0.1319  0.5547  0.0346
  797MOL0     C 7505   3.250   0.954   1.579  0.8505  0.0880  0.2148
  797MOL0     C 7506   3.149   0.959   1.672  0.4564  0.4183  0.4212
  797MOL0     O 7507   3.108   0.843   1.991 -0.3051 -0.3848 -0.4310
  797MOL0     C 7508   2.757   0.865   1.976  0.2777  0.4359 -0.8483
  797MOL0     C 7509   2.650   0.891   2.058  0.3440  0.0547 -0.7379
  797MOL0     N 7510   2.729   1.314   2.577  0.0797 -0.6994 -0.8094
  797MOL0     N 7511   2.850   1.366   2.577 -0.3775  0.7594  0.5406
  797MOL0     C 7512   3.774   0.848   1.917 -1.2296  0.1972 -0.2023
  797MOL0     C 7513   3.875   0.829   1.822 -0.2303  0.7564  0.1099
  797MOL0     C 7514   4.118   0.723   1.459 -0.5870 -0.0652  0.3398
  797MOL0     C 7515   4.028   0.675   1.357  0.4937  0.6752  1.2026
  797MOL0     C 7516   4.083   0.609   1.239 -0.5900 -0.3212 -0.2984
  797MOL0     C 7517   4.211   0.582   1.230 -0.1844 -0.6934  1.0349
  797MOL0     O 7518   4.254   0.504   1.126 -0.0841 -0.7974 -1.1835
  797MOL0     C 7519   4.355   0.412   1.157  0.0859  0.1311 -0.1117
  797MOL0     C 7520   4.489   0.456   1.092 -0.0745 -0.1690 -0.4984
  797MOL0     C 7521   4.491   0.445   0.941 -0.4895 -0.3807  0.0830
  797MOL0     C 7522   4.625   0.499   0.873 -0.2001 -1.2286  0.2636
  797MOL0     C 7523   4.745   0.422   0.904  0.8836  0.2281 -0.7970
  797MOL0     C 7524   4.830   0.344   0.929  0.2471 -0.3173  1.3343
  797MOL0     C 7525   4.299   0.627   1.322  0.5386 -0.4189 -0.6431
  797MOL0     C 7526   4.256   0.693   1.437  0.4378  0.2829  0.3553
  797MOL0     C 7527   4.366   0.749   1.526  0.6469 -1.1438 -0.3382
  797MOL0     H 7528   3.688   0.875   1.545  1.4995  1.6746  0.3655
  797MOL0     H 7529   3.517   0.926   1.709  0.0613 -1.3682  0.8919
  797MOL0     H 7530   3.442   1.030   1.868  0.0249 -0.4234  0.0719
  797MOL0     H 7531   3.354   0.888   1.922  0.2610 -1.0284  1.1282
  797MOL0     H 7532   3.485   1.052   2.139  0.8416 -2.3981 -0.9828
  797MOL0     H 7533   3.340   0.963   2.150 -0.1044  0.7814 -0.0466
  797MOL0     H 7534   3.229   1.139   1.990  0.1987  0.2798  0.3066
  797MOL0     H 7535   3.370   1.231   1.996  0.4610 -0.3167 -0.7589
  797MOL0     H 7536   3.185   1.118   2.211 -1.0982  0.5731 -1.4592
  797MOL0     H 7537   3.323   1.216   2.271 -2.4222 -0.3598  2.9314
  797MOL0     H 7538   3.246   1.412   2.161 -1.4352  0.2731  2.9146
  797MOL0     H 7539   3.112   1.326   2.082 -0.3741 -0.1074  0.3404
  797MOL0     H 7540   3.011   1.274   2.307  1.2273 -1.3716 -3.6396
  797MOL0     H 7541   3.146   1.351   2.388 -0.0828 -1.6386  0.4887
  797MOL0     H 7542   2.914   1.476   2.243 -0.8104 -1.4162  0.0936
  797MOL0     H 7543   3.072   1.577   2.255  1.5109 -1.1086  0.5668
  797MOL0     H 7544   3.040   1.516   2.504  1.0492 -1.5186 -0.8508
  797MOL0     H 7545   2.943   1.647   2.439  1.3545 -0.0095  3.0633
  797MOL0     H 7546   2.688   1.549   2.361  0.2666  1.0674  0.0417
  797MOL0     H 7547   2.439   1.430   2.550 -0.4430 -1.1387  0.9599
  797MOL0     H 7548   2.463   1.384   2.380 -0.1684 -2.3241  0.1278
  797MOL0     H 7549   2.489   1.172   2.605 -3.4780 -0.7225  1.8907
  797MOL0     H 7550   2.336   1.234   2.558  0.1779 -3.5172  0.7423
  797MOL0     H 7551   2.346   1.126   2.347 -1.6000  1.7590  1.2405
  797MOL0     H 7552   2.418   1.011   2.464  0.9923  1.1148  0.3127
  797MOL0     H 7553   2.648   1.084   2.405  2.1547  2.4450 -0.7756
  797MOL0     H 7554   2.594   1.193   2.284  0.3896 -2.2142 -1.1436
  797MOL0     H 7555   2.824   1.046   2.298  0.8949 -3.1600  0.2822
  797MOL0     H 7556   3.013   0.975   2.179  0.8147  1.3373 -2.8769
  797MOL0     H 7557   3.076   0.622   1.683  2.7099 -2.2439  0.4349
  797MOL0     H 7558   3.227   0.624   1.502 -0.1151 -1.9303  2.8702
  797MOL0     H 7559   3.527   0.717   1.466  0.2932  0.3128  0.1727
  797MOL0     H 7560   3.402   0.645   1.361 -0.2986 -0.2388  0.3821
  797MOL0     H 7561   3.473   0.794   1.170 -3.0107  3.4504  1.4289
  797MOL0     H 7562   3.570   0.887   1.267 -1.7537 -0.5505 -1.9785
  797MOL0     H 7563   3.732   0.718   1.154 -2.1827  0.6699 -1.1095
  797MOL0     H 7564   3.705   0.696   1.327 -2.1840  1.0026  1.1814
  797MOL0     H 7565   3.568   0.537   1.110  0.8772  2.7972 -0.6233
  797MOL0     H 7566   3.532   0.518   1.281 -0.4337  1.8320 -0.0781
  797MOL0     H 7567   3.673   0.356   1.262 -1.0412 -0.8744 -5.4252
  797MOL0     H 7568   3.808   0.475   1.281  0.0976  2.2565  0.0816
  797MOL0     H 7569   3.692   0.341   1.020  0.5840 -1.8847 -0.2558
  797MOL0     H 7570   3.792   0.490   1.028  1.1655 -1.1598 -1.1961
  797MOL0     H 7571   3.890   0.238   1.166  2.5783 -1.0691 -0.3750
  797MOL0     H 7572   3.983   0.374   1.096 -0.2768  1.2849 -2.1495
  797MOL0     H 7573   3.900   0.267   0.867 -0.9912  3.0348  1.0479
  797MOL0     H 7574   4.025   0.201   0.970 -0.9189 -0.3607 -1.0100
  797MOL0     H 7575   3.306   1.044   1.554  0.2246  0.0454 -1.4576
  797MOL0     H 7576   3.132   1.061   1.705 -0.3303  0.1541  0.8713
  797MOL0     H 7577   2.723   0.818   1.885 -2.1383 -1.1837  0.7608
  797MOL0     H 7578   2.547   0.870   2.029  0.4482 -0.3159 -0.8406
  797MOL0     H 7579   3.792   0.854   2.024  0.9523 -0.3732 -0.4774
  797MOL0     H 7580   3.979   0.820   1.855 -0.4553 -1.4902  0.3412
  797MOL0     H 7581   3.921   0.689   1.367 -0.0732  0.4082 -2.7891
  797MOL0     H 7582   4.021   0.590   1.152  1.1482  0.2779 -1.7031
  797MOL0     H 7583   4.336   0.316   1.109  2.1505 -0.4835  0.2173
  797MOL0     H 7584   4.350   0.386   1.263  1.7742 -0.3882 -0.1338
  797MOL0     H 7585   4.567   0.390   1.130 -0.9790 -1.2172 -0.4434
  797MOL0     H 7586   4.519   0.557   1.124  1.3507 -1.2223  1.7162
  797MOL0     H 7587   4.407   0.501   0.897 -1.2937 -1.1820  0.5776
  797MOL0     H 7588   4.469   0.340   0.923  0.0638 -0.3243 -1.0632
  797MOL0     H 7589   4.624   0.479   0.765  1.7987 -0.0777 -0.0109
  797MOL0     H 7590   4.636   0.605   0.893  0.1154 -1.4083  1.0807
  797MOL0     H 7591   4.895   0.263   0.955  0.8756  0.1730  1.3372
  797MOL0     H 7592   4.406   0.614   1.308  0.8438  0.8763  0.2414
  797MOL0     H 7593   4.360   0.858   1.520  2.5126 -1.0403 -1.2190
  797MOL0     H 7594   4.346   0.718   1.629  0.3679  2.1776  0.7310
  797MOL0     H 7595   4.466   0.717   1.494 -0.1718 -2.7403 -1.4468
  798MOL0     O 7596   1.120   3.574   4.304  0.0033 -0.1850  0.5751
  798MOL0     C 7597   1.151   3.505   4.207 -0.8999  0.7550  0.6820
  798MOL0     O 7598   1.282   3.467   4.178  0.8603  0.4378  0.1149
  798MOL0     C 7599   1.388   3.497   4.262  0.6206 -0.0365 -1.4700
  798MOL0     C 7600   1.511   3.509   4.207 -0.3224  0.2662  0.1078
  798MOL0     C 7601   1.621   3.538   4.283  0.0429  0.2176 -0.1030
  798MOL0     C 7602   1.617   3.584   4.419  0.1047 -0.7810  0.4464
  798MOL0     O 7603   1.724   3.631   4.484 -0.4626 -0.0993 -1.2389
  798MOL0     C 7604   1.719   3.714   4.601 -0.0597  0.0111 -0.5025
  798MOL0     C 7605   1.860   3.761   4.635 -0.5354 -0.2453  0.6478
  798MOL0     C 7606   1.854   3.888   4.720 -0.2394 -0.1093  0.2749
  798MOL0     C 7607   1.988   3.965   4.737 -0.1466 -0.2935  0.1843
  798MOL0     C 7608   1.974   4.109   4.782 -0.0531  0.2497  0.5216
  798MOL0     C 7609   1.892   4.128   4.908 -0.5240 -0.5019  0.3187
  798MOL0     C 7610   1.931   4.257   4.999 -0.3253  0.6342 -0.1012
  798MOL0     C 7611   1.877   4.255   5.139 -0.0232  0.8732 -0.2357
  798MOL0     N 7612   1.947   4.149   5.214 -0.4566 -0.2622 -0.2470
  798MOL0     C 7613   2.078   4.106   5.202  0.0579 -0.3630 -0.5441
  798MOL0     C 7614   2.083   3.994   5.286  0.4976 -0.0282 -0.3456
  798MOL0     C 7615   2.204   3.907   5.296  0.3344 -0.3290 -0.8532
  798MOL0     C 7616   2.280   3.958   5.416 -0.2991  0.1112 -0.9711
  798MOL0     C 7617   2.397   3.866   5.464  0.1625  0.2654  0.5630
  798MOL0     C 7618   2.525   3.931   5.411 -0.3680 -0.4473  0.7103
  798MOL0     O 7619   2.539   3.915   5.272 -0.0320  0.0917  0.5015
  798MOL0     C 7620   2.663   3.940   5.231 -0.4008  0.7060  0.9391
  798MOL0     C 7621   2.684   3.916   5.090 -0.9214 -0.1897  0.4578
  798MOL0     C 7622   2.807   3.949   5.029 -0.1887 -0.1602 -0.0203
  798MOL0     C 7623   2.916   4.003   5.101  0.0467  0.5663  0.2949
  798MOL0     C 7624   3.037   4.050   5.034  0.7948  0.2737  0.8556
  798MOL0     O 7625   3.121   4.114   5.117 -0.3023  0.2310  0.3387
  798MOL0     C 7626   3.252   4.164   5.077 -0.1338  0.1613  0.4017
  798MOL0     C 7627   3.369   4.117   5.138 -0.1818  0.6865 -0.2448
  798MOL0     C 7628   3.481   4.175   5.102  0.2823 -0.0589 -0.7326
  798MOL0     C 7629   3.494   4.279   5.014 -0.4469  0.1592 -0.2205
  798MOL0     O 7630   3.610   4.328   4.961 -0.5654 -0.2640  0.3101
  798MOL0     C 7631   3.742   4.289   5.013  0.4699 -0.8170 -0.4253
  798MOL0     C 7632   3.761   4.319   5.169 -0.5146  0.3376 -0.0673
  798MOL0     C 7633   3.874   4.228   5.225  0.9883  0.4127 -0.3207
  798MOL0     C 7634   3.929   4.258   5.360 -1.0565  0.2977 -0.2419
  798MOL0     C 7635   4.007   4.386   5.367 -0.4420 -0.2703  0.0114
  798MOL0     C 7636   4.081   4.403   5.497 -0.2134  0.1121  0.0228
  798MOL0     C 7637   4.177   4.520   5.492  0.9791  0.4915  0.1122
  798MOL0     C 7638   4.239   4.548   5.636 -0.6485 -0.0215 -0.1108
  798MOL0    Cl 7639   4.395   4.637   5.632  0.2054 -0.4483  0.4694
  798MOL0     C 7640   3.378   4.332   4.950 -0.4830  0.4778  0.7244
  798MOL0     C 7641   3.255   4.272   4.984 -0.6637  0.5361  0.4184
  798MOL0     O 7642   3.054   4.038   4.914  0.0569 -0.0289 -0.3226
  798MOL0     C 7643   2.893   4.024   5.240 -0.9843 -0.5265  1.0924
  798MOL0     C 7644   2.772   3.999   5.297 -0.8207  0.1904 -0.1581
  798MOL0     N 7645   1.962   3.963   5.350  0.3054 -0.1739 -0.2386
  798MOL0     N 7646   1.884   4.061   5.308 -0.0531 -0.6504  0.3318
  798MOL0     C 7647   1.489   3.579   4.473  0.8227  0.3929  0.3028
  798MOL0     C 7648   1.378   3.537   4.399  0.8288  0.0847  1.1944
  798MOL0     C 7649   1.052   3.427   4.129 -0.1908 -0.6859 -0.2736
  798MOL0     C 7650   0.936   3.503   4.090 -0.2105  0.3474 -0.5201
  798MOL0     C 7651   0.820   3.438   4.032  0.5592 -0.2311  1.3977
  798MOL0     C 7652   0.827   3.305   4.009 -0.1766 -0.0271 -0.9695
  798MOL0     O 7653   0.716   3.255   3.939 -0.3952 -0.2134 -0.7829
  798MOL0     C 7654   0.678   3.127   3.976  0.3312 -0.1420  0.1632
  798MOL0     C 7655   0.735   3.017   3.882 -0.2737  0.3494 -0.5367
  798MOL0     C 7656   0.737   2.886   3.957  0.2368  0.3098  0.6901
  798MOL0     C 7657   0.823   2.773   3.881 -0.1640  0.3458 -0.2786
  798MOL0     C 7658   0.728   2.690   3.809  0.6974  0.9701 -0.0765
  798MOL0     C 7659   0.635   2.622   3.760 -0.5116  0.4555 -0.1746
  798MOL0     C 7660   0.943   3.230   4.052  0.2642  1.3204  0.4573
  798MOL0     C 7661   1.050   3.287   4.115 -0.1014  0.2293 -0.2482
  798MOL0     C 7662   1.153   3.197   4.172  0.1188  0.1147 -0.2678
  798MOL0     H 7663   1.506   3.479   4.103 -0.2043 -2.7587  0.8901
  798MOL0     H 7664   1.712   3.524   4.225 -1.3142  0.6640 -2.4403
  798MOL0     H 7665   1.651   3.797   4.581 -0.4539 -0.5123 -1.3649
  798MOL0     H 7666   1.685   3.654   4.685  0.8205 -2.1860 -1.6294
  798MOL0     H 7667   1.904   3.784   4.538  0.8287 -4.6866 -0.0545
  798MOL0     H 7668   1.922   3.679   4.673 -0.4094 -1.6480 -2.3406
  798MOL0     H 7669   1.814   3.875   4.820  0.5861 -2.7825  0.3388
  798MOL0     H 7670   1.786   3.955   4.667 -0.8680  1.2658  2.7075
  798MOL0     H 7671   2.056   3.902   4.794  1.1954 -1.1907 -2.2631
  798MOL0     H 7672   2.030   3.973   4.637  1.3627  0.2369  0.8408
  798MOL0     H 7673   2.076   4.147   4.794 -1.3629  4.2794  0.3404
  798MOL0     H 7674   1.926   4.170   4.705 -1.4330 -1.0352  0.3121
  798MOL0     H 7675   1.783   4.126   4.893 -0.8096  2.7739  1.1805
  798MOL0     H 7676   1.902   4.034   4.964  2.8442  0.1736  1.0270
  798MOL0     H 7677   1.884   4.343   4.951 -2.8609 -0.0953  0.9295
  798MOL0     H 7678   2.039   4.271   5.008 -0.4047  1.5111 -0.4276
  798MOL0     H 7679   1.887   4.353   5.187  1.8311  0.5603  0.0968
  798MOL0     H 7680   1.769   4.234   5.131  0.3277 -0.2277 -2.9142
  798MOL0     H 7681   2.160   4.148   5.144  0.1630 -0.7796 -0.6976
  798MOL0     H 7682   2.183   3.804   5.326  0.7102  0.0665  0.8976
  798MOL0     H 7683   2.277   3.908   5.215  1.3905 -0.4537  0.0675
  798MOL0     H 7684   2.312   4.058   5.385 -1.3490 -0.5779 -4.6942
  798MOL0     H 7685   2.216   3.964   5.504 -0.3075 -0.6100 -0.9191
  798MOL0     H 7686   2.381   3.766   5.423 -1.9766  0.9826 -0.5213
  798MOL0     H 7687   2.394   3.859   5.573 -1.1902 -3.3156  0.4385
  798MOL0     H 7688   2.606   3.890   5.472 -0.5282 -2.1700 -0.1725
  798MOL0     H 7689   2.521   4.035   5.443  3.6481 -0.1662  0.7580
  798MOL0     H 7690   2.605   3.864   5.037 -1.0717  0.6141 -0.1154
  798MOL0     H 7691   2.814   3.951   4.921  0.1335 -0.6866 -0.0088
  798MOL0     H 7692   3.363   4.042   5.216 -1.8464  0.1408 -0.8415
  798MOL0     H 7693   3.564   4.133   5.157  0.1656 -0.3900 -0.8097
  798MOL0     H 7694   3.753   4.182   4.991  1.7617 -0.6468 -0.7188
  798MOL0     H 7695   3.813   4.352   4.959  0.7561 -0.1067  0.7386
  798MOL0     H 7696   3.793   4.423   5.182  1.7359 -0.5154  2.0460
  798MOL0     H 7697   3.669   4.310   5.226 -1.0626 -1.9555 -1.2016
  798MOL0     H 7698   3.824   4.133   5.243  1.8169  0.5313  3.2032
  798MOL0     H 7699   3.954   4.215   5.151  0.8420  3.7208 -1.2150
  798MOL0     H 7700   3.986   4.168   5.384  0.7012  1.5811  0.6246
  798MOL0     H 7701   3.851   4.263   5.437  0.3542  1.0585  1.2056
  798MOL0     H 7702   3.930   4.463   5.367 -1.0518 -0.8558 -1.2258
  798MOL0     H 7703   4.079   4.405   5.287 -0.8167 -2.4166 -0.9009
  798MOL0     H 7704   4.009   4.404   5.579 -1.5566 -2.9037 -0.9778
  798MOL0     H 7705   4.132   4.307   5.513  1.1210  0.7783 -0.0564
  798MOL0     H 7706   4.118   4.606   5.458 -0.1625  1.1065  3.3129
  798MOL0     H 7707   4.262   4.492   5.429  0.4486 -1.1927  0.0922
  798MOL0     H 7708   4.179   4.627   5.683  1.8160  1.8560  0.0840
  798MOL0     H 7709   4.252   4.453   5.688  1.2871 -0.7636 -1.8195
  798MOL0     H 7710   3.387   4.413   4.877 -0.0799 -1.0045 -0.9482
  798MOL0     H 7711   3.161   4.295   4.935  0.6435  0.5044 -2.3108
  798MOL0     H 7712   2.975   4.067   5.298  0.6486 -0.2721 -1.2910
  798MOL0     H 7713   2.758   4.026   5.401 -0.0806 -1.6621  0.4527
  798MOL0     H 7714   1.477   3.620   4.573  0.4255  2.8778 -0.6814
  798MOL0     H 7715   1.289   3.541   4.462 -1.3546  1.4680 -1.7034
  798MOL0     H 7716   0.932   3.607   4.121 -1.4937 -0.0934  0.9568
  798MOL0     H 7717   0.733   3.482   3.985  0.5609 -1.7807 -0.1593
  798MOL0     H 7718   0.569   3.119   3.971  0.3373 -0.3509  0.3447
  798MOL0     H 7719   0.723   3.108   4.074  1.3867 -2.7786 -0.7181
  798MOL0     H 7720   0.835   3.045   3.846  1.3000  0.5985  3.5070
  798MOL0     H 7721   0.674   3.004   3.793  1.0341  2.2549 -1.7950
  798MOL0     H 7722   0.637   2.847   3.979 -0.4422  1.6930  0.1879
  798MOL0     H 7723   0.790   2.901   4.052  3.4382 -0.3674 -0.8529
  798MOL0     H 7724   0.901   2.806   3.812  0.3535  0.1953  0.2218
  798MOL0     H 7725   0.872   2.708   3.955 -0.8085 -0.8267 -0.8485
  798MOL0     H 7726   0.549   2.562   3.737  0.3888 -2.1197  2.5626
  798MOL0     H 7727   0.941   3.123   4.033  1.7521  1.3992 -0.3174
  798MOL0     H 7728   1.248   3.232   4.130 -0.6676  0.1439 -2.1307
  798MOL0     H 7729   1.151   3.209   4.280  2.9450  1.9438 -0.2917
  798MOL0     H 7730   1.134   3.094   4.141  1.0992 -1.1776  2.9776
  799MOL0     O 7731   7.374   2.223   0.839  0.0766  0.2142 -0.1299
  799MOL0     C 7732   7.310   2.125   0.809  0.0101  0.7919 -0.1248
  799MOL0     O 7733   7.356   2.007   0.773  0.0227 -0.1118  0.3768
  799MOL0     C 7734   7.486   2.003   0.722  0.3977  1.1824  0.4477
  799MOL0     C 7735   7.570   2.113   0.678 -0.2939 -0.0346  0.0780
  799MOL0     C 7736   7.707   2.095   0.649  1.1361 -0.6383 -0.3305
  799MOL0     C 7737   7.760   1.961   0.663 -0.2849 -0.1436 -0.8130
  799MOL0     O 7738   7.895   1.929   0.641 -0.4644 -0.0118  0.3086
  799MOL0     C 7739   7.980   2.013   0.552 -0.8565  0.7212 -0.1177
  799MOL0     C 7740   8.110   1.930   0.511 -0.2338 -0.2096  0.0933
  799MOL0     C 7741   8.198   2.003   0.412 -0.9852  0.1659 -0.3412
  799MOL0     C 7742   8.317   1.916   0.347  0.6831 -0.0249  1.2252
  799MOL0     C 7743   8.421   1.877   0.452 -0.2783 -0.1894 -0.6339
  799MOL0     C 7744   8.544   1.840   0.374 -0.9825  0.2070  0.2968
  799MOL0     C 7745   8.666   1.792   0.462 -0.2177 -0.6784 -0.3565
  799MOL0     C 7746   8.737   1.913   0.543  0.8268  0.4682  0.1592
  799MOL0     N 7747   8.853   1.875   0.615 -0.2630 -0.3376 -0.6269
  799MOL0     C 7748   8.964   1.826   0.547  0.1124  0.5539 -0.6221
  799MOL0     C 7749   9.068   1.834   0.640  0.2190  0.6067 -0.7173
  799MOL0     C 7750   9.211   1.791   0.609  0.1540 -1.0019  0.5073
  799MOL0     C 7751   9.284   1.882   0.510  0.3131  0.0944  0.0902
  799MOL0     C 7752   9.274   2.027   0.572 -0.0548 -0.9434  0.5143
  799MOL0     C 7753   9.386   2.118   0.512 -0.0136  0.2572  0.6499
  799MOL0     O 7754   9.512   2.055   0.554  0.4318  0.8554  0.3814
  799MOL0     C 7755   9.632   2.118   0.533 -0.6096 -0.6954  0.5998
  799MOL0     C 7756   9.742   2.062   0.593  0.7815  0.0195  0.2701
  799MOL0     C 7757   9.871   2.098   0.556  0.9174 -0.5334 -0.4448
  799MOL0     C 7758   9.892   2.204   0.460  0.0976 -0.1149 -0.6152
  799MOL0     C 7759  10.023   2.232   0.405 -0.6265  0.3077  0.1273
  799MOL0     O 7760  10.125   2.158   0.457  0.4982  0.1261 -0.1378
  799MOL0     C 7761  10.246   2.187   0.399 -0.2672  0.2611  0.3613
  799MOL0     C 7762  10.345   2.217   0.489 -0.5008 -0.2177 -0.4625
  799MOL0     C 7763  10.485   2.235   0.452 -0.0067  0.3034  0.5306
  799MOL0     C 7764  10.519   2.221   0.314 -1.0920  0.1357  0.8346
  799MOL0     O 7765  10.655   2.228   0.288 -0.4233  0.1338  0.2354
  799MOL0     C 7766  10.700   2.246   0.153 -0.3657 -0.2769  0.5843
  799MOL0     C 7767  10.850   2.247   0.143  0.0268 -0.2877  0.2701
  799MOL0     C 7768  10.915   2.106   0.147  0.0104 -0.8172 -0.0038
  799MOL0     C 7769  11.063   2.107   0.165 -0.1182 -0.4427 -0.3648
  799MOL0     C 7770  11.113   1.967   0.151  0.8748 -0.7997  0.3204
  799MOL0     C 7771  11.254   1.954   0.188 -0.5179  0.7803 -0.4516
  799MOL0     C 7772  11.348   2.016   0.080 -0.1887  0.5595 -0.0844
  799MOL0     C 7773  11.500   1.958   0.096 -0.4412 -0.7079  0.6624
  799MOL0    Cl 7774  11.612   2.029  -0.018  0.6887 -0.0008  0.2212
  799MOL0     C 7775  10.418   2.192   0.217  0.0499  0.0500 -0.3754
  799MOL0     C 7776  10.281   2.174   0.260  0.1297  0.1624  0.5948
  799MOL0     O 7777  10.030   2.312   0.313 -0.1767  1.1992  0.4411
  799MOL0     C 7778   9.778   2.257   0.406 -0.2366 -0.6253  0.6273
  799MOL0     C 7779   9.646   2.220   0.440 -0.1669 -0.7067 -0.6834
  799MOL0     N 7780   9.021   1.886   0.756 -0.0227 -1.1682 -0.1328
  799MOL0     N 7781   8.900   1.925   0.733  0.4987  0.0202 -0.6848
  799MOL0     C 7782   7.675   1.866   0.721  0.2935 -0.3397  0.5743
  799MOL0     C 7783   7.539   1.880   0.736  0.8720 -0.3631  0.4785
  799MOL0     C 7784   7.168   2.134   0.845  0.5464 -0.6598  0.3739
  799MOL0     C 7785   7.100   2.016   0.867 -0.5600  0.3371 -0.3413
  799MOL0     C 7786   6.967   2.012   0.902 -0.3309  0.6823 -0.6940
  799MOL0     C 7787   6.893   2.128   0.916  0.1075  0.3652  0.2026
  799MOL0     O 7788   6.760   2.127   0.957 -0.6346 -0.2205  0.5905
  799MOL0     C 7789   6.683   2.008   0.930 -0.4381  0.2265 -0.3716
  799MOL0     C 7790   6.543   2.018   0.960  0.3193 -0.7264  1.0896
  799MOL0     C 7791   6.462   2.081   0.843 -0.3672 -0.2979 -0.2025
  799MOL0     C 7792   6.307   2.097   0.867  0.2566  0.2717  1.1132
  799MOL0     C 7793   6.286   2.197   0.972 -0.2217 -0.7860  0.0173
  799MOL0     C 7794   6.277   2.279   1.058  0.3190  0.3328  0.2075
  799MOL0     C 7795   6.962   2.248   0.911  0.0983 -0.8481  0.0298
  799MOL0     C 7796   7.094   2.252   0.862 -0.6297  0.2114  0.7119
  799MOL0     C 7797   7.156   2.389   0.868 -0.2312  0.4074  0.6053
  799MOL0     H 7798   7.517   2.205   0.655  0.6538  0.5743  0.3001
  799MOL0     H 7799   7.761   2.174   0.598 -0.4920 -0.9026 -2.6240
  799MOL0     H 7800   7.919   2.018   0.461 -1.2838 -0.6236  0.0806
  799MOL0     H 7801   8.004   2.117   0.578  0.7163  0.3872 -0.1377
  799MOL0     H 7802   8.066   1.841   0.464  1.6000 -1.9535  1.4926
  799MOL0     H 7803   8.173   1.907   0.597  0.2424 -0.8181 -0.4152
  799MOL0     H 7804   8.243   2.097   0.446 -0.1391 -0.0477 -0.8219
  799MOL0     H 7805   8.134   2.029   0.327 -0.7855  1.1976 -0.1802
  799MOL0     H 7806   8.284   1.828   0.291  1.8606 -0.6333  1.4557
  799MOL0     H 7807   8.368   1.973   0.269  2.3709 -3.7213 -0.6418
  799MOL0     H 7808   8.432   1.960   0.522 -0.1881 -0.5107 -0.2640
  799MOL0     H 7809   8.388   1.791   0.512  0.6055 -0.8039 -1.0072
  799MOL0     H 7810   8.507   1.765   0.304 -0.7152  1.6347 -1.4230
  799MOL0     H 7811   8.582   1.923   0.314 -0.9250 -0.6652 -0.9029
  799MOL0     H 7812   8.739   1.741   0.399  2.3334  0.0262  1.8475
  799MOL0     H 7813   8.638   1.717   0.537  2.3209 -2.3249 -0.9479
  799MOL0     H 7814   8.764   1.981   0.462 -1.8261 -0.4980 -1.6937
  799MOL0     H 7815   8.657   1.961   0.602  1.0890 -0.4079  1.2670
  799MOL0     H 7816   8.962   1.776   0.451  1.5096  0.2439 -0.5053
  799MOL0     H 7817   9.269   1.773   0.701  1.1193 -1.3246 -0.1450
  799MOL0     H 7818   9.210   1.698   0.552 -1.4018  0.1988 -1.5223
  799MOL0     H 7819   9.384   1.839   0.498  0.3491  0.7140 -2.2142
  799MOL0     H 7820   9.239   1.866   0.412  1.8874 -1.8026 -0.3719
  799MOL0     H 7821   9.295   2.032   0.679 -1.3939  0.4792  0.7365
  799MOL0     H 7822   9.179   2.075   0.548  0.7473  0.3938 -0.1103
  799MOL0     H 7823   9.374   2.218   0.555  0.3545  0.3889  0.4508
  799MOL0     H 7824   9.383   2.122   0.403  2.3128  1.1294  0.5555
  799MOL0     H 7825   9.728   1.990   0.673 -1.7492  0.6653  0.4878
  799MOL0     H 7826   9.961   2.058   0.601  1.7501 -1.2394 -2.6155
  799MOL0     H 7827  10.330   2.226   0.596 -0.4380 -2.1460 -0.2547
  799MOL0     H 7828  10.555   2.268   0.528  2.8390  0.0134 -1.8069
  799MOL0     H 7829  10.658   2.158   0.104  0.7060 -0.7569  0.5119
  799MOL0     H 7830  10.657   2.341   0.121 -0.1687  0.0052  1.1430
  799MOL0     H 7831  10.879   2.306   0.056 -0.0095 -0.0447  0.4188
  799MOL0     H 7832  10.892   2.307   0.225 -0.2614 -1.8575  1.6266
  799MOL0     H 7833  10.874   2.040   0.224 -0.6319 -4.3689 -3.0633
  799MOL0     H 7834  10.886   2.055   0.055 -1.5710  0.4781 -0.2657
  799MOL0     H 7835  11.078   2.141   0.268  2.1241 -1.2083 -0.3889
  799MOL0     H 7836  11.105   2.172   0.088  0.8370 -1.8827 -1.1211
  799MOL0     H 7837  11.096   1.922   0.053  1.8833 -2.3795  0.8315
  799MOL0     H 7838  11.055   1.908   0.223 -1.2409 -0.8136 -1.2903
  799MOL0     H 7839  11.290   1.995   0.283  1.3395 -0.3444 -0.6181
  799MOL0     H 7840  11.273   1.846   0.189 -0.1526  0.8404  0.6372
  799MOL0     H 7841  11.342   2.125   0.088 -3.0592  0.3830  1.9252
  799MOL0     H 7842  11.318   1.975  -0.016  3.6721 -0.4169 -1.0337
  799MOL0     H 7843  11.541   1.988   0.193  1.7659 -1.3529 -0.0101
  799MOL0     H 7844  11.493   1.849   0.092  0.7962 -0.8713  2.1038
  799MOL0     H 7845  10.439   2.188   0.111 -3.6276 -1.1711 -1.2145
  799MOL0     H 7846  10.205   2.149   0.187 -0.1910  1.9985  0.2599
  799MOL0     H 7847   9.795   2.329   0.326 -0.5510 -0.5004  0.6691
  799MOL0     H 7848   9.565   2.275   0.392 -0.0726 -3.3512 -4.3020
  799MOL0     H 7849   7.721   1.768   0.720  2.3362  0.4294 -3.5200
  799MOL0     H 7850   7.476   1.802   0.776 -1.3793  0.9558 -0.2933
  799MOL0     H 7851   7.140   1.916   0.861 -1.4199  0.0013 -0.7447
  799MOL0     H 7852   6.932   1.910   0.916  0.5245 -0.0496 -3.2625
  799MOL0     H 7853   6.719   1.922   0.987 -0.6914  0.9684  0.9516
  799MOL0     H 7854   6.683   1.981   0.824  0.0095 -1.3066 -0.0086
  799MOL0     H 7855   6.528   2.079   1.050 -0.7338  2.1782 -0.8995
  799MOL0     H 7856   6.498   1.921   0.980 -0.6101 -0.4501  0.4339
  799MOL0     H 7857   6.484   2.017   0.757  0.7316 -0.8319  0.4565
  799MOL0     H 7858   6.492   2.186   0.830 -3.2967  0.4373 -1.8260
  799MOL0     H 7859   6.261   2.125   0.772  2.1412  0.9470  0.3419
  799MOL0     H 7860   6.260   2.003   0.898 -1.4810 -0.4397 -3.0398
  799MOL0     H 7861   6.271   2.357   1.131 -1.0882 -0.6777  1.2097
  799MOL0     H 7862   6.920   2.343   0.944 -0.0391 -1.3129  1.2602
  799MOL0     H 7863   7.199   2.418   0.772  2.5806  0.2703  1.7219
  799MOL0     H 7864   7.081   2.460   0.901  1.0410  2.1450 -0.0807
  799MOL0     H 7865   7.232   2.384   0.947 -2.4537 -2.4654  2.7838
  800MOL0     O 7866   7.468   3.319   7.378  0.2896 -0.3568 -0.2605
  800MOL0     C 7867   7.476   3.434   7.343 -0.0606  0.5566  1.0694
  800MOL0     O 7868   7.489   3.543   7.423 -0.6003  0.5363  0.5726
  800MOL0     C 7869   7.534   3.535   7.551  0.3944  0.5802 -0.0255
  800MOL0     C 7870   7.643   3.452   7.592  0.1440 -0.2641  0.4217
  800MOL0     C 7871   7.688   3.444   7.726 -1.1193  0.3582  0.1034
  800MOL0     C 7872   7.615   3.514   7.825 -0.5450  0.0544 -0.1999
  800MOL0     O 7873   7.670   3.513   7.957  0.2731  0.8437 -0.5836
  800MOL0     C 7874   7.813   3.535   7.967  0.4486  0.0766  0.9235
  800MOL0     C 7875   7.885   3.426   8.057  1.2323 -0.3913  0.2975
  800MOL0     C 7876   8.034   3.457   8.072  0.3157 -0.9466  0.1467
  800MOL0     C 7877   8.112   3.355   8.167  0.6542  0.2289  0.6643
  800MOL0     C 7878   8.262   3.376   8.174 -0.0838 -0.5960  0.0296
  800MOL0     C 7879   8.331   3.353   8.043  0.2785 -0.3629  0.0108
  800MOL0     C 7880   8.487   3.357   8.058 -0.1850  1.0017 -0.2981
  800MOL0     C 7881   8.532   3.492   8.110 -0.3249  0.4958  0.8259
  800MOL0     N 7882   8.679   3.497   8.099  0.1903 -0.5307 -0.2127
  800MOL0     C 7883   8.753   3.506   7.985 -0.3818 -0.1915  0.3285
  800MOL0     C 7884   8.883   3.513   8.029 -0.2816 -0.4074  0.0323
  800MOL0     C 7885   9.003   3.539   7.941 -1.2505  0.4522 -0.5176
  800MOL0     C 7886   9.094   3.648   7.987  0.1236 -0.4853  0.1435
  800MOL0     C 7887   9.231   3.627   7.918  0.1425 -0.6213  0.7002
  800MOL0     C 7888   9.332   3.729   7.964 -0.1050 -0.4878 -0.5864
  800MOL0     O 7889   9.278   3.860   7.925 -0.8923  0.4674  0.1037
  800MOL0     C 7890   9.342   3.978   7.946 -0.0581 -0.7417  0.0992
  800MOL0     C 7891   9.280   4.096   7.898  0.5005  0.3611 -1.3991
  800MOL0     C 7892   9.342   4.223   7.916  1.0444 -0.8845 -0.2150
  800MOL0     C 7893   9.455   4.225   7.986 -0.4325 -0.7994 -0.2657
  800MOL0     C 7894   9.510   4.358   8.006 -0.2447 -0.7248 -0.9150
  800MOL0     O 7895   9.443   4.462   7.946 -0.5308  0.2710  0.3013
  800MOL0     C 7896   9.521   4.576   7.935  0.1119 -1.0068  0.6176
  800MOL0     C 7897   9.490   4.688   8.012  0.7108  0.5825 -0.2761
  800MOL0     C 7898   9.559   4.802   7.981  0.1089 -0.5244  0.1169
  800MOL0     C 7899   9.670   4.816   7.897  0.8019 -0.7988  0.7564
  800MOL0     O 7900   9.716   4.944   7.886  0.1910  0.3842 -0.4290
  800MOL0     C 7901   9.785   4.975   7.759  0.4702 -0.0555  0.7028
  800MOL0     C 7902   9.800   5.127   7.765 -1.2012 -0.0856  0.5116
  800MOL0     C 7903   9.827   5.193   7.633  1.1188  0.3625  0.5369
  800MOL0     C 7904   9.867   5.334   7.638 -0.1680 -0.4477  0.0781
  800MOL0     C 7905   9.906   5.384   7.496  0.5313 -0.3293  0.4333
  800MOL0     C 7906   9.969   5.518   7.484  0.0108 -0.4420 -0.4611
  800MOL0     C 7907   9.959   5.581   7.344  0.2827  0.1957  0.4852
  800MOL0     C 7908  10.019   5.718   7.346  0.2328  0.3806  0.7108
  800MOL0    Cl 7909  10.195   5.711   7.370 -0.3837 -0.1742  0.2826
  800MOL0     C 7910   9.708   4.703   7.829 -0.0561 -0.1456  0.3684
  800MOL0     C 7911   9.630   4.587   7.844  1.0073 -0.1941 -0.5631
  800MOL0     O 7912   9.619   4.368   8.071  0.2752  0.8021  0.6407
  800MOL0     C 7913   9.520   4.107   8.030 -0.6280 -0.5558  0.2503
  800MOL0     C 7914   9.468   3.981   8.011 -0.1581 -0.2149  0.7621
  800MOL0     N 7915   8.879   3.520   8.171  0.3211  0.6127 -1.2663
  800MOL0     N 7916   8.752   3.509   8.208  0.0609  0.3669  0.0080
  800MOL0     C 7917   7.500   3.582   7.788 -0.1376  0.1334 -0.2913
  800MOL0     C 7918   7.464   3.594   7.653  0.3639  1.5974  0.2537
  800MOL0     C 7919   7.475   3.464   7.198  0.6087 -0.7959  0.4121
  800MOL0     C 7920   7.382   3.388   7.121  0.4510  0.3489  0.3976
  800MOL0     C 7921   7.383   3.400   6.991  0.1521 -0.2603  0.3553
  800MOL0     C 7922   7.471   3.481   6.915 -0.1739 -0.7500 -1.1239
  800MOL0     O 7923   7.471   3.485   6.782 -0.3942  0.0328  1.1575
  800MOL0     C 7924   7.406   3.378   6.709 -0.0681  0.7105  0.6169
  800MOL0     C 7925   7.371   3.412   6.565 -0.3849  0.6032  0.0042
  800MOL0     C 7926   7.498   3.442   6.485  0.2897 -0.3130  0.6960
  800MOL0     C 7927   7.453   3.498   6.346  0.4114  0.2400 -0.2065
  800MOL0     C 7928   7.569   3.545   6.269  0.0860 -0.3786  0.3527
  800MOL0     C 7929   7.659   3.572   6.199  0.2250 -0.0694  0.9788
  800MOL0     C 7930   7.572   3.546   6.990  0.6302 -0.0264 -0.1606
  800MOL0     C 7931   7.568   3.548   7.128  0.4471 -0.8169 -0.0558
  800MOL0     C 7932   7.679   3.619   7.191 -0.5769  0.9807 -0.2581
  800MOL0     H 7933   7.690   3.394   7.513 -1.4840 -1.1727  0.0742
  800MOL0     H 7934   7.774   3.388   7.760 -1.5882  0.9740  2.5229
  800MOL0     H 7935   7.863   3.534   7.869 -0.0978 -1.7705  0.6311
  800MOL0     H 7936   7.829   3.632   8.015 -1.1622  2.0798 -2.2310
  800MOL0     H 7937   7.873   3.331   8.005  2.6865  1.6617 -4.3135
  800MOL0     H 7938   7.841   3.412   8.156 -0.6077 -3.0380 -0.7809
  800MOL0     H 7939   8.046   3.562   8.101  3.2090 -1.1202 -0.1472
  800MOL0     H 7940   8.080   3.449   7.973  0.1534 -0.9380  0.0698
  800MOL0     H 7941   8.059   3.355   8.262 -4.9119 -0.5472 -2.0639
  800MOL0     H 7942   8.100   3.255   8.124  2.2780  0.0641  0.5141
  800MOL0     H 7943   8.274   3.477   8.214 -1.9213  0.2774 -1.4315
  800MOL0     H 7944   8.297   3.294   8.237 -0.8913 -2.3314 -1.6486
  800MOL0     H 7945   8.305   3.252   8.008  4.0166 -1.9210  1.2447
  800MOL0     H 7946   8.297   3.428   7.971 -1.0978 -0.5077  0.4838
  800MOL0     H 7947   8.541   3.325   7.968 -1.9035  0.3345 -1.1406
  800MOL0     H 7948   8.517   3.279   8.128  0.0717  0.2976 -1.1734
  800MOL0     H 7949   8.488   3.567   8.043  2.1691  1.8519  0.5992
  800MOL0     H 7950   8.495   3.512   8.211 -0.2686  0.2202  0.9013
  800MOL0     H 7951   8.722   3.514   7.881  2.2530 -0.0655 -0.5181
  800MOL0     H 7952   9.064   3.448   7.939 -0.3422  1.0490 -1.6885
  800MOL0     H 7953   8.972   3.559   7.838  0.1893 -0.8036 -1.2424
  800MOL0     H 7954   9.052   3.744   7.956  0.0572 -0.5803 -0.0658
  800MOL0     H 7955   9.110   3.639   8.094  2.3059  0.6279 -0.0282
  800MOL0     H 7956   9.224   3.622   7.809 -3.0495  2.2266  0.6160
  800MOL0     H 7957   9.268   3.529   7.950  0.6078  0.3436  3.3886
  800MOL0     H 7958   9.433   3.700   7.933 -0.1404 -0.2435 -0.9392
  800MOL0     H 7959   9.340   3.732   8.073  1.7663 -0.0003 -0.6900
  800MOL0     H 7960   9.179   4.079   7.864 -0.7878 -0.8314  2.4138
  800MOL0     H 7961   9.290   4.307   7.871 -1.2207 -1.1138  1.7616
  800MOL0     H 7962   9.418   4.676   8.092  1.5451 -2.7887  0.1367
  800MOL0     H 7963   9.536   4.896   8.030 -1.7228  0.3435 -2.2220
  800MOL0     H 7964   9.883   4.929   7.747  0.9602  0.9660  0.6527
  800MOL0     H 7965   9.725   4.948   7.672 -0.4821  0.4657  1.1719
  800MOL0     H 7966   9.713   5.185   7.798 -1.3910  0.1933 -0.4392
  800MOL0     H 7967   9.881   5.146   7.837 -0.5046  1.8124 -0.6797
  800MOL0     H 7968   9.906   5.136   7.584 -0.8357 -1.5771 -0.5367
  800MOL0     H 7969   9.732   5.189   7.579 -0.4389 -0.7545  3.1794
  800MOL0     H 7970   9.952   5.329   7.707 -0.4857 -0.7582  0.4472
  800MOL0     H 7971   9.790   5.398   7.681  0.8353  2.1239 -1.6685
  800MOL0     H 7972   9.806   5.378   7.451 -0.0150 -0.9649  1.6837
  800MOL0     H 7973   9.968   5.314   7.439  0.5248  0.4318 -0.5189
  800MOL0     H 7974   9.928   5.581   7.563 -0.3004  0.5776 -1.4115
  800MOL0     H 7975  10.072   5.514   7.521 -0.2720 -2.6237  0.2603
  800MOL0     H 7976   9.853   5.590   7.321  0.0615  1.0045  1.7788
  800MOL0     H 7977  10.003   5.507   7.275 -0.6971  0.8158 -0.8368
  800MOL0     H 7978   9.986   5.760   7.250 -0.8965  1.3647  1.4983
  800MOL0     H 7979   9.978   5.793   7.414  4.4143  3.0435  0.6962
  800MOL0     H 7980   9.795   4.706   7.764  1.0428  2.0151  1.8234
  800MOL0     H 7981   9.647   4.499   7.781  1.1025 -0.2403 -0.4748
  800MOL0     H 7982   9.614   4.120   8.083 -1.9242 -0.0344  2.5330
  800MOL0     H 7983   9.518   3.898   8.060  1.7340  2.7484  4.3660
  800MOL0     H 7984   7.432   3.620   7.864 -0.6823  0.1772 -0.7905
  800MOL0     H 7985   7.376   3.652   7.627 -0.5818 -0.3596 -1.0798
  800MOL0     H 7986   7.319   3.320   7.178  1.7507 -0.9763  0.3000
  800MOL0     H 7987   7.302   3.340   6.950  1.2151 -1.4777 -0.0296
  800MOL0     H 7988   7.307   3.357   6.751 -0.5631  1.6395 -0.0568
  800MOL0     H 7989   7.467   3.288   6.724 -1.4255 -0.1530  1.1541
  800MOL0     H 7990   7.296   3.490   6.548  0.4491  1.6061  0.8482
  800MOL0     H 7991   7.326   3.329   6.509 -0.4627  0.1390  0.7470
  800MOL0     H 7992   7.578   3.367   6.483  1.8280  1.1145  3.3030
  800MOL0     H 7993   7.553   3.521   6.537  0.1126 -0.3944  1.0116
  800MOL0     H 7994   7.417   3.412   6.289 -0.9812  0.2582  0.5917
  800MOL0     H 7995   7.382   3.581   6.353 -1.5634 -1.3773 -0.2800
  800MOL0     H 7996   7.739   3.597   6.132 -0.9196  0.1748 -0.3320
  800MOL0     H 7997   7.642   3.614   6.941 -0.6665  0.7813 -0.9480
  800MOL0     H 7998   7.769   3.622   7.130  0.7668  0.6574  1.5935
  800MOL0     H 7999   7.657   3.718   7.232  2.3108  0.4036  3.2689
  800MOL0     H 8000   7.714   3.561   7.277  1.0533  2.8563  0.4150
  801MOL0     O 8001   1.970   6.577   1.615  0.3536 -0.4399  0.4265
  801MOL0     C 8002   1.904   6.479   1.577  0.0784  0.3552 -0.4372
  801MOL0     O 8003   1.955   6.358   1.527  0.2229 -0.0027 -0.2825
  801MOL0     C 8004   2.082   6.359   1.487  0.0237 -0.0615  0.2322
  801MOL0     C 8005   2.107   6.378   1.354 -0.1011 -0.7799 -0.7836
  801MOL0     C 8006   2.236   6.362   1.304 -0.7101 -0.9454 -0.4081
  801MOL0     C 8007   2.337   6.337   1.397 -0.1448 -0.7209  0.8503
  801MOL0     O 8008   2.468   6.337   1.369  0.2617  0.2133  0.3118
  801MOL0     C 8009   2.516   6.321   1.232  0.7057 -0.5150  0.5488
  801MOL0     C 8010   2.668   6.347   1.215  0.7932 -0.4239  0.1271
  801MOL0     C 8011   2.708   6.493   1.241  1.3647  0.2723  0.2388
  801MOL0     C 8012   2.835   6.540   1.189  0.1806  0.2316 -0.5194
  801MOL0     C 8013   2.879   6.687   1.230 -0.4257  0.5501 -0.2940
  801MOL0     C 8014   3.027   6.700   1.209  0.2277  0.8066  0.1753
  801MOL0     C 8015   3.078   6.835   1.252 -0.0192  0.2024  0.3968
  801MOL0     C 8016   3.231   6.832   1.246  0.4117 -0.2339 -0.1148
  801MOL0     N 8017   3.276   6.908   1.130 -0.4723  0.1394  0.6347
  801MOL0     C 8018   3.257   6.870   0.995 -0.3530  0.9001  0.0248
  801MOL0     C 8019   3.301   6.979   0.926 -0.0433  0.1363  0.3888
  801MOL0     C 8020   3.293   6.999   0.774 -1.0547  0.4247  0.0144
  801MOL0     C 8021   3.425   6.979   0.698 -0.0316  0.1869  0.6559
  801MOL0     C 8022   3.521   7.090   0.744  0.7915  0.2058  0.0355
  801MOL0     C 8023   3.640   7.095   0.648 -0.1686  0.6152  0.2365
  801MOL0     O 8024   3.734   7.178   0.721 -0.4614 -0.1933 -0.1540
  801MOL0     C 8025   3.812   7.242   0.630 -0.0357  0.4277 -0.4171
  801MOL0     C 8026   3.794   7.382   0.614 -0.0589  0.1118  0.7711
  801MOL0     C 8027   3.883   7.450   0.528 -0.4494  0.7748  0.0647
  801MOL0     C 8028   3.989   7.385   0.464  0.1020 -0.0028 -1.0570
  801MOL0     C 8029   4.085   7.459   0.374 -0.1288  0.3620  0.1910
  801MOL0     O 8030   4.063   7.593   0.365 -0.3811  0.9157 -0.0210
  801MOL0     C 8031   4.155   7.682   0.313  0.4691  0.1884  0.5364
  801MOL0     C 8032   4.111   7.777   0.204 -0.7835 -0.5154  0.0685
  801MOL0     C 8033   4.205   7.868   0.147  0.3304  0.7114  0.0273
  801MOL0     C 8034   4.340   7.867   0.198  0.8964  0.0873 -1.0047
  801MOL0     O 8035   4.440   7.948   0.151  0.4749 -0.3727  1.2554
  801MOL0     C 8036   4.425   8.036   0.034  0.3339  0.2152 -0.2019
  801MOL0     C 8037   4.561   8.089   0.008 -0.0210  0.4227 -0.5480
  801MOL0     C 8038   4.655   7.971  -0.035 -0.2397 -0.4327 -0.6818
  801MOL0     C 8039   4.777   8.013  -0.115 -0.1963  0.1442 -0.5299
  801MOL0     C 8040   4.865   8.114  -0.032 -0.1716 -0.2730  0.2309
  801MOL0     C 8041   4.991   8.141  -0.121 -0.2359  0.1013  0.4309
  801MOL0     C 8042   5.105   8.201  -0.035  0.3856 -0.0033  0.1731
  801MOL0     C 8043   5.209   8.246  -0.124 -1.0110  0.3477 -0.1838
  801MOL0    Cl 8044   5.147   8.352  -0.262  0.0887  0.2637 -0.0723
  801MOL0     C 8045   4.379   7.773   0.294  0.5965 -0.1510  0.1683
  801MOL0     C 8046   4.287   7.694   0.362  1.1130 -0.5657 -0.7838
  801MOL0     O 8047   4.190   7.407   0.332  0.4584  0.8130  0.4998
  801MOL0     C 8048   4.007   7.249   0.482  0.2575  0.3466 -0.0838
  801MOL0     C 8049   3.918   7.174   0.564  0.8612  0.0925  1.0962
  801MOL0     N 8050   3.360   7.061   1.007 -0.4203 -0.0278 -0.2215
  801MOL0     N 8051   3.343   7.026   1.137  0.3342  0.2629  0.3951
  801MOL0     C 8052   2.310   6.310   1.533 -0.4375  0.5807  0.0364
  801MOL0     C 8053   2.179   6.318   1.580  1.3771  0.1548  0.2365
  801MOL0     C 8054   1.762   6.484   1.617  0.2325  0.1405  0.3986
  801MOL0     C 8055   1.725   6.408   1.724 -0.8547  0.1904  0.3569
  801MOL0     C 8056   1.597   6.402   1.773 -0.1742 -0.3360 -0.7135
  801MOL0     C 8057   1.500   6.468   1.694  0.3943 -0.4499 -0.9900
  801MOL0     O 8058   1.370   6.463   1.730 -0.4374  1.2327 -0.1437
  801MOL0     C 8059   1.314   6.333   1.767 -0.1185 -0.6127  0.5103
  801MOL0     C 8060   1.243   6.347   1.902 -0.1382  0.3346  0.0085
  801MOL0     C 8061   1.146   6.465   1.905 -0.1738 -1.2509  0.2068
  801MOL0     C 8062   1.045   6.458   2.020 -0.5630 -1.1137 -1.2068
  801MOL0     C 8063   0.939   6.359   1.979 -0.4785 -0.9767  0.1376
  801MOL0     C 8064   0.869   6.266   1.944  0.3094 -0.1337  0.3165
  801MOL0     C 8065   1.537   6.555   1.594  0.4000  0.1606 -0.5912
  801MOL0     C 8066   1.667   6.564   1.552 -0.2378 -0.3641  0.2533
  801MOL0     C 8067   1.708   6.669   1.448  0.1275 -0.1634  1.0125
  801MOL0     H 8068   2.023   6.402   1.289  1.4045  0.7480 -2.2656
  801MOL0     H 8069   2.261   6.384   1.201 -0.3045  2.8823  0.3471
  801MOL0     H 8070   2.490   6.221   1.196 -1.6136 -0.2845  1.3794
  801MOL0     H 8071   2.458   6.384   1.164  1.3208 -0.9660 -0.4108
  801MOL0     H 8072   2.695   6.304   1.118 -3.7317 -1.3498 -0.9762
  801MOL0     H 8073   2.716   6.292   1.296 -1.9323 -2.4350  0.5039
  801MOL0     H 8074   2.708   6.504   1.350  2.1366  0.2753  0.2420
  801MOL0     H 8075   2.640   6.560   1.188  0.5369 -0.7187  0.0317
  801MOL0     H 8076   2.906   6.462   1.221  0.4833  1.3225  1.6827
  801MOL0     H 8077   2.835   6.532   1.080  2.7252 -0.6270 -0.5254
  801MOL0     H 8078   2.825   6.744   1.154  2.6120  1.9576 -1.5813
  801MOL0     H 8079   2.845   6.708   1.332  0.7007 -1.7408  0.6303
  801MOL0     H 8080   3.078   6.617   1.258 -0.6401 -1.1292 -1.9850
  801MOL0     H 8081   3.045   6.695   1.101 -0.6164  1.6191 -0.0224
  801MOL0     H 8082   3.042   6.862   1.352  1.4474  1.3094  0.6593
  801MOL0     H 8083   3.035   6.914   1.191  1.2312 -0.1454 -0.9901
  801MOL0     H 8084   3.274   6.884   1.333  1.6725  1.3417 -1.6173
  801MOL0     H 8085   3.275   6.731   1.246  0.0820 -0.4002  0.9655
  801MOL0     H 8086   3.198   6.793   0.947 -1.5930  1.6402  0.3009
  801MOL0     H 8087   3.216   6.935   0.731  0.4251 -1.1957 -0.3562
  801MOL0     H 8088   3.264   7.104   0.761 -2.4381  0.0734  0.1604
  801MOL0     H 8089   3.461   6.878   0.723 -1.8016 -1.2869 -2.3050
  801MOL0     H 8090   3.419   6.987   0.590  2.5423  3.7531  0.6001
  801MOL0     H 8091   3.559   7.059   0.842 -0.7671 -3.6487 -0.4006
  801MOL0     H 8092   3.479   7.190   0.744  2.3945  0.9155  1.3025
  801MOL0     H 8093   3.592   7.129   0.556 -3.0489  0.7784  1.6816
  801MOL0     H 8094   3.685   7.000   0.619  0.6410  1.3410 -0.9761
  801MOL0     H 8095   3.715   7.441   0.660  1.3981 -0.3432  4.1909
  801MOL0     H 8096   3.875   7.558   0.523 -2.2474  0.6400 -1.4525
  801MOL0     H 8097   4.009   7.771   0.166 -2.0890  0.8103  3.0025
  801MOL0     H 8098   4.169   7.942   0.076 -0.5296 -0.2095 -0.5094
  801MOL0     H 8099   4.381   7.993  -0.056  2.6784 -0.6602 -1.0116
  801MOL0     H 8100   4.358   8.119   0.059  0.5186 -0.3004  2.2449
  801MOL0     H 8101   4.568   8.161  -0.074  1.8958  1.8159  0.7412
  801MOL0     H 8102   4.597   8.155   0.088 -1.5233 -1.9394  2.2390
  801MOL0     H 8103   4.688   7.917   0.054 -3.9291 -0.3029  0.9143
  801MOL0     H 8104   4.596   7.910  -0.103 -1.7329  0.3020 -0.0843
  801MOL0     H 8105   4.732   8.063  -0.201 -1.9728  2.2199  1.5023
  801MOL0     H 8106   4.840   7.925  -0.133  2.7306  1.9037  0.3843
  801MOL0     H 8107   4.888   8.077   0.069  1.7830  0.0004 -0.0779
  801MOL0     H 8108   4.807   8.206  -0.023 -0.7169 -0.5315 -0.5448
  801MOL0     H 8109   5.026   8.046  -0.162  1.8561  2.4702 -3.9485
  801MOL0     H 8110   4.975   8.202  -0.210  4.2449  0.3347 -0.4654
  801MOL0     H 8111   5.140   8.125   0.034  1.6883  0.8379  0.4644
  801MOL0     H 8112   5.065   8.282   0.027 -0.1871  1.5940 -2.1264
  801MOL0     H 8113   5.284   8.306  -0.072 -1.0215  0.5412 -0.3934
  801MOL0     H 8114   5.262   8.156  -0.157  0.5695  0.0603  2.8067
  801MOL0     H 8115   4.485   7.764   0.317  0.3093 -1.0640  1.2196
  801MOL0     H 8116   4.328   7.626   0.436  0.1741 -3.1972 -2.5536
  801MOL0     H 8117   4.096   7.207   0.438  2.1394  2.8783  1.0294
  801MOL0     H 8118   3.929   7.067   0.575  0.6370 -0.2894 -1.6262
  801MOL0     H 8119   2.391   6.284   1.600  0.1471  2.1018 -0.0417
  801MOL0     H 8120   2.154   6.291   1.682 -1.6468  0.2099 -0.4019
  801MOL0     H 8121   1.798   6.339   1.766  2.1499  0.4729 -3.8458
  801MOL0     H 8122   1.569   6.345   1.861  1.5103  0.1799  0.1863
  801MOL0     H 8123   1.386   6.250   1.772 -0.3286 -0.7389  2.1797
  801MOL0     H 8124   1.232   6.308   1.700  0.5280  1.2364 -1.0240
  801MOL0     H 8125   1.315   6.364   1.982 -1.4609 -0.3378  1.4068
  801MOL0     H 8126   1.192   6.252   1.920 -1.4813  1.0633  0.1663
  801MOL0     H 8127   1.094   6.474   1.809 -0.9667 -1.5865  0.6001
  801MOL0     H 8128   1.200   6.560   1.913 -0.7704 -0.4663 -3.4009
  801MOL0     H 8129   1.103   6.422   2.107 -0.1943  0.3099 -0.8374
  801MOL0     H 8130   0.998   6.556   2.029 -0.9569 -1.0339 -3.6103
  801MOL0     H 8131   0.816   6.178   1.911  1.6535 -0.4158 -1.2429
  801MOL0     H 8132   1.452   6.611   1.557 -0.0100  0.0479  0.1495
  801MOL0     H 8133   1.720   6.634   1.345  1.7284 -0.4542  1.2758
  801MOL0     H 8134   1.643   6.757   1.453  1.3336  0.6914  2.1680
  801MOL0     H 8135   1.799   6.725   1.472  2.0980 -1.2676 -2.9898
  802MOL0     O 8136   6.052   6.849  11.081  0.5548 -0.3990  0.2717
  802MOL0     C 8137   6.137   6.856  10.994 -1.1306  0.5655 -0.7510
  802MOL0     O 8138   6.115   6.839  10.863 -0.4545 -0.0978 -0.0189
  802MOL0     C 8139   6.002   6.878  10.796 -0.6033 -0.0553  0.8226
  802MOL0     C 8140   5.971   6.813  10.675  0.0805 -0.2348  0.1395
  802MOL0     C 8141   5.863   6.845  10.594 -0.0382  0.4131 -0.2002
  802MOL0     C 8142   5.782   6.944  10.633  0.3665 -0.3608 -0.3490
  802MOL0     O 8143   5.670   6.981  10.566  0.1179  0.0575  0.5816
  802MOL0     C 8144   5.677   7.003  10.421 -0.7716  0.0706 -0.0337
  802MOL0     C 8145   5.585   7.115  10.389 -0.9072 -0.1552 -0.0771
  802MOL0     C 8146   5.440   7.109  10.421  0.5944 -0.0813 -0.1530
  802MOL0     C 8147   5.409   7.222  10.522  0.1004 -0.8006 -0.3178
  802MOL0     C 8148   5.264   7.212  10.592 -1.2327  0.1667  0.1688
  802MOL0     C 8149   5.171   7.253  10.480  0.4692 -0.4326 -0.1878
  802MOL0     C 8150   5.019   7.247  10.520  0.2367  1.4512 -0.1733
  802MOL0     C 8151   4.918   7.312  10.426  0.5537  0.0632  1.3140
  802MOL0     N 8152   4.903   7.455  10.466  0.2952  0.4910  0.0705
  802MOL0     C 8153   4.951   7.561  10.398 -0.1596 -0.2479  0.4994
  802MOL0     C 8154   4.887   7.668  10.454 -0.9985  0.1568  0.1644
  802MOL0     C 8155   4.907   7.809  10.407  0.0476  0.1887  0.2906
  802MOL0     C 8156   5.049   7.830  10.347 -0.0484  1.1308 -0.0956
  802MOL0     C 8157   5.080   7.975  10.342  0.0986 -0.5789  0.2539
  802MOL0     C 8158   5.206   8.016  10.261  0.3410 -0.3039 -0.3580
  802MOL0     O 8159   5.326   7.967  10.315 -0.6002 -0.0424  0.0911
  802MOL0     C 8160   5.437   7.979  10.233 -0.4689 -0.3720  0.3488
  802MOL0     C 8161   5.481   7.875  10.153 -0.6477  1.1472 -0.6029
  802MOL0     C 8162   5.599   7.887  10.081 -0.0522 -0.0638 -0.5555
  802MOL0     C 8163   5.673   8.011  10.080 -0.0494 -0.4614  0.0224
  802MOL0     C 8164   5.790   8.036   9.996  0.3983  0.9877 -0.0539
  802MOL0     O 8165   5.832   8.162   9.964  0.0017 -0.0382  0.1455
  802MOL0     C 8166   5.919   8.176   9.861  0.9503 -0.3844 -0.0573
  802MOL0     C 8167   6.043   8.246   9.887 -0.8128  0.0221  0.4491
  802MOL0     C 8168   6.137   8.272   9.785 -0.1310  0.3478  0.0265
  802MOL0     C 8169   6.118   8.203   9.665 -0.1035  0.3187 -1.1489
  802MOL0     O 8170   6.222   8.213   9.579  0.4046  0.5909  0.2187
  802MOL0     C 8171   6.197   8.224   9.434 -0.2656  0.5552 -0.0523
  802MOL0     C 8172   6.324   8.288   9.372  0.3150  0.5832 -0.0734
  802MOL0     C 8173   6.273   8.401   9.278  0.4155  0.5025 -0.5259
  802MOL0     C 8174   6.379   8.475   9.194  0.5290 -0.9417  0.8763
  802MOL0     C 8175   6.417   8.397   9.067 -0.4750  0.8465 -0.3707
  802MOL0     C 8176   6.531   8.469   8.988  0.7950  0.0020  0.3372
  802MOL0     C 8177   6.500   8.613   8.947  0.6613 -0.5026  0.5548
  802MOL0     C 8178   6.355   8.642   8.894 -0.5504  0.3271  0.4183
  802MOL0    Cl 8179   6.344   8.537   8.752  0.0700  0.0994 -0.0102
  802MOL0     C 8180   6.002   8.124   9.643 -0.3335  0.3904 -0.5510
  802MOL0     C 8181   5.896   8.123   9.734  0.5228 -0.3659 -0.8031
  802MOL0     O 8182   5.840   7.930   9.959 -0.4086 -0.4866  0.1802
  802MOL0     C 8183   5.631   8.112  10.170 -0.7927 -0.6948  0.4299
  802MOL0     C 8184   5.518   8.092  10.251 -0.2210 -0.1958  0.2594
  802MOL0     N 8185   4.808   7.630  10.565 -0.3790  0.3497 -0.1468
  802MOL0     N 8186   4.817   7.501  10.562  0.2530  0.5482  0.0034
  802MOL0     C 8187   5.808   7.010  10.750  0.4698  0.4743 -0.7764
  802MOL0     C 8188   5.915   6.980  10.832  0.2975 -0.2755 -0.2301
  802MOL0     C 8189   6.281   6.870  11.055  0.2389  0.1032  0.4839
  802MOL0     C 8190   6.305   6.844  11.187 -0.5250  0.1958  0.8893
  802MOL0     C 8191   6.434   6.835  11.236  0.2791  0.2245 -0.4982
  802MOL0     C 8192   6.540   6.885  11.167 -0.7271  1.0679  0.0920
  802MOL0     O 8193   6.659   6.896  11.241 -0.3548  0.2655 -0.4173
  802MOL0     C 8194   6.737   7.016  11.210 -0.5205 -0.3947 -1.0600
  802MOL0     C 8195   6.827   7.066  11.321 -0.1436  0.0013 -0.5130
  802MOL0     C 8196   6.745   7.102  11.450  0.1737  0.8863  0.9523
  802MOL0     C 8197   6.835   7.178  11.551 -0.0006  0.3579  0.7350
  802MOL0     C 8198   6.776   7.213  11.676 -0.0274  0.0542 -0.1731
  802MOL0     C 8199   6.710   7.263  11.768  0.1897  0.6853  1.0739
  802MOL0     C 8200   6.516   6.924  11.036 -0.3384  0.4407 -0.7637
  802MOL0     C 8201   6.391   6.915  10.976 -0.6127  0.3140 -0.1809
  802MOL0     C 8202   6.379   6.959  10.826  0.3669  0.8744  0.2256
  802MOL0     H 8203   6.041   6.739  10.640  0.5469 -0.0756  0.7057
  802MOL0     H 8204   5.839   6.790  10.504  1.7189 -0.3862 -0.2155
  802MOL0     H 8205   5.781   7.028  10.398 -0.2608 -1.4444  0.4495
  802MOL0     H 8206   5.652   6.910  10.368 -0.1768 -0.1987  0.1535
  802MOL0     H 8207   5.579   7.120  10.280  0.7217  0.0087 -0.1804
  802MOL0     H 8208   5.630   7.207  10.428  2.8688 -1.4085 -1.0084
  802MOL0     H 8209   5.415   7.011  10.463  1.4096 -0.9401 -1.5664
  802MOL0     H 8210   5.384   7.133  10.330  2.6911  0.4828 -1.3631
  802MOL0     H 8211   5.485   7.214  10.601  0.1708  2.4964  0.0637
  802MOL0     H 8212   5.421   7.319  10.474  0.1748 -0.4226  0.4448
  802MOL0     H 8213   5.250   7.107  10.620 -1.1172 -0.1399 -0.8625
  802MOL0     H 8214   5.245   7.274  10.680 -2.5598 -2.1421  1.6196
  802MOL0     H 8215   5.197   7.356  10.456 -0.8555 -0.0345  0.0201
  802MOL0     H 8216   5.184   7.185  10.395 -0.6382 -1.6426  0.5623
  802MOL0     H 8217   5.008   7.284  10.622 -1.9974  1.6814 -0.4695
  802MOL0     H 8218   4.983   7.144  10.528 -0.4180  1.7777  1.4154
  802MOL0     H 8219   4.948   7.305  10.321 -0.4721  0.4745  0.9818
  802MOL0     H 8220   4.826   7.254  10.437 -0.9546  1.9726 -0.4738
  802MOL0     H 8221   5.013   7.567  10.310  0.7678 -0.8994  1.0981
  802MOL0     H 8222   4.825   7.836  10.339  1.0875 -0.2848 -1.2133
  802MOL0     H 8223   4.893   7.873  10.494  1.0024 -1.0060  1.3534
  802MOL0     H 8224   5.110   7.780  10.422 -1.9412 -0.4013  0.5182
  802MOL0     H 8225   5.059   7.793  10.245  0.3750  2.3019 -0.4954
  802MOL0     H 8226   5.098   8.012  10.443  0.3599  3.7391 -1.1799
  802MOL0     H 8227   4.996   8.029  10.299  0.2974 -1.0567 -0.7607
  802MOL0     H 8228   5.219   8.124  10.251  1.3298 -0.6211 -3.5314
  802MOL0     H 8229   5.187   7.990  10.157  0.5176  0.9741 -0.7203
  802MOL0     H 8230   5.430   7.780  10.144  3.4808 -1.5479  1.1066
  802MOL0     H 8231   5.630   7.807  10.015  1.4038  0.6153 -0.7235
  802MOL0     H 8232   6.062   8.288   9.985  0.0219  1.1299 -0.1535
  802MOL0     H 8233   6.226   8.331   9.802 -0.4500  0.8728 -0.0811
  802MOL0     H 8234   6.178   8.128   9.385 -3.3457  1.8462 -1.6468
  802MOL0     H 8235   6.107   8.283   9.416 -0.6595 -0.3987 -1.3065
  802MOL0     H 8236   6.385   8.337   9.449  0.1554  0.4818  0.1197
  802MOL0     H 8237   6.382   8.217   9.313 -0.2218 -1.1214  1.3518
  802MOL0     H 8238   6.198   8.364   9.207 -3.5633 -0.6707  3.7796
  802MOL0     H 8239   6.212   8.468   9.340 -0.6562 -0.8700 -0.0367
  802MOL0     H 8240   6.466   8.495   9.258  1.9551 -0.2665 -1.1932
  802MOL0     H 8241   6.341   8.572   9.162  1.4396 -1.1739 -1.0575
  802MOL0     H 8242   6.328   8.388   9.003  0.2478  1.6289 -1.5219
  802MOL0     H 8243   6.469   8.305   9.095  1.0745  1.0230 -2.3896
  802MOL0     H 8244   6.625   8.463   9.044  0.7449  2.2512  0.7450
  802MOL0     H 8245   6.548   8.412   8.896  0.7407  0.1082  0.2621
  802MOL0     H 8246   6.563   8.637   8.861  0.0321 -1.3519 -0.1658
  802MOL0     H 8247   6.521   8.685   9.026 -3.1168  1.2547  0.1726
  802MOL0     H 8248   6.276   8.620   8.966 -1.6620  1.3945 -0.4299
  802MOL0     H 8249   6.341   8.746   8.861 -0.8212  0.9711  2.4127
  802MOL0     H 8250   5.982   8.080   9.546 -0.6611 -3.5885  1.1386
  802MOL0     H 8251   5.807   8.064   9.718 -1.5042  2.6979 -1.5919
  802MOL0     H 8252   5.688   8.199  10.202 -1.5340 -0.1245  0.2262
  802MOL0     H 8253   5.488   8.168  10.322 -0.2886  1.3469 -1.3604
  802MOL0     H 8254   5.734   7.082  10.783  0.3378  1.3697 -2.8241
  802MOL0     H 8255   5.916   7.028  10.929  2.6140 -0.7428  0.0594
  802MOL0     H 8256   6.224   6.812  11.252  0.5080  0.3747  2.3233
  802MOL0     H 8257   6.462   6.798  11.334  0.8111 -0.2287 -0.8165
  802MOL0     H 8258   6.677   7.102  11.180  0.6380  0.0759 -2.1010
  802MOL0     H 8259   6.803   6.981  11.130 -1.4586 -0.9304 -1.6229
  802MOL0     H 8260   6.873   7.162  11.295 -0.5782  0.5486  0.6724
  802MOL0     H 8261   6.904   6.993  11.347 -0.5517  0.3017  1.7586
  802MOL0     H 8262   6.700   7.014  11.496 -0.5388  1.5246  1.5028
  802MOL0     H 8263   6.669   7.174  11.419 -1.1422 -1.6093 -2.3055
  802MOL0     H 8264   6.917   7.114  11.582 -0.0337 -0.5467 -0.9445
  802MOL0     H 8265   6.878   7.266  11.503 -0.1308  0.0185 -0.0299
  802MOL0     H 8266   6.651   7.306  11.846 -0.2396  0.0802  1.0851
  802MOL0     H 8267   6.604   6.955  10.981  1.5491 -2.0764  0.6116
  802MOL0     H 8268   6.472   6.988  10.777  1.0086 -1.0575  0.2281
  802MOL0     H 8269   6.337   6.872  10.775 -1.5899 -1.2643  4.8648
  802MOL0     H 8270   6.314   7.046  10.812 -0.4923  0.0819 -0.8438
  803MOL0     O 8271   0.718   5.735   2.942 -0.0949 -0.3405  0.7769
  803MOL0     C 8272   0.601   5.686   2.938 -0.0780  0.3180  0.1291
  803MOL0     O 8273   0.553   5.591   2.849 -0.7574  0.9761  0.2145
  803MOL0     C 8274   0.639   5.538   2.761 -0.0798 -0.3541 -0.7435
  803MOL0     C 8275   0.746   5.466   2.811  0.4652  0.7303  0.4338
  803MOL0     C 8276   0.841   5.411   2.726  0.4495 -0.1695 -0.2803
  803MOL0     C 8277   0.835   5.429   2.585  0.3166 -0.1699 -0.0895
  803MOL0     O 8278   0.929   5.370   2.516  0.3924  0.1044 -0.0826
  803MOL0     C 8279   0.906   5.354   2.380 -0.2455 -0.2571  0.8668
  803MOL0     C 8280   1.029   5.278   2.318  0.1288 -0.0049 -0.3064
  803MOL0     C 8281   1.038   5.142   2.371  0.3444 -0.3322 -0.6666
  803MOL0     C 8282   1.150   5.042   2.315 -0.9641  0.3921  0.4558
  803MOL0     C 8283   1.294   5.099   2.328 -0.0321 -0.1655 -0.8673
  803MOL0     C 8284   1.370   5.080   2.198  1.3005 -0.5174 -0.8003
  803MOL0     C 8285   1.523   5.078   2.219 -0.1450 -0.6545  0.1819
  803MOL0     C 8286   1.583   5.053   2.084 -0.4712 -0.0428 -0.3207
  803MOL0     N 8287   1.729   5.064   2.092 -0.0683 -0.6443  0.0942
  803MOL0     C 8288   1.796   5.179   2.075  0.0597  0.1746 -1.0374
  803MOL0     C 8289   1.925   5.142   2.081 -0.1979  0.7687 -0.3967
  803MOL0     C 8290   2.045   5.231   2.073  0.1771 -0.2924 -0.0116
  803MOL0     C 8291   2.172   5.168   2.013  0.2250  0.0651 -0.1319
  803MOL0     C 8292   2.291   5.273   2.001  0.3195  0.2390 -0.4788
  803MOL0     C 8293   2.341   5.321   2.137 -0.5985 -0.6106 -0.1187
  803MOL0     O 8294   2.441   5.225   2.191  0.4019 -0.9320  0.6306
  803MOL0     C 8295   2.579   5.241   2.155  0.6092 -0.3188 -0.4432
  803MOL0     C 8296   2.664   5.131   2.147 -0.2254 -0.8045  0.3389
  803MOL0     C 8297   2.797   5.147   2.096  0.3064 -0.1266 -0.5447
  803MOL0     C 8298   2.847   5.276   2.060  0.0061  0.5424 -1.0123
  803MOL0     C 8299   2.995   5.297   2.036 -0.3615 -0.6295 -0.2098
  803MOL0     O 8300   3.038   5.425   2.057  0.5742 -0.7800  0.9059
  803MOL0     C 8301   3.169   5.454   2.030  0.5927  1.2780  0.3676
  803MOL0     C 8302   3.236   5.535   2.121 -0.4332  0.2278  0.4167
  803MOL0     C 8303   3.368   5.562   2.099  0.0435  0.3291  0.1401
  803MOL0     C 8304   3.442   5.504   1.993  0.2216  0.1246  0.3608
  803MOL0     O 8305   3.573   5.540   1.976 -0.7991  0.1843 -0.6351
  803MOL0     C 8306   3.616   5.655   2.052 -0.1513  0.3185  0.3973
  803MOL0     C 8307   3.756   5.694   2.005 -0.1924 -0.3788 -0.2569
  803MOL0     C 8308   3.868   5.591   2.023 -0.4677  0.1869 -0.9374
  803MOL0     C 8309   3.924   5.597   2.164 -0.8771  0.3460 -0.5645
  803MOL0     C 8310   4.056   5.513   2.177 -0.7898 -0.3675 -0.1627
  803MOL0     C 8311   4.171   5.572   2.093 -0.6912  0.2862 -0.5183
  803MOL0     C 8312   4.294   5.482   2.094 -0.5600  0.4737  0.5296
  803MOL0     C 8313   4.404   5.569   2.041 -0.6040  0.2477 -0.4436
  803MOL0    Cl 8314   4.566   5.501   2.008  0.2908  0.0481  0.3297
  803MOL0     C 8315   3.375   5.434   1.892  0.0257 -0.5342 -0.5361
  803MOL0     C 8316   3.237   5.411   1.907  0.1349 -0.3305 -0.5751
  803MOL0     O 8317   3.064   5.203   1.989 -0.1763 -0.3253 -0.3147
  803MOL0     C 8318   2.759   5.387   2.067 -0.1801 -0.5117  0.5728
  803MOL0     C 8319   2.632   5.366   2.107 -0.1124  0.5388  0.5208
  803MOL0     N 8320   1.929   5.008   2.112 -0.1485  0.3937 -0.1632
  803MOL0     N 8321   1.816   4.954   2.107 -0.1230 -0.0237  0.4161
  803MOL0     C 8322   0.725   5.507   2.538  0.0957  1.2676  0.3310
  803MOL0     C 8323   0.634   5.556   2.625 -0.2903 -0.0847 -0.0859
  803MOL0     C 8324   0.519   5.722   3.062  0.6062 -0.4510 -0.5037
  803MOL0     C 8325   0.534   5.854   3.118 -0.6348  0.8293 -0.4131
  803MOL0     C 8326   0.471   5.883   3.237 -0.4257 -0.1036  0.4427
  803MOL0     C 8327   0.385   5.802   3.302  1.0301 -0.0283  0.1420
  803MOL0     O 8328   0.308   5.831   3.413  1.0442  0.2906 -0.4523
  803MOL0     C 8329   0.260   5.962   3.444 -0.9438  0.4146 -0.5384
  803MOL0     C 8330   0.125   5.942   3.494 -0.3973 -0.0124 -0.2972
  803MOL0     C 8331   0.079   6.081   3.553 -0.6301 -0.5167  0.1333
  803MOL0     C 8332  -0.051   6.073   3.634  0.2150 -0.0877  0.5794
  803MOL0     C 8333  -0.026   5.984   3.746  0.0124 -0.1479  0.2561
  803MOL0     C 8334   0.023   5.915   3.839  0.7759 -1.0052 -0.2817
  803MOL0     C 8335   0.374   5.671   3.259  0.6051 -0.3275  0.3965
  803MOL0     C 8336   0.434   5.631   3.138 -0.3521 -0.4252  0.2773
  803MOL0     C 8337   0.424   5.491   3.086  0.7802  0.0227  0.0458
  803MOL0     H 8338   0.755   5.449   2.918  0.2152  1.7576  0.6275
  803MOL0     H 8339   0.912   5.340   2.768  0.3012 -0.3296 -0.3015
  803MOL0     H 8340   0.818   5.291   2.367  0.5907 -0.9973 -1.9442
  803MOL0     H 8341   0.894   5.450   2.329  1.0548 -1.0913 -1.1315
  803MOL0     H 8342   1.119   5.335   2.345  0.0091  0.6486 -1.2006
  803MOL0     H 8343   1.030   5.285   2.209  0.1070  0.3594 -0.2861
  803MOL0     H 8344   0.943   5.095   2.344  1.6091 -2.3201 -1.9120
  803MOL0     H 8345   1.041   5.146   2.481 -2.4275 -0.5509 -0.5071
  803MOL0     H 8346   1.154   4.940   2.353  1.8181  0.9125  1.8015
  803MOL0     H 8347   1.130   5.030   2.208 -1.9873 -0.7927  0.7585
  803MOL0     H 8348   1.291   5.206   2.351 -0.0795 -0.0808 -1.2610
  803MOL0     H 8349   1.344   5.050   2.412  1.5306 -0.2330 -1.8114
  803MOL0     H 8350   1.349   4.978   2.163 -0.6119 -1.0097  1.4904
  803MOL0     H 8351   1.350   5.154   2.121  4.1144  0.7538 -0.4184
  803MOL0     H 8352   1.556   5.002   2.290  3.5740  3.2349  3.1082
  803MOL0     H 8353   1.549   5.171   2.268 -1.6444  1.0742 -2.0723
  803MOL0     H 8354   1.550   4.957   2.043  2.9963 -2.4231  1.8954
  803MOL0     H 8355   1.553   5.132   2.015  1.9198  0.2881 -1.0655
  803MOL0     H 8356   1.749   5.275   2.051  1.2782  1.5495  1.6812
  803MOL0     H 8357   2.012   5.321   2.019  1.2367 -1.6714 -3.1610
  803MOL0     H 8358   2.078   5.246   2.177  2.5745 -1.0004 -0.6105
  803MOL0     H 8359   2.208   5.083   2.072  0.8509  0.2175 -0.2845
  803MOL0     H 8360   2.156   5.124   1.914  2.1444 -1.3893  0.1454
  803MOL0     H 8361   2.258   5.359   1.943  1.7197  0.2274 -1.3187
  803MOL0     H 8362   2.377   5.224   1.955  0.3474  0.1852 -0.3699
  803MOL0     H 8363   2.251   5.329   2.198  0.1068 -1.0226  1.0027
  803MOL0     H 8364   2.386   5.420   2.131  2.3649 -1.7631  1.2352
  803MOL0     H 8365   2.632   5.032   2.174  0.5405 -0.5538  2.2945
  803MOL0     H 8366   2.865   5.062   2.095 -0.9597 -1.3048  2.2711
  803MOL0     H 8367   3.181   5.571   2.208  0.5621  0.9354  0.7696
  803MOL0     H 8368   3.419   5.613   2.180 -0.5160 -0.2975  0.9086
  803MOL0     H 8369   3.553   5.740   2.023 -0.9930 -0.8352 -1.2819
  803MOL0     H 8370   3.620   5.643   2.161 -1.6057  1.8121  0.6579
  803MOL0     H 8371   3.760   5.721   1.899  0.6351  1.3186  0.1801
  803MOL0     H 8372   3.783   5.789   2.052  0.4125 -1.0317  0.7665
  803MOL0     H 8373   3.833   5.487   2.019 -0.6177  0.2592 -1.4599
  803MOL0     H 8374   3.934   5.606   1.938  1.0342 -0.9104 -0.0097
  803MOL0     H 8375   3.857   5.573   2.247 -1.2326 -1.1520 -1.2539
  803MOL0     H 8376   3.962   5.698   2.179  0.3082 -0.2682  0.7596
  803MOL0     H 8377   4.031   5.410   2.148 -1.1337 -0.1818 -0.5252
  803MOL0     H 8378   4.092   5.509   2.280 -1.2590 -0.2142  0.0101
  803MOL0     H 8379   4.140   5.585   1.989 -1.8468 -1.5319 -0.4540
  803MOL0     H 8380   4.196   5.670   2.134 -0.5194  0.3168 -0.6950
  803MOL0     H 8381   4.290   5.396   2.027  2.0183  2.1782 -2.0571
  803MOL0     H 8382   4.319   5.449   2.196  1.8139 -0.2069 -0.1894
  803MOL0     H 8383   4.380   5.619   1.946  1.2635  0.5748 -0.7707
  803MOL0     H 8384   4.426   5.652   2.108  3.1409 -1.1697  0.3180
  803MOL0     H 8385   3.419   5.402   1.798  0.2474 -0.1983 -0.5493
  803MOL0     H 8386   3.181   5.356   1.833  0.2208 -1.7640  0.3904
  803MOL0     H 8387   2.796   5.487   2.046  0.5838 -0.6149  1.3750
  803MOL0     H 8388   2.573   5.456   2.117 -2.1800 -0.6219 -0.5574
  803MOL0     H 8389   0.706   5.539   2.436 -0.5300  2.1216  0.7052
  803MOL0     H 8390   0.550   5.614   2.589 -0.4238 -0.9841 -1.2527
  803MOL0     H 8391   0.611   5.922   3.085  1.1009 -1.8022 -2.1921
  803MOL0     H 8392   0.501   5.972   3.293  1.8812 -2.7545  3.8647
  803MOL0     H 8393   0.248   6.018   3.351  1.8572 -2.1680 -2.6629
  803MOL0     H 8394   0.331   5.996   3.520 -1.2044 -0.0275 -0.0862
  803MOL0     H 8395   0.134   5.855   3.559 -0.5010  0.0028 -0.2631
  803MOL0     H 8396   0.070   5.917   3.403  2.6803 -1.2229 -1.9733
  803MOL0     H 8397   0.060   6.150   3.470  4.1532 -1.4848 -2.0863
  803MOL0     H 8398   0.158   6.124   3.615  2.1194  0.0195 -3.3738
  803MOL0     H 8399  -0.083   6.173   3.668  1.8257  1.4881 -2.1896
  803MOL0     H 8400  -0.131   6.040   3.568  1.0119  0.3816 -0.6483
  803MOL0     H 8401   0.068   5.874   3.927  0.4124 -1.1773 -0.1684
  803MOL0     H 8402   0.307   5.598   3.304  0.9912 -3.2348 -3.2277
  803MOL0     H 8403   0.527   5.456   3.087  0.7404 -0.0945  0.0960
  803MOL0     H 8404   0.357   5.430   3.147 -0.1920  0.6326 -0.3787
  803MOL0     H 8405   0.380   5.483   2.986 -2.4733 -2.2673  1.4668
  804MOL0     O 8406   8.842   5.908   6.380 -1.0128 -0.1048  0.1584
  804MOL0     C 8407   8.878   6.009   6.310 -0.1771  0.1806  0.1466
  804MOL0     O 8408   9.009   6.028   6.260 -0.7199 -0.4033  0.0321
  804MOL0     C 8409   9.123   5.957   6.297 -1.1422 -0.8521 -0.1311
  804MOL0     C 8410   9.239   6.031   6.263 -0.5108 -0.1499 -0.5200
  804MOL0     C 8411   9.364   5.976   6.306  0.5292  0.0251 -0.8636
  804MOL0     C 8412   9.377   5.852   6.375  0.2388  0.3367 -0.7867
  804MOL0     O 8413   9.498   5.794   6.392 -0.2558  0.2461  0.3486
  804MOL0     C 8414   9.613   5.856   6.337  0.2631  0.0302  0.6836
  804MOL0     C 8415   9.733   5.767   6.364  0.2900  0.0168  0.7954
  804MOL0     C 8416   9.856   5.842   6.295 -0.5666 -0.7027 -0.3647
  804MOL0     C 8417   9.987   5.770   6.344 -0.7556 -0.3400  0.0021
  804MOL0     C 8418  10.076   5.862   6.430 -0.4036  0.0190 -0.5332
  804MOL0     C 8419  10.197   5.795   6.505 -0.4890 -0.5162 -0.6090
  804MOL0     C 8420  10.308   5.765   6.415 -0.1405  0.4115  0.9408
  804MOL0     C 8421  10.418   5.700   6.512  0.6735 -1.0334 -0.2440
  804MOL0     N 8422  10.559   5.707   6.452 -0.0281  0.5540 -0.1439
  804MOL0     C 8423  10.663   5.638   6.498  0.1567  0.0231 -0.9290
  804MOL0     C 8424  10.768   5.680   6.428 -0.4480  0.8044 -0.0099
  804MOL0     C 8425  10.903   5.611   6.432  0.1542 -0.4393 -0.5636
  804MOL0     C 8426  11.005   5.674   6.342 -0.4225 -0.1036 -1.8521
  804MOL0     C 8427  11.061   5.807   6.392 -0.3531  1.2627  0.0544
  804MOL0     C 8428  11.200   5.840   6.334 -1.3789  0.2645 -0.4868
  804MOL0     O 8429  11.202   5.856   6.196  0.0673  0.1901  0.6118
  804MOL0     C 8430  11.316   5.881   6.120  0.1783  1.7508 -1.2591
  804MOL0     C 8431  11.438   5.936   6.167  0.1134 -0.4801  0.0227
  804MOL0     C 8432  11.543   5.966   6.076 -0.9731  0.2165  0.0210
  804MOL0     C 8433  11.542   5.929   5.937 -0.2472 -0.5694  0.4213
  804MOL0     C 8434  11.660   5.947   5.845  0.2541 -0.1176  0.2890
  804MOL0     O 8435  11.782   5.932   5.909 -0.3786 -0.5619  0.1819
  804MOL0     C 8436  11.905   5.940   5.852  0.4220  0.0622  0.2110
  804MOL0     C 8437  12.011   5.900   5.943 -0.5391  0.0142  0.3123
  804MOL0     C 8438  12.140   5.898   5.895  0.1287 -0.0903  0.0616
  804MOL0     C 8439  12.169   5.933   5.765 -0.2911 -0.9883  0.4210
  804MOL0     O 8440  12.303   5.922   5.719  0.2203 -0.5379 -0.1732
  804MOL0     C 8441  12.321   5.888   5.578 -0.2505  0.4091  0.0855
  804MOL0     C 8442  12.378   5.745   5.586 -0.8080  0.6241 -0.1414
  804MOL0     C 8443  12.530   5.740   5.613  0.5645 -0.5174  0.3852
  804MOL0     C 8444  12.569   5.594   5.633  0.4214  0.5705 -0.3092
  804MOL0     C 8445  12.717   5.592   5.665 -0.2919 -0.4692  0.7709
  804MOL0     C 8446  12.781   5.450   5.650 -0.0233  0.1004  0.4516
  804MOL0     C 8447  12.811   5.423   5.502  1.0889  0.9637  0.4297
  804MOL0     C 8448  12.923   5.321   5.480  0.1859  0.3207  0.0246
  804MOL0    Cl 8449  13.074   5.390   5.548 -0.2746  0.2694 -0.0989
  804MOL0     C 8450  12.062   5.974   5.674  0.4492 -0.1612  0.0693
  804MOL0     C 8451  11.931   5.979   5.720  0.4347  0.1561 -0.2756
  804MOL0     O 8452  11.641   5.971   5.724 -0.8117  0.3787  0.1262
  804MOL0     C 8453  11.428   5.867   5.890 -0.1663  0.3841 -0.3681
  804MOL0     C 8454  11.315   5.846   5.983 -0.3930 -0.4992 -0.3361
  804MOL0     N 8455  10.721   5.769   6.338 -0.4911 -0.1190  0.3927
  804MOL0     N 8456  10.600   5.786   6.350  0.5297  0.0647  0.2043
  804MOL0     C 8457   9.268   5.778   6.406  0.9111 -0.4743  0.1976
  804MOL0     C 8458   9.143   5.831   6.360 -1.2542 -0.5046 -0.3521
  804MOL0     C 8459   8.766   6.096   6.284  0.4563 -0.1645 -0.9140
  804MOL0     C 8460   8.635   6.079   6.337 -0.7942 -0.6792  0.0723
  804MOL0     C 8461   8.535   6.176   6.315  0.5261  0.3933 -0.0453
  804MOL0     C 8462   8.562   6.302   6.260 -0.0431  0.9875 -0.8702
  804MOL0     O 8463   8.477   6.406   6.239  0.1993 -0.3233 -0.3033
  804MOL0     C 8464   8.342   6.379   6.279  1.0758  0.3812 -0.5103
  804MOL0     C 8465   8.267   6.492   6.224  1.0856 -0.8826 -0.4221
  804MOL0     C 8466   8.128   6.487   6.284  1.2851  0.1911 -0.8136
  804MOL0     C 8467   8.033   6.587   6.212 -0.2341 -0.3153  0.2797
  804MOL0     C 8468   8.074   6.731   6.234  1.4276 -0.0658 -0.0700
  804MOL0     C 8469   8.104   6.849   6.241  0.2300 -0.3505  0.1494
  804MOL0     C 8470   8.688   6.324   6.219  0.0527 -1.1213 -0.2604
  804MOL0     C 8471   8.790   6.227   6.234 -0.3600  0.1431 -0.1371
  804MOL0     C 8472   8.925   6.271   6.181  0.5549  0.3100 -0.3111
  804MOL0     H 8473   9.211   6.129   6.228 -0.7992  0.2502  0.7934
  804MOL0     H 8474   9.452   6.035   6.282  1.4293  0.0858  2.1585
  804MOL0     H 8475   9.604   5.860   6.228  0.0773 -1.1384  0.6437
  804MOL0     H 8476   9.615   5.956   6.381 -0.7419  0.0807  0.6398
  804MOL0     H 8477   9.711   5.677   6.306 -1.3910  2.2680 -2.3589
  804MOL0     H 8478   9.756   5.747   6.469 -0.7232 -1.8997  0.7004
  804MOL0     H 8479   9.854   5.947   6.324  3.3487 -0.7620  0.6396
  804MOL0     H 8480   9.871   5.833   6.187  4.0794 -0.3390  0.0633
  804MOL0     H 8481   9.958   5.676   6.393  2.1257 -0.7457  1.1297
  804MOL0     H 8482  10.049   5.732   6.262  0.9102 -0.5604  1.3048
  804MOL0     H 8483  10.105   5.953   6.378  0.5220  0.7489  1.1928
  804MOL0     H 8484  10.022   5.899   6.517  1.3613 -0.5454  0.8667
  804MOL0     H 8485  10.238   5.865   6.578 -0.8824 -1.7883  0.8887
  804MOL0     H 8486  10.157   5.705   6.554  0.7403 -1.2532 -0.9128
  804MOL0     H 8487  10.346   5.850   6.358  0.0154 -0.2287  0.0825
  804MOL0     H 8488  10.277   5.690   6.343 -2.5205 -0.5204  2.8026
  804MOL0     H 8489  10.415   5.753   6.607 -0.1169 -1.1005 -0.2270
  804MOL0     H 8490  10.391   5.594   6.523 -2.6791 -0.3450 -1.0237
  804MOL0     H 8491  10.654   5.568   6.581 -0.2586  0.2162 -0.8122
  804MOL0     H 8492  10.942   5.606   6.534  0.0134 -1.3117 -0.5490
  804MOL0     H 8493  10.899   5.504   6.410 -1.8287  0.1181 -3.4377
  804MOL0     H 8494  11.085   5.599   6.339 -0.4136 -0.4124  1.8932
  804MOL0     H 8495  10.960   5.688   6.243 -2.3121 -1.5503 -1.2405
  804MOL0     H 8496  11.064   5.798   6.501  1.0927 -1.8292 -0.1401
  804MOL0     H 8497  10.992   5.887   6.363 -2.0677 -0.5233 -1.0425
  804MOL0     H 8498  11.270   5.766   6.373 -0.8574  1.5079  1.0219
  804MOL0     H 8499  11.231   5.932   6.383  1.1542 -0.9498  0.3569
  804MOL0     H 8500  11.453   5.979   6.265  2.2334  0.5132 -0.6692
  804MOL0     H 8501  11.635   6.007   6.117  0.1124 -0.7918 -1.3146
  804MOL0     H 8502  11.994   5.862   6.043  0.5613 -3.3802 -0.6358
  804MOL0     H 8503  12.226   5.854   5.944  0.2778 -1.6635 -1.5046
  804MOL0     H 8504  12.232   5.884   5.516  0.4216 -1.6133 -0.8378
  804MOL0     H 8505  12.397   5.952   5.533  0.0597  0.8213  1.1553
  804MOL0     H 8506  12.317   5.701   5.665 -0.2468  1.5061  0.8099
  804MOL0     H 8507  12.362   5.698   5.489  2.9460  2.3225 -1.7815
  804MOL0     H 8508  12.589   5.782   5.531  1.6910 -2.3253  0.2170
  804MOL0     H 8509  12.549   5.796   5.705 -3.0208 -0.3958  1.1904
  804MOL0     H 8510  12.548   5.525   5.551 -0.3916 -2.1210  2.0053
  804MOL0     H 8511  12.510   5.549   5.713  0.2453 -0.7029 -1.1217
  804MOL0     H 8512  12.721   5.624   5.769 -2.0908 -0.9003  1.0031
  804MOL0     H 8513  12.765   5.670   5.605 -3.3149  0.9560 -0.0074
  804MOL0     H 8514  12.875   5.449   5.706  1.8438  1.9440 -2.3401
  804MOL0     H 8515  12.722   5.371   5.697 -2.4434  2.0862  0.9656
  804MOL0     H 8516  12.844   5.518   5.458  0.8856  0.9854  0.3247
  804MOL0     H 8517  12.719   5.391   5.453  1.1044  1.6899 -0.1030
  804MOL0     H 8518  12.911   5.225   5.531  0.3202 -0.3057 -1.1012
  804MOL0     H 8519  12.947   5.310   5.374  1.9910  1.8581  0.2223
  804MOL0     H 8520  12.085   6.008   5.574 -0.0651 -0.4051 -0.1308
  804MOL0     H 8521  11.850   5.999   5.651  1.3086 -0.1905 -1.4209
  804MOL0     H 8522  11.416   5.830   5.788 -1.6371 -0.5438  0.1246
  804MOL0     H 8523  11.230   5.799   5.934  0.2446 -1.7548 -0.2874
  804MOL0     H 8524   9.278   5.681   6.453 -0.5859  0.5835  2.8961
  804MOL0     H 8525   9.059   5.767   6.384 -0.9466 -0.8796 -0.2584
  804MOL0     H 8526   8.620   5.977   6.372  1.1856 -1.5410 -1.4176
  804MOL0     H 8527   8.433   6.156   6.346  0.5637  0.1043 -0.1084
  804MOL0     H 8528   8.341   6.378   6.389  0.0984  1.4811 -0.4950
  804MOL0     H 8529   8.300   6.286   6.238  2.5567 -0.1040 -1.0054
  804MOL0     H 8530   8.277   6.493   6.115  0.9939  0.9361 -0.4430
  804MOL0     H 8531   8.314   6.580   6.270  0.0640 -0.3505 -0.3731
  804MOL0     H 8532   8.119   6.491   6.393 -0.2346 -1.5809 -0.8117
  804MOL0     H 8533   8.081   6.392   6.256 -2.4367  2.2911 -2.4043
  804MOL0     H 8534   8.020   6.568   6.106  1.0329 -4.4252  0.6857
  804MOL0     H 8535   7.932   6.579   6.253 -1.0668  1.8534 -1.1981
  804MOL0     H 8536   8.117   6.953   6.261  1.6486 -0.4714 -0.0470
  804MOL0     H 8537   8.697   6.420   6.168  0.0856 -1.9835 -1.9175
  804MOL0     H 8538   8.996   6.267   6.264  0.5096  1.7101 -0.1732
  804MOL0     H 8539   8.949   6.194   6.107  0.1763  0.5766 -0.7125
  804MOL0     H 8540   8.936   6.369   6.133 -1.3196 -0.8083 -3.3429
  805MOL0     O 8541   6.745   1.708   3.868 -0.7004 -0.3632  0.2583
  805MOL0     C 8542   6.709   1.691   3.984 -0.0516  0.1639  0.5288
  805MOL0     O 8543   6.755   1.767   4.089 -0.9152 -0.5117 -0.0053
  805MOL0     C 8544   6.842   1.874   4.061 -0.3646  1.0753 -0.0474
  805MOL0     C 8545   6.974   1.851   4.049 -0.2767  0.0995  0.2985
  805MOL0     C 8546   7.056   1.957   4.044 -0.6206 -0.0632  0.5713
  805MOL0     C 8547   7.017   2.092   4.051 -0.4901  0.0657  0.0213
  805MOL0     O 8548   7.126   2.179   4.062  0.2076 -0.1197  0.1745
  805MOL0     C 8549   7.104   2.319   4.070 -0.2494  0.2271 -0.1772
  805MOL0     C 8550   7.239   2.396   4.067  0.4447 -0.2192 -0.1807
  805MOL0     C 8551   7.232   2.551   4.053 -0.4359 -0.7013  0.0643
  805MOL0     C 8552   7.372   2.605   4.033 -0.2287 -0.4753  0.4252
  805MOL0     C 8553   7.360   2.753   4.015  0.1995 -0.2675 -0.4191
  805MOL0     C 8554   7.503   2.804   4.002  0.5693  0.2988  0.2377
  805MOL0     C 8555   7.511   2.950   3.969  0.0002 -0.0901  0.2250
  805MOL0     C 8556   7.631   3.037   4.017 -0.4177  0.5535 -0.0723
  805MOL0     N 8557   7.757   2.990   3.950 -1.0662 -0.5775 -0.1906
  805MOL0     C 8558   7.852   2.897   3.996  1.0244  0.0148  0.8033
  805MOL0     C 8559   7.944   2.907   3.898 -0.0901  0.0932 -0.2177
  805MOL0     C 8560   8.060   2.817   3.881 -0.1803  0.9285  0.0266
  805MOL0     C 8561   8.183   2.880   3.821  0.1697  0.6849  0.5278
  805MOL0     C 8562   8.304   2.787   3.817 -0.1188 -0.4372 -0.4039
  805MOL0     C 8563   8.289   2.663   3.715 -0.2966 -1.3606 -0.3302
  805MOL0     O 8564   8.345   2.540   3.771  0.0895 -0.0434  0.0150
  805MOL0     C 8565   8.466   2.493   3.727  0.5693  0.3282 -0.1192
  805MOL0     C 8566   8.478   2.356   3.720 -0.0376 -0.5022  0.2871
  805MOL0     C 8567   8.591   2.286   3.676  0.5414  0.1239  0.3984
  805MOL0     C 8568   8.704   2.360   3.641 -0.1869 -0.4459  0.2515
  805MOL0     C 8569   8.839   2.296   3.614  0.0752  0.4917  0.3269
  805MOL0     O 8570   8.949   2.370   3.573 -0.0792 -0.6244 -0.0837
  805MOL0     C 8571   9.058   2.315   3.509  0.1398  0.2229  0.4262
  805MOL0     C 8572   9.181   2.372   3.534 -0.0290  1.2194 -0.5873
  805MOL0     C 8573   9.293   2.319   3.465 -0.2309 -0.0900  0.2192
  805MOL0     C 8574   9.276   2.213   3.376  0.6557 -0.1941  0.2985
  805MOL0     O 8575   9.391   2.166   3.316  0.6856  0.5699 -0.4082
  805MOL0     C 8576   9.404   2.051   3.225 -0.0250  0.5555 -0.1911
  805MOL0     C 8577   9.545   2.053   3.163  0.1991  0.0340 -0.4600
  805MOL0     C 8578   9.647   2.021   3.274  0.2049 -0.6483  0.7697
  805MOL0     C 8579   9.790   2.016   3.214 -0.2648 -0.4189 -0.6806
  805MOL0     C 8580   9.852   2.163   3.184 -0.7136  0.5014 -0.3930
  805MOL0     C 8581  10.004   2.174   3.156  0.2452  0.3428 -0.0141
  805MOL0     C 8582  10.054   2.101   3.036 -0.0142  0.3578 -0.0800
  805MOL0     C 8583  10.192   2.159   2.986  0.2726  0.0320 -0.9910
  805MOL0    Cl 8584  10.324   2.098   3.077  0.3882 -0.0374  0.5588
  805MOL0     C 8585   9.155   2.145   3.363  0.1747 -0.0594  0.5102
  805MOL0     C 8586   9.048   2.202   3.424 -0.6917  0.5634 -0.0447
  805MOL0     O 8587   8.842   2.174   3.634  0.5616 -0.2519  0.0091
  805MOL0     C 8588   8.691   2.498   3.638 -0.7662  0.5534 -1.5601
  805MOL0     C 8589   8.574   2.561   3.673  0.7457 -0.6959  0.2988
  805MOL0     N 8590   7.926   3.016   3.804 -0.1374  0.8050  0.1208
  805MOL0     N 8591   7.808   3.067   3.840 -0.5513  0.7527  0.1531
  805MOL0     C 8592   6.881   2.117   4.071 -0.9199  0.6253 -0.0588
  805MOL0     C 8593   6.793   2.009   4.066 -0.0767  0.0334 -0.3190
  805MOL0     C 8594   6.620   1.568   4.009 -0.3979 -0.1713 -0.7363
  805MOL0     C 8595   6.569   1.551   4.147 -0.0306  1.4986 -0.2033
  805MOL0     C 8596   6.477   1.442   4.170  0.0283 -0.7346 -0.0385
  805MOL0     C 8597   6.429   1.359   4.066 -0.9499  0.2002 -0.8204
  805MOL0     O 8598   6.341   1.253   4.095 -1.0696 -0.1786 -0.3621
  805MOL0     C 8599   6.270   1.250   4.226 -0.1908 -0.1529 -1.2626
  805MOL0     C 8600   6.356   1.196   4.345  0.1174  0.2111  0.3738
  805MOL0     C 8601   6.330   1.041   4.349 -0.2294  0.5238  0.5644
  805MOL0     C 8602   6.432   0.980   4.445 -0.2408  0.3112 -0.6718
  805MOL0     C 8603   6.393   0.846   4.474 -0.0973 -0.6286 -0.1299
  805MOL0     C 8604   6.361   0.734   4.513 -0.0645  0.5205  0.1395
  805MOL0     C 8605   6.489   1.378   3.940 -0.0165  0.4022 -0.3050
  805MOL0     C 8606   6.589   1.472   3.912  0.2929  0.2752  0.2888
  805MOL0     C 8607   6.623   1.481   3.761 -0.0282  0.8464 -0.6265
  805MOL0     H 8608   7.016   1.751   4.037 -2.1018 -0.5466 -1.2780
  805MOL0     H 8609   7.163   1.936   4.045 -0.4434  0.8090  0.4552
  805MOL0     H 8610   7.040   2.349   3.987 -0.6402  2.5999  0.8774
  805MOL0     H 8611   7.041   2.344   4.156 -2.1950 -0.8917 -1.1941
  805MOL0     H 8612   7.291   2.342   3.988  1.9525 -2.8273  2.3620
  805MOL0     H 8613   7.288   2.378   4.163  1.0011 -0.4462 -0.5026
  805MOL0     H 8614   7.195   2.593   4.147  0.8904  1.3820 -0.2964
  805MOL0     H 8615   7.159   2.580   3.977 -0.9776  0.7587  1.0839
  805MOL0     H 8616   7.434   2.569   4.115 -1.1134 -1.0842  0.8391
  805MOL0     H 8617   7.415   2.562   3.942 -0.8265 -1.2110  0.4861
  805MOL0     H 8618   7.299   2.775   3.927  0.4944  3.3342  0.1038
  805MOL0     H 8619   7.314   2.802   4.101 -0.4804 -3.1190  0.9333
  805MOL0     H 8620   7.559   2.783   4.094  0.7142 -0.0131  0.0788
  805MOL0     H 8621   7.550   2.745   3.922  1.7777  1.2459  0.2151
  805MOL0     H 8622   7.419   2.988   4.014 -1.0017 -1.8369 -0.2973
  805MOL0     H 8623   7.503   2.962   3.860  1.7838 -1.1409 -0.0516
  805MOL0     H 8624   7.619   3.146   4.015  2.6003  1.0030  0.8392
  805MOL0     H 8625   7.638   3.023   4.126 -2.7974  0.4332  0.1137
  805MOL0     H 8626   7.854   2.827   4.079 -1.9284  0.6375  1.5182
  805MOL0     H 8627   8.092   2.765   3.972  2.6117 -1.1844 -1.9688
  805MOL0     H 8628   8.029   2.727   3.826 -0.1454 -1.0734  3.0632
  805MOL0     H 8629   8.182   2.930   3.723 -0.2889  0.1162  0.2374
  805MOL0     H 8630   8.211   2.956   3.895  0.9419 -1.1146  2.1654
  805MOL0     H 8631   8.327   2.748   3.917  1.6288 -0.4760 -0.7812
  805MOL0     H 8632   8.387   2.852   3.788  2.5657 -4.3804 -2.4868
  805MOL0     H 8633   8.334   2.685   3.618 -0.9863 -3.4023 -1.1693
  805MOL0     H 8634   8.181   2.648   3.709 -0.9097  2.5266 -1.4019
  805MOL0     H 8635   8.385   2.300   3.725 -0.9413  0.8608 -0.8700
  805MOL0     H 8636   8.579   2.179   3.663 -0.6665  0.5275 -2.8903
  805MOL0     H 8637   9.197   2.453   3.604  0.1199  1.1874 -0.5835
  805MOL0     H 8638   9.398   2.346   3.476  0.0880 -0.7492 -0.9627
  805MOL0     H 8639   9.385   1.958   3.279  0.0049  0.4823 -0.3063
  805MOL0     H 8640   9.332   2.059   3.143  2.5209 -0.7560 -2.7523
  805MOL0     H 8641   9.538   1.970   3.092 -2.4862 -1.3800  1.2819
  805MOL0     H 8642   9.569   2.141   3.103  2.9133 -2.0236 -2.6453
  805MOL0     H 8643   9.645   2.100   3.350 -0.0869 -3.1264  3.5269
  805MOL0     H 8644   9.628   1.923   3.319  3.6833 -1.0853  1.5514
  805MOL0     H 8645   9.787   1.961   3.120 -0.8174  0.9799 -1.5227
  805MOL0     H 8646   9.863   1.972   3.282  0.1115  1.2280  0.0365
  805MOL0     H 8647   9.836   2.234   3.266  0.6529  2.1633 -1.4853
  805MOL0     H 8648   9.800   2.212   3.101 -1.1772  2.9941  1.2554
  805MOL0     H 8649  10.029   2.280   3.149 -0.5469  0.5667  0.4477
  805MOL0     H 8650  10.062   2.138   3.241  3.2435  1.4085 -1.4654
  805MOL0     H 8651   9.980   2.098   2.956 -0.5601 -1.8683  0.4436
  805MOL0     H 8652  10.077   1.999   3.067  2.2519  0.5037 -1.1105
  805MOL0     H 8653  10.199   2.131   2.880 -0.2086 -1.8824 -0.5559
  805MOL0     H 8654  10.187   2.269   2.990  0.1427  0.0613 -1.7078
  805MOL0     H 8655   9.153   2.067   3.287  2.0562 -0.4658  0.8226
  805MOL0     H 8656   8.950   2.160   3.405  0.5914 -1.7630 -2.0257
  805MOL0     H 8657   8.775   2.563   3.617  0.5065 -1.2113 -2.1959
  805MOL0     H 8658   8.581   2.669   3.680 -3.2705 -0.3196  0.3088
  805MOL0     H 8659   6.839   2.215   4.089  0.6241  1.3468 -0.2470
  805MOL0     H 8660   6.692   2.048   4.073  0.2013  0.7721 -0.2524
  805MOL0     H 8661   6.587   1.618   4.231  0.3827  0.5917  0.4411
  805MOL0     H 8662   6.439   1.424   4.270  1.0424 -1.1622  0.2785
  805MOL0     H 8663   6.174   1.198   4.235 -0.1425 -0.2408 -1.2496
  805MOL0     H 8664   6.239   1.353   4.245 -3.0582 -1.2494  0.7413
  805MOL0     H 8665   6.337   1.226   4.448  2.2653 -4.0867  2.3164
  805MOL0     H 8666   6.460   1.223   4.322 -0.4696  1.9029 -0.4114
  805MOL0     H 8667   6.340   1.009   4.245 -0.3108 -0.1641  0.7560
  805MOL0     H 8668   6.226   1.019   4.376 -0.5708 -0.4391 -1.3463
  805MOL0     H 8669   6.523   0.956   4.388  0.0409 -1.8810  0.5810
  805MOL0     H 8670   6.459   1.035   4.536 -2.0792  0.9609 -0.4841
  805MOL0     H 8671   6.311   0.645   4.545 -1.2786  1.6894  1.6921
  805MOL0     H 8672   6.446   1.320   3.859  1.3702 -0.7347 -0.2725
  805MOL0     H 8673   6.731   1.499   3.750  0.7383 -0.9410  2.6516
  805MOL0     H 8674   6.593   1.391   3.706 -3.4108  1.9428 -0.8203
  805MOL0     H 8675   6.574   1.567   3.714 -1.0939  2.6611  3.3783
  806MOL0     O 8676   3.017   0.365   0.046 -0.2829 -0.7541  0.2114
  806MOL0     C 8677   2.969   0.271   0.106  0.0880  0.4617 -0.8606
  806MOL0     O 8678   3.032   0.182   0.188  0.3732  0.1715 -0.3444
  806MOL0     C 8679   3.172   0.188   0.201  0.0063 -0.1489  0.2028
  806MOL0     C 8680   3.252   0.102   0.115  0.1480 -0.8184  0.3095
  806MOL0     C 8681   3.389   0.108   0.117 -0.1223  0.3609  0.0820
  806MOL0     C 8682   3.451   0.207   0.190  0.1336 -0.4541 -0.0642
  806MOL0     O 8683   3.583   0.214   0.177  0.1273 -0.9901 -1.2034
  806MOL0     C 8684   3.655   0.090   0.191 -0.0393 -0.3173 -0.2359
  806MOL0     C 8685   3.809   0.101   0.193  0.2741 -0.0121 -0.2880
  806MOL0     C 8686   3.843   0.209   0.307  0.3220 -1.3073 -0.2489
  806MOL0     C 8687   3.919   0.332   0.256 -0.3704  0.1936  0.3206
  806MOL0     C 8688   4.072   0.316   0.240  0.7816  0.6368  0.3323
  806MOL0     C 8689   4.110   0.222   0.118  0.1670 -0.3660  0.2758
  806MOL0     C 8690   4.258   0.207   0.093 -0.1014 -0.1800 -0.5408
  806MOL0     C 8691   4.276   0.102  -0.015  0.2262  0.0360 -0.5678
  806MOL0     N 8692   4.413   0.103  -0.065  0.0639 -0.3013  0.1183
  806MOL0     C 8693   4.463   0.166  -0.181 -0.3251  0.6143  0.6907
  806MOL0     C 8694   4.579   0.098  -0.215  0.4105  0.0457 -0.7674
  806MOL0     C 8695   4.682   0.133  -0.315  0.7425  0.2543 -0.0612
  806MOL0     C 8696   4.627   0.119  -0.470 -0.4208  0.9928 -0.3039
  806MOL0     C 8697   4.593   0.246  -0.553  0.6360  0.5330 -0.1778
  806MOL0     C 8698   4.721   0.331  -0.590  0.9282  0.3472  0.4382
  806MOL0     O 8699   4.690   0.457  -0.642 -0.0146  0.0540  0.4710
  806MOL0     C 8700   4.777   0.532  -0.720 -0.1485 -0.0734  0.5073
  806MOL0     C 8701   4.898   0.478  -0.764  0.1113 -0.0173 -0.4086
  806MOL0     C 8702   4.979   0.552  -0.846 -0.1559  0.6021 -0.1176
  806MOL0     C 8703   4.945   0.677  -0.887 -0.3330 -0.1625 -0.2102
  806MOL0     C 8704   5.032   0.757  -0.988  0.0461  0.3221  0.1571
  806MOL0     O 8705   5.154   0.704  -1.012  0.1434 -0.5705 -0.5948
  806MOL0     C 8706   5.235   0.765  -1.097  0.2860 -0.3232  0.2342
  806MOL0     C 8707   5.208   0.770  -1.236 -0.5136 -0.6501 -0.3140
  806MOL0     C 8708   5.310   0.815  -1.314 -0.9812 -0.6864  0.5128
  806MOL0     C 8709   5.435   0.861  -1.266 -0.3892 -0.6529 -0.1381
  806MOL0     O 8710   5.531   0.913  -1.348  0.1198 -0.0151  0.3488
  806MOL0     C 8711   5.594   1.042  -1.321  0.2608  0.5074  0.7655
  806MOL0     C 8712   5.669   1.091  -1.445 -0.3782  0.9180 -0.4171
  806MOL0     C 8713   5.796   1.009  -1.481  0.2101 -0.3896  0.0126
  806MOL0     C 8714   5.862   1.081  -1.600  0.5538 -0.1303 -0.3246
  806MOL0     C 8715   5.949   1.202  -1.571 -0.1890  0.1212 -0.4254
  806MOL0     C 8716   6.076   1.161  -1.509 -1.3040  0.3367  0.4654
  806MOL0     C 8717   6.173   1.283  -1.494  0.2772  0.5787  1.0783
  806MOL0     C 8718   6.234   1.347  -1.622 -0.9667 -0.5589  0.3905
  806MOL0    Cl 8719   6.354   1.463  -1.565  0.3051 -0.7640 -0.1218
  806MOL0     C 8720   5.442   0.871  -1.126  0.9557 -0.8726  0.8132
  806MOL0     C 8721   5.343   0.829  -1.042  0.0921 -0.3017 -0.5610
  806MOL0     O 8722   4.991   0.870  -1.025 -0.0146  1.1658 -0.4718
  806MOL0     C 8723   4.818   0.725  -0.857 -0.2617  0.5680 -0.3438
  806MOL0     C 8724   4.729   0.651  -0.775  0.3197 -0.6594 -0.5189
  806MOL0     N 8725   4.599  -0.001  -0.117  0.0344 -0.4794  0.2702
  806MOL0     N 8726   4.503   0.006  -0.028  0.4536  0.2460  0.0767
  806MOL0     C 8727   3.386   0.286   0.279 -0.6273 -0.1265  0.4471
  806MOL0     C 8728   3.245   0.283   0.277  0.5851  0.1214 -0.1746
  806MOL0     C 8729   2.840   0.232   0.053  0.9081 -0.1401 -0.5416
  806MOL0     C 8730   2.751   0.334  -0.001 -1.3132  0.5563  0.0675
  806MOL0     C 8731   2.622   0.322  -0.033 -0.2287  0.0915 -0.9238
  806MOL0     C 8732   2.567   0.193  -0.009 -0.8640  0.1315  0.7267
  806MOL0     O 8733   2.432   0.166  -0.022 -0.3562 -0.2776  0.7089
  806MOL0     C 8734   2.380   0.040   0.027 -0.5654  0.1393 -0.5725
  806MOL0     C 8735   2.230   0.038   0.001 -0.6227 -0.2941  0.4833
  806MOL0     C 8736   2.212   0.056  -0.148  0.8641 -0.7371  0.6259
  806MOL0     C 8737   2.080   0.001  -0.195 -0.1726  0.4659  0.1382
  806MOL0     C 8738   1.978   0.060  -0.108 -0.8582  0.6596  0.2677
  806MOL0     C 8739   1.882   0.098  -0.046 -0.3428 -0.5516 -0.8308
  806MOL0     C 8740   2.656   0.089   0.023 -0.3962 -0.2755  1.0767
  806MOL0     C 8741   2.788   0.103   0.053  0.0162  0.2759  0.1621
  806MOL0     C 8742   2.863  -0.023   0.082  0.4008 -0.9651  0.2716
  806MOL0     H 8743   3.203   0.030   0.050  1.3139  1.5181 -3.4813
  806MOL0     H 8744   3.444   0.043   0.049  1.3353  0.3026  1.2678
  806MOL0     H 8745   3.613   0.042   0.280 -3.2847 -2.3757 -2.6352
  806MOL0     H 8746   3.629   0.019   0.113 -2.4913 -0.1683  0.3800
  806MOL0     H 8747   3.843   0.118   0.091 -0.3557 -2.9987 -1.1034
  806MOL0     H 8748   3.846   0.002   0.224 -0.2196 -0.1931 -0.2699
  806MOL0     H 8749   3.910   0.158   0.377  1.1715  0.4200  0.2385
  806MOL0     H 8750   3.751   0.240   0.357  0.1529 -0.4248 -1.0875
  806MOL0     H 8751   3.871   0.353   0.160 -3.3212 -2.0227  1.1403
  806MOL0     H 8752   3.903   0.409   0.333 -0.4955 -1.7325  2.3420
  806MOL0     H 8753   4.103   0.420   0.226  0.3880  0.5721 -1.1572
  806MOL0     H 8754   4.117   0.277   0.332  2.1565  0.0432 -0.5616
  806MOL0     H 8755   4.073   0.122   0.142  2.4948 -1.6973 -1.2168
  806MOL0     H 8756   4.068   0.259   0.023  4.1579  2.1207 -0.7707
  806MOL0     H 8757   4.315   0.183   0.183 -3.0012 -1.4479  1.1103
  806MOL0     H 8758   4.302   0.297   0.049  0.2292  0.0755  0.2970
  806MOL0     H 8759   4.238   0.004   0.016 -0.5833  0.6814  0.5538
  806MOL0     H 8760   4.209   0.124  -0.099 -4.5416 -4.9082  1.3435
  806MOL0     H 8761   4.414   0.252  -0.225 -2.3692 -0.1422  1.3886
  806MOL0     H 8762   4.715   0.234  -0.288 -3.1511  2.1863 -1.6288
  806MOL0     H 8763   4.757   0.057  -0.295 -0.4955 -1.2641 -0.9763
  806MOL0     H 8764   4.711   0.066  -0.518 -0.4121  1.2419 -0.5650
  806MOL0     H 8765   4.547   0.045  -0.482  0.9830 -0.3762 -1.8478
  806MOL0     H 8766   4.526   0.316  -0.502 -1.8373 -0.9418 -1.2250
  806MOL0     H 8767   4.551   0.220  -0.651  0.2155  2.8084 -0.6507
  806MOL0     H 8768   4.769   0.254  -0.651 -0.7840 -3.7818  3.7193
  806MOL0     H 8769   4.783   0.335  -0.500  0.7810  3.7518  0.4862
  806MOL0     H 8770   4.933   0.379  -0.736 -2.5169 -1.0854 -0.5065
  806MOL0     H 8771   5.079   0.511  -0.855 -0.5593 -0.4947  0.2103
  806MOL0     H 8772   5.112   0.737  -1.272 -0.7891  0.4242 -0.6106
  806MOL0     H 8773   5.286   0.816  -1.420 -2.4828 -0.7769  0.8347
  806MOL0     H 8774   5.516   1.110  -1.285 -2.8403 -2.3908  0.0354
  806MOL0     H 8775   5.674   1.014  -1.253  1.6665 -2.0363 -1.6955
  806MOL0     H 8776   5.620   1.101  -1.542 -2.5669 -1.7087  0.2737
  806MOL0     H 8777   5.708   1.187  -1.412  0.8878  0.7142 -1.2671
  806MOL0     H 8778   5.872   1.013  -1.402  0.3718  2.5701 -0.1538
  806MOL0     H 8779   5.782   0.907  -1.517  1.3745  0.2743 -2.5555
  806MOL0     H 8780   5.785   1.107  -1.673  0.2320  1.6401  0.5850
  806MOL0     H 8781   5.920   1.011  -1.660  0.9514 -1.6133  1.6841
  806MOL0     H 8782   5.893   1.274  -1.511  0.3037  0.2481 -0.1147
  806MOL0     H 8783   5.970   1.247  -1.669  1.0268 -0.5386 -0.4789
  806MOL0     H 8784   6.052   1.119  -1.411 -0.4085 -0.1475  0.4816
  806MOL0     H 8785   6.123   1.078  -1.563  0.1795  0.9303  0.8164
  806MOL0     H 8786   6.262   1.250  -1.439  0.5595 -0.4017  0.0732
  806MOL0     H 8787   6.132   1.357  -1.425 -1.0688  1.5797 -0.7114
  806MOL0     H 8788   6.283   1.275  -1.688  0.9679  0.8651  0.1799
  806MOL0     H 8789   6.158   1.398  -1.681 -0.7521 -2.4418 -1.6681
  806MOL0     H 8790   5.530   0.912  -1.076  0.8244  0.4344  0.0090
  806MOL0     H 8791   5.351   0.825  -0.934  0.1667 -0.8826 -0.5860
  806MOL0     H 8792   4.785   0.822  -0.893  1.1297  0.7265 -1.2673
  806MOL0     H 8793   4.630   0.687  -0.748  1.2366  0.3795  1.7434
  806MOL0     H 8794   3.440   0.366   0.329  1.8347 -1.2512 -0.2378
  806MOL0     H 8795   3.190   0.363   0.327 -2.5726 -0.3262 -2.5823
  806MOL0     H 8796   2.797   0.431  -0.019  4.5233 -1.5644  1.3125
  806MOL0     H 8797   2.556   0.406  -0.055 -0.8247 -0.2713 -0.5762
  806MOL0     H 8798   2.393   0.033   0.136 -1.4249 -0.1463 -0.4860
  806MOL0     H 8799   2.432  -0.044  -0.020  0.4104  0.2378  0.2847
  806MOL0     H 8800   2.178   0.109   0.066  1.0212 -0.2563  1.8198
  806MOL0     H 8801   2.199  -0.064   0.025 -2.8533 -0.1812 -1.5828
  806MOL0     H 8802   2.285   0.010  -0.214  2.0780  2.6230 -0.6165
  806MOL0     H 8803   2.222   0.161  -0.179  1.6763 -1.1492 -0.5988
  806MOL0     H 8804   2.053   0.017  -0.300 -1.0836 -0.7064  0.1704
  806MOL0     H 8805   2.082  -0.108  -0.180 -1.0125  0.4137 -0.1094
  806MOL0     H 8806   1.801   0.126   0.018  1.3185 -2.0082  2.1210
  806MOL0     H 8807   2.615  -0.011   0.024 -2.3717  0.3882 -1.8707
  806MOL0     H 8808   2.865  -0.039   0.190  1.2005  0.8533  0.5489
  806MOL0     H 8809   2.828  -0.112   0.028  2.3574 -2.1022  0.8082
  806MOL0     H 8810   2.967  -0.011   0.051  0.5928  0.5717  1.4226
  807MOL0     O 8811   0.255   0.523   6.172 -0.4557  0.1684  0.0189
  807MOL0     C 8812   0.205   0.505   6.285 -1.6460 -0.9847 -0.3784
  807MOL0     O 8813   0.260   0.539   6.410 -0.1403  0.1590  0.0872
  807MOL0     C 8814   0.375   0.606   6.422 -0.4148  0.4673 -0.0656
  807MOL0     C 8815   0.496   0.531   6.415  0.6919 -0.3573 -0.3158
  807MOL0     C 8816   0.625   0.590   6.403 -0.4887 -0.1065 -0.1155
  807MOL0     C 8817   0.632   0.731   6.386 -0.0196  0.3901 -0.9595
  807MOL0     O 8818   0.740   0.807   6.358 -0.1665  0.2804  0.0986
  807MOL0     C 8819   0.874   0.753   6.378  0.2453 -0.0964  0.3588
  807MOL0     C 8820   0.914   0.724   6.528  0.2708  0.6638 -0.7760
  807MOL0     C 8821   1.055   0.666   6.532 -0.1434 -0.9857 -0.6839
  807MOL0     C 8822   1.113   0.693   6.666  0.5534  0.6631  0.1659
  807MOL0     C 8823   1.248   0.616   6.689 -0.2210  1.0168  0.5519
  807MOL0     C 8824   1.233   0.464   6.691 -0.6117 -0.5693  0.0204
  807MOL0     C 8825   1.369   0.412   6.721  0.0471  0.4300 -0.4547
  807MOL0     C 8826   1.353   0.266   6.768 -0.1824  0.3944 -0.7077
  807MOL0     N 8827   1.482   0.208   6.820  0.2099  0.6769 -0.0763
  807MOL0     C 8828   1.584   0.173   6.752 -0.6588 -0.0997  0.3055
  807MOL0     C 8829   1.669   0.108   6.837  0.4255 -0.3151 -0.3715
  807MOL0     C 8830   1.801   0.043   6.804 -0.5668 -1.1085 -1.5695
  807MOL0     C 8831   1.789  -0.087   6.726 -0.0149 -0.3518  0.5006
  807MOL0     C 8832   1.923  -0.154   6.676 -1.0376  0.0134  0.6337
  807MOL0     C 8833   1.989  -0.048   6.587  0.0971  0.8427  0.0598
  807MOL0     O 8834   2.058  -0.116   6.478 -0.5534 -0.2919 -0.5526
  807MOL0     C 8835   2.182  -0.170   6.497 -0.7185  0.0640  0.1902
  807MOL0     C 8836   2.232  -0.233   6.382 -0.0816 -0.5505  0.1261
  807MOL0     C 8837   2.353  -0.294   6.377  0.1577  0.8631 -1.0418
  807MOL0     C 8838   2.441  -0.289   6.489 -0.2245  0.0956 -0.2134
  807MOL0     C 8839   2.588  -0.327   6.488  0.9949 -0.7257 -0.4163
  807MOL0     O 8840   2.665  -0.316   6.594  0.2677 -0.3402  0.5391
  807MOL0     C 8841   2.802  -0.338   6.575  0.0718 -1.0549 -0.4771
  807MOL0     C 8842   2.847  -0.460   6.538 -0.2689 -0.1082 -0.6404
  807MOL0     C 8843   2.985  -0.488   6.532 -0.1684 -0.2485 -0.0848
  807MOL0     C 8844   3.078  -0.394   6.576 -0.2225 -0.6410  0.0962
  807MOL0     O 8845   3.207  -0.439   6.577 -0.1488 -0.3224 -0.9056
  807MOL0     C 8846   3.307  -0.357   6.512  0.4967  0.2068  0.3284
  807MOL0     C 8847   3.415  -0.438   6.434  0.2412 -0.2177 -0.3633
  807MOL0     C 8848   3.497  -0.515   6.528 -0.1420  0.4831  0.3695
  807MOL0     C 8849   3.638  -0.554   6.477 -0.0005  0.2842 -0.6129
  807MOL0     C 8850   3.705  -0.666   6.558 -0.0537  0.1047 -0.3285
  807MOL0     C 8851   3.855  -0.672   6.553 -0.2560  0.5319  0.4703
  807MOL0     C 8852   3.915  -0.776   6.649  0.9896  0.1147 -0.8189
  807MOL0     C 8853   4.062  -0.749   6.673  0.1195 -0.3446  0.1815
  807MOL0    Cl 8854   4.154  -0.721   6.523  0.1501 -0.1585  0.0535
  807MOL0     C 8855   3.032  -0.260   6.598  0.0649 -0.2118 -0.0559
  807MOL0     C 8856   2.896  -0.241   6.597  0.1060  0.6400  0.0662
  807MOL0     O 8857   2.627  -0.363   6.382 -0.0003  0.0390 -0.7575
  807MOL0     C 8858   2.379  -0.237   6.605  0.0146  0.4598 -0.5936
  807MOL0     C 8859   2.257  -0.187   6.616  0.7848 -0.0325 -0.1984
  807MOL0     N 8860   1.603   0.089   6.958  0.1920 -0.4545  0.0522
  807MOL0     N 8861   1.486   0.160   6.947 -0.1285  0.0753 -0.2277
  807MOL0     C 8862   0.506   0.808   6.390 -0.1305  0.1842  0.4804
  807MOL0     C 8863   0.376   0.750   6.419  0.1131  0.2631  0.6508
  807MOL0     C 8864   0.077   0.452   6.286  0.6592  0.7493  0.5178
  807MOL0     C 8865  -0.031   0.495   6.207  1.8859 -0.0823 -0.0065
  807MOL0     C 8866  -0.164   0.436   6.211 -0.0111 -0.6613 -0.7020
  807MOL0     C 8867  -0.187   0.329   6.300 -0.7356  0.6178  0.3546
  807MOL0     O 8868  -0.301   0.250   6.298  1.0453 -0.0914  0.3048
  807MOL0     C 8869  -0.413   0.286   6.215  0.5952  0.9880  0.8531
  807MOL0     C 8870  -0.541   0.199   6.258 -0.4470  0.4607 -0.5819
  807MOL0     C 8871  -0.651   0.219   6.154  0.5629  0.8669  0.0359
  807MOL0     C 8872  -0.782   0.153   6.200  0.6980 -0.0000 -0.2315
  807MOL0     C 8873  -0.889   0.176   6.108 -0.0845 -0.5661  0.1542
  807MOL0     C 8874  -0.988   0.201   6.038 -0.1596  0.0581  0.7406
  807MOL0     C 8875  -0.083   0.283   6.376  0.1949 -0.3350  0.1172
  807MOL0     C 8876   0.048   0.340   6.362  0.9872  0.0721 -0.5733
  807MOL0     C 8877   0.160   0.245   6.411  0.4799 -0.8624  0.5460
  807MOL0     H 8878   0.481   0.424   6.407 -1.8331  0.0724 -4.0558
  807MOL0     H 8879   0.715   0.531   6.417 -0.2131  0.4515  0.4684
  807MOL0     H 8880   0.879   0.650   6.341 -0.7969 -2.3081  5.4558
  807MOL0     H 8881   0.951   0.818   6.335 -0.7597  2.3881  2.0472
  807MOL0     H 8882   0.838   0.652   6.561 -0.4020  1.9523  0.6010
  807MOL0     H 8883   0.905   0.810   6.595 -1.3638  1.7827 -2.3388
  807MOL0     H 8884   1.119   0.711   6.455  0.2299  1.6273  1.0462
  807MOL0     H 8885   1.055   0.558   6.514  1.2807 -1.8554  3.5374
  807MOL0     H 8886   1.118   0.799   6.691 -0.1973  0.2933  2.1041
  807MOL0     H 8887   1.043   0.643   6.733 -0.7066  0.4332 -1.2433
  807MOL0     H 8888   1.324   0.643   6.615  0.8435  1.8312  1.8980
  807MOL0     H 8889   1.289   0.644   6.786 -0.2571  0.0806  0.8519
  807MOL0     H 8890   1.159   0.439   6.768 -1.6113 -0.5504 -0.9161
  807MOL0     H 8891   1.207   0.421   6.594 -1.6492  0.6749 -0.2847
  807MOL0     H 8892   1.425   0.460   6.801  0.7581 -0.3633 -0.4643
  807MOL0     H 8893   1.430   0.414   6.630  0.4811  0.3224 -0.1678
  807MOL0     H 8894   1.277   0.247   6.845 -2.2973 -0.0858 -2.8050
  807MOL0     H 8895   1.311   0.206   6.687 -2.5821 -1.3722  1.6726
  807MOL0     H 8896   1.594   0.204   6.648 -2.6533 -0.9151 -0.1819
  807MOL0     H 8897   1.860   0.120   6.754  2.1697  0.2345  3.1424
  807MOL0     H 8898   1.860   0.025   6.894 -0.7421  3.7782 -0.2524
  807MOL0     H 8899   1.751  -0.165   6.793 -2.6169 -1.7238 -2.3250
  807MOL0     H 8900   1.724  -0.076   6.639 -2.3643  2.8883  2.3877
  807MOL0     H 8901   1.903  -0.245   6.618 -0.4311  1.0549 -1.3113
  807MOL0     H 8902   1.999  -0.174   6.751 -1.0298  0.3359  0.7157
  807MOL0     H 8903   2.061   0.021   6.633  1.1229 -0.1121 -0.0654
  807MOL0     H 8904   1.917   0.013   6.531 -0.5116 -0.6200 -0.8234
  807MOL0     H 8905   2.181  -0.241   6.287 -0.9580 -0.7296  0.6000
  807MOL0     H 8906   2.397  -0.325   6.283 -0.3283  1.8083 -1.5878
  807MOL0     H 8907   2.775  -0.541   6.533 -0.3418 -0.0338 -0.8277
  807MOL0     H 8908   3.022  -0.588   6.511 -0.1399 -0.1153 -0.6722
  807MOL0     H 8909   3.256  -0.288   6.444  2.0909 -0.5747 -1.7645
  807MOL0     H 8910   3.360  -0.289   6.580  1.3745  0.3798 -0.5110
  807MOL0     H 8911   3.377  -0.497   6.350  0.0212 -0.6602  0.0366
  807MOL0     H 8912   3.463  -0.350   6.391 -4.6250  3.2069  0.3459
  807MOL0     H 8913   3.507  -0.469   6.627  1.6121 -0.3764  0.6421
  807MOL0     H 8914   3.447  -0.610   6.549  0.3679 -0.1893 -1.2974
  807MOL0     H 8915   3.700  -0.464   6.483  1.9416 -1.0957  1.8552
  807MOL0     H 8916   3.635  -0.577   6.370 -2.6797  1.7893 -0.9802
  807MOL0     H 8917   3.661  -0.764   6.536  1.6622 -0.7376 -0.1811
  807MOL0     H 8918   3.677  -0.639   6.660  1.6534  1.4646 -0.1744
  807MOL0     H 8919   3.903  -0.693   6.456 -1.7474  1.8228 -0.5962
  807MOL0     H 8920   3.891  -0.570   6.571 -1.5363  1.5712 -2.2115
  807MOL0     H 8921   3.906  -0.878   6.609  2.1813 -0.0312 -0.7592
  807MOL0     H 8922   3.866  -0.763   6.745 -0.2028 -0.0605 -1.3857
  807MOL0     H 8923   4.066  -0.661   6.737 -1.7776  0.0387 -0.1462
  807MOL0     H 8924   4.101  -0.835   6.728 -3.1247 -3.4788 -1.9488
  807MOL0     H 8925   3.087  -0.175   6.636 -2.7427  1.6564  0.1228
  807MOL0     H 8926   2.860  -0.141   6.619 -3.3785 -0.0707 -1.7296
  807MOL0     H 8927   2.438  -0.227   6.696 -0.1547 -4.0409  0.2644
  807MOL0     H 8928   2.230  -0.161   6.717  1.7171 -3.2116  0.9886
  807MOL0     H 8929   0.515   0.916   6.379 -1.0073  0.2522  0.3812
  807MOL0     H 8930   0.280   0.801   6.421 -0.1066 -0.1397  2.9769
  807MOL0     H 8931  -0.015   0.576   6.136 -2.0477  1.3788  0.4942
  807MOL0     H 8932  -0.250   0.467   6.153 -2.0672  0.0385  2.4216
  807MOL0     H 8933  -0.391   0.257   6.112  0.9623 -2.6616  1.8407
  807MOL0     H 8934  -0.440   0.391   6.202  0.4491  0.6136 -3.2782
  807MOL0     H 8935  -0.564   0.247   6.353 -0.9030 -0.6768 -0.1047
  807MOL0     H 8936  -0.514   0.094   6.271  2.5161  1.1227 -0.7417
  807MOL0     H 8937  -0.606   0.185   6.061  0.9937  0.4830  0.3754
  807MOL0     H 8938  -0.680   0.323   6.136  1.0391  1.1411  0.7739
  807MOL0     H 8939  -0.768   0.045   6.211  0.1975 -0.2952 -2.2312
  807MOL0     H 8940  -0.820   0.195   6.294 -2.7502 -0.3175 -1.3462
  807MOL0     H 8941  -1.077   0.232   5.986  0.1459 -3.7103 -2.4260
  807MOL0     H 8942  -0.090   0.196   6.442 -1.8859 -0.7512 -0.5873
  807MOL0     H 8943   0.118   0.180   6.488  1.7878 -1.5471  0.6983
  807MOL0     H 8944   0.191   0.173   6.336 -0.1275 -0.1370 -0.4199
  807MOL0     H 8945   0.243   0.307   6.446 -1.7467  2.7087  0.0487
  808MOL0     O 8946   4.290  11.145   7.281  0.2247 -0.5576 -0.2609
  808MOL0     C 8947   4.221  11.209   7.205 -0.2139 -0.1326  0.7594
  808MOL0     O 8948   4.236  11.207   7.072 -0.0532  0.1990 -0.0049
  808MOL0     C 8949   4.311  11.116   7.010 -0.5987  0.4145 -0.6502
  808MOL0     C 8950   4.456  11.117   7.014 -0.2556  0.1272 -0.0697
  808MOL0     C 8951   4.536  11.019   6.949  0.6936 -0.2388  0.4619
  808MOL0     C 8952   4.476  10.913   6.875  0.4220  0.2656  0.2988
  808MOL0     O 8953   4.547  10.826   6.810 -0.2697  0.0124 -0.2068
  808MOL0     C 8954   4.497  10.699   6.769  0.2078  0.1030  0.0206
  808MOL0     C 8955   4.611  10.609   6.717  0.1047 -0.4906 -0.0672
  808MOL0     C 8956   4.569  10.478   6.643 -0.4189 -0.1697 -0.0315
  808MOL0     C 8957   4.490  10.503   6.515  0.2657  0.2158 -0.1003
  808MOL0     C 8958   4.478  10.370   6.432  0.4751 -0.3082 -0.0904
  808MOL0     C 8959   4.610  10.331   6.372 -0.4805  1.3446  0.5843
  808MOL0     C 8960   4.617  10.190   6.305  1.7406 -0.3306  0.0911
  808MOL0     C 8961   4.762  10.138   6.303 -0.4505  0.0813 -0.4298
  808MOL0     N 8962   4.836  10.212   6.204 -0.5223  0.6613  0.9131
  808MOL0     C 8963   4.918  10.142   6.118  0.5230 -0.3427 -0.6016
  808MOL0     C 8964   4.998  10.241   6.059 -0.4399  1.0160 -0.1410
  808MOL0     C 8965   5.103  10.210   5.957 -0.4150  0.4345  0.4882
  808MOL0     C 8966   5.228  10.297   5.961  0.2293 -0.3105  0.4687
  808MOL0     C 8967   5.325  10.260   5.852 -0.0750 -0.1050  0.1145
  808MOL0     C 8968   5.459  10.334   5.866  0.1880 -0.6977  0.7048
  808MOL0     O 8969   5.443  10.477   5.839  0.2801  0.0030  0.0371
  808MOL0     C 8970   5.551  10.566   5.837 -0.2065 -0.2154  0.5446
  808MOL0     C 8971   5.531  10.700   5.801  0.1762  0.4332 -0.7465
  808MOL0     C 8972   5.641  10.794   5.789  0.3117  0.5416 -0.4251
  808MOL0     C 8973   5.775  10.750   5.816 -0.1291 -0.0943 -0.1568
  808MOL0     C 8974   5.882  10.846   5.818  0.7511  0.1521 -0.4424
  808MOL0     O 8975   6.013  10.792   5.838  0.3247  0.4133 -0.2365
  808MOL0     C 8976   6.127  10.872   5.837  0.2126 -0.8885  0.1400
  808MOL0     C 8977   6.156  10.972   5.745 -0.7355 -0.8505 -0.1308
  808MOL0     C 8978   6.270  11.054   5.747 -0.9212  0.2593  0.5615
  808MOL0     C 8979   6.362  11.036   5.859 -0.5276  0.1797 -0.6040
  808MOL0     O 8980   6.480  11.112   5.870  0.6048  0.7273 -0.4496
  808MOL0     C 8981   6.536  11.193   5.763  0.8653 -0.4613  0.1435
  808MOL0     C 8982   6.636  11.299   5.814 -0.4557  0.2180  0.2017
  808MOL0     C 8983   6.751  11.324   5.704 -1.2823 -0.0972  0.3381
  808MOL0     C 8984   6.858  11.410   5.773 -0.0745  0.3794  0.5554
  808MOL0     C 8985   6.989  11.412   5.692  0.5681 -0.1389  0.2761
  808MOL0     C 8986   7.106  11.463   5.780  0.6966  0.2198  0.2899
  808MOL0     C 8987   7.215  11.519   5.684  0.7329 -0.4643  0.4290
  808MOL0     C 8988   7.331  11.584   5.755  0.2061  0.2248 -0.3497
  808MOL0    Cl 8989   7.268  11.715   5.862 -0.2971  0.2384  0.1789
  808MOL0     C 8990   6.332  10.934   5.959 -0.5913  0.0205  0.1012
  808MOL0     C 8991   6.208  10.855   5.947 -0.5849  0.4694 -0.1095
  808MOL0     O 8992   5.855  10.967   5.793 -0.4662  0.0288  0.6232
  808MOL0     C 8993   5.797  10.615   5.852  0.0484  0.3705 -0.1210
  808MOL0     C 8994   5.694  10.526   5.857  0.0932  0.7361  1.2750
  808MOL0     N 8995   4.964  10.360   6.116 -0.3027  0.1881 -0.5619
  808MOL0     N 8996   4.863  10.343   6.192  0.2178  0.3765 -0.2283
  808MOL0     C 8997   4.332  10.928   6.854  0.7335  0.4174  0.9335
  808MOL0     C 8998   4.253  11.020   6.928  0.6224 -0.0390  0.1464
  808MOL0     C 8999   4.106  11.285   7.271 -0.0745 -0.1656  0.3675
  808MOL0     C 9000   4.123  11.330   7.401  0.6286 -0.1387  0.4441
  808MOL0     C 9001   4.031  11.411   7.470 -0.2784  0.3312 -0.7814
  808MOL0     C 9002   3.905  11.443   7.414 -1.2452  0.3029 -0.1085
  808MOL0     O 9003   3.797  11.498   7.481 -0.2136 -0.1864 -0.0082
  808MOL0     C 9004   3.826  11.567   7.603  0.4908 -0.5052 -0.2920
  808MOL0     C 9005   3.702  11.656   7.623 -0.2305 -0.0443 -1.0350
  808MOL0     C 9006   3.682  11.773   7.520 -0.8270  0.0461 -0.4732
  808MOL0     C 9007   3.536  11.822   7.521 -0.8227  0.2003  0.2275
  808MOL0     C 9008   3.489  11.849   7.655 -0.7703 -0.6508 -0.2035
  808MOL0     C 9009   3.420  11.853   7.756 -0.6353  0.0133 -0.1192
  808MOL0     C 9010   3.884  11.393   7.275 -0.0043  0.0892 -0.4360
  808MOL0     C 9011   3.980  11.314   7.208 -0.3654  0.2450  0.3431
  808MOL0     C 9012   3.954  11.275   7.063  0.4503  1.2576 -0.1959
  808MOL0     H 9013   4.505  11.197   7.068 -0.6680  0.2465  0.1295
  808MOL0     H 9014   4.639  11.019   6.981 -0.1989 -0.8402  3.7130
  808MOL0     H 9015   4.454  10.645   6.853 -0.7479  0.1877 -0.4067
  808MOL0     H 9016   4.411  10.711   6.702  0.7932  1.3874 -0.5568
  808MOL0     H 9017   4.686  10.583   6.792  1.1869  0.2498 -0.8723
  808MOL0     H 9018   4.671  10.677   6.656  0.3586  0.7349  1.4869
  808MOL0     H 9019   4.515  10.403   6.701 -0.2448 -0.1062  0.2169
  808MOL0     H 9020   4.665  10.428   6.625  0.0583  1.2427 -1.7191
  808MOL0     H 9021   4.393  10.541   6.547  0.3540 -2.5509  4.1625
  808MOL0     H 9022   4.540  10.580   6.456  1.2336  2.1057  2.9668
  808MOL0     H 9023   4.437  10.295   6.500  0.9458 -0.6054 -0.1298
  808MOL0     H 9024   4.403  10.381   6.353 -3.1977 -1.9746  2.8522
  808MOL0     H 9025   4.630  10.400   6.290 -0.8083 -1.1707 -1.7809
  808MOL0     H 9026   4.691  10.346   6.444  0.4522 -0.9659  0.1092
  808MOL0     H 9027   4.574  10.201   6.205  3.6484  0.1433 -0.7326
  808MOL0     H 9028   4.553  10.124   6.364  0.6954  0.1676 -0.4495
  808MOL0     H 9029   4.814  10.134   6.400  0.6711 -0.4030 -1.0349
  808MOL0     H 9030   4.746  10.034   6.273  0.7885 -1.1425  2.6668
  808MOL0     H 9031   4.905  10.038   6.088 -0.3442 -0.0733 -1.2221
  808MOL0     H 9032   5.125  10.104   5.967 -1.7035  0.1383  0.3872
  808MOL0     H 9033   5.048  10.221   5.863  1.6059  2.1551 -0.5961
  808MOL0     H 9034   5.198  10.402   5.957 -1.4705 -0.7767  0.4059
  808MOL0     H 9035   5.269  10.277   6.061  1.4499 -0.0340  0.0449
  808MOL0     H 9036   5.266  10.288   5.764 -1.1329 -0.0055  0.8336
  808MOL0     H 9037   5.341  10.152   5.851  0.2074 -0.1130 -3.1612
  808MOL0     H 9038   5.538  10.290   5.804  1.7707 -0.1035  2.2351
  808MOL0     H 9039   5.502  10.318   5.965 -0.5293 -1.1025  0.9564
  808MOL0     H 9040   5.432  10.741   5.782 -0.7263 -1.1821  0.3420
  808MOL0     H 9041   5.611  10.893   5.759  0.9692  0.4332 -1.4836
  808MOL0     H 9042   6.090  10.979   5.659 -0.2403  0.2755 -0.4400
  808MOL0     H 9043   6.294  11.127   5.670  5.9510 -1.5637  0.3052
  808MOL0     H 9044   6.593  11.130   5.694  0.4879  0.9496 -1.5590
  808MOL0     H 9045   6.460  11.237   5.698  0.5588 -2.1210 -0.6528
  808MOL0     H 9046   6.576  11.390   5.822 -1.0948 -0.0284 -1.3619
  808MOL0     H 9047   6.693  11.265   5.901  2.5354 -2.0089 -2.3738
  808MOL0     H 9048   6.787  11.224   5.678 -0.9940  0.5935 -2.2361
  808MOL0     H 9049   6.726  11.371   5.609  0.0402  1.5240  0.7605
  808MOL0     H 9050   6.869  11.367   5.873 -0.4437  1.0475  0.8920
  808MOL0     H 9051   6.820  11.511   5.794 -1.0141  0.0670  0.4165
  808MOL0     H 9052   6.969  11.474   5.604  1.5217  1.5210  1.1790
  808MOL0     H 9053   7.010  11.309   5.662 -2.8179 -1.0974  0.6908
  808MOL0     H 9054   7.069  11.536   5.852  0.5789 -0.8638  1.3545
  808MOL0     H 9055   7.149  11.376   5.829  3.4692  1.8248  0.9457
  808MOL0     H 9056   7.178  11.589   5.609  1.8254  1.1413  1.3387
  808MOL0     H 9057   7.235  11.427   5.627 -1.3039 -0.4734 -0.3554
  808MOL0     H 9058   7.383  11.508   5.814  2.5060  0.3110 -2.0855
  808MOL0     H 9059   7.407  11.617   5.682 -1.6217 -0.8147 -2.8718
  808MOL0     H 9060   6.389  10.929   6.051  2.4624  0.5808 -1.6534
  808MOL0     H 9061   6.183  10.782   6.024  0.7550  0.1788  0.0803
  808MOL0     H 9062   5.898  10.577   5.861  0.3072 -1.7340 -6.6329
  808MOL0     H 9063   5.718  10.425   5.888  2.8096  1.4110  1.6164
  808MOL0     H 9064   4.283  10.872   6.775  0.7960  2.3406 -0.5502
  808MOL0     H 9065   4.146  11.030   6.912  1.0697  2.9538 -1.7274
  808MOL0     H 9066   4.218  11.309   7.449 -0.5605 -0.8950  2.6109
  808MOL0     H 9067   4.046  11.440   7.573  2.1109 -1.3364 -0.5792
  808MOL0     H 9068   3.916  11.630   7.610 -0.8648  1.6898 -1.4127
  808MOL0     H 9069   3.835  11.488   7.678 -0.7849  0.3682  0.8292
  808MOL0     H 9070   3.707  11.690   7.727  0.4958 -2.2818 -0.2717
  808MOL0     H 9071   3.623  11.582   7.605 -1.8170  1.2910  0.1532
  808MOL0     H 9072   3.712  11.733   7.423 -0.2677  1.1051 -0.7481
  808MOL0     H 9073   3.765  11.841   7.539 -0.7971 -0.1781  0.2330
  808MOL0     H 9074   3.522  11.906   7.452 -0.7159 -0.4673 -0.6243
  808MOL0     H 9075   3.476  11.744   7.476 -0.1905  0.4669 -1.1263
  808MOL0     H 9076   3.348  11.847   7.835 -0.5782 -2.0750 -0.1799
  808MOL0     H 9077   3.792  11.412   7.221 -1.5633 -0.8887  1.7583
  808MOL0     H 9078   3.996  11.176   7.041 -0.8772  0.3062  1.3056
  808MOL0     H 9079   3.848  11.256   7.042  0.5510  0.9224 -0.4176
  808MOL0     H 9080   3.995  11.345   6.990  0.9803  1.7303  0.5410
  809MOL0     O 9081   0.985   1.827   7.433  0.6076  0.3432 -0.4730
  809MOL0     C 9082   0.896   1.767   7.376 -0.1834  0.9863  0.0142
  809MOL0     O 9083   0.914   1.673   7.277  0.4998 -0.5013 -0.6257
  809MOL0     C 9084   1.045   1.634   7.249  0.4049  0.9823  0.4716
  809MOL0     C 9085   1.135   1.714   7.184  0.3849 -1.0923 -0.3809
  809MOL0     C 9086   1.262   1.669   7.142  0.1271  0.4446 -0.8867
  809MOL0     C 9087   1.298   1.539   7.173  0.3067  0.1412  0.4215
  809MOL0     O 9088   1.417   1.498   7.129 -0.3906  0.5557  0.2300
  809MOL0     C 9089   1.424   1.368   7.055  0.0119  1.1492  0.0803
  809MOL0     C 9090   1.565   1.357   7.010 -0.5160 -0.8686 -0.0234
  809MOL0     C 9091   1.601   1.220   6.943 -0.2549  0.1889 -0.0754
  809MOL0     C 9092   1.750   1.203   6.897 -0.2267 -0.2990 -0.1055
  809MOL0     C 9093   1.792   1.058   6.876  0.2504 -0.6578  0.2185
  809MOL0     C 9094   1.932   1.063   6.807 -0.0663 -0.2433 -0.1836
  809MOL0     C 9095   2.009   0.942   6.841 -0.5255  0.4883  0.2577
  809MOL0     C 9096   2.128   0.932   6.747 -0.2170 -0.8511 -0.2870
  809MOL0     N 9097   2.226   0.846   6.813 -0.0876  0.0731  0.2543
  809MOL0     C 9098   2.350   0.873   6.847 -0.0529 -0.4001 -0.3981
  809MOL0     C 9099   2.398   0.775   6.912 -0.2358 -0.5299 -1.4196
  809MOL0     C 9100   2.532   0.766   6.983  0.3014  0.6663 -0.0069
  809MOL0     C 9101   2.554   0.865   7.093  0.4384 -0.0735  0.6774
  809MOL0     C 9102   2.667   0.844   7.198  0.4280  0.0352 -0.0498
  809MOL0     C 9103   2.805   0.847   7.134  0.4337  0.3968 -1.4345
  809MOL0     O 9104   2.916   0.850   7.222 -0.6968  0.1274  0.2862
  809MOL0     C 9105   3.041   0.874   7.168 -0.3065 -0.1408 -0.4073
  809MOL0     C 9106   3.089   0.813   7.060  0.7657  0.6790 -0.0600
  809MOL0     C 9107   3.209   0.851   7.003 -0.2992 -1.0303  0.6270
  809MOL0     C 9108   3.288   0.956   7.057  0.1845  0.0678  0.2424
  809MOL0     C 9109   3.409   0.991   6.988  0.7460  0.4524  0.1832
  809MOL0     O 9110   3.512   1.000   7.065 -0.7191 -0.9425 -0.4213
  809MOL0     C 9111   3.633   1.008   6.997 -1.1946 -0.2825  0.3676
  809MOL0     C 9112   3.674   0.932   6.879 -0.3504 -0.0586 -0.6200
  809MOL0     C 9113   3.800   0.938   6.825 -0.7444 -1.0680  0.6265
  809MOL0     C 9114   3.896   1.024   6.886 -0.0550  0.0674  0.0243
  809MOL0     O 9115   4.019   1.037   6.829 -0.4558  0.1973  0.2247
  809MOL0     C 9116   4.064   0.955   6.730 -0.1085  0.2649  0.0242
  809MOL0     C 9117   4.213   0.987   6.716 -0.1099  0.2261  0.1564
  809MOL0     C 9118   4.286   0.865   6.664  0.5091  0.3592  0.9649
  809MOL0     C 9119   4.440   0.893   6.682 -0.0562  0.1319 -0.6339
  809MOL0     C 9120   4.530   0.806   6.580  0.3513 -0.3404 -0.6895
  809MOL0     C 9121   4.674   0.795   6.618 -0.2673 -0.5162 -0.3022
  809MOL0     C 9122   4.770   0.723   6.522 -0.2783 -1.3262 -0.2641
  809MOL0     C 9123   4.919   0.732   6.576 -0.9044  0.5623 -0.0870
  809MOL0    Cl 9124   5.049   0.710   6.455 -0.2621 -0.2500  0.0349
  809MOL0     C 9125   3.863   1.100   6.996 -0.6763 -0.0352 -0.1197
  809MOL0     C 9126   3.735   1.089   7.058  0.4095 -0.6831 -0.2410
  809MOL0     O 9127   3.400   0.991   6.864 -0.4090  0.1679  0.4197
  809MOL0     C 9128   3.244   1.020   7.173 -0.7581  0.4732 -0.6210
  809MOL0     C 9129   3.118   0.981   7.222  1.1342 -0.0731 -0.4334
  809MOL0     N 9130   2.304   0.674   6.919  0.0553  0.8288  0.2134
  809MOL0     N 9131   2.199   0.718   6.859  1.1264  0.4116  0.5503
  809MOL0     C 9132   1.207   1.448   7.236 -0.0012  0.0564 -0.2430
  809MOL0     C 9133   1.080   1.497   7.275 -0.0368 -0.4455 -1.5211
  809MOL0     C 9134   0.759   1.789   7.422 -0.1517 -0.7744  1.2232
  809MOL0     C 9135   0.659   1.797   7.325  0.2235 -0.7436 -0.0681
  809MOL0     C 9136   0.525   1.842   7.350 -1.0319  0.4641  0.1811
  809MOL0     C 9137   0.484   1.880   7.479  1.0281 -0.1778 -0.0563
  809MOL0     O 9138   0.363   1.941   7.510 -0.6031  1.1674 -0.5110
  809MOL0     C 9139   0.242   1.977   7.439  0.4569 -0.0594  0.0093
  809MOL0     C 9140   0.171   1.854   7.388 -0.5335  0.4584  0.0872
  809MOL0     C 9141   0.024   1.875   7.340 -1.0966 -0.1419 -0.2436
  809MOL0     C 9142  -0.065   1.927   7.446  0.2721 -0.3763  0.7377
  809MOL0     C 9143  -0.087   1.837   7.558 -1.4208  1.0243 -0.8152
  809MOL0     C 9144  -0.115   1.757   7.645  0.3173  0.4414 -1.0021
  809MOL0     C 9145   0.587   1.868   7.585 -0.5001  0.4416 -0.4771
  809MOL0     C 9146   0.722   1.814   7.558  0.1648  0.3217  0.1219
  809MOL0     C 9147   0.827   1.800   7.673  0.0361 -0.0158  0.4104
  809MOL0     H 9148   1.108   1.816   7.160 -3.7714 -1.6144  1.1855
  809MOL0     H 9149   1.321   1.742   7.088 -0.4518 -0.3405 -2.6406
  809MOL0     H 9150   1.406   1.284   7.122  3.2394  1.1190  1.0658
  809MOL0     H 9151   1.359   1.361   6.967 -0.4856 -2.1853  0.5589
  809MOL0     H 9152   1.635   1.371   7.092  0.8184  0.6918 -1.3382
  809MOL0     H 9153   1.604   1.424   6.932 -0.2081  2.4360  2.7234
  809MOL0     H 9154   1.527   1.195   6.866 -1.1864  0.0368  0.8495
  809MOL0     H 9155   1.597   1.143   7.020  0.8463  0.7849  0.6147
  809MOL0     H 9156   1.774   1.260   6.806  0.8082 -2.6678 -1.4223
  809MOL0     H 9157   1.815   1.238   6.977  0.7267  0.5979 -1.2241
  809MOL0     H 9158   1.791   1.008   6.974 -1.1677  0.8696  1.0255
  809MOL0     H 9159   1.721   1.004   6.813  0.4559 -1.6876  0.8332
  809MOL0     H 9160   1.915   1.075   6.700  0.1949 -0.6654 -0.2721
  809MOL0     H 9161   1.981   1.156   6.838 -1.2786 -0.0477  1.2722
  809MOL0     H 9162   1.948   0.851   6.831  1.3547 -0.9706  1.4665
  809MOL0     H 9163   2.051   0.946   6.942  0.3008  2.2834 -0.1098
  809MOL0     H 9164   2.096   0.887   6.653 -2.3616 -4.9944  2.1170
  809MOL0     H 9165   2.170   1.032   6.737 -3.4527  0.7293  0.4565
  809MOL0     H 9166   2.408   0.964   6.835 -0.2149 -0.1501  0.6002
  809MOL0     H 9167   2.546   0.665   7.022 -1.1815 -0.1910 -1.5715
  809MOL0     H 9168   2.619   0.778   6.919  0.6448 -1.4383  0.0017
  809MOL0     H 9169   2.564   0.965   7.049 -1.3856 -1.2286 -2.7703
  809MOL0     H 9170   2.460   0.877   7.146 -0.3457 -1.6463 -0.2628
  809MOL0     H 9171   2.647   0.744   7.238  0.7524 -0.9468 -2.1946
  809MOL0     H 9172   2.671   0.922   7.274  2.2600 -0.3961  0.3278
  809MOL0     H 9173   2.812   0.934   7.068  3.5692 -1.6176 -4.1018
  809MOL0     H 9174   2.811   0.756   7.074 -2.1447 -0.0383 -1.1458
  809MOL0     H 9175   3.023   0.737   7.018  3.3020 -0.7277 -1.8096
  809MOL0     H 9176   3.258   0.808   6.916  0.5384 -0.0014  0.5625
  809MOL0     H 9177   3.608   0.861   6.829 -2.1651  1.6869 -0.8147
  809MOL0     H 9178   3.815   0.870   6.742 -0.7085 -0.6918  0.3223
  809MOL0     H 9179   4.041   0.852   6.759 -0.6583  0.5665  0.6813
  809MOL0     H 9180   4.011   0.987   6.640  0.1422 -1.2918 -0.6967
  809MOL0     H 9181   4.220   1.071   6.646 -0.7744  1.0345  1.0192
  809MOL0     H 9182   4.259   1.008   6.813  2.1657 -0.1783 -0.7721
  809MOL0     H 9183   4.257   0.780   6.726  0.0517  0.1979  0.5411
  809MOL0     H 9184   4.269   0.852   6.557 -1.3603 -2.2450  1.4671
  809MOL0     H 9185   4.464   0.871   6.787 -0.1155 -3.4300 -1.2535
  809MOL0     H 9186   4.455   0.997   6.651 -0.7865  0.1189 -1.0405
  809MOL0     H 9187   4.526   0.846   6.478 -1.5374  0.8334 -0.1878
  809MOL0     H 9188   4.488   0.705   6.577  0.2214 -0.3460  0.7154
  809MOL0     H 9189   4.714   0.895   6.635 -1.0924 -0.6862  3.3067
  809MOL0     H 9190   4.673   0.745   6.716 -1.0145  2.2944  1.2170
  809MOL0     H 9191   4.764   0.781   6.430 -0.8660  0.7596  1.0136
  809MOL0     H 9192   4.748   0.619   6.499  4.5603 -2.9269  1.0242
  809MOL0     H 9193   4.931   0.824   6.633 -0.3988  1.0925 -1.0225
  809MOL0     H 9194   4.932   0.651   6.648 -0.9917 -2.9533 -3.7073
  809MOL0     H 9195   3.938   1.167   7.038  0.3362 -1.2178  0.0123
  809MOL0     H 9196   3.717   1.151   7.146 -1.1337 -0.3100 -0.8028
  809MOL0     H 9197   3.301   1.094   7.227  2.1850 -0.9104 -1.6265
  809MOL0     H 9198   3.082   1.021   7.316  3.6167  2.4363 -0.4208
  809MOL0     H 9199   1.236   1.346   7.260  0.1578 -0.1905 -1.4164
  809MOL0     H 9200   1.019   1.421   7.324 -0.2035  0.1284 -0.8254
  809MOL0     H 9201   0.690   1.773   7.224  0.4579 -1.9523  0.2737
  809MOL0     H 9202   0.451   1.838   7.272 -1.8252 -4.0643  0.9178
  809MOL0     H 9203   0.273   2.041   7.355 -0.3911 -0.4200 -0.5881
  809MOL0     H 9204   0.171   2.032   7.500  1.3446  0.0436  0.9818
  809MOL0     H 9205   0.177   1.776   7.465  3.4100  1.7080  1.2754
  809MOL0     H 9206   0.211   1.812   7.295 -1.6109  1.0434 -0.6652
  809MOL0     H 9207  -0.002   1.773   7.309 -3.0269  0.3079 -0.2501
  809MOL0     H 9208   0.016   1.938   7.251 -1.2007 -0.0749 -0.1870
  809MOL0     H 9209  -0.035   2.027   7.479  1.0841 -0.2990 -0.2112
  809MOL0     H 9210  -0.162   1.940   7.397  0.1024 -3.2395  0.1334
  809MOL0     H 9211  -0.139   1.679   7.714 -0.0824  1.4803  0.0792
  809MOL0     H 9212   0.565   1.899   7.687  0.7498 -3.3163  1.1007
  809MOL0     H 9213   0.894   1.718   7.650 -0.3878 -0.3426  0.3290
  809MOL0     H 9214   0.885   1.893   7.678  1.1262 -0.5274 -1.7520
  809MOL0     H 9215   0.775   1.784   7.768 -0.8370  1.0622  0.1426
  810MOL0     O 9216   2.453  10.248   7.314  0.2076  0.4612  1.2079
  810MOL0     C 9217   2.422  10.318   7.218 -0.2985  0.1155 -0.6364
  810MOL0     O 9218   2.509  10.368   7.132 -0.4337 -0.2688  0.3706
  810MOL0     C 9219   2.643  10.337   7.139  0.3854  0.6142  0.0157
  810MOL0     C 9220   2.690  10.210   7.153 -0.6775  0.9041  0.1811
  810MOL0     C 9221   2.832  10.188   7.174  0.0960  0.3235  0.2029
  810MOL0     C 9222   2.919  10.295   7.177  0.7023 -0.0562  0.7331
  810MOL0     O 9223   3.047  10.259   7.196 -0.0945 -0.1195 -0.4614
  810MOL0     C 9224   3.144  10.362   7.225  0.2269  0.2752  1.1735
  810MOL0     C 9225   3.254  10.296   7.304  0.8910 -0.4226 -0.3883
  810MOL0     C 9226   3.304  10.386   7.419  1.1026  0.8169 -0.0844
  810MOL0     C 9227   3.389  10.299   7.511  0.1410  0.5119 -0.4960
  810MOL0     C 9228   3.472  10.378   7.608  0.2868 -0.0385  0.3015
  810MOL0     C 9229   3.572  10.304   7.695  1.0158 -0.2073  0.0519
  810MOL0     C 9230   3.681  10.392   7.764 -0.0020  0.9479  0.6005
  810MOL0     C 9231   3.804  10.305   7.816  0.6478  0.5822 -0.4852
  810MOL0     N 9232   3.916  10.384   7.873  0.7437  0.4401 -0.0421
  810MOL0     C 9233   3.985  10.484   7.802 -0.3464  0.0332  0.2775
  810MOL0     C 9234   4.078  10.530   7.883  0.5623 -0.4679  0.1672
  810MOL0     C 9235   4.181  10.630   7.850 -0.1939 -0.4123  0.7317
  810MOL0     C 9236   4.309  10.564   7.788 -0.4036 -1.0432 -0.4345
  810MOL0     C 9237   4.404  10.685   7.769 -0.1572  0.4340 -0.8811
  810MOL0     C 9238   4.541  10.618   7.729  0.5857 -0.7346  0.3901
  810MOL0     O 9239   4.640  10.712   7.705 -0.0848 -0.3833  0.0106
  810MOL0     C 9240   4.746  10.691   7.631 -0.7950 -0.7114  0.4472
  810MOL0     C 9241   4.793  10.560   7.600 -0.3411 -0.0345 -0.4918
  810MOL0     C 9242   4.905  10.534   7.520  0.6925  0.7196 -0.8406
  810MOL0     C 9243   4.973  10.639   7.460  1.2384  0.3038  0.4789
  810MOL0     C 9244   5.097  10.615   7.381 -0.6451  0.1021  0.2918
  810MOL0     O 9245   5.126  10.484   7.360 -0.5364 -0.2543 -0.0834
  810MOL0     C 9246   5.240  10.458   7.294 -0.6336  0.6907 -0.4039
  810MOL0     C 9247   5.241  10.409   7.168  0.5901  0.2471 -0.8309
  810MOL0     C 9248   5.352  10.367   7.098  0.5714  0.5174  0.7541
  810MOL0     C 9249   5.480  10.391   7.149 -0.1408  0.3157  0.6769
  810MOL0     O 9250   5.605  10.361   7.089  0.2047 -0.0437  0.0555
  810MOL0     C 9251   5.604  10.307   6.954 -0.2789 -0.3653  0.6651
  810MOL0     C 9252   5.737  10.322   6.884 -0.3497 -0.6126 -0.1338
  810MOL0     C 9253   5.755  10.238   6.758  0.3933 -0.0688 -0.6562
  810MOL0     C 9254   5.908  10.220   6.721  0.8251 -0.8419  0.6033
  810MOL0     C 9255   5.941  10.106   6.627  0.3111  0.8244  0.6575
  810MOL0     C 9256   5.853  10.109   6.494  0.0423 -0.7137  0.4456
  810MOL0     C 9257   5.824   9.964   6.422 -0.5545 -0.3204 -0.3116
  810MOL0     C 9258   5.956   9.924   6.361 -0.2654 -0.1752 -0.2751
  810MOL0    Cl 9259   6.051   9.854   6.490 -0.5377 -0.0535  0.2283
  810MOL0     C 9260   5.483  10.445   7.276  0.9895 -0.5687 -0.5993
  810MOL0     C 9261   5.366  10.484   7.347  0.2560 -0.4533 -0.1243
  810MOL0     O 9262   5.165  10.716   7.356 -1.2067 -0.4967 -0.6919
  810MOL0     C 9263   4.924  10.770   7.491 -0.2690 -0.8107  0.5730
  810MOL0     C 9264   4.818  10.799   7.574  1.4580  0.5575 -0.9816
  810MOL0     N 9265   4.065  10.463   8.006 -1.2094  0.0881 -0.0117
  810MOL0     N 9266   3.966  10.383   7.994  0.1899  0.4163 -0.3479
  810MOL0     C 9267   2.871  10.424   7.154 -0.3679  0.1440 -0.0975
  810MOL0     C 9268   2.730  10.444   7.143  0.7345  0.0113  0.4715
  810MOL0     C 9269   2.285  10.319   7.189  0.7170 -0.1564  0.4800
  810MOL0     C 9270   2.245  10.326   7.054 -0.0463 -0.3517  0.5267
  810MOL0     C 9271   2.111  10.309   7.017  0.1535 -0.2897  0.5209
  810MOL0     C 9272   2.008  10.291   7.110  0.2422  0.4192  0.4131
  810MOL0     O 9273   1.880  10.286   7.062  0.3568 -0.3019 -0.7879
  810MOL0     C 9274   1.767  10.254   7.146  0.5683  0.6778 -0.3491
  810MOL0     C 9275   1.640  10.228   7.061  0.1267  0.1804 -0.2367
  810MOL0     C 9276   1.669  10.119   6.964  0.1558 -0.3038  0.3595
  810MOL0     C 9277   1.563  10.114   6.858 -0.0981  0.1825 -0.1652
  810MOL0     C 9278   1.584  10.011   6.757  0.4285  0.5839 -0.3496
  810MOL0     C 9279   1.608   9.921   6.683  0.8241  0.2105  0.3163
  810MOL0     C 9280   2.040  10.289   7.244 -0.2486 -0.5183 -0.6025
  810MOL0     C 9281   2.177  10.308   7.287 -0.6746  0.5992 -0.3002
  810MOL0     C 9282   2.192  10.293   7.441  0.7161  0.1021  0.1953
  810MOL0     H 9283   2.632  10.119   7.155 -1.4384  1.3924  1.1259
  810MOL0     H 9284   2.864  10.085   7.183  0.1364  0.2943 -0.2719
  810MOL0     H 9285   3.198  10.403   7.138 -1.7025  2.3295  0.8536
  810MOL0     H 9286   3.101  10.444   7.284 -1.9317  1.0977 -1.3442
  810MOL0     H 9287   3.330  10.263   7.233  0.6745 -1.6067 -0.0879
  810MOL0     H 9288   3.216  10.204   7.347  3.4272 -2.6710 -2.5820
  810MOL0     H 9289   3.215  10.424   7.470  0.2987  0.8840 -1.4963
  810MOL0     H 9290   3.361  10.469   7.375 -0.5300  3.2503  2.1278
  810MOL0     H 9291   3.329  10.232   7.574  1.6478 -0.9113 -0.5018
  810MOL0     H 9292   3.448  10.236   7.444 -0.8853  0.0223 -0.9734
  810MOL0     H 9293   3.530  10.449   7.549 -0.5865  0.9313  0.5919
  810MOL0     H 9294   3.410  10.441   7.672 -1.2351 -1.5652  0.4028
  810MOL0     H 9295   3.517  10.252   7.774  0.1622  1.5707  0.6878
  810MOL0     H 9296   3.628  10.228   7.640  4.1943 -1.0690  3.9396
  810MOL0     H 9297   3.627  10.460   7.832  0.4831  2.1049 -0.1357
  810MOL0     H 9298   3.726  10.460   7.691 -0.5881  1.2232  0.4863
  810MOL0     H 9299   3.763  10.232   7.887 -0.8559  0.2435 -1.6477
  810MOL0     H 9300   3.842  10.246   7.733  1.0324 -2.8784  1.9250
  810MOL0     H 9301   3.974  10.520   7.700 -1.0683 -0.4581  0.1701
  810MOL0     H 9302   4.146  10.699   7.772  1.2056 -0.9725 -0.4392
  810MOL0     H 9303   4.202  10.684   7.943  2.1065  1.5157 -0.7907
  810MOL0     H 9304   4.352  10.493   7.859  0.9800 -1.1714 -1.3616
  810MOL0     H 9305   4.296  10.521   7.688  1.4921  2.5177 -2.4277
  810MOL0     H 9306   4.412  10.740   7.864  1.3314 -1.9376  0.4733
  810MOL0     H 9307   4.367  10.743   7.684 -1.4185  1.0379  0.0444
  810MOL0     H 9308   4.527  10.551   7.644 -1.4915  0.8873 -0.6617
  810MOL0     H 9309   4.572  10.544   7.803 -0.2807  0.1204  1.6519
  810MOL0     H 9310   4.743  10.471   7.637  2.5906 -1.5194  0.2049
  810MOL0     H 9311   4.941  10.432   7.522  1.5251  1.0059 -0.7520
  810MOL0     H 9312   5.143  10.407   7.121  0.2491 -2.7566 -0.1579
  810MOL0     H 9313   5.345  10.330   6.996  3.1157  1.9954 -0.0414
  810MOL0     H 9314   5.573  10.202   6.955 -0.9019 -0.1939  0.1830
  810MOL0     H 9315   5.524  10.350   6.894  0.0181 -0.5550  0.1253
  810MOL0     H 9316   5.756  10.427   6.862  1.9200 -1.0822 -0.6862
  810MOL0     H 9317   5.819  10.284   6.946 -2.0003 -0.6457  2.1423
  810MOL0     H 9318   5.707  10.140   6.773 -1.6396  0.4607 -3.0857
  810MOL0     H 9319   5.698  10.283   6.677  0.7006 -2.6024 -2.4008
  810MOL0     H 9320   5.959  10.183   6.811 -0.9794 -6.2871 -0.2346
  810MOL0     H 9321   5.946  10.315   6.683 -0.5372  0.1109  1.5424
  810MOL0     H 9322   5.911  10.010   6.671 -1.2284  1.1521  0.4122
  810MOL0     H 9323   6.043  10.097   6.591  0.6168 -1.1313  1.8963
  810MOL0     H 9324   5.759  10.160   6.518  1.1271  1.1142  1.0435
  810MOL0     H 9325   5.904  10.172   6.421 -2.3405  0.0577 -0.6417
  810MOL0     H 9326   5.758   9.994   6.340 -0.3493 -0.8755 -0.6872
  810MOL0     H 9327   5.775   9.889   6.484 -0.4764 -2.3768 -2.5592
  810MOL0     H 9328   5.930   9.849   6.285 -0.5099 -1.1524  0.7436
  810MOL0     H 9329   6.011  10.000   6.304  0.5990 -1.2929 -0.9609
  810MOL0     H 9330   5.578  10.473   7.321  0.1392  0.2520  0.7956
  810MOL0     H 9331   5.373  10.520   7.449  1.5523  1.8538 -0.9256
  810MOL0     H 9332   4.971  10.861   7.454 -0.2732 -0.5701  1.1542
  810MOL0     H 9333   4.784  10.901   7.584  2.6146  0.8477  0.2673
  810MOL0     H 9334   2.939  10.506   7.132 -1.9887  1.4563 -0.5145
  810MOL0     H 9335   2.686  10.544   7.141  0.5747  0.1831  4.2754
  810MOL0     H 9336   2.323  10.319   6.978 -1.1660 -0.1577 -0.6810
  810MOL0     H 9337   2.082  10.296   6.913  0.1417  0.1558  0.4657
  810MOL0     H 9338   1.747  10.346   7.201 -3.0979 -0.7139  0.9677
  810MOL0     H 9339   1.780  10.171   7.216 -1.1964  1.5369  1.0653
  810MOL0     H 9340   1.615  10.318   7.004  1.1673 -0.5095 -1.8576
  810MOL0     H 9341   1.559  10.200   7.129  0.0603  1.3277  0.1837
  810MOL0     H 9342   1.680  10.023   7.015 -3.9537  0.0931  2.4631
  810MOL0     H 9343   1.756  10.140   6.901 -0.6005  2.9239  0.2474
  810MOL0     H 9344   1.460  10.111   6.894 -1.9111 -1.0140 -4.8119
  810MOL0     H 9345   1.558  10.205   6.798  2.7598  0.9275  0.5658
  810MOL0     H 9346   1.617   9.835   6.620  2.0011 -0.8490  1.8332
  810MOL0     H 9347   1.960  10.265   7.313 -0.3477  1.8363  0.1903
  810MOL0     H 9348   2.104  10.317   7.502  1.0882 -1.1108  1.2630
  810MOL0     H 9349   2.204  10.185   7.455 -0.7195 -0.4745 -2.4064
  810MOL0     H 9350   2.279  10.345   7.482  1.2565 -1.6163  1.3533
  811MOL0     O 9351   3.089   8.549   0.156 -0.0422  0.2324 -0.7172
  811MOL0     C 9352   3.085   8.462   0.242 -0.4382  0.6419 -0.0041
  811MOL0     O 9353   3.097   8.475   0.380  0.2923  0.0097 -0.3739
  811MOL0     C 9354   3.117   8.603   0.426  0.3036 -0.5022  0.3404
  811MOL0     C 9355   3.206   8.702   0.373  0.3777  0.7664  0.4965
  811MOL0     C 9356   3.227   8.830   0.432  0.0419  0.2211 -0.0417
  811MOL0     C 9357   3.148   8.871   0.537  0.4124  0.7960  0.8790
  811MOL0     O 9358   3.151   8.996   0.603  0.0834 -0.4909 -0.5211
  811MOL0     C 9359   3.265   9.076   0.592  0.2853 -0.0135 -0.7297
  811MOL0     C 9360   3.224   9.218   0.613  0.1614 -0.4602  0.1987
  811MOL0     C 9361   3.332   9.318   0.581 -0.8309  0.0996  0.8629
  811MOL0     C 9362   3.469   9.285   0.652  0.3038  0.5473 -0.3314
  811MOL0     C 9363   3.595   9.379   0.633  0.3930 -0.0186 -0.0336
  811MOL0     C 9364   3.667   9.364   0.499 -0.0668  0.5787  1.0426
  811MOL0     C 9365   3.730   9.225   0.481  0.8966 -0.1276  1.0183
  811MOL0     C 9366   3.806   9.220   0.337  0.8898 -0.2702  0.0814
  811MOL0     N 9367   3.903   9.107   0.328 -0.1887  0.2517 -0.2255
  811MOL0     C 9368   3.879   8.972   0.306  0.4748  0.3836 -0.6222
  811MOL0     C 9369   4.000   8.914   0.315 -0.2300  0.6034 -0.1406
  811MOL0     C 9370   4.026   8.771   0.282 -1.0884 -0.0922  0.0524
  811MOL0     C 9371   3.941   8.705   0.173  1.1596 -0.1302  0.3663
  811MOL0     C 9372   3.972   8.774   0.035 -0.4844  0.0362 -0.5833
  811MOL0     C 9373   3.893   8.707  -0.079  0.1672  0.0674  1.0976
  811MOL0     O 9374   3.756   8.719  -0.055  0.4501  0.1564 -0.2406
  811MOL0     C 9375   3.660   8.684  -0.143  0.0379 -0.1415 -0.4280
  811MOL0     C 9376   3.529   8.688  -0.095 -0.7261  0.9758  0.9487
  811MOL0     C 9377   3.419   8.655  -0.176  0.5424 -0.8885 -0.0620
  811MOL0     C 9378   3.434   8.619  -0.311 -0.0089 -0.3175  0.2926
  811MOL0     C 9379   3.315   8.573  -0.390 -0.0626 -0.5756  0.7452
  811MOL0     O 9380   3.215   8.493  -0.325  0.7199  0.2855 -0.7212
  811MOL0     C 9381   3.090   8.487  -0.390  0.0875 -0.1968  0.6177
  811MOL0     C 9382   2.982   8.503  -0.305 -0.6669 -0.1873 -0.1445
  811MOL0     C 9383   2.850   8.503  -0.365  0.4592  0.0538 -0.1252
  811MOL0     C 9384   2.823   8.483  -0.501 -0.1033  0.3619 -0.3800
  811MOL0     O 9385   2.704   8.502  -0.563  0.1681 -0.2253  0.5063
  811MOL0     C 9386   2.593   8.549  -0.485 -0.8788 -0.3875 -1.1678
  811MOL0     C 9387   2.469   8.550  -0.565  0.3693 -1.3565 -0.3332
  811MOL0     C 9388   2.351   8.616  -0.494 -0.1195 -0.3025  0.2761
  811MOL0     C 9389   2.241   8.640  -0.602 -0.4679  0.6076  0.0657
  811MOL0     C 9390   2.139   8.753  -0.571 -0.5478 -0.4300 -0.0944
  811MOL0     C 9391   2.051   8.787  -0.690  0.0791 -0.8786  0.2073
  811MOL0     C 9392   1.940   8.885  -0.645 -0.2945 -0.0276  0.1324
  811MOL0     C 9393   1.843   8.919  -0.756  0.5267 -0.3885  0.0966
  811MOL0    Cl 9394   1.754   9.060  -0.695 -0.1807  0.0771 -0.8507
  811MOL0     C 9395   2.933   8.474  -0.577 -0.7891  0.5761  0.0884
  811MOL0     C 9396   3.065   8.463  -0.526 -0.3082 -1.6011  0.1079
  811MOL0     O 9397   3.328   8.588  -0.513 -1.1250 -0.3697  0.2808
  811MOL0     C 9398   3.561   8.621  -0.366 -0.2175  0.3133 -0.4144
  811MOL0     C 9399   3.674   8.647  -0.284 -0.1914  0.4356 -1.0475
  811MOL0     N 9400   4.096   9.012   0.343 -0.2213  1.1160  0.2032
  811MOL0     N 9401   4.039   9.129   0.347  0.1288  0.0998 -0.7985
  811MOL0     C 9402   3.050   8.776   0.579 -0.3952 -0.4140 -0.7380
  811MOL0     C 9403   3.033   8.644   0.526  0.4950  0.1784 -0.2103
  811MOL0     C 9404   3.045   8.319   0.212  0.1290 -0.8702  0.3722
  811MOL0     C 9405   2.947   8.252   0.302  0.6301 -0.3026 -0.3907
  811MOL0     C 9406   2.902   8.122   0.287 -0.4618 -0.6221  0.0055
  811MOL0     C 9407   2.949   8.048   0.185 -0.4886  0.0282 -0.0752
  811MOL0     O 9408   2.900   7.922   0.167  0.0956  0.0192  0.0858
  811MOL0     C 9409   2.864   7.838   0.275  0.2023 -0.4468  0.0602
  811MOL0     C 9410   2.994   7.779   0.339 -0.5890  0.0308 -0.3042
  811MOL0     C 9411   2.957   7.692   0.460  0.1193  0.7466 -1.0390
  811MOL0     C 9412   3.058   7.580   0.477  0.0413 -0.7121  0.5143
  811MOL0     C 9413   3.035   7.482   0.586  0.2568 -0.1323 -0.0765
  811MOL0     C 9414   3.019   7.409   0.680 -0.8381 -0.6047 -0.1256
  811MOL0     C 9415   3.045   8.110   0.094 -1.0720  0.0066  0.2087
  811MOL0     C 9416   3.088   8.243   0.105  0.4024 -0.0024 -0.0148
  811MOL0     C 9417   3.178   8.295  -0.004 -0.8197  0.2258  0.5101
  811MOL0     H 9418   3.280   8.679   0.297  2.0609  0.4385  2.1868
  811MOL0     H 9419   3.294   8.890   0.372  1.2748 -1.3774 -0.3159
  811MOL0     H 9420   3.328   9.028   0.668 -2.0280 -3.8237 -0.9585
  811MOL0     H 9421   3.315   9.065   0.495 -0.7001 -2.2107 -1.0607
  811MOL0     H 9422   3.190   9.234   0.716 -0.5739  0.0017 -0.1095
  811MOL0     H 9423   3.138   9.230   0.546 -0.0212 -3.1004 -0.1814
  811MOL0     H 9424   3.302   9.419   0.613  1.4102  0.1721  2.9648
  811MOL0     H 9425   3.349   9.319   0.473  2.9625 -1.3799  1.2909
  811MOL0     H 9426   3.439   9.289   0.757  0.6864 -0.8444 -0.1569
  811MOL0     H 9427   3.495   9.182   0.627 -2.4475 -0.6231  1.2640
  811MOL0     H 9428   3.560   9.482   0.645 -0.7826  0.0429 -3.1539
  811MOL0     H 9429   3.676   9.354   0.701  0.3530  0.6965  0.2872
  811MOL0     H 9430   3.603   9.392   0.414 -1.0653  1.3727  2.0274
  811MOL0     H 9431   3.747   9.439   0.501  0.2321  0.2652  0.9161
  811MOL0     H 9432   3.651   9.149   0.487  1.5453 -0.7208  2.5700
  811MOL0     H 9433   3.803   9.218   0.562 -0.3215  0.5696  2.2203
  811MOL0     H 9434   3.735   9.205   0.256  4.2922 -1.1944 -2.9704
  811MOL0     H 9435   3.850   9.320   0.325 -1.2570  0.4587 -2.6513
  811MOL0     H 9436   3.780   8.930   0.294  0.3858  0.1326  0.7248
  811MOL0     H 9437   4.129   8.748   0.252 -0.1366  3.0812  0.5237
  811MOL0     H 9438   4.000   8.712   0.370 -0.3857 -4.4374 -2.3903
  811MOL0     H 9439   3.968   8.599   0.181 -0.0086 -0.3766  1.4161
  811MOL0     H 9440   3.838   8.722   0.208  0.8721  3.4569 -1.7560
  811MOL0     H 9441   4.080   8.762   0.024 -0.0804  1.6733  1.1196
  811MOL0     H 9442   3.953   8.881   0.037 -0.2417  0.0747  0.8017
  811MOL0     H 9443   3.929   8.604  -0.084  1.3350  0.4130  2.0264
  811MOL0     H 9444   3.917   8.754  -0.175  0.5899 -4.5291 -1.2918
  811MOL0     H 9445   3.524   8.713   0.010  2.8042  3.6934  0.6590
  811MOL0     H 9446   3.320   8.659  -0.132  1.0968  0.7435  1.1660
  811MOL0     H 9447   3.005   8.531  -0.203 -3.8285 -2.7408  1.4704
  811MOL0     H 9448   2.765   8.535  -0.305 -0.0689 -1.1389 -0.2140
  811MOL0     H 9449   2.570   8.480  -0.403 -1.2158  1.0550  0.0171
  811MOL0     H 9450   2.603   8.648  -0.439 -0.4949 -0.6834 -0.5974
  811MOL0     H 9451   2.493   8.615  -0.649 -3.2736 -1.8653 -1.9194
  811MOL0     H 9452   2.447   8.447  -0.596  0.3810 -2.8335  3.8861
  811MOL0     H 9453   2.321   8.545  -0.416  0.2745  0.4966  1.1830
  811MOL0     H 9454   2.365   8.715  -0.449  0.1650 -0.1878 -0.0581
  811MOL0     H 9455   2.188   8.545  -0.613  0.8886 -0.2706  0.8402
  811MOL0     H 9456   2.291   8.656  -0.697  0.9327 -0.2713  0.6208
  811MOL0     H 9457   2.203   8.839  -0.552 -1.5268  0.9843 -2.7217
  811MOL0     H 9458   2.097   8.729  -0.473  1.6831 -0.4006  0.9222
  811MOL0     H 9459   2.112   8.838  -0.765  3.3022 -2.0926  1.7975
  811MOL0     H 9460   2.012   8.696  -0.734 -2.0183 -0.1282  0.3985
  811MOL0     H 9461   1.981   8.984  -0.624 -0.5614  0.2605 -0.6897
  811MOL0     H 9462   1.887   8.849  -0.556  2.0788  1.7447  2.4145
  811MOL0     H 9463   1.885   8.961  -0.849  1.2380  1.0666  1.0374
  811MOL0     H 9464   1.783   8.832  -0.784  3.4947 -2.7618  0.6193
  811MOL0     H 9465   2.921   8.473  -0.685  0.2111 -1.2363 -0.0396
  811MOL0     H 9466   3.143   8.449  -0.602 -2.7085 -0.8254 -2.6896
  811MOL0     H 9467   3.579   8.615  -0.473  0.7121 -3.1621 -0.1938
  811MOL0     H 9468   3.768   8.644  -0.337 -0.0204 -1.1245 -0.6916
  811MOL0     H 9469   2.996   8.812   0.666 -0.3895  1.0787 -1.3187
  811MOL0     H 9470   2.967   8.569   0.569 -0.9248  0.0514 -2.4306
  811MOL0     H 9471   2.905   8.314   0.381  1.3442 -0.1254 -0.1447
  811MOL0     H 9472   2.824   8.085   0.352  1.8563 -3.0403  1.6321
  811MOL0     H 9473   2.803   7.756   0.236 -1.2843  0.8509 -0.4383
  811MOL0     H 9474   2.811   7.891   0.355  0.8176  2.4658 -1.3317
  811MOL0     H 9475   3.059   7.863   0.368 -0.0019 -0.6361  0.3693
  811MOL0     H 9476   3.032   7.714   0.260 -0.9525 -0.5216 -0.0254
  811MOL0     H 9477   2.856   7.652   0.445 -0.1604  1.2693 -0.5652
  811MOL0     H 9478   2.951   7.749   0.553  0.3689 -0.1876 -0.4336
  811MOL0     H 9479   3.059   7.525   0.383  0.5520 -0.6713  0.4929
  811MOL0     H 9480   3.158   7.624   0.485  0.0489 -0.4796 -0.7085
  811MOL0     H 9481   3.029   7.343   0.763 -1.0748 -0.1224  0.2881
  811MOL0     H 9482   3.064   8.059  -0.000 -1.7041  1.9936 -1.0466
  811MOL0     H 9483   3.229   8.217  -0.060 -5.2296 -2.1797 -0.6248
  811MOL0     H 9484   3.135   8.352  -0.087 -1.3864 -1.3324 -0.3060
  811MOL0     H 9485   3.257   8.358   0.039  1.6011 -0.0796 -3.0427
  812MOL0     O 9486   9.005   6.573   4.024  0.2056  0.6965 -0.2604
  812MOL0     C 9487   8.957   6.656   3.950  0.1212 -0.7923 -0.1855
  812MOL0     O 9488   9.003   6.686   3.818  0.7691  0.1294 -0.5917
  812MOL0     C 9489   9.134   6.673   3.776 -0.7401  0.8541 -0.1829
  812MOL0     C 9490   9.243   6.662   3.864  0.5636 -0.3436  0.6211
  812MOL0     C 9491   9.377   6.658   3.817  0.9144  0.4191  0.2817
  812MOL0     C 9492   9.410   6.665   3.680  0.1485  0.7900  0.0220
  812MOL0     O 9493   9.541   6.666   3.618  0.6027 -0.5387 -0.3590
  812MOL0     C 9494   9.652   6.619   3.698  0.7746  0.0589  0.7939
  812MOL0     C 9495   9.786   6.615   3.628 -0.1570  0.8097  0.2542
  812MOL0     C 9496   9.797   6.522   3.517  0.1628  0.6347  0.5113
  812MOL0     C 9497   9.937   6.550   3.456  0.1299  0.6825 -0.5771
  812MOL0     C 9498  10.039   6.438   3.502 -0.3756 -0.4564  0.1629
  812MOL0     C 9499  10.178   6.499   3.480  0.4937  1.1237  0.3489
  812MOL0     C 9500  10.285   6.397   3.528  0.9139 -0.1814 -0.5712
  812MOL0     C 9501  10.430   6.442   3.496 -0.1542  0.1669  1.2718
  812MOL0     N 9502  10.445   6.582   3.544  0.7931  0.0193  0.7836
  812MOL0     C 9503  10.424   6.636   3.667  0.2565  0.1565 -0.0360
  812MOL0     C 9504  10.441   6.767   3.652 -1.2523 -0.2815  0.6200
  812MOL0     C 9505  10.413   6.873   3.745  0.0266 -0.1638 -0.5805
  812MOL0     C 9506  10.268   6.907   3.746  0.3312  0.4961 -0.2274
  812MOL0     C 9507  10.245   7.028   3.846 -0.3811  0.5008 -0.0667
  812MOL0     C 9508  10.091   7.036   3.863 -0.2332 -0.3948  0.7569
  812MOL0     O 9509  10.018   7.013   3.739 -0.1158  0.8539  0.1743
  812MOL0     C 9510   9.882   7.014   3.754 -0.5420  1.6378 -0.1777
  812MOL0     C 9511   9.810   7.059   3.865 -0.3036  0.0008 -0.0163
  812MOL0     C 9512   9.675   7.070   3.865  0.0418 -0.1843  1.3670
  812MOL0     C 9513   9.599   7.023   3.752 -0.3810 -0.5728 -0.5517
  812MOL0     C 9514   9.447   7.030   3.755 -0.3749  0.7051 -0.3387
  812MOL0     O 9515   9.396   7.057   3.883  0.5794 -0.0183 -0.1792
  812MOL0     C 9516   9.265   7.092   3.894 -0.0095 -0.3967 -0.1893
  812MOL0     C 9517   9.162   7.012   3.845  0.8154  0.2849  0.1725
  812MOL0     C 9518   9.032   7.055   3.867  0.5352 -0.3048 -0.4729
  812MOL0     C 9519   8.993   7.163   3.946 -0.7351 -0.4398  0.6257
  812MOL0     O 9520   8.864   7.194   3.980  0.0856 -0.7388  0.1438
  812MOL0     C 9521   8.777   7.070   3.998  0.5717 -0.6387 -0.0739
  812MOL0     C 9522   8.657   7.112   4.083  1.1595  0.3828 -0.7873
  812MOL0     C 9523   8.693   7.165   4.224 -0.2908  0.1954  0.0880
  812MOL0     C 9524   8.576   7.220   4.302  0.2764  0.2788 -0.1755
  812MOL0     C 9525   8.556   7.370   4.293 -0.1298 -0.3153 -0.1886
  812MOL0     C 9526   8.444   7.420   4.383 -0.0994  0.0631 -0.0823
  812MOL0     C 9527   8.472   7.554   4.457  0.7402  0.0616  0.5939
  812MOL0     C 9528   8.344   7.600   4.538 -0.3145  0.3409  0.3888
  812MOL0    Cl 9529   8.341   7.772   4.604  0.0971  0.1118 -0.1845
  812MOL0     C 9530   9.093   7.241   3.999  0.5237  0.8923  0.2095
  812MOL0     C 9531   9.225   7.206   3.975 -0.1302 -0.2201  0.1661
  812MOL0     O 9532   9.380   7.021   3.653 -0.4751  0.4595  0.3646
  812MOL0     C 9533   9.674   6.962   3.646 -0.1001  1.2513 -0.5112
  812MOL0     C 9534   9.810   6.963   3.647  0.5194 -0.0993  0.5508
  812MOL0     N 9535  10.462   6.794   3.517  0.4160 -0.9163  0.1446
  812MOL0     N 9536  10.468   6.682   3.455 -0.4762 -0.8622  0.0288
  812MOL0     C 9537   9.300   6.679   3.591  0.6523 -0.6627 -0.0763
  812MOL0     C 9538   9.168   6.671   3.641  0.0818 -0.2890 -0.6188
  812MOL0     C 9539   8.814   6.699   3.978 -0.3398 -0.0724 -0.2111
  812MOL0     C 9540   8.721   6.696   3.867  1.0867 -0.1849 -0.8635
  812MOL0     C 9541   8.585   6.713   3.890  0.4676 -0.1101  0.3390
  812MOL0     C 9542   8.541   6.758   4.013  0.3349  0.8251  0.0669
  812MOL0     O 9543   8.404   6.770   4.021  0.1883  0.0269  0.2743
  812MOL0     C 9544   8.345   6.714   4.142  0.4196 -0.2518 -0.1521
  812MOL0     C 9545   8.195   6.698   4.123 -0.1183 -0.4324 -1.2327
  812MOL0     C 9546   8.136   6.630   4.249  0.1689  0.0288  0.3043
  812MOL0     C 9547   8.000   6.583   4.241  0.0333  0.0149 -0.1703
  812MOL0     C 9548   7.903   6.689   4.222  0.0303  0.2150  0.4113
  812MOL0     C 9549   7.804   6.751   4.223 -0.2283  0.5785 -0.2660
  812MOL0     C 9550   8.635   6.774   4.117 -0.7494 -0.1917  0.7665
  812MOL0     C 9551   8.768   6.731   4.108 -0.4571 -0.1395 -0.0609
  812MOL0     C 9552   8.859   6.745   4.234 -0.2368 -0.3251  0.1606
  812MOL0     H 9553   9.238   6.665   3.973  0.4785 -2.0725  0.6903
  812MOL0     H 9554   9.459   6.660   3.888  2.7059  0.6632 -1.7085
  812MOL0     H 9555   9.651   6.684   3.786 -1.4980 -0.1758  1.0134
  812MOL0     H 9556   9.643   6.517   3.735  1.1428 -0.3373 -0.1757
  812MOL0     H 9557   9.862   6.590   3.703 -1.5291 -1.8415  0.9147
  812MOL0     H 9558   9.796   6.714   3.583 -0.6437  0.4891 -0.5860
  812MOL0     H 9559   9.714   6.539   3.448 -0.1453 -0.1564  0.6745
  812MOL0     H 9560   9.791   6.418   3.551  0.8467 -0.3694 -2.1613
  812MOL0     H 9561   9.933   6.540   3.347  1.4820 -3.9438 -0.4323
  812MOL0     H 9562   9.975   6.648   3.483 -2.0466  1.1171  1.1240
  812MOL0     H 9563  10.020   6.422   3.609  2.3724 -1.4202  0.5864
  812MOL0     H 9564  10.025   6.347   3.442  0.5645 -1.0212  0.7754
  812MOL0     H 9565  10.191   6.510   3.372 -0.5655 -3.3465 -0.4362
  812MOL0     H 9566  10.184   6.596   3.531  1.1998  0.7318  1.0423
  812MOL0     H 9567  10.251   6.296   3.500 -1.0023  0.7806 -1.8985
  812MOL0     H 9568  10.282   6.391   3.637 -0.7160  4.2352 -0.1878
  812MOL0     H 9569  10.491   6.370   3.552  0.2379  0.1468  0.8229
  812MOL0     H 9570  10.454   6.442   3.390  1.2550 -0.0948  1.5701
  812MOL0     H 9571  10.372   6.599   3.755 -1.0481  0.1495 -0.7862
  812MOL0     H 9572  10.439   6.837   3.845 -0.3432  0.8500 -0.1036
  812MOL0     H 9573  10.473   6.960   3.718 -2.3882  1.5945 -0.6391
  812MOL0     H 9574  10.239   6.938   3.645 -1.7628  0.8786  0.4576
  812MOL0     H 9575  10.208   6.819   3.769  1.3881 -0.4280 -0.8647
  812MOL0     H 9576  10.278   7.117   3.792  1.5204  1.6880  2.7955
  812MOL0     H 9577  10.294   7.018   3.944  0.1744  0.2763 -0.3629
  812MOL0     H 9578  10.074   7.142   3.885  0.7850 -0.3871  1.6098
  812MOL0     H 9579  10.056   6.975   3.946  0.8709 -2.1759 -0.0302
  812MOL0     H 9580   9.845   7.103   3.957 -0.1653  0.3752 -0.2451
  812MOL0     H 9581   9.620   7.123   3.943 -2.6358 -1.9914  0.8402
  812MOL0     H 9582   9.175   6.924   3.784 -3.0114 -0.7279  0.5274
  812MOL0     H 9583   8.955   6.989   3.829 -1.6665  0.7654  1.8133
  812MOL0     H 9584   8.747   7.034   3.899 -0.3893 -0.2718  0.0838
  812MOL0     H 9585   8.842   7.004   4.056  0.2184 -0.3116  0.7025
  812MOL0     H 9586   8.603   7.192   4.032 -3.2256 -2.9745 -1.9821
  812MOL0     H 9587   8.585   7.030   4.089  0.4232  0.8432 -2.6334
  812MOL0     H 9588   8.738   7.078   4.273 -1.0203  1.0676  2.4097
  812MOL0     H 9589   8.770   7.242   4.223 -0.1977  0.1182 -1.3087
  812MOL0     H 9590   8.600   7.196   4.406  0.3414  1.7894  0.1764
  812MOL0     H 9591   8.483   7.173   4.268 -0.5966  1.9853 -0.2566
  812MOL0     H 9592   8.548   7.413   4.193  1.6027 -0.5161 -0.4468
  812MOL0     H 9593   8.647   7.416   4.332 -0.9455  1.2833 -0.0796
  812MOL0     H 9594   8.355   7.429   4.319  0.8551 -3.4499 -2.1249
  812MOL0     H 9595   8.431   7.338   4.454 -2.7667 -0.4014 -0.9752
  812MOL0     H 9596   8.496   7.632   4.384 -1.0582 -1.0880 -1.3112
  812MOL0     H 9597   8.561   7.543   4.519 -0.1910  1.6396  2.3244
  812MOL0     H 9598   8.259   7.582   4.471 -0.2496  2.0451 -0.2176
  812MOL0     H 9599   8.318   7.530   4.618 -1.2074 -0.3968 -0.5236
  812MOL0     H 9600   9.068   7.320   4.069  1.7955  1.3297  0.1990
  812MOL0     H 9601   9.295   7.275   4.022 -2.5656  3.3780 -1.1237
  812MOL0     H 9602   9.612   6.916   3.570  1.3599 -0.1618 -0.9093
  812MOL0     H 9603   9.842   6.924   3.550  0.8203  1.2928  0.0665
  812MOL0     H 9604   9.309   6.685   3.483  0.6304 -0.7446 -0.0831
  812MOL0     H 9605   9.096   6.653   3.561 -0.0291 -1.2195 -0.3265
  812MOL0     H 9606   8.768   6.676   3.772  2.4685  1.7991 -0.6549
  812MOL0     H 9607   8.513   6.685   3.814  0.4376  1.2738 -0.1654
  812MOL0     H 9608   8.370   6.784   4.223  1.5295  3.2406 -3.2123
  812MOL0     H 9609   8.379   6.611   4.158 -2.0564 -0.8949  1.5031
  812MOL0     H 9610   8.174   6.636   4.036 -0.8064 -0.1546 -1.2642
  812MOL0     H 9611   8.152   6.798   4.123  1.3317  0.2200 -0.1107
  812MOL0     H 9612   8.151   6.689   4.340  2.5532 -0.5959  0.3793
  812MOL0     H 9613   8.184   6.533   4.265 -2.0813 -1.5338 -1.6828
  812MOL0     H 9614   7.999   6.517   4.154 -2.3306 -4.3721  2.8170
  812MOL0     H 9615   7.974   6.531   4.334  3.7837 -1.0816  0.4244
  812MOL0     H 9616   7.704   6.789   4.219 -1.7878 -2.9056  1.4651
  812MOL0     H 9617   8.601   6.824   4.208  0.9286 -0.7993  1.7719
  812MOL0     H 9618   8.827   6.833   4.292 -3.5509 -0.3242 -1.4092
  812MOL0     H 9619   8.862   6.659   4.301 -0.8861 -0.3821  0.1282
  812MOL0     H 9620   8.961   6.759   4.200 -0.2362  1.5353  0.7597
  813MOL0     O 9621   9.447   7.938  10.970  0.0228 -0.0004 -0.2952
  813MOL0     C 9622   9.513   7.939  10.864 -0.5538  0.2771  0.4906
  813MOL0     O 9623   9.458   7.934  10.739  0.1463 -0.9161 -0.0427
  813MOL0     C 9624   9.326   7.944  10.720  0.6302 -0.3171 -0.5818
  813MOL0     C 9625   9.242   8.041  10.792  0.4767  1.6021 -0.0863
  813MOL0     C 9626   9.109   8.058  10.741  0.1529  0.1844 -0.1453
  813MOL0     C 9627   9.058   7.989  10.632 -0.5327  0.7173  0.2790
  813MOL0     O 9628   8.938   8.037  10.598 -0.0790 -0.1708 -0.2619
  813MOL0     C 9629   8.852   7.937  10.521  0.6504 -0.1284 -1.0199
  813MOL0     C 9630   8.827   7.808  10.604 -0.3812 -0.1002  0.4352
  813MOL0     C 9631   8.748   7.697  10.525 -0.7965 -0.0300  0.1570
  813MOL0     C 9632   8.643   7.749  10.425  0.1457 -0.1287  0.5229
  813MOL0     C 9633   8.566   7.641  10.340  0.2704  0.0362 -0.1197
  813MOL0     C 9634   8.469   7.563  10.414  0.3733  0.1349  0.0641
  813MOL0     C 9635   8.373   7.474  10.346 -0.0844  0.6365  0.2789
  813MOL0     C 9636   8.420   7.396  10.217  0.3580  0.2754  0.1876
  813MOL0     N 9637   8.320   7.285  10.195 -0.2121  0.0345  0.3432
  813MOL0     C 9638   8.321   7.158  10.263  1.1236 -0.3755  0.7230
  813MOL0     C 9639   8.206   7.099  10.208 -0.4184  0.3297  0.3783
  813MOL0     C 9640   8.159   6.953  10.236  0.1962  0.1499 -0.4345
  813MOL0     C 9641   8.225   6.833  10.165  0.5662  0.9151  0.8588
  813MOL0     C 9642   8.296   6.734  10.261 -0.6505  0.4866  0.2710
  813MOL0     C 9643   8.433   6.773  10.314  0.1108  0.5671 -0.1727
  813MOL0     O 9644   8.523   6.812  10.215  0.4806 -0.0879  0.1445
  813MOL0     C 9645   8.649   6.859  10.245  0.9897  0.9984 -0.0823
  813MOL0     C 9646   8.706   6.849  10.371 -0.0059  0.0439  0.3785
  813MOL0     C 9647   8.842   6.897  10.397 -0.6564 -0.0347  0.8349
  813MOL0     C 9648   8.912   6.973  10.300  0.6377 -0.2401 -0.0778
  813MOL0     C 9649   9.042   7.023  10.321 -1.0110 -0.8626 -0.8719
  813MOL0     O 9650   9.107   6.976  10.437 -0.7350 -0.1884  0.9771
  813MOL0     C 9651   9.245   6.969  10.448  0.2213 -0.6351  0.6122
  813MOL0     C 9652   9.301   6.847  10.475  0.0487 -1.1529 -0.1096
  813MOL0     C 9653   9.437   6.825  10.503 -1.3409 -0.2396  0.5614
  813MOL0     C 9654   9.527   6.940  10.496  0.1974  1.1258 -0.8731
  813MOL0     O 9655   9.662   6.926  10.524 -0.3115 -0.6946 -0.5445
  813MOL0     C 9656   9.750   6.952  10.420 -0.3357 -0.6596  1.5660
  813MOL0     C 9657   9.772   6.824  10.336 -0.2943  0.4688 -0.0632
  813MOL0     C 9658   9.839   6.843  10.203  0.5815 -0.4526 -0.6920
  813MOL0     C 9659   9.818   6.732  10.103  0.2910 -0.1538  0.0189
  813MOL0     C 9660   9.892   6.762   9.969 -0.6471  0.0923  0.1231
  813MOL0     C 9661   9.848   6.894   9.899  0.2908  0.1429  0.4740
  813MOL0     C 9662   9.910   6.925   9.758  0.0984 -0.2039  0.3885
  813MOL0     C 9663   9.863   7.061   9.699  0.4954 -0.9177 -0.2913
  813MOL0    Cl 9664   9.696   7.052   9.654 -0.1116 -0.2855  0.3694
  813MOL0     C 9665   9.466   7.063  10.477 -1.1882 -0.1678  0.3392
  813MOL0     C 9666   9.332   7.080  10.442 -0.1052  1.2176 -0.3432
  813MOL0     O 9667   9.091   7.105  10.237  0.5581 -0.3797  0.3119
  813MOL0     C 9668   8.835   6.995  10.179  0.1830  0.3707 -1.0634
  813MOL0     C 9669   8.711   6.935  10.157  0.1175 -0.5820  0.7590
  813MOL0     N 9670   8.146   7.179  10.109 -0.3798  0.2315  0.5427
  813MOL0     N 9671   8.218   7.295  10.100 -0.0619 -0.0019  0.1802
  813MOL0     C 9672   9.135   7.885  10.569  0.8594 -0.2649  0.5833
  813MOL0     C 9673   9.267   7.873  10.610 -0.0206 -0.1651  1.2731
  813MOL0     C 9674   9.655   7.955  10.872  0.1412 -0.0240  1.0906
  813MOL0     C 9675   9.739   7.845  10.873 -0.6474  0.0371  1.2528
  813MOL0     C 9676   9.877   7.860  10.874  0.5326 -0.4150 -0.8763
  813MOL0     C 9677   9.942   7.983  10.868  0.2016  0.4153  1.0037
  813MOL0     O 9678  10.083   7.985  10.871  0.5855 -0.3070 -0.1545
  813MOL0     C 9679  10.143   8.112  10.901  0.6072 -0.5614 -0.0523
  813MOL0     C 9680  10.280   8.086  10.964 -0.1930 -0.4461 -0.6394
  813MOL0     C 9681  10.376   8.210  10.964 -0.1187 -0.4118 -0.3266
  813MOL0     C 9682  10.361   8.317  11.076  0.2427  0.0579  0.2514
  813MOL0     C 9683  10.248   8.411  11.062 -0.7861  0.1270  0.6134
  813MOL0     C 9684  10.165   8.506  11.049 -0.9524  0.9986  0.0055
  813MOL0     C 9685   9.861   8.099  10.859 -0.7335  0.7030  0.4792
  813MOL0     C 9686   9.716   8.085  10.865 -0.5526  0.0465  0.0034
  813MOL0     C 9687   9.622   8.203  10.852  0.6127 -0.6977  0.4780
  813MOL0     H 9688   9.285   8.106  10.867 -0.1391  1.3548  0.4930
  813MOL0     H 9689   9.048   8.134  10.789 -0.0026  1.2135 -1.8862
  813MOL0     H 9690   8.751   7.979  10.511  0.5122  0.5199  2.0872
  813MOL0     H 9691   8.894   7.919  10.421  0.7863 -3.1695 -0.5038
  813MOL0     H 9692   8.787   7.832  10.703  3.4167 -0.2535  2.1892
  813MOL0     H 9693   8.921   7.755  10.623 -0.2399 -0.8298 -1.9757
  813MOL0     H 9694   8.708   7.627  10.599  0.6960  0.9971  2.0208
  813MOL0     H 9695   8.827   7.653  10.464  2.4842  0.4747  3.7037
  813MOL0     H 9696   8.565   7.796  10.487 -2.4819 -1.4145 -1.6395
  813MOL0     H 9697   8.687   7.819  10.354  2.2757 -1.7853  0.1044
  813MOL0     H 9698   8.511   7.704  10.269  1.5368  3.7245  1.9299
  813MOL0     H 9699   8.638   7.571  10.297 -1.5645 -2.5044  0.6598
  813MOL0     H 9700   8.521   7.503  10.489 -1.6664 -1.4100  0.3370
  813MOL0     H 9701   8.411   7.632  10.475  2.8616  0.2798  2.4459
  813MOL0     H 9702   8.282   7.532  10.327 -4.6534 -5.0810  1.8502
  813MOL0     H 9703   8.366   7.396  10.422  2.6912  1.2941  1.3244
  813MOL0     H 9704   8.426   7.463  10.131 -2.2825  0.3154 -0.0543
  813MOL0     H 9705   8.521   7.354  10.219  0.8235  0.9736 -3.1098
  813MOL0     H 9706   8.391   7.117  10.335  0.5362 -0.6168  1.1574
  813MOL0     H 9707   8.163   6.934  10.343 -0.2989 -0.4777 -0.5166
  813MOL0     H 9708   8.052   6.946  10.214  0.3236 -1.4622 -0.6624
  813MOL0     H 9709   8.148   6.776  10.112  2.7699 -1.8825  0.4822
  813MOL0     H 9710   8.301   6.870  10.096 -0.9795  0.7219 -1.0530
  813MOL0     H 9711   8.305   6.642  10.203 -0.4649  0.4475  0.3654
  813MOL0     H 9712   8.230   6.709  10.345  0.4897 -3.2256  0.2259
  813MOL0     H 9713   8.475   6.698  10.382 -1.7634 -1.4253 -1.0955
  813MOL0     H 9714   8.423   6.853  10.388  0.0123  0.0463  0.3970
  813MOL0     H 9715   8.656   6.798  10.452  0.6592 -1.2252  0.0052
  813MOL0     H 9716   8.890   6.877  10.493  2.7925 -0.0905 -0.7630
  813MOL0     H 9717   9.228   6.767  10.477 -1.2925  0.0198 -0.4738
  813MOL0     H 9718   9.467   6.722  10.522 -0.8875 -0.6366 -1.9708
  813MOL0     H 9719   9.717   7.026  10.347  0.7535 -2.9506 -1.4957
  813MOL0     H 9720   9.840   6.999  10.461 -1.4819  2.5123  0.7228
  813MOL0     H 9721   9.811   6.737  10.391 -1.0423 -0.9128 -1.6306
  813MOL0     H 9722   9.666   6.799  10.324 -0.3676  0.3182  0.7993
  813MOL0     H 9723   9.778   6.920  10.156 -0.4167 -1.6293 -1.3848
  813MOL0     H 9724   9.944   6.875  10.209 -0.3340  2.5764  3.0873
  813MOL0     H 9725   9.709   6.724  10.095 -0.7308  2.5093  6.0016
  813MOL0     H 9726   9.847   6.641  10.156  2.2911  0.5559  0.2399
  813MOL0     H 9727   9.888   6.675   9.902 -0.6967  3.6532 -5.0444
  813MOL0     H 9728   9.998   6.767   9.993 -0.6097 -1.5243  0.4205
  813MOL0     H 9729   9.739   6.891   9.899  0.3158 -1.2326  0.8150
  813MOL0     H 9730   9.882   6.978   9.961 -0.0578  0.0066  0.8487
  813MOL0     H 9731   9.894   6.839   9.691  0.8626 -1.5389  1.8472
  813MOL0     H 9732  10.019   6.928   9.759  0.1712 -0.1725 -1.9360
  813MOL0     H 9733   9.865   7.133   9.781  1.1921 -3.0855  1.6924
  813MOL0     H 9734   9.924   7.107   9.621 -0.3799  1.7474  0.5064
  813MOL0     H 9735   9.528   7.151  10.463  2.4440 -2.4428  0.9596
  813MOL0     H 9736   9.277   7.173  10.430 -1.7417  0.1037 -2.0322
  813MOL0     H 9737   8.870   7.062  10.101  1.5300  3.1525  1.7408
  813MOL0     H 9738   8.665   6.959  10.061 -0.0946  1.0179  1.2202
  813MOL0     H 9739   9.102   7.824  10.486  1.0780  0.5360 -0.1033
  813MOL0     H 9740   9.345   7.817  10.560  1.5635  1.6018  1.6824
  813MOL0     H 9741   9.693   7.747  10.866 -1.0158  0.1677  1.8054
  813MOL0     H 9742   9.937   7.769  10.883 -0.7329 -1.2542 -0.6573
  813MOL0     H 9743  10.082   8.171  10.971 -0.0268  2.0483 -2.6305
  813MOL0     H 9744  10.152   8.174  10.812 -4.1965  2.3066  1.1103
  813MOL0     H 9745  10.331   8.012  10.903 -2.6779 -1.6803 -1.3856
  813MOL0     H 9746  10.270   8.045  11.064 -3.6846  3.5515  0.9830
  813MOL0     H 9747  10.367   8.250  10.863 -3.6865 -3.6606 -1.5756
  813MOL0     H 9748  10.476   8.167  10.975 -0.7865 -1.5946  1.7448
  813MOL0     H 9749  10.365   8.272  11.175  0.0541 -0.8442 -0.1423
  813MOL0     H 9750  10.447   8.384  11.069 -0.5299  1.1950  1.1750
  813MOL0     H 9751  10.103   8.588  11.019  0.7629  1.8424 -1.4309
  813MOL0     H 9752   9.898   8.200  10.844  0.2747  0.3324  0.3407
  813MOL0     H 9753   9.685   8.292  10.837  0.9075 -1.1590 -1.1895
  813MOL0     H 9754   9.549   8.199  10.772  0.5321 -1.6926  0.5925
  813MOL0     H 9755   9.576   8.205  10.951  3.3696 -0.5199  1.8634
  814MOL0     O 9756   3.130   6.503   2.438  0.3978 -0.0990  0.3975
  814MOL0     C 9757   3.085   6.606   2.393 -0.3980  0.2284 -0.3655
  814MOL0     O 9758   3.127   6.726   2.434 -0.5921 -0.0817 -0.0064
  814MOL0     C 9759   3.258   6.731   2.476 -0.2036 -0.1208  0.4110
  814MOL0     C 9760   3.298   6.685   2.595  0.0583 -0.0459 -0.5876
  814MOL0     C 9761   3.429   6.690   2.644 -0.4267 -0.3059  0.8360
  814MOL0     C 9762   3.525   6.745   2.562 -0.4062 -1.3956  0.6225
  814MOL0     O 9763   3.661   6.751   2.594  0.0845 -0.2809 -0.0121
  814MOL0     C 9764   3.699   6.791   2.724  0.6810  0.6666  0.0660
  814MOL0     C 9765   3.846   6.839   2.727  0.4501 -0.4732 -0.9377
  814MOL0     C 9766   3.872   6.946   2.612 -0.0510 -0.7856 -0.5249
  814MOL0     C 9767   4.025   6.971   2.592  0.7016 -0.3384  0.2669
  814MOL0     C 9768   4.050   7.081   2.487  0.3982  0.3350 -0.2934
  814MOL0     C 9769   4.091   7.218   2.547 -0.3325 -0.1552 -0.5393
  814MOL0     C 9770   3.981   7.274   2.645  0.1093 -0.2304 -0.3096
  814MOL0     C 9771   4.020   7.416   2.692  0.9214  0.7701  0.9153
  814MOL0     N 9772   4.139   7.419   2.787 -0.1574  0.4452 -0.6941
  814MOL0     C 9773   4.146   7.353   2.913 -0.3023  0.7742 -0.2243
  814MOL0     C 9774   4.273   7.366   2.954 -0.6536  0.0615 -0.2363
  814MOL0     C 9775   4.329   7.329   3.086 -0.3701  0.5777  0.2193
  814MOL0     C 9776   4.445   7.230   3.068  0.1854  0.8014 -0.1830
  814MOL0     C 9777   4.505   7.175   3.205  0.5611  0.2588  0.7826
  814MOL0     C 9778   4.587   7.280   3.283  0.5677 -0.0982 -0.0697
  814MOL0     O 9779   4.621   7.228   3.414  0.4643 -0.3568  0.6017
  814MOL0     C 9780   4.752   7.202   3.436 -0.3013  0.0692 -0.8006
  814MOL0     C 9781   4.846   7.177   3.337 -0.7980  1.1158  0.1865
  814MOL0     C 9782   4.976   7.135   3.371 -0.3103 -0.1928 -1.4012
  814MOL0     C 9783   5.028   7.135   3.504 -0.0529 -0.3782  0.0640
  814MOL0     C 9784   5.173   7.105   3.540 -0.2736 -0.7682 -0.5519
  814MOL0     O 9785   5.246   7.060   3.440 -0.6588 -0.3814 -1.1231
  814MOL0     C 9786   5.371   7.009   3.463 -0.4020 -0.6312 -0.8216
  814MOL0     C 9787   5.399   6.896   3.540 -0.4212 -0.0230 -0.0062
  814MOL0     C 9788   5.533   6.856   3.569 -1.1534  0.8456  0.8217
  814MOL0     C 9789   5.638   6.929   3.508 -0.3693  0.9752 -0.0484
  814MOL0     O 9790   5.771   6.905   3.514  0.6184  1.2108  0.2651
  814MOL0     C 9791   5.815   6.841   3.630 -0.4508  0.5398  0.1862
  814MOL0     C 9792   5.967   6.821   3.646  0.8638 -0.9317 -0.1038
  814MOL0     C 9793   6.031   6.740   3.536 -0.3917 -0.2682  0.0763
  814MOL0     C 9794   6.175   6.716   3.584 -0.0036 -0.5989  0.3249
  814MOL0     C 9795   6.239   6.623   3.485  0.5753 -0.4115  0.2209
  814MOL0     C 9796   6.372   6.593   3.548  0.2868  0.0380  0.1961
  814MOL0     C 9797   6.457   6.499   3.455  0.4652  0.3038 -0.4873
  814MOL0     C 9798   6.599   6.489   3.507  0.0578  0.5413 -0.5628
  814MOL0    Cl 9799   6.670   6.344   3.427  0.6426  0.0846  0.0105
  814MOL0     C 9800   5.606   7.029   3.415  0.0341  0.6422 -1.1840
  814MOL0     C 9801   5.476   7.075   3.405  0.1607  0.4075  0.2738
  814MOL0     O 9802   5.215   7.145   3.654  0.0552 -0.0723 -0.2997
  814MOL0     C 9803   4.930   7.176   3.598 -0.5935 -0.0204 -0.2410
  814MOL0     C 9804   4.799   7.206   3.568  0.5068 -1.0123 -0.2006
  814MOL0     N 9805   4.346   7.436   2.858  0.0038 -0.9403 -0.2034
  814MOL0     N 9806   4.264   7.464   2.754 -0.0760  0.8509 -0.6653
  814MOL0     C 9807   3.489   6.795   2.431 -1.1783  0.5329 -0.6512
  814MOL0     C 9808   3.356   6.793   2.394  0.5090 -0.1575  0.1195
  814MOL0     C 9809   2.957   6.607   2.323  0.5737 -0.2210  0.1173
  814MOL0     C 9810   2.900   6.729   2.271  0.1783  0.9831  0.1633
  814MOL0     C 9811   2.769   6.740   2.220 -0.2227  0.0477  0.0383
  814MOL0     C 9812   2.689   6.625   2.220 -0.8023  0.7810  0.2448
  814MOL0     O 9813   2.563   6.620   2.181 -0.1656 -0.7213  0.5240
  814MOL0     C 9814   2.507   6.745   2.124 -0.4547 -0.7822  0.3492
  814MOL0     C 9815   2.387   6.708   2.050  0.6020 -0.1378  0.2254
  814MOL0     C 9816   2.356   6.795   1.927  0.3852  0.0230  0.2891
  814MOL0     C 9817   2.220   6.757   1.870 -0.2194  0.6027 -0.0574
  814MOL0     C 9818   2.114   6.813   1.960 -0.6082  0.0431 -0.3713
  814MOL0     C 9819   2.025   6.858   2.026  0.6055  0.3940 -0.4437
  814MOL0     C 9820   2.748   6.510   2.271  1.0460  0.3358  1.4158
  814MOL0     C 9821   2.876   6.496   2.313  0.3141  0.2308 -0.0332
  814MOL0     C 9822   2.928   6.356   2.342  0.5626 -0.5445 -0.1901
  814MOL0     H 9823   3.221   6.656   2.666  0.4606  0.1976 -0.0530
  814MOL0     H 9824   3.471   6.649   2.736  0.2505 -0.2766  0.5415
  814MOL0     H 9825   3.634   6.873   2.757  1.0171  1.2842 -0.7918
  814MOL0     H 9826   3.674   6.710   2.794  2.3838 -1.2920 -1.4624
  814MOL0     H 9827   3.905   6.749   2.708  1.1389 -1.2079  3.4443
  814MOL0     H 9828   3.861   6.875   2.830 -3.3870 -0.0484 -0.4088
  814MOL0     H 9829   3.832   7.047   2.630  0.5417 -0.7335  0.6059
  814MOL0     H 9830   3.818   6.920   2.521 -1.6775  1.1217 -0.1987
  814MOL0     H 9831   4.085   6.989   2.682  0.7183  3.2447 -0.3414
  814MOL0     H 9832   4.054   6.877   2.544 -0.8196  1.4993 -4.8830
  814MOL0     H 9833   4.127   7.048   2.416  1.2723  0.3447  0.6249
  814MOL0     H 9834   3.962   7.109   2.429  0.4123  0.0501 -0.4571
  814MOL0     H 9835   4.180   7.204   2.610  1.6689 -2.0052 -3.5197
  814MOL0     H 9836   4.102   7.291   2.466 -2.3567  1.9337  0.9455
  814MOL0     H 9837   3.975   7.207   2.732 -0.9070  1.4349  0.9591
  814MOL0     H 9838   3.876   7.269   2.616  0.3113 -1.7323 -0.8827
  814MOL0     H 9839   4.050   7.481   2.609 -1.8556  0.9694 -0.0391
  814MOL0     H 9840   3.932   7.456   2.744  0.5342  2.2168 -0.7452
  814MOL0     H 9841   4.069   7.304   2.970  3.2670 -2.0434  2.6438
  814MOL0     H 9842   4.366   7.425   3.123 -0.0221  0.8295 -0.7542
  814MOL0     H 9843   4.251   7.299   3.156 -0.4588 -0.1410 -0.1845
  814MOL0     H 9844   4.402   7.146   3.013 -1.5801  0.7624  1.1764
  814MOL0     H 9845   4.530   7.281   3.021  1.6523  0.8127  2.2942
  814MOL0     H 9846   4.559   7.081   3.191 -1.6967 -0.9788 -0.1460
  814MOL0     H 9847   4.419   7.146   3.266  0.9265 -0.9081  0.7628
  814MOL0     H 9848   4.520   7.365   3.301  0.2459 -0.3112 -0.2565
  814MOL0     H 9849   4.671   7.306   3.219  2.5951 -0.8727  2.1493
  814MOL0     H 9850   4.818   7.164   3.233  1.7057 -0.9712 -0.3216
  814MOL0     H 9851   5.040   7.095   3.293  3.0142  1.9498  0.0324
  814MOL0     H 9852   5.318   6.839   3.584  0.8208  0.7361  3.6191
  814MOL0     H 9853   5.561   6.780   3.642  1.4253 -0.0269 -0.9031
  814MOL0     H 9854   5.777   6.899   3.714 -3.9759 -1.2723  0.0114
  814MOL0     H 9855   5.776   6.739   3.637 -0.0155  0.4519  1.7045
  814MOL0     H 9856   6.018   6.916   3.662 -0.6651  0.4630 -2.8495
  814MOL0     H 9857   5.977   6.770   3.742 -0.4663  0.0705  0.5854
  814MOL0     H 9858   5.974   6.652   3.506  2.3066 -1.1415 -3.0321
  814MOL0     H 9859   6.022   6.796   3.442 -2.5954 -3.6511 -1.9507
  814MOL0     H 9860   6.167   6.662   3.678  0.1294  0.4363  0.9508
  814MOL0     H 9861   6.238   6.805   3.598 -2.0352  0.6927  1.9753
  814MOL0     H 9862   6.257   6.683   3.395 -1.7198 -1.1176 -0.7818
  814MOL0     H 9863   6.181   6.534   3.462  0.6344 -0.9175  1.9250
  814MOL0     H 9864   6.425   6.689   3.548 -0.5353  0.5511  2.1590
  814MOL0     H 9865   6.352   6.556   3.649  2.0908 -0.9370  0.2346
  814MOL0     H 9866   6.455   6.544   3.356 -0.7810  1.2013 -0.0773
  814MOL0     H 9867   6.409   6.402   3.470 -1.0624  1.0413 -0.4786
  814MOL0     H 9868   6.654   6.579   3.476 -0.4119  1.1785  0.4074
  814MOL0     H 9869   6.610   6.483   3.616  0.4896  0.5916 -0.5986
  814MOL0     H 9870   5.690   7.092   3.388  1.0737  0.3118  1.0323
  814MOL0     H 9871   5.458   7.176   3.369 -0.9183 -0.3946 -1.6187
  814MOL0     H 9872   4.967   7.182   3.700 -0.6145 -3.8800  0.1513
  814MOL0     H 9873   4.741   7.234   3.656  1.7954  0.1690  0.3207
  814MOL0     H 9874   3.569   6.827   2.365  1.0036 -2.3657  0.4015
  814MOL0     H 9875   3.317   6.816   2.295 -1.7974 -0.1942  0.9453
  814MOL0     H 9876   2.970   6.811   2.278  0.2403  0.8381  1.4514
  814MOL0     H 9877   2.719   6.833   2.191  1.9681  1.3325  0.2083
  814MOL0     H 9878   2.574   6.772   2.042 -2.9037  1.1478 -1.1647
  814MOL0     H 9879   2.491   6.828   2.193 -3.9523 -1.6626  0.7718
  814MOL0     H 9880   2.297   6.710   2.112 -1.1914  1.7536 -2.2662
  814MOL0     H 9881   2.394   6.604   2.017 -0.9162 -0.1741 -0.0557
  814MOL0     H 9882   2.429   6.782   1.846  0.6727  0.5881  0.4509
  814MOL0     H 9883   2.364   6.899   1.962  0.9856  0.0302  0.1304
  814MOL0     H 9884   2.201   6.802   1.773  1.9622  0.2835 -0.6900
  814MOL0     H 9885   2.200   6.649   1.870 -1.2497  0.7518  1.8184
  814MOL0     H 9886   1.949   6.904   2.085  0.8545 -0.3201  0.4494
  814MOL0     H 9887   2.688   6.420   2.276 -1.1947  1.6414 -0.3282
  814MOL0     H 9888   2.940   6.342   2.450 -0.5059 -2.8359 -0.2987
  814MOL0     H 9889   2.858   6.283   2.300 -0.4290  1.1331 -1.5776
  814MOL0     H 9890   3.014   6.345   2.277  0.1822 -0.0683 -0.7786
  815MOL0     O 9891   8.972  10.712   9.432  0.4825 -1.0593  0.5593
  815MOL0     C 9892   9.017  10.615   9.483  0.7274 -0.0213 -0.0630
  815MOL0     O 9893   9.133  10.559   9.453 -0.5275  0.1765  0.9370
  815MOL0     C 9894   9.197  10.589   9.333  0.0799  0.6207 -0.0539
  815MOL0     C 9895   9.124  10.599   9.209  0.0659 -1.2079 -0.0807
  815MOL0     C 9896   9.178  10.651   9.097  0.2429  0.4864  0.8172
  815MOL0     C 9897   9.313  10.676   9.102  0.6679  0.7169  0.0383
  815MOL0     O 9898   9.388  10.726   9.003 -0.1425  1.0406  0.3819
  815MOL0     C 9899   9.321  10.812   8.909  0.9624  0.0669 -0.5505
  815MOL0     C 9900   9.429  10.895   8.841 -0.1489  0.1304 -0.5016
  815MOL0     C 9901   9.553  10.816   8.784  0.1740  0.6293  0.2833
  815MOL0     C 9902   9.629  10.904   8.683  0.0184 -0.0393 -0.3032
  815MOL0     C 9903   9.724  10.828   8.593 -0.2923  0.4441 -0.6694
  815MOL0     C 9904   9.788  10.896   8.472  0.1893 -0.7429  0.6069
  815MOL0     C 9905   9.873  10.790   8.399  0.7334 -0.5594 -0.0621
  815MOL0     C 9906   9.944  10.849   8.278 -0.0148  0.4661 -0.0568
  815MOL0     N 9907  10.010  10.732   8.207  0.0279 -0.0938  0.0348
  815MOL0     C 9908   9.966  10.602   8.175  0.0924 -0.5890  0.0011
  815MOL0     C 9909  10.067  10.556   8.111 -0.7503  0.7037 -0.2167
  815MOL0     C 9910  10.057  10.420   8.050 -0.4443 -0.4121 -0.1020
  815MOL0     C 9911  10.199  10.352   8.049  0.0765 -0.2316  0.0996
  815MOL0     C 9912  10.191  10.200   8.029  1.0488 -0.3322 -0.9436
  815MOL0     C 9913  10.316  10.138   8.069  0.1157  0.5745  0.0540
  815MOL0     O 9914  10.296  10.005   8.047  0.3715  0.4291 -0.2935
  815MOL0     C 9915  10.398   9.926   8.088 -0.7460  0.3270  0.3339
  815MOL0     C 9916  10.385   9.788   8.057  0.0998 -0.8261  0.8247
  815MOL0     C 9917  10.481   9.690   8.094  0.7007 -0.9281  0.0764
  815MOL0     C 9918  10.599   9.727   8.164  0.6261  0.0845 -0.0164
  815MOL0     C 9919  10.715   9.648   8.174  0.0955 -0.6027 -0.1146
  815MOL0     O 9920  10.801   9.678   8.280 -0.3420  0.4829  0.7587
  815MOL0     C 9921  10.930   9.619   8.272  0.7570 -0.4411 -0.4597
  815MOL0     C 9922  10.979   9.541   8.371  0.8138  0.2629  0.0602
  815MOL0     C 9923  11.098   9.475   8.358 -0.4469  0.7542  0.4387
  815MOL0     C 9924  11.177   9.491   8.241 -0.8413 -0.4912  0.4717
  815MOL0     O 9925  11.305   9.439   8.221 -0.5873 -0.6939 -0.8493
  815MOL0     C 9926  11.345   9.311   8.282  0.5332  0.0409 -0.2318
  815MOL0     C 9927  11.468   9.261   8.217 -1.1731  0.5459  0.4569
  815MOL0     C 9928  11.529   9.133   8.292  0.7327 -0.4360  0.4162
  815MOL0     C 9929  11.684   9.124   8.279  0.2920 -0.0481  0.4372
  815MOL0     C 9930  11.728   8.972   8.291 -0.3780  0.7456  0.6714
  815MOL0     C 9931  11.880   8.951   8.290  0.4654 -0.3507 -0.2130
  815MOL0     C 9932  11.948   8.959   8.430 -0.3136 -0.1741  0.2353
  815MOL0     C 9933  12.092   8.919   8.437  1.2804  0.1527  0.3363
  815MOL0    Cl 9934  12.098   8.737   8.414  0.3106 -0.2201  0.0313
  815MOL0     C 9935  11.135   9.582   8.144 -0.1031  0.3421  0.0632
  815MOL0     C 9936  11.006   9.633   8.155 -0.6894 -0.6753  0.2839
  815MOL0     O 9937  10.711   9.546   8.103  0.4275 -0.3256 -0.1218
  815MOL0     C 9938  10.611   9.861   8.204 -0.4101  0.6219  0.4822
  815MOL0     C 9939  10.513   9.953   8.159 -0.4929 -0.5772 -0.2432
  815MOL0     N 9940  10.176  10.639   8.112 -0.1686  0.2022 -0.3031
  815MOL0     N 9941  10.138  10.750   8.167  0.4571 -0.5052 -0.4504
  815MOL0     C 9942   9.392  10.639   9.216 -0.4031 -0.2114 -0.6435
  815MOL0     C 9943   9.338  10.604   9.335 -0.2672 -0.9220  0.0485
  815MOL0     C 9944   8.919  10.539   9.558 -0.2668 -0.5368  0.1906
  815MOL0     C 9945   8.793  10.590   9.585 -0.6057 -0.6061 -0.0178
  815MOL0     C 9946   8.696  10.524   9.652  0.8986  0.3589  0.1920
  815MOL0     C 9947   8.719  10.399   9.703  0.6839 -0.1099  0.6490
  815MOL0     O 9948   8.648  10.319   9.789  0.7415 -0.2108 -0.1627
  815MOL0     C 9949   8.512  10.365   9.819  0.2005  0.2980  0.1680
  815MOL0     C 9950   8.424  10.241   9.831 -0.0820 -0.1322  0.0724
  815MOL0     C 9951   8.390  10.185   9.687  0.3038  1.1307  0.5005
  815MOL0     C 9952   8.323  10.046   9.707 -0.3683  0.8994  0.8230
  815MOL0     C 9953   8.251   9.991   9.580  0.0288 -0.7727 -0.3510
  815MOL0     C 9954   8.196   9.938   9.489  0.2844 -0.2263  0.1531
  815MOL0     C 9955   8.846  10.344   9.684  0.8244 -0.9517 -0.2974
  815MOL0     C 9956   8.941  10.404   9.600 -0.6434  1.1406 -0.8334
  815MOL0     C 9957   9.070  10.334   9.578 -0.3435 -0.1201 -0.6209
  815MOL0     H 9958   9.021  10.563   9.212 -0.5305  0.4676  1.0134
  815MOL0     H 9959   9.125  10.686   9.009  0.4740  0.2237  0.5738
  815MOL0     H 9960   9.268  10.754   8.833 -0.0590  0.3028 -0.0285
  815MOL0     H 9961   9.261  10.882   8.968  0.2788  0.0081 -1.1667
  815MOL0     H 9962   9.467  10.970   8.912 -1.2076 -0.9311  1.2367
  815MOL0     H 9963   9.382  10.958   8.764  0.2515  1.9731  0.6878
  815MOL0     H 9964   9.514  10.733   8.725 -2.3064  2.4845 -0.9040
  815MOL0     H 9965   9.609  10.774   8.868 -0.9251  0.7977  1.1233
  815MOL0     H 9966   9.558  10.966   8.627  1.2856  1.9085  0.1407
  815MOL0     H 9967   9.695  10.975   8.735  0.3456 -0.6947  0.1809
  815MOL0     H 9968   9.807  10.787   8.652  2.9106  2.0795 -3.6286
  815MOL0     H 9969   9.669  10.739   8.561 -1.2759  1.5114 -2.0490
  815MOL0     H 9970   9.712  10.945   8.410  1.4523 -1.1152 -1.3236
  815MOL0     H 9971   9.855  10.976   8.503  2.0209 -1.9474 -0.1179
  815MOL0     H 9972   9.805  10.706   8.381 -1.7564  0.8239  2.2429
  815MOL0     H 9973   9.944  10.750   8.472  1.6487 -0.0937 -0.6777
  815MOL0     H 9974   9.861  10.894   8.223 -1.5353 -2.4645 -0.3578
  815MOL0     H 9975  10.019  10.922   8.309  0.2870 -0.0707  0.5198
  815MOL0     H 9976   9.871  10.553   8.194 -0.5892  1.9177  4.4144
  815MOL0     H 9977   9.987  10.363   8.112 -1.7972  0.1411 -1.0740
  815MOL0     H 9978  10.027  10.433   7.946 -1.3605  0.9958  0.2983
  815MOL0     H 9979  10.260  10.395   7.969  1.0705 -0.8455  0.5100
  815MOL0     H 9980  10.258  10.364   8.140  1.5364 -1.9493 -0.5665
  815MOL0     H 9981  10.175  10.181   7.922 -2.2569  2.2357 -1.0798
  815MOL0     H 9982  10.113  10.152   8.089  0.2986 -0.5484 -2.0682
  815MOL0     H 9983  10.321  10.162   8.176 -2.2196  1.2392  0.0769
  815MOL0     H 9984  10.400  10.183   8.015  1.2682 -1.5208  0.0085
  815MOL0     H 9985  10.294   9.757   8.008 -1.2829 -1.2535  3.4812
  815MOL0     H 9986  10.461   9.588   8.062  0.8774 -0.0112 -3.3645
  815MOL0     H 9987  10.920   9.524   8.461  2.5409  0.4475  1.2745
  815MOL0     H 9988  11.140   9.428   8.446 -0.6936 -0.7967 -0.2352
  815MOL0     H 9989  11.368   9.325   8.388 -1.8308 -1.4465  0.5563
  815MOL0     H 9990  11.252   9.254   8.288 -1.0586  2.5358  0.3739
  815MOL0     H 9991  11.443   9.242   8.112 -0.8287 -1.1515  0.6456
  815MOL0     H 9992  11.540   9.341   8.199  1.6494 -1.5632  1.5223
  815MOL0     H 9993  11.498   9.143   8.396  0.5301  0.2641  0.2949
  815MOL0     H 9994  11.478   9.042   8.260 -2.3369  1.4958 -0.5911
  815MOL0     H 9995  11.738   9.178   8.358  0.5064 -2.5227  2.1014
  815MOL0     H 9996  11.716   9.162   8.182 -0.8747 -1.2117 -0.4301
  815MOL0     H 9997  11.689   8.911   8.209  1.9988 -0.5311  0.4049
  815MOL0     H 9998  11.685   8.932   8.383 -0.9574 -0.6955 -0.1961
  815MOL0     H 9999  11.900   8.852   8.247  1.3542 -0.4245  0.3592
  815MOL0     H10000  11.930   9.022   8.224  2.8451 -0.4990  1.3131
  815MOL0     H10001  11.886   8.901   8.499  1.2988 -2.2095  0.0862
  815MOL0     H10002  11.935   9.064   8.456 -2.9258 -0.7094  1.3743
  815MOL0     H10003  12.151   8.965   8.357 -1.6296  1.0640 -1.4598
  815MOL0     H10004  12.121   8.933   8.542 -0.4760 -1.8365  1.1531
  815MOL0     H10005  11.203   9.603   8.062  0.0478  0.1219  0.1302
  815MOL0     H10006  10.974   9.690   8.069  1.9649  1.6112  0.6653
  815MOL0     H10007  10.703   9.896   8.250  0.3450  0.4533 -0.8504
  815MOL0     H10008  10.531  10.057   8.184 -0.0462 -0.6358 -0.3118
  815MOL0     H10009   9.499  10.651   9.225 -0.1800 -2.2442 -0.0975
  815MOL0     H10010   9.390  10.583   9.428 -3.5970 -0.6957  2.0978
  815MOL0     H10011   8.768  10.691   9.556  2.3193 -0.0437 -0.9148
  815MOL0     H10012   8.597  10.569   9.658  0.0251 -1.3050 -1.0915
  815MOL0     H10013   8.465  10.420   9.737  0.8062  0.1068 -0.3072
  815MOL0     H10014   8.507  10.430   9.907 -2.0084  1.4994 -0.7725
  815MOL0     H10015   8.336  10.270   9.890  0.6983 -1.1690  1.8026
  815MOL0     H10016   8.472  10.170   9.899 -2.6944 -1.2737  0.8655
  815MOL0     H10017   8.480  10.171   9.627  0.9663 -4.8663  2.2399
  815MOL0     H10018   8.328  10.259   9.636  0.2594  3.2829  3.4217
  815MOL0     H10019   8.402   9.972   9.724  0.0559  0.4502 -2.4905
  815MOL0     H10020   8.248  10.046   9.786 -0.8258  1.3936  0.3957
  815MOL0     H10021   8.145   9.893   9.406 -1.3353  1.8059 -0.0338
  815MOL0     H10022   8.863  10.249   9.734 -2.1605 -1.1286  0.6255
  815MOL0     H10023   9.100  10.338   9.472 -2.0836 -1.3647 -1.2053
  815MOL0     H10024   9.147  10.367   9.648 -0.4129 -2.6949  0.8126
  815MOL0     H10025   9.051  10.228   9.598  1.6635 -0.0984  1.7979
  816MOL0     O10026   9.383   0.915   1.648 -0.5501  0.6178 -0.1165
  816MOL0     C10027   9.323   0.913   1.752  0.5666  0.0045 -0.9606
  816MOL0     O10028   9.376   0.898   1.877  0.3189 -0.1293  0.0134
  816MOL0     C10029   9.511   0.893   1.889 -0.1429 -0.9290 -0.9186
  816MOL0     C10030   9.582   0.778   1.863 -0.8929 -0.9420  0.5200
  816MOL0     C10031   9.717   0.769   1.909 -0.3324  0.2060 -1.2128
  816MOL0     C10032   9.779   0.884   1.960  0.1555  0.1861 -0.8846
  816MOL0     O10033   9.914   0.898   1.999 -0.5916 -0.0940 -0.8091
  816MOL0     C10034   9.994   0.779   1.984  0.9109 -0.4901 -0.3476
  816MOL0     C10035  10.130   0.798   2.036 -0.7063  0.1413 -0.4956
  816MOL0     C10036  10.227   0.677   2.000  0.2478 -0.0523 -0.5517
  816MOL0     C10037  10.372   0.702   2.037 -0.9358 -0.2403 -0.6405
  816MOL0     C10038  10.449   0.785   1.943  0.5693  0.0993  0.8596
  816MOL0     C10039  10.597   0.782   1.998 -0.0554  0.6300  0.3123
  816MOL0     C10040  10.702   0.858   1.908 -0.1286  1.8701  0.2203
  816MOL0     C10041  10.713   0.777   1.773 -0.6782 -0.1507  0.3111
  816MOL0     N10042  10.807   0.850   1.681  0.7944  0.9178  0.3780
  816MOL0     C10043  10.938   0.816   1.663  0.5098 -0.7392  0.6129
  816MOL0     C10044  10.981   0.893   1.556  0.1146  0.1134  0.2768
  816MOL0     C10045  11.121   0.889   1.492 -0.6522  0.4386  0.1652
  816MOL0     C10046  11.178   1.031   1.465 -0.5479  0.4444 -0.6640
  816MOL0     C10047  11.309   1.018   1.387 -0.3501 -0.5973 -0.1527
  816MOL0     C10048  11.437   0.999   1.475  0.4952 -1.0106  0.7214
  816MOL0     O10049  11.441   1.113   1.557  0.0443  0.0265 -1.3810
  816MOL0     C10050  11.561   1.139   1.613 -0.0741  0.6665 -0.1707
  816MOL0     C10051  11.603   1.264   1.624 -0.0451  1.1368 -0.7870
  816MOL0     C10052  11.726   1.297   1.676  0.4536 -0.7342 -0.9328
  816MOL0     C10053  11.803   1.197   1.724 -0.7089 -0.4065  0.1760
  816MOL0     C10054  11.944   1.224   1.761  0.4176 -0.0774  0.6464
  816MOL0     O10055  11.963   1.356   1.769 -0.4453  0.5127 -0.0395
  816MOL0     C10056  12.091   1.409   1.774  0.6466 -0.1174  0.2981
  816MOL0     C10057  12.107   1.543   1.725 -0.5953 -0.1163  0.4531
  816MOL0     C10058  12.223   1.611   1.738 -0.7354  0.0965  0.2227
  816MOL0     C10059  12.344   1.548   1.795  0.3142 -0.3834 -0.0147
  816MOL0     O10060  12.455   1.626   1.813 -0.0220  0.0412  0.3021
  816MOL0     C10061  12.490   1.720   1.704  0.3628  0.6260 -0.2890
  816MOL0     C10062  12.636   1.759   1.728  0.5378  0.1057 -0.3065
  816MOL0     C10063  12.735   1.645   1.710 -0.0698  0.0532 -0.7304
  816MOL0     C10064  12.732   1.595   1.561 -0.4322 -0.2154 -0.6324
  816MOL0     C10065  12.840   1.484   1.550  0.6740  0.2987 -0.4344
  816MOL0     C10066  12.985   1.540   1.519  0.1532  0.7779  1.4082
  816MOL0     C10067  13.077   1.418   1.478 -0.2035  0.5922  0.2930
  816MOL0     C10068  13.085   1.386   1.327  0.4301 -0.3402 -0.4876
  816MOL0    Cl10069  13.195   1.504   1.268 -0.1434 -0.0074 -0.0659
  816MOL0     C10070  12.323   1.428   1.850  0.0053  0.7017 -0.0941
  816MOL0     C10071  12.198   1.351   1.834 -0.8761 -0.0894  0.7202
  816MOL0     O10072  12.026   1.132   1.776  0.1372  0.5409 -0.5174
  816MOL0     C10073  11.765   1.055   1.711  0.3355 -0.5502  1.1399
  816MOL0     C10074  11.642   1.033   1.655 -0.0610 -0.3948  0.6310
  816MOL0     N10075  10.876   0.974   1.519  1.2921  0.1260  0.1913
  816MOL0     N10076  10.773   0.932   1.580 -0.0961 -0.7938 -0.1719
  816MOL0     C10077   9.704   1.001   1.987  0.2178  0.7928 -0.5857
  816MOL0     C10078   9.571   1.005   1.962  0.1811  0.3777  0.1523
  816MOL0     C10079   9.176   0.918   1.743 -0.5483 -0.0195  0.6307
  816MOL0     C10080   9.106   0.857   1.847  0.5521 -0.5930 -0.2862
  816MOL0     C10081   8.965   0.837   1.834  0.8695 -0.3502 -0.6437
  816MOL0     C10082   8.894   0.874   1.725  0.0891 -0.3528  0.6517
  816MOL0     O10083   8.762   0.846   1.712  0.1139  0.0547 -0.6824
  816MOL0     C10084   8.665   0.941   1.652  0.2871  0.0536 -0.2812
  816MOL0     C10085   8.524   0.913   1.682  0.2592  0.2164 -0.5325
  816MOL0     C10086   8.438   0.967   1.560  1.1832  0.0819  0.6827
  816MOL0     C10087   8.287   0.935   1.580 -1.1949 -0.2742 -0.1042
  816MOL0     C10088   8.244   0.797   1.558 -0.1229  0.5928  0.6952
  816MOL0     C10089   8.233   0.671   1.546  0.0164 -0.3635 -1.0257
  816MOL0     C10090   8.957   0.940   1.628 -0.2920 -0.6471 -0.5343
  816MOL0     C10091   9.097   0.968   1.632 -0.2252 -0.0550  0.2641
  816MOL0     C10092   9.174   1.030   1.514  0.3365 -0.5477  0.5610
  816MOL0     H10093   9.526   0.697   1.818  1.3475 -2.0859 -0.3459
  816MOL0     H10094   9.774   0.679   1.888 -0.9209 -0.1761 -1.1686
  816MOL0     H10095   9.956   0.686   2.027  2.5529 -2.3940 -2.6857
  816MOL0     H10096   9.994   0.762   1.876 -2.2135  0.0702 -0.5159
  816MOL0     H10097  10.135   0.800   2.146  0.9938  0.7300 -0.5496
  816MOL0     H10098  10.171   0.893   2.000  0.7050 -0.0681  0.4632
  816MOL0     H10099  10.228   0.670   1.891  0.1408  1.3251 -0.6587
  816MOL0     H10100  10.183   0.584   2.038 -0.9416  1.1549  1.1823
  816MOL0     H10101  10.386   0.757   2.131  0.6195 -0.2743 -0.8203
  816MOL0     H10102  10.421   0.605   2.043  0.0565  0.1953 -1.3435
  816MOL0     H10103  10.442   0.747   1.841 -0.0774 -2.5337  1.7959
  816MOL0     H10104  10.423   0.891   1.948  1.2453  0.2622  1.0434
  816MOL0     H10105  10.601   0.825   2.099 -1.9714  2.6780 -0.4072
  816MOL0     H10106  10.624   0.677   2.015 -1.6041  0.3337  1.0655
  816MOL0     H10107  10.801   0.865   1.954 -0.9842  2.3296  2.0800
  816MOL0     H10108  10.666   0.956   1.877 -2.7205  0.2109 -2.5419
  816MOL0     H10109  10.755   0.683   1.809  2.7562  1.1760  0.1695
  816MOL0     H10110  10.611   0.765   1.734  0.2596  1.8528 -3.2324
  816MOL0     H10111  10.994   0.732   1.705 -2.4521 -3.8880 -1.1881
  816MOL0     H10112  11.190   0.840   1.561 -1.4170 -0.9113  0.0053
  816MOL0     H10113  11.111   0.833   1.398  0.2433 -1.1595  0.9699
  816MOL0     H10114  11.106   1.081   1.399 -1.5817  1.2349  1.0058
  816MOL0     H10115  11.183   1.085   1.560  1.3741 -1.0725  0.1629
  816MOL0     H10116  11.332   1.111   1.335  2.1290  0.2918  2.2308
  816MOL0     H10117  11.298   0.949   1.303  0.3481  0.6916 -1.3435
  816MOL0     H10118  11.519   0.994   1.403  0.6810  4.5426  0.0875
  816MOL0     H10119  11.425   0.910   1.537 -3.7920 -1.2963 -0.1960
  816MOL0     H10120  11.535   1.340   1.587 -1.5446  0.8482  1.2357
  816MOL0     H10121  11.740   1.404   1.688  1.2191 -0.9075 -0.1457
  816MOL0     H10122  12.018   1.597   1.694 -1.4385  0.2131  3.2145
  816MOL0     H10123  12.208   1.714   1.707  0.5424  0.1287 -0.3724
  816MOL0     H10124  12.463   1.669   1.611 -2.1663  0.5489  0.3895
  816MOL0     H10125  12.430   1.811   1.711 -0.4508  0.0035  2.8516
  816MOL0     H10126  12.657   1.830   1.647 -0.5491  0.4023 -0.3403
  816MOL0     H10127  12.637   1.801   1.829 -1.6996 -0.3731 -0.0428
  816MOL0     H10128  12.832   1.678   1.747 -1.2631  1.0696  1.6927
  816MOL0     H10129  12.716   1.562   1.779  1.6006 -0.3080 -0.6687
  816MOL0     H10130  12.759   1.669   1.485  0.5641 -0.1082 -0.1813
  816MOL0     H10131  12.629   1.567   1.535 -0.9358  1.4198 -0.4872
  816MOL0     H10132  12.808   1.405   1.482  0.4208  0.1673 -0.1637
  816MOL0     H10133  12.850   1.419   1.638 -0.6029 -3.0294 -2.5769
  816MOL0     H10134  12.989   1.615   1.440  0.6026  0.0617  0.7302
  816MOL0     H10135  13.021   1.584   1.613  1.7327 -0.5836  1.5018
  816MOL0     H10136  13.050   1.322   1.524 -1.5256  0.5033 -0.6148
  816MOL0     H10137  13.181   1.435   1.507 -0.5215  1.1827  1.1241
  816MOL0     H10138  13.125   1.286   1.310  1.7280  0.3353 -1.6107
  816MOL0     H10139  12.987   1.390   1.278  0.0234 -3.8707 -0.1975
  816MOL0     H10140  12.392   1.387   1.923  0.7006 -1.0975 -1.6856
  816MOL0     H10141  12.190   1.264   1.898 -1.0936  1.1045  2.3881
  816MOL0     H10142  11.826   0.978   1.757  3.2284  1.4286  0.8855
  816MOL0     H10143  11.593   0.936   1.652 -3.1138  0.9276  2.6867
  816MOL0     H10144   9.753   1.094   2.016 -2.4999  2.1118  0.1417
  816MOL0     H10145   9.511   1.090   1.995  1.3624  1.0167  0.7147
  816MOL0     H10146   9.161   0.825   1.935  0.7833 -0.1234 -0.2536
  816MOL0     H10147   8.923   0.777   1.913 -0.8010 -1.0372 -1.9837
  816MOL0     H10148   8.691   0.949   1.546 -3.1469  0.2712 -1.2108
  816MOL0     H10149   8.681   1.041   1.695  0.1659 -0.1592  0.2607
  816MOL0     H10150   8.504   0.963   1.777 -0.6435 -2.8865  1.0545
  816MOL0     H10151   8.521   0.804   1.686  1.8427  0.1798  0.5914
  816MOL0     H10152   8.465   0.918   1.466  4.3436  1.2362  0.8513
  816MOL0     H10153   8.452   1.073   1.538  0.7351 -0.3629 -2.0953
  816MOL0     H10154   8.256   0.970   1.679  1.1759  1.7797  0.0474
  816MOL0     H10155   8.228   1.000   1.515  0.7081  2.9085  1.0771
  816MOL0     H10156   8.243   0.565   1.542  1.8917 -0.2406 -0.3705
  816MOL0     H10157   8.906   0.970   1.537 -0.4919  2.1557  0.3987
  816MOL0     H10158   9.105   1.096   1.461  0.7284  1.1753  2.0962
  816MOL0     H10159   9.251   1.096   1.555 -2.3163  3.1636  0.0567
  816MOL0     H10160   9.212   0.953   1.446 -0.3592  1.1711 -1.8916
  817MOL0     O10161   5.636   2.092   3.930 -0.2191 -0.3050 -0.1163
  817MOL0     C10162   5.562   1.994   3.912 -0.6356  1.0004 -0.1168
  817MOL0     O10163   5.591   1.890   3.836 -0.6731  0.3551 -1.0838
  817MOL0     C10164   5.718   1.876   3.790  0.8947 -0.2652 -0.6343
  817MOL0     C10165   5.801   1.794   3.867  0.1215 -0.8911  0.4736
  817MOL0     C10166   5.926   1.760   3.824  0.2796  0.8457 -0.3374
  817MOL0     C10167   5.982   1.825   3.708  0.7591 -0.0571  0.1922
  817MOL0     O10168   6.119   1.807   3.678 -0.8034 -0.0228  0.7265
  817MOL0     C10169   6.221   1.745   3.769 -0.0685 -0.9109 -0.3136
  817MOL0     C10170   6.358   1.793   3.724  0.1659 -0.1058 -0.1410
  817MOL0     C10171   6.365   1.947   3.736  0.7177  0.1627  0.7098
  817MOL0     C10172   6.500   2.002   3.773  0.1728  0.0460 -0.6046
  817MOL0     C10173   6.502   2.150   3.760 -0.4609  0.2203  0.0648
  817MOL0     C10174   6.640   2.228   3.764 -0.5888 -0.4158  0.3342
  817MOL0     C10175   6.629   2.374   3.730  0.0214  0.4317  0.0258
  817MOL0     C10176   6.752   2.462   3.753 -0.1724 -0.2356 -1.6347
  817MOL0     N10177   6.761   2.514   3.887  0.0605 -1.0584  0.4669
  817MOL0     C10178   6.736   2.647   3.930  0.5594  0.1084  0.1259
  817MOL0     C10179   6.782   2.648   4.057  0.5191 -0.1806 -0.0172
  817MOL0     C10180   6.792   2.755   4.156 -0.2498 -0.2238 -0.5775
  817MOL0     C10181   6.935   2.819   4.163 -0.2513 -0.1262 -0.1284
  817MOL0     C10182   6.965   2.929   4.262  0.1227 -0.2934 -0.5073
  817MOL0     C10183   6.886   2.913   4.397  0.1115  0.2224  0.1987
  817MOL0     O10184   6.939   2.800   4.469 -0.2765  0.3023  0.2178
  817MOL0     C10185   6.885   2.789   4.597  0.2667 -0.0389 -0.3453
  817MOL0     C10186   6.949   2.692   4.674  0.0570  0.8558  0.0744
  817MOL0     C10187   6.897   2.655   4.791 -0.3965  0.8021 -0.4185
  817MOL0     C10188   6.762   2.694   4.823  0.0812  0.0599 -0.1186
  817MOL0     C10189   6.695   2.641   4.951  0.3876  0.5751  0.3954
  817MOL0     O10190   6.608   2.726   5.005 -0.1955 -0.7054 -0.8226
  817MOL0     C10191   6.554   2.699   5.126  0.8462  0.1368 -0.0920
  817MOL0     C10192   6.417   2.667   5.130  0.0632 -0.0874  0.8019
  817MOL0     C10193   6.357   2.626   5.253 -0.7222  0.3680  0.0988
  817MOL0     C10194   6.430   2.605   5.372 -0.7320 -0.0417 -0.4927
  817MOL0     O10195   6.374   2.572   5.488  0.3421 -0.1075 -0.0488
  817MOL0     C10196   6.232   2.522   5.488 -0.2255  0.0843  0.8700
  817MOL0     C10197   6.206   2.452   5.622 -0.7423  0.1275  0.3616
  817MOL0     C10198   6.066   2.390   5.618 -0.9352  0.0821  0.4736
  817MOL0     C10199   6.042   2.289   5.721  0.4482 -0.0619 -0.3932
  817MOL0     C10200   5.921   2.207   5.685  0.4222  0.3023  0.5577
  817MOL0     C10201   5.790   2.288   5.696 -0.6198  0.6652  0.1497
  817MOL0     C10202   5.673   2.215   5.637  0.4813 -1.1434 -0.0776
  817MOL0     C10203   5.637   2.268   5.503  0.4711 -0.4104  0.9368
  817MOL0    Cl10204   5.533   2.150   5.425  0.1760 -0.4310  0.3664
  817MOL0     C10205   6.562   2.640   5.369 -0.0096 -0.5902  0.0153
  817MOL0     C10206   6.628   2.686   5.248  0.7239  0.8576 -0.0584
  817MOL0     O10207   6.716   2.524   4.996  0.2071 -0.4028  0.1918
  817MOL0     C10208   6.698   2.795   4.750  0.3231 -0.0359  0.8498
  817MOL0     C10209   6.759   2.853   4.638  0.0438 -0.3984 -0.2248
  817MOL0     N10210   6.819   2.521   4.092  0.5266 -0.3763  0.0598
  817MOL0     N10211   6.817   2.448   3.989  0.2059  0.2267 -0.6715
  817MOL0     C10212   5.908   1.921   3.645 -0.5197  0.5725  0.5683
  817MOL0     C10213   5.771   1.936   3.679  0.0638 -0.5311  0.0848
  817MOL0     C10214   5.424   1.980   3.977  0.9147 -0.5114 -0.7031
  817MOL0     C10215   5.331   1.901   3.916 -1.3072 -1.0643 -0.2963
  817MOL0     C10216   5.201   1.897   3.971 -0.8126 -0.3264 -0.6847
  817MOL0     C10217   5.162   1.977   4.081  0.6085 -0.3516  0.4411
  817MOL0     O10218   5.026   1.977   4.112 -0.5494  0.3151  0.1329
  817MOL0     C10219   4.984   2.072   4.204  0.7207  0.1523  1.2280
  817MOL0     C10220   4.834   2.074   4.237 -0.8729  0.7386 -0.2859
  817MOL0     C10221   4.760   2.133   4.117 -1.1638  0.1236  0.3510
  817MOL0     C10222   4.605   2.124   4.138 -0.3628 -0.9989  0.7314
  817MOL0     C10223   4.543   2.163   4.011  0.4408 -0.6752 -0.0005
  817MOL0     C10224   4.485   2.214   3.914 -0.8503 -0.1800 -0.5667
  817MOL0     C10225   5.264   2.050   4.152 -0.3122 -0.2329 -0.1990
  817MOL0     C10226   5.394   2.062   4.095  0.9848 -0.3146  0.0136
  817MOL0     C10227   5.498   2.139   4.172  0.2126 -0.1529 -0.2433
  817MOL0     H10228   5.761   1.734   3.948 -0.5332 -4.4807 -2.2477
  817MOL0     H10229   5.982   1.686   3.881  0.0166  1.2628  0.4809
  817MOL0     H10230   6.205   1.779   3.871  3.5593  0.8519 -0.1603
  817MOL0     H10231   6.208   1.636   3.763  0.6637 -0.9455 -1.6129
  817MOL0     H10232   6.381   1.753   3.624  1.1536 -0.3849  0.1850
  817MOL0     H10233   6.449   1.765   3.778  0.9009  1.8524 -0.2871
  817MOL0     H10234   6.301   1.976   3.820  0.3900 -1.2681  0.9966
  817MOL0     H10235   6.321   1.992   3.647 -2.8012 -1.7405  1.3075
  817MOL0     H10236   6.540   1.973   3.871 -0.3111  0.7046 -0.1999
  817MOL0     H10237   6.572   1.961   3.702 -0.3310  0.0329 -1.1189
  817MOL0     H10238   6.458   2.186   3.666 -2.0281  1.1691  1.1027
  817MOL0     H10239   6.435   2.197   3.833  0.5316  1.8123  0.0058
  817MOL0     H10240   6.682   2.222   3.865  1.9432  0.4416 -0.6108
  817MOL0     H10241   6.710   2.181   3.695  0.3861 -0.7506  1.5064
  817MOL0     H10242   6.551   2.423   3.788 -0.0600  0.3594 -0.0235
  817MOL0     H10243   6.613   2.370   3.622 -0.0224  2.6275 -0.0961
  817MOL0     H10244   6.837   2.397   3.729 -0.2138 -0.3860 -1.3740
  817MOL0     H10245   6.736   2.546   3.684 -0.2863  2.3699  1.3298
  817MOL0     H10246   6.694   2.733   3.878  0.8230  1.3318  1.8294
  817MOL0     H10247   6.721   2.837   4.140 -1.6324 -0.4095  3.4074
  817MOL0     H10248   6.762   2.728   4.257  2.0004  3.0573  1.1540
  817MOL0     H10249   7.007   2.737   4.172 -2.5555 -2.4486 -1.5940
  817MOL0     H10250   6.953   2.854   4.061 -2.1063 -0.6103 -0.6694
  817MOL0     H10251   6.949   3.028   4.218  2.0872  0.8811  1.2592
  817MOL0     H10252   7.070   2.924   4.292 -0.1007 -0.1993  0.3166
  817MOL0     H10253   6.778   2.906   4.380 -0.0274  1.1688  0.6225
  817MOL0     H10254   6.892   3.002   4.460 -0.1051 -0.2529  0.9095
  817MOL0     H10255   7.045   2.660   4.636  0.2998  1.0751  0.5065
  817MOL0     H10256   6.938   2.580   4.858  1.5068 -1.2394 -3.6207
  817MOL0     H10257   6.361   2.690   5.040 -1.9108  1.9317  2.4237
  817MOL0     H10258   6.250   2.613   5.239 -0.5066  0.0283 -1.4019
  817MOL0     H10259   6.158   2.600   5.468 -3.6324 -2.5592  2.0510
  817MOL0     H10260   6.230   2.438   5.417  3.1047  0.7479 -0.2085
  817MOL0     H10261   6.274   2.369   5.641  0.1136  1.1581  2.0886
  817MOL0     H10262   6.212   2.518   5.709 -2.2952  1.2982 -0.3674
  817MOL0     H10263   5.998   2.476   5.620  0.5516  1.3473  3.2971
  817MOL0     H10264   6.067   2.343   5.520  0.7119  1.1870 -0.0889
  817MOL0     H10265   6.028   2.338   5.818  0.9529 -0.3072 -0.1903
  817MOL0     H10266   6.121   2.215   5.735  0.0724 -0.3732  0.1054
  817MOL0     H10267   5.902   2.130   5.760 -2.4219 -1.0079 -1.3267
  817MOL0     H10268   5.924   2.164   5.584  1.7177  2.1213 -0.2332
  817MOL0     H10269   5.777   2.308   5.803  3.0756  1.8834  0.4949
  817MOL0     H10270   5.798   2.388   5.653 -0.0838  0.3020 -0.6237
  817MOL0     H10271   5.587   2.201   5.703  0.0548 -2.2711 -0.8440
  817MOL0     H10272   5.703   2.111   5.624  2.9462 -0.3978 -0.8814
  817MOL0     H10273   5.584   2.363   5.507 -0.1062 -0.6599 -0.2797
  817MOL0     H10274   5.720   2.274   5.433  0.3125  1.5587  0.8639
  817MOL0     H10275   6.621   2.632   5.460  0.4014 -2.3651 -0.3764
  817MOL0     H10276   6.733   2.709   5.240  1.1860 -1.1405 -0.2426
  817MOL0     H10277   6.594   2.816   4.770 -0.0313  1.4515 -2.1366
  817MOL0     H10278   6.703   2.910   4.565 -0.4852 -1.5184 -0.7280
  817MOL0     H10279   5.950   1.962   3.554  2.2051  1.3310  2.0613
  817MOL0     H10280   5.708   1.989   3.608  2.1730 -2.0577 -3.1437
  817MOL0     H10281   5.356   1.852   3.823  0.0089 -1.2798  0.1572
  817MOL0     H10282   5.124   1.851   3.910 -1.3941 -0.4485  0.1384
  817MOL0     H10283   5.012   2.165   4.155  1.8356 -2.0414 -2.6916
  817MOL0     H10284   5.036   2.051   4.298  0.6199  1.6432  1.6375
  817MOL0     H10285   4.817   2.143   4.321  0.2277  2.9967 -1.8219
  817MOL0     H10286   4.797   1.973   4.255 -1.2698  0.9278 -0.0325
  817MOL0     H10287   4.796   2.061   4.043 -0.0005 -2.0408  2.8420
  817MOL0     H10288   4.795   2.235   4.095  3.5328 -2.0462 -4.4391
  817MOL0     H10289   4.586   2.017   4.153 -0.3831 -0.8344  2.0363
  817MOL0     H10290   4.572   2.180   4.226  1.2502  1.9872 -0.4158
  817MOL0     H10291   4.440   2.261   3.829  2.3562  0.9878 -1.7430
  817MOL0     H10292   5.233   2.104   4.241 -0.5403 -1.7217  0.6656
  817MOL0     H10293   5.583   2.076   4.201 -0.5240 -1.3639 -0.6357
  817MOL0     H10294   5.517   2.222   4.103  2.2350 -0.7205 -0.4284
  817MOL0     H10295   5.452   2.172   4.266  2.9499 -0.3607  1.2654
  818MOL0     O10296   9.899   4.708   7.047  0.2178  0.2223 -0.0282
  818MOL0     C10297   9.835   4.810   7.069 -0.2260 -0.1754 -0.8728
  818MOL0     O10298   9.845   4.871   7.186  0.4686  0.3188  0.0796
  818MOL0     C10299   9.746   4.963   7.218 -0.8125  0.1570 -1.0127
  818MOL0     C10300   9.643   4.930   7.304  0.1477 -0.1121 -0.8217
  818MOL0     C10301   9.539   5.017   7.345 -0.2164 -0.2896  0.7725
  818MOL0     C10302   9.545   5.149   7.303  0.0502 -0.9008 -0.1495
  818MOL0     O10303   9.440   5.235   7.348  0.2387 -0.0996 -0.0724
  818MOL0     C10304   9.460   5.387   7.340 -0.3207 -0.0321  0.0830
  818MOL0     C10305   9.318   5.428   7.293  0.6039 -0.3605 -0.1510
  818MOL0     C10306   9.283   5.384   7.144  0.2208 -0.2871 -0.9423
  818MOL0     C10307   9.384   5.440   7.039  1.0349  0.9622 -0.1647
  818MOL0     C10308   9.357   5.375   6.897 -0.4817  0.1381  0.6255
  818MOL0     C10309   9.425   5.456   6.792  0.4634 -0.3965 -0.0045
  818MOL0     C10310   9.576   5.435   6.779  1.0099 -0.2227 -0.4117
  818MOL0     C10311   9.609   5.300   6.706 -0.9388  0.0637  1.4347
  818MOL0     N10312   9.755   5.295   6.686 -0.1526  0.0684 -0.5316
  818MOL0     C10313   9.820   5.343   6.580  0.2294  0.8599 -0.7363
  818MOL0     C10314   9.953   5.351   6.625 -0.4871 -0.8360  0.2350
  818MOL0     C10315  10.067   5.381   6.522  0.0441  0.9666  0.0836
  818MOL0     C10316  10.184   5.282   6.541  0.6721 -0.4270 -0.5748
  818MOL0     C10317  10.157   5.156   6.454 -0.1291 -0.2473 -0.2353
  818MOL0     C10318  10.275   5.109   6.377  0.6522 -0.4611  0.4424
  818MOL0     O10319  10.336   5.219   6.309  0.2735  0.8218  0.2263
  818MOL0     C10320  10.468   5.206   6.267 -0.0307  0.3964  0.4651
  818MOL0     C10321  10.548   5.083   6.248  0.5438  0.0647  1.5155
  818MOL0     C10322  10.682   5.084   6.218  0.4744 -0.4326  0.0271
  818MOL0     C10323  10.754   5.205   6.200 -0.2544  0.3776  0.3447
  818MOL0     C10324  10.891   5.204   6.135  0.8553 -1.0185  0.9173
  818MOL0     O10325  10.935   5.327   6.093 -0.1485 -0.4330 -0.7382
  818MOL0     C10326  11.079   5.341   6.077  0.6228 -0.7872 -0.3837
  818MOL0     C10327  11.127   5.475   6.084  0.6732  0.7356 -0.8695
  818MOL0     C10328  11.269   5.506   6.087 -0.1666 -0.4392 -0.1653
  818MOL0     C10329  11.367   5.398   6.094  0.0984 -1.3620 -0.0166
  818MOL0     O10330  11.496   5.421   6.098 -0.1335  0.5027  0.1108
  818MOL0     C10331  11.542   5.498   5.989 -0.1314 -0.1645 -0.2666
  818MOL0     C10332  11.685   5.456   5.938  0.1261 -0.2368 -0.6381
  818MOL0     C10333  11.726   5.517   5.807 -0.4660 -0.1428 -0.9589
  818MOL0     C10334  11.878   5.480   5.772  0.1097  0.3280 -0.7849
  818MOL0     C10335  11.926   5.537   5.638  0.0986  0.2606 -0.0003
  818MOL0     C10336  12.058   5.479   5.596 -0.0447  0.5305  0.4425
  818MOL0     C10337  12.051   5.330   5.547  0.1969 -0.4109  0.0754
  818MOL0     C10338  12.169   5.289   5.469 -1.1067  0.5688  0.4156
  818MOL0    Cl10339  12.335   5.310   5.540 -0.4064  0.1794 -0.2278
  818MOL0     C10340  11.321   5.269   6.087  0.3078  0.3722  0.9175
  818MOL0     C10341  11.177   5.237   6.078 -0.7304 -0.4176 -0.2171
  818MOL0     O10342  10.927   5.096   6.095 -0.1269  0.7166 -0.1024
  818MOL0     C10343  10.685   5.326   6.236  0.4571 -0.0908 -0.1430
  818MOL0     C10344  10.547   5.326   6.270  0.4749  0.9132  1.0976
  818MOL0     N10345   9.955   5.310   6.757 -0.2156 -0.5291 -0.1402
  818MOL0     N10346   9.837   5.273   6.788 -0.1221  0.2888  0.2853
  818MOL0     C10347   9.656   5.194   7.224  1.2330  0.3549 -0.1702
  818MOL0     C10348   9.752   5.102   7.179 -0.2879 -0.5927 -0.3900
  818MOL0     C10349   9.747   4.850   6.957  0.3441 -0.8671 -0.0242
  818MOL0     C10350   9.605   4.845   6.960 -0.3398 -1.0761  0.4496
  818MOL0     C10351   9.535   4.891   6.847 -0.1576 -0.0627 -1.7215
  818MOL0     C10352   9.602   4.922   6.731  0.7218  0.7709 -0.0099
  818MOL0     O10353   9.518   4.962   6.632 -1.0010  0.0118 -0.3969
  818MOL0     C10354   9.588   5.015   6.514 -0.1818 -0.5352 -0.5842
  818MOL0     C10355   9.599   4.914   6.402 -0.9511 -0.4451 -0.9677
  818MOL0     C10356   9.728   4.935   6.326 -0.3738 -1.0977 -0.0641
  818MOL0     C10357   9.753   4.846   6.206 -0.1817 -0.6780 -0.1128
  818MOL0     C10358   9.890   4.844   6.165 -0.8096 -0.3378 -0.8967
  818MOL0     C10359   9.996   4.831   6.118 -0.5133 -0.1377  0.5103
  818MOL0     C10360   9.737   4.908   6.727  0.6428  0.2043 -0.0245
  818MOL0     C10361   9.815   4.871   6.834  0.0867  0.0671  0.8392
  818MOL0     C10362   9.968   4.861   6.804 -0.1479  0.2680  0.3407
  818MOL0     H10363   9.636   4.835   7.357 -4.6334  1.0557  1.2624
  818MOL0     H10364   9.457   4.982   7.406 -0.3420 -0.9623  0.2260
  818MOL0     H10365   9.492   5.410   7.442 -0.5020 -0.4085  0.2276
  818MOL0     H10366   9.546   5.417   7.280 -0.6876 -0.6359 -0.7587
  818MOL0     H10367   9.305   5.536   7.285 -0.7496 -0.5562 -1.0066
  818MOL0     H10368   9.239   5.394   7.361 -0.2457  1.0730 -0.3597
  818MOL0     H10369   9.179   5.412   7.124  0.5893  0.0183 -2.5415
  818MOL0     H10370   9.293   5.275   7.148 -0.8187 -0.3503  1.3552
  818MOL0     H10371   9.376   5.548   7.044  1.6321  0.9461  3.0317
  818MOL0     H10372   9.484   5.409   7.071  0.7682  0.7680  0.4988
  818MOL0     H10373   9.392   5.271   6.896  1.7713  0.7312 -3.3941
  818MOL0     H10374   9.252   5.385   6.869 -0.8798  1.4280  2.4842
  818MOL0     H10375   9.377   5.449   6.694  0.5591 -0.2466 -0.0618
  818MOL0     H10376   9.416   5.560   6.824 -1.6450 -1.3576  2.9866
  818MOL0     H10377   9.630   5.431   6.874  2.2518  0.5158 -1.0754
  818MOL0     H10378   9.619   5.513   6.716  0.1291 -1.4789 -2.6969
  818MOL0     H10379   9.561   5.208   6.740  0.2404 -2.2535 -2.5294
  818MOL0     H10380   9.553   5.310   6.612 -1.1121  0.0848  1.5376
  818MOL0     H10381   9.778   5.369   6.484 -2.1459  0.3083  0.0833
  818MOL0     H10382  10.028   5.385   6.420  2.6149  0.1985 -1.0054
  818MOL0     H10383  10.099   5.485   6.539  2.9855  0.1836 -0.0589
  818MOL0     H10384  10.283   5.321   6.515  0.2381 -0.5044 -2.5511
  818MOL0     H10385  10.189   5.267   6.649 -1.9680  0.5306 -0.2477
  818MOL0     H10386  10.078   5.173   6.380 -0.8332  1.0787  0.7838
  818MOL0     H10387  10.118   5.075   6.516 -0.5868  0.6197  0.6372
  818MOL0     H10388  10.245   5.032   6.306  2.4675 -0.3933 -0.4457
  818MOL0     H10389  10.339   5.060   6.450  1.3869 -2.1076 -1.2394
  818MOL0     H10390  10.499   4.988   6.265 -1.4211  0.8512  0.5371
  818MOL0     H10391  10.744   4.995   6.226 -0.0951 -0.6794  2.1792
  818MOL0     H10392  11.051   5.552   6.093  1.5117  1.3284  2.4564
  818MOL0     H10393  11.305   5.608   6.096 -4.0271  1.1716 -0.8359
  818MOL0     H10394  11.489   5.467   5.898  1.4132 -2.1310 -0.5662
  818MOL0     H10395  11.549   5.605   6.010  3.5344 -0.3337 -0.1233
  818MOL0     H10396  11.756   5.488   6.015 -0.9464 -1.0969  0.7538
  818MOL0     H10397  11.679   5.347   5.931  0.8484 -0.2727 -0.7132
  818MOL0     H10398  11.666   5.479   5.724 -1.8702  1.8589 -0.9266
  818MOL0     H10399  11.706   5.624   5.820  0.4892 -0.2823  3.4895
  818MOL0     H10400  11.882   5.370   5.771 -0.3246  0.2628  0.9119
  818MOL0     H10401  11.944   5.510   5.854 -0.3845  1.6511 -0.8525
  818MOL0     H10402  11.942   5.645   5.642  3.3987 -0.0079 -2.3712
  818MOL0     H10403  11.846   5.519   5.566 -1.1247  0.7127  1.2095
  818MOL0     H10404  12.091   5.551   5.520 -0.0263 -0.6054 -0.6642
  818MOL0     H10405  12.124   5.488   5.683 -0.2897  1.0390  0.5735
  818MOL0     H10406  11.957   5.323   5.492  0.1448  0.5070  0.0429
  818MOL0     H10407  12.039   5.263   5.632 -0.4583 -1.2124 -0.6237
  818MOL0     H10408  12.146   5.184   5.451 -0.6519 -0.0340  2.9476
  818MOL0     H10409  12.170   5.342   5.373 -1.5682 -1.4263 -0.7486
  818MOL0     H10410  11.395   5.190   6.086  0.5686  0.6105 -0.1652
  818MOL0     H10411  11.153   5.132   6.069  2.2340 -1.2965  0.8588
  818MOL0     H10412  10.730   5.425   6.236 -1.9984  1.1272 -1.5011
  818MOL0     H10413  10.494   5.417   6.295  1.3826  1.7296  0.1504
  818MOL0     H10414   9.670   5.286   7.169  2.7109  0.4255  0.2891
  818MOL0     H10415   9.837   5.134   7.119  0.8405 -1.0082  0.9331
  818MOL0     H10416   9.549   4.825   7.050 -1.8158  0.9701  0.0587
  818MOL0     H10417   9.429   4.916   6.845  0.1281  1.1816 -2.9176
  818MOL0     H10418   9.681   5.065   6.541 -0.8182  0.9607 -1.0756
  818MOL0     H10419   9.527   5.098   6.478 -0.2124  0.4732  1.6264
  818MOL0     H10420   9.516   4.921   6.331 -0.9538 -1.9055 -1.1315
  818MOL0     H10421   9.607   4.814   6.445  2.3032  0.6956  1.4898
  818MOL0     H10422   9.815   4.935   6.392 -0.9437  0.5436  0.7559
  818MOL0     H10423   9.724   5.036   6.284  1.0788 -1.4074 -1.0023
  818MOL0     H10424   9.741   4.744   6.246  3.3495 -1.1243  0.1490
  818MOL0     H10425   9.679   4.854   6.126 -0.2413  0.2273  0.0297
  818MOL0     H10426  10.094   4.805   6.084 -0.1811  2.8794 -1.1443
  818MOL0     H10427   9.787   4.915   6.631 -0.1331 -2.5924 -0.7458
  818MOL0     H10428   9.988   4.755   6.820 -0.8656  0.4662  3.0618
  818MOL0     H10429   9.994   4.892   6.703  1.4610  0.5565  0.8082
  818MOL0     H10430  10.032   4.921   6.870  1.8532  0.3848 -1.5815
  819MOL0     O10431   9.073   4.345   3.991 -0.1842  0.2613  0.0047
  819MOL0     C10432   9.036   4.451   3.946  1.0193  0.0430 -0.8495
  819MOL0     O10433   9.115   4.566   3.934  0.2676  0.3780  0.5232
  819MOL0     C10434   9.186   4.604   4.042  0.0752  0.9014 -0.1528
  819MOL0     C10435   9.139   4.699   4.129  0.8782  0.5111 -1.0582
  819MOL0     C10436   9.218   4.721   4.241 -0.3936 -0.3211 -0.0023
  819MOL0     C10437   9.345   4.669   4.255 -0.4849  0.1967 -0.9816
  819MOL0     O10438   9.416   4.714   4.363 -0.0807  0.1103  0.1136
  819MOL0     C10439   9.539   4.658   4.392  0.3415  0.0736  0.4396
  819MOL0     C10440   9.592   4.719   4.526  0.5853 -0.0779 -0.2767
  819MOL0     C10441   9.738   4.686   4.569 -0.2428  0.3212 -0.5340
  819MOL0     C10442   9.843   4.719   4.462  0.9235  0.0643 -0.0379
  819MOL0     C10443   9.979   4.668   4.504  0.5669 -0.0836  0.0839
  819MOL0     C10444  10.077   4.699   4.390 -0.0533 -0.1306 -0.3382
  819MOL0     C10445  10.219   4.653   4.416 -1.0156 -0.3483 -0.6478
  819MOL0     C10446  10.312   4.688   4.296 -0.0884  0.3018 -0.3383
  819MOL0     N10447  10.439   4.613   4.320  0.8334 -0.1062 -0.2297
  819MOL0     C10448  10.460   4.488   4.273  0.8318 -0.0988  0.1921
  819MOL0     C10449  10.590   4.472   4.294 -0.0071  1.3432 -0.4228
  819MOL0     C10450  10.677   4.372   4.228 -0.1499 -0.1891  0.2628
  819MOL0     C10451  10.623   4.228   4.218  0.1867  0.7720  1.0872
  819MOL0     C10452  10.627   4.158   4.353  0.0555 -0.4652 -0.6560
  819MOL0     C10453  10.510   4.172   4.446 -0.0526 -0.4981 -0.4783
  819MOL0     O10454  10.391   4.165   4.364  0.7255 -0.6611  0.1860
  819MOL0     C10455  10.274   4.209   4.408 -0.1096  1.2648 -0.3103
  819MOL0     C10456  10.172   4.203   4.317 -0.0329  0.5463 -0.2777
  819MOL0     C10457  10.041   4.219   4.355  0.2725 -0.5532 -0.8105
  819MOL0     C10458  10.001   4.232   4.489 -0.4441 -0.3923 -0.8686
  819MOL0     C10459   9.857   4.249   4.530 -0.2726  0.3588  0.3006
  819MOL0     O10460   9.786   4.315   4.443  0.4669 -0.1363  0.0514
  819MOL0     C10461   9.642   4.320   4.445  0.9424 -0.0378  0.7609
  819MOL0     C10462   9.584   4.310   4.318 -0.4835 -0.7245  0.3086
  819MOL0     C10463   9.444   4.326   4.317  0.4683  0.9952  0.0639
  819MOL0     C10464   9.363   4.315   4.431 -0.6982 -0.5594 -0.6495
  819MOL0     O10465   9.231   4.294   4.443  0.4500 -0.3965  0.3085
  819MOL0     C10466   9.155   4.246   4.329 -0.8714  0.1476 -0.0821
  819MOL0     C10467   9.006   4.273   4.357 -0.1924 -1.1035  0.2326
  819MOL0     C10468   8.974   4.423   4.315  0.5762  0.3329  0.6681
  819MOL0     C10469   8.835   4.456   4.362 -0.5497 -0.4356 -0.1827
  819MOL0     C10470   8.820   4.611   4.348 -0.2566 -0.6382 -0.0529
  819MOL0     C10471   8.768   4.656   4.209 -0.2623  0.4628  0.8897
  819MOL0     C10472   8.736   4.804   4.201  0.2343 -0.6148 -0.5447
  819MOL0     C10473   8.635   4.840   4.095  0.5949 -0.6172 -1.3872
  819MOL0    Cl10474   8.721   4.830   3.941  0.0519  0.2508  0.1592
  819MOL0     C10475   9.428   4.321   4.555  0.1759  0.9182 -0.1069
  819MOL0     C10476   9.571   4.330   4.565 -0.1666 -0.3733  0.7530
  819MOL0     O10477   9.810   4.197   4.633  0.1994  0.1951 -0.5773
  819MOL0     C10478  10.104   4.237   4.587  1.2800 -0.3165 -0.3591
  819MOL0     C10479  10.242   4.225   4.544  0.0895 -0.1139 -0.8402
  819MOL0     N10480  10.640   4.579   4.374 -0.2508  0.5520  0.0125
  819MOL0     N10481  10.548   4.665   4.383 -0.2971  0.4649  0.0580
  819MOL0     C10482   9.402   4.585   4.154  0.0443  0.1817  0.0367
  819MOL0     C10483   9.324   4.558   4.046  0.2684 -0.0297 -0.2634
  819MOL0     C10484   8.898   4.437   3.895  0.7136 -0.0213  0.1305
  819MOL0     C10485   8.796   4.352   3.957  0.5207  0.0018  1.0112
  819MOL0     C10486   8.661   4.362   3.923  0.4573 -0.1348 -0.0475
  819MOL0     C10487   8.628   4.459   3.830 -0.6427 -0.1000  0.3239
  819MOL0     O10488   8.495   4.470   3.807 -0.2279 -0.0853  0.8349
  819MOL0     C10489   8.445   4.595   3.770 -0.2630 -0.1086 -0.2841
  819MOL0     C10490   8.298   4.609   3.788 -0.3309  0.1550 -0.0191
  819MOL0     C10491   8.249   4.738   3.714 -0.0957 -0.3894  0.0758
  819MOL0     C10492   8.127   4.811   3.774 -1.4207 -0.0016  0.7836
  819MOL0     C10493   8.018   4.724   3.815  0.3458  0.3678 -1.3587
  819MOL0     C10494   7.928   4.646   3.847 -0.6960  0.0596  0.3964
  819MOL0     C10495   8.724   4.525   3.757  0.1511  0.6791 -0.0961
  819MOL0     C10496   8.861   4.511   3.778  0.4652  0.9053  0.0294
  819MOL0     C10497   8.952   4.555   3.669  0.7609 -0.3284  0.2899
  819MOL0     H10498   9.045   4.752   4.124 -0.6672 -1.8536  0.4585
  819MOL0     H10499   9.171   4.783   4.316 -3.6431 -2.7942  0.2354
  819MOL0     H10500   9.524   4.552   4.414  0.8180 -0.0362  0.2493
  819MOL0     H10501   9.615   4.683   4.316  0.4912 -0.4252  0.4260
  819MOL0     H10502   9.523   4.688   4.606  0.2526  0.0970 -0.4940
  819MOL0     H10503   9.581   4.828   4.522 -1.8089 -0.2710 -0.3762
  819MOL0     H10504   9.748   4.579   4.586  1.8238  0.7777  1.7124
  819MOL0     H10505   9.768   4.744   4.657  0.1032 -0.3875 -0.1801
  819MOL0     H10506   9.812   4.672   4.368  0.9551 -2.1918  1.0091
  819MOL0     H10507   9.845   4.827   4.451  2.2327  0.1406  0.8145
  819MOL0     H10508  10.011   4.710   4.600  0.7041 -2.3624  1.1202
  819MOL0     H10509   9.963   4.560   4.519  0.7852 -1.1310 -5.3533
  819MOL0     H10510  10.037   4.649   4.301  1.5483  1.2172 -1.9156
  819MOL0     H10511  10.080   4.808   4.377 -0.0493 -0.1132 -0.1788
  819MOL0     H10512  10.209   4.546   4.439 -2.0287  0.2866  2.4224
  819MOL0     H10513  10.268   4.704   4.500  3.0431 -2.2028 -1.6554
  819MOL0     H10514  10.268   4.644   4.206  0.2428 -1.3852  0.2833
  819MOL0     H10515  10.337   4.793   4.281  3.8237 -0.7750 -2.9712
  819MOL0     H10516  10.401   4.430   4.203  0.2876  1.5996 -0.8258
  819MOL0     H10517  10.693   4.412   4.128 -2.6180  0.2902 -0.0194
  819MOL0     H10518  10.771   4.368   4.284 -1.4870 -0.7878  2.6232
  819MOL0     H10519  10.525   4.229   4.170  0.1207 -0.6064  1.1568
  819MOL0     H10520  10.675   4.171   4.141  2.0607  0.2185  2.6859
  819MOL0     H10521  10.721   4.184   4.402 -0.9990  0.5361  0.9244
  819MOL0     H10522  10.646   4.055   4.322 -2.5259 -1.1806 -0.0911
  819MOL0     H10523  10.507   4.273   4.488 -1.5516 -0.0422 -1.6272
  819MOL0     H10524  10.513   4.101   4.530 -1.3373  0.3567  0.3241
  819MOL0     H10525  10.193   4.195   4.211 -0.2007  3.2669 -0.5756
  819MOL0     H10526   9.961   4.224   4.281 -0.2569 -0.1948 -0.2241
  819MOL0     H10527   9.637   4.307   4.224  1.6918 -0.1257  1.4450
  819MOL0     H10528   9.396   4.330   4.219 -0.3622  0.7585  0.4608
  819MOL0     H10529   9.173   4.306   4.239 -1.7473 -0.1281 -0.4626
  819MOL0     H10530   9.171   4.138   4.323  2.3802  0.0912  4.5515
  819MOL0     H10531   8.937   4.220   4.289  0.4068  0.7716 -1.9578
  819MOL0     H10532   8.974   4.264   4.461  1.9276  0.0114  1.0105
  819MOL0     H10533   9.039   4.494   4.366  3.0632 -1.2203 -0.1819
  819MOL0     H10534   8.970   4.443   4.208 -2.0222  2.3219  1.0270
  819MOL0     H10535   8.825   4.423   4.466 -2.1327 -4.6367 -1.4416
  819MOL0     H10536   8.755   4.405   4.308 -2.6611 -0.2741  2.5940
  819MOL0     H10537   8.915   4.658   4.375  0.4576 -1.9556 -0.1892
  819MOL0     H10538   8.746   4.638   4.425 -0.7824  2.0722 -1.3976
  819MOL0     H10539   8.843   4.641   4.131  1.1293  1.4229  2.0078
  819MOL0     H10540   8.688   4.591   4.171  0.2656  0.5929 -0.5315
  819MOL0     H10541   8.825   4.866   4.194 -2.5164  4.1883  1.8134
  819MOL0     H10542   8.692   4.841   4.294  0.5958 -1.7342  0.0951
  819MOL0     H10543   8.547   4.776   4.087 -1.6797  2.4552 -3.0685
  819MOL0     H10544   8.597   4.942   4.110 -1.5045 -1.5008 -0.1959
  819MOL0     H10545   9.381   4.317   4.653  0.0093  0.8791 -0.1892
  819MOL0     H10546   9.630   4.351   4.654  2.3553 -0.9851 -0.6966
  819MOL0     H10547  10.080   4.240   4.693  2.2484  0.7896 -0.1467
  819MOL0     H10548  10.312   4.217   4.627  0.6813 -0.1286 -1.3301
  819MOL0     H10549   9.503   4.544   4.155 -0.1497 -0.4164 -1.8153
  819MOL0     H10550   9.357   4.474   3.986 -2.5276 -1.8521  0.5466
  819MOL0     H10551   8.813   4.282   4.038 -2.9825 -0.2496  1.7092
  819MOL0     H10552   8.594   4.298   3.979  1.0256 -0.1167  0.6810
  819MOL0     H10553   8.467   4.604   3.664 -4.9654 -0.9106 -1.5726
  819MOL0     H10554   8.499   4.665   3.835  0.6518 -1.7442  0.8003
  819MOL0     H10555   8.278   4.624   3.895 -0.1014  0.3513 -0.0023
  819MOL0     H10556   8.248   4.522   3.747  0.4581 -0.2289 -0.1873
  819MOL0     H10557   8.239   4.713   3.608 -3.3593  1.2189 -0.1190
  819MOL0     H10558   8.329   4.813   3.721  0.2929 -0.2158 -3.7364
  819MOL0     H10559   8.164   4.852   3.868  1.2953  1.2475 -0.7015
  819MOL0     H10560   8.088   4.896   3.717  1.0881 -1.3797 -3.4882
  819MOL0     H10561   7.848   4.592   3.894 -2.5437  3.6213  1.7448
  819MOL0     H10562   8.697   4.579   3.667 -0.1961 -0.0586 -0.4425
  819MOL0     H10563   9.057   4.538   3.697  1.1202  0.7191 -0.3549
  819MOL0     H10564   8.936   4.488   3.583 -1.2090 -0.8204  1.0035
  819MOL0     H10565   8.934   4.660   3.645 -2.0773 -1.1050 -1.4692
  820MOL0     O10566   3.493   0.544  10.396  0.8393  0.6466  0.4616
  820MOL0     C10567   3.483   0.459  10.307  0.9647  1.2515  0.1031
  820MOL0     O10568   3.556   0.455  10.192  0.4051 -0.2257  0.0931
  820MOL0     C10569   3.670   0.543  10.193  0.5824 -0.2467  0.8850
  820MOL0     C10570   3.750   0.563  10.302 -0.3578  0.4650 -0.0707
  820MOL0     C10571   3.867   0.645  10.294  0.3444  0.0223 -0.6831
  820MOL0     C10572   3.900   0.722  10.181  0.1732 -0.3292  1.1682
  820MOL0     O10573   4.008   0.812  10.166 -0.1797 -0.1695  0.8314
  820MOL0     C10574   4.104   0.829  10.276  0.2980 -0.0760  0.4411
  820MOL0     C10575   4.221   0.927  10.243 -0.1951 -0.3181  0.1974
  820MOL0     C10576   4.318   0.956  10.361 -0.4228 -0.2293  0.3804
  820MOL0     C10577   4.430   1.048  10.298 -0.5887  0.2505 -0.5220
  820MOL0     C10578   4.557   1.039  10.388 -0.0405 -0.4591  0.6725
  820MOL0     C10579   4.668   1.123  10.323 -0.4609  0.3554  0.6496
  820MOL0     C10580   4.789   1.123  10.422  1.0774 -0.0929 -0.0655
  820MOL0     C10581   4.902   1.184  10.348  0.4620 -0.2428  0.5867
  820MOL0     N10582   5.015   1.217  10.425 -0.2584  0.0548 -0.9325
  820MOL0     C10583   5.123   1.137  10.455 -0.1289  0.3065 -0.1545
  820MOL0     C10584   5.198   1.202  10.542  0.6768 -0.0887 -1.3491
  820MOL0     C10585   5.291   1.136  10.627 -0.2372  0.0562  0.1696
  820MOL0     C10586   5.381   1.245  10.689 -0.1643 -0.5621 -0.3544
  820MOL0     C10587   5.488   1.175  10.779  0.3331 -0.6096 -0.3450
  820MOL0     C10588   5.562   1.274  10.867 -1.0623  0.8134 -0.8972
  820MOL0     O10589   5.622   1.392  10.808 -0.0567 -0.3596 -0.3516
  820MOL0     C10590   5.745   1.386  10.753 -0.2238  0.0331  0.6623
  820MOL0     C10591   5.793   1.279  10.677 -0.3754  0.6974  1.0385
  820MOL0     C10592   5.932   1.282  10.638 -0.3922  0.0872 -0.2752
  820MOL0     C10593   6.012   1.393  10.663 -0.1578  0.7946 -0.6459
  820MOL0     C10594   6.149   1.391  10.607  0.0289  0.3549  0.1496
  820MOL0     O10595   6.215   1.510  10.578 -0.2538  0.8351 -0.2240
  820MOL0     C10596   6.328   1.502  10.495  0.0236  0.0342  0.3047
  820MOL0     C10597   6.298   1.484  10.353 -0.1673 -0.8078 -0.6582
  820MOL0     C10598   6.406   1.480  10.265  0.7735  0.0845  0.4805
  820MOL0     C10599   6.543   1.493  10.311  0.8940  0.2406 -0.8733
  820MOL0     O10600   6.648   1.496  10.228  0.2171 -0.0069  0.0359
  820MOL0     C10601   6.649   1.529  10.088 -0.0779  0.0962 -0.0911
  820MOL0     C10602   6.679   1.673  10.048 -0.1303 -0.8205 -0.5108
  820MOL0     C10603   6.580   1.779  10.100 -0.1977  0.3057 -0.2735
  820MOL0     C10604   6.588   1.910  10.022  0.0932  0.2890  0.6485
  820MOL0     C10605   6.487   2.021  10.082 -0.4407  0.1656 -1.1297
  820MOL0     C10606   6.470   2.134   9.983 -0.2925  0.2073 -0.3326
  820MOL0     C10607   6.346   2.211  10.041  0.1268 -0.5368  0.5644
  820MOL0     C10608   6.239   2.214   9.925 -0.1944  0.6029  0.3215
  820MOL0    Cl10609   6.185   2.042   9.881  0.8499  0.2164 -0.0473
  820MOL0     C10610   6.564   1.492  10.448 -0.2874  0.6387 -0.1782
  820MOL0     C10611   6.456   1.503  10.537 -1.0331  1.2013  0.2725
  820MOL0     O10612   6.196   1.278  10.582  0.4774 -0.0652  0.2534
  820MOL0     C10613   5.963   1.506  10.724  1.4497  0.3547 -0.5212
  820MOL0     C10614   5.823   1.502  10.766  0.2539 -0.3831  0.0258
  820MOL0     N10615   5.135   1.322  10.559 -0.9341 -0.4707  0.6009
  820MOL0     N10616   5.034   1.335  10.488  0.5248 -0.0856  0.7534
  820MOL0     C10617   3.813   0.702  10.076 -0.0482 -0.0839  0.2429
  820MOL0     C10618   3.694   0.622  10.085 -0.3250 -0.4750  1.1756
  820MOL0     C10619   3.369   0.363  10.315  0.1693 -0.1415  0.6848
  820MOL0     C10620   3.314   0.327  10.188  0.1695 -0.1075  0.4287
  820MOL0     C10621   3.197   0.251  10.174  0.6668 -0.1280  0.6372
  820MOL0     C10622   3.131   0.204  10.279 -0.1954  1.1208 -1.6924
  820MOL0     O10623   3.016   0.131  10.284 -0.3586  0.1602  0.3693
  820MOL0     C10624   2.952   0.088  10.164 -0.1499 -0.4780  0.3717
  820MOL0     C10625   2.851  -0.028  10.189 -0.2136  0.6522 -0.0083
  820MOL0     C10626   2.935  -0.146  10.237  0.2016  0.1728  0.2549
  820MOL0     C10627   2.840  -0.270  10.266 -0.0845  0.6485  0.3518
  820MOL0     C10628   2.910  -0.374  10.339  0.4213  0.2257 -1.0309
  820MOL0     C10629   2.956  -0.469  10.401  0.4953  0.0827 -0.4658
  820MOL0     C10630   3.189   0.239  10.406  0.5651 -0.4212 -0.3296
  820MOL0     C10631   3.302   0.322  10.428  0.5670  0.2831  0.6318
  820MOL0     C10632   3.348   0.360  10.563  0.2650 -0.0868 -0.1628
  820MOL0     H10633   3.728   0.512  10.395 -1.3416 -0.1424 -0.6271
  820MOL0     H10634   3.934   0.660  10.377 -1.0551  0.6604  0.3752
  820MOL0     H10635   4.049   0.855  10.368 -0.5837 -2.3619  0.6244
  820MOL0     H10636   4.144   0.729  10.294 -1.7048 -2.8028 -6.7248
  820MOL0     H10637   4.186   1.028  10.220 -1.4790 -0.9839 -0.9560
  820MOL0     H10638   4.272   0.884  10.156  0.2474  0.2847  0.1547
  820MOL0     H10639   4.346   0.865  10.415 -0.4885  0.3368  1.3818
  820MOL0     H10640   4.268   1.023  10.431 -0.2309  3.4019 -2.6052
  820MOL0     H10641   4.463   1.016  10.198  0.3129  0.1494 -0.2059
  820MOL0     H10642   4.396   1.152  10.292 -3.0132 -0.1977  2.7529
  820MOL0     H10643   4.524   1.074  10.486  2.2335  0.5388  1.1319
  820MOL0     H10644   4.608   0.942  10.395  0.1328 -0.6547 -2.0394
  820MOL0     H10645   4.692   1.086  10.223  1.3526  0.5524  0.9776
  820MOL0     H10646   4.626   1.224  10.323  1.0210  1.0026  0.7236
  820MOL0     H10647   4.825   1.027  10.460 -0.5658 -0.3420  0.9417
  820MOL0     H10648   4.769   1.191  10.505  2.6387 -0.3344  0.5528
  820MOL0     H10649   4.942   1.110  10.279  1.0432 -0.2230  0.8963
  820MOL0     H10650   4.869   1.272  10.292  0.0425  0.2873  1.6379
  820MOL0     H10651   5.140   1.032  10.433  1.2361  0.9332 -2.5165
  820MOL0     H10652   5.235   1.082  10.704 -2.1041 -1.2040 -1.9428
  820MOL0     H10653   5.352   1.069  10.566 -0.2031 -0.7136  1.0347
  820MOL0     H10654   5.427   1.293  10.602 -0.0838 -2.5313 -1.4698
  820MOL0     H10655   5.327   1.316  10.752 -0.6119 -0.8760 -0.3806
  820MOL0     H10656   5.544   1.097  10.727  0.4466 -0.7680  0.0140
  820MOL0     H10657   5.420   1.120  10.844 -0.0883 -0.1903 -0.4255
  820MOL0     H10658   5.638   1.218  10.922  1.8870  2.8712 -2.5621
  820MOL0     H10659   5.490   1.309  10.942  0.8031  0.0029  1.4019
  820MOL0     H10660   5.738   1.186  10.670 -0.8037  1.0227  0.0460
  820MOL0     H10661   5.975   1.197  10.585  2.6840  0.7173  1.0021
  820MOL0     H10662   6.195   1.482  10.320 -1.9607 -0.2032  4.1428
  820MOL0     H10663   6.383   1.470  10.160 -0.6588 -1.3839  0.8884
  820MOL0     H10664   6.732   1.467  10.052 -0.6897 -1.5129  1.1262
  820MOL0     H10665   6.562   1.499  10.029  0.2878  0.0929 -0.6363
  820MOL0     H10666   6.781   1.690  10.085 -0.3361 -1.8955  0.6278
  820MOL0     H10667   6.668   1.672   9.939 -2.9119 -2.2426 -0.2946
  820MOL0     H10668   6.483   1.730  10.088 -0.2002  0.3613 -0.4730
  820MOL0     H10669   6.605   1.791  10.206  1.1219 -2.1288 -0.2323
  820MOL0     H10670   6.551   1.881   9.923  0.2081 -0.8205  0.9187
  820MOL0     H10671   6.687   1.956  10.022 -0.2373  1.0047  0.7477
  820MOL0     H10672   6.531   2.051  10.178  0.4572  2.0367 -2.0611
  820MOL0     H10673   6.387   1.978  10.090 -1.8085  3.2654  0.2145
  820MOL0     H10674   6.559   2.198   9.975  0.6070 -0.9023  0.4026
  820MOL0     H10675   6.457   2.085   9.886 -0.2027  0.2256 -0.3543
  820MOL0     H10676   6.381   2.307  10.080 -1.1390  0.0326  0.3464
  820MOL0     H10677   6.312   2.163  10.133  1.4527 -0.9311  0.8604
  820MOL0     H10678   6.151   2.268   9.961  1.4272  4.0566 -0.5002
  820MOL0     H10679   6.278   2.275   9.843 -1.8878 -0.8231 -1.6707
  820MOL0     H10680   6.663   1.468  10.487 -1.0089 -3.8805 -0.5238
  820MOL0     H10681   6.482   1.501  10.642 -1.0948  0.5204  0.2796
  820MOL0     H10682   6.029   1.590  10.743 -0.1098  1.1781  1.6972
  820MOL0     H10683   5.783   1.583  10.826 -1.3429 -0.4524 -0.8810
  820MOL0     H10684   3.826   0.776   9.998  0.5087 -0.5857 -0.1480
  820MOL0     H10685   3.636   0.634   9.994  1.2227  0.0472  0.2146
  820MOL0     H10686   3.359   0.356  10.093 -2.2193  0.5255 -0.5742
  820MOL0     H10687   3.168   0.221  10.074 -0.5451  1.2947  0.5197
  820MOL0     H10688   3.025   0.035  10.102 -3.2910 -3.9271 -0.7367
  820MOL0     H10689   2.912   0.168  10.100  2.2712  0.5366  0.0157
  820MOL0     H10690   2.797  -0.051  10.097 -0.6295 -1.6794  0.7626
  820MOL0     H10691   2.776   0.011  10.258 -0.4733  2.2091 -1.1168
  820MOL0     H10692   2.982  -0.114  10.330  0.8264  0.7141 -0.2361
  820MOL0     H10693   3.019  -0.169  10.171  0.7263  0.5114  0.8009
  820MOL0     H10694   2.757  -0.238  10.330 -0.1144 -0.9399  1.1662
  820MOL0     H10695   2.792  -0.312  10.177  1.4203  1.8213 -1.0810
  820MOL0     H10696   3.006  -0.536  10.467 -2.5896  0.4318  2.5635
  820MOL0     H10697   3.137   0.199  10.492  1.6349  0.8675  0.9922
  820MOL0     H10698   3.342   0.469  10.567  0.1301 -0.1418  1.4091
  820MOL0     H10699   3.286   0.320  10.643  3.8983  0.5833  3.2866
  820MOL0     H10700   3.452   0.330  10.576 -0.0059 -0.6264  0.8080
  821MOL0     O10701   5.965   7.444   7.020 -0.1998 -0.4158  0.3493
  821MOL0     C10702   5.858   7.467   7.076 -0.3414 -0.6295 -0.8651
  821MOL0     O10703   5.845   7.492   7.212  0.3067 -0.1431  1.0909
  821MOL0     C10704   5.949   7.504   7.297  0.4702  0.1891 -0.0702
  821MOL0     C10705   5.957   7.617   7.379 -1.1186  0.2088  0.2512
  821MOL0     C10706   6.063   7.620   7.468 -0.3629  0.3224  0.2002
  821MOL0     C10707   6.161   7.519   7.471 -0.2353 -0.2454  0.2711
  821MOL0     O10708   6.271   7.512   7.555 -0.2196 -0.8529  0.6560
  821MOL0     C10709   6.248   7.573   7.684  0.0301 -0.4641  1.0607
  821MOL0     C10710   6.355   7.518   7.769 -0.3084 -0.1469  0.8812
  821MOL0     C10711   6.493   7.582   7.733 -0.1616  0.4346  0.1437
  821MOL0     C10712   6.613   7.501   7.791 -0.2105  0.5724  0.5256
  821MOL0     C10713   6.759   7.567   7.781 -0.8348  0.5472 -0.5689
  821MOL0     C10714   6.763   7.701   7.859 -0.8368  0.7382 -0.8071
  821MOL0     C10715   6.903   7.761   7.865 -0.5770  0.4905  0.2550
  821MOL0     C10716   7.005   7.681   7.946 -0.0584  0.2486  0.0769
  821MOL0     N10717   7.122   7.760   7.939 -0.3581  0.2193  0.7194
  821MOL0     C10718   7.211   7.751   7.837 -0.4248 -0.3642 -0.0309
  821MOL0     C10719   7.324   7.825   7.876  0.0209  0.6590 -0.4006
  821MOL0     C10720   7.458   7.811   7.814 -0.2864 -0.6709 -0.1573
  821MOL0     C10721   7.558   7.908   7.857  0.3764  0.2449  0.0243
  821MOL0     C10722   7.617   7.876   8.007  0.1313 -0.6261  0.4135
  821MOL0     C10723   7.609   8.002   8.096 -0.0330 -0.3892 -0.6504
  821MOL0     O10724   7.699   8.113   8.059  0.6647  0.1139  0.0973
  821MOL0     C10725   7.831   8.087   8.058 -0.2848  0.2385  0.5859
  821MOL0     C10726   7.915   8.176   7.992  0.2776 -0.8361  0.1361
  821MOL0     C10727   8.050   8.166   7.997 -0.1135  0.1866 -0.4927
  821MOL0     C10728   8.101   8.050   8.047 -0.3090  1.3896 -0.1804
  821MOL0     C10729   8.240   8.011   8.030  0.4521  0.0387  0.6587
  821MOL0     O10730   8.338   8.114   8.035 -0.1147 -0.0114 -0.0373
  821MOL0     C10731   8.469   8.078   8.030  0.2138 -0.3627 -0.2549
  821MOL0     C10732   8.545   8.084   8.142  0.0404 -0.0475 -0.3371
  821MOL0     C10733   8.679   8.044   8.148 -0.2766  0.1417 -0.4370
  821MOL0     C10734   8.745   8.016   8.028 -0.0039  0.1310  0.2958
  821MOL0     O10735   8.876   7.986   8.026 -0.4633  0.6751 -0.4106
  821MOL0     C10736   8.970   8.090   8.052  0.0566  0.1837  0.1243
  821MOL0     C10737   9.096   8.032   8.116 -0.4256 -0.0036 -0.5342
  821MOL0     C10738   9.066   7.963   8.245  0.2829  0.1101 -0.5028
  821MOL0     C10739   9.195   7.950   8.323 -0.2511  0.6509  0.2090
  821MOL0     C10740   9.166   7.879   8.458 -0.2929  0.1734 -0.5449
  821MOL0     C10741   9.301   7.827   8.510 -0.1487 -0.4329  0.5364
  821MOL0     C10742   9.275   7.755   8.642 -0.5969 -0.1272 -0.2503
  821MOL0     C10743   9.392   7.660   8.679 -0.2710  0.5134  0.7184
  821MOL0    Cl10744   9.535   7.748   8.661  0.1169  0.0104 -0.1677
  821MOL0     C10745   8.672   8.011   7.908 -0.1662 -0.2632 -0.3373
  821MOL0     C10746   8.530   8.044   7.911  0.8063 -0.1890 -1.0532
  821MOL0     O10747   8.259   7.893   7.995 -0.2432 -0.4131  0.9250
  821MOL0     C10748   8.027   7.959   8.111 -0.3087  0.0377 -0.1557
  821MOL0     C10749   7.896   7.979   8.127  0.0271 -1.2756  0.0244
  821MOL0     N10750   7.291   7.889   7.999  0.1611 -0.5878  1.4312
  821MOL0     N10751   7.174   7.842   8.025 -0.3712 -0.6148 -0.1129
  821MOL0     C10752   6.152   7.409   7.384 -0.3776 -0.0211  0.0528
  821MOL0     C10753   6.046   7.404   7.293 -0.0039 -0.0865  0.3772
  821MOL0     C10754   5.738   7.455   6.996  0.5624  0.1958 -0.9602
  821MOL0     C10755   5.615   7.497   7.060  0.5176 -1.4556  0.1442
  821MOL0     C10756   5.491   7.494   6.997  0.2410  0.2206  1.6495
  821MOL0     C10757   5.488   7.447   6.862  0.2169 -0.3413  0.0817
  821MOL0     O10758   5.371   7.442   6.788  0.0653 -0.5728 -0.1695
  821MOL0     C10759   5.250   7.495   6.840  0.4401  0.2462  0.3559
  821MOL0     C10760   5.140   7.464   6.742  0.0792  0.0130  0.5281
  821MOL0     C10761   4.999   7.474   6.801  0.0158 -0.4766 -1.0488
  821MOL0     C10762   4.972   7.597   6.888 -0.8957  0.6217 -0.2944
  821MOL0     C10763   4.830   7.608   6.925  0.4475  0.0026  0.1050
  821MOL0     C10764   4.721   7.637   6.970  0.5509  0.4937 -0.0244
  821MOL0     C10765   5.608   7.398   6.808  0.4896 -0.9525 -0.0138
  821MOL0     C10766   5.731   7.401   6.866  0.1011  0.3063 -0.7415
  821MOL0     C10767   5.850   7.365   6.786 -0.2763  0.0239 -0.5422
  821MOL0     H10768   5.891   7.700   7.362 -0.7725  0.8636  1.8735
  821MOL0     H10769   6.064   7.695   7.547  3.1572  1.4677 -0.7630
  821MOL0     H10770   6.262   7.681   7.680 -0.3510 -0.3470  2.2399
  821MOL0     H10771   6.153   7.549   7.733 -2.7298  3.4018 -1.7228
  821MOL0     H10772   6.352   7.409   7.754  0.6024  0.1152 -1.8264
  821MOL0     H10773   6.315   7.532   7.869 -2.4688 -0.3441  0.1049
  821MOL0     H10774   6.495   7.682   7.777  1.8516 -0.6507  2.8092
  821MOL0     H10775   6.498   7.584   7.624  1.0989  2.3696  0.1968
  821MOL0     H10776   6.602   7.489   7.899  2.3969  1.5218  0.9637
  821MOL0     H10777   6.622   7.400   7.749  3.1256  0.3279  1.5129
  821MOL0     H10778   6.829   7.496   7.825 -1.8718 -1.8036 -2.4776
  821MOL0     H10779   6.775   7.592   7.676  0.7385 -0.4281 -0.5881
  821MOL0     H10780   6.706   7.783   7.813  0.0863  2.2164  0.5730
  821MOL0     H10781   6.725   7.698   7.962 -0.4410  0.5804 -0.6621
  821MOL0     H10782   6.896   7.855   7.921 -2.0965  0.9735 -0.6938
  821MOL0     H10783   6.941   7.775   7.764  0.4559  0.5553  0.6402
  821MOL0     H10784   6.975   7.665   8.050  0.0040  0.9923  0.2171
  821MOL0     H10785   7.032   7.583   7.906 -0.4818  0.4945 -0.8472
  821MOL0     H10786   7.211   7.684   7.752  1.6101 -2.6432  1.6309
  821MOL0     H10787   7.504   7.714   7.838  3.4266  0.6395 -1.3976
  821MOL0     H10788   7.444   7.813   7.706 -1.4047 -0.6576 -0.0252
  821MOL0     H10789   7.640   7.899   7.785  1.2306  0.9654  0.8895
  821MOL0     H10790   7.509   8.006   7.851  1.4535  0.8623  1.0619
  821MOL0     H10791   7.718   7.841   7.986  0.0848 -0.6933  0.3002
  821MOL0     H10792   7.557   7.797   8.052 -0.5621 -1.4123 -1.7199
  821MOL0     H10793   7.630   7.965   8.197 -1.6934 -1.2560 -0.5828
  821MOL0     H10794   7.506   8.038   8.090  0.6087  1.3672 -2.2212
  821MOL0     H10795   7.871   8.265   7.948 -1.2980 -0.0513  3.0302
  821MOL0     H10796   8.116   8.239   7.950 -0.0289  0.0029 -0.6613
  821MOL0     H10797   8.513   8.104   8.244  1.2828  0.0854  0.0567
  821MOL0     H10798   8.732   8.049   8.242  0.3772  0.6364 -0.8239
  821MOL0     H10799   8.994   8.130   7.953  0.8407  0.8482  0.5690
  821MOL0     H10800   8.941   8.166   8.125  1.3785  1.5397 -0.6945
  821MOL0     H10801   9.137   7.956   8.050 -1.6849 -0.5284 -0.7393
  821MOL0     H10802   9.164   8.118   8.122 -0.4851 -0.0283  1.1686
  821MOL0     H10803   9.001   8.024   8.309  0.2741 -1.3549  0.9405
  821MOL0     H10804   9.015   7.869   8.227 -0.2923  0.3562 -0.1707
  821MOL0     H10805   9.246   8.045   8.340  2.9585 -0.8183 -0.5455
  821MOL0     H10806   9.266   7.890   8.266  0.0769 -1.8914  3.0302
  821MOL0     H10807   9.099   7.795   8.440  0.4518 -0.6158  0.2494
  821MOL0     H10808   9.124   7.946   8.533  0.3848  0.0817 -0.0730
  821MOL0     H10809   9.359   7.764   8.442 -0.1768 -0.7896  0.8418
  821MOL0     H10810   9.362   7.914   8.537  0.3600 -0.4519 -0.4793
  821MOL0     H10811   9.182   7.699   8.629 -0.6695  0.0970 -0.7209
  821MOL0     H10812   9.255   7.821   8.726  0.5712 -0.4273  0.2904
  821MOL0     H10813   9.368   7.612   8.774 -1.9878 -0.8993 -0.3429
  821MOL0     H10814   9.386   7.581   8.603 -0.8390  0.5519  0.7166
  821MOL0     H10815   8.726   7.984   7.818  3.4210 -0.9044  1.8118
  821MOL0     H10816   8.476   8.046   7.817 -2.6754 -1.7126  0.7482
  821MOL0     H10817   8.076   7.868   8.144 -1.7330 -0.6422  0.1615
  821MOL0     H10818   7.828   7.913   8.181 -3.4891 -0.1768 -2.6093
  821MOL0     H10819   6.234   7.338   7.380 -1.2219 -1.2706  2.5964
  821MOL0     H10820   6.039   7.326   7.218  1.0383  0.7863 -0.6597
  821MOL0     H10821   5.618   7.543   7.159 -1.3483 -0.4359 -0.2368
  821MOL0     H10822   5.401   7.520   7.051 -2.1906 -1.0443 -1.4765
  821MOL0     H10823   5.257   7.601   6.865  1.1594 -0.4968  3.7208
  821MOL0     H10824   5.227   7.436   6.929 -4.4768 -0.4913 -1.1418
  821MOL0     H10825   5.151   7.363   6.702 -0.2544  0.2433 -0.1699
  821MOL0     H10826   5.135   7.532   6.656 -1.2317 -2.7379 -1.7133
  821MOL0     H10827   4.985   7.383   6.860  1.1217 -0.9229 -1.4516
  821MOL0     H10828   4.930   7.480   6.716 -2.3499  0.0745  0.8099
  821MOL0     H10829   5.028   7.603   6.982 -1.4196  1.9973 -0.0479
  821MOL0     H10830   4.993   7.692   6.839  1.4116  0.4379  0.2098
  821MOL0     H10831   4.622   7.657   7.008  0.6246  0.1008  0.3874
  821MOL0     H10832   5.592   7.355   6.709  1.4699  1.6683 -1.3986
  821MOL0     H10833   5.826   7.353   6.680  0.4853  0.1146 -0.7318
  821MOL0     H10834   5.924   7.444   6.773 -0.3504 -0.1505 -2.2056
  821MOL0     H10835   5.891   7.273   6.827 -2.6508  0.4406  3.3254
  822MOL0     O10836   3.818   3.232  11.154  1.0649 -0.8469 -0.1182
  822MOL0     C10837   3.766   3.247  11.271  0.0470  0.3874 -0.0077
  822MOL0     O10838   3.836   3.273  11.388  0.2293 -0.8173  0.8928
  822MOL0     C10839   3.970   3.304  11.382  0.0316  0.1174 -0.1038
  822MOL0     C10840   4.033   3.392  11.287  0.1357 -1.0321  0.1741
  822MOL0     C10841   4.166   3.411  11.278 -1.2280 -1.0865  0.4602
  822MOL0     C10842   4.253   3.338  11.365  0.3304 -0.2929 -0.0399
  822MOL0     O10843   4.388   3.368  11.368 -0.1176 -0.6113  0.0919
  822MOL0     C10844   4.451   3.377  11.505  1.0023  1.2098  0.3534
  822MOL0     C10845   4.561   3.466  11.491  0.0808 -0.1316  0.1143
  822MOL0     C10846   4.592   3.535  11.624 -0.4269  0.4467 -0.1689
  822MOL0     C10847   4.712   3.639  11.609 -1.2641  0.2171  0.6556
  822MOL0     C10848   4.765   3.703  11.743 -0.7229  0.7730 -0.4840
  822MOL0     C10849   4.844   3.836  11.715 -0.2388 -0.4813  0.6199
  822MOL0     C10850   4.896   3.907  11.835 -0.0527  0.3249 -0.8743
  822MOL0     C10851   5.001   3.830  11.910  0.4616  0.5831  0.4494
  822MOL0     N10852   5.060   3.903  12.016 -0.2363  0.6333  0.0083
  822MOL0     C10853   5.009   3.904  12.146 -0.7847  0.3688 -0.1545
  822MOL0     C10854   5.108   3.977  12.210 -0.5006 -0.2618 -0.6039
  822MOL0     C10855   5.114   4.024  12.357  1.4284 -0.1423  0.4042
  822MOL0     C10856   5.243   4.015  12.422  0.0882  0.8327 -0.8713
  822MOL0     C10857   5.280   3.860  12.449 -0.0937 -0.2173  0.5336
  822MOL0     C10858   5.434   3.831  12.486  0.9465 -0.0134  1.2275
  822MOL0     O10859   5.491   3.916  12.587  0.2597  0.6126  0.8220
  822MOL0     C10860   5.613   3.870  12.644  0.3668  0.6594  0.5321
  822MOL0     C10861   5.657   3.914  12.769  0.7670 -0.1817  0.5085
  822MOL0     C10862   5.777   3.862  12.825 -1.0437  1.0475  0.2514
  822MOL0     C10863   5.864   3.770  12.753  0.8770  0.8174  0.1823
  822MOL0     C10864   5.982   3.713  12.820 -0.1906 -0.1141 -0.5473
  822MOL0     O10865   6.020   3.764  12.941  0.0952  0.1480 -0.2674
  822MOL0     C10866   6.138   3.723  12.994 -1.2210  0.4996 -0.9320
  822MOL0     C10867   6.146   3.672  13.126 -0.0318 -0.7156 -0.4884
  822MOL0     C10868   6.272   3.619  13.172  0.3642 -0.2718 -1.1012
  822MOL0     C10869   6.390   3.634  13.095 -0.1953 -1.0942 -0.5294
  822MOL0     O10870   6.510   3.585  13.124  0.2595 -0.1510  0.5120
  822MOL0     C10871   6.553   3.575  13.263  0.3854  0.5520  1.0508
  822MOL0     C10872   6.555   3.702  13.337  0.4609  0.1963 -0.3984
  822MOL0     C10873   6.601   3.676  13.480 -0.0960  0.0822 -0.1745
  822MOL0     C10874   6.726   3.587  13.501  0.3440 -0.5800  0.4424
  822MOL0     C10875   6.790   3.595  13.644  0.9132  0.0469 -0.5797
  822MOL0     C10876   6.897   3.480  13.649  1.0784  0.0498  0.6067
  822MOL0     C10877   6.981   3.487  13.779  1.0819  0.2388 -0.2289
  822MOL0     C10878   7.036   3.623  13.823  0.1104 -0.0766 -0.3662
  822MOL0    Cl10879   7.113   3.693  13.676  0.2801 -0.2571 -0.0281
  822MOL0     C10880   6.375   3.694  12.970 -0.2847 -0.0549 -0.4401
  822MOL0     C10881   6.258   3.738  12.914  0.4405  1.2848 -0.1213
  822MOL0     O10882   6.046   3.629  12.757  0.7331  0.5241  0.0107
  822MOL0     C10883   5.819   3.734  12.631  0.4029 -0.3489  0.4221
  822MOL0     C10884   5.700   3.783  12.574  0.8082 -0.6212  0.6714
  822MOL0     N10885   5.200   4.031  12.118  0.6514  0.1958 -0.6069
  822MOL0     N10886   5.173   3.974  12.002 -0.6091 -0.1999 -0.6284
  822MOL0     C10887   4.199   3.239  11.455 -0.4657 -0.0606  0.4025
  822MOL0     C10888   4.058   3.230  11.467  0.7880 -0.6902 -0.1071
  822MOL0     C10889   3.620   3.227  11.289 -0.0316  0.2588 -0.5848
  822MOL0     C10890   3.567   3.211  11.422  0.1811  0.1940 -0.2979
  822MOL0     C10891   3.431   3.179  11.440  0.4460  0.8208 -0.4879
  822MOL0     C10892   3.335   3.172  11.337 -0.3543  0.2710 -0.6079
  822MOL0     O10893   3.209   3.146  11.369  0.4772 -0.2688  0.1479
  822MOL0     C10894   3.131   3.081  11.269 -0.0235  0.0443 -0.3638
  822MOL0     C10895   2.983   3.073  11.304  0.5536 -0.2273 -0.6548
  822MOL0     C10896   2.901   3.206  11.298 -0.0854 -0.6240 -0.1432
  822MOL0     C10897   2.752   3.178  11.344  0.2650 -0.0008 -0.0333
  822MOL0     C10898   2.672   3.290  11.305 -0.2352  0.1502  0.1657
  822MOL0     C10899   2.597   3.376  11.272 -0.2117 -0.2917 -0.2579
  822MOL0     C10900   3.389   3.200  11.211 -0.6209  0.4178  0.2469
  822MOL0     C10901   3.526   3.223  11.188 -0.5373  0.5333 -0.1473
  822MOL0     C10902   3.562   3.220  11.042  0.2602 -0.3645 -0.3216
  822MOL0     H10903   3.968   3.444  11.217  1.1812  0.6339  0.3793
  822MOL0     H10904   4.218   3.484  11.218 -0.0612 -1.9287  0.4231
  822MOL0     H10905   4.378   3.418  11.575  0.5224 -1.0737  1.3014
  822MOL0     H10906   4.481   3.279  11.544  1.1653  1.6632  1.3839
  822MOL0     H10907   4.531   3.534  11.412 -0.4267 -0.3741  0.0919
  822MOL0     H10908   4.651   3.414  11.456 -0.7674 -0.7523 -1.2315
  822MOL0     H10909   4.627   3.454  11.688  1.3935 -0.8490 -2.6362
  822MOL0     H10910   4.496   3.578  11.654 -0.6187  0.5442 -0.9057
  822MOL0     H10911   4.795   3.592  11.556 -0.8529 -0.2114  1.6456
  822MOL0     H10912   4.667   3.708  11.537 -1.8988 -2.5395 -1.7492
  822MOL0     H10913   4.682   3.716  11.813  1.7347 -4.3730  4.1156
  822MOL0     H10914   4.822   3.631  11.802 -2.8648  0.2020  1.0060
  822MOL0     H10915   4.925   3.820  11.644  2.4195  1.1338  3.0717
  822MOL0     H10916   4.770   3.902  11.669 -1.7053 -2.0808  0.5774
  822MOL0     H10917   4.812   3.924  11.902  0.8164  0.0948  0.3218
  822MOL0     H10918   4.937   4.002  11.798 -1.0398  0.8758 -0.5666
  822MOL0     H10919   4.966   3.735  11.950 -0.3534  0.8488  0.3837
  822MOL0     H10920   5.078   3.797  11.840 -0.0612  0.4076 -0.0518
  822MOL0     H10921   4.922   3.855  12.189  1.9126 -1.2914  4.1553
  822MOL0     H10922   5.080   4.128  12.354  2.7694  0.3350  0.9284
  822MOL0     H10923   5.043   3.964  12.415  2.6912 -3.3720 -1.1914
  822MOL0     H10924   5.321   4.073  12.371  0.9164  0.2729 -0.2727
  822MOL0     H10925   5.232   4.051  12.525 -2.5331  2.1127 -1.5080
  822MOL0     H10926   5.248   3.795  12.368  0.9815 -1.1899  0.8576
  822MOL0     H10927   5.224   3.827  12.537 -5.1257  2.7305 -1.1109
  822MOL0     H10928   5.483   3.848  12.390 -1.2068  1.3258  0.2663
  822MOL0     H10929   5.447   3.727  12.515  0.4074 -0.4259  0.0484
  822MOL0     H10930   5.593   3.981  12.826 -1.6060 -1.4092 -0.6071
  822MOL0     H10931   5.789   3.898  12.926 -0.1186  3.8082 -0.7458
  822MOL0     H10932   6.058   3.665  13.190  0.6816 -0.8471  0.5115
  822MOL0     H10933   6.272   3.583  13.275  2.2834  1.2797 -0.4888
  822MOL0     H10934   6.505   3.496  13.322  3.4361 -2.4195 -0.1507
  822MOL0     H10935   6.656   3.540  13.261 -0.0505 -0.8131  1.1063
  822MOL0     H10936   6.616   3.781  13.292 -0.3075  2.4703  2.3347
  822MOL0     H10937   6.458   3.750  13.347  0.5098  0.2750 -0.3050
  822MOL0     H10938   6.624   3.777  13.517 -0.4390 -0.7868  2.7146
  822MOL0     H10939   6.524   3.635  13.546  0.8324  2.5209  2.6960
  822MOL0     H10940   6.803   3.612  13.426  1.0179  2.0613  1.8985
  822MOL0     H10941   6.686   3.489  13.476  0.2208 -0.3565 -0.2690
  822MOL0     H10942   6.726   3.568  13.728  0.7693  0.2281 -0.6296
  822MOL0     H10943   6.847   3.686  13.662 -0.8154  0.4471  3.9819
  822MOL0     H10944   6.835   3.390  13.650  0.9052  0.0488 -2.2736
  822MOL0     H10945   6.968   3.477  13.566  0.6904  0.2320  0.2643
  822MOL0     H10946   7.068   3.421  13.771 -0.3332 -1.9353  0.9108
  822MOL0     H10947   6.921   3.450  13.864  1.4125  0.8437  0.2711
  822MOL0     H10948   6.953   3.683  13.862  0.7832  1.6794 -1.5161
  822MOL0     H10949   7.106   3.599  13.903 -0.1341 -1.5429 -0.5522
  822MOL0     H10950   6.466   3.724  12.919 -0.8422  3.4465  0.3738
  822MOL0     H10951   6.268   3.780  12.814  2.3435  1.8993  0.2803
  822MOL0     H10952   5.874   3.663  12.571  1.8521  0.2167  1.0203
  822MOL0     H10953   5.685   3.758  12.469  5.3150  2.6481 -1.0478
  822MOL0     H10954   4.268   3.175  11.510  0.7971  2.2180  1.5952
  822MOL0     H10955   4.021   3.157  11.538  1.6820  0.3497  1.4975
  822MOL0     H10956   3.631   3.223  11.509  2.1904  1.4670 -1.8536
  822MOL0     H10957   3.407   3.175  11.546  1.9019  4.6245  0.1680
  822MOL0     H10958   3.178   2.983  11.275 -0.2829 -0.1537 -1.4324
  822MOL0     H10959   3.136   3.129  11.171 -2.2773  1.4371  0.1140
  822MOL0     H10960   2.980   3.039  11.408  3.4467 -1.1742 -0.7899
  822MOL0     H10961   2.933   2.990  11.253  1.0230  0.6838 -2.7300
  822MOL0     H10962   2.903   3.255  11.201 -0.5089  3.1814  1.5853
  822MOL0     H10963   2.953   3.267  11.372 -2.9190  1.1694  0.5143
  822MOL0     H10964   2.727   3.081  11.300 -3.4009  1.1696 -0.8717
  822MOL0     H10965   2.742   3.177  11.452  1.7679  0.8375  0.1548
  822MOL0     H10966   2.524   3.452  11.254 -2.6601 -2.6082 -0.7784
  822MOL0     H10967   3.330   3.198  11.120  0.8204  1.1141 -0.7439
  822MOL0     H10968   3.652   3.165  11.012 -1.2048 -1.9551 -2.0163
  822MOL0     H10969   3.478   3.177  10.987 -0.3767 -0.5720  0.7698
  822MOL0     H10970   3.570   3.323  11.007  0.0529 -0.1448  0.2626
  823MOL0     O10971  10.823   8.867   8.093  0.1484 -0.5296 -0.6623
  823MOL0     C10972  10.781   8.785   8.172  0.4508 -0.2239  0.5217
  823MOL0     O10973  10.850   8.679   8.219  0.0264 -0.1822 -0.1895
  823MOL0     C10974  10.993   8.669   8.209  0.2448  0.1582  0.2317
  823MOL0     C10975  11.076   8.783   8.198 -0.2191  0.0054 -0.0137
  823MOL0     C10976  11.213   8.771   8.174 -0.7143 -0.0514  0.1891
  823MOL0     C10977  11.271   8.639   8.170 -0.0910 -0.0851 -0.0890
  823MOL0     O10978  11.405   8.619   8.157  0.3137 -0.5213 -0.3169
  823MOL0     C10979  11.434   8.600   8.018  0.5899 -0.0792  0.0293
  823MOL0     C10980  11.592   8.612   8.004  0.5728  0.0770  0.0503
  823MOL0     C10981  11.614   8.586   7.858 -0.2877  0.1093  0.2485
  823MOL0     C10982  11.770   8.581   7.834  0.1774  0.4448 -0.4196
  823MOL0     C10983  11.837   8.454   7.887  0.4753 -0.4487  0.3716
  823MOL0     C10984  11.991   8.434   7.881  0.1617  0.3664  0.1669
  823MOL0     C10985  12.065   8.560   7.930  0.6589 -0.4116 -0.1887
  823MOL0     C10986  12.072   8.593   8.076 -0.7725 -0.7985 -0.3620
  823MOL0     N10987  12.119   8.484   8.158 -0.5536 -0.0410 -0.2478
  823MOL0     C10988  12.078   8.457   8.282  0.1389 -0.1052  0.0391
  823MOL0     C10989  12.152   8.348   8.320 -0.6948 -0.6808  0.0015
  823MOL0     C10990  12.137   8.275   8.443  0.5391  0.5330 -0.1461
  823MOL0     C10991  12.033   8.169   8.426 -0.1662  0.8341 -0.0090
  823MOL0     C10992  11.992   8.104   8.559 -0.5416  0.3368 -0.3988
  823MOL0     C10993  12.111   8.028   8.634  0.3825  0.1536  0.1348
  823MOL0     O10994  12.162   7.920   8.551  1.0256 -0.3237 -0.1369
  823MOL0     C10995  12.279   7.867   8.577 -0.9533  0.2680 -0.0367
  823MOL0     C10996  12.330   7.768   8.490  0.9526  0.5269 -0.0431
  823MOL0     C10997  12.446   7.701   8.510  0.0680  1.3332  0.0961
  823MOL0     C10998  12.522   7.726   8.625  0.4083  0.4335  0.3746
  823MOL0     C10999  12.648   7.665   8.645 -0.6092  0.7964 -0.7705
  823MOL0     O11000  12.700   7.676   8.775 -0.1798  0.5889 -0.0149
  823MOL0     C11001  12.834   7.638   8.789  0.0181 -0.0403 -0.4888
  823MOL0     C11002  12.870   7.538   8.885 -0.2528  0.7165 -0.4430
  823MOL0     C11003  12.997   7.509   8.915  0.0214 -0.4198 -0.0760
  823MOL0     C11004  13.101   7.565   8.837  0.0305  0.1137  0.2778
  823MOL0     O11005  13.238   7.540   8.860  0.0056 -0.0955 -0.8475
  823MOL0     C11006  13.277   7.459   8.972 -0.3188  0.3794 -0.3134
  823MOL0     C11007  13.428   7.441   8.969  0.2044 -0.7339 -1.0212
  823MOL0     C11008  13.467   7.387   9.111  0.5273  0.1665 -0.0739
  823MOL0     C11009  13.565   7.269   9.106 -0.2040  0.6024 -0.7091
  823MOL0     C11010  13.618   7.237   9.250 -1.0557 -1.3541 -0.7629
  823MOL0     C11011  13.672   7.096   9.251  0.0640 -0.1626 -0.0050
  823MOL0     C11012  13.770   7.067   9.363 -1.3647  0.6624 -0.6802
  823MOL0     C11013  13.706   7.084   9.503 -0.4253  0.8241 -0.4981
  823MOL0    Cl11014  13.735   7.244   9.577  0.1230 -0.1036 -0.5648
  823MOL0     C11015  13.073   7.658   8.737  0.4296 -0.0078 -1.1233
  823MOL0     C11016  12.934   7.689   8.712 -0.6741 -0.3945 -0.2442
  823MOL0     O11017  12.709   7.613   8.553 -0.6601 -0.6995  0.1858
  823MOL0     C11018  12.480   7.826   8.715 -0.4703  0.0710 -0.2307
  823MOL0     C11019  12.364   7.895   8.687 -0.3320 -0.1972  0.6715
  823MOL0     N11020  12.256   8.333   8.232 -0.5336 -0.1488 -0.9427
  823MOL0     N11021  12.230   8.415   8.137 -1.2135  0.6404 -0.2348
  823MOL0     C11022  11.186   8.531   8.180 -0.6229  0.6861 -0.6328
  823MOL0     C11023  11.053   8.536   8.208  0.9211 -0.8111 -0.3598
  823MOL0     C11024  10.638   8.810   8.208  0.0029 -0.5127 -0.3630
  823MOL0     C11025  10.570   8.913   8.138  0.5172  0.1565  0.0053
  823MOL0     C11026  10.429   8.933   8.144 -0.5664  0.6803  0.3805
  823MOL0     C11027  10.356   8.859   8.228 -0.1507  0.5855 -0.3041
  823MOL0     O11028  10.223   8.889   8.245 -0.3019  0.5891  0.5759
  823MOL0     C11029  10.128   8.788   8.240  0.5225  0.2248  0.2725
  823MOL0     C11030  10.051   8.778   8.369 -0.1614  0.7190  0.9683
  823MOL0     C11031   9.949   8.894   8.377  1.0825 -0.3043 -0.1911
  823MOL0     C11032   9.850   8.893   8.498  0.2577 -0.5953  0.1688
  823MOL0     C11033   9.738   8.801   8.476 -0.5412 -0.3538  0.1974
  823MOL0     C11034   9.642   8.717   8.468 -0.9084 -0.5338 -0.4490
  823MOL0     C11035  10.423   8.758   8.311 -0.4883 -0.7667  1.1407
  823MOL0     C11036  10.553   8.722   8.288  0.1224  0.4620 -0.1543
  823MOL0     C11037  10.602   8.598   8.360 -0.0974 -0.1162  0.2172
  823MOL0     H11038  11.038   8.884   8.213 -1.1117 -0.1921 -0.8397
  823MOL0     H11039  11.279   8.856   8.162 -0.1498 -0.7116 -1.8049
  823MOL0     H11040  11.408   8.499   7.987 -1.9625  0.4403  0.2965
  823MOL0     H11041  11.379   8.675   7.961  0.6244 -1.2072 -1.5567
  823MOL0     H11042  11.637   8.538   8.071  1.6901 -0.8244 -1.6301
  823MOL0     H11043  11.621   8.714   8.032 -1.0448  0.6934 -0.3727
  823MOL0     H11044  11.563   8.659   7.795 -2.0777 -0.3633  1.0949
  823MOL0     H11045  11.579   8.485   7.835 -0.6982 -0.0095  1.3722
  823MOL0     H11046  11.799   8.581   7.729 -2.7698 -2.1416 -1.3958
  823MOL0     H11047  11.813   8.667   7.887 -0.3675  1.1388 -1.0799
  823MOL0     H11048  11.807   8.451   7.993 -1.8792 -1.0581 -0.2679
  823MOL0     H11049  11.798   8.366   7.835  1.0934 -1.9171  2.2497
  823MOL0     H11050  12.025   8.346   7.936  0.3779  0.2999 -0.0701
  823MOL0     H11051  12.025   8.421   7.778 -1.0090  2.3531 -0.5280
  823MOL0     H11052  12.022   8.649   7.882  1.6486 -0.0387 -0.4023
  823MOL0     H11053  12.168   8.540   7.900  0.7979 -1.1101  0.7310
  823MOL0     H11054  12.141   8.678   8.084  1.3617 -2.4350 -0.5674
  823MOL0     H11055  11.980   8.633   8.118  0.5002  1.0637  0.8151
  823MOL0     H11056  11.990   8.494   8.335 -0.8594 -3.0584  0.6337
  823MOL0     H11057  12.235   8.244   8.479 -0.0342  1.2446  2.2443
  823MOL0     H11058  12.083   8.332   8.520 -1.0094  0.0183 -0.8203
  823MOL0     H11059  11.946   8.209   8.372 -0.1444  1.1922  0.2157
  823MOL0     H11060  12.061   8.089   8.357 -0.5878  0.8193 -0.1620
  823MOL0     H11061  11.912   8.033   8.536 -1.8290  1.5681  0.0866
  823MOL0     H11062  11.949   8.184   8.621 -1.4359  0.9633 -1.7797
  823MOL0     H11063  12.072   7.979   8.724 -3.0142 -1.0715 -1.8110
  823MOL0     H11064  12.186   8.100   8.667  0.0800  0.0526  1.0792
  823MOL0     H11065  12.273   7.750   8.400  1.6996 -3.7552  0.1398
  823MOL0     H11066  12.497   7.652   8.428  2.0881  1.8938  0.9392
  823MOL0     H11067  12.781   7.496   8.931  0.0658  0.8724  0.3302
  823MOL0     H11068  13.011   7.432   8.990  0.3828  1.0238  1.4058
  823MOL0     H11069  13.238   7.510   9.061 -0.0879 -1.2810  0.7736
  823MOL0     H11070  13.226   7.364   8.957 -1.5184  0.7040  1.3729
  823MOL0     H11071  13.474   7.376   8.895 -2.0417 -0.6457 -2.6096
  823MOL0     H11072  13.476   7.538   8.959 -1.1211 -0.1402 -1.9481
  823MOL0     H11073  13.506   7.468   9.173 -2.4357  1.3677  0.4210
  823MOL0     H11074  13.374   7.355   9.160 -1.3404 -0.3664 -3.6147
  823MOL0     H11075  13.644   7.303   9.039 -0.7181  1.0632 -1.0957
  823MOL0     H11076  13.505   7.180   9.086 -1.0806  0.4523  2.1982
  823MOL0     H11077  13.534   7.245   9.321 -0.5851  1.5248 -0.3820
  823MOL0     H11078  13.692   7.308   9.287 -2.7346 -0.4818  1.1350
  823MOL0     H11079  13.589   7.024   9.248  0.0709 -0.2832  1.5629
  823MOL0     H11080  13.720   7.071   9.156 -2.0695 -4.0854 -0.2960
  823MOL0     H11081  13.849   7.139   9.342 -2.5552  1.9264 -1.0200
  823MOL0     H11082  13.815   6.968   9.352 -3.4171 -0.4641  0.4418
  823MOL0     H11083  13.598   7.068   9.505 -0.3640  0.3739  1.1134
  823MOL0     H11084  13.747   7.012   9.575 -2.8751 -0.1345  0.0655
  823MOL0     H11085  13.160   7.703   8.690  1.6295 -0.1961  0.7833
  823MOL0     H11086  12.907   7.767   8.642 -0.2872  0.8376  0.9404
  823MOL0     H11087  12.538   7.858   8.801 -0.6838 -0.9071  0.2880
  823MOL0     H11088  12.330   7.967   8.761 -1.0959  0.7572 -0.5896
  823MOL0     H11089  11.224   8.429   8.184 -0.7750  0.6588  0.3172
  823MOL0     H11090  10.991   8.447   8.219  2.5858 -2.1481 -1.3917
  823MOL0     H11091  10.625   8.992   8.088  2.5457 -1.6444 -0.7653
  823MOL0     H11092  10.379   9.002   8.077 -1.7268 -0.3230  0.1910
  823MOL0     H11093  10.176   8.691   8.224 -0.6838 -0.2493 -0.6473
  823MOL0     H11094  10.064   8.805   8.152  4.0690 -2.2035 -3.1285
  823MOL0     H11095  10.128   8.770   8.446  2.3636  0.2686 -1.4751
  823MOL0     H11096  10.001   8.681   8.370  0.2482  0.4105 -1.5580
  823MOL0     H11097   9.885   8.897   8.289 -1.0815  0.2267  1.3136
  823MOL0     H11098   9.997   8.992   8.368 -1.1034  0.7196 -1.1719
  823MOL0     H11099   9.897   8.871   8.594 -1.4216 -1.0727  0.9227
  823MOL0     H11100   9.819   8.997   8.504  2.8100  0.1772  0.9719
  823MOL0     H11101   9.562   8.647   8.456 -0.4493 -1.1788  0.1551
  823MOL0     H11102  10.356   8.698   8.373  0.3157 -2.2360  0.6242
  823MOL0     H11103  10.678   8.616   8.436 -2.1521  1.5585  2.0154
  823MOL0     H11104  10.516   8.559   8.416 -0.9790  2.5934  0.9328
  823MOL0     H11105  10.642   8.525   8.289  0.1975 -1.0008  1.2765
  824MOL0     O11106   0.083   6.668  10.068  0.3323  0.3413  0.7891
  824MOL0     C11107  -0.036   6.655  10.071 -0.6439 -0.2791 -1.0514
  824MOL0     O11108  -0.115   6.723  10.161  0.5851 -0.5974  0.2226
  824MOL0     C11109  -0.065   6.798  10.262  0.4966  0.3474  0.1416
  824MOL0     C11110  -0.146   6.789  10.389  0.2303 -0.1674  0.3858
  824MOL0     C11111  -0.116   6.875  10.498 -0.6232  0.4358  0.2619
  824MOL0     C11112   0.004   6.943  10.509 -0.7220  0.2772  0.6859
  824MOL0     O11113   0.037   7.016  10.624  0.5480 -0.3011  0.1179
  824MOL0     C11114   0.040   6.946  10.741 -0.2479 -0.1359 -0.7279
  824MOL0     C11115   0.128   7.027  10.832 -0.1184 -0.4186 -0.1385
  824MOL0     C11116   0.269   7.073  10.778 -0.0861  0.6494  0.4604
  824MOL0     C11117   0.354   6.963  10.713  0.2133  0.7730 -0.0143
  824MOL0     C11118   0.491   7.001  10.665 -1.0907  0.6290  1.0316
  824MOL0     C11119   0.573   6.874  10.608 -0.1962  0.1283 -0.7450
  824MOL0     C11120   0.721   6.897  10.590  0.9827 -0.0120 -1.0411
  824MOL0     C11121   0.800   6.847  10.712  0.2517  0.4010  0.6125
  824MOL0     N11122   0.789   6.702  10.727 -0.2657 -0.3214  0.1195
  824MOL0     C11123   0.849   6.596  10.644  0.4413  0.6603  0.4231
  824MOL0     C11124   0.820   6.478  10.710  0.1244 -0.6021  0.9765
  824MOL0     C11125   0.866   6.348  10.651 -0.6131  0.0479  0.0666
  824MOL0     C11126   1.013   6.318  10.682  0.1306 -0.1648  0.0034
  824MOL0     C11127   1.125   6.399  10.606  0.5262 -0.1070 -1.1668
  824MOL0     C11128   1.134   6.370  10.452 -0.2784 -0.1598  0.5487
  824MOL0     O11129   1.189   6.240  10.427  0.1589 -0.2457 -0.4854
  824MOL0     C11130   1.325   6.223  10.446 -0.1088 -0.8700 -0.9143
  824MOL0     C11131   1.368   6.093  10.465  0.1501  0.3438 -0.2082
  824MOL0     C11132   1.498   6.058  10.482 -0.1654 -0.5450  0.0582
  824MOL0     C11133   1.592   6.164  10.487 -0.8803  0.3779  0.5075
  824MOL0     C11134   1.741   6.139  10.520  0.3682 -0.5530 -0.3642
  824MOL0     O11135   1.763   6.020  10.574 -0.0437 -0.7359 -0.3647
  824MOL0     C11136   1.886   5.975  10.613 -0.2119 -0.7789 -0.2881
  824MOL0     C11137   2.008   6.025  10.565  1.1185 -0.0830  0.1143
  824MOL0     C11138   2.125   5.988  10.627  0.7998 -0.6105 -0.1719
  824MOL0     C11139   2.128   5.896  10.729  0.4738 -0.2096 -0.6234
  824MOL0     O11140   2.239   5.860  10.799 -0.0626 -0.2817  0.3630
  824MOL0     C11141   2.307   5.740  10.764  0.1597  0.9466  0.3347
  824MOL0     C11142   2.361   5.749  10.620  0.5980  0.2398  0.0158
  824MOL0     C11143   2.480   5.844  10.592  0.1860 -1.2196 -0.5338
  824MOL0     C11144   2.607   5.824  10.670 -0.0034 -0.9500  0.0655
  824MOL0     C11145   2.718   5.924  10.639 -0.5253 -0.2800  0.1954
  824MOL0     C11146   2.767   5.910  10.493  1.1441 -0.3196  0.7713
  824MOL0     C11147   2.877   6.015  10.473 -0.2215  0.1896 -1.0468
  824MOL0     C11148   2.969   5.985  10.355  0.5404 -0.1946  0.9105
  824MOL0    Cl11149   3.061   5.827  10.376  0.8511 -0.2831 -0.0113
  824MOL0     C11150   2.011   5.851  10.772  0.3399 -0.4900 -0.3848
  824MOL0     C11151   1.889   5.888  10.721  1.6930  0.1117 -0.4902
  824MOL0     O11152   1.818   6.234  10.511  0.1959  0.4827  0.2495
  824MOL0     C11153   1.549   6.295  10.461  0.7046 -0.7456  0.4188
  824MOL0     C11154   1.419   6.330  10.443  0.4370  0.2595  0.8618
  824MOL0     N11155   0.763   6.505  10.827  0.1908 -0.1066 -0.7634
  824MOL0     N11156   0.735   6.635  10.830 -0.0119  0.8507 -0.3826
  824MOL0     C11157   0.083   6.952  10.394 -1.3690 -0.5720 -0.1033
  824MOL0     C11158   0.053   6.877  10.269 -0.3541  0.1066  0.4457
  824MOL0     C11159  -0.102   6.559   9.979 -0.0122 -0.3014  0.1227
  824MOL0     C11160  -0.237   6.593   9.949  0.0268 -0.7938  0.4579
  824MOL0     C11161  -0.310   6.510   9.862  0.0236 -0.5947 -0.1175
  824MOL0     C11162  -0.249   6.404   9.786  0.3545 -1.2079 -0.9801
  824MOL0     O11163  -0.313   6.322   9.695 -0.6286  0.2247  0.6569
  824MOL0     C11164  -0.435   6.356   9.634  0.5336 -0.8572 -0.2289
  824MOL0     C11165  -0.451   6.270   9.515  0.0429  0.0162  0.1927
  824MOL0     C11166  -0.588   6.300   9.451  0.4634  0.1728  0.3536
  824MOL0     C11167  -0.598   6.246   9.310  0.1976  0.0614 -1.1344
  824MOL0     C11168  -0.559   6.104   9.289  0.5998 -0.3250 -0.3810
  824MOL0     C11169  -0.529   5.985   9.288 -0.3668  0.3669  1.0462
  824MOL0     C11170  -0.115   6.373   9.816  0.0016  0.1639 -0.2585
  824MOL0     C11171  -0.044   6.446   9.913 -0.1408 -0.1112 -0.1545
  824MOL0     C11172   0.092   6.396   9.947 -0.8038 -1.0104 -0.6640
  824MOL0     H11173  -0.237   6.731  10.395  1.1535 -2.3181 -3.4535
  824MOL0     H11174  -0.184   6.854  10.580 -3.4195 -2.0402 -2.4049
  824MOL0     H11175  -0.063   6.947  10.777 -0.2012  2.3974 -0.5002
  824MOL0     H11176   0.077   6.844  10.731 -1.7867 -0.5906 -2.0900
  824MOL0     H11177   0.140   6.963  10.920 -3.4881  0.2315  0.9166
  824MOL0     H11178   0.074   7.119  10.857  0.5483  0.2509 -1.0923
  824MOL0     H11179   0.321   7.102  10.869  0.3951  0.2622  0.3166
  824MOL0     H11180   0.250   7.164  10.721  0.5738  1.5090  1.5905
  824MOL0     H11181   0.344   6.874  10.777  2.0197  1.9966  2.1093
  824MOL0     H11182   0.303   6.946  10.618  0.8069 -0.5262 -0.1286
  824MOL0     H11183   0.494   7.070  10.580 -0.2655 -0.4153  0.1741
  824MOL0     H11184   0.542   7.044  10.752 -1.8899  4.0899 -0.0312
  824MOL0     H11185   0.545   6.794  10.677  0.7276 -1.0068 -1.6589
  824MOL0     H11186   0.535   6.831  10.515  4.0844 -2.7420 -1.4127
  824MOL0     H11187   0.742   7.004  10.587  1.1994 -0.0431 -0.6949
  824MOL0     H11188   0.747   6.845  10.497 -2.5147 -1.0501 -1.5903
  824MOL0     H11189   0.908   6.861  10.700  0.0342  1.5917 -0.0955
  824MOL0     H11190   0.777   6.906  10.802  1.2569  2.9840 -0.7266
  824MOL0     H11191   0.893   6.607  10.546 -2.0779  1.9280 -0.6499
  824MOL0     H11192   0.819   6.258  10.693  0.6374  0.0524  1.5867
  824MOL0     H11193   0.848   6.354  10.544 -1.3853 -2.9099 -0.0434
  824MOL0     H11194   1.029   6.343  10.788 -2.7277  0.3929  0.3872
  824MOL0     H11195   1.035   6.211  10.668  1.2110  0.1526 -0.8220
  824MOL0     H11196   1.219   6.377  10.657 -0.7692  0.5366  1.6878
  824MOL0     H11197   1.124   6.507  10.624 -0.7848 -0.6089  2.5894
  824MOL0     H11198   1.188   6.449  10.400 -0.5323 -0.6123 -0.4325
  824MOL0     H11199   1.037   6.365  10.402  0.4881  0.6317 -1.0675
  824MOL0     H11200   1.296   6.013  10.460  1.1716 -0.7197  1.2483
  824MOL0     H11201   1.529   5.958  10.509  2.8605  0.5642  1.1380
  824MOL0     H11202   2.012   6.090  10.477  0.8038 -0.2510 -0.0260
  824MOL0     H11203   2.220   6.036  10.605  0.6088 -1.2809 -2.8040
  824MOL0     H11204   2.400   5.726  10.819  0.1905  0.4887  0.1643
  824MOL0     H11205   2.241   5.656  10.786 -0.5719  1.4823  0.2483
  824MOL0     H11206   2.381   5.646  10.589 -2.8034 -0.3456 -0.6602
  824MOL0     H11207   2.280   5.782  10.554  1.6680  3.2064  0.0175
  824MOL0     H11208   2.503   5.832  10.486 -0.8793  2.7356 -1.4080
  824MOL0     H11209   2.456   5.951  10.601  2.0762 -0.7398 -0.8343
  824MOL0     H11210   2.655   5.728  10.650  0.9537 -1.4249  3.9312
  824MOL0     H11211   2.587   5.818  10.777  2.8112 -1.1743  0.6545
  824MOL0     H11212   2.799   5.911  10.712 -0.5555 -2.4653 -0.0841
  824MOL0     H11213   2.689   6.027  10.662  0.4103 -0.5123  2.8151
  824MOL0     H11214   2.796   5.805  10.479  0.3656 -0.1602 -3.2676
  824MOL0     H11215   2.691   5.934  10.418  1.7547  2.3731  0.9135
  824MOL0     H11216   2.937   6.011  10.564 -2.1913  1.7609  0.4066
  824MOL0     H11217   2.832   6.114  10.461  0.5016  0.5041 -1.2685
  824MOL0     H11218   2.915   5.988  10.260  2.1353  1.6629 -0.0282
  824MOL0     H11219   3.044   6.063  10.335 -1.8840  1.6869 -1.7126
  824MOL0     H11220   2.009   5.773  10.848  0.8741  1.0423  1.2726
  824MOL0     H11221   1.792   5.857  10.758  2.0930 -0.8236 -0.2033
  824MOL0     H11222   1.621   6.376  10.453 -1.3846  1.2420  0.8697
  824MOL0     H11223   1.397   6.432  10.412 -0.8142 -0.1135  0.4920
  824MOL0     H11224   0.168   7.019  10.402 -1.5043 -0.6472  3.4783
  824MOL0     H11225   0.127   6.894  10.191 -2.0619  2.5724 -0.7812
  824MOL0     H11226  -0.284   6.678   9.997  0.5004 -1.9017  3.0019
  824MOL0     H11227  -0.416   6.532   9.849  0.1614  0.3789  0.3556
  824MOL0     H11228  -0.424   6.457   9.592 -0.1504 -0.0977  1.3310
  824MOL0     H11229  -0.519   6.363   9.704 -1.8041  1.4152 -3.0246
  824MOL0     H11230  -0.447   6.165   9.547  2.9700 -0.0808 -0.2628
  824MOL0     H11231  -0.364   6.288   9.451  1.1977  1.1485  2.0017
  824MOL0     H11232  -0.609   6.407   9.450  0.7660  0.3282 -3.4163
  824MOL0     H11233  -0.672   6.252   9.500  2.1335 -0.9626  2.2582
  824MOL0     H11234  -0.701   6.261   9.276  0.2420  0.0592 -1.2657
  824MOL0     H11235  -0.529   6.301   9.246  2.6328  0.9114  1.9675
  824MOL0     H11236  -0.485   5.888   9.276  0.6265  0.7358  1.6495
  824MOL0     H11237  -0.076   6.293   9.754  2.3852  2.1783 -1.5657
  824MOL0     H11238   0.102   6.350  10.045  0.9790 -1.1055 -0.8623
  824MOL0     H11239   0.127   6.322   9.874  0.4984 -0.3819 -0.7062
  824MOL0     H11240   0.158   6.482   9.931 -0.5561 -0.7862  1.3170
  825MOL0     O11241   4.259   6.272  11.094  0.6874  0.1183 -0.5003
  825MOL0     C11242   4.243   6.173  11.020 -0.4432  0.3001 -0.0841
  825MOL0     O11243   4.344   6.101  10.960 -0.0930 -0.8651  0.3907
  825MOL0     C11244   4.477   6.122  10.982  0.0479 -0.4372  0.0593
  825MOL0     C11245   4.536   6.163  11.104 -0.2916  1.9357 -0.2233
  825MOL0     C11246   4.675   6.166  11.116 -0.6378 -0.8788  0.3878
  825MOL0     C11247   4.761   6.125  11.014 -0.7057  0.0850  0.1838
  825MOL0     O11248   4.899   6.127  11.050  0.8349 -0.3387  0.6068
  825MOL0     C11249   4.999   6.160  10.949  0.1507 -0.0057  0.2109
  825MOL0     C11250   4.992   6.311  10.914  0.5785 -0.0195 -0.0622
  825MOL0     C11251   4.988   6.398  11.037  0.1191  0.5870  0.3656
  825MOL0     C11252   5.126   6.405  11.111 -0.3230  0.2559  0.7741
  825MOL0     C11253   5.127   6.523  11.208 -0.0741 -0.4273 -0.3990
  825MOL0     C11254   5.248   6.561  11.292  0.2815  0.5812  0.5877
  825MOL0     C11255   5.383   6.541  11.219  0.5537  0.3582  1.5350
  825MOL0     C11256   5.452   6.409  11.258  1.2235 -0.8381 -0.1179
  825MOL0     N11257   5.582   6.387  11.192 -0.3826  0.5268  0.4429
  825MOL0     C11258   5.634   6.454  11.084  0.2874 -1.7081  0.0840
  825MOL0     C11259   5.755   6.402  11.055 -0.0675 -0.2195  0.5690
  825MOL0     C11260   5.851   6.453  10.945  0.2572  0.3339 -1.0404
  825MOL0     C11261   5.874   6.339  10.848 -0.4026  0.5454  0.3077
  825MOL0     C11262   5.940   6.393  10.719 -0.3513  0.0121  0.5081
  825MOL0     C11263   6.081   6.448  10.751  0.0755  1.0385  0.1944
  825MOL0     O11264   6.151   6.479  10.634  0.5597 -1.0941 -0.2121
  825MOL0     C11265   6.277   6.546  10.646 -0.5077  1.1748 -0.3586
  825MOL0     C11266   6.349   6.557  10.527  0.3202 -0.6035  0.6434
  825MOL0     C11267   6.471   6.625  10.516  0.4219  0.3560 -1.1018
  825MOL0     C11268   6.543   6.659  10.636  0.1679 -0.3600  0.7000
  825MOL0     C11269   6.683   6.695  10.627  0.2793 -0.1884  0.3274
  825MOL0     O11270   6.736   6.747  10.735  0.8497 -0.7179 -0.4117
  825MOL0     C11271   6.867   6.778  10.744 -0.2058 -0.3820 -0.2628
  825MOL0     C11272   6.969   6.708  10.688 -0.8840  0.0971  0.5612
  825MOL0     C11273   7.108   6.746  10.693 -0.1773  0.7305  0.7236
  825MOL0     C11274   7.132   6.862  10.763  1.3740  0.3067  0.1330
  825MOL0     O11275   7.262   6.902  10.772  0.0421 -0.0535 -0.2541
  825MOL0     C11276   7.339   6.800  10.845 -0.8287 -0.1959  0.3965
  825MOL0     C11277   7.483   6.833  10.870  0.8058  0.1335  0.7719
  825MOL0     C11278   7.508   6.949  10.957  0.3802 -0.3259  0.0193
  825MOL0     C11279   7.652   6.992  10.959  0.6458  1.1535  0.6066
  825MOL0     C11280   7.682   7.142  10.982 -0.9192  0.7375  0.3280
  825MOL0     C11281   7.654   7.178  11.128  0.2835 -0.1110 -0.1451
  825MOL0     C11282   7.687   7.325  11.138 -0.2071  0.1401  0.7772
  825MOL0     C11283   7.691   7.372  11.282  0.6115  0.9096 -0.5339
  825MOL0    Cl11284   7.842   7.306  11.352 -0.1064  0.0286 -0.0706
  825MOL0     C11285   7.035   6.936  10.815  0.4886 -0.4603 -0.0075
  825MOL0     C11286   6.902   6.892  10.810 -0.5290  0.1066 -0.4304
  825MOL0     O11287   6.740   6.680  10.516  0.3428 -0.7369  0.6948
  825MOL0     C11288   6.479   6.638  10.761 -0.1737  0.8212  0.2440
  825MOL0     C11289   6.350   6.587  10.761  0.4256 -1.0654 -0.0644
  825MOL0     N11290   5.770   6.292  11.138  0.5060 -0.1302 -0.6286
  825MOL0     N11291   5.671   6.286  11.219  0.2352 -0.3921  0.3960
  825MOL0     C11292   4.700   6.103  10.888 -0.0084 -0.2527  0.8856
  825MOL0     C11293   4.560   6.109  10.865 -0.5363  0.2591 -0.4168
  825MOL0     C11294   4.108   6.144  10.984  0.4627  0.1810 -0.1680
  825MOL0     C11295   4.013   6.146  11.077 -0.0729  0.4996 -0.7753
  825MOL0     C11296   3.883   6.111  11.052  0.6525  0.0939 -0.7540
  825MOL0     C11297   3.847   6.063  10.922  0.2890 -1.1505 -0.0695
  825MOL0     O11298   3.732   5.994  10.900 -0.2387 -0.1479  0.4341
  825MOL0     C11299   3.616   6.066  10.934  1.0930 -0.3445  0.2531
  825MOL0     C11300   3.549   6.113  10.803 -0.2899 -0.7938 -0.3632
  825MOL0     C11301   3.633   6.217  10.723 -0.0338 -1.2976 -0.0149
  825MOL0     C11302   3.558   6.279  10.598 -0.2120 -0.6347 -0.4724
  825MOL0     C11303   3.504   6.408  10.642 -1.6282 -0.2818 -0.5600
  825MOL0     C11304   3.475   6.519  10.685 -0.1082 -0.0577 -0.1782
  825MOL0     C11305   3.942   6.075  10.821  0.1551  0.0953 -0.1660
  825MOL0     C11306   4.072   6.118  10.848 -0.0881 -0.1894  0.3442
  825MOL0     C11307   4.161   6.110  10.729  0.4846 -0.6706 -0.2636
  825MOL0     H11308   4.474   6.184  11.190 -0.3882  1.5729 -0.2038
  825MOL0     H11309   4.706   6.199  11.215 -1.9865  0.3422  0.4370
  825MOL0     H11310   5.099   6.146  10.992  1.4581  3.7793 -1.1736
  825MOL0     H11311   4.998   6.107  10.853 -0.9942 -0.1262  0.2808
  825MOL0     H11312   4.895   6.334  10.868 -0.6878  1.8637  3.1704
  825MOL0     H11313   5.076   6.331  10.847  0.7221 -0.2187  0.0565
  825MOL0     H11314   4.909   6.367  11.106  0.4539 -0.4991  0.2742
  825MOL0     H11315   4.954   6.492  10.993  0.7911 -0.5354 -2.7821
  825MOL0     H11316   5.147   6.314  11.168  0.3902  0.4186  0.7806
  825MOL0     H11317   5.205   6.409  11.036 -2.4750 -0.5013 -1.6750
  825MOL0     H11318   5.088   6.609  11.152 -0.3229 -1.0074 -1.1241
  825MOL0     H11319   5.052   6.506  11.286  0.4787  1.4459  0.6080
  825MOL0     H11320   5.241   6.664  11.329  3.3054  0.8068  0.7820
  825MOL0     H11321   5.240   6.503  11.385  0.2094  0.9415  0.8070
  825MOL0     H11322   5.437   6.635  11.234  0.0860  0.5586  1.9707
  825MOL0     H11323   5.358   6.533  11.113 -0.5888  0.9454  1.7454
  825MOL0     H11324   5.460   6.400  11.367  0.3161 -0.0627  0.0270
  825MOL0     H11325   5.375   6.342  11.221  0.2464  1.1990 -1.9984
  825MOL0     H11326   5.592   6.539  11.031  1.1485 -1.7266 -0.6501
  825MOL0     H11327   5.798   6.538  10.900 -0.6667  0.0328 -0.5582
  825MOL0     H11328   5.945   6.489  10.987  1.5424 -1.6480 -2.0924
  825MOL0     H11329   5.937   6.263  10.895  0.6223  0.7422 -0.6861
  825MOL0     H11330   5.780   6.291  10.822  0.7364 -2.8573  1.8742
  825MOL0     H11331   5.865   6.466  10.687 -1.2845 -1.2667 -0.3040
  825MOL0     H11332   5.943   6.323  10.636 -2.4813 -2.8591  2.6656
  825MOL0     H11333   6.141   6.375  10.806 -1.1036 -0.3784 -0.3160
  825MOL0     H11334   6.083   6.543  10.805  1.0025  0.9017  0.4096
  825MOL0     H11335   6.299   6.522  10.437 -2.2449  1.9881  0.9162
  825MOL0     H11336   6.506   6.630  10.414  2.9123 -0.7680 -0.3887
  825MOL0     H11337   6.945   6.614  10.638 -1.8419  1.2035 -1.1386
  825MOL0     H11338   7.182   6.683  10.645  1.2627  3.4207 -0.8065
  825MOL0     H11339   7.292   6.775  10.941 -0.2105  1.4361  1.1700
  825MOL0     H11340   7.344   6.704  10.792  0.7069 -0.9416  1.7746
  825MOL0     H11341   7.525   6.744  10.919  1.0613  0.0828  0.4596
  825MOL0     H11342   7.533   6.848  10.774 -0.2473 -0.0244  0.1790
  825MOL0     H11343   7.448   7.031  10.916  2.5525  0.2432 -2.2851
  825MOL0     H11344   7.482   6.932  11.062 -0.5469 -0.3086 -0.2000
  825MOL0     H11345   7.708   6.956  10.872 -0.1454  1.9926 -0.2714
  825MOL0     H11346   7.697   6.938  11.043 -2.1488  0.9965  2.1158
  825MOL0     H11347   7.610   7.202  10.925 -0.9682 -1.3790 -2.0107
  825MOL0     H11348   7.785   7.162  10.951  0.0480  0.2472  2.9912
  825MOL0     H11349   7.551   7.189  11.162  0.2143  2.9037 -0.9974
  825MOL0     H11350   7.707   7.121  11.205 -1.5764 -0.0085  1.2567
  825MOL0     H11351   7.611   7.383  11.084  0.6535  0.7147  0.1599
  825MOL0     H11352   7.782   7.343  11.087 -0.7049 -0.9115 -0.5978
  825MOL0     H11353   7.683   7.479  11.304 -2.3688  0.4898  1.0425
  825MOL0     H11354   7.610   7.322  11.337  2.2835 -1.3803  0.0284
  825MOL0     H11355   7.047   7.033  10.863 -1.9193  0.9566 -2.0254
  825MOL0     H11356   6.825   6.958  10.848  1.0161  1.7315  0.0420
  825MOL0     H11357   6.531   6.656  10.855  1.2800 -2.9555  0.3482
  825MOL0     H11358   6.298   6.580  10.855  0.2269 -0.4623 -0.1221
  825MOL0     H11359   4.772   6.081  10.810  0.6875  1.3769  1.0332
  825MOL0     H11360   4.506   6.092  10.772 -1.4551  2.5121 -0.3631
  825MOL0     H11361   4.045   6.173  11.178  0.4465 -0.3354 -0.7113
  825MOL0     H11362   3.809   6.098  11.131  0.1701 -1.0164 -1.3710
  825MOL0     H11363   3.618   6.148  11.006  2.0442 -0.0125 -0.1418
  825MOL0     H11364   3.555   5.986  10.977 -2.6429  2.0412 -0.1974
  825MOL0     H11365   3.449   6.151  10.824  0.0830  0.7389 -1.1697
  825MOL0     H11366   3.533   6.031  10.732 -0.2568  1.3874 -3.1176
  825MOL0     H11367   3.722   6.163  10.689  0.8731  1.9452 -3.4176
  825MOL0     H11368   3.667   6.297  10.790 -1.5561 -3.4594  3.6663
  825MOL0     H11369   3.637   6.292  10.523 -0.9907 -0.8857 -1.3506
  825MOL0     H11370   3.477   6.219  10.558 -0.1013 -0.7387 -0.5415
  825MOL0     H11371   3.449   6.621  10.702 -1.1093 -0.4187  0.5290
  825MOL0     H11372   3.923   6.036  10.722 -1.4759 -0.0185  0.1514
  825MOL0     H11373   4.093   6.133  10.646 -0.8184  0.2475  1.0201
  825MOL0     H11374   4.244   6.182  10.726 -1.0276  1.1554 -2.9217
  825MOL0     H11375   4.202   6.009  10.731  1.9949 -0.0634  0.4931
  826MOL0     O11376   2.766   8.035   1.373 -0.5740  0.0732  0.9488
  826MOL0     C11377   2.687   7.945   1.344 -0.2747 -0.3415 -0.0985
  826MOL0     O11378   2.693   7.868   1.232 -0.1358 -0.1848  1.0801
  826MOL0     C11379   2.812   7.871   1.164  0.6617 -0.4830  1.2286
  826MOL0     C11380   2.931   7.816   1.225 -0.3374 -0.6461  0.0139
  826MOL0     C11381   3.053   7.817   1.155  0.0248  0.2977 -0.6810
  826MOL0     C11382   3.054   7.852   1.020  0.0328  1.7894 -0.3513
  826MOL0     O11383   3.154   7.809   0.941  0.4454  0.7453  0.2936
  826MOL0     C11384   3.204   7.906   0.842  1.0312 -0.0022  0.0314
  826MOL0     C11385   3.350   7.882   0.808 -1.2565  0.4164  0.1114
  826MOL0     C11386   3.371   7.745   0.732 -1.2599 -0.5483 -0.1559
  826MOL0     C11387   3.514   7.716   0.699 -0.5188  0.8866  1.1514
  826MOL0     C11388   3.592   7.821   0.617  0.6416  0.0303 -0.0105
  826MOL0     C11389   3.734   7.779   0.600 -1.1779  0.6722  0.2181
  826MOL0     C11390   3.827   7.895   0.569  0.1558 -0.3607  0.5324
  826MOL0     C11391   3.777   7.979   0.452 -0.4882 -0.2191 -0.2399
  826MOL0     N11392   3.876   8.089   0.436 -0.0619 -0.6576 -0.1409
  826MOL0     C11393   4.008   8.074   0.406 -1.0233  0.7849 -0.3635
  826MOL0     C11394   4.050   8.203   0.389  0.1512  0.6820 -0.9727
  826MOL0     C11395   4.183   8.262   0.361  0.0700 -0.8245 -0.2248
  826MOL0     C11396   4.179   8.403   0.307  0.4277  0.4004  0.8120
  826MOL0     C11397   4.301   8.490   0.276 -0.6688  0.0051  0.5026
  826MOL0     C11398   4.411   8.398   0.199  1.1607 -0.5768 -1.0790
  826MOL0     O11399   4.471   8.308   0.288 -0.0098  0.7345 -0.0481
  826MOL0     C11400   4.588   8.363   0.348 -0.0766 -0.8853  0.3001
  826MOL0     C11401   4.586   8.388   0.484 -0.3146 -0.0080  0.7186
  826MOL0     C11402   4.696   8.454   0.548  0.3003 -0.9436  0.6833
  826MOL0     C11403   4.805   8.503   0.471 -0.0272  0.4159 -0.3050
  826MOL0     C11404   4.917   8.576   0.528  0.6828 -0.2643 -0.1352
  826MOL0     O11405   5.026   8.596   0.448  1.0532 -0.0206 -0.8069
  826MOL0     C11406   5.132   8.651   0.509  0.6946 -0.1256  0.8692
  826MOL0     C11407   5.214   8.571   0.588 -0.2572  0.6853 -0.7449
  826MOL0     C11408   5.329   8.625   0.652  0.2446  0.9960 -0.2968
  826MOL0     C11409   5.363   8.761   0.634  0.1247  0.0623 -0.1060
  826MOL0     O11410   5.471   8.826   0.691  0.2533  0.6863 -0.3073
  826MOL0     C11411   5.537   8.762   0.800  0.8683 -0.3861  0.1614
  826MOL0     C11412   5.658   8.844   0.817 -0.5012 -0.7857 -1.4561
  826MOL0     C11413   5.745   8.774   0.926 -0.6778  1.0864  0.0504
  826MOL0     C11414   5.837   8.867   1.005  0.2853 -0.2169  0.8484
  826MOL0     C11415   5.905   8.797   1.123  0.0973  1.0326  0.5665
  826MOL0     C11416   5.966   8.658   1.085 -0.0085 -1.0139  0.0702
  826MOL0     C11417   6.040   8.587   1.199 -0.7515  0.1520 -0.1533
  826MOL0     C11418   5.956   8.502   1.292 -0.2076  0.5698  1.4873
  826MOL0    Cl11419   6.033   8.422   1.426 -0.4045  0.0497  0.2478
  826MOL0     C11420   5.276   8.839   0.553  0.0447  0.1210 -0.3417
  826MOL0     C11421   5.158   8.784   0.496 -0.2554  0.3641  0.8053
  826MOL0     O11422   4.900   8.600   0.643  0.3503  0.1111 -0.2185
  826MOL0     C11423   4.808   8.472   0.334  0.8857 -0.9096  0.0419
  826MOL0     C11424   4.702   8.408   0.272 -0.0451  0.1927 -0.4043
  826MOL0     N11425   3.935   8.280   0.388 -0.6122 -0.8922 -0.1203
  826MOL0     N11426   3.832   8.221   0.428  0.9180  0.3109  0.1813
  826MOL0     C11427   2.936   7.896   0.953  1.1429  0.2718 -0.3536
  826MOL0     C11428   2.819   7.907   1.028  0.5268  1.1514  0.6754
  826MOL0     C11429   2.558   7.934   1.420 -0.7901  0.2451 -0.3749
  826MOL0     C11430   2.567   7.979   1.557  0.2500  0.0168  0.4118
  826MOL0     C11431   2.447   7.975   1.629 -0.2797  0.0606  0.0821
  826MOL0     C11432   2.332   7.917   1.580 -0.2185 -0.0838 -0.0582
  826MOL0     O11433   2.242   7.898   1.676 -0.6949  0.0390 -0.2918
  826MOL0     C11434   2.111   7.868   1.642 -0.0904 -0.1052  0.3652
  826MOL0     C11435   2.032   7.853   1.767  0.6973  1.1700  0.1434
  826MOL0     C11436   2.002   7.987   1.832  0.1851 -0.0879 -0.6604
  826MOL0     C11437   1.873   8.043   1.762  0.1210  0.0609 -0.7848
  826MOL0     C11438   1.851   8.180   1.809  0.7806 -0.4007 -0.3205
  826MOL0     C11439   1.847   8.299   1.824 -0.4793 -0.0240  0.1491
  826MOL0     C11440   2.331   7.867   1.450  0.2641  0.2393 -0.7418
  826MOL0     C11441   2.434   7.884   1.360 -0.2957  0.3592  0.8327
  826MOL0     C11442   2.408   7.839   1.220 -0.2218  0.0758  0.4160
  826MOL0     H11443   2.920   7.778   1.326  0.2485  0.3090  0.4572
  826MOL0     H11444   3.133   7.763   1.204 -2.7661 -3.9306 -0.2845
  826MOL0     H11445   3.142   7.895   0.753  1.3661 -0.6541 -0.1240
  826MOL0     H11446   3.196   8.009   0.879 -0.8292 -1.1200  3.1483
  826MOL0     H11447   3.421   7.880   0.891 -2.3215  0.8845  1.0555
  826MOL0     H11448   3.377   7.967   0.746 -1.2784  0.4288  0.1186
  826MOL0     H11449   3.320   7.765   0.637 -1.1376 -3.2128 -0.8587
  826MOL0     H11450   3.329   7.658   0.783  1.0739 -2.7316 -1.7289
  826MOL0     H11451   3.576   7.705   0.789  0.4007 -1.4589  0.3051
  826MOL0     H11452   3.514   7.617   0.651 -2.2380  0.7394  1.3930
  826MOL0     H11453   3.535   7.856   0.530 -2.2493 -0.4136  1.5722
  826MOL0     H11454   3.596   7.907   0.684 -2.4138 -0.8113  1.4206
  826MOL0     H11455   3.769   7.730   0.691 -2.1690  1.6479  1.1519
  826MOL0     H11456   3.727   7.710   0.515 -2.0669 -0.2643  1.0206
  826MOL0     H11457   3.932   7.873   0.547 -0.2145  0.6411 -2.8182
  826MOL0     H11458   3.824   7.965   0.654 -0.3956 -3.9270  3.7240
  826MOL0     H11459   3.775   7.915   0.364  2.3793 -3.2398  1.6427
  826MOL0     H11460   3.674   8.015   0.464 -0.3690 -0.7147  3.6542
  826MOL0     H11461   4.064   7.981   0.403 -0.4257  1.0650  1.2159
  826MOL0     H11462   4.239   8.263   0.455  1.2052 -1.1772 -0.8853
  826MOL0     H11463   4.236   8.185   0.305  2.0746 -0.0166  0.4474
  826MOL0     H11464   4.132   8.392   0.209 -2.8028  1.8659  2.0387
  826MOL0     H11465   4.108   8.469   0.358 -1.0911  2.1409 -3.1718
  826MOL0     H11466   4.338   8.531   0.371  0.8677  1.6431 -0.7377
  826MOL0     H11467   4.279   8.577   0.214  0.9283 -0.0763 -0.2313
  826MOL0     H11468   4.486   8.458   0.146 -0.6239  2.4725 -0.4051
  826MOL0     H11469   4.373   8.338   0.116  0.0079 -1.8096  0.2843
  826MOL0     H11470   4.507   8.343   0.543  0.9872 -4.8846 -0.7597
  826MOL0     H11471   4.698   8.463   0.656 -0.9863 -2.0629  0.8323
  826MOL0     H11472   5.179   8.469   0.601 -0.9353  0.4116 -3.9591
  826MOL0     H11473   5.394   8.561   0.710 -1.8715 -0.5350  0.4752
  826MOL0     H11474   5.464   8.767   0.882 -0.1393  2.8629 -0.7727
  826MOL0     H11475   5.568   8.659   0.780 -0.9010 -1.1392  1.1144
  826MOL0     H11476   5.706   8.857   0.720 -0.5199  0.2170 -1.3374
  826MOL0     H11477   5.628   8.942   0.854 -0.2318  0.1410 -3.5305
  826MOL0     H11478   5.670   8.728   0.992  0.5526  0.6464  1.1950
  826MOL0     H11479   5.803   8.698   0.873 -0.4600  1.2306  0.0854
  826MOL0     H11480   5.780   8.949   1.047 -0.0346 -0.5723  1.1128
  826MOL0     H11481   5.917   8.910   0.943  1.2850 -0.7826  1.7167
  826MOL0     H11482   5.828   8.770   1.196 -1.6333 -0.2086 -1.6355
  826MOL0     H11483   5.991   8.858   1.154  0.8152  0.5105 -0.3535
  826MOL0     H11484   5.887   8.587   1.061 -1.1759 -0.9241  3.1270
  826MOL0     H11485   6.041   8.679   1.009  0.5622 -0.5306  0.7510
  826MOL0     H11486   6.074   8.674   1.256 -0.1437  0.4875 -0.9996
  826MOL0     H11487   6.125   8.529   1.162  0.5037  2.1825 -0.6530
  826MOL0     H11488   5.875   8.569   1.322  1.0243  3.3686 -1.0022
  826MOL0     H11489   5.912   8.431   1.222  0.3004  0.1404  1.5906
  826MOL0     H11490   5.305   8.943   0.543  3.1803 -0.7767 -1.5610
  826MOL0     H11491   5.103   8.859   0.441  1.0129  0.1898 -0.7910
  826MOL0     H11492   4.887   8.515   0.275 -1.8325  3.4040 -0.8750
  826MOL0     H11493   4.703   8.374   0.169  4.7488 -3.5030  0.5106
  826MOL0     H11494   2.938   7.925   0.848  0.9186  0.9662 -0.1659
  826MOL0     H11495   2.728   7.942   0.980 -0.6329 -2.8251 -0.3822
  826MOL0     H11496   2.656   8.027   1.597  0.3612 -0.2430  0.4799
  826MOL0     H11497   2.447   8.009   1.732 -0.0750 -1.8397  0.7504
  826MOL0     H11498   2.108   7.775   1.585  3.1301 -1.4256  2.0971
  826MOL0     H11499   2.067   7.953   1.589 -0.1614 -0.6863 -0.5188
  826MOL0     H11500   2.091   7.791   1.835 -1.0046  0.2081  0.8015
  826MOL0     H11501   1.936   7.805   1.744  1.8221 -1.6561  0.8857
  826MOL0     H11502   2.080   8.063   1.823 -1.7482  1.8656 -1.8099
  826MOL0     H11503   1.982   7.972   1.938 -0.8393  0.5347 -0.7548
  826MOL0     H11504   1.893   8.047   1.654 -0.8014  0.3575 -0.9532
  826MOL0     H11505   1.775   7.997   1.776  0.1367  0.8909  3.2538
  826MOL0     H11506   1.851   8.405   1.845  0.3864  0.2692 -1.3613
  826MOL0     H11507   2.231   7.839   1.422 -1.7180  3.2856  2.4765
  826MOL0     H11508   2.447   7.904   1.141 -0.6367 -1.8797 -1.4948
  826MOL0     H11509   2.436   7.734   1.208  0.3192  0.3988 -1.5059
  826MOL0     H11510   2.301   7.851   1.202 -0.4236 -0.4077  1.2683
  827MOL0     O11511   8.631   6.902   9.741  0.0395  0.1050 -0.0391
  827MOL0     C11512   8.563   6.804   9.766 -0.0357  0.4806  0.5647
  827MOL0     O11513   8.601   6.674   9.758  0.8675 -0.6654 -0.0460
  827MOL0     C11514   8.732   6.648   9.739 -0.2879 -0.2509  0.4766
  827MOL0     C11515   8.820   6.699   9.825 -1.5027  0.2689 -0.4393
  827MOL0     C11516   8.959   6.674   9.803  0.0362  0.1532  0.7694
  827MOL0     C11517   9.005   6.583   9.698  0.1689 -0.0716 -0.1256
  827MOL0     O11518   9.136   6.556   9.685 -0.2546  0.1266  0.2032
  827MOL0     C11519   9.201   6.635   9.584  0.4778 -0.8667 -0.1540
  827MOL0     C11520   9.293   6.544   9.505 -0.6521  0.2935  0.4328
  827MOL0     C11521   9.214   6.459   9.406 -0.1949  0.2323  0.2672
  827MOL0     C11522   9.305   6.370   9.320 -0.2914 -0.6886  1.0428
  827MOL0     C11523   9.352   6.241   9.396 -0.0877 -0.8627  0.4920
  827MOL0     C11524   9.467   6.165   9.325 -0.1532  0.0106 -0.3421
  827MOL0     C11525   9.467   6.018   9.368 -0.7986 -0.3939 -0.4999
  827MOL0     C11526   9.582   5.935   9.310  0.4930  0.3637  0.4886
  827MOL0     N11527   9.712   5.994   9.338 -0.4147  0.5363  0.2791
  827MOL0     C11528   9.772   6.093   9.261 -1.0084 -0.1841 -0.0550
  827MOL0     C11529   9.883   6.132   9.326 -0.2593 -0.4056  0.7479
  827MOL0     C11530   9.975   6.232   9.277 -0.3041  0.6407 -0.8589
  827MOL0     C11531  10.074   6.171   9.178 -0.9020  0.1560 -0.3038
  827MOL0     C11532  10.197   6.255   9.151 -0.1877 -0.1618 -0.3090
  827MOL0     C11533  10.166   6.381   9.078  0.7385 -0.0864  0.4696
  827MOL0     O11534  10.114   6.353   8.947  0.1637  0.3187  0.0081
  827MOL0     C11535  10.022   6.449   8.899  0.4833  1.2766  0.8800
  827MOL0     C11536   9.988   6.572   8.956  0.8039 -0.0588 -0.4533
  827MOL0     C11537   9.908   6.664   8.896  0.1131  0.5739  0.6945
  827MOL0     C11538   9.851   6.639   8.769  0.0035  0.1326 -0.7155
  827MOL0     C11539   9.769   6.735   8.692  0.0075  0.4711 -0.9097
  827MOL0     O11540   9.753   6.858   8.751  0.0772  0.2236  0.8190
  827MOL0     C11541   9.674   6.954   8.684  0.8859 -0.3062 -0.5687
  827MOL0     C11542   9.686   6.988   8.552 -0.3682  0.1247  0.2024
  827MOL0     C11543   9.597   7.081   8.490  0.6396 -0.2097  0.5272
  827MOL0     C11544   9.492   7.142   8.567 -0.6588  0.0278  0.4939
  827MOL0     O11545   9.415   7.254   8.529 -0.1711  0.1335  0.8300
  827MOL0     C11546   9.432   7.292   8.392 -0.6611  0.0187  0.7666
  827MOL0     C11547   9.350   7.419   8.352 -0.2954 -0.8999 -0.0848
  827MOL0     C11548   9.378   7.468   8.210  0.4000 -0.3717  0.3171
  827MOL0     C11549   9.286   7.582   8.155  0.3783  0.2765 -0.4411
  827MOL0     C11550   9.334   7.617   8.005  0.5601  0.1600 -1.6701
  827MOL0     C11551   9.223   7.653   7.907 -0.0346  0.1634  0.6075
  827MOL0     C11552   9.286   7.676   7.763 -0.1252  0.5331  0.0006
  827MOL0     C11553   9.177   7.696   7.661  0.1328 -0.1231  0.5112
  827MOL0    Cl11554   9.048   7.808   7.722  0.0459  0.0837 -0.0668
  827MOL0     C11555   9.475   7.099   8.698 -0.8865  0.4152  0.5026
  827MOL0     C11556   9.566   7.007   8.755  0.5991 -0.3506  0.2156
  827MOL0     O11557   9.716   6.697   8.588  0.0447 -0.4143 -0.0429
  827MOL0     C11558   9.866   6.506   8.720  0.2168  0.1383  0.0062
  827MOL0     C11559   9.956   6.422   8.778  0.1004 -0.2473  0.4993
  827MOL0     N11560   9.884   6.050   9.445 -0.1436 -0.3877 -1.3223
  827MOL0     N11561   9.788   5.976   9.450 -0.2951 -0.0372  0.1604
  827MOL0     C11562   8.906   6.524   9.615 -0.3089 -0.9194  0.5683
  827MOL0     C11563   8.776   6.558   9.640 -0.0081  0.9601 -0.1362
  827MOL0     C11564   8.415   6.821   9.774  0.9494  0.2136 -0.2510
  827MOL0     C11565   8.332   6.711   9.745  1.0251 -0.9443  0.6359
  827MOL0     C11566   8.198   6.720   9.768 -0.8231  0.6880  0.1841
  827MOL0     C11567   8.135   6.833   9.803  0.5775 -0.0079 -0.4181
  827MOL0     O11568   7.988   6.851   9.800 -0.9621  0.0005  0.0273
  827MOL0     C11569   7.941   6.986   9.778  0.4572 -0.1579 -0.8137
  827MOL0     C11570   7.796   6.989   9.725  0.2317 -0.6394  0.4628
  827MOL0     C11571   7.780   6.971   9.575  0.2716  0.5916  0.7048
  827MOL0     C11572   7.831   6.833   9.532 -0.4109 -0.5738  0.7984
  827MOL0     C11573   7.777   6.814   9.394  0.6639  0.0086  0.1900
  827MOL0     C11574   7.744   6.783   9.281  0.0188  0.3145 -0.5829
  827MOL0     C11575   8.216   6.948   9.819  0.6962  0.7303  0.0526
  827MOL0     C11576   8.351   6.943   9.818 -0.9303  0.0803  0.1788
  827MOL0     C11577   8.428   7.067   9.869 -0.0429 -0.6955  0.1992
  827MOL0     H11578   8.804   6.759   9.914 -2.0236  0.8934 -0.9511
  827MOL0     H11579   9.036   6.722   9.863  1.7822  0.1020 -1.3079
  827MOL0     H11580   9.126   6.685   9.522  1.1833  2.4012  1.3875
  827MOL0     H11581   9.260   6.717   9.624  1.6937 -1.5112 -0.5910
  827MOL0     H11582   9.331   6.473   9.580 -0.6889  0.9006  1.0295
  827MOL0     H11583   9.379   6.594   9.460 -0.8533  0.8356  0.6438
  827MOL0     H11584   9.148   6.520   9.344 -0.2685 -1.3434 -1.3091
  827MOL0     H11585   9.142   6.394   9.456 -1.8469  2.4315  0.9224
  827MOL0     H11586   9.268   6.342   9.220  1.0852 -2.4385  0.9750
  827MOL0     H11587   9.393   6.425   9.285 -1.4930 -0.6037 -2.1952
  827MOL0     H11588   9.402   6.276   9.487  2.5252 -1.7000 -0.5184
  827MOL0     H11589   9.273   6.167   9.413  0.0591 -0.8506  1.3014
  827MOL0     H11590   9.469   6.165   9.216  0.6868  0.9279 -0.3409
  827MOL0     H11591   9.553   6.225   9.356 -0.0281  1.8939 -3.7786
  827MOL0     H11592   9.373   5.977   9.330 -1.0043 -0.9629  0.5787
  827MOL0     H11593   9.465   6.012   9.477 -0.8570  1.8856 -0.3267
  827MOL0     H11594   9.577   5.834   9.352  0.1045  1.1418  2.4590
  827MOL0     H11595   9.553   5.927   9.205  0.7018 -0.0248  0.4556
  827MOL0     H11596   9.743   6.117   9.159  1.4103  1.0050 -0.5358
  827MOL0     H11597   9.913   6.311   9.233 -2.5269  0.9601  2.4544
  827MOL0     H11598  10.029   6.269   9.365 -2.1209  0.5401  0.3638
  827MOL0     H11599  10.110   6.072   9.210  2.3790  1.0544 -0.8056
  827MOL0     H11600  10.017   6.149   9.088  0.4855 -2.8376 -0.5940
  827MOL0     H11601  10.276   6.191   9.109  0.8400 -0.1229  1.4583
  827MOL0     H11602  10.245   6.290   9.243  1.4678  0.3764 -1.3160
  827MOL0     H11603  10.250   6.451   9.072 -0.8717  1.9827  0.7766
  827MOL0     H11604  10.084   6.432   9.130  0.4350  0.3082 -0.3753
  827MOL0     H11605  10.024   6.608   9.052 -0.1918 -1.1417  0.3546
  827MOL0     H11606   9.882   6.749   8.959 -1.1663  2.1054 -1.7181
  827MOL0     H11607   9.770   6.949   8.494  0.3700  1.1746  0.5241
  827MOL0     H11608   9.620   7.111   8.388 -0.1666  0.2701  0.4767
  827MOL0     H11609   9.539   7.313   8.380 -0.4587  0.1938  2.6409
  827MOL0     H11610   9.403   7.211   8.324  1.4458  1.0393 -1.5148
  827MOL0     H11611   9.244   7.407   8.376 -0.3028  1.1130  1.2426
  827MOL0     H11612   9.398   7.489   8.423  0.6253 -1.8234  0.2321
  827MOL0     H11613   9.485   7.487   8.198  0.4570 -1.1068 -0.4505
  827MOL0     H11614   9.348   7.390   8.140 -4.2534  2.1812 -0.9345
  827MOL0     H11615   9.278   7.674   8.213 -3.0345  0.5643 -1.1822
  827MOL0     H11616   9.183   7.547   8.165  0.1006  1.2466  0.2003
  827MOL0     H11617   9.389   7.532   7.964 -0.2109 -1.1299 -0.1439
  827MOL0     H11618   9.396   7.706   8.015 -1.0199  1.0779  1.4213
  827MOL0     H11619   9.155   7.568   7.899  2.3244 -1.6632 -1.6405
  827MOL0     H11620   9.167   7.739   7.945  1.8563  0.9576  1.7615
  827MOL0     H11621   9.339   7.582   7.744 -0.6799  0.5319 -1.7163
  827MOL0     H11622   9.353   7.762   7.762  2.9918 -1.7071 -2.3073
  827MOL0     H11623   9.225   7.716   7.565  0.1468 -2.2427  0.0106
  827MOL0     H11624   9.123   7.601   7.648  1.3418 -0.7756  0.1136
  827MOL0     H11625   9.388   7.135   8.751 -1.7212  0.6291 -0.9553
  827MOL0     H11626   9.545   6.985   8.859  1.3913  1.0682  0.7042
  827MOL0     H11627   9.812   6.477   8.631 -0.8480  0.9037  0.3816
  827MOL0     H11628   9.968   6.326   8.728  1.3051  1.1985 -2.2062
  827MOL0     H11629   8.928   6.469   9.524 -0.5400  0.6168 -0.4675
  827MOL0     H11630   8.697   6.524   9.573  0.6749 -3.4928  1.0409
  827MOL0     H11631   8.363   6.617   9.699  0.8436 -0.9583  0.5438
  827MOL0     H11632   8.142   6.631   9.740  0.5568  1.0672 -4.6559
  827MOL0     H11633   7.999   7.041   9.704 -1.1086 -0.2079 -2.1416
  827MOL0     H11634   7.945   7.045   9.870 -1.8448  0.5260 -1.0734
  827MOL0     H11635   7.751   7.084   9.755  0.5803 -0.6465  1.0352
  827MOL0     H11636   7.734   6.914   9.775  2.7536 -3.0437  0.2460
  827MOL0     H11637   7.835   7.051   9.524  0.7114  0.1790  0.5247
  827MOL0     H11638   7.674   6.975   9.546 -0.0436  0.0999  1.7450
  827MOL0     H11639   7.939   6.816   9.527 -0.2330 -0.4157  3.1123
  827MOL0     H11640   7.792   6.757   9.600 -1.9852  0.6687  1.3513
  827MOL0     H11641   7.725   6.767   9.177  0.8732 -1.2473 -0.5287
  827MOL0     H11642   8.171   7.044   9.843  0.2490  0.6127 -0.2996
  827MOL0     H11643   8.356   7.135   9.914  0.1666 -0.6960  0.5413
  827MOL0     H11644   8.500   7.044   9.949  1.2118  0.9365 -0.3942
  827MOL0     H11645   8.477   7.117   9.785  0.7589  0.2173  1.1794
  828MOL0     O11646   8.562   8.474   0.658  0.0642 -0.3312 -0.2919
  828MOL0     C11647   8.484   8.563   0.667  0.6672  0.5686 -0.4111
  828MOL0     O11648   8.510   8.694   0.672  0.1220 -0.4279 -0.0782
  828MOL0     C11649   8.640   8.739   0.674  0.4087  0.3427 -0.9167
  828MOL0     C11650   8.684   8.777   0.799  0.2605  0.0048 -0.3566
  828MOL0     C11651   8.806   8.841   0.818 -0.7341  0.3852  0.5581
  828MOL0     C11652   8.891   8.858   0.716 -0.3538 -0.2932  0.3668
  828MOL0     O11653   9.017   8.911   0.740  0.0091 -0.9838  0.1971
  828MOL0     C11654   9.123   8.845   0.664  0.5915 -0.0165 -0.6177
  828MOL0     C11655   9.199   8.752   0.760 -0.2326 -0.0390  0.6122
  828MOL0     C11656   9.098   8.667   0.827 -0.2122  0.2691 -0.8157
  828MOL0     C11657   9.157   8.524   0.858 -0.0371 -0.8631  0.5780
  828MOL0     C11658   9.037   8.426   0.874  0.6011 -0.5198  1.3016
  828MOL0     C11659   8.980   8.421   1.020  0.5250 -0.3457  0.1333
  828MOL0     C11660   8.855   8.321   1.013 -0.5166 -1.0431  0.8738
  828MOL0     C11661   8.765   8.314   1.127  0.2556  0.4475 -0.0259
  828MOL0     N11662   8.657   8.219   1.113 -0.0218 -0.0347  0.1347
  828MOL0     C11663   8.678   8.084   1.104  0.0951  0.9930  0.0065
  828MOL0     C11664   8.554   8.041   1.098  0.1221  0.6227 -0.2885
  828MOL0     C11665   8.506   7.903   1.076 -0.5811  0.0253 -0.2036
  828MOL0     C11666   8.387   7.887   0.985  0.1700  0.6783  0.1247
  828MOL0     C11667   8.377   7.733   0.953  0.4939 -0.5166  0.3381
  828MOL0     C11668   8.260   7.707   0.865  0.4964  0.4729 -0.2025
  828MOL0     O11669   8.277   7.782   0.742 -0.4215  0.1339  0.4675
  828MOL0     C11670   8.180   7.774   0.650  0.2781  0.2553  1.1883
  828MOL0     C11671   8.059   7.687   0.641 -0.2389 -0.8714 -0.4079
  828MOL0     C11672   7.962   7.701   0.541 -0.4674 -0.6918  0.0489
  828MOL0     C11673   7.976   7.799   0.433 -0.5396  0.6296 -0.2266
  828MOL0     C11674   7.872   7.812   0.327 -0.3736 -0.0076  0.4052
  828MOL0     O11675   7.889   7.922   0.230  0.2569 -0.9068 -0.4512
  828MOL0     C11676   7.796   7.946   0.126  0.4404  0.6611  0.9671
  828MOL0     C11677   7.839   8.030   0.020  0.0029  0.8900  0.7201
  828MOL0     C11678   7.748   8.058  -0.090 -0.7199  0.2749 -0.8775
  828MOL0     C11679   7.619   8.021  -0.096  0.3294  0.2123  0.5687
  828MOL0     O11680   7.540   8.058  -0.205 -0.5891  0.8149  0.6165
  828MOL0     C11681   7.409   7.993  -0.217 -0.2706  0.0272 -0.1308
  828MOL0     C11682   7.345   8.002  -0.356 -0.3846 -0.6151 -1.3161
  828MOL0     C11683   7.409   7.896  -0.437 -0.2473  0.1180  0.2334
  828MOL0     C11684   7.368   7.888  -0.581 -0.7280  0.3700  0.2834
  828MOL0     C11685   7.460   7.800  -0.658  0.3255  0.7468  0.9006
  828MOL0     C11686   7.449   7.651  -0.636  0.1261 -0.4481 -0.1554
  828MOL0     C11687   7.567   7.590  -0.716  1.0448  0.1929 -0.5001
  828MOL0     C11688   7.715   7.592  -0.676 -0.8029  0.3429 -0.3441
  828MOL0    Cl11689   7.738   7.479  -0.542  0.2840 -0.1663  0.5131
  828MOL0     C11690   7.573   7.944   0.013  0.2621 -0.3782  0.3326
  828MOL0     C11691   7.656   7.909   0.125 -0.2492  0.0822  0.1227
  828MOL0     O11692   7.767   7.738   0.340 -0.4314  0.2122  0.4473
  828MOL0     C11693   8.097   7.882   0.435  0.1259 -0.5002 -0.5161
  828MOL0     C11694   8.185   7.869   0.549  0.1557  0.2374  0.3823
  828MOL0     N11695   8.460   8.134   1.101 -0.6120 -0.1635  0.2667
  828MOL0     N11696   8.525   8.243   1.115 -0.8922  0.5763  0.3356
  828MOL0     C11697   8.845   8.818   0.589 -0.2565 -0.4269  0.2854
  828MOL0     C11698   8.724   8.760   0.562  0.5057 -0.4859 -0.8748
  828MOL0     C11699   8.339   8.524   0.675 -0.1612 -0.0400  0.3627
  828MOL0     C11700   8.243   8.590   0.587  0.1862  0.5769 -0.0904
  828MOL0     C11701   8.111   8.550   0.600  0.0628 -0.0386 -0.3772
  828MOL0     C11702   8.072   8.452   0.690  0.8734 -0.7738 -0.2799
  828MOL0     O11703   7.938   8.437   0.700  0.1395  0.0905  0.0648
  828MOL0     C11704   7.880   8.327   0.770 -0.1954 -0.4640  0.1960
  828MOL0     C11705   7.756   8.387   0.859  0.1565 -0.4127  0.1744
  828MOL0     C11706   7.656   8.284   0.910 -0.3320 -0.3766 -0.6458
  828MOL0     C11707   7.534   8.353   0.987  0.7969  0.0081  0.5426
  828MOL0     C11708   7.432   8.244   1.016 -0.5880  0.0647  0.7176
  828MOL0     C11709   7.359   8.154   1.022  0.9869  0.1250 -0.6748
  828MOL0     C11710   8.163   8.388   0.772  0.1664  0.8998 -0.3247
  828MOL0     C11711   8.298   8.419   0.759  0.5679 -0.7584  0.5892
  828MOL0     C11712   8.396   8.348   0.849  0.4366 -0.7822  0.5899
  828MOL0     H11713   8.619   8.758   0.884 -1.5511  2.1818 -1.1521
  828MOL0     H11714   8.848   8.865   0.915  0.3295 -1.3308  0.5770
  828MOL0     H11715   9.091   8.776   0.585  0.3104 -1.9500  1.0888
  828MOL0     H11716   9.174   8.928   0.615 -0.4009  0.6203 -0.5960
  828MOL0     H11717   9.251   8.799   0.844  0.4544 -0.1119  0.2380
  828MOL0     H11718   9.273   8.684   0.716 -0.5801 -0.1312  0.1567
  828MOL0     H11719   9.013   8.638   0.765 -0.2856  1.3681 -1.2498
  828MOL0     H11720   9.069   8.715   0.921  2.7779  1.2282 -0.2878
  828MOL0     H11721   9.215   8.484   0.774 -1.0085 -1.7568  0.2929
  828MOL0     H11722   9.212   8.524   0.952 -1.2671 -0.9262  1.3311
  828MOL0     H11723   8.959   8.441   0.799 -0.8807 -0.4994  2.7762
  828MOL0     H11724   9.065   8.324   0.845 -2.3327 -1.1040  0.1203
  828MOL0     H11725   9.058   8.392   1.091 -0.2641  0.7420  1.5232
  828MOL0     H11726   8.931   8.517   1.041 -0.6779 -1.2043  1.4983
  828MOL0     H11727   8.895   8.226   0.976  0.6719 -0.6825  1.1948
  828MOL0     H11728   8.797   8.369   0.935 -0.5004 -2.3708  0.0123
  828MOL0     H11729   8.823   8.297   1.218  0.0729  0.8849  0.1725
  828MOL0     H11730   8.718   8.412   1.135 -2.7001 -0.9542  1.2028
  828MOL0     H11731   8.769   8.025   1.110 -0.6570 -0.2175 -0.0484
  828MOL0     H11732   8.584   7.837   1.035 -2.3148 -2.4527  0.2245
  828MOL0     H11733   8.485   7.852   1.170 -0.0951 -1.1651 -0.7167
  828MOL0     H11734   8.295   7.925   1.031  0.0785 -2.7114  3.1543
  828MOL0     H11735   8.406   7.938   0.890  0.2925 -0.7055 -0.6208
  828MOL0     H11736   8.355   7.674   1.042 -0.5426 -1.2623 -0.3847
  828MOL0     H11737   8.469   7.694   0.909  0.3184 -0.5142 -0.0343
  828MOL0     H11738   8.170   7.745   0.916 -1.2574  0.5987 -3.1657
  828MOL0     H11739   8.247   7.601   0.842 -3.2029  0.4245  1.3709
  828MOL0     H11740   8.038   7.612   0.718 -2.3413  0.3397  0.2756
  828MOL0     H11741   7.871   7.646   0.563 -1.3273  0.8973  0.6648
  828MOL0     H11742   7.944   8.059   0.027  0.5012  0.1318 -2.1154
  828MOL0     H11743   7.791   8.121  -0.167  2.6583 -2.0620 -1.0962
  828MOL0     H11744   7.405   7.889  -0.183 -1.7905  0.0628 -0.1448
  828MOL0     H11745   7.338   8.036  -0.145 -0.6542 -2.3879  1.0433
  828MOL0     H11746   7.237   7.988  -0.350 -0.1321 -1.9198  1.4583
  828MOL0     H11747   7.363   8.107  -0.380 -0.2807 -0.3402 -0.0747
  828MOL0     H11748   7.516   7.912  -0.422  0.0791  0.3245 -2.0111
  828MOL0     H11749   7.383   7.795  -0.402 -0.2588  0.3430  0.8749
  828MOL0     H11750   7.354   7.991  -0.617 -2.5918  1.3053  3.3111
  828MOL0     H11751   7.267   7.847  -0.596 -1.3215  2.0595 -0.6789
  828MOL0     H11752   7.559   7.843  -0.641  0.2929  0.2659  2.4535
  828MOL0     H11753   7.432   7.817  -0.763 -1.9781  2.3294  1.6840
  828MOL0     H11754   7.454   7.629  -0.529 -3.4914  0.3837  0.3304
  828MOL0     H11755   7.348   7.621  -0.666 -0.5032  2.4492 -1.2161
  828MOL0     H11756   7.563   7.639  -0.814  0.4334 -1.0332 -1.1091
  828MOL0     H11757   7.533   7.486  -0.712  1.5148  0.0656  0.2068
  828MOL0     H11758   7.772   7.558  -0.762 -0.1430  1.0296 -0.1959
  828MOL0     H11759   7.742   7.694  -0.647  0.1055 -0.5553  2.3116
  828MOL0     H11760   7.468   7.920   0.024 -0.2831  1.1595 -1.0890
  828MOL0     H11761   7.619   7.841   0.202  3.9597 -0.7025  1.7420
  828MOL0     H11762   8.123   7.945   0.351  3.4836  0.4330  1.0266
  828MOL0     H11763   8.271   7.934   0.546  0.0238  0.3815 -1.1100
  828MOL0     H11764   8.900   8.838   0.498 -0.7633 -1.0136 -0.1606
  828MOL0     H11765   8.687   8.739   0.462 -2.0847 -0.1844 -0.0602
  828MOL0     H11766   8.259   8.677   0.525  1.2934  1.1854  1.0077
  828MOL0     H11767   8.039   8.610   0.545  1.6977  1.7947 -0.6336
  828MOL0     H11768   7.946   8.262   0.828  0.7950 -0.9507 -1.4139
  828MOL0     H11769   7.835   8.263   0.693  3.7429 -2.4239 -0.7517
  828MOL0     H11770   7.705   8.471   0.810 -2.0153 -0.1512  2.6225
  828MOL0     H11771   7.801   8.438   0.945 -2.2573  0.6432  0.8969
  828MOL0     H11772   7.708   8.217   0.980  2.1525  2.4974  0.4824
  828MOL0     H11773   7.616   8.223   0.828  0.5772  0.9264 -2.1126
  828MOL0     H11774   7.567   8.401   1.079 -1.2183  1.5856  0.5133
  828MOL0     H11775   7.477   8.424   0.926 -0.1555 -1.2212 -0.0683
  828MOL0     H11776   7.291   8.074   1.041 -0.4335  1.5520  0.4867
  828MOL0     H11777   8.138   8.304   0.836  3.3754  0.3272  0.3234
  828MOL0     H11778   8.459   8.290   0.781  1.0656 -0.2227  0.6770
  828MOL0     H11779   8.462   8.407   0.914 -3.0128  0.0413  3.7094
  828MOL0     H11780   8.338   8.285   0.917 -1.7663 -0.9655 -1.3368
  829MOL0     O11781   5.334   8.174   0.324 -0.1863  0.5868  0.2286
  829MOL0     C11782   5.282   8.152   0.436 -0.3462  1.4974 -0.4024
  829MOL0     O11783   5.359   8.136   0.553  0.9058  0.2327 -0.0624
  829MOL0     C11784   5.491   8.160   0.553  0.1571  0.2430  0.0312
  829MOL0     C11785   5.537   8.285   0.538  0.0642 -0.2109 -0.6292
  829MOL0     C11786   5.667   8.325   0.570 -0.0154  0.5260 -0.2544
  829MOL0     C11787   5.753   8.228   0.618 -0.4073 -0.1772  0.2426
  829MOL0     O11788   5.877   8.257   0.667 -0.1421 -0.2142  0.2069
  829MOL0     C11789   5.938   8.383   0.631 -0.2216  0.5170 -0.0551
  829MOL0     C11790   6.084   8.369   0.665 -0.1615 -0.7397 -0.0878
  829MOL0     C11791   6.172   8.272   0.585 -1.3240 -0.4258 -0.6861
  829MOL0     C11792   6.326   8.271   0.621  0.8445 -1.1469 -0.9296
  829MOL0     C11793   6.398   8.164   0.543 -0.0638  0.3109 -0.0536
  829MOL0     C11794   6.547   8.167   0.588  0.5929  0.3930  0.0772
  829MOL0     C11795   6.630   8.064   0.505  0.7017  0.0036 -0.6113
  829MOL0     C11796   6.779   8.085   0.491 -0.3434 -1.0288 -0.0915
  829MOL0     N11797   6.854   7.960   0.478  0.0760  0.4035 -0.8541
  829MOL0     C11798   6.830   7.871   0.373  0.9665 -0.8480 -0.7253
  829MOL0     C11799   6.929   7.788   0.371  0.7661  0.3759  0.5754
  829MOL0     C11800   6.952   7.667   0.288  0.1400 -0.3662  0.2739
  829MOL0     C11801   6.901   7.533   0.343 -0.3897 -0.1474 -0.9137
  829MOL0     C11802   7.006   7.454   0.420 -0.3962  0.3641  0.5257
  829MOL0     C11803   7.063   7.517   0.543  0.1141  0.0217  0.1500
  829MOL0     O11804   7.156   7.432   0.605  0.0145  0.1650  0.6049
  829MOL0     C11805   7.225   7.479   0.720 -0.4416  0.6596 -0.2577
  829MOL0     C11806   7.287   7.386   0.802 -0.0112  0.4374 -0.1112
  829MOL0     C11807   7.357   7.420   0.918  0.4281  0.4627 -0.8453
  829MOL0     C11808   7.387   7.557   0.942  0.0257 -0.0397 -0.5353
  829MOL0     C11809   7.467   7.604   1.053 -0.3872 -0.6462 -0.0341
  829MOL0     O11810   7.503   7.510   1.146 -0.2439 -0.1502 -0.0289
  829MOL0     C11811   7.601   7.535   1.238 -0.7684 -0.9439 -0.4340
  829MOL0     C11812   7.592   7.480   1.366 -0.3711  0.5531  0.4102
  829MOL0     C11813   7.703   7.478   1.456 -0.4801 -0.7639 -0.3318
  829MOL0     C11814   7.827   7.543   1.421  0.7092 -0.1312  0.0505
  829MOL0     O11815   7.933   7.545   1.510 -0.3443  0.8154  0.6296
  829MOL0     C11816   8.060   7.497   1.460  0.2825 -0.0138 -0.4480
  829MOL0     C11817   8.168   7.521   1.567 -0.1599  0.7753 -0.0284
  829MOL0     C11818   8.235   7.657   1.569  0.0096  0.6565 -0.1329
  829MOL0     C11819   8.346   7.651   1.671  0.0961 -0.7219  0.1409
  829MOL0     C11820   8.425   7.777   1.657 -0.7530  0.0498  0.1247
  829MOL0     C11821   8.526   7.768   1.546 -0.1288 -0.3896  0.0975
  829MOL0     C11822   8.610   7.899   1.544 -0.3619  0.0818  0.1818
  829MOL0     C11823   8.703   7.906   1.426  0.7752  0.4513  0.1746
  829MOL0    Cl11824   8.768   8.063   1.410  0.2543  0.1198 -0.1784
  829MOL0     C11825   7.835   7.601   1.289 -0.5996 -0.5705 -0.6896
  829MOL0     C11826   7.720   7.598   1.197 -0.9274 -0.2579 -0.2227
  829MOL0     O11827   7.494   7.727   1.064 -0.0987 -0.0148  0.0406
  829MOL0     C11828   7.317   7.650   0.862  0.5307  0.2964 -0.6356
  829MOL0     C11829   7.236   7.614   0.753  0.5484  0.6016 -0.1383
  829MOL0     N11830   7.031   7.833   0.457  0.2542 -0.2079 -0.8521
  829MOL0     N11831   6.977   7.927   0.524  0.1932  0.7758  0.8610
  829MOL0     C11832   5.716   8.097   0.628  0.4727 -0.6295 -0.0727
  829MOL0     C11833   5.580   8.056   0.603  0.1911 -0.8633 -0.7297
  829MOL0     C11834   5.138   8.120   0.453 -0.1970 -0.8268  0.2129
  829MOL0     C11835   5.065   8.200   0.544  0.1707 -0.8104  0.4987
  829MOL0     C11836   4.929   8.195   0.550  0.4214  1.2091  0.7383
  829MOL0     C11837   4.852   8.097   0.478 -0.4322 -0.3881  0.2449
  829MOL0     O11838   4.719   8.081   0.518  0.2998 -0.5928  0.1990
  829MOL0     C11839   4.650   7.967   0.478 -0.8203 -0.1509  0.1387
  829MOL0     C11840   4.518   7.955   0.553  0.1387  0.4047 -0.5918
  829MOL0     C11841   4.432   8.084   0.567  0.2918 -0.2876 -1.0438
  829MOL0     C11842   4.299   8.055   0.633 -0.1511  0.9269  0.6443
  829MOL0     C11843   4.318   8.023   0.774 -0.2563 -0.6304 -0.5813
  829MOL0     C11844   4.329   7.973   0.886 -0.8365 -0.7770 -0.2191
  829MOL0     C11845   4.929   8.015   0.392 -0.2152 -0.0732  0.1484
  829MOL0     C11846   5.065   8.030   0.376  0.1635  0.3383  0.4822
  829MOL0     C11847   5.146   7.933   0.284  0.0810  0.2767 -0.9816
  829MOL0     H11848   5.472   8.369   0.515  2.8660  2.4830  0.6179
  829MOL0     H11849   5.709   8.424   0.559  0.4574  0.2816 -0.7277
  829MOL0     H11850   5.923   8.396   0.524 -0.9560 -1.6999 -0.2801
  829MOL0     H11851   5.890   8.467   0.683 -1.4874 -2.2170  3.6625
  829MOL0     H11852   6.097   8.339   0.769  2.7650  1.7753  0.4210
  829MOL0     H11853   6.135   8.465   0.657  0.5456 -1.0321  0.7769
  829MOL0     H11854   6.158   8.302   0.480  1.6857  1.6262 -0.6421
  829MOL0     H11855   6.131   8.175   0.613 -1.0038  0.2659  2.5241
  829MOL0     H11856   6.368   8.369   0.599 -1.0415 -0.5541 -2.1745
  829MOL0     H11857   6.328   8.249   0.728 -0.6258 -0.5230 -0.7428
  829MOL0     H11858   6.350   8.069   0.570 -0.4589  0.3571 -0.5744
  829MOL0     H11859   6.394   8.186   0.436  0.3178 -0.0793 -0.1473
  829MOL0     H11860   6.581   8.265   0.553 -0.1733 -0.1892 -2.5742
  829MOL0     H11861   6.553   8.151   0.696 -0.4148 -3.4281 -0.2816
  829MOL0     H11862   6.590   8.064   0.403 -0.0124  2.4611 -0.3823
  829MOL0     H11863   6.609   7.964   0.545 -1.7514  1.4047  1.8915
  829MOL0     H11864   6.805   8.159   0.415  1.0693 -0.3736  0.9719
  829MOL0     H11865   6.821   8.125   0.584  1.5749  1.1381 -1.7780
  829MOL0     H11866   6.739   7.865   0.313  1.4880 -0.8900 -1.5349
  829MOL0     H11867   6.907   7.669   0.188 -1.4300  0.2320  0.9594
  829MOL0     H11868   7.059   7.660   0.266  0.6188  2.0320  1.5615
  829MOL0     H11869   6.815   7.534   0.411  0.8063  1.0486  0.6620
  829MOL0     H11870   6.861   7.474   0.260  0.2694 -0.3516 -1.0924
  829MOL0     H11871   7.082   7.410   0.355  0.2238 -1.6911  2.5408
  829MOL0     H11872   6.947   7.370   0.459  0.6875 -0.6593  0.0542
  829MOL0     H11873   6.987   7.544   0.616 -0.8317  0.9307 -1.1215
  829MOL0     H11874   7.116   7.609   0.518  0.8326 -0.8257 -1.6374
  829MOL0     H11875   7.285   7.279   0.786  1.4672  0.3221  0.3771
  829MOL0     H11876   7.397   7.342   0.981 -0.2154  1.2263  0.5372
  829MOL0     H11877   7.493   7.436   1.375 -0.1422 -0.6995 -2.1077
  829MOL0     H11878   7.686   7.426   1.550  1.0261  1.9220  1.5632
  829MOL0     H11879   8.059   7.389   1.442  0.4001 -0.7735  3.3294
  829MOL0     H11880   8.098   7.542   1.368  0.1783  1.8680  0.3820
  829MOL0     H11881   8.124   7.491   1.662  0.0270  0.1322 -0.1444
  829MOL0     H11882   8.254   7.457   1.548 -2.1232 -1.9868 -0.1555
  829MOL0     H11883   8.269   7.671   1.466 -2.1772 -1.4038 -1.2008
  829MOL0     H11884   8.164   7.737   1.589 -0.8014  0.1355 -0.8726
  829MOL0     H11885   8.406   7.560   1.680 -0.4395 -0.8683  4.1776
  829MOL0     H11886   8.296   7.647   1.769 -0.4665  0.9512 -0.0543
  829MOL0     H11887   8.490   7.791   1.744 -0.5944  0.0947 -0.0021
  829MOL0     H11888   8.359   7.864   1.662 -3.1109 -1.5623 -0.8012
  829MOL0     H11889   8.591   7.684   1.571 -0.4681 -0.1908  1.7507
  829MOL0     H11890   8.474   7.755   1.451  1.5632 -0.0675 -0.9111
  829MOL0     H11891   8.668   7.915   1.635  0.3813 -1.2697 -0.0226
  829MOL0     H11892   8.540   7.983   1.542 -2.1014 -1.2849  0.7417
  829MOL0     H11893   8.785   7.834   1.423 -0.6703 -1.2379 -1.9765
  829MOL0     H11894   8.636   7.892   1.341 -2.1806  1.5743  2.1421
  829MOL0     H11895   7.933   7.643   1.269 -0.2852 -1.6268 -1.4687
  829MOL0     H11896   7.728   7.638   1.097  0.7486  1.7808  0.6518
  829MOL0     H11897   7.321   7.758   0.871 -3.1412  0.4072  1.5305
  829MOL0     H11898   7.195   7.686   0.683  0.4040  2.4136  1.7157
  829MOL0     H11899   5.790   8.030   0.670 -1.7504 -2.2972  1.4349
  829MOL0     H11900   5.540   7.960   0.631 -1.0692 -1.0151 -2.8096
  829MOL0     H11901   5.118   8.284   0.589 -0.5213  1.3138 -2.3694
  829MOL0     H11902   4.878   8.249   0.629 -1.4295  1.0132 -0.2656
  829MOL0     H11903   4.709   7.884   0.518  2.3158  2.1881  0.7564
  829MOL0     H11904   4.640   7.961   0.369  0.9100 -0.2761 -0.0563
  829MOL0     H11905   4.553   7.926   0.652  1.1219  0.2589 -0.9669
  829MOL0     H11906   4.461   7.870   0.514 -0.6911  0.1801  1.0539
  829MOL0     H11907   4.429   8.128   0.468  1.4064  0.8257 -0.6042
  829MOL0     H11908   4.489   8.148   0.634  2.2324 -0.8349 -2.1027
  829MOL0     H11909   4.220   8.130   0.625 -1.3936 -0.0550  2.7838
  829MOL0     H11910   4.266   7.964   0.582 -0.1688  0.4916  1.4174
  829MOL0     H11911   4.335   7.933   0.985  0.0282  0.4942  0.2744
  829MOL0     H11912   4.872   7.943   0.335  0.4405 -1.6092  1.3614
  829MOL0     H11913   5.211   7.993   0.219  0.0663  0.2961 -0.9784
  829MOL0     H11914   5.210   7.870   0.346  0.1454  1.8094  0.5719
  829MOL0     H11915   5.080   7.870   0.224 -1.7945  2.9854 -1.9890
  830MOL0     O11916   0.108   6.951   9.344  0.8373 -0.3402  0.6117
  830MOL0     C11917   0.110   6.965   9.222 -0.1936 -0.0751  1.0049
  830MOL0     O11918   0.180   6.885   9.132 -0.2685  0.7391 -0.4488
  830MOL0     C11919   0.293   6.822   9.182 -0.4490 -0.2184 -0.6401
  830MOL0     C11920   0.332   6.698   9.133  0.4108  0.3485 -0.4437
  830MOL0     C11921   0.442   6.633   9.182 -1.1115 -0.4136  0.2080
  830MOL0     C11922   0.530   6.698   9.271 -0.1034  0.7635  0.9643
  830MOL0     O11923   0.638   6.619   9.321 -0.3576 -0.4571  0.0195
  830MOL0     C11924   0.752   6.700   9.359 -0.0239  0.0078 -0.4289
  830MOL0     C11925   0.873   6.619   9.353  0.1905  0.0945  0.2626
  830MOL0     C11926   0.879   6.505   9.463  0.4180 -0.7147 -0.2382
  830MOL0     C11927   1.020   6.464   9.486 -0.0949  0.0601 -0.1963
  830MOL0     C11928   1.027   6.311   9.512  0.1258  0.2542 -0.9702
  830MOL0     C11929   0.984   6.267   9.646  0.4408  0.7682  0.1240
  830MOL0     C11930   0.990   6.115   9.667  0.0088 -1.1091  0.1208
  830MOL0     C11931   0.920   6.080   9.793 -0.4323 -0.2742  1.0740
  830MOL0     N11932   0.904   5.934   9.813  0.1448  0.7929 -0.5590
  830MOL0     C11933   0.989   5.829   9.825 -0.3990  0.2949  0.1515
  830MOL0     C11934   0.915   5.721   9.842  0.2446  0.1962 -0.1637
  830MOL0     C11935   0.966   5.578   9.854 -0.6976 -0.2755  0.7878
  830MOL0     C11936   0.876   5.499   9.940 -0.7249 -0.0172 -0.5400
  830MOL0     C11937   0.927   5.343   9.959 -0.6557 -0.1074  0.3376
  830MOL0     C11938   1.054   5.335  10.048  0.4406 -0.1878 -0.3456
  830MOL0     O11939   1.033   5.211  10.116 -0.0040  1.0951  0.1300
  830MOL0     C11940   1.127   5.188  10.214  0.6817 -0.7247 -0.6023
  830MOL0     C11941   1.093   5.088  10.311 -0.2766  0.2711 -0.5216
  830MOL0     C11942   1.192   5.056  10.404 -0.4440  0.2210  0.3373
  830MOL0     C11943   1.319   5.106  10.414 -0.3145 -0.2065  0.4248
  830MOL0     C11944   1.411   5.063  10.517 -0.1005 -0.1327  0.3011
  830MOL0     O11945   1.534   5.125  10.531 -0.7913  0.3042  0.1385
  830MOL0     C11946   1.638   5.058  10.583 -0.0854 -0.3458  0.7052
  830MOL0     C11947   1.759   5.098  10.530  0.3223 -0.9859  0.6395
  830MOL0     C11948   1.882   5.050  10.572  0.1050  0.1930  0.0617
  830MOL0     C11949   1.884   4.953  10.677  0.0080 -0.3823 -0.2304
  830MOL0     O11950   1.993   4.880  10.716  0.7858 -0.2544 -0.0599
  830MOL0     C11951   2.115   4.889  10.642 -0.1644  0.1853  0.0268
  830MOL0     C11952   2.229   4.808  10.710 -0.0007  0.5812  0.4035
  830MOL0     C11953   2.296   4.881  10.825  0.9049 -0.1431 -0.0858
  830MOL0     C11954   2.403   4.980  10.769 -0.4043  0.2558 -0.2663
  830MOL0     C11955   2.496   5.026  10.880 -0.2210  0.4848  0.6597
  830MOL0     C11956   2.558   5.160  10.828  0.4484  0.2940  0.0623
  830MOL0     C11957   2.631   5.134  10.696  0.2736 -1.1068  0.2289
  830MOL0     C11958   2.733   5.248  10.669 -0.0362  0.2791  0.5273
  830MOL0    Cl11959   2.658   5.399  10.621  0.4883  0.1525  0.2091
  830MOL0     C11960   1.761   4.920  10.738 -0.0897  0.5439 -0.0325
  830MOL0     C11961   1.645   4.971  10.684 -0.2502  0.1833 -0.5215
  830MOL0     O11962   1.377   4.964  10.584  0.4921 -0.4925 -0.0861
  830MOL0     C11963   1.359   5.204  10.317 -0.5812  0.0706 -0.2276
  830MOL0     C11964   1.262   5.239  10.222 -1.0588 -0.6797  0.0148
  830MOL0     N11965   0.784   5.755   9.824 -0.1573  0.1621  0.4069
  830MOL0     N11966   0.773   5.886   9.822 -0.2299 -0.8034 -0.7879
  830MOL0     C11967   0.491   6.812   9.323  0.7395 -0.8303  0.0588
  830MOL0     C11968   0.375   6.876   9.289 -0.3404 -0.4326 -0.6204
  830MOL0     C11969   0.012   7.059   9.157 -0.7612  0.7815 -0.6015
  830MOL0     C11970   0.061   7.157   9.082  0.6684  1.1996 -0.0739
  830MOL0     C11971  -0.019   7.258   9.033  0.6409  0.1551 -0.0542
  830MOL0     C11972  -0.163   7.251   9.047 -1.4050  0.0883  0.1864
  830MOL0     O11973  -0.235   7.344   8.979  0.4408 -0.2765 -0.8243
  830MOL0     C11974  -0.377   7.340   8.986  0.1452  0.9385 -0.0675
  830MOL0     C11975  -0.443   7.403   9.109  0.0115 -0.0221 -0.3381
  830MOL0     C11976  -0.415   7.556   9.121  0.3580 -0.2599 -0.5337
  830MOL0     C11977  -0.444   7.623   9.255 -0.7085 -0.5260  0.1806
  830MOL0     C11978  -0.589   7.626   9.279  0.3198 -0.0662  0.2576
  830MOL0     C11979  -0.707   7.638   9.281  0.4988 -0.7588  0.6109
  830MOL0     C11980  -0.209   7.155   9.131  0.2705 -0.5027 -0.2296
  830MOL0     C11981  -0.127   7.055   9.178  0.0122 -0.0096  0.1944
  830MOL0     C11982  -0.196   6.945   9.249  0.2460  0.1289 -0.5148
  830MOL0     H11983   0.264   6.655   9.059 -0.6278 -2.5078  1.9661
  830MOL0     H11984   0.464   6.534   9.144  1.8926  0.6268 -1.0224
  830MOL0     H11985   0.769   6.774   9.280 -1.5505 -0.5790 -1.3473
  830MOL0     H11986   0.740   6.743   9.459 -1.6381 -1.5844  0.1255
  830MOL0     H11987   0.962   6.678   9.376  0.1614  0.7112 -1.0915
  830MOL0     H11988   0.885   6.567   9.257  0.5363 -2.0035  1.3907
  830MOL0     H11989   0.821   6.418   9.428  0.8200 -1.3720  0.6723
  830MOL0     H11990   0.838   6.529   9.561  2.2657 -0.7537  0.5846
  830MOL0     H11991   1.087   6.489   9.403  1.6644  0.8236  1.3714
  830MOL0     H11992   1.070   6.520   9.566  2.4125  0.0168 -1.6150
  830MOL0     H11993   0.975   6.264   9.427  0.7902 -2.8612  0.1970
  830MOL0     H11994   1.133   6.285   9.508  0.2052  0.3507  0.2491
  830MOL0     H11995   1.058   6.310   9.714 -0.1340 -0.0583  1.2961
  830MOL0     H11996   0.882   6.302   9.664  0.2861  1.3637 -1.7108
  830MOL0     H11997   1.096   6.087   9.665 -0.0227 -1.2536 -1.8199
  830MOL0     H11998   0.924   6.061   9.598 -3.5209  0.4593  2.0164
  830MOL0     H11999   0.974   6.129   9.874 -0.5160  3.1975 -0.8074
  830MOL0     H12000   0.825   6.130   9.812 -1.2511 -0.9892 -0.8562
  830MOL0     H12001   1.096   5.843   9.820  0.2603 -2.8975  2.6436
  830MOL0     H12002   0.976   5.538   9.753 -1.6173  1.7500 -0.1511
  830MOL0     H12003   1.061   5.583   9.909 -0.9541 -0.5253  1.2563
  830MOL0     H12004   0.874   5.536  10.043 -1.4932 -1.4981  0.0084
  830MOL0     H12005   0.773   5.502   9.902 -0.2376  2.7304 -1.8744
  830MOL0     H12006   0.952   5.298   9.862 -2.3380 -2.4911  0.9065
  830MOL0     H12007   0.839   5.287   9.992 -1.6786  0.3010 -1.5857
  830MOL0     H12008   1.062   5.418  10.119  1.5573 -1.0320  0.5464
  830MOL0     H12009   1.148   5.336   9.994  4.0255  1.7165  5.1170
  830MOL0     H12010   1.012   5.017  10.308  0.3176 -0.3887 -1.3615
  830MOL0     H12011   1.162   4.979  10.475 -0.1226 -1.2123 -1.0155
  830MOL0     H12012   1.754   5.176  10.455 -2.5721  0.1051  1.8065
  830MOL0     H12013   1.968   5.078  10.511  0.8794 -1.5369  0.3054
  830MOL0     H12014   2.099   4.860  10.538 -0.9670 -2.7088  0.8537
  830MOL0     H12015   2.146   4.993  10.630 -0.6410  0.1825 -1.4008
  830MOL0     H12016   2.183   4.718  10.752  0.9998  0.8015  2.0975
  830MOL0     H12017   2.309   4.772  10.645  2.4289 -0.4343  3.6959
  830MOL0     H12018   2.218   4.933  10.880  1.8348 -1.4750  2.7037
  830MOL0     H12019   2.345   4.816  10.899  3.2244 -1.3877 -2.5337
  830MOL0     H12020   2.349   5.065  10.726 -1.0851  0.5258  1.0777
  830MOL0     H12021   2.464   4.928  10.695 -1.9946  2.3514 -3.2870
  830MOL0     H12022   2.570   4.947  10.896 -0.3014  0.2497 -0.0911
  830MOL0     H12023   2.442   5.046  10.973  0.1164  1.1497  0.7115
  830MOL0     H12024   2.492   5.247  10.821  1.3079  1.1243  1.6797
  830MOL0     H12025   2.626   5.188  10.908  0.8782  1.3487 -0.6625
  830MOL0     H12026   2.568   5.133  10.606 -1.5608 -1.1463  1.4699
  830MOL0     H12027   2.696   5.047  10.708  2.0394  0.1148 -0.1242
  830MOL0     H12028   2.803   5.272  10.749  1.1861  1.3289 -0.8066
  830MOL0     H12029   2.799   5.217  10.588  0.6290  0.1723  1.0954
  830MOL0     H12030   1.760   4.844  10.815 -2.2148  0.0539 -0.4787
  830MOL0     H12031   1.555   4.927  10.727 -0.0265  1.7326  1.7127
  830MOL0     H12032   1.454   5.255  10.328  0.8032 -2.2629 -0.8635
  830MOL0     H12033   1.298   5.310  10.149  0.4292 -0.0921  1.2495
  830MOL0     H12034   0.540   6.850   9.412  2.9411 -1.3576 -0.8708
  830MOL0     H12035   0.356   6.968   9.343  0.9957 -1.9605  2.7163
  830MOL0     H12036   0.168   7.173   9.067  0.8588  2.6960  2.2619
  830MOL0     H12037   0.030   7.341   8.983  1.5048 -1.6106 -2.3426
  830MOL0     H12038  -0.413   7.237   8.976  1.4799  0.5148 -0.6815
  830MOL0     H12039  -0.407   7.391   8.894  3.0701  0.9720 -1.1157
  830MOL0     H12040  -0.404   7.361   9.202 -0.9120  1.7133  0.9026
  830MOL0     H12041  -0.551   7.384   9.105 -0.1680  0.9067 -3.7134
  830MOL0     H12042  -0.477   7.611   9.050  0.9268  1.2526  0.0981
  830MOL0     H12043  -0.307   7.568   9.112  0.4625 -0.7249 -0.0082
  830MOL0     H12044  -0.388   7.591   9.343  0.2079  0.3380 -0.0714
  830MOL0     H12045  -0.406   7.723   9.231  2.7818 -1.5604  0.8289
  830MOL0     H12046  -0.813   7.646   9.292 -0.1630 -2.7815 -2.7873
  830MOL0     H12047  -0.312   7.133   9.156 -0.0196  2.1106  1.2734
  830MOL0     H12048  -0.168   6.851   9.203  0.0252 -2.0210  3.3306
  830MOL0     H12049  -0.170   6.943   9.355 -0.4158  0.4476 -0.3336
  830MOL0     H12050  -0.305   6.938   9.244  0.4354 -3.0979 -1.8164
  831MOL0     O12051   0.555   8.357   9.276  0.0821 -0.4002  0.4028
  831MOL0     C12052   0.655   8.342   9.340 -0.0441  0.0635 -0.1902
  831MOL0     O12053   0.780   8.395   9.311 -0.2152  0.8418  0.2716
  831MOL0     C12054   0.786   8.487   9.209  0.3414 -0.4956  0.0491
  831MOL0     C12055   0.903   8.476   9.131 -0.1913  0.2741  1.4043
  831MOL0     C12056   0.928   8.562   9.024  0.2338 -0.8368  0.4682
  831MOL0     C12057   0.838   8.670   8.999  0.7082 -0.6786  0.2265
  831MOL0     O12058   0.876   8.751   8.891  0.8969 -0.1002 -0.4823
  831MOL0     C12059   0.976   8.842   8.942  0.7935 -0.1233  0.4338
  831MOL0     C12060   1.014   8.931   8.822  0.1844 -0.4144  0.5131
  831MOL0     C12061   1.118   8.871   8.729 -0.2875  0.4484 -1.6637
  831MOL0     C12062   1.061   8.797   8.604  0.6978  0.7430  0.2823
  831MOL0     C12063   1.166   8.732   8.508 -0.0613  0.2071  0.4908
  831MOL0     C12064   1.120   8.607   8.454 -0.0310  0.3737 -0.0479
  831MOL0     C12065   1.226   8.533   8.378 -0.2000 -0.0228  0.3179
  831MOL0     C12066   1.221   8.552   8.228 -0.1438 -0.0577 -0.1631
  831MOL0     N12067   1.341   8.501   8.167 -0.1862 -0.1731 -0.5056
  831MOL0     C12068   1.394   8.376   8.185 -0.6059  0.1435 -0.5755
  831MOL0     C12069   1.517   8.376   8.119  0.1488  1.0382 -0.7305
  831MOL0     C12070   1.602   8.254   8.123 -0.9038 -0.2910 -0.5101
  831MOL0     C12071   1.697   8.256   8.244  0.6976  0.1349  0.6123
  831MOL0     C12072   1.811   8.363   8.243  0.1487 -0.1110  0.0311
  831MOL0     C12073   1.899   8.356   8.118  0.5702 -1.5434 -0.9799
  831MOL0     O12074   1.945   8.219   8.104 -0.1873 -0.2674 -0.2938
  831MOL0     C12075   2.081   8.193   8.131 -0.0622  0.2361  0.4271
  831MOL0     C12076   2.195   8.260   8.081  0.4338 -0.5050 -0.0840
  831MOL0     C12077   2.323   8.208   8.099 -0.1278  0.4621  0.4967
  831MOL0     C12078   2.341   8.077   8.158  0.4253  0.7837 -0.4696
  831MOL0     C12079   2.474   8.022   8.172  0.5097 -0.6348 -0.0948
  831MOL0     O12080   2.576   8.108   8.153  0.2843  0.5405 -0.8287
  831MOL0     C12081   2.703   8.051   8.156 -0.2596  0.6301 -0.1765
  831MOL0     C12082   2.759   8.030   8.285  0.6186  0.0055 -1.1603
  831MOL0     C12083   2.884   7.961   8.299  1.5488  0.6695  1.0267
  831MOL0     C12084   2.950   7.928   8.183 -0.8639  0.7279  0.2635
  831MOL0     O12085   3.080   7.875   8.172 -0.0817 -0.2817  0.3542
  831MOL0     C12086   3.149   7.863   8.294  0.5881 -0.1136 -0.8699
  831MOL0     C12087   3.277   7.780   8.272  0.6410 -0.1782 -0.4103
  831MOL0     C12088   3.226   7.648   8.213 -0.0921  0.2579  0.7538
  831MOL0     C12089   3.342   7.543   8.203  0.7274 -0.1051 -0.4758
  831MOL0     C12090   3.419   7.547   8.071 -0.3800 -0.1738  0.6049
  831MOL0     C12091   3.567   7.515   8.086  0.3571  0.1317 -0.2783
  831MOL0     C12092   3.601   7.365   8.061  0.0797  0.7368  0.1841
  831MOL0     C12093   3.686   7.342   7.929 -0.4623 -0.0326 -0.8140
  831MOL0    Cl12094   3.712   7.164   7.914 -0.3838  0.1106 -0.3013
  831MOL0     C12095   2.890   7.932   8.058 -0.4741  0.4118  0.1031
  831MOL0     C12096   2.768   8.001   8.044  0.1183  1.1860 -0.2209
  831MOL0     O12097   2.489   7.903   8.197 -0.0566  0.6297  0.8421
  831MOL0     C12098   2.221   8.007   8.201  0.4478 -0.9390  0.3799
  831MOL0     C12099   2.095   8.068   8.192 -0.2471  0.1246 -0.2069
  831MOL0     N12100   1.542   8.499   8.070 -0.1906 -0.2729  0.8078
  831MOL0     N12101   1.439   8.570   8.109 -0.7170  0.2467 -0.2850
  831MOL0     C12102   0.721   8.674   9.075  0.5616 -0.0899 -0.3557
  831MOL0     C12103   0.698   8.595   9.185  0.7603 -0.0078 -0.6291
  831MOL0     C12104   0.635   8.267   9.459 -0.1138  0.3916 -0.3377
  831MOL0     C12105   0.502   8.234   9.496  0.0446 -0.0928 -1.4073
  831MOL0     C12106   0.461   8.191   9.624 -0.8114 -0.2936 -0.4039
  831MOL0     C12107   0.555   8.164   9.717  1.2297  0.4345 -0.1759
  831MOL0     O12108   0.512   8.121   9.840  0.3570 -0.1321  0.8271
  831MOL0     C12109   0.541   8.219   9.940 -0.2802  0.0071 -0.9024
  831MOL0     C12110   0.416   8.241  10.036 -0.7560  0.7165 -0.0233
  831MOL0     C12111   0.289   8.285   9.962  0.7331  0.0897  0.2186
  831MOL0     C12112   0.160   8.264  10.051 -0.0079  0.0807  0.1959
  831MOL0     C12113   0.036   8.309   9.992  0.9018 -0.9593 -0.0142
  831MOL0     C12114  -0.065   8.360   9.935 -0.2221 -0.0398 -1.0484
  831MOL0     C12115   0.684   8.202   9.691 -0.4196  0.4178  0.3245
  831MOL0     C12116   0.729   8.244   9.562  0.5396 -0.5873 -0.4492
  831MOL0     C12117   0.874   8.272   9.560  0.1615 -0.0577 -1.0855
  831MOL0     H12118   0.966   8.392   9.159 -1.8426 -0.9790  1.5176
  831MOL0     H12119   1.012   8.546   8.956  0.8894 -3.6515  1.7820
  831MOL0     H12120   0.924   8.909   9.012 -0.2141  2.1906 -2.3576
  831MOL0     H12121   1.061   8.787   8.983 -0.3043 -1.3134  1.2054
  831MOL0     H12122   1.040   9.031   8.860 -3.0345  0.0716  1.6900
  831MOL0     H12123   0.921   8.951   8.769  0.3649 -0.0129  0.3429
  831MOL0     H12124   1.188   8.800   8.774 -0.9136 -0.7965 -2.5822
  831MOL0     H12125   1.173   8.953   8.683 -0.9337  1.2068 -1.1073
  831MOL0     H12126   0.998   8.715   8.642  0.8406  0.7072  0.4397
  831MOL0     H12127   1.014   8.870   8.537  1.3245  2.8790  2.0545
  831MOL0     H12128   1.195   8.800   8.428  0.7037 -0.3164  0.3094
  831MOL0     H12129   1.258   8.705   8.562 -1.3464 -3.7659  1.0866
  831MOL0     H12130   1.096   8.534   8.533  3.2809 -0.4892  0.3209
  831MOL0     H12131   1.036   8.624   8.386 -0.8270 -0.6220  0.6524
  831MOL0     H12132   1.201   8.429   8.402  0.5582  0.2054  2.3025
  831MOL0     H12133   1.325   8.561   8.414  1.3374 -2.3231 -1.7852
  831MOL0     H12134   1.129   8.507   8.190  0.2059 -1.6413  0.7765
  831MOL0     H12135   1.208   8.657   8.202  0.3046  0.2389  0.7487
  831MOL0     H12136   1.342   8.287   8.220 -0.6941  0.8761  1.2309
  831MOL0     H12137   1.545   8.161   8.127 -1.5995 -0.0227 -2.5103
  831MOL0     H12138   1.671   8.252   8.038  2.0141  1.0851  1.6424
  831MOL0     H12139   1.636   8.264   8.334  0.4685 -1.5187  0.6349
  831MOL0     H12140   1.746   8.159   8.257 -1.7894 -1.3996 -0.6080
  831MOL0     H12141   1.870   8.357   8.335 -0.8973 -0.5501  0.7015
  831MOL0     H12142   1.768   8.463   8.248 -2.3915 -1.0403 -1.1900
  831MOL0     H12143   1.984   8.421   8.141 -2.5430  1.9972  1.8765
  831MOL0     H12144   1.841   8.397   8.035 -1.4616 -4.6440 -1.2870
  831MOL0     H12145   2.186   8.355   8.029  0.0756 -1.0947 -1.1288
  831MOL0     H12146   2.407   8.269   8.066 -1.1495  0.1469 -3.0735
  831MOL0     H12147   2.702   8.061   8.372  1.6554 -3.6317  1.0573
  831MOL0     H12148   2.924   7.957   8.400  0.1808  2.1787  1.6843
  831MOL0     H12149   3.170   7.961   8.337 -1.4401  0.0075 -0.0519
  831MOL0     H12150   3.086   7.820   8.372 -0.3625  0.2354 -1.4305
  831MOL0     H12151   3.337   7.838   8.200 -0.4133 -0.8805 -1.8949
  831MOL0     H12152   3.330   7.776   8.368  0.6796 -0.8256 -0.4592
  831MOL0     H12153   3.135   7.606   8.256  0.4976 -0.6883  1.0864
  831MOL0     H12154   3.202   7.667   8.108 -1.1070 -1.2494  0.6866
  831MOL0     H12155   3.297   7.446   8.228  0.5288  0.4589  1.5111
  831MOL0     H12156   3.408   7.575   8.283  0.5567  1.8882 -1.0724
  831MOL0     H12157   3.413   7.645   8.023 -0.9719  0.2742  1.5618
  831MOL0     H12158   3.371   7.479   7.999  1.2405 -3.1932  2.2008
  831MOL0     H12159   3.623   7.576   8.015 -0.3312 -0.1085 -1.0500
  831MOL0     H12160   3.601   7.545   8.185 -2.4601  2.6983  0.0717
  831MOL0     H12161   3.516   7.297   8.049  1.6967 -0.9857 -2.6848
  831MOL0     H12162   3.662   7.333   8.146 -1.5030  0.1501  1.1569
  831MOL0     H12163   3.620   7.365   7.844 -2.1512 -2.3877 -0.2483
  831MOL0     H12164   3.780   7.398   7.925 -1.1154  1.7737  3.5373
  831MOL0     H12165   2.937   7.888   7.971 -0.6389  1.0426 -0.3081
  831MOL0     H12166   2.719   8.004   7.947 -2.1018  1.7070  0.8394
  831MOL0     H12167   2.215   7.909   8.246 -2.6897 -0.9675  0.0824
  831MOL0     H12168   2.011   8.023   8.244 -1.5987  0.1015 -2.3173
  831MOL0     H12169   0.650   8.750   9.044 -3.1836 -2.9096  0.5769
  831MOL0     H12170   0.614   8.606   9.252  1.3565  2.1543 -0.1562
  831MOL0     H12171   0.418   8.248   9.429 -0.7784  1.0833 -0.1807
  831MOL0     H12172   0.356   8.176   9.646 -0.2722 -1.1092  1.8574
  831MOL0     H12173   0.571   8.315   9.897 -2.1132  0.5855 -0.9702
  831MOL0     H12174   0.615   8.182  10.012 -0.4364  0.1729 -0.6530
  831MOL0     H12175   0.444   8.322  10.104  1.4246  0.9674 -1.1302
  831MOL0     H12176   0.391   8.155  10.099 -0.3684 -1.2746 -2.4363
  831MOL0     H12177   0.277   8.232   9.867 -1.1195 -1.2046  1.1107
  831MOL0     H12178   0.298   8.393   9.944  0.0336  0.1830  0.4140
  831MOL0     H12179   0.163   8.156  10.071  1.0090  0.2250  0.9293
  831MOL0     H12180   0.191   8.317  10.141  0.3907  2.3128 -1.1889
  831MOL0     H12181  -0.147   8.417   9.897  2.1231  3.4814 -1.3771
  831MOL0     H12182   0.755   8.201   9.773 -2.6836  1.2735  2.4366
  831MOL0     H12183   0.908   8.273   9.456 -3.0237  0.1631 -2.2348
  831MOL0     H12184   0.896   8.370   9.603 -0.5676  0.4425 -1.8194
  831MOL0     H12185   0.930   8.198   9.618  0.7586  1.2171  0.0278
  832MOL0     O12186  11.316   6.742   3.079 -0.4911 -0.7808  0.3564
  832MOL0     C12187  11.314   6.682   2.970  0.1147 -0.4181  0.7867
  832MOL0     O12188  11.203   6.631   2.906 -0.2340  0.2207  0.0702
  832MOL0     C12189  11.079   6.642   2.965 -0.8499 -0.1197  0.1102
  832MOL0     C12190  11.040   6.772   3.000  0.3340  0.5102  1.1869
  832MOL0     C12191  10.911   6.784   3.052 -0.7256  0.2477  0.4920
  832MOL0     C12192  10.829   6.672   3.092 -0.2841 -0.3055  0.3502
  832MOL0     O12193  10.703   6.691   3.139 -0.1104 -0.1101  0.2663
  832MOL0     C12194  10.602   6.610   3.089  0.9324  0.0195 -0.2933
  832MOL0     C12195  10.468   6.684   3.116  0.5656 -0.5030  0.3568
  832MOL0     C12196  10.345   6.600   3.089 -0.4632 -0.2852  0.1675
  832MOL0     C12197  10.218   6.681   3.112  0.2946  0.0383 -0.0863
  832MOL0     C12198  10.094   6.619   3.040 -0.1432  0.5861  0.2121
  832MOL0     C12199   9.973   6.707   3.062  0.0595  0.9820 -0.9050
  832MOL0     C12200   9.851   6.646   2.987  0.2709 -0.6831 -0.9259
  832MOL0     C12201   9.731   6.731   3.021 -0.1994  0.7683 -0.2995
  832MOL0     N12202   9.613   6.668   2.983  0.6830 -0.2011 -0.1882
  832MOL0     C12203   9.553   6.689   2.863  0.0259 -0.2328  0.2866
  832MOL0     C12204   9.440   6.626   2.862 -0.3712  0.8038 -0.0018
  832MOL0     C12205   9.347   6.612   2.746  0.1218  0.6301 -0.3828
  832MOL0     C12206   9.315   6.744   2.684  0.3143  0.1254  0.6315
  832MOL0     C12207   9.181   6.728   2.612 -0.0845  0.7098 -0.2195
  832MOL0     C12208   9.144   6.851   2.536 -0.3610 -0.1659 -0.0452
  832MOL0     O12209   9.014   6.834   2.468 -0.6207  0.7842  0.0753
  832MOL0     C12210   9.003   6.821   2.333 -0.4753  0.5369  0.1882
  832MOL0     C12211   9.109   6.782   2.249 -0.0923 -0.7115  0.4411
  832MOL0     C12212   9.078   6.777   2.105 -0.4241 -0.7025 -0.5649
  832MOL0     C12213   8.952   6.816   2.054 -0.5571  0.9414  0.1585
  832MOL0     C12214   8.933   6.814   1.905  0.0109  0.4109  0.2353
  832MOL0     O12215   9.029   6.831   1.813 -0.3292 -0.4216  0.0097
  832MOL0     C12216   9.112   6.935   1.835 -0.1285 -0.4028 -0.7451
  832MOL0     C12217   9.064   7.061   1.870  0.0997  0.2023  0.3891
  832MOL0     C12218   9.153   7.161   1.909 -0.2146 -0.0651 -0.2699
  832MOL0     C12219   9.299   7.140   1.905  0.0738 -0.5242  0.4318
  832MOL0     O12220   9.373   7.251   1.945  0.2264  0.4357 -0.0758
  832MOL0     C12221   9.525   7.245   1.927 -0.2428 -0.1147  0.4403
  832MOL0     C12222   9.587   7.380   1.956 -0.7892 -0.5922 -0.2921
  832MOL0     C12223   9.565   7.500   1.863 -0.1708 -0.2291  0.2293
  832MOL0     C12224   9.427   7.509   1.800 -0.1384 -0.3382  0.1420
  832MOL0     C12225   9.423   7.621   1.691  0.0183 -0.0374  0.9600
  832MOL0     C12226   9.454   7.763   1.735 -0.1624 -0.0884 -0.6357
  832MOL0     C12227   9.348   7.808   1.844 -0.1433  0.5223  0.5359
  832MOL0     C12228   9.406   7.830   1.976 -1.2226 -0.0622 -0.8393
  832MOL0    Cl12229   9.543   7.955   1.981 -0.3269 -0.4690  0.2685
  832MOL0     C12230   9.343   7.017   1.855  0.1388  0.1045  0.6165
  832MOL0     C12231   9.249   6.918   1.816  0.4145 -0.2459 -0.1067
  832MOL0     O12232   8.818   6.794   1.876 -0.2724  0.5551  0.7288
  832MOL0     C12233   8.849   6.836   2.142  0.6866 -0.1449 -0.5945
  832MOL0     C12234   8.870   6.840   2.284 -0.6923 -0.0117  0.0076
  832MOL0     N12235   9.419   6.576   2.992  0.1798  0.1672  0.2739
  832MOL0     N12236   9.531   6.595   3.060  0.3657  0.6807  0.1262
  832MOL0     C12237  10.876   6.545   3.055  0.0766 -0.2402 -0.8242
  832MOL0     C12238  10.999   6.530   2.993 -0.4738  0.3796 -0.1533
  832MOL0     C12239  11.448   6.659   2.913  0.0113 -0.4196 -0.8389
  832MOL0     C12240  11.555   6.630   3.002  0.5074  0.0116  0.6341
  832MOL0     C12241  11.686   6.623   2.971  0.1006  0.8856  0.5977
  832MOL0     C12242  11.718   6.625   2.830  0.6938 -0.5194  0.6577
  832MOL0     O12243  11.845   6.616   2.782 -0.2329  0.3889 -0.4258
  832MOL0     C12244  11.961   6.660   2.857  0.8532 -0.3851 -0.0584
  832MOL0     C12245  12.082   6.686   2.773 -0.0919 -0.1860  0.2502
  832MOL0     C12246  12.051   6.791   2.668 -0.5006  0.1585  0.5319
  832MOL0     C12247  12.040   6.930   2.721 -0.6812 -0.6838 -0.8271
  832MOL0     C12248  12.166   6.979   2.787 -0.6154 -0.5020  0.8210
  832MOL0     C12249  12.266   7.017   2.846 -0.0051  0.9216  0.7228
  832MOL0     C12250  11.612   6.650   2.737 -0.6487  0.0667  0.3439
  832MOL0     C12251  11.476   6.665   2.779 -0.2429  0.2282  1.0883
  832MOL0     C12252  11.370   6.686   2.679 -0.6596 -1.0115 -0.6079
  832MOL0     H12253  11.108   6.852   2.974 -0.2280  0.2635 -1.3080
  832MOL0     H12254  10.872   6.881   3.082 -2.7778 -0.1640 -0.6597
  832MOL0     H12255  10.596   6.599   2.980 -0.3793 -0.7527 -0.1672
  832MOL0     H12256  10.614   6.510   3.131  1.9745  1.4519  3.1344
  832MOL0     H12257  10.468   6.767   3.045 -0.2112  0.7691  1.7741
  832MOL0     H12258  10.474   6.727   3.216  0.5196 -1.2957  0.7121
  832MOL0     H12259  10.344   6.514   3.157 -1.7240  0.8230  1.6156
  832MOL0     H12260  10.346   6.572   2.983 -0.6036 -1.0249  0.3560
  832MOL0     H12261  10.197   6.693   3.219  0.5914 -0.0626 -0.0147
  832MOL0     H12262  10.218   6.785   3.078  0.6668  0.5982  1.5378
  832MOL0     H12263  10.106   6.609   2.931  2.4713  0.8228  0.4073
  832MOL0     H12264  10.088   6.518   3.081  2.1578 -0.3173 -1.4540
  832MOL0     H12265   9.952   6.695   3.168 -0.7835 -1.9340 -1.2842
  832MOL0     H12266   9.993   6.812   3.041  4.1504  0.8370  1.2512
  832MOL0     H12267   9.837   6.544   3.025 -1.3612  0.6188  2.3390
  832MOL0     H12268   9.870   6.629   2.881 -0.8200  0.7138 -1.3775
  832MOL0     H12269   9.726   6.734   3.131  0.7115 -4.4136  0.1153
  832MOL0     H12270   9.740   6.832   2.979 -0.7778  1.5575  1.3524
  832MOL0     H12271   9.597   6.743   2.780 -0.4016 -3.6141 -2.3377
  832MOL0     H12272   9.399   6.548   2.673 -0.0599 -0.4756  0.4284
  832MOL0     H12273   9.261   6.567   2.796  0.2926  2.0083  1.2086
  832MOL0     H12274   9.299   6.816   2.765 -1.1634  2.4028 -1.5470
  832MOL0     H12275   9.393   6.776   2.615  0.2910  0.6897  0.8649
  832MOL0     H12276   9.097   6.712   2.681  0.8908  1.0358  1.0878
  832MOL0     H12277   9.196   6.644   2.543  2.4543  0.7438  0.1915
  832MOL0     H12278   9.226   6.875   2.468  1.7533 -1.3337  1.9535
  832MOL0     H12279   9.132   6.944   2.592 -0.8130  1.5046 -2.7498
  832MOL0     H12280   9.209   6.755   2.281  0.5074 -0.7780 -1.3589
  832MOL0     H12281   9.158   6.745   2.039  0.9844 -0.3236  0.8957
  832MOL0     H12282   8.958   7.082   1.874  0.2194  0.7529  0.9019
  832MOL0     H12283   9.103   7.248   1.950  0.2995 -0.3457  0.9782
  832MOL0     H12284   9.571   7.169   1.990  3.3728  0.8138 -0.8159
  832MOL0     H12285   9.539   7.228   1.819 -0.2514 -0.4336  0.4904
  832MOL0     H12286   9.554   7.403   2.058 -0.9035 -1.9440 -0.0001
  832MOL0     H12287   9.692   7.353   1.972 -1.4610 -1.7620  3.1427
  832MOL0     H12288   9.579   7.594   1.917  0.1495  0.1549 -0.5100
  832MOL0     H12289   9.637   7.491   1.781  0.9462  1.8468  0.9077
  832MOL0     H12290   9.358   7.533   1.882 -1.7343  0.5169 -1.3829
  832MOL0     H12291   9.396   7.411   1.760  1.6007 -1.9187  2.3934
  832MOL0     H12292   9.325   7.627   1.642  0.5851 -1.2812 -0.3650
  832MOL0     H12293   9.490   7.590   1.611  2.3331 -0.2272  2.8451
  832MOL0     H12294   9.552   7.767   1.783 -0.6508  3.5164  0.3220
  832MOL0     H12295   9.451   7.833   1.651 -2.0031  0.7011  0.0275
  832MOL0     H12296   9.268   7.733   1.839 -2.2663  2.7569 -1.8291
  832MOL0     H12297   9.289   7.897   1.824 -1.4502 -0.1833  1.1009
  832MOL0     H12298   9.329   7.874   2.041  0.9198  0.3554  1.5712
  832MOL0     H12299   9.436   7.735   2.021 -2.3953 -0.7701 -1.4963
  832MOL0     H12300   9.451   7.001   1.859  0.8607  3.5590 -0.7582
  832MOL0     H12301   9.293   6.819   1.820  0.5901 -0.1760 -0.3336
  832MOL0     H12302   8.745   6.850   2.116  0.0040 -0.6696  1.5953
  832MOL0     H12303   8.787   6.856   2.352 -0.1564  2.3922  0.1675
  832MOL0     H12304  10.820   6.456   3.077 -1.8368  0.9346 -0.7142
  832MOL0     H12305  11.032   6.429   2.972  0.4835  0.9546 -1.6439
  832MOL0     H12306  11.527   6.616   3.106  1.5369 -1.2922  0.7681
  832MOL0     H12307  11.760   6.596   3.046 -0.5011  1.7471  1.5278
  832MOL0     H12308  12.002   6.591   2.932  0.3988 -1.7758 -1.0395
  832MOL0     H12309  11.932   6.751   2.910  3.0397  1.8101 -2.3663
  832MOL0     H12310  12.099   6.596   2.712  0.5457 -0.3185  0.6148
  832MOL0     H12311  12.166   6.721   2.834  0.6354 -0.2700 -0.6582
  832MOL0     H12312  11.966   6.762   2.606 -0.2018 -0.5253  0.4316
  832MOL0     H12313  12.141   6.786   2.605 -1.1780 -3.6169 -0.3632
  832MOL0     H12314  12.031   7.004   2.642  1.7661 -0.3849 -0.8776
  832MOL0     H12315  11.955   6.955   2.785 -0.5147  2.1239 -1.5788
  832MOL0     H12316  12.339   7.071   2.903  1.8820  0.0481 -0.7546
  832MOL0     H12317  11.641   6.677   2.636  1.3279  1.1746  1.1409
  832MOL0     H12318  11.321   6.780   2.708  0.7389 -0.1334 -0.9667
  832MOL0     H12319  11.421   6.689   2.583  2.5934 -0.0318  0.9922
  832MOL0     H12320  11.314   6.593   2.684 -0.4399 -1.3644 -3.3752
  833MOL0     O12321   4.146   2.370  10.697  0.1384  0.4216  0.4648
  833MOL0     C12322   4.117   2.270  10.632 -0.2943 -0.0462 -1.5924
  833MOL0     O12323   4.195   2.222  10.528  0.6337  0.6966  0.2245
  833MOL0     C12324   4.301   2.300  10.490 -0.3659  0.1498  0.5850
  833MOL0     C12325   4.312   2.339  10.358 -0.6389  0.0138  0.4733
  833MOL0     C12326   4.430   2.402  10.313  0.5419 -0.5992  0.5661
  833MOL0     C12327   4.541   2.422  10.409  1.2899  0.4647  0.5358
  833MOL0     O12328   4.657   2.482  10.361 -0.3053 -0.0845  0.3994
  833MOL0     C12329   4.779   2.443  10.416 -0.6338  0.0716  0.0695
  833MOL0     C12330   4.869   2.468  10.297 -0.2607  0.6224 -0.6002
  833MOL0     C12331   5.006   2.428  10.336 -0.1246 -0.3161 -0.3530
  833MOL0     C12332   5.079   2.538  10.406 -0.1740  0.9498  0.1642
  833MOL0     C12333   5.225   2.503  10.419 -0.3805  0.6586 -0.2416
  833MOL0     C12334   5.295   2.609  10.505 -0.0971 -0.1785  0.3034
  833MOL0     C12335   5.448   2.581  10.517  0.4702 -0.4322  0.6281
  833MOL0     C12336   5.515   2.631  10.385 -0.2260 -0.2584  0.8907
  833MOL0     N12337   5.651   2.676  10.413 -0.1185  0.0323 -0.2799
  833MOL0     C12338   5.691   2.805  10.435  0.2734  0.2414  0.1403
  833MOL0     C12339   5.826   2.793  10.424  0.1414 -0.0334  0.2826
  833MOL0     C12340   5.921   2.904  10.456 -0.3151 -0.0343 -0.7745
  833MOL0     C12341   6.052   2.834  10.496 -0.0378  1.0806 -0.2976
  833MOL0     C12342   6.151   2.945  10.532 -0.1920 -0.7500 -0.4412
  833MOL0     C12343   6.246   2.919  10.646 -0.2045 -0.4979 -1.0714
  833MOL0     O12344   6.375   2.875  10.613 -0.3464 -0.6798 -0.6378
  833MOL0     C12345   6.401   2.749  10.561  0.6578  0.1836  0.6960
  833MOL0     C12346   6.319   2.641  10.555 -0.9291  0.1872 -0.3517
  833MOL0     C12347   6.358   2.535  10.492  0.4882  0.7244 -0.9924
  833MOL0     C12348   6.485   2.517  10.436 -0.3048 -0.2580  0.1216
  833MOL0     C12349   6.534   2.388  10.378 -0.6053 -0.2080  0.1580
  833MOL0     O12350   6.668   2.380  10.383  0.4163 -0.6511 -0.5439
  833MOL0     C12351   6.737   2.278  10.339 -0.1259 -0.5344 -0.2197
  833MOL0     C12352   6.763   2.243  10.208  0.2016  1.2446 -0.5531
  833MOL0     C12353   6.853   2.135  10.178 -0.0251  0.1913  0.3289
  833MOL0     C12354   6.928   2.076  10.282  0.1286 -0.7148 -0.8725
  833MOL0     O12355   7.007   1.970  10.268  1.1581  0.3336  0.3041
  833MOL0     C12356   7.087   1.942  10.153  0.0052 -0.3787  1.0908
  833MOL0     C12357   7.017   1.856  10.045  0.7040  0.0050  1.0447
  833MOL0     C12358   7.090   1.851   9.917  0.5752  0.1235  0.2628
  833MOL0     C12359   7.000   1.798   9.802  0.5565  0.5889  0.1233
  833MOL0     C12360   7.054   1.844   9.661  0.7862 -0.2451 -0.6762
  833MOL0     C12361   6.969   1.783   9.552 -0.3431  0.3205 -0.1695
  833MOL0     C12362   7.040   1.796   9.414 -0.3653 -1.1377 -0.1977
  833MOL0     C12363   6.990   1.690   9.320  0.6841  0.3742 -0.5106
  833MOL0    Cl12364   6.816   1.729   9.309  0.9672 -0.2381  0.0438
  833MOL0     C12365   6.900   2.117  10.418  0.2663  0.8643  0.3733
  833MOL0     C12366   6.809   2.215  10.448 -0.2634 -0.4413  0.6597
  833MOL0     O12367   6.461   2.299  10.339  0.9864  0.1045  0.6079
  833MOL0     C12368   6.565   2.635  10.434 -0.2349 -0.3777 -0.4546
  833MOL0     C12369   6.531   2.746  10.507 -0.0516  0.9669 -0.3515
  833MOL0     N12370   5.864   2.669  10.374  0.1447  0.4173  0.8377
  833MOL0     N12371   5.759   2.601  10.380 -0.6959 -0.6695 -0.8070
  833MOL0     C12372   4.517   2.402  10.541 -0.7988  0.0497  0.5839
  833MOL0     C12373   4.406   2.330  10.582 -0.3177  0.0614 -0.7207
  833MOL0     C12374   3.994   2.197  10.659  0.1410  0.7805 -0.3281
  833MOL0     C12375   3.909   2.250  10.759  0.3915 -0.4887  0.3353
  833MOL0     C12376   3.776   2.208  10.782 -0.3400  0.0884 -0.1775
  833MOL0     C12377   3.727   2.102  10.708 -0.4543 -0.5774 -0.7928
  833MOL0     O12378   3.599   2.054  10.710 -1.0173 -0.2916 -0.4276
  833MOL0     C12379   3.516   2.072  10.827 -0.1046 -0.0569  1.2915
  833MOL0     C12380   3.389   1.986  10.812  0.2361  0.9721  0.0875
  833MOL0     C12381   3.299   2.015  10.686 -0.8519  0.1171  0.4152
  833MOL0     C12382   3.162   1.952  10.690  0.4033 -0.8086 -0.1604
  833MOL0     C12383   3.172   1.808  10.683 -0.3365  0.2203  0.0503
  833MOL0     C12384   3.192   1.693  10.691  0.0864 -0.0160  0.2055
  833MOL0     C12385   3.813   2.035  10.616  0.7334  0.8100 -0.3774
  833MOL0     C12386   3.949   2.077  10.591  0.1294 -0.7458  0.3566
  833MOL0     C12387   4.039   1.985  10.503 -0.3348 -0.5777 -1.2414
  833MOL0     H12388   4.229   2.311  10.293  0.0587  0.6125 -0.7153
  833MOL0     H12389   4.454   2.428  10.210 -1.6813  1.1308  0.4171
  833MOL0     H12390   4.809   2.500  10.505  1.2318  0.1381 -0.5501
  833MOL0     H12391   4.796   2.337  10.435  0.1824  0.2440  0.3484
  833MOL0     H12392   4.852   2.572  10.268  2.4996  0.9577 -1.2147
  833MOL0     H12393   4.833   2.411  10.211 -0.1141  1.9767 -1.5810
  833MOL0     H12394   5.061   2.414  10.243  1.0490 -0.2157  0.3085
  833MOL0     H12395   5.014   2.330  10.383  0.0724 -0.1406 -0.0150
  833MOL0     H12396   5.060   2.635  10.360 -1.6373  2.0317  2.8120
  833MOL0     H12397   5.033   2.563  10.503  0.1811  3.5996 -0.2705
  833MOL0     H12398   5.224   2.417  10.486  0.2290  0.1338 -0.8977
  833MOL0     H12399   5.270   2.501  10.320 -1.6316  2.8032 -0.9362
  833MOL0     H12400   5.274   2.703  10.453 -1.9007 -0.2765  0.7931
  833MOL0     H12401   5.245   2.621  10.601 -2.6657  0.9140 -1.0853
  833MOL0     H12402   5.472   2.478  10.542 -0.4609 -0.8075 -0.0015
  833MOL0     H12403   5.488   2.637  10.603  0.8091 -1.2731  1.0235
  833MOL0     H12404   5.521   2.545  10.318 -6.2318  0.4821 -1.1273
  833MOL0     H12405   5.453   2.697  10.324 -0.1582 -0.9725  0.0239
  833MOL0     H12406   5.634   2.891  10.467  2.0492  1.3234  0.5695
  833MOL0     H12407   5.944   2.967  10.369  0.0249  2.9110  1.2758
  833MOL0     H12408   5.884   2.964  10.540 -2.0553 -0.4833 -1.1847
  833MOL0     H12409   6.038   2.762  10.578  2.1661 -1.3650 -1.9226
  833MOL0     H12410   6.086   2.776  10.410 -2.5200 -0.8257 -0.1112
  833MOL0     H12411   6.102   3.040  10.556  2.1648  0.6697 -0.9569
  833MOL0     H12412   6.216   2.974  10.449 -2.2131  1.4288 -1.3982
  833MOL0     H12413   6.203   2.862  10.730 -1.7653  1.7210 -0.2402
  833MOL0     H12414   6.250   3.016  10.696 -1.1641 -2.9545  4.7273
  833MOL0     H12415   6.232   2.623  10.618  0.1474  0.0758  1.1597
  833MOL0     H12416   6.290   2.450  10.487 -2.1066  2.6168 -0.0877
  833MOL0     H12417   6.714   2.292  10.125 -0.3672  2.1736  0.3004
  833MOL0     H12418   6.877   2.111  10.075 -3.4508  1.0083 -0.7941
  833MOL0     H12419   7.113   2.036  10.103 -0.4784 -1.8279 -2.1334
  833MOL0     H12420   7.177   1.897  10.196  1.2330 -3.7103 -4.0171
  833MOL0     H12421   7.010   1.752  10.077  0.4981  0.4788  2.6195
  833MOL0     H12422   6.920   1.900  10.019  0.6096 -0.9699 -0.3742
  833MOL0     H12423   7.122   1.954   9.900  2.1329 -0.1514  1.3089
  833MOL0     H12424   7.182   1.791   9.914  0.5710 -0.0073  1.9054
  833MOL0     H12425   6.896   1.831   9.807 -0.1083 -1.4349  0.9932
  833MOL0     H12426   7.003   1.688   9.806  0.0078  0.4152 -2.2536
  833MOL0     H12427   7.157   1.810   9.652  2.2927  3.9614 -1.3491
  833MOL0     H12428   7.049   1.953   9.656  2.1152 -0.2104 -2.0646
  833MOL0     H12429   6.955   1.676   9.572  2.7479  0.0485  0.9450
  833MOL0     H12430   6.872   1.834   9.558  0.6064  2.3520 -1.0008
  833MOL0     H12431   7.145   1.771   9.434  0.0672  0.4303 -0.3707
  833MOL0     H12432   7.031   1.901   9.387  1.1972 -1.3310 -1.5729
  833MOL0     H12433   7.043   1.699   9.226 -0.6090 -0.0839 -1.3144
  833MOL0     H12434   7.022   1.590   9.353  4.0751  1.0292 -1.4407
  833MOL0     H12435   6.950   2.064  10.499 -1.6370 -1.0370  0.3878
  833MOL0     H12436   6.797   2.235  10.554 -1.5142 -1.6601  0.7810
  833MOL0     H12437   6.662   2.629  10.384 -0.1979  0.1193 -0.4483
  833MOL0     H12438   6.601   2.829  10.503  1.7872 -0.5189  0.0851
  833MOL0     H12439   4.600   2.426  10.607  0.5413  0.9133 -1.3239
  833MOL0     H12440   4.394   2.312  10.688  0.6168  2.1072 -0.2115
  833MOL0     H12441   3.943   2.337  10.815  1.1437 -0.9266  0.5794
  833MOL0     H12442   3.715   2.255  10.859 -1.8623 -1.0091 -0.6598
  833MOL0     H12443   3.480   2.173  10.845 -0.7094 -0.2009  0.9168
  833MOL0     H12444   3.591   2.052  10.904  0.8738  0.5006  0.5076
  833MOL0     H12445   3.324   1.993  10.900  1.1542  3.3621  0.6588
  833MOL0     H12446   3.407   1.878  10.802 -2.1643  0.3708  1.3073
  833MOL0     H12447   3.349   1.998  10.590 -0.9653 -0.7750  0.5032
  833MOL0     H12448   3.280   2.121  10.702 -0.8016 -0.2134  3.0516
  833MOL0     H12449   3.114   1.997  10.778  0.7707 -0.4746 -0.1281
  833MOL0     H12450   3.105   1.979  10.600  3.1634 -1.3906 -2.2278
  833MOL0     H12451   3.228   1.593  10.678 -1.3467 -0.4908 -0.3557
  833MOL0     H12452   3.771   1.956  10.554  2.3745  1.8405 -3.0151
  833MOL0     H12453   4.059   2.042  10.412  1.2180 -1.9205 -1.7803
  833MOL0     H12454   4.133   1.966  10.555 -0.5615  0.7977 -0.2707
  833MOL0     H12455   3.992   1.891  10.472 -1.5487  0.0391 -1.3551
  834MOL0     O12456   4.868   1.793   9.834  0.3457 -0.1129 -0.4057
  834MOL0     C12457   4.878   1.679   9.786 -0.1405 -0.6064 -0.4289
  834MOL0     O12458   4.997   1.618   9.762 -0.0323 -0.5311 -0.2144
  834MOL0     C12459   5.116   1.689   9.788 -0.0123  0.2282  0.5704
  834MOL0     C12460   5.183   1.757   9.690  0.1861  0.0024 -0.8120
  834MOL0     C12461   5.291   1.846   9.732  0.7758  0.2855 -0.1249
  834MOL0     C12462   5.335   1.858   9.864 -0.2742 -0.6434 -0.4910
  834MOL0     O12463   5.442   1.936   9.890  0.1562  0.6316 -0.1410
  834MOL0     C12464   5.574   1.870   9.857 -1.2322 -1.0154  0.4513
  834MOL0     C12465   5.696   1.953   9.896 -0.0904 -0.0782  0.6994
  834MOL0     C12466   5.687   1.991  10.043  1.0143 -0.3538 -0.8097
  834MOL0     C12467   5.820   2.059  10.077  0.0508  0.1668 -0.3298
  834MOL0     C12468   5.817   2.126  10.221 -0.8137 -0.5275 -0.4180
  834MOL0     C12469   5.957   2.169  10.274 -0.6571 -0.2353 -0.4925
  834MOL0     C12470   5.946   2.253  10.407 -0.4683 -0.2440  0.3040
  834MOL0     C12471   6.083   2.304  10.458  0.3823 -0.0571  0.1986
  834MOL0     N12472   6.160   2.185  10.503 -0.0045 -0.0007  0.1078
  834MOL0     C12473   6.251   2.110  10.436  0.3957 -0.4798 -0.3155
  834MOL0     C12474   6.263   1.999  10.513  0.3227 -0.3023  0.3851
  834MOL0     C12475   6.358   1.882  10.486 -0.3780 -0.1979  1.3513
  834MOL0     C12476   6.499   1.941  10.498  0.2777 -0.7086 -1.3489
  834MOL0     C12477   6.541   1.984  10.642  0.2580  0.0575 -0.0559
  834MOL0     C12478   6.546   1.874  10.748 -0.2019 -0.1564  0.3636
  834MOL0     O12479   6.601   1.751  10.703  0.5627  0.0500  0.2472
  834MOL0     C12480   6.738   1.732  10.706  0.5269  0.8440  0.1851
  834MOL0     C12481   6.779   1.637  10.794 -0.0773 -0.4617 -0.5269
  834MOL0     C12482   6.916   1.626  10.815  0.4873  0.8533 -0.4127
  834MOL0     C12483   7.012   1.683  10.731 -0.1219 -0.0650 -0.2637
  834MOL0     C12484   7.153   1.650  10.746  1.2474 -0.8775 -0.4479
  834MOL0     O12485   7.181   1.590  10.869 -0.2399  0.2907  0.0560
  834MOL0     C12486   7.309   1.583  10.898  0.0825 -0.3497  1.1127
  834MOL0     C12487   7.381   1.698  10.917 -1.2320 -0.7332 -0.6591
  834MOL0     C12488   7.521   1.701  10.948  0.2723  0.6929  0.2324
  834MOL0     C12489   7.580   1.579  10.979 -0.4156 -0.5350 -0.5072
  834MOL0     O12490   7.713   1.586  11.011 -0.1591  0.4403  0.5273
  834MOL0     C12491   7.793   1.471  11.023  0.0692  0.4136 -0.5712
  834MOL0     C12492   7.941   1.529  11.051 -0.0677  0.3007  0.8400
  834MOL0     C12493   8.041   1.408  11.040  0.0394  0.2639  0.4943
  834MOL0     C12494   8.174   1.453  11.107  0.5675 -0.2630 -0.4859
  834MOL0     C12495   8.281   1.354  11.084 -0.7922  0.0329 -0.0609
  834MOL0     C12496   8.415   1.420  11.113  0.7203  0.1085 -0.6858
  834MOL0     C12497   8.542   1.376  11.047  0.1541 -0.9296  0.5584
  834MOL0     C12498   8.664   1.459  11.065 -1.1197  0.2105  0.6763
  834MOL0    Cl12499   8.705   1.461  11.240  0.1780  0.1776  0.3347
  834MOL0     C12500   7.514   1.457  10.960 -0.0003 -0.4670  0.2851
  834MOL0     C12501   7.380   1.458  10.917 -0.8379 -0.4465 -1.1799
  834MOL0     O12502   7.235   1.688  10.663  0.2039  0.0379 -0.0864
  834MOL0     C12503   6.967   1.764  10.629 -0.0672 -0.6352  0.3870
  834MOL0     C12504   6.835   1.790  10.620 -0.5034  0.0511  0.0035
  834MOL0     N12505   6.183   2.011  10.628 -0.0746 -0.2016 -0.2913
  834MOL0     N12506   6.125   2.127  10.614  0.0607 -0.1875  0.0736
  834MOL0     C12507   5.271   1.790   9.964  0.2758 -0.7965 -0.0053
  834MOL0     C12508   5.163   1.705   9.922 -0.0511 -0.6277  0.0361
  834MOL0     C12509   4.748   1.614   9.752  0.9720 -0.1626 -0.8300
  834MOL0     C12510   4.633   1.661   9.823  0.4162  0.0332 -0.8563
  834MOL0     C12511   4.506   1.612   9.789  0.5277 -0.4107 -0.3110
  834MOL0     C12512   4.495   1.503   9.699  0.5609 -0.1427  0.1184
  834MOL0     O12513   4.385   1.434   9.656  0.0407 -0.3509 -0.2236
  834MOL0     C12514   4.249   1.475   9.695 -0.8241 -0.1862 -0.1624
  834MOL0     C12515   4.195   1.353   9.756  0.6517 -0.4855 -0.1691
  834MOL0     C12516   4.248   1.333   9.892  0.6322  0.4135 -0.5689
  834MOL0     C12517   4.224   1.193   9.949 -0.1100  0.2335  0.0731
  834MOL0     C12518   4.102   1.120   9.911 -0.1430  0.6994  0.3227
  834MOL0     C12519   4.001   1.062   9.878 -0.0789 -0.2974 -0.4614
  834MOL0     C12520   4.606   1.443   9.644 -0.5487 -0.0047 -0.3106
  834MOL0     C12521   4.736   1.499   9.672 -0.7800  0.0457 -1.1039
  834MOL0     C12522   4.855   1.421   9.618 -0.1348  0.4052 -0.2132
  834MOL0     H12523   5.156   1.749   9.585  1.0300 -0.5558 -0.9990
  834MOL0     H12524   5.349   1.909   9.665  1.5807 -0.1679  0.1236
  834MOL0     H12525   5.579   1.769   9.896 -0.3576 -0.5376  1.6111
  834MOL0     H12526   5.576   1.854   9.748 -1.7725  1.2144  0.0541
  834MOL0     H12527   5.696   2.048   9.843  0.8322  2.1867  4.4253
  834MOL0     H12528   5.784   1.890   9.879 -0.5052 -0.2118 -1.1685
  834MOL0     H12529   5.667   1.906  10.109 -0.1159  1.1052  0.8385
  834MOL0     H12530   5.602   2.057  10.064  0.3761 -0.3858 -3.0920
  834MOL0     H12531   5.903   1.987  10.075 -0.2952 -0.2322 -0.6902
  834MOL0     H12532   5.843   2.143  10.012 -0.0651  0.9174  0.5896
  834MOL0     H12533   5.761   2.220  10.218  0.7863  0.5765  1.6356
  834MOL0     H12534   5.772   2.060  10.296  1.3482 -0.7744  0.7398
  834MOL0     H12535   6.010   2.075  10.294 -0.9720 -0.4687 -0.7436
  834MOL0     H12536   6.002   2.229  10.194 -6.8728  1.0021 -3.6798
  834MOL0     H12537   5.898   2.198  10.488  0.8117  0.6163  1.7094
  834MOL0     H12538   5.881   2.339  10.389 -2.8472 -1.9717  0.3145
  834MOL0     H12539   6.133   2.363  10.381  0.0066  3.9427  2.6914
  834MOL0     H12540   6.059   2.374  10.539 -2.2630  0.5891 -1.0398
  834MOL0     H12541   6.295   2.125  10.338  1.0618 -0.0233  0.0434
  834MOL0     H12542   6.334   1.807  10.562 -3.3385 -0.7101  0.0633
  834MOL0     H12543   6.337   1.847  10.384 -3.0448 -1.1379  2.1581
  834MOL0     H12544   6.576   1.877  10.455  2.3089  2.2208 -2.3184
  834MOL0     H12545   6.502   2.032  10.438  0.8082 -0.1823 -0.5399
  834MOL0     H12546   6.469   2.059  10.674 -1.1037 -0.8624 -0.8314
  834MOL0     H12547   6.640   2.027  10.627  0.5422 -0.3776  0.5013
  834MOL0     H12548   6.441   1.856  10.774  0.0774 -2.0654  0.2759
  834MOL0     H12549   6.604   1.912  10.833  0.5935 -1.6369  0.5217
  834MOL0     H12550   6.710   1.602  10.871 -1.3058  1.7254 -0.5558
  834MOL0     H12551   6.943   1.559  10.896 -0.6097  2.4183  1.3030
  834MOL0     H12552   7.327   1.792  10.905  0.0934  0.1385 -0.0394
  834MOL0     H12553   7.579   1.793  10.939  0.0705  0.9338  1.2409
  834MOL0     H12554   7.764   1.411  11.110  1.7204 -1.7007 -1.4132
  834MOL0     H12555   7.794   1.406  10.936 -1.7326  0.9210 -1.0283
  834MOL0     H12556   7.963   1.607  10.977 -3.0417 -0.5396 -1.1135
  834MOL0     H12557   7.949   1.568  11.153  0.9629  0.4687  0.7076
  834MOL0     H12558   8.003   1.315  11.084  1.9708 -0.5280  0.5709
  834MOL0     H12559   8.052   1.381  10.934  0.5023 -1.4076  0.9347
  834MOL0     H12560   8.164   1.463  11.215  1.1531  1.3115 -0.5388
  834MOL0     H12561   8.207   1.550  11.068  0.6006 -0.4863 -1.0314
  834MOL0     H12562   8.287   1.327  10.978  2.0552  2.1270 -0.5462
  834MOL0     H12563   8.275   1.268  11.151 -0.6992  3.4602  4.8197
  834MOL0     H12564   8.410   1.527  11.093  2.9933  0.6938  1.3916
  834MOL0     H12565   8.434   1.408  11.220  0.7095  1.2775 -0.5467
  834MOL0     H12566   8.510   1.371  10.943 -3.0688 -1.6818  1.4775
  834MOL0     H12567   8.562   1.276  11.085  1.1272 -0.8557  0.2717
  834MOL0     H12568   8.757   1.420  11.021  1.1248  0.5296  4.6425
  834MOL0     H12569   8.646   1.560  11.026  3.1936  0.9987  0.1795
  834MOL0     H12570   7.572   1.365  10.970 -1.1567 -1.3757 -0.9062
  834MOL0     H12571   7.342   1.357  10.904  0.9196 -1.3203  0.0773
  834MOL0     H12572   7.038   1.813  10.564  2.0613  0.1986  3.1776
  834MOL0     H12573   6.802   1.857  10.541 -2.0239  1.7734  1.9696
  834MOL0     H12574   5.295   1.782  10.070  0.4277  1.9348  0.2365
  834MOL0     H12575   5.107   1.653  10.000 -1.3471 -0.7337 -0.9291
  834MOL0     H12576   4.639   1.736   9.901  1.3580  0.2526 -1.1256
  834MOL0     H12577   4.412   1.657   9.817 -0.0775 -1.9965  0.3023
  834MOL0     H12578   4.183   1.493   9.609 -0.1984  1.3202 -0.3592
  834MOL0     H12579   4.249   1.571   9.747  0.4337 -0.2050 -0.0979
  834MOL0     H12580   4.227   1.267   9.696 -1.9133  0.2786 -2.8732
  834MOL0     H12581   4.085   1.356   9.756  0.6360  1.0450  1.9292
  834MOL0     H12582   4.194   1.399   9.961 -0.0283 -0.2474 -0.4400
  834MOL0     H12583   4.354   1.352   9.909  0.2250  2.1626  0.2312
  834MOL0     H12584   4.307   1.133   9.912 -1.0629 -0.4573 -1.0372
  834MOL0     H12585   4.223   1.194  10.058  0.8741  0.2635  0.0838
  834MOL0     H12586   3.911   1.021   9.836  0.6912  0.4796 -3.0248
  834MOL0     H12587   4.599   1.351   9.587  0.9197 -1.0729  1.1236
  834MOL0     H12588   4.823   1.328   9.571 -1.3876  0.5124  0.4019
  834MOL0     H12589   4.917   1.484   9.554  0.3532 -1.3745 -1.5635
  834MOL0     H12590   4.925   1.393   9.698 -1.0319 -2.3208 -0.2898
  835MOL0     O12591   2.346   9.395  10.425  0.4334 -0.1261  0.1840
  835MOL0     C12592   2.325   9.284  10.478 -0.0674 -0.4165  0.0417
  835MOL0     O12593   2.209   9.209  10.466  0.3995  0.2888  1.1843
  835MOL0     C12594   2.094   9.270  10.425  0.2684 -0.1264  1.0281
  835MOL0     C12595   2.058   9.409  10.415 -0.6301 -0.9613 -0.0763
  835MOL0     C12596   1.930   9.456  10.376 -0.3014  0.4342  0.3597
  835MOL0     C12597   1.836   9.361  10.333 -0.1993  0.9211 -0.4402
  835MOL0     O12598   1.723   9.418  10.285 -0.1952  0.1879  0.1663
  835MOL0     C12599   1.606   9.331  10.272  0.0075 -0.1878  0.2645
  835MOL0     C12600   1.482   9.419  10.245 -0.0990  0.0691  0.7592
  835MOL0     C12601   1.451   9.533  10.338  0.7045 -0.5156  0.0207
  835MOL0     C12602   1.319   9.600  10.299  0.1549 -0.1406  0.3326
  835MOL0     C12603   1.289   9.733  10.362 -0.5301  0.4259  0.2057
  835MOL0     C12604   1.142   9.769  10.362  0.7797  0.6231  0.6499
  835MOL0     C12605   1.063   9.765  10.234 -0.0088 -0.1951  0.9660
  835MOL0     C12606   1.126   9.862  10.129  0.8294 -0.3512 -0.5386
  835MOL0     N12607   1.138  10.000  10.168  0.0478  0.5277 -0.8077
  835MOL0     C12608   1.250  10.064  10.222  0.0861  0.5039  0.8751
  835MOL0     C12609   1.205  10.176  10.279  0.3264 -0.5461 -0.1659
  835MOL0     C12610   1.291  10.294  10.330 -0.6358 -0.2580 -0.3741
  835MOL0     C12611   1.379  10.341  10.212 -0.2961  0.2975  0.4613
  835MOL0     C12612   1.454  10.468  10.261 -0.1275 -0.0578 -0.2523
  835MOL0     C12613   1.528  10.525  10.136 -0.2030 -0.0800  0.2315
  835MOL0     O12614   1.585  10.654  10.170  0.0825  0.2815  0.1830
  835MOL0     C12615   1.712  10.668  10.126  0.6064 -0.6940 -1.0432
  835MOL0     C12616   1.740  10.753  10.017  0.1782 -0.3262  0.5253
  835MOL0     C12617   1.872  10.799  10.001  0.5526 -0.4194  0.5699
  835MOL0     C12618   1.980  10.760  10.087 -0.3984 -0.3184  0.1466
  835MOL0     C12619   2.114  10.807  10.065 -0.0434  0.2653  0.6357
  835MOL0     O12620   2.196  10.753  10.162  0.6327  0.1022 -0.0535
  835MOL0     C12621   2.322  10.740  10.123  0.0337  0.6379  0.1062
  835MOL0     C12622   2.419  10.828  10.169 -0.3549 -0.3072  0.9559
  835MOL0     C12623   2.550  10.828  10.114  0.3633 -0.6121  0.7449
  835MOL0     C12624   2.588  10.740  10.014  0.7758  0.2557 -0.0818
  835MOL0     O12625   2.711  10.756   9.948  0.1892  0.5649  1.1697
  835MOL0     C12626   2.806  10.658   9.969 -0.1222 -0.1533 -0.1571
  835MOL0     C12627   2.842  10.633  10.109  1.0103  0.2504 -0.4054
  835MOL0     C12628   2.984  10.587  10.129  0.8591  0.1555  0.2420
  835MOL0     C12629   3.018  10.460  10.052  0.3980 -0.6665 -0.3023
  835MOL0     C12630   3.143  10.385  10.092  1.1774 -0.1015 -0.2782
  835MOL0     C12631   3.172  10.259  10.005  0.5375  0.1788 -0.9132
  835MOL0     C12632   3.304  10.186  10.044 -0.3156  0.4327 -0.2194
  835MOL0     C12633   3.292  10.124  10.178 -0.0097  0.0474 -0.3590
  835MOL0    Cl12634   3.439  10.024  10.237 -0.2161  0.2666 -0.0687
  835MOL0     C12635   2.498  10.644   9.977 -0.2663 -0.5689  0.4384
  835MOL0     C12636   2.369  10.635  10.039  0.0806  0.3085  0.9081
  835MOL0     O12637   2.143  10.881   9.973  0.0618  0.7942  0.0018
  835MOL0     C12638   1.938  10.682  10.201 -1.3612 -0.3239  0.5614
  835MOL0     C12639   1.809  10.637  10.219  0.3725  0.8552 -0.2817
  835MOL0     N12640   1.068  10.179  10.268 -0.1352 -0.1564 -0.6320
  835MOL0     N12641   1.027  10.078  10.194 -0.9411  0.4412 -0.1171
  835MOL0     C12642   1.872   9.226  10.339  0.7914  0.5923  0.3930
  835MOL0     C12643   1.997   9.182  10.387  0.7457  0.4933  0.2670
  835MOL0     C12644   2.446   9.224  10.544 -0.1173 -0.1653  0.0867
  835MOL0     C12645   2.430   9.088  10.594 -0.8483 -0.3552 -0.4312
  835MOL0     C12646   2.537   9.026  10.663 -0.0181  1.1219 -0.7459
  835MOL0     C12647   2.659   9.091  10.686  0.1333 -0.1567  0.2762
  835MOL0     O12648   2.760   9.034  10.754 -0.6799 -0.1509 -0.3157
  835MOL0     C12649   2.761   8.898  10.789  0.3278 -0.5519 -0.1626
  835MOL0     C12650   2.893   8.869  10.877  0.0123  0.2152  0.7502
  835MOL0     C12651   3.025   8.941  10.850  0.0600  0.3096 -0.4856
  835MOL0     C12652   3.128   8.914  10.958 -1.2747 -0.0739  1.0192
  835MOL0     C12653   3.254   8.976  10.923 -0.7895  0.7065 -0.2865
  835MOL0     C12654   3.357   9.015  10.880 -0.2593  0.0965  0.8900
  835MOL0     C12655   2.673   9.224  10.643  1.3074  0.4659  0.1432
  835MOL0     C12656   2.569   9.292  10.579 -0.0273  0.4247 -0.4674
  835MOL0     C12657   2.605   9.434  10.559 -0.6036 -0.0893  0.4872
  835MOL0     H12658   2.131   9.476  10.460 -0.3860  0.0746 -1.9049
  835MOL0     H12659   1.892   9.557  10.387 -0.6499  0.2213  1.1799
  835MOL0     H12660   1.621   9.273  10.181 -1.0940 -0.3624  0.1787
  835MOL0     H12661   1.584   9.271  10.361  2.3504 -0.7648  0.5060
  835MOL0     H12662   1.399   9.347  10.243  1.6687 -2.1146  1.6984
  835MOL0     H12663   1.498   9.457  10.143 -0.0591 -0.5930  0.5146
  835MOL0     H12664   1.535   9.601  10.328  1.3600 -1.5523 -2.2610
  835MOL0     H12665   1.435   9.499  10.441  0.2911 -1.9338 -0.4804
  835MOL0     H12666   1.322   9.600  10.190  0.4743 -3.4888  0.2238
  835MOL0     H12667   1.237   9.533  10.327  0.5290 -0.2909  1.0975
  835MOL0     H12668   1.312   9.741  10.469 -0.6495  4.4284  0.0834
  835MOL0     H12669   1.339   9.811  10.304  1.9740 -0.8664  0.4783
  835MOL0     H12670   1.099   9.691  10.425  3.2699  0.5651  2.4256
  835MOL0     H12671   1.136   9.868  10.408  0.0531  0.7444  0.3147
  835MOL0     H12672   0.962   9.805  10.250  0.7531  1.3920  2.0268
  835MOL0     H12673   1.053   9.664  10.195 -0.0579  0.0210  0.4025
  835MOL0     H12674   1.223   9.816  10.111 -0.1591 -2.7604 -0.1291
  835MOL0     H12675   1.086   9.858  10.027  0.3971  0.1109 -0.3897
  835MOL0     H12676   1.351  10.028  10.210  1.1407  2.8554  2.0004
  835MOL0     H12677   1.220  10.375  10.354 -0.0552  0.3064 -0.5321
  835MOL0     H12678   1.354  10.277  10.418  0.2867 -1.1597 -1.1897
  835MOL0     H12679   1.448  10.258  10.196  0.8497  1.1988  0.5379
  835MOL0     H12680   1.326  10.354  10.118 -2.1183  1.0756  1.5420
  835MOL0     H12681   1.529  10.437  10.335 -0.4724 -1.7529 -0.5679
  835MOL0     H12682   1.375  10.531  10.301  0.6987 -0.8510  2.8777
  835MOL0     H12683   1.464  10.535  10.048  2.4090  2.2584 -1.6047
  835MOL0     H12684   1.608  10.457  10.105  3.2212  2.8774  1.8143
  835MOL0     H12685   1.659  10.787   9.954  0.9812  1.9469  0.6180
  835MOL0     H12686   1.902  10.851   9.910  3.5460 -2.1520  0.4434
  835MOL0     H12687   2.385  10.900  10.243  1.8961  1.1040  0.7247
  835MOL0     H12688   2.620  10.903  10.151  0.9206 -1.3375  1.1721
  835MOL0     H12689   2.760  10.565   9.936 -0.8042 -0.2175  0.9161
  835MOL0     H12690   2.893  10.673   9.904 -0.3944 -1.3551 -0.8081
  835MOL0     H12691   2.827  10.730  10.156 -1.4888  0.9123 -2.3704
  835MOL0     H12692   2.773  10.563  10.158  0.2584  1.4000  0.2369
  835MOL0     H12693   3.043  10.676  10.105 -1.5060  1.4009 -1.3492
  835MOL0     H12694   2.983  10.558  10.234  1.3910 -0.9813 -0.0522
  835MOL0     H12695   3.017  10.479   9.945  0.3801  1.1831 -0.0048
  835MOL0     H12696   2.935  10.391  10.070 -0.4436  1.1666  4.5384
  835MOL0     H12697   3.132  10.352  10.196  0.2358  3.2091  0.7882
  835MOL0     H12698   3.228  10.454  10.091  2.3508 -1.4760  0.2844
  835MOL0     H12699   3.083  10.196  10.016  1.1176 -0.1525  3.3724
  835MOL0     H12700   3.174  10.290   9.900  0.9309  3.7686  0.0106
  835MOL0     H12701   3.391  10.253  10.040  0.6310 -0.6353  1.3250
  835MOL0     H12702   3.316  10.117   9.961 -0.5266  1.5458 -1.2083
  835MOL0     H12703   3.272  10.208  10.245  0.8208  2.2811 -2.7646
  835MOL0     H12704   3.205  10.057  10.183 -1.4183  1.7760 -0.8589
  835MOL0     H12705   2.534  10.570   9.907 -1.1348 -0.2068 -0.3969
  835MOL0     H12706   2.294  10.557  10.027  0.7864 -0.1234 -1.2035
  835MOL0     H12707   2.014  10.641  10.266  0.1005 -1.5115 -1.7599
  835MOL0     H12708   1.774  10.580  10.305  0.9484  1.0621  0.0940
  835MOL0     H12709   1.799   9.151  10.313  0.2677  1.2748 -0.1718
  835MOL0     H12710   2.014   9.075  10.397 -2.0551 -0.0815 -0.1523
  835MOL0     H12711   2.347   9.023  10.570 -1.6284  0.3430  0.3012
  835MOL0     H12712   2.524   8.919  10.680 -1.6014  1.0913 -1.9359
  835MOL0     H12713   2.772   8.839  10.698  0.9727  1.1751 -1.2477
  835MOL0     H12714   2.669   8.871  10.841  0.2221 -1.6352 -0.8806
  835MOL0     H12715   2.908   8.762  10.890 -1.9951  0.0450  2.2252
  835MOL0     H12716   2.879   8.913  10.976 -2.2261  2.2853 -0.3762
  835MOL0     H12717   3.013   9.049  10.863  1.5689  0.3616  0.6749
  835MOL0     H12718   3.051   8.919  10.746  2.3267  1.0008 -0.1174
  835MOL0     H12719   3.096   8.965  11.049  0.2987 -1.7185  2.6131
  835MOL0     H12720   3.147   8.808  10.980 -1.4716 -0.2893  0.1946
  835MOL0     H12721   3.451   9.046  10.840  1.2003 -1.3245  3.0317
  835MOL0     H12722   2.760   9.288  10.655 -0.5290  3.0014  1.1134
  835MOL0     H12723   2.516   9.495  10.542 -1.0848 -0.3276  1.9823
  835MOL0     H12724   2.654   9.475  10.649  0.5108 -0.8534  0.2502
  835MOL0     H12725   2.668   9.447  10.470 -0.9227  1.0276  0.4118
  836MOL0     O12726   0.593   8.794   1.960  0.0349 -0.2763  0.5794
  836MOL0     C12727   0.585   8.741   1.848  0.9876  0.2983  0.0990
  836MOL0     O12728   0.690   8.716   1.767 -0.2035 -0.1045  0.0244
  836MOL0     C12729   0.815   8.752   1.803  0.1213 -1.1789 -0.3402
  836MOL0     C12730   0.881   8.699   1.914  0.2283  0.6102 -1.1018
  836MOL0     C12731   1.009   8.734   1.934 -0.3358 -1.0077 -0.3458
  836MOL0     C12732   1.074   8.838   1.867 -1.4807  1.1471  0.6199
  836MOL0     O12733   1.194   8.878   1.909  0.3587 -0.8821 -0.1591
  836MOL0     C12734   1.220   9.016   1.891 -0.7288 -1.5969  0.4978
  836MOL0     C12735   1.312   9.068   2.002 -0.2607 -0.4411  0.7197
  836MOL0     C12736   1.308   9.218   2.029 -0.6060 -0.8958  0.4110
  836MOL0     C12737   1.366   9.318   1.923 -0.3506  1.4601  0.6955
  836MOL0     C12738   1.518   9.318   1.916  1.1065 -0.4156 -0.4954
  836MOL0     C12739   1.591   9.197   1.869 -0.0101  0.7220  0.8065
  836MOL0     C12740   1.710   9.222   1.783  0.3397  0.1989 -0.1502
  836MOL0     C12741   1.784   9.086   1.751 -0.7847 -0.0816  1.2046
  836MOL0     N12742   1.924   9.124   1.725 -1.4927  0.3564 -0.6675
  836MOL0     C12743   1.987   9.161   1.607  1.3804  0.6012 -0.0174
  836MOL0     C12744   2.122   9.180   1.633 -0.4193  0.4082  0.0724
  836MOL0     C12745   2.235   9.211   1.530  0.2664 -0.7397  0.2235
  836MOL0     C12746   2.331   9.102   1.527  0.8018  0.2411  0.1652
  836MOL0     C12747   2.462   9.147   1.459 -0.6357 -1.0617 -0.3528
  836MOL0     C12748   2.571   9.038   1.493  0.4379 -0.1697  1.2819
  836MOL0     O12749   2.663   9.031   1.391 -0.1432 -0.1154 -0.5648
  836MOL0     C12750   2.792   9.088   1.417  0.9727 -0.2505  0.1319
  836MOL0     C12751   2.830   9.157   1.532  0.9069 -0.7865  0.5863
  836MOL0     C12752   2.962   9.198   1.546 -0.1590  0.3399 -0.2252
  836MOL0     C12753   3.059   9.167   1.445  0.6316 -0.1407  0.2100
  836MOL0     C12754   3.203   9.193   1.466 -0.4680  0.2330  0.4060
  836MOL0     O12755   3.297   9.159   1.366 -0.0780  0.1183 -0.7526
  836MOL0     C12756   3.427   9.177   1.395 -0.1045  0.0179 -0.3796
  836MOL0     C12757   3.498   9.067   1.445 -0.6064  0.3020 -0.2567
  836MOL0     C12758   3.634   9.073   1.466 -0.2410 -0.2695 -0.7959
  836MOL0     C12759   3.698   9.199   1.458 -0.1521  0.0346  0.8033
  836MOL0     O12760   3.830   9.223   1.484 -0.7559 -0.8414  0.5585
  836MOL0     C12761   3.913   9.119   1.544 -1.1026 -1.0899 -0.0986
  836MOL0     C12762   4.049   9.188   1.579  0.8447 -1.0818  0.1937
  836MOL0     C12763   4.143   9.095   1.661 -0.1525  0.2943 -0.5446
  836MOL0     C12764   4.286   9.152   1.670 -0.1796 -0.0845 -0.0502
  836MOL0     C12765   4.371   9.059   1.760 -0.2728 -0.1574 -0.2910
  836MOL0     C12766   4.509   9.122   1.797 -1.0491  0.6298 -0.3918
  836MOL0     C12767   4.599   9.025   1.878 -0.8554 -0.6550 -0.1807
  836MOL0     C12768   4.728   9.095   1.923 -0.6887 -0.0428  0.2208
  836MOL0    Cl12769   4.814   8.992   2.045  0.2764  0.0129 -0.1718
  836MOL0     C12770   3.631   9.309   1.416  0.2387 -0.1302 -0.4375
  836MOL0     C12771   3.494   9.299   1.378  0.9771  0.0292 -1.0381
  836MOL0     O12772   3.227   9.246   1.576 -0.6103 -0.1248  0.9153
  836MOL0     C12773   3.020   9.095   1.325 -0.1732 -0.0864  0.1235
  836MOL0     C12774   2.884   9.063   1.310  0.0956 -0.2109 -0.3170
  836MOL0     N12775   2.138   9.170   1.771 -0.5920 -0.2087  0.1420
  836MOL0     N12776   2.025   9.149   1.824  0.3527  0.1467  0.2871
  836MOL0     C12777   1.006   8.893   1.751 -0.2847  0.7101 -0.0591
  836MOL0     C12778   0.873   8.853   1.732  0.1071 -0.1527 -0.0076
  836MOL0     C12779   0.443   8.701   1.791 -0.2418 -0.5498 -0.4228
  836MOL0     C12780   0.437   8.697   1.647 -0.6220  0.3038 -0.8164
  836MOL0     C12781   0.319   8.657   1.581 -0.3716  0.2831 -0.8017
  836MOL0     C12782   0.213   8.608   1.650  0.5025  0.4746 -0.7229
  836MOL0     O12783   0.106   8.584   1.570 -0.6198 -0.0976 -0.0519
  836MOL0     C12784  -0.013   8.521   1.625  0.4393  0.0329  0.7361
  836MOL0     C12785  -0.133   8.571   1.537 -0.1926  0.1588 -0.2440
  836MOL0     C12786  -0.132   8.724   1.528  0.4148  0.3172  0.6157
  836MOL0     C12787  -0.140   8.769   1.384 -0.6699  0.0544  0.3769
  836MOL0     C12788  -0.278   8.778   1.331 -0.0478  0.0048  0.0911
  836MOL0     C12789  -0.394   8.781   1.299  0.4298  0.4712 -0.3061
  836MOL0     C12790   0.218   8.608   1.796 -0.7084  0.1030 -0.4065
  836MOL0     C12791   0.327   8.665   1.860 -0.2043 -0.3059  0.3748
  836MOL0     C12792   0.317   8.701   2.002  0.9676  0.6727  0.6076
  836MOL0     H12793   0.842   8.620   1.978 -1.0585  2.8612  1.0412
  836MOL0     H12794   1.070   8.682   2.007  0.2060  0.7450  0.4762
  836MOL0     H12795   1.286   9.035   1.806 -2.6530 -1.3153 -1.0071
  836MOL0     H12796   1.137   9.086   1.873  3.6417  4.0841 -0.6544
  836MOL0     H12797   1.412   9.030   1.979  0.1447  0.1691  1.4011
  836MOL0     H12798   1.294   9.017   2.097  2.4482 -2.9493  0.0195
  836MOL0     H12799   1.355   9.236   2.126  1.2291  1.3056 -0.7887
  836MOL0     H12800   1.209   9.247   2.067  0.2602  0.2892  1.8875
  836MOL0     H12801   1.327   9.287   1.826 -1.5156 -0.2194  1.6571
  836MOL0     H12802   1.333   9.420   1.947 -1.1081  1.5468 -0.6173
  836MOL0     H12803   1.543   9.403   1.852 -0.5773 -1.5082 -2.7419
  836MOL0     H12804   1.546   9.345   2.018 -0.2978 -0.1577 -0.1592
  836MOL0     H12805   1.616   9.131   1.953 -3.2558 -1.6208  0.1304
  836MOL0     H12806   1.529   9.133   1.805  4.1303 -2.4461 -0.5068
  836MOL0     H12807   1.781   9.283   1.841 -0.6599  2.1795 -0.9230
  836MOL0     H12808   1.675   9.281   1.698 -2.3534  0.8463  1.3183
  836MOL0     H12809   1.773   9.012   1.830 -0.1998 -0.2174  1.1599
  836MOL0     H12810   1.747   9.041   1.658  2.1613  1.0206 -0.6633
  836MOL0     H12811   1.949   9.145   1.507 -0.0348 -2.9568  0.9044
  836MOL0     H12812   2.191   9.233   1.432 -0.4210 -2.4804  0.0934
  836MOL0     H12813   2.288   9.303   1.553  2.7239 -1.5222 -1.8586
  836MOL0     H12814   2.364   9.065   1.625 -0.7705  1.4968  1.2235
  836MOL0     H12815   2.290   9.022   1.465 -0.0037 -1.0125  2.1933
  836MOL0     H12816   2.509   9.241   1.489 -2.5565  0.8894 -2.9935
  836MOL0     H12817   2.449   9.161   1.351 -1.2627 -1.1858 -0.2974
  836MOL0     H12818   2.520   8.942   1.479 -0.7251  0.5393  0.4346
  836MOL0     H12819   2.611   9.053   1.594  2.7125  1.1362  0.2605
  836MOL0     H12820   2.766   9.183   1.616  1.0351 -1.2084  0.8197
  836MOL0     H12821   2.998   9.240   1.640 -1.0794 -0.5008  0.5264
  836MOL0     H12822   3.446   8.972   1.453  0.4930 -0.2646  0.4969
  836MOL0     H12823   3.684   8.977   1.482 -1.4206 -1.1843 -2.3503
  836MOL0     H12824   3.856   9.082   1.630  1.2880  0.5326  2.3371
  836MOL0     H12825   3.936   9.045   1.467  0.0487 -0.1899 -0.6464
  836MOL0     H12826   4.092   9.212   1.482  1.7662  0.6281  0.9832
  836MOL0     H12827   4.034   9.287   1.623 -1.3486 -2.1502  2.0977
  836MOL0     H12828   4.103   9.070   1.760 -1.3982  1.1264 -0.8145
  836MOL0     H12829   4.140   8.998   1.610 -1.8559  0.7877 -1.4733
  836MOL0     H12830   4.278   9.252   1.713  0.3544  0.6605 -1.5988
  836MOL0     H12831   4.331   9.155   1.570  2.1432 -0.3891  0.9371
  836MOL0     H12832   4.387   8.963   1.710  4.8050  0.2979 -0.0313
  836MOL0     H12833   4.320   9.051   1.856 -2.2559  0.4691 -1.2293
  836MOL0     H12834   4.556   9.131   1.699  0.5454  1.8469  0.4322
  836MOL0     H12835   4.502   9.225   1.833  0.0008  0.1343  1.3627
  836MOL0     H12836   4.632   8.939   1.820  2.3053 -0.0719  0.5327
  836MOL0     H12837   4.550   8.990   1.969  1.9510 -1.3463  1.1793
  836MOL0     H12838   4.796   9.115   1.839  0.8354  0.1173  1.4371
  836MOL0     H12839   4.696   9.191   1.965  0.1553 -0.5918  2.2338
  836MOL0     H12840   3.679   9.405   1.401 -0.4073  0.0675 -1.3537
  836MOL0     H12841   3.440   9.391   1.359 -0.5843 -0.5730  0.2896
  836MOL0     H12842   3.087   9.071   1.243 -1.0510  0.8454 -0.8939
  836MOL0     H12843   2.858   9.002   1.224 -0.2970 -0.5483  0.0347
  836MOL0     H12844   1.035   8.979   1.691  0.1496  2.2438  2.2036
  836MOL0     H12845   0.811   8.901   1.658  0.8410 -1.1694 -1.3385
  836MOL0     H12846   0.509   8.741   1.579 -1.0347 -1.3020 -2.3545
  836MOL0     H12847   0.313   8.645   1.473 -2.1451 -2.8868 -0.4914
  836MOL0     H12848  -0.029   8.553   1.728 -1.6865 -0.3498  0.5690
  836MOL0     H12849  -0.014   8.412   1.622 -0.2494 -0.0280 -3.3383
  836MOL0     H12850  -0.225   8.539   1.587 -1.1686  2.5185 -0.4086
  836MOL0     H12851  -0.111   8.516   1.445  3.4288  0.6239  0.2098
  836MOL0     H12852  -0.041   8.763   1.574  0.0054 -0.9150  2.5880
  836MOL0     H12853  -0.212   8.776   1.582  2.3452  3.3932  0.7828
  836MOL0     H12854  -0.092   8.866   1.367  0.5907 -0.2021  2.1221
  836MOL0     H12855  -0.085   8.702   1.317 -2.3151  2.4012 -3.7234
  836MOL0     H12856  -0.493   8.777   1.259  0.1276  0.0458  0.4581
  836MOL0     H12857   0.131   8.578   1.853 -1.7918  0.8494 -1.6013
  836MOL0     H12858   0.396   8.642   2.051  0.0181 -1.3413 -0.1654
  836MOL0     H12859   0.326   8.810   1.998 -0.0140  0.8424  2.2383
  836MOL0     H12860   0.224   8.669   2.050  0.9633  0.3122  0.3650
  837MOL0     O12861   5.639   6.243   1.456 -0.2034 -0.9145 -0.6557
  837MOL0     C12862   5.566   6.144   1.453  0.6028 -0.4146 -0.7705
  837MOL0     O12863   5.605   6.009   1.447 -0.0748  0.0380  0.1879
  837MOL0     C12864   5.739   5.972   1.415  1.0109  0.4933  0.5326
  837MOL0     C12865   5.829   5.964   1.510 -0.7553  0.8093 -0.1118
  837MOL0     C12866   5.958   5.926   1.481 -0.5102 -0.8100 -1.4428
  837MOL0     C12867   6.005   5.906   1.351  0.3059 -0.9077 -0.1197
  837MOL0     O12868   6.140   5.891   1.338 -0.8361  0.1831  0.4741
  837MOL0     C12869   6.190   5.909   1.201 -0.0803 -0.6467 -0.5956
  837MOL0     C12870   6.338   5.931   1.196  0.0549 -0.0640 -0.5155
  837MOL0     C12871   6.381   5.969   1.048  0.4062 -0.0070  0.7535
  837MOL0     C12872   6.537   5.985   1.042  0.7427 -0.8398 -0.3054
  837MOL0     C12873   6.590   6.022   0.903 -0.1712  0.4079 -0.1312
  837MOL0     C12874   6.746   6.038   0.914  0.5803 -0.2568  0.1155
  837MOL0     C12875   6.824   6.067   0.789 -0.3310  0.1528 -0.7129
  837MOL0     C12876   6.975   6.076   0.821  0.6096 -0.0277 -0.0279
  837MOL0     N12877   7.046   6.126   0.701  0.4743  0.6968  0.0811
  837MOL0     C12878   7.171   6.160   0.712 -0.4232 -0.2759 -0.1081
  837MOL0     C12879   7.213   6.184   0.588  0.4205  0.3574  0.0295
  837MOL0     C12880   7.350   6.214   0.546 -0.0740 -0.2726 -0.1485
  837MOL0     C12881   7.416   6.081   0.489 -0.1768  0.4935  0.9566
  837MOL0     C12882   7.549   6.111   0.406 -0.6094 -0.2326 -0.9516
  837MOL0     C12883   7.666   6.152   0.497  0.0750  0.1872  0.1822
  837MOL0     O12884   7.745   6.249   0.434 -0.7847 -0.4379 -0.5720
  837MOL0     C12885   7.873   6.252   0.471 -0.1927 -0.2349 -0.5590
  837MOL0     C12886   7.926   6.206   0.594 -0.1643  0.1705 -0.0697
  837MOL0     C12887   8.069   6.209   0.626 -0.2105  0.4633 -0.6753
  837MOL0     C12888   8.155   6.256   0.525  0.1905 -0.7486  1.2068
  837MOL0     C12889   8.306   6.253   0.553  0.1989  1.0222  1.0059
  837MOL0     O12890   8.387   6.298   0.458 -0.1286 -0.7198  0.1612
  837MOL0     C12891   8.527   6.298   0.487 -0.2657 -0.0901  0.0165
  837MOL0     C12892   8.602   6.200   0.553 -0.2096 -0.1022  0.2738
  837MOL0     C12893   8.739   6.217   0.584  0.3964 -0.4041 -0.5684
  837MOL0     C12894   8.810   6.325   0.525  0.1021 -0.9841 -0.0731
  837MOL0     O12895   8.950   6.347   0.536  0.0199 -0.9023  0.2569
  837MOL0     C12896   9.037   6.248   0.588  0.0608 -0.3965 -0.6948
  837MOL0     C12897   9.179   6.262   0.551  0.3147  0.1673 -0.3663
  837MOL0     C12898   9.258   6.132   0.592 -0.2479  0.2232  0.4114
  837MOL0     C12899   9.400   6.114   0.534 -0.4866 -0.1207  0.0573
  837MOL0     C12900   9.396   6.095   0.376  0.0720  0.4201  0.5552
  837MOL0     C12901   9.526   6.070   0.310 -0.7173 -0.1434 -0.4960
  837MOL0     C12902   9.531   6.123   0.164  0.0925  0.3336 -0.0813
  837MOL0     C12903   9.679   6.123   0.118  0.2463 -0.1364  0.6232
  837MOL0    Cl12904   9.758   5.965   0.180  0.4555 -0.3790  0.5843
  837MOL0     C12905   8.727   6.415   0.445  0.3161 -0.6622  0.2415
  837MOL0     C12906   8.593   6.404   0.432 -0.2098  0.0526  0.9986
  837MOL0     O12907   8.334   6.208   0.662  0.6664 -0.3935 -0.3139
  837MOL0     C12908   8.102   6.312   0.408  0.0690  0.6256  0.0638
  837MOL0     C12909   7.962   6.313   0.385  0.5067  0.5142  0.8607
  837MOL0     N12910   7.107   6.151   0.505  0.3197  0.5937  0.0645
  837MOL0     N12911   7.004   6.109   0.570  1.0810  0.2393  0.4043
  837MOL0     C12912   5.908   5.900   1.248  0.9323  0.7086 -0.6517
  837MOL0     C12913   5.772   5.938   1.280  0.0277 -0.6429  0.3399
  837MOL0     C12914   5.420   6.165   1.452 -0.6717  0.5168 -0.3462
  837MOL0     C12915   5.337   6.108   1.555  0.2604  0.0932  0.1179
  837MOL0     C12916   5.197   6.119   1.554  0.0534 -0.3726  0.2464
  837MOL0     C12917   5.145   6.202   1.450  0.1433 -0.4487  0.4551
  837MOL0     O12918   5.014   6.224   1.442 -0.0174 -0.8238  0.2630
  837MOL0     C12919   4.953   6.126   1.360  0.0789  0.7659  0.0731
  837MOL0     C12920   4.803   6.154   1.352 -0.1789 -0.1753 -0.3039
  837MOL0     C12921   4.733   6.130   1.486 -0.1211 -0.0225 -0.3660
  837MOL0     C12922   4.594   6.209   1.493 -0.0878 -0.1384  0.0118
  837MOL0     C12923   4.503   6.150   1.393 -0.3431 -0.2912 -0.2412
  837MOL0     C12924   4.421   6.087   1.327  0.3542 -0.4779 -0.9378
  837MOL0     C12925   5.228   6.254   1.351  0.1067  0.0064  0.6004
  837MOL0     C12926   5.364   6.244   1.352 -0.7600  0.1380  0.7870
  837MOL0     C12927   5.458   6.305   1.247  0.2475 -0.5995  0.4125
  837MOL0     H12928   5.799   5.986   1.612  0.3562  0.0102  0.3970
  837MOL0     H12929   6.025   5.910   1.566  0.0117  1.9247 -1.2444
  837MOL0     H12930   6.164   5.822   1.140 -1.9804 -0.6533  0.1728
  837MOL0     H12931   6.143   5.995   1.153 -1.5626  0.0522  1.9332
  837MOL0     H12932   6.389   5.836   1.217  1.3546  0.4880 -1.0080
  837MOL0     H12933   6.362   6.010   1.268 -3.6514  0.5033  0.3056
  837MOL0     H12934   6.348   6.064   1.004  1.1984 -0.1155 -0.1291
  837MOL0     H12935   6.346   5.890   0.982  1.0815 -0.7510  1.2659
  837MOL0     H12936   6.563   6.064   1.113  0.0909 -1.0620  0.1957
  837MOL0     H12937   6.589   5.892   1.067 -0.5139 -2.2182 -2.5016
  837MOL0     H12938   6.569   5.945   0.829 -0.9452 -0.6534  1.1447
  837MOL0     H12939   6.543   6.117   0.877  0.5668  0.9765  0.5433
  837MOL0     H12940   6.772   6.116   0.986  3.2944 -1.9485  1.0896
  837MOL0     H12941   6.796   5.950   0.955 -0.0270 -0.6493  0.0194
  837MOL0     H12942   6.789   6.162   0.748  2.4406  0.6789 -2.1195
  837MOL0     H12943   6.812   5.989   0.714  1.3114 -3.0738  2.0662
  837MOL0     H12944   6.999   6.143   0.904  4.1847 -1.7026  0.4895
  837MOL0     H12945   7.013   5.977   0.847 -2.1160 -1.0719  0.2568
  837MOL0     H12946   7.232   6.158   0.802 -0.9680 -1.7684  0.2547
  837MOL0     H12947   7.350   6.287   0.465  0.8482 -0.8916 -0.7343
  837MOL0     H12948   7.411   6.250   0.630 -0.7778  0.3891  0.0925
  837MOL0     H12949   7.439   6.017   0.574 -1.1502  0.9069  1.5564
  837MOL0     H12950   7.352   6.034   0.414  0.6806 -2.9736  2.2119
  837MOL0     H12951   7.516   6.193   0.342 -4.8459 -0.6498  0.3926
  837MOL0     H12952   7.568   6.027   0.339 -0.0235  1.3735 -2.8878
  837MOL0     H12953   7.728   6.069   0.532  2.0443  1.9805  1.1830
  837MOL0     H12954   7.619   6.186   0.590  0.2101 -1.3923  0.8576
  837MOL0     H12955   7.857   6.161   0.665  0.6121 -1.2479 -0.1895
  837MOL0     H12956   8.113   6.163   0.714  0.6450  0.1216 -1.2700
  837MOL0     H12957   8.550   6.111   0.584  1.3807 -0.4991  1.9659
  837MOL0     H12958   8.789   6.140   0.642  2.9893  0.7325 -1.1200
  837MOL0     H12959   9.027   6.259   0.696 -0.3069 -0.5749 -0.7079
  837MOL0     H12960   8.998   6.147   0.569 -0.7467 -0.7243  2.2224
  837MOL0     H12961   9.183   6.279   0.444  0.9484 -0.7277 -0.5020
  837MOL0     H12962   9.220   6.350   0.602  0.8954  0.2662 -0.9929
  837MOL0     H12963   9.271   6.133   0.700  0.0368 -2.1765  0.4683
  837MOL0     H12964   9.208   6.038   0.565  1.3373 -1.3071  2.4670
  837MOL0     H12965   9.452   6.029   0.578  0.2378  1.3953  2.2865
  837MOL0     H12966   9.462   6.199   0.564  0.6854 -0.7538 -0.5229
  837MOL0     H12967   9.353   6.183   0.328 -2.0714 -0.7807  0.1231
  837MOL0     H12968   9.341   6.005   0.345  1.1502  0.5982 -2.1625
  837MOL0     H12969   9.602   6.129   0.363  1.2591 -0.2569 -3.0023
  837MOL0     H12970   9.542   5.962   0.317  0.1981  0.0700  1.5309
  837MOL0     H12971   9.483   6.221   0.160  1.7291  1.1958  0.5010
  837MOL0     H12972   9.477   6.060   0.093  0.5148 -1.1293  0.8523
  837MOL0     H12973   9.679   6.126   0.009 -0.8907  0.6002  0.6359
  837MOL0     H12974   9.737   6.206   0.159  0.0518 -0.8505  2.4620
  837MOL0     H12975   8.768   6.510   0.410 -1.5584  0.1094 -0.0129
  837MOL0     H12976   8.522   6.479   0.398 -0.0486 -0.3973 -0.3795
  837MOL0     H12977   8.168   6.362   0.338 -1.4580  1.6204 -0.7174
  837MOL0     H12978   7.936   6.351   0.286  1.2440 -1.1703 -0.0141
  837MOL0     H12979   5.935   5.869   1.147  0.5179  1.7558 -1.0942
  837MOL0     H12980   5.697   5.950   1.202  0.8229 -0.8998 -0.4832
  837MOL0     H12981   5.376   6.048   1.637 -0.1962  3.2890  2.8811
  837MOL0     H12982   5.142   6.053   1.621 -0.9501  2.3586  2.2894
  837MOL0     H12983   4.973   6.026   1.401  0.1656  0.6192 -0.3280
  837MOL0     H12984   4.992   6.128   1.258  2.0347  0.6697  0.7864
  837MOL0     H12985   4.754   6.096   1.273 -1.7318  2.4047 -1.3910
  837MOL0     H12986   4.796   6.261   1.332  2.2884 -0.1042 -1.1213
  837MOL0     H12987   4.786   6.171   1.573  0.0023  2.9890 -1.7541
  837MOL0     H12988   4.735   6.020   1.489 -0.4075 -0.0334 -0.6524
  837MOL0     H12989   4.564   6.190   1.597 -2.4584  4.3777  0.4334
  837MOL0     H12990   4.601   6.318   1.484  0.2732 -0.1272  0.3963
  837MOL0     H12991   4.367   6.027   1.255  1.5177 -0.8601 -1.5153
  837MOL0     H12992   5.182   6.316   1.275  0.6906 -0.9916 -0.5910
  837MOL0     H12993   5.392   6.341   1.166 -0.4838 -2.9969 -0.1207
  837MOL0     H12994   5.513   6.391   1.286  0.5440 -0.4682 -0.2762
  837MOL0     H12995   5.530   6.238   1.199 -1.3560 -1.0040 -1.6023
  838MOL0     O12996   1.476   0.091   3.197 -0.0492 -0.5975 -0.0562
  838MOL0     C12997   1.384   0.158   3.248 -0.5109 -0.0597 -1.3197
  838MOL0     O12998   1.409   0.261   3.336 -0.3722 -0.1792  0.0716
  838MOL0     C12999   1.535   0.269   3.397 -0.3358  0.2828 -0.3137
  838MOL0     C13000   1.539   0.284   3.537  0.3604 -0.5713 -0.2308
  838MOL0     C13001   1.654   0.319   3.601 -0.1079 -0.2820  0.2955
  838MOL0     C13002   1.771   0.318   3.537  0.0583 -0.5917 -0.3917
  838MOL0     O13003   1.895   0.345   3.604 -0.4641  0.3858  0.3522
  838MOL0     C13004   1.914   0.478   3.643  0.1626 -0.8668 -1.2623
  838MOL0     C13005   2.021   0.540   3.558 -0.0680 -1.1530 -0.1623
  838MOL0     C13006   2.165   0.498   3.595  0.3978 -0.3506 -0.4106
  838MOL0     C13007   2.265   0.608   3.588  0.9062  0.8058  0.0186
  838MOL0     C13008   2.385   0.574   3.681 -0.5879 -0.2033 -0.1126
  838MOL0     C13009   2.468   0.439   3.657  0.2367  0.1937  0.5044
  838MOL0     C13010   2.512   0.403   3.510  0.5651  0.3308  0.6419
  838MOL0     C13011   2.630   0.313   3.521  0.9923  0.2900 -0.3314
  838MOL0     N13012   2.758   0.388   3.549 -0.2443  0.3721  0.1087
  838MOL0     C13013   2.811   0.499   3.484  0.2191  0.2271  0.7929
  838MOL0     C13014   2.925   0.532   3.550  1.3940 -0.0237  0.0532
  838MOL0     C13015   3.029   0.639   3.507  0.6503  0.3646 -0.0109
  838MOL0     C13016   3.093   0.588   3.369 -0.6717  0.0523  0.2783
  838MOL0     C13017   3.215   0.677   3.340  0.4586  0.0333 -0.3162
  838MOL0     C13018   3.277   0.672   3.197  0.5478  0.5430  0.0547
  838MOL0     O13019   3.334   0.541   3.182 -0.4826 -0.1307 -0.2011
  838MOL0     C13020   3.455   0.526   3.252 -0.2507 -0.5203  1.4896
  838MOL0     C13021   3.469   0.434   3.351 -0.2366 -0.0914  0.1516
  838MOL0     C13022   3.592   0.424   3.411  0.3262  0.0197 -0.1817
  838MOL0     C13023   3.706   0.491   3.367 -0.2994 -0.7782  0.4088
  838MOL0     C13024   3.841   0.472   3.425 -0.2692  0.4075  0.5789
  838MOL0     O13025   3.945   0.524   3.356 -0.5015 -0.0720  0.0844
  838MOL0     C13026   4.083   0.516   3.392  0.1967  0.2563  0.0071
  838MOL0     C13027   4.156   0.409   3.330 -0.3816 -0.6036  0.2336
  838MOL0     C13028   4.285   0.389   3.364 -0.2058  0.9692 -0.1304
  838MOL0     C13029   4.347   0.466   3.457  0.1968  0.1137  0.8545
  838MOL0     O13030   4.482   0.457   3.479 -0.1760 -0.4450 -0.7129
  838MOL0     C13031   4.568   0.422   3.365  0.1913  0.7746 -0.7922
  838MOL0     C13032   4.713   0.457   3.416 -0.1516  0.7028  0.2436
  838MOL0     C13033   4.808   0.443   3.295 -0.6577 -0.3553 -0.2310
  838MOL0     C13034   4.951   0.517   3.317  0.4338  0.5217 -0.5851
  838MOL0     C13035   5.053   0.478   3.211  0.8047 -0.3792 -0.5963
  838MOL0     C13036   5.031   0.550   3.069  0.6366 -1.0419 -0.2734
  838MOL0     C13037   5.124   0.518   2.953  0.1124  0.0543 -0.4871
  838MOL0     C13038   5.229   0.621   2.913  0.3049  0.3963 -0.7313
  838MOL0    Cl13039   5.313   0.539   2.778  0.1176 -0.3184 -0.4486
  838MOL0     C13040   4.271   0.565   3.526  0.8846 -0.0340  0.4309
  838MOL0     C13041   4.145   0.596   3.490 -0.1970  0.6332  0.1836
  838MOL0     O13042   3.851   0.413   3.535  0.3245 -0.3955  0.4669
  838MOL0     C13043   3.695   0.573   3.251  0.0734  0.8843  0.6045
  838MOL0     C13044   3.566   0.596   3.199 -0.7265 -0.9665 -0.3942
  838MOL0     N13045   2.945   0.440   3.644  0.2388 -0.2961 -1.0423
  838MOL0     N13046   2.848   0.354   3.646 -0.8454  0.3817 -0.1220
  838MOL0     C13047   1.774   0.294   3.400 -0.2293  0.5281 -0.3307
  838MOL0     C13048   1.656   0.275   3.334  0.5062 -1.2649  0.2810
  838MOL0     C13049   1.248   0.108   3.251 -0.4669 -0.1110  0.5296
  838MOL0     C13050   1.188   0.115   3.376  0.2136  0.1098 -0.8066
  838MOL0     C13051   1.056   0.077   3.384  0.3146  0.7548  0.6716
  838MOL0     C13052   0.984   0.026   3.278  0.0960 -0.9835  0.1648
  838MOL0     O13053   0.849   0.013   3.308  0.9255 -0.8205  0.2882
  838MOL0     C13054   0.755  -0.007   3.204 -0.1255 -0.8051 -0.4741
  838MOL0     C13055   0.620  -0.010   3.284 -0.0920 -0.5090 -0.4527
  838MOL0     C13056   0.505  -0.055   3.185  0.0102  0.5842  0.3640
  838MOL0     C13057   0.368  -0.021   3.230 -0.1292 -0.5231  0.3660
  838MOL0     C13058   0.358   0.122   3.248 -0.0694  0.6183 -0.9346
  838MOL0     C13059   0.368   0.244   3.253  0.0836 -0.4345 -0.7474
  838MOL0     C13060   1.044   0.012   3.157 -0.0190 -0.0359  0.0860
  838MOL0     C13061   1.173   0.055   3.140 -0.1418  1.1630  0.7120
  838MOL0     C13062   1.248   0.047   3.005 -0.9169 -0.2307  0.4664
  838MOL0     H13063   1.450   0.274   3.598 -0.4871 -2.6234 -1.6675
  838MOL0     H13064   1.659   0.338   3.708  2.9387 -0.6887  0.2932
  838MOL0     H13065   1.822   0.536   3.635 -0.6024 -2.0792 -1.3270
  838MOL0     H13066   1.958   0.494   3.742  3.5971 -1.3311 -2.5623
  838MOL0     H13067   2.014   0.649   3.560  0.3673 -1.1167 -0.3238
  838MOL0     H13068   1.998   0.507   3.457  0.8064  1.6242 -1.3714
  838MOL0     H13069   2.186   0.422   3.518 -0.3244 -0.7452 -0.2296
  838MOL0     H13070   2.165   0.463   3.698  0.6020  0.8717  0.0139
  838MOL0     H13071   2.290   0.622   3.482 -0.8702  2.0110 -0.2993
  838MOL0     H13072   2.216   0.701   3.618  1.3676  0.3352  2.4300
  838MOL0     H13073   2.459   0.654   3.696 -0.3599 -0.0923 -1.6250
  838MOL0     H13074   2.351   0.563   3.784  2.0055 -1.0624  0.7538
  838MOL0     H13075   2.561   0.439   3.715  1.3291  2.1205 -1.1330
  838MOL0     H13076   2.406   0.354   3.686 -0.0988  0.1310 -0.3613
  838MOL0     H13077   2.537   0.498   3.461  1.8640  0.3670  1.3188
  838MOL0     H13078   2.429   0.357   3.456  0.2679  3.7573 -2.2618
  838MOL0     H13079   2.610   0.236   3.595  0.5567 -0.0944 -0.8382
  838MOL0     H13080   2.640   0.257   3.427  1.1851  0.9090 -0.6883
  838MOL0     H13081   2.778   0.526   3.384  0.9002 -1.2660  0.1282
  838MOL0     H13082   2.976   0.731   3.481 -0.9853 -0.2405  0.9959
  838MOL0     H13083   3.102   0.651   3.588  2.2744  0.3562 -1.4301
  838MOL0     H13084   3.122   0.483   3.373 -3.5582 -0.9856 -1.9798
  838MOL0     H13085   3.025   0.606   3.285  1.0722  1.1930 -0.9491
  838MOL0     H13086   3.299   0.670   3.410  1.8541 -2.3574 -2.0923
  838MOL0     H13087   3.181   0.781   3.341 -2.7330 -0.9139  1.4507
  838MOL0     H13088   3.344   0.758   3.195 -1.6894  2.3487 -0.5484
  838MOL0     H13089   3.203   0.696   3.120 -0.3726  0.5977  0.9388
  838MOL0     H13090   3.378   0.382   3.381 -2.3387 -0.8327 -6.1236
  838MOL0     H13091   3.596   0.363   3.501  0.0803  0.4513  0.1257
  838MOL0     H13092   4.104   0.346   3.258  0.7043  0.1791 -1.3197
  838MOL0     H13093   4.343   0.313   3.313  0.2381  2.2999 -1.6802
  838MOL0     H13094   4.564   0.313   3.355  0.6929  0.5186  1.1818
  838MOL0     H13095   4.550   0.486   3.279  0.9598  2.3967  0.1897
  838MOL0     H13096   4.715   0.560   3.452 -0.2243  0.8206 -0.0885
  838MOL0     H13097   4.754   0.393   3.495  0.4538  0.5291 -0.1998
  838MOL0     H13098   4.827   0.337   3.278  2.0302 -0.2493  1.4251
  838MOL0     H13099   4.766   0.485   3.203 -1.5054 -0.1060  0.2589
  838MOL0     H13100   4.988   0.476   3.411  1.1485 -0.8177 -1.4184
  838MOL0     H13101   4.941   0.626   3.327  2.0747  0.5452  1.2221
  838MOL0     H13102   5.048   0.370   3.193  0.0006 -0.5412  0.4535
  838MOL0     H13103   5.150   0.503   3.254  0.4442 -0.3807  0.2411
  838MOL0     H13104   4.929   0.535   3.033  0.4588 -1.2747  0.3140
  838MOL0     H13105   5.028   0.654   3.103 -2.8996 -0.7045 -1.2124
  838MOL0     H13106   5.061   0.490   2.868  2.2778 -0.7550 -1.9113
  838MOL0     H13107   5.180   0.427   2.975  3.1603  1.7147 -0.7937
  838MOL0     H13108   5.192   0.721   2.886 -0.8317  0.2954  0.3567
  838MOL0     H13109   5.303   0.638   2.992  2.2570  0.1729 -2.4306
  838MOL0     H13110   4.316   0.637   3.595 -0.5101  0.6416  0.6762
  838MOL0     H13111   4.092   0.685   3.524 -0.2596  1.5668 -2.1641
  838MOL0     H13112   3.773   0.630   3.201 -1.6722  0.1804 -3.2363
  838MOL0     H13113   3.552   0.677   3.129  0.4612 -0.2988  0.1132
  838MOL0     H13114   1.872   0.291   3.352 -0.8479 -1.3266 -1.6089
  838MOL0     H13115   1.667   0.253   3.228 -2.9384 -0.9687 -0.2468
  838MOL0     H13116   1.240   0.148   3.465 -1.0635 -2.5328  1.0418
  838MOL0     H13117   1.010   0.068   3.482 -0.4249  0.6071  0.3256
  838MOL0     H13118   0.765  -0.103   3.152 -2.5225 -0.3682 -1.9110
  838MOL0     H13119   0.761   0.081   3.138  0.8155 -0.5751 -0.0941
  838MOL0     H13120   0.599   0.083   3.337 -1.3136 -2.6659  3.2069
  838MOL0     H13121   0.621  -0.075   3.372 -1.4886  1.3827  1.0328
  838MOL0     H13122   0.502  -0.164   3.175  4.3264 -0.1456  3.8499
  838MOL0     H13123   0.518  -0.005   3.088  0.0304  0.8437  0.5002
  838MOL0     H13124   0.303  -0.061   3.152 -2.1822  2.5224  0.3151
  838MOL0     H13125   0.347  -0.077   3.322  1.8977  0.1596  1.3015
  838MOL0     H13126   0.375   0.351   3.261 -0.8077 -0.3448 -1.0747
  838MOL0     H13127   0.982  -0.017   3.072 -0.5494  0.5577  0.2670
  838MOL0     H13128   1.174   0.064   2.927 -1.5624  0.7623  1.2726
  838MOL0     H13129   1.325   0.124   3.012 -1.0951 -0.0087  0.0068
  838MOL0     H13130   1.300  -0.050   3.002 -0.0475  0.2392 -1.9661
  839MOL0     O13131  11.064   8.213   3.690 -0.2300  0.8821  0.5152
  839MOL0     C13132  11.021   8.154   3.594  0.4073  0.4085  0.2474
  839MOL0     O13133  11.103   8.086   3.504  0.6881  0.1139 -0.2651
  839MOL0     C13134  11.223   8.024   3.533 -0.1048 -0.5802  0.0448
  839MOL0     C13135  11.255   7.980   3.667 -0.0836  0.5936  0.3757
  839MOL0     C13136  11.396   7.943   3.690 -0.3022  0.5495 -0.6078
  839MOL0     C13137  11.491   7.952   3.588  0.6894  0.0591 -1.0290
  839MOL0     O13138  11.626   7.937   3.609 -0.0658 -0.2328 -0.2165
  839MOL0     C13139  11.681   7.963   3.741  0.0072  0.2348 -0.3584
  839MOL0     C13140  11.817   8.046   3.724  0.6756 -0.0841 -0.3825
  839MOL0     C13141  11.903   8.036   3.847 -1.1164  0.0269 -0.3333
  839MOL0     C13142  12.048   8.101   3.828 -0.5890  0.6675 -0.0197
  839MOL0     C13143  12.136   8.117   3.955  0.4262  0.2285  0.4957
  839MOL0     C13144  12.247   8.221   3.929  0.0905  0.3794  0.4274
  839MOL0     C13145  12.331   8.262   4.053  0.0021  1.0766 -0.5879
  839MOL0     C13146  12.424   8.377   4.032 -0.1731  0.1828  1.1712
  839MOL0     N13147  12.491   8.425   4.152  0.8248  0.5558  0.6908
  839MOL0     C13148  12.572   8.346   4.221 -0.6396 -0.6752 -0.8035
  839MOL0     C13149  12.615   8.418   4.330 -0.2079 -0.9981  0.6366
  839MOL0     C13150  12.706   8.354   4.424 -0.2561  0.6010  0.1022
  839MOL0     C13151  12.838   8.422   4.423 -0.7945  0.4274 -0.2311
  839MOL0     C13152  12.944   8.321   4.479  0.0374 -0.7284 -0.0341
  839MOL0     C13153  13.080   8.391   4.503  0.3140  0.5046 -0.4895
  839MOL0     O13154  13.166   8.286   4.555 -0.4074  0.2122 -0.0359
  839MOL0     C13155  13.305   8.319   4.553 -0.1839  0.0966  0.3517
  839MOL0     C13156  13.368   8.449   4.542  0.3471  0.0468  0.2076
  839MOL0     C13157  13.502   8.478   4.563 -0.0492  0.4720 -0.2306
  839MOL0     C13158  13.591   8.370   4.596  0.1426 -1.1761  0.4720
  839MOL0     C13159  13.733   8.384   4.616 -0.6889  0.2418 -0.0871
  839MOL0     O13160  13.796   8.271   4.645 -0.4380  0.4381  0.1504
  839MOL0     C13161  13.932   8.281   4.661 -1.1222 -0.2152 -0.5442
  839MOL0     C13162  13.979   8.266   4.787 -0.0691  0.0688  0.1915
  839MOL0     C13163  14.118   8.236   4.808  0.2871 -0.2343  0.2086
  839MOL0     C13164  14.203   8.232   4.690 -1.0487 -0.0659  0.3274
  839MOL0     O13165  14.335   8.191   4.708 -0.4595 -0.6197  0.1528
  839MOL0     C13166  14.435   8.229   4.612  0.7776  0.1508 -0.4062
  839MOL0     C13167  14.572   8.188   4.664  0.7097 -0.3133  0.2642
  839MOL0     C13168  14.598   8.241   4.809 -0.2218  0.4777 -0.3702
  839MOL0     C13169  14.742   8.204   4.866  0.6709  0.3255 -0.1010
  839MOL0     C13170  14.851   8.191   4.754  0.5087  0.5702 -0.9549
  839MOL0     C13171  14.972   8.123   4.810 -0.5303  0.1461 -1.4711
  839MOL0     C13172  15.078   8.091   4.708 -0.5667  0.1530  0.3327
  839MOL0     C13173  15.196   8.022   4.778 -0.1146  0.0536 -0.2924
  839MOL0    Cl13174  15.292   7.955   4.648  0.4917  0.3471 -0.5786
  839MOL0     C13175  14.161   8.267   4.563  0.0198 -0.4142  0.7471
  839MOL0     C13176  14.020   8.294   4.548 -0.7851  0.1120 -0.6176
  839MOL0     O13177  13.789   8.495   4.601 -0.0512 -0.3161 -0.2592
  839MOL0     C13178  13.531   8.240   4.602  0.5483 -0.5420 -0.4412
  839MOL0     C13179  13.389   8.219   4.584  0.4212  0.3157 -0.1503
  839MOL0     N13180  12.566   8.547   4.314 -0.4128  0.1989  0.0538
  839MOL0     N13181  12.499   8.553   4.200  0.4694  0.7702 -0.1701
  839MOL0     C13182  11.449   7.988   3.461  0.0763 -0.2308  0.0478
  839MOL0     C13183  11.317   8.023   3.430  0.7099 -1.0016  0.4179
  839MOL0     C13184  10.880   8.169   3.551 -0.5153 -0.0763  0.4078
  839MOL0     C13185  10.833   8.096   3.439  0.3483  0.1647  1.4531
  839MOL0     C13186  10.697   8.091   3.409 -0.2451 -0.4364  0.2017
  839MOL0     C13187  10.603   8.162   3.483  0.8524  1.1317  1.0344
  839MOL0     O13188  10.470   8.170   3.451 -0.5168 -0.0081 -0.0029
  839MOL0     C13189  10.393   8.042   3.446  0.4584 -0.2286  0.9699
  839MOL0     C13190  10.343   7.993   3.577 -0.5310 -0.2814  0.3552
  839MOL0     C13191  10.228   8.078   3.632 -0.0076  0.0431  0.1294
  839MOL0     C13192  10.225   8.080   3.790  0.1372 -0.4548  0.0635
  839MOL0     C13193  10.335   8.154   3.850  0.6679  0.3054 -0.7989
  839MOL0     C13194  10.431   8.199   3.911  0.0001 -0.0633  0.4412
  839MOL0     C13195  10.654   8.243   3.582 -0.3602 -1.2296 -0.3473
  839MOL0     C13196  10.785   8.248   3.620 -0.5996 -0.3894 -0.0273
  839MOL0     C13197  10.806   8.339   3.749  0.2169  0.0056 -0.1782
  839MOL0     H13198  11.176   7.975   3.741 -1.2039 -0.7017 -0.8334
  839MOL0     H13199  11.421   7.912   3.790 -1.6581 -1.9956 -0.9833
  839MOL0     H13200  11.617   7.990   3.825 -0.2093 -1.6731  0.1314
  839MOL0     H13201  11.719   7.866   3.773 -1.0138 -0.3424 -0.8361
  839MOL0     H13202  11.808   8.152   3.699 -1.1788  0.5152  2.4226
  839MOL0     H13203  11.863   7.999   3.636  0.8877  0.5844 -0.6319
  839MOL0     H13204  11.904   7.931   3.877 -3.2476  0.2359  0.6093
  839MOL0     H13205  11.847   8.075   3.932 -2.3486 -1.5527 -0.3727
  839MOL0     H13206  12.099   8.043   3.751  2.0340  0.0169  2.0467
  839MOL0     H13207  12.043   8.199   3.780 -1.3737  0.2799 -0.7563
  839MOL0     H13208  12.068   8.156   4.032 -0.1880  1.3000 -0.5641
  839MOL0     H13209  12.179   8.024   3.994 -3.2994 -1.4620  1.0747
  839MOL0     H13210  12.306   8.179   3.847 -2.0741 -1.3964 -0.3153
  839MOL0     H13211  12.207   8.314   3.888 -0.0584  0.5566  0.9678
  839MOL0     H13212  12.382   8.173   4.090 -1.2600  0.2277 -0.8109
  839MOL0     H13213  12.250   8.283   4.124 -5.5839 -3.3734 -4.5854
  839MOL0     H13214  12.506   8.357   3.962 -1.7643 -2.3627 -0.1329
  839MOL0     H13215  12.369   8.459   3.986  1.0186  0.8212  0.8628
  839MOL0     H13216  12.582   8.239   4.205 -0.5040 -0.7439 -0.2689
  839MOL0     H13217  12.667   8.348   4.526  0.5869 -1.4282  0.3538
  839MOL0     H13218  12.729   8.252   4.392 -1.6641  0.3144 -0.0548
  839MOL0     H13219  12.871   8.450   4.322 -0.2630  0.0261 -0.1701
  839MOL0     H13220  12.839   8.512   4.485  0.0771 -0.3731  0.9428
  839MOL0     H13221  12.958   8.243   4.404  1.6437 -1.9992  1.5195
  839MOL0     H13222  12.910   8.271   4.570  0.2421 -1.2919 -0.2665
  839MOL0     H13223  13.082   8.484   4.561 -0.3787 -0.8695  1.8526
  839MOL0     H13224  13.125   8.423   4.408  2.2770  1.6787  0.7520
  839MOL0     H13225  13.301   8.532   4.522  1.1064  0.7059  0.3793
  839MOL0     H13226  13.544   8.577   4.552  2.6000 -0.7123 -1.8970
  839MOL0     H13227  13.908   8.259   4.869 -0.0528 -0.3253  0.1741
  839MOL0     H13228  14.153   8.220   4.909 -1.3015  1.4059  1.0950
  839MOL0     H13229  14.410   8.183   4.516 -1.8000 -0.3012  0.3994
  839MOL0     H13230  14.442   8.337   4.598  1.7210 -0.0554 -1.6944
  839MOL0     H13231  14.579   8.079   4.655 -1.0116 -0.6164  1.7832
  839MOL0     H13232  14.647   8.237   4.602 -2.2801  2.8784 -1.1916
  839MOL0     H13233  14.590   8.350   4.812 -0.5845  0.5412 -2.3566
  839MOL0     H13234  14.526   8.199   4.879  1.0302 -1.6304 -0.2476
  839MOL0     H13235  14.725   8.107   4.915 -0.4789  1.9308  2.8937
  839MOL0     H13236  14.769   8.274   4.945 -2.6786  0.3427  1.1816
  839MOL0     H13237  14.869   8.296   4.730  2.7044 -0.0781 -2.5100
  839MOL0     H13238  14.822   8.137   4.663 -0.8154  1.5158 -1.1163
  839MOL0     H13239  15.008   8.183   4.894 -2.8472 -0.2124 -0.1363
  839MOL0     H13240  14.933   8.029   4.850  0.3634  0.2068 -0.4284
  839MOL0     H13241  15.117   8.181   4.659 -0.2009 -0.4541 -0.4893
  839MOL0     H13242  15.045   8.021   4.632 -0.0994  1.1729 -0.8389
  839MOL0     H13243  15.249   8.099   4.835  1.2780 -0.7268 -0.4837
  839MOL0     H13244  15.163   7.936   4.837 -1.5883 -0.3453 -1.6288
  839MOL0     H13245  14.231   8.287   4.482 -2.9738 -0.3190 -1.9931
  839MOL0     H13246  13.978   8.326   4.453 -0.9370  0.7090 -0.3565
  839MOL0     H13247  13.587   8.148   4.618 -0.2574 -0.7239  1.6353
  839MOL0     H13248  13.338   8.124   4.592  0.1122  0.5745  1.2178
  839MOL0     H13249  11.526   8.001   3.385  0.8616 -2.0781  0.4844
  839MOL0     H13250  11.286   8.059   3.332  1.7490 -0.7674  0.1658
  839MOL0     H13251  10.904   8.040   3.379 -1.6064 -1.7371  0.8114
  839MOL0     H13252  10.677   8.035   3.319  0.3715 -2.2560  1.1516
  839MOL0     H13253  10.456   7.965   3.401  1.2067 -0.1137  1.8122
  839MOL0     H13254  10.313   8.059   3.373 -0.1511 -0.6217  1.5405
  839MOL0     H13255  10.430   7.988   3.644 -0.4338 -1.6739  0.1538
  839MOL0     H13256  10.310   7.893   3.548  0.1438 -0.4993  0.3215
  839MOL0     H13257  10.135   8.037   3.592 -0.9967 -1.4683  3.5943
  839MOL0     H13258  10.233   8.178   3.588  1.6495 -1.1275 -2.6463
  839MOL0     H13259  10.129   8.125   3.818  0.4047  0.1135  0.0986
  839MOL0     H13260  10.239   7.982   3.835  1.2342 -0.3692 -0.0499
  839MOL0     H13261  10.525   8.235   3.949 -0.7012 -0.1096  2.3756
  839MOL0     H13262  10.573   8.296   3.632 -0.3797 -2.8443  1.4910
  839MOL0     H13263  10.725   8.412   3.761 -1.9262 -2.2470 -0.1634
  839MOL0     H13264  10.808   8.291   3.847  2.5639  1.8304  0.7489
  839MOL0     H13265  10.902   8.387   3.731  0.5660  0.4799  2.4990
  840MOL0     O13266   2.742   4.205   2.843  0.2706 -0.3833 -0.0462
  840MOL0     C13267   2.705   4.188   2.727  0.3243  0.2242 -0.6235
  840MOL0     O13268   2.784   4.194   2.616 -0.1032 -0.1763 -0.4263
  840MOL0     C13269   2.919   4.211   2.626 -0.3706  0.0665 -0.4249
  840MOL0     C13270   2.994   4.149   2.522  0.0385  0.0073  0.3189
  840MOL0     C13271   3.133   4.154   2.515  0.5811 -0.3425  0.2418
  840MOL0     C13272   3.207   4.209   2.617  0.8169  0.0116 -1.0586
  840MOL0     O13273   3.340   4.200   2.632  0.3051  0.4116  0.4974
  840MOL0     C13274   3.401   4.224   2.504 -0.2723 -0.4971 -0.0842
  840MOL0     C13275   3.546   4.266   2.549  0.2912 -0.0864  0.8578
  840MOL0     C13276   3.640   4.150   2.588 -0.0140 -0.2895 -0.4634
  840MOL0     C13277   3.711   4.097   2.469  0.0179  0.1502  0.1098
  840MOL0     C13278   3.859   4.095   2.482 -0.2423  0.7714  0.2990
  840MOL0     C13279   3.927   4.033   2.348 -0.3254  1.0938  0.2142
  840MOL0     C13280   4.077   3.996   2.353 -0.0759 -0.0385 -0.1550
  840MOL0     C13281   4.121   3.906   2.247  0.0834 -0.2747 -0.3865
  840MOL0     N13282   4.263   3.867   2.267 -0.0133 -0.8490 -0.3981
  840MOL0     C13283   4.310   3.778   2.355  0.9367 -0.1683 -0.0975
  840MOL0     C13284   4.447   3.788   2.361 -0.0792 -0.0660  0.5286
  840MOL0     C13285   4.542   3.699   2.436  0.3711  0.3236  0.2008
  840MOL0     C13286   4.527   3.552   2.374  0.4860 -0.1521  0.1565
  840MOL0     C13287   4.607   3.445   2.454 -0.7014 -0.2839  0.1242
  840MOL0     C13288   4.747   3.487   2.505  0.0979 -0.0045 -0.3459
  840MOL0     O13289   4.802   3.373   2.567  0.3942  0.4458 -0.3691
  840MOL0     C13290   4.938   3.368   2.587  0.4348 -0.5412  0.7919
  840MOL0     C13291   4.994   3.240   2.609 -0.1679  0.8822 -0.2586
  840MOL0     C13292   5.131   3.220   2.631 -0.0323 -0.8288 -1.0009
  840MOL0     C13293   5.214   3.336   2.635 -0.1584  1.1999 -0.2640
  840MOL0     C13294   5.357   3.317   2.680  0.3320  0.4955 -1.1906
  840MOL0     O13295   5.437   3.424   2.713  0.0958  0.2711 -0.1035
  840MOL0     C13296   5.559   3.398   2.757  0.1364 -0.2004  1.2589
  840MOL0     C13297   5.583   3.361   2.888  0.3360  0.5864 -0.0560
  840MOL0     C13298   5.715   3.339   2.938  0.5061  0.8524 -0.9669
  840MOL0     C13299   5.826   3.356   2.858 -0.6312 -0.3746 -0.1648
  840MOL0     O13300   5.947   3.345   2.918 -0.4060  0.2175 -0.3108
  840MOL0     C13301   6.022   3.472   2.915 -0.1446  0.4019 -0.4918
  840MOL0     C13302   6.141   3.464   3.000  0.4665  0.2760 -0.1601
  840MOL0     C13303   6.241   3.559   2.945  0.3595  0.6169 -0.4643
  840MOL0     C13304   6.382   3.542   3.009  0.1779  0.3574  0.0623
  840MOL0     C13305   6.483   3.624   2.939 -0.4772  0.1099  1.1336
  840MOL0     C13306   6.615   3.614   3.011 -0.6730 -0.4600  0.2153
  840MOL0     C13307   6.734   3.658   2.919 -0.2604  0.0403  0.7477
  840MOL0     C13308   6.837   3.547   2.883  0.3587  0.4354 -0.3736
  840MOL0    Cl13309   6.752   3.409   2.807  0.0452 -0.1154 -0.0677
  840MOL0     C13310   5.803   3.389   2.721  0.1158  0.7246  0.8914
  840MOL0     C13311   5.673   3.407   2.667 -1.0291 -0.0569 -0.0580
  840MOL0     O13312   5.389   3.199   2.698 -0.2786  0.2463  0.2504
  840MOL0     C13313   5.160   3.460   2.610 -0.0199 -0.0389 -0.5275
  840MOL0     C13314   5.023   3.481   2.582 -0.9856 -0.6886 -0.7817
  840MOL0     N13315   4.478   3.886   2.270 -0.1476  0.9715 -0.0558
  840MOL0     N13316   4.369   3.931   2.226  0.4206 -0.5090  0.3126
  840MOL0     C13317   3.133   4.273   2.723 -0.0247  0.7490  0.5014
  840MOL0     C13318   2.995   4.277   2.727  0.3048  0.5672 -0.0103
  840MOL0     C13319   2.556   4.170   2.711 -0.5986 -0.3378  0.7981
  840MOL0     C13320   2.506   4.149   2.581 -0.4506  0.2216 -1.2242
  840MOL0     C13321   2.377   4.156   2.554  0.2812 -0.4797 -0.5463
  840MOL0     C13322   2.271   4.165   2.656 -1.0310 -0.0691 -0.6318
  840MOL0     O13323   2.133   4.176   2.652  0.2551  0.1149 -0.2702
  840MOL0     C13324   2.086   4.173   2.519 -1.1388  0.1378  0.1210
  840MOL0     C13325   1.938   4.208   2.506 -0.5732  0.0515 -0.3319
  840MOL0     C13326   1.862   4.118   2.607 -0.5220  0.9438 -0.2471
  840MOL0     C13327   1.711   4.125   2.595  0.3336  0.0726  0.0422
  840MOL0     C13328   1.659   4.260   2.638  0.1981 -0.8532 -0.7288
  840MOL0     C13329   1.592   4.364   2.667  0.1172 -0.5938 -0.5496
  840MOL0     C13330   2.319   4.184   2.781 -1.5161 -0.0784  0.2545
  840MOL0     C13331   2.463   4.183   2.814 -0.2305  0.4511  0.5053
  840MOL0     C13332   2.493   4.187   2.960 -0.3794 -0.3821  1.1885
  840MOL0     H13333   2.952   4.104   2.432 -0.0673  0.6727  0.0280
  840MOL0     H13334   3.192   4.096   2.444 -1.2102 -0.4569 -1.2374
  840MOL0     H13335   3.397   4.129   2.451  0.1103 -1.5201  1.6663
  840MOL0     H13336   3.341   4.304   2.459 -2.4547 -1.5378  0.8439
  840MOL0     H13337   3.540   4.339   2.630 -0.1837  0.4628  0.3332
  840MOL0     H13338   3.592   4.317   2.464  0.0522  0.1194  0.8512
  840MOL0     H13339   3.577   4.076   2.638  3.1737 -1.1489  2.7649
  840MOL0     H13340   3.717   4.186   2.658  0.8269  1.4747 -2.1895
  840MOL0     H13341   3.686   3.992   2.454  0.8094  0.1263 -1.1652
  840MOL0     H13342   3.674   4.155   2.384  0.7758  1.2929  0.5338
  840MOL0     H13343   3.915   4.188   2.491  2.2555 -0.6865  0.7610
  840MOL0     H13344   3.891   4.036   2.569  0.6584 -2.5119 -2.0618
  840MOL0     H13345   3.872   3.941   2.327  0.9238 -0.2117  2.2640
  840MOL0     H13346   3.907   4.104   2.267  3.1983 -0.9898 -2.8013
  840MOL0     H13347   4.095   3.942   2.446 -0.5578 -0.4524 -0.2952
  840MOL0     H13348   4.134   4.090   2.350 -1.8674  1.1647  1.3716
  840MOL0     H13349   4.056   3.820   2.228 -0.9214  0.4340 -0.2533
  840MOL0     H13350   4.120   3.969   2.157  0.6211  0.7174  0.2796
  840MOL0     H13351   4.246   3.704   2.403 -0.7360  0.4374 -1.2964
  840MOL0     H13352   4.639   3.747   2.422  0.7878 -0.0620  1.6318
  840MOL0     H13353   4.515   3.700   2.542 -0.7310  3.0688 -0.0146
  840MOL0     H13354   4.421   3.526   2.387  1.7729 -5.2634  4.0972
  840MOL0     H13355   4.560   3.547   2.270  2.9379  2.5473  0.6887
  840MOL0     H13356   4.618   3.356   2.391  0.6633 -0.8735  1.1662
  840MOL0     H13357   4.558   3.420   2.548  2.0358  1.8593  2.3020
  840MOL0     H13358   4.740   3.566   2.580  0.4297 -0.1453 -0.1636
  840MOL0     H13359   4.813   3.532   2.429 -1.7974 -0.1938 -2.2001
  840MOL0     H13360   4.930   3.152   2.608 -0.1349  0.8586 -0.8955
  840MOL0     H13361   5.165   3.123   2.668  1.3231  0.7964  2.3897
  840MOL0     H13362   5.498   3.349   2.954  0.8940 -3.8386  0.1635
  840MOL0     H13363   5.734   3.309   3.041  2.1526  1.3766 -1.0833
  840MOL0     H13364   6.040   3.493   2.809 -0.3910  1.8080 -0.2701
  840MOL0     H13365   5.957   3.545   2.964 -0.7449  0.5955 -1.5527
  840MOL0     H13366   6.110   3.487   3.102 -2.1148 -1.0068 -0.5999
  840MOL0     H13367   6.182   3.363   2.995 -0.8312 -0.2253 -3.0164
  840MOL0     H13368   6.248   3.553   2.836 -3.2228 -0.6147 -0.7454
  840MOL0     H13369   6.200   3.658   2.964 -0.1867  0.7700 -2.2321
  840MOL0     H13370   6.422   3.441   2.996  1.2562  0.5315  1.7408
  840MOL0     H13371   6.369   3.560   3.116  2.5785 -1.1574  0.6875
  840MOL0     H13372   6.457   3.730   2.927  1.1240  0.3239 -1.1147
  840MOL0     H13373   6.494   3.574   2.843 -0.9438 -0.1011  1.1900
  840MOL0     H13374   6.620   3.680   3.098  3.0201 -0.9439  0.5280
  840MOL0     H13375   6.622   3.512   3.052 -0.9676 -0.7689 -0.4755
  840MOL0     H13376   6.784   3.745   2.963  1.1532  0.2573 -1.1630
  840MOL0     H13377   6.705   3.704   2.824  0.7585 -0.8028  0.0122
  840MOL0     H13378   6.926   3.583   2.831 -0.2316 -0.4615 -2.0948
  840MOL0     H13379   6.872   3.506   2.978  0.1539  1.4946  0.1672
  840MOL0     H13380   5.888   3.399   2.654  1.1904 -2.7813  1.5635
  840MOL0     H13381   5.660   3.439   2.564 -1.5386  1.4802  0.4567
  840MOL0     H13382   5.218   3.550   2.630 -2.3044  0.9552  2.3242
  840MOL0     H13383   4.979   3.580   2.577 -0.7344 -0.3020  2.3388
  840MOL0     H13384   3.189   4.310   2.808  0.1514  0.9936  0.2804
  840MOL0     H13385   2.944   4.311   2.817 -1.8626 -3.0654  0.3189
  840MOL0     H13386   2.580   4.139   2.503  1.4476 -0.3255  0.5835
  840MOL0     H13387   2.348   4.137   2.452 -1.8362 -0.8133  0.0647
  840MOL0     H13388   2.106   4.072   2.481  2.1932  1.4639 -2.1295
  840MOL0     H13389   2.144   4.236   2.451 -1.3688 -0.1194 -0.3199
  840MOL0     H13390   1.898   4.199   2.404 -0.7309 -0.5156 -0.2183
  840MOL0     H13391   1.925   4.314   2.532  0.5255  0.3731 -1.0060
  840MOL0     H13392   1.881   4.143   2.712  1.2450 -0.1224 -0.2859
  840MOL0     H13393   1.890   4.015   2.584 -3.8321 -0.2012  0.2711
  840MOL0     H13394   1.696   4.130   2.486 -0.5391  1.6342  0.2073
  840MOL0     H13395   1.656   4.042   2.641  1.4720  0.2245  1.7684
  840MOL0     H13396   1.527   4.445   2.693 -0.0765 -1.1251  0.7035
  840MOL0     H13397   2.247   4.195   2.862 -0.7497  0.0011  0.9437
  840MOL0     H13398   2.408   4.179   3.028  0.9684  1.8047  3.2858
  840MOL0     H13399   2.562   4.107   2.990 -0.2350 -0.1597  1.4491
  840MOL0     H13400   2.546   4.281   2.980  0.6485 -0.9274  1.0898
  841MOL0     O13401   3.080   1.870   2.183  0.1147  0.4616 -0.1161
  841MOL0     C13402   3.135   1.955   2.247  0.4036  0.2408 -0.1858
  841MOL0     O13403   3.264   1.955   2.305  0.8934  0.2393  0.0106
  841MOL0     C13404   3.342   1.848   2.266 -0.3218  0.5341 -0.3667
  841MOL0     C13405   3.430   1.850   2.158 -0.6271  0.9690 -0.0251
  841MOL0     C13406   3.515   1.743   2.125  0.0123 -0.5310  0.8943
  841MOL0     C13407   3.503   1.621   2.191 -0.3874  0.6073  0.3163
  841MOL0     O13408   3.579   1.508   2.170 -0.2344 -0.7199  0.0662
  841MOL0     C13409   3.721   1.527   2.184  0.1786 -0.1315  0.3398
  841MOL0     C13410   3.785   1.393   2.216 -0.0618 -0.6392  0.3868
  841MOL0     C13411   3.811   1.311   2.078 -0.6530 -0.2001 -0.4077
  841MOL0     C13412   3.917   1.382   1.998  0.5103  0.8239 -0.6561
  841MOL0     C13413   3.989   1.288   1.901  0.1556  0.0672  1.0165
  841MOL0     C13414   4.107   1.356   1.832 -0.3558  0.0516  0.9198
  841MOL0     C13415   4.165   1.273   1.723 -0.6750  0.3239  0.4689
  841MOL0     C13416   4.268   1.354   1.658  0.3131 -0.1953  0.9266
  841MOL0     N13417   4.356   1.272   1.570 -0.4116 -0.0744  0.5208
  841MOL0     C13418   4.438   1.173   1.610 -0.7483 -0.7272 -0.7172
  841MOL0     C13419   4.512   1.143   1.494  0.3358  0.4614  0.1182
  841MOL0     C13420   4.611   1.030   1.482  0.5259  0.2718  0.4531
  841MOL0     C13421   4.743   1.061   1.547 -0.5611  1.0837 -0.9613
  841MOL0     C13422   4.741   1.079   1.704 -0.4032  0.6212  0.3449
  841MOL0     C13423   4.887   1.053   1.753  0.0437  0.4124 -0.4649
  841MOL0     O13424   4.919   0.911   1.729  0.1320 -0.2574 -0.0176
  841MOL0     C13425   5.056   0.883   1.734  0.6691 -0.1613 -0.2572
  841MOL0     C13426   5.154   0.922   1.823  0.6807 -0.1498 -0.2306
  841MOL0     C13427   5.289   0.903   1.803 -0.4640 -0.6876 -0.2834
  841MOL0     C13428   5.334   0.834   1.687 -0.4967  0.1520 -0.0501
  841MOL0     C13429   5.473   0.789   1.663  0.0483  0.9549 -0.2791
  841MOL0     O13430   5.496   0.721   1.549  0.3909  0.3752 -0.4388
  841MOL0     C13431   5.618   0.701   1.490 -0.4149 -0.3507  0.3141
  841MOL0     C13432   5.731   0.669   1.556  0.1202 -0.5520  1.1707
  841MOL0     C13433   5.855   0.654   1.488 -0.3116  0.7796 -0.9953
  841MOL0     C13434   5.872   0.671   1.347  0.7660 -0.1441 -0.0266
  841MOL0     O13435   5.990   0.672   1.273  0.3988 -0.5150  0.1700
  841MOL0     C13436   6.121   0.646   1.325  1.5052  0.7803  0.0869
  841MOL0     C13437   6.168   0.510   1.302  0.0116  0.7831 -0.7002
  841MOL0     C13438   6.301   0.500   1.371 -0.2395  0.2776 -0.0141
  841MOL0     C13439   6.356   0.361   1.347 -0.0556 -0.2468 -0.5067
  841MOL0     C13440   6.516   0.355   1.379  1.0173  0.2593 -0.0607
  841MOL0     C13441   6.572   0.209   1.369 -0.0439 -0.4017 -0.5099
  841MOL0     C13442   6.724   0.201   1.398 -0.0647  0.2976 -0.0803
  841MOL0     C13443   6.770   0.064   1.423  0.0050  0.5132  0.4834
  841MOL0    Cl13444   6.926   0.054   1.506  0.1959 -0.4290  0.2092
  841MOL0     C13445   5.757   0.711   1.280 -0.4951  0.4277 -0.0449
  841MOL0     C13446   5.638   0.727   1.350 -0.2976  0.0527  1.0331
  841MOL0     O13447   5.552   0.835   1.744 -0.1990  0.0663  0.0551
  841MOL0     C13448   5.239   0.782   1.604  0.3819  0.3434 -0.0036
  841MOL0     C13449   5.104   0.809   1.620 -0.0028  0.3244 -0.6926
  841MOL0     N13450   4.475   1.222   1.387  0.1825  0.1257 -0.6244
  841MOL0     N13451   4.383   1.304   1.437  0.2974  1.0441 -0.2354
  841MOL0     C13452   3.407   1.612   2.284 -1.0104  0.4720 -0.6568
  841MOL0     C13453   3.332   1.719   2.329  0.2206 -0.2024 -0.2380
  841MOL0     C13454   3.051   2.071   2.284 -0.4620 -0.3657  0.5705
  841MOL0     C13455   3.126   2.187   2.305 -0.4055  0.0856  0.2944
  841MOL0     C13456   3.061   2.307   2.337  0.2445  1.1690 -0.4562
  841MOL0     C13457   2.921   2.318   2.328  1.3310 -0.0584 -0.2173
  841MOL0     O13458   2.875   2.453   2.350  0.4282  0.1416  0.3924
  841MOL0     C13459   2.733   2.478   2.357 -0.4172  0.6093 -0.2949
  841MOL0     C13460   2.657   2.454   2.490  0.2519  0.1168 -0.4082
  841MOL0     C13461   2.748   2.478   2.617  0.4013 -0.2034  0.5326
  841MOL0     C13462   2.668   2.434   2.737  0.5903  0.1097  1.1914
  841MOL0     C13463   2.717   2.485   2.861 -0.0570  0.6375 -0.5635
  841MOL0     C13464   2.762   2.558   2.954  0.9619 -0.3633 -0.8273
  841MOL0     C13465   2.850   2.199   2.306  0.2724 -0.1336  0.7417
  841MOL0     C13466   2.909   2.072   2.285 -0.1222 -0.1128 -0.0766
  841MOL0     C13467   2.818   1.951   2.269 -1.0445  0.1514  0.0271
  841MOL0     H13468   3.438   1.946   2.108 -0.7437  0.3746 -1.2203
  841MOL0     H13469   3.592   1.758   2.050  0.3968 -1.0151  1.1856
  841MOL0     H13470   3.779   1.567   2.100  0.5098  2.1092  1.5589
  841MOL0     H13471   3.740   1.596   2.267  0.6190  0.0990  0.0472
  841MOL0     H13472   3.707   1.345   2.276 -2.3741  0.0101 -1.8772
  841MOL0     H13473   3.880   1.401   2.270 -1.1557  1.1418  2.1779
  841MOL0     H13474   3.716   1.303   2.024 -0.8309  0.6728 -0.2371
  841MOL0     H13475   3.853   1.213   2.103  0.1311 -0.0003 -0.8929
  841MOL0     H13476   3.874   1.470   1.950  0.1935  2.5273  2.4990
  841MOL0     H13477   3.994   1.424   2.064  0.6650  1.1613 -1.0437
  841MOL0     H13478   4.036   1.202   1.950  2.9589  0.8197 -0.1746
  841MOL0     H13479   3.913   1.260   1.827 -0.9449  2.7998  0.9822
  841MOL0     H13480   4.072   1.453   1.797 -1.2279 -0.4410  0.4060
  841MOL0     H13481   4.185   1.379   1.906  0.4387  1.0329 -0.1868
  841MOL0     H13482   4.092   1.242   1.648  1.4772 -3.1824 -0.3754
  841MOL0     H13483   4.211   1.190   1.778  0.3285 -0.3152 -1.2573
  841MOL0     H13484   4.214   1.429   1.600 -2.3152 -2.4173  0.3135
  841MOL0     H13485   4.343   1.396   1.726  1.2740 -3.3179  1.9615
  841MOL0     H13486   4.438   1.124   1.707  1.1521  0.2918 -0.1579
  841MOL0     H13487   4.566   0.939   1.523 -2.1079  0.4058 -1.8441
  841MOL0     H13488   4.627   1.008   1.376 -0.2539  0.6142  0.2568
  841MOL0     H13489   4.806   0.976   1.517 -1.6237  0.2170 -0.7993
  841MOL0     H13490   4.784   1.147   1.493 -0.8486  1.0584 -1.2238
  841MOL0     H13491   4.676   1.009   1.756 -0.9192  0.5509 -0.3826
  841MOL0     H13492   4.706   1.180   1.725 -1.9405  0.6388 -1.9499
  841MOL0     H13493   4.898   1.079   1.859 -2.0970 -2.1485  0.5182
  841MOL0     H13494   4.967   1.113   1.709  0.4230  0.7346  0.6333
  841MOL0     H13495   5.125   0.978   1.912 -2.3585  0.4130 -1.4497
  841MOL0     H13496   5.363   0.940   1.872 -1.7956 -0.2697  0.9799
  841MOL0     H13497   5.739   0.653   1.663  0.5467 -2.8330  0.8507
  841MOL0     H13498   5.947   0.643   1.546 -0.9677 -0.7829 -0.1803
  841MOL0     H13499   6.200   0.705   1.277  0.2670  1.8510 -0.6736
  841MOL0     H13500   6.128   0.675   1.430 -1.1765  0.8537  0.2998
  841MOL0     H13501   6.101   0.440   1.353  1.9952  0.1480  1.1614
  841MOL0     H13502   6.166   0.496   1.193  1.5598  0.5848 -0.7263
  841MOL0     H13503   6.368   0.576   1.329 -1.1456  0.8958 -0.3635
  841MOL0     H13504   6.293   0.533   1.475  0.3012  0.7481 -0.1152
  841MOL0     H13505   6.348   0.340   1.240 -0.9038 -0.0518 -0.4892
  841MOL0     H13506   6.312   0.284   1.411  0.6847  0.1800  0.5614
  841MOL0     H13507   6.521   0.381   1.485  3.0943  2.3617 -0.5969
  841MOL0     H13508   6.568   0.420   1.308 -0.6868 -0.1063 -1.7303
  841MOL0     H13509   6.512   0.136   1.425 -2.9693  0.3280 -2.4106
  841MOL0     H13510   6.555   0.173   1.267  0.8921 -1.6098 -0.2514
  841MOL0     H13511   6.746   0.260   1.488  0.4508  4.7834 -2.8269
  841MOL0     H13512   6.784   0.250   1.320  0.8146 -0.0154  0.3849
  841MOL0     H13513   6.699   0.004   1.482 -1.3483  0.8435 -0.7558
  841MOL0     H13514   6.776   0.008   1.329 -1.7962  0.3411  0.4392
  841MOL0     H13515   5.760   0.714   1.172  0.6953 -1.4175 -0.1005
  841MOL0     H13516   5.548   0.740   1.290 -0.9289  1.1207  2.1530
  841MOL0     H13517   5.265   0.715   1.523 -0.8666 -2.6433  1.8692
  841MOL0     H13518   5.028   0.777   1.549 -1.0040  1.9800 -0.4292
  841MOL0     H13519   3.394   1.516   2.335 -2.1069  0.7258 -0.4219
  841MOL0     H13520   3.260   1.710   2.410  1.5000  0.4219  1.0343
  841MOL0     H13521   3.232   2.187   2.282 -0.6133  0.6322 -0.7425
  841MOL0     H13522   3.115   2.392   2.377  1.2742  0.2401  0.2118
  841MOL0     H13523   2.676   2.414   2.290  0.1298  1.1444 -1.3087
  841MOL0     H13524   2.716   2.578   2.315 -0.7475 -0.4101 -2.7740
  841MOL0     H13525   2.616   2.353   2.491 -1.8991  0.9270 -1.3301
  841MOL0     H13526   2.582   2.533   2.488  0.7287  0.5674 -0.5761
  841MOL0     H13527   2.769   2.585   2.622  0.9866  0.0473 -3.5769
  841MOL0     H13528   2.834   2.411   2.613 -0.0458 -0.7290 -1.5410
  841MOL0     H13529   2.563   2.460   2.722  0.1873 -2.5400 -1.5762
  841MOL0     H13530   2.664   2.325   2.727  1.6532  0.2095 -1.0525
  841MOL0     H13531   2.784   2.621   3.037  1.2358 -1.8920  0.2975
  841MOL0     H13532   2.741   2.200   2.305  0.2207 -1.5915 -1.0943
  841MOL0     H13533   2.792   1.939   2.164 -2.7949 -0.5226  0.5046
  841MOL0     H13534   2.864   1.867   2.323  2.4976  0.4051 -2.3052
  841MOL0     H13535   2.716   1.964   2.307 -1.0968  0.3155 -0.1690
  842MOL0     O13536   2.995   6.599   2.836 -0.2507  0.6043  0.2343
  842MOL0     C13537   2.941   6.493   2.862 -0.0388  1.0717 -0.4899
  842MOL0     O13538   3.002   6.380   2.912 -0.1964  0.3983 -0.1699
  842MOL0     C13539   3.142   6.382   2.918 -0.2164  0.4989  0.7420
  842MOL0     C13540   3.209   6.371   3.043  0.5989 -0.4051  0.0788
  842MOL0     C13541   3.349   6.369   3.060  0.6188 -0.4806 -0.8469
  842MOL0     C13542   3.422   6.386   2.942 -0.5615 -0.5894  0.4367
  842MOL0     O13543   3.555   6.410   2.965 -0.2518  0.2003  0.4180
  842MOL0     C13544   3.650   6.405   2.860 -0.1302 -0.3527 -0.2923
  842MOL0     C13545   3.784   6.451   2.923  0.1447  0.0193 -0.1153
  842MOL0     C13546   3.888   6.400   2.829 -1.0046  0.4361  0.2304
  842MOL0     C13547   4.023   6.478   2.852  0.1558  0.0877 -0.4553
  842MOL0     C13548   4.117   6.435   2.733 -0.5477  0.5767  1.0980
  842MOL0     C13549   4.176   6.290   2.727  0.7858 -0.4639 -0.0029
  842MOL0     C13550   4.300   6.284   2.636  0.1860  0.7662 -0.5525
  842MOL0     C13551   4.253   6.295   2.490  1.1051 -0.1705  0.3945
  842MOL0     N13552   4.348   6.224   2.401 -0.9400  0.1008  0.4770
  842MOL0     C13553   4.455   6.279   2.333  0.7315 -0.1080 -0.3973
  842MOL0     C13554   4.508   6.178   2.246 -0.1171  0.1896 -0.1934
  842MOL0     C13555   4.628   6.164   2.146 -0.2259  0.6579  0.3393
  842MOL0     C13556   4.695   6.297   2.119 -0.1420  0.0092  0.0615
  842MOL0     C13557   4.806   6.297   2.011  0.5984  0.6123 -0.1171
  842MOL0     C13558   4.907   6.412   2.026 -0.7619  1.2920  0.2952
  842MOL0     O13559   4.970   6.403   2.153 -0.2020 -0.8016 -0.2613
  842MOL0     C13560   5.098   6.456   2.166  0.5482  0.7784 -0.1519
  842MOL0     C13561   5.148   6.544   2.072 -0.3041  0.4854  0.0560
  842MOL0     C13562   5.280   6.588   2.083 -0.3216 -0.4164 -0.2436
  842MOL0     C13563   5.370   6.540   2.185  0.8614  0.4445 -0.2309
  842MOL0     C13564   5.513   6.592   2.188  0.5402  0.2472  0.0407
  842MOL0     O13565   5.557   6.665   2.083 -0.1837  1.2430 -0.2988
  842MOL0     C13566   5.689   6.665   2.057 -0.4505 -0.1456 -0.0461
  842MOL0     C13567   5.792   6.715   2.145  0.4495 -0.1443 -0.8861
  842MOL0     C13568   5.925   6.713   2.106 -0.0381  0.2404  0.7360
  842MOL0     C13569   5.956   6.681   1.972 -0.6872 -0.1698  0.5620
  842MOL0     O13570   6.097   6.685   1.943  0.6707  0.2712 -1.3719
  842MOL0     C13571   6.147   6.713   1.814 -0.3251  0.5589  0.0936
  842MOL0     C13572   6.285   6.787   1.826  0.4002  0.3545  0.4025
  842MOL0     C13573   6.320   6.844   1.683  0.2875 -0.0084 -0.5757
  842MOL0     C13574   6.454   6.920   1.695 -0.3091  0.5050  0.5936
  842MOL0     C13575   6.529   6.951   1.561 -0.3776  0.0064 -0.7420
  842MOL0     C13576   6.612   6.839   1.513 -0.8257 -0.2034 -0.2749
  842MOL0     C13577   6.691   6.862   1.381 -0.5777  1.0884 -0.1275
  842MOL0     C13578   6.725   6.730   1.314 -0.3357 -0.2872  0.8780
  842MOL0    Cl13579   6.827   6.758   1.166 -0.3350  0.0985 -0.0114
  842MOL0     C13580   5.867   6.618   1.893 -0.4374 -0.4485  0.7789
  842MOL0     C13581   5.731   6.627   1.924  0.3732  0.9452  0.9342
  842MOL0     O13582   5.581   6.552   2.282  0.2371  0.5872 -0.2341
  842MOL0     C13583   5.316   6.460   2.283 -0.1029 -0.2475  0.2534
  842MOL0     C13584   5.182   6.417   2.275  0.0107  0.1798  0.8057
  842MOL0     N13585   4.426   6.071   2.270 -0.1484  0.8759 -0.3890
  842MOL0     N13586   4.334   6.100   2.357  0.2733  0.1502  0.0592
  842MOL0     C13587   3.361   6.398   2.819  0.5893  1.1742 -0.7467
  842MOL0     C13588   3.226   6.387   2.807  0.3415 -0.7275  0.0565
  842MOL0     C13589   2.790   6.489   2.859 -0.2214 -0.5016  0.3234
  842MOL0     C13590   2.731   6.402   2.954  0.2042  0.4781  0.1233
  842MOL0     C13591   2.596   6.377   2.964  0.2501 -0.7380 -0.0470
  842MOL0     C13592   2.512   6.454   2.889 -0.3903 -0.6989 -0.4679
  842MOL0     O13593   2.374   6.446   2.913  0.6336 -0.4096 -0.6307
  842MOL0     C13594   2.283   6.522   2.830 -0.0336 -0.5662  0.9106
  842MOL0     C13595   2.134   6.475   2.852 -0.9095 -0.7206 -0.3605
  842MOL0     C13596   2.114   6.326   2.840 -0.2985 -0.5379 -0.3980
  842MOL0     C13597   1.966   6.287   2.895  1.2486  1.0460  0.7683
  842MOL0     C13598   1.868   6.300   2.787  0.0884 -0.4955  0.6020
  842MOL0     C13599   1.800   6.305   2.686  0.0319  0.3613 -0.8882
  842MOL0     C13600   2.562   6.541   2.786  0.0014  0.3458  0.4064
  842MOL0     C13601   2.703   6.561   2.769 -1.3338  0.1141  1.3514
  842MOL0     C13602   2.752   6.629   2.648  0.7475 -0.9703  0.2665
  842MOL0     H13603   3.148   6.383   3.132  0.8677  1.0792  0.0974
  842MOL0     H13604   3.406   6.362   3.152  1.9946 -0.2812 -1.6503
  842MOL0     H13605   3.658   6.306   2.813 -2.2962  1.1012 -4.1798
  842MOL0     H13606   3.623   6.470   2.776 -0.3900 -0.0792 -0.0014
  842MOL0     H13607   3.813   6.408   3.020 -0.4312 -1.0455 -0.3984
  842MOL0     H13608   3.780   6.559   2.943  2.2315 -0.3170  3.0591
  842MOL0     H13609   3.853   6.418   2.727  0.9564  5.0310  0.1370
  842MOL0     H13610   3.897   6.293   2.848  0.9296  0.4695 -0.2602
  842MOL0     H13611   4.012   6.586   2.864 -1.9483 -0.3046  1.8334
  842MOL0     H13612   4.071   6.450   2.946 -1.0465 -1.4116 -0.2340
  842MOL0     H13613   4.062   6.453   2.641  1.2887  1.4427  0.1077
  842MOL0     H13614   4.209   6.494   2.719 -1.6649  1.6525 -2.7487
  842MOL0     H13615   4.203   6.268   2.831  0.4223 -0.6628  0.0489
  842MOL0     H13616   4.101   6.216   2.698 -0.0271 -0.2490  1.4860
  842MOL0     H13617   4.347   6.189   2.662 -1.8799  0.1110  1.0750
  842MOL0     H13618   4.375   6.354   2.673  1.3948 -1.2055  0.9495
  842MOL0     H13619   4.151   6.258   2.471  0.7496  0.4914  0.9488
  842MOL0     H13620   4.239   6.402   2.469  0.4866 -0.5919 -1.4818
  842MOL0     H13621   4.490   6.382   2.336 -0.1954  0.1858  1.2999
  842MOL0     H13622   4.704   6.093   2.178  1.7667  1.6609 -1.9165
  842MOL0     H13623   4.572   6.131   2.058 -2.3987 -2.7506  2.7222
  842MOL0     H13624   4.617   6.370   2.094  0.1029 -0.4567 -2.3019
  842MOL0     H13625   4.751   6.330   2.208  1.2944  0.5378 -1.0013
  842MOL0     H13626   4.748   6.314   1.919 -1.1153  2.8347  1.2528
  842MOL0     H13627   4.854   6.200   2.005  1.8069  1.2010 -0.2318
  842MOL0     H13628   4.853   6.503   1.997  1.2717  2.8969  1.3111
  842MOL0     H13629   4.990   6.394   1.957 -0.3598  0.5803  0.9588
  842MOL0     H13630   5.105   6.581   1.979  0.3600 -2.2279 -1.4016
  842MOL0     H13631   5.327   6.642   2.001  1.0618 -2.8042 -1.1227
  842MOL0     H13632   5.784   6.747   2.249 -0.0588  1.8333 -1.4900
  842MOL0     H13633   6.004   6.737   2.176 -0.9322  1.0149  1.5173
  842MOL0     H13634   6.155   6.618   1.761 -2.0639 -0.4087  1.4448
  842MOL0     H13635   6.062   6.764   1.768 -0.0509  1.8895  0.9975
  842MOL0     H13636   6.275   6.878   1.885 -3.2389  2.0725 -2.4315
  842MOL0     H13637   6.361   6.719   1.866 -0.3151  0.4969  2.0800
  842MOL0     H13638   6.339   6.752   1.626 -3.4854 -0.7447 -0.9281
  842MOL0     H13639   6.238   6.904   1.642 -1.8636 -1.2645  1.6344
  842MOL0     H13640   6.520   6.855   1.753  0.7768 -0.1459 -1.2921
  842MOL0     H13641   6.423   7.015   1.739  0.7503  1.5788 -0.8664
  842MOL0     H13642   6.590   7.042   1.567 -2.3308  1.2899  0.7355
  842MOL0     H13643   6.452   6.985   1.491 -0.5839  0.1914 -0.4316
  842MOL0     H13644   6.678   6.822   1.599 -3.7296  0.8492  2.3535
  842MOL0     H13645   6.554   6.747   1.501 -1.8229  0.2737  0.7025
  842MOL0     H13646   6.789   6.910   1.389  0.4635 -0.6383 -1.7561
  842MOL0     H13647   6.630   6.935   1.326  0.3087  2.3966  0.5690
  842MOL0     H13648   6.789   6.673   1.382 -0.0755 -0.9188  0.1094
  842MOL0     H13649   6.639   6.666   1.299  0.3223 -1.4075  1.7048
  842MOL0     H13650   5.904   6.575   1.801 -0.0983  1.8133 -0.2003
  842MOL0     H13651   5.658   6.580   1.860 -1.1145  0.2027  3.0738
  842MOL0     H13652   5.363   6.423   2.373 -1.5790  1.0211  1.5892
  842MOL0     H13653   5.150   6.352   2.356  0.1753  1.9149  2.3288
  842MOL0     H13654   3.428   6.415   2.736  0.9567  2.6534 -0.1790
  842MOL0     H13655   3.188   6.412   2.708 -0.0380  2.9935  0.9959
  842MOL0     H13656   2.796   6.346   3.021 -0.9095 -0.0540  0.7883
  842MOL0     H13657   2.555   6.323   3.049 -2.4226  0.9483 -0.1485
  842MOL0     H13658   2.304   6.509   2.724  1.2403  0.6347  0.9914
  842MOL0     H13659   2.279   6.627   2.861 -3.0069 -0.8733  1.8905
  842MOL0     H13660   2.072   6.518   2.773 -1.8048 -1.4962 -0.1018
  842MOL0     H13661   2.116   6.486   2.960  4.4646 -5.0843  1.4349
  842MOL0     H13662   2.175   6.270   2.912  1.3788  1.5794 -0.0945
  842MOL0     H13663   2.134   6.298   2.736  0.2101 -0.2668 -0.3746
  842MOL0     H13664   1.964   6.183   2.927 -1.7126 -0.5153 -3.5517
  842MOL0     H13665   1.918   6.338   2.979  1.1662  1.0634  0.7121
  842MOL0     H13666   1.739   6.302   2.598  1.3214 -0.3235 -1.7958
  842MOL0     H13667   2.497   6.601   2.723 -0.3688 -1.4335 -0.9891
  842MOL0     H13668   2.860   6.637   2.642  0.5575  0.4625 -3.2879
  842MOL0     H13669   2.721   6.585   2.553 -3.1264  2.1407 -0.1718
  842MOL0     H13670   2.718   6.733   2.652  1.8034 -0.6453  0.9914
  843MOL0     O13671   4.587   4.783   4.567  0.2507 -0.1298  0.1807
  843MOL0     C13672   4.494   4.847   4.614  0.3432  0.0774  0.1959
  843MOL0     O13673   4.503   4.960   4.696 -0.4067 -0.2687  0.1454
  843MOL0     C13674   4.622   4.962   4.760 -1.0863 -0.9328 -0.5936
  843MOL0     C13675   4.646   4.873   4.873 -1.1856  0.0498  0.1113
  843MOL0     C13676   4.768   4.893   4.943 -0.0687 -0.3162 -0.2794
  843MOL0     C13677   4.863   4.996   4.912  0.3135  0.5063 -0.4479
  843MOL0     O13678   4.987   5.010   4.963 -0.5828 -0.0734  0.6174
  843MOL0     C13679   5.034   4.909   5.059  0.4685  0.2160  0.3712
  843MOL0     C13680   5.187   4.909   5.083  0.6328 -0.5056  0.7731
  843MOL0     C13681   5.246   4.787   5.149 -0.5511  0.2584 -0.9335
  843MOL0     C13682   5.378   4.736   5.095 -1.6180  0.4243 -0.4372
  843MOL0     C13683   5.502   4.833   5.123 -0.7442 -0.3171  0.3344
  843MOL0     C13684   5.506   4.941   5.029 -0.3451 -1.3817  0.2715
  843MOL0     C13685   5.626   5.032   5.031  0.1876  0.0286 -0.1034
  843MOL0     C13686   5.662   5.092   5.162 -0.6656  0.5446  1.1930
  843MOL0     N13687   5.776   5.187   5.149 -0.1425 -0.5939 -0.4520
  843MOL0     C13688   5.834   5.238   5.261  0.2375 -0.2946 -0.6241
  843MOL0     C13689   5.952   5.286   5.224  0.0436 -0.3875 -0.9040
  843MOL0     C13690   6.050   5.367   5.304 -0.3760  0.4681 -1.1735
  843MOL0     C13691   6.192   5.368   5.252  0.3891 -0.6800  0.4204
  843MOL0     C13692   6.285   5.444   5.350 -0.3249 -0.6163 -0.0843
  843MOL0     C13693   6.432   5.419   5.334  0.0627  0.4039  0.6063
  843MOL0     O13694   6.475   5.495   5.223 -0.0497  0.8919 -0.1724
  843MOL0     C13695   6.611   5.516   5.199 -0.1908 -0.4425 -1.1312
  843MOL0     C13696   6.720   5.501   5.294  0.1439  0.3176 -0.0085
  843MOL0     C13697   6.849   5.512   5.253  0.1803  0.1100 -0.0638
  843MOL0     C13698   6.882   5.535   5.114  0.6446  0.0564 -0.6193
  843MOL0     C13699   7.014   5.569   5.074  0.0439  1.2961 -0.0551
  843MOL0     O13700   7.099   5.609   5.165 -0.0126  0.0132 -0.1101
  843MOL0     C13701   7.221   5.676   5.140 -0.2359  0.1461 -0.0834
  843MOL0     C13702   7.243   5.759   5.030  0.2778  0.4275  0.4460
  843MOL0     C13703   7.362   5.818   5.003  1.0651 -0.9385 -0.0673
  843MOL0     C13704   7.467   5.805   5.089 -0.3129 -0.9368  0.2148
  843MOL0     O13705   7.585   5.877   5.067 -0.4122 -0.5915  0.0511
  843MOL0     C13706   7.675   5.908   5.177  0.2424 -0.1696  0.6627
  843MOL0     C13707   7.721   6.050   5.162  0.4436 -0.3894 -0.3812
  843MOL0     C13708   7.830   6.110   5.256 -0.5445  0.5655 -0.0024
  843MOL0     C13709   7.862   6.251   5.221 -0.2085 -0.3989  0.8916
  843MOL0     C13710   7.958   6.328   5.312  0.3996 -0.7055 -1.1157
  843MOL0     C13711   8.108   6.287   5.306 -0.6266  0.2152 -0.1529
  843MOL0     C13712   8.188   6.338   5.427  0.1514  0.2563 -0.4063
  843MOL0     C13713   8.321   6.263   5.451 -0.1611 -0.2665 -0.5451
  843MOL0    Cl13714   8.305   6.095   5.515 -0.6305 -0.0986 -0.4389
  843MOL0     C13715   7.453   5.715   5.202  0.6789 -0.7471  0.1050
  843MOL0     C13716   7.329   5.653   5.226  0.4635  0.3461  0.1375
  843MOL0     O13717   7.043   5.557   4.957  0.4633  0.4371 -0.4504
  843MOL0     C13718   6.778   5.541   5.022 -0.0997 -0.1107 -0.5927
  843MOL0     C13719   6.645   5.521   5.067 -0.1583 -0.0377 -0.2051
  843MOL0     N13720   5.967   5.265   5.093 -0.4608  1.0971  0.3979
  843MOL0     N13721   5.864   5.195   5.045 -0.6888 -0.9212 -0.2022
  843MOL0     C13722   4.826   5.087   4.817  0.0659  0.1788  0.3427
  843MOL0     C13723   4.707   5.073   4.746 -0.2697 -0.2037  0.4998
  843MOL0     C13724   4.369   4.806   4.550 -0.3402  0.3249 -0.2888
  843MOL0     C13725   4.360   4.685   4.486  0.2215 -0.2528 -0.1732
  843MOL0     C13726   4.228   4.646   4.446  0.5572  0.6410  0.2665
  843MOL0     C13727   4.115   4.718   4.470  0.4837 -0.7430  0.0556
  843MOL0     O13728   3.992   4.674   4.419 -0.2396  0.7017  0.4623
  843MOL0     C13729   3.967   4.530   4.415 -0.5446 -0.4493 -0.8181
  843MOL0     C13730   3.868   4.488   4.523 -0.1258 -0.5002 -0.6723
  843MOL0     C13731   3.735   4.555   4.513  0.4137 -0.6121  0.5226
  843MOL0     C13732   3.646   4.485   4.621  1.0891 -0.7139  0.5329
  843MOL0     C13733   3.510   4.541   4.632 -0.2927 -0.6559 -0.5880
  843MOL0     C13734   3.391   4.570   4.643 -0.5750  0.4313  0.0416
  843MOL0     C13735   4.133   4.840   4.528  0.7190 -0.3887  0.1263
  843MOL0     C13736   4.253   4.886   4.572 -0.1179 -0.4887  0.4908
  843MOL0     C13737   4.241   5.016   4.647  0.3912  0.9232  0.2923
  843MOL0     H13738   4.581   4.790   4.896 -1.4315  0.1119 -0.3457
  843MOL0     H13739   4.797   4.818   5.016  2.3034 -0.3638 -1.1836
  843MOL0     H13740   4.973   4.922   5.149 -0.3585 -0.8706  0.0042
  843MOL0     H13741   5.018   4.810   5.014 -2.3108  1.6788 -2.2301
  843MOL0     H13742   5.220   5.002   5.130  1.6775 -2.5226  4.4998
  843MOL0     H13743   5.228   4.904   4.982 -1.3640 -0.5006 -0.0835
  843MOL0     H13744   5.177   4.703   5.159 -0.1898  0.2248  2.9598
  843MOL0     H13745   5.266   4.817   5.253  3.4964  1.4683 -1.8460
  843MOL0     H13746   5.409   4.644   5.146  0.3893  0.4112 -1.5906
  843MOL0     H13747   5.365   4.703   4.992  0.9659 -1.4068 -0.2510
  843MOL0     H13748   5.500   4.873   5.225  0.5688  1.2920 -0.2434
  843MOL0     H13749   5.597   4.781   5.114 -0.2713  0.1575  2.0818
  843MOL0     H13750   5.487   4.898   4.929  1.9387  1.0805 -1.3457
  843MOL0     H13751   5.425   5.007   5.059 -0.9048 -2.2595  0.7319
  843MOL0     H13752   5.610   5.115   4.961  1.9090  1.2300  0.8617
  843MOL0     H13753   5.711   4.976   4.991  1.0271  0.4316  1.0679
  843MOL0     H13754   5.569   5.133   5.204 -1.3196 -0.5186  0.8227
  843MOL0     H13755   5.708   5.012   5.220 -1.1154 -1.2528 -0.7827
  843MOL0     H13756   5.801   5.242   5.365  0.7981  2.8363 -0.4439
  843MOL0     H13757   6.015   5.470   5.309 -1.9044 -0.0152  4.7288
  843MOL0     H13758   6.052   5.331   5.407  1.2558  3.4659 -0.0212
  843MOL0     H13759   6.222   5.264   5.236 -1.4392 -1.0371 -1.0072
  843MOL0     H13760   6.192   5.412   5.152  1.5528 -1.0410  0.2592
  843MOL0     H13761   6.253   5.418   5.451  4.2277 -2.3880  1.1555
  843MOL0     H13762   6.268   5.552   5.344  0.1670 -0.5594 -0.5512
  843MOL0     H13763   6.449   5.311   5.326 -1.9674 -0.0515  2.0009
  843MOL0     H13764   6.480   5.460   5.423  0.5910  0.4812  0.2951
  843MOL0     H13765   6.711   5.481   5.400  3.5893 -1.8728  0.0008
  843MOL0     H13766   6.921   5.502   5.334 -0.3283 -1.3538  0.2288
  843MOL0     H13767   7.155   5.766   4.966  0.9422  1.9253 -0.3521
  843MOL0     H13768   7.374   5.883   4.917 -1.1239  0.5693  0.6970
  843MOL0     H13769   7.628   5.900   5.275 -0.6563  0.9217  0.3366
  843MOL0     H13770   7.766   5.850   5.157 -0.4692 -0.0775 -4.0213
  843MOL0     H13771   7.776   6.049   5.067  0.0001 -2.8935 -0.6820
  843MOL0     H13772   7.644   6.127   5.173  1.1183  0.0189  2.0722
  843MOL0     H13773   7.815   6.094   5.363  1.0425 -0.4547  0.0886
  843MOL0     H13774   7.924   6.058   5.237 -0.0302  1.9386 -1.4455
  843MOL0     H13775   7.766   6.303   5.224  0.2549  0.4947  0.7045
  843MOL0     H13776   7.897   6.252   5.117  0.6736 -1.4623  1.1692
  843MOL0     H13777   7.915   6.321   5.413 -0.8335  2.0625 -1.3373
  843MOL0     H13778   7.955   6.434   5.283  1.7256  0.5192  2.6075
  843MOL0     H13779   8.109   6.178   5.313 -2.2201  0.1268 -0.9055
  843MOL0     H13780   8.149   6.313   5.208  0.2099 -1.8732 -0.4105
  843MOL0     H13781   8.117   6.342   5.510 -1.6807 -1.9273 -1.7769
  843MOL0     H13782   8.212   6.445   5.432 -2.3354  0.8056  2.0657
  843MOL0     H13783   8.368   6.251   5.353  0.0166  1.3600 -0.6932
  843MOL0     H13784   8.382   6.329   5.513 -4.3667 -0.5382  4.6205
  843MOL0     H13785   7.533   5.703   5.275  1.4203  2.2315 -0.0787
  843MOL0     H13786   7.323   5.588   5.313 -0.9779  3.1336  2.3404
  843MOL0     H13787   6.812   5.551   4.919  2.4603 -1.0996  0.0853
  843MOL0     H13788   6.565   5.527   4.994 -0.7939  0.2328  0.5001
  843MOL0     H13789   4.885   5.178   4.817  1.6225 -0.7215 -1.7068
  843MOL0     H13790   4.682   5.148   4.672  1.9837 -2.1375 -2.4628
  843MOL0     H13791   4.442   4.616   4.471  1.2697  0.2297  2.7665
  843MOL0     H13792   4.225   4.556   4.386  0.7131  1.3610 -0.8572
  843MOL0     H13793   4.054   4.466   4.432  0.4225  1.2532  1.1169
  843MOL0     H13794   3.926   4.504   4.317  1.0041 -3.9550 -0.7123
  843MOL0     H13795   3.916   4.504   4.620  0.0201  1.1123 -0.9861
  843MOL0     H13796   3.848   4.383   4.500  0.0732 -0.9781  1.1598
  843MOL0     H13797   3.687   4.551   4.415  3.2019  1.3926 -1.0768
  843MOL0     H13798   3.732   4.661   4.540 -0.9686  0.5868 -3.6108
  843MOL0     H13799   3.634   4.379   4.597 -0.0533 -0.4543 -0.1336
  843MOL0     H13800   3.692   4.486   4.720  1.2932 -0.8401  0.4423
  843MOL0     H13801   3.290   4.605   4.633 -0.9901 -0.8100 -0.2480
  843MOL0     H13802   4.049   4.907   4.539 -0.4560 -1.9878  1.3895
  843MOL0     H13803   4.245   4.992   4.754  0.7705 -1.9612 -0.2758
  843MOL0     H13804   4.323   5.079   4.613  1.5115 -1.4187 -1.6552
  843MOL0     H13805   4.155   5.080   4.623 -0.1258 -0.0934 -0.6720
  844MOL0     O13806   8.874   2.436   5.319 -0.0817  0.8682  0.0884
  844MOL0     C13807   8.821   2.325   5.335 -0.0145 -0.5211  0.2003
  844MOL0     O13808   8.860   2.222   5.416  0.0231 -0.5998 -0.4777
  844MOL0     C13809   8.951   2.256   5.511 -0.4998 -0.0839  0.0491
  844MOL0     C13810   8.908   2.313   5.632  0.2687 -0.0778  0.7064
  844MOL0     C13811   9.004   2.367   5.716 -0.1095 -0.2891  0.0998
  844MOL0     C13812   9.137   2.375   5.688  0.3394  0.2339  0.2623
  844MOL0     O13813   9.213   2.430   5.786  0.0651  0.1724 -0.1318
  844MOL0     C13814   9.355   2.421   5.788 -0.0938 -0.7322  0.0896
  844MOL0     C13815   9.414   2.442   5.926 -0.0226 -0.0612 -0.5781
  844MOL0     C13816   9.451   2.309   5.997  0.3909 -0.2729  0.0128
  844MOL0     C13817   9.476   2.341   6.150 -0.1826 -0.0492  0.5023
  844MOL0     C13818   9.481   2.211   6.226 -0.1854  0.1798 -0.8796
  844MOL0     C13819   9.517   2.241   6.377  0.8149  0.5335  0.1688
  844MOL0     C13820   9.596   2.120   6.437  0.4891 -0.2074  0.7722
  844MOL0     C13821   9.666   2.145   6.565  0.4946  0.1104 -0.5797
  844MOL0     N13822   9.806   2.181   6.548 -0.6528 -0.6327  0.8337
  844MOL0     C13823   9.917   2.113   6.591  0.2701  0.3401  0.2488
  844MOL0     C13824  10.025   2.184   6.560 -0.5257  0.4744  0.4244
  844MOL0     C13825  10.169   2.147   6.567  0.3948 -0.2654 -0.2130
  844MOL0     C13826  10.261   2.256   6.590 -0.7983  0.4579 -0.2352
  844MOL0     C13827  10.235   2.320   6.731 -0.6195 -0.2941 -0.3612
  844MOL0     C13828  10.359   2.400   6.774  0.9988  0.1233 -0.2607
  844MOL0     O13829  10.459   2.318   6.837 -0.6989 -0.4722 -0.4259
  844MOL0     C13830  10.572   2.391   6.875 -0.8583 -0.5534  0.4460
  844MOL0     C13831  10.597   2.534   6.864  0.7937 -0.8502  0.2675
  844MOL0     C13832  10.711   2.591   6.919  0.4226  0.8114  0.1459
  844MOL0     C13833  10.800   2.512   6.990 -0.8377  0.1269 -0.3026
  844MOL0     C13834  10.924   2.576   7.042 -0.9741 -0.5417  0.4899
  844MOL0     O13835  10.962   2.694   6.974  0.7244 -0.1527  0.1639
  844MOL0     C13836  11.058   2.781   7.025  1.5584  0.9296  0.6603
  844MOL0     C13837  11.064   2.798   7.161  0.2653  0.0193 -0.3543
  844MOL0     C13838  11.151   2.892   7.219 -0.6373 -0.0619 -0.1804
  844MOL0     C13839  11.234   2.964   7.145  0.1204  0.0156  0.9208
  844MOL0     O13840  11.321   3.048   7.203  0.0856 -0.2479  0.0656
  844MOL0     C13841  11.387   3.143   7.117 -0.2675 -0.1519  0.4230
  844MOL0     C13842  11.459   3.254   7.191  0.2482 -0.0483  0.0401
  844MOL0     C13843  11.349   3.341   7.247 -0.0341 -0.0253  0.1642
  844MOL0     C13844  11.425   3.447   7.342  0.2566  0.8022  0.1098
  844MOL0     C13845  11.322   3.547   7.394  0.1600  0.0357  0.2942
  844MOL0     C13846  11.404   3.634   7.477  0.1255 -0.5178 -0.2846
  844MOL0     C13847  11.318   3.757   7.501 -0.2789 -1.0438 -0.4063
  844MOL0     C13848  11.220   3.737   7.619 -0.5628  0.5787 -0.1576
  844MOL0    Cl13849  11.102   3.865   7.602  0.1170  0.2691  0.6787
  844MOL0     C13850  11.231   2.945   7.000 -0.0907 -0.0824 -0.2245
  844MOL0     C13851  11.138   2.860   6.942  0.8213 -0.1169 -0.0788
  844MOL0     O13852  10.984   2.518   7.131 -0.2265 -0.4779  0.3586
  844MOL0     C13853  10.780   2.369   6.989  0.0859 -0.3161  0.4476
  844MOL0     C13854  10.672   2.314   6.935 -0.1150  0.0383  0.3610
  844MOL0     N13855   9.983   2.297   6.505  0.5988 -0.8356 -0.3100
  844MOL0     N13856   9.858   2.294   6.503 -0.1471 -0.5227  0.3849
  844MOL0     C13857   9.190   2.323   5.568  0.1403  0.2602  0.3060
  844MOL0     C13858   9.092   2.261   5.480 -0.4171 -0.7437 -0.6254
  844MOL0     C13859   8.705   2.304   5.241  0.1894  1.0091  0.0224
  844MOL0     C13860   8.694   2.371   5.115  0.5839 -0.4604 -1.1653
  844MOL0     C13861   8.591   2.357   5.021 -0.5523  0.6125 -0.0599
  844MOL0     C13862   8.476   2.282   5.052 -0.0839 -0.2746 -0.4398
  844MOL0     O13863   8.363   2.290   4.972  0.1248  0.7416 -0.6604
  844MOL0     C13864   8.262   2.181   4.978  0.5895 -0.6201 -0.5198
  844MOL0     C13865   8.210   2.148   4.838 -0.2590 -0.1747 -0.2998
  844MOL0     C13866   8.091   2.059   4.821 -0.2907 -0.0994  0.7927
  844MOL0     C13867   8.095   1.913   4.871  0.4676  0.8829  0.3787
  844MOL0     C13868   7.972   1.837   4.868  0.8053  0.1657  0.3924
  844MOL0     C13869   7.875   1.757   4.890 -0.6308  0.8128  0.7031
  844MOL0     C13870   8.482   2.216   5.180 -0.8811 -0.1008  0.6269
  844MOL0     C13871   8.592   2.222   5.270  0.3496  0.5717 -0.8722
  844MOL0     C13872   8.567   2.139   5.397 -0.3748  0.1161  0.4994
  844MOL0     H13873   8.804   2.308   5.662 -0.3034 -1.3273 -1.2540
  844MOL0     H13874   8.969   2.409   5.810  2.6906  0.5566  0.8459
  844MOL0     H13875   9.380   2.319   5.758  0.4306 -0.3184 -0.9251
  844MOL0     H13876   9.396   2.491   5.714  1.7717 -1.2121  0.6200
  844MOL0     H13877   9.339   2.493   5.988  0.1306 -1.4990  0.8725
  844MOL0     H13878   9.503   2.505   5.932 -0.0770 -0.1032  2.1417
  844MOL0     H13879   9.543   2.263   5.959  2.2815  0.5531  3.1861
  844MOL0     H13880   9.365   2.243   5.984  1.2403 -1.7042  1.3373
  844MOL0     H13881   9.577   2.380   6.164  0.1701 -0.4859 -0.6488
  844MOL0     H13882   9.401   2.404   6.198 -0.7131 -0.3762  0.1158
  844MOL0     H13883   9.385   2.162   6.209  0.3267 -0.3832 -2.3317
  844MOL0     H13884   9.563   2.151   6.185  0.1639  0.8003 -1.0999
  844MOL0     H13885   9.581   2.329   6.388  0.2811  0.7407  1.7453
  844MOL0     H13886   9.426   2.256   6.435 -0.3779 -3.2271 -0.4503
  844MOL0     H13887   9.671   2.097   6.361  2.2799  1.4665  1.9474
  844MOL0     H13888   9.519   2.043   6.449  0.2613  0.1171  1.4388
  844MOL0     H13889   9.611   2.222   6.621 -2.2328 -0.4231 -2.3323
  844MOL0     H13890   9.668   2.049   6.618 -0.8658  0.4434  0.1293
  844MOL0     H13891   9.919   2.023   6.650  3.5363 -0.5840 -1.0267
  844MOL0     H13892  10.180   2.073   6.647 -0.5647 -0.3107 -0.1101
  844MOL0     H13893  10.187   2.095   6.472 -1.4674  1.9915 -1.9413
  844MOL0     H13894  10.359   2.209   6.596 -1.4987 -1.1394 -0.8922
  844MOL0     H13895  10.261   2.336   6.515 -1.1661 -0.2450 -1.0089
  844MOL0     H13896  10.225   2.240   6.804  0.6974 -0.5399 -0.4398
  844MOL0     H13897  10.152   2.391   6.720  1.0723  1.7326 -0.6841
  844MOL0     H13898  10.317   2.475   6.842  0.8187 -2.1203  2.2870
  844MOL0     H13899  10.396   2.445   6.682 -0.1523 -0.5284 -1.0756
  844MOL0     H13900  10.524   2.599   6.817  1.0369 -0.2799  0.6640
  844MOL0     H13901  10.731   2.698   6.916  0.3710  0.9803  3.0863
  844MOL0     H13902  11.008   2.736   7.231 -1.5965 -1.1495 -2.7239
  844MOL0     H13903  11.154   2.893   7.327  1.1295 -1.3274 -0.1667
  844MOL0     H13904  11.460   3.096   7.049  1.8073  3.0548  0.2336
  844MOL0     H13905  11.313   3.191   7.052  1.1519  2.4526  0.5815
  844MOL0     H13906  11.524   3.216   7.270 -0.1762 -0.0237  0.4063
  844MOL0     H13907  11.518   3.306   7.115  2.9145 -1.2443  1.1609
  844MOL0     H13908  11.302   3.387   7.159 -0.8085 -2.3001 -0.6707
  844MOL0     H13909  11.277   3.281   7.303 -2.0230  0.7776 -1.4146
  844MOL0     H13910  11.502   3.495   7.281  1.1084 -1.0968 -0.4104
  844MOL0     H13911  11.475   3.399   7.427  1.4848  0.4669 -0.7683
  844MOL0     H13912  11.246   3.495   7.452  0.9587 -0.6553  0.7457
  844MOL0     H13913  11.282   3.599   7.306  2.5857 -0.3168 -1.1278
  844MOL0     H13914  11.430   3.586   7.572  0.3462  0.2804  0.0645
  844MOL0     H13915  11.498   3.660   7.427  0.4400  0.5284  0.8213
  844MOL0     H13916  11.258   3.781   7.412  1.3318  0.1067 -1.2218
  844MOL0     H13917  11.384   3.843   7.510 -0.3967 -0.8867 -0.9929
  844MOL0     H13918  11.172   3.639   7.622  2.2521 -0.9080  0.1730
  844MOL0     H13919  11.272   3.751   7.714 -0.1008  1.6909 -0.5529
  844MOL0     H13920  11.302   2.997   6.936 -0.5965  0.3177 -0.4690
  844MOL0     H13921  11.126   2.831   6.838 -2.6692 -2.9599  0.9050
  844MOL0     H13922  10.846   2.296   7.035  0.6048 -0.4814 -0.5271
  844MOL0     H13923  10.671   2.206   6.938  1.5864 -0.0478 -0.6458
  844MOL0     H13924   9.293   2.342   5.539  0.1584 -0.9714 -0.4906
  844MOL0     H13925   9.139   2.231   5.387  2.0111  1.0372 -0.0970
  844MOL0     H13926   8.780   2.427   5.080  0.3476 -0.4860 -1.8048
  844MOL0     H13927   8.587   2.415   4.929 -1.1941  0.4170 -0.1634
  844MOL0     H13928   8.183   2.202   5.051  2.5798  1.3677  1.1816
  844MOL0     H13929   8.321   2.094   5.011 -0.0310 -1.1815 -0.8528
  844MOL0     H13930   8.299   2.120   4.782 -0.4378 -1.2160 -0.0683
  844MOL0     H13931   8.175   2.244   4.799 -1.2555 -0.9567 -1.4013
  844MOL0     H13932   8.057   2.049   4.718  0.7720 -2.5241  0.6167
  844MOL0     H13933   8.011   2.109   4.876 -0.2071  0.4331  0.4357
  844MOL0     H13934   8.164   1.869   4.798 -0.5519  1.7438 -1.1444
  844MOL0     H13935   8.145   1.900   4.968 -0.7432  0.6116  0.9935
  844MOL0     H13936   7.797   1.690   4.919 -1.6176 -0.0043 -3.2437
  844MOL0     H13937   8.393   2.164   5.215 -0.6947 -0.2640  0.8636
  844MOL0     H13938   8.599   2.037   5.377  3.2366  1.2410 -0.1519
  844MOL0     H13939   8.618   2.184   5.483  0.9789  0.4236 -0.4444
  844MOL0     H13940   8.461   2.146   5.423 -0.3419  0.8962  0.4581
  845MOL0     O13941   0.400   2.258   1.603  0.2889 -0.3399  0.4802
  845MOL0     C13942   0.378   2.363   1.533  0.3213  0.2578 -0.1199
  845MOL0     O13943   0.472   2.425   1.459  0.0661 -0.1533  0.9929
  845MOL0     C13944   0.605   2.395   1.454  0.4056 -0.8374  0.0638
  845MOL0     C13945   0.666   2.372   1.330 -0.0184 -0.4135  0.8885
  845MOL0     C13946   0.800   2.341   1.317 -0.7739  0.4798 -0.0212
  845MOL0     C13947   0.882   2.330   1.435 -0.0400  0.3393 -0.2375
  845MOL0     O13948   1.015   2.298   1.438  0.2907 -0.0928 -0.2796
  845MOL0     C13949   1.087   2.249   1.327 -0.4774 -0.0318  0.0294
  845MOL0     C13950   1.231   2.215   1.352  0.2915 -0.2357 -0.6406
  845MOL0     C13951   1.284   2.129   1.232  0.1813  0.6398  0.9299
  845MOL0     C13952   1.410   2.199   1.194 -0.2252 -0.3721  0.0672
  845MOL0     C13953   1.484   2.124   1.083  1.5262 -0.7214  0.2222
  845MOL0     C13954   1.624   2.178   1.078 -0.4235 -0.0559 -0.2274
  845MOL0     C13955   1.717   2.083   0.991 -0.3396  0.7561  0.2548
  845MOL0     C13956   1.855   2.146   0.983 -0.4071  0.4401  0.5514
  845MOL0     N13957   1.960   2.079   0.900 -0.1825 -0.6478 -0.1373
  845MOL0     C13958   1.967   2.088   0.762  0.3687  0.6084  0.1203
  845MOL0     C13959   2.059   1.996   0.730 -0.0492  0.4920 -0.0267
  845MOL0     C13960   2.090   1.977   0.590  0.2898  0.0352 -0.0429
  845MOL0     C13961   2.231   1.923   0.567 -0.3725 -0.4545 -0.5797
  845MOL0     C13962   2.234   1.853   0.431 -0.1923 -0.0240  0.8227
  845MOL0     C13963   2.242   1.945   0.306  0.6977  0.4605 -0.2512
  845MOL0     O13964   2.336   2.050   0.327 -0.5568  0.0308 -0.1252
  845MOL0     C13965   2.466   2.025   0.293  0.0937 -0.3736  0.6392
  845MOL0     C13966   2.544   1.910   0.299  0.0722  0.2228 -0.0708
  845MOL0     C13967   2.681   1.910   0.266 -0.0238 -0.4441 -0.1731
  845MOL0     C13968   2.730   2.028   0.204 -0.4950 -0.6682  0.5635
  845MOL0     C13969   2.871   2.026   0.143  0.1386 -0.4975  1.0621
  845MOL0     O13970   2.917   2.148   0.088 -0.1166  0.2498  0.4056
  845MOL0     C13971   3.035   2.142   0.019  0.2581 -0.3658  0.6987
  845MOL0     C13972   3.040   2.154  -0.125  0.6959  0.8289  0.4733
  845MOL0     C13973   3.160   2.155  -0.187  0.3520 -0.2815  0.6595
  845MOL0     C13974   3.285   2.160  -0.117  0.9116  0.2037 -0.5551
  845MOL0     O13975   3.396   2.180  -0.186  0.2059 -0.5394  0.4867
  845MOL0     C13976   3.509   2.106  -0.147  0.3407  0.2431  0.1165
  845MOL0     C13977   3.616   2.178  -0.077  0.0666 -0.8504  0.0066
  845MOL0     C13978   3.763   2.120  -0.077  0.9839 -0.1284  0.2145
  845MOL0     C13979   3.833   2.127  -0.218  0.0510  0.7495  0.3456
  845MOL0     C13980   3.960   2.039  -0.220 -0.3018  0.1331  1.0116
  845MOL0     C13981   4.035   2.041  -0.358 -1.1859  0.3647 -0.1661
  845MOL0     C13982   4.183   1.985  -0.335  0.6114 -0.4343 -0.1011
  845MOL0     C13983   4.273   2.021  -0.449  0.6605 -0.4930 -0.4136
  845MOL0    Cl13984   4.307   2.204  -0.444  0.0580 -0.2103 -0.6493
  845MOL0     C13985   3.276   2.159   0.020  0.4882 -0.9266  0.4408
  845MOL0     C13986   3.155   2.150   0.095 -0.5501 -0.2081  0.5321
  845MOL0     O13987   2.931   1.917   0.150  0.1472 -0.4419  0.5402
  845MOL0     C13988   2.658   2.145   0.202  0.5943  0.7468  0.4965
  845MOL0     C13989   2.527   2.147   0.249 -0.6415  0.5521 -1.0496
  845MOL0     N13990   2.095   1.924   0.842  0.4678 -0.3761  0.1895
  845MOL0     N13991   2.042   1.974   0.943 -0.0271 -0.3188  0.3941
  845MOL0     C13992   0.821   2.354   1.559  0.0177 -0.0456 -0.1733
  845MOL0     C13993   0.682   2.387   1.571 -0.3240 -0.4282  0.0389
  845MOL0     C13994   0.245   2.418   1.538  1.0008 -0.2035  0.4148
  845MOL0     C13995   0.166   2.397   1.657  0.6934  0.1909  0.5232
  845MOL0     C13996   0.023   2.432   1.664  0.0544 -0.6349 -0.4600
  845MOL0     C13997  -0.031   2.500   1.550 -0.1266  0.4121 -0.5944
  845MOL0     O13998  -0.161   2.535   1.535 -1.1709  0.5005 -0.2277
  845MOL0     C13999  -0.274   2.475   1.600 -0.7068  0.4136  0.8029
  845MOL0     C14000  -0.329   2.366   1.510  0.4008  0.5100 -0.9979
  845MOL0     C14001  -0.291   2.220   1.539  0.3955 -0.0183  0.0648
  845MOL0     C14002  -0.354   2.127   1.447  0.2645 -0.3813 -0.2788
  845MOL0     C14003  -0.312   1.996   1.487 -0.1326  0.8225  0.1331
  845MOL0     C14004  -0.281   1.889   1.533 -0.5128  0.2682 -1.0768
  845MOL0     C14005   0.053   2.533   1.440  0.0985  0.2606 -0.0929
  845MOL0     C14006   0.181   2.486   1.431 -0.3767  0.3301  0.3527
  845MOL0     C14007   0.246   2.510   1.296 -0.2841  0.3017  0.4751
  845MOL0     H14008   0.602   2.361   1.243 -4.1306 -1.8164  3.7976
  845MOL0     H14009   0.845   2.310   1.222  0.0202  0.6844  0.2806
  845MOL0     H14010   1.038   2.158   1.289  0.4372 -0.6267  0.2475
  845MOL0     H14011   1.077   2.331   1.255  1.2664 -0.3169 -0.5945
  845MOL0     H14012   1.251   2.161   1.445  2.6642  2.3753  0.5299
  845MOL0     H14013   1.284   2.310   1.360  0.0651  0.0549 -2.2139
  845MOL0     H14014   1.224   2.127   1.140  1.6583  0.5080 -0.0511
  845MOL0     H14015   1.303   2.028   1.271  1.8697  0.4314 -0.3467
  845MOL0     H14016   1.382   2.292   1.143 -0.2049 -0.0629  0.6161
  845MOL0     H14017   1.481   2.210   1.276  1.2677 -1.6382 -0.9815
  845MOL0     H14018   1.475   2.016   1.098 -3.0717 -0.1226  3.8866
  845MOL0     H14019   1.433   2.129   0.986 -1.5075  2.1115  1.7672
  845MOL0     H14020   1.634   2.276   1.031  0.8049 -0.1309 -0.1748
  845MOL0     H14021   1.672   2.189   1.175 -0.9225  0.2824 -0.0162
  845MOL0     H14022   1.673   2.061   0.893 -1.1363 -0.0660  0.7782
  845MOL0     H14023   1.722   1.991   1.050 -3.0465 -0.8339 -1.7470
  845MOL0     H14024   1.842   2.250   0.953  1.0506 -0.3699 -3.5203
  845MOL0     H14025   1.891   2.137   1.086  0.3853 -1.0828  0.1816
  845MOL0     H14026   1.921   2.151   0.687 -0.9735 -1.1829 -0.6516
  845MOL0     H14027   2.032   1.894   0.550 -0.9391 -0.5084  2.6428
  845MOL0     H14028   2.073   2.061   0.522 -1.8413 -0.4166 -0.1155
  845MOL0     H14029   2.302   2.004   0.555  0.0747 -1.1126 -2.8929
  845MOL0     H14030   2.264   1.858   0.649 -0.5556 -1.7813 -1.5167
  845MOL0     H14031   2.143   1.792   0.426 -1.6635  1.9135  2.3486
  845MOL0     H14032   2.319   1.785   0.425 -1.1602 -1.1946 -2.6171
  845MOL0     H14033   2.144   1.992   0.297  0.4196  0.0061  0.3171
  845MOL0     H14034   2.255   1.886   0.214 -0.4592 -3.7435  2.0251
  845MOL0     H14035   2.499   1.815   0.327 -1.6381  0.1766 -2.6794
  845MOL0     H14036   2.735   1.819   0.289  0.9087  0.7004  2.5411
  845MOL0     H14037   2.942   2.158  -0.170  0.4509 -1.5676  0.6682
  845MOL0     H14038   3.171   2.164  -0.294 -0.0524 -3.6938  0.2063
  845MOL0     H14039   3.484   2.023  -0.081 -2.9469  0.2581 -0.9298
  845MOL0     H14040   3.558   2.065  -0.236 -0.2741 -2.9962  1.1511
  845MOL0     H14041   3.627   2.275  -0.127  2.7564 -0.7242  0.6621
  845MOL0     H14042   3.584   2.198   0.025  1.9567  1.0256  0.3044
  845MOL0     H14043   3.823   2.161   0.005  0.6153  0.5491  0.1548
  845MOL0     H14044   3.762   2.013  -0.056  3.4722 -0.4580 -0.9406
  845MOL0     H14045   3.870   2.230  -0.230 -0.3677  0.7354 -1.1609
  845MOL0     H14046   3.769   2.101  -0.302  0.1075  2.0026 -0.1184
  845MOL0     H14047   3.935   1.937  -0.189  1.8668 -0.6836  0.2611
  845MOL0     H14048   4.030   2.068  -0.142  0.9307  0.5751 -0.2255
  845MOL0     H14049   3.981   1.977  -0.428 -1.3944  1.4634 -1.0435
  845MOL0     H14050   4.038   2.144  -0.394  1.5566  0.7028  0.7444
  845MOL0     H14051   4.176   1.876  -0.335 -0.7783 -0.4208  2.0277
  845MOL0     H14052   4.221   2.023  -0.240  0.8645  1.6874 -0.9988
  845MOL0     H14053   4.372   1.979  -0.428 -1.2348 -4.3228  2.0225
  845MOL0     H14054   4.235   1.974  -0.541  0.5024 -0.4808 -0.3554
  845MOL0     H14055   3.363   2.184   0.080  0.7509 -1.4337  0.2674
  845MOL0     H14056   3.148   2.151   0.203  0.3711 -1.3043  0.6198
  845MOL0     H14057   2.704   2.234   0.160 -2.0099  0.8949 -2.4012
  845MOL0     H14058   2.477   2.243   0.261  0.3813  0.7886  2.6272
  845MOL0     H14059   0.884   2.356   1.648  0.3321  1.7273 -0.3888
  845MOL0     H14060   0.632   2.414   1.663 -1.1564 -1.1100 -0.2007
  845MOL0     H14061   0.219   2.347   1.738 -0.1684  1.4877  1.9438
  845MOL0     H14062  -0.016   2.425   1.765  3.9830  0.7692  1.3639
  845MOL0     H14063  -0.342   2.559   1.618  1.6283  2.6490 -0.0585
  845MOL0     H14064  -0.246   2.431   1.696 -0.8879 -1.5561 -0.0206
  845MOL0     H14065  -0.311   2.376   1.402 -1.6132  1.5746 -1.2841
  845MOL0     H14066  -0.438   2.379   1.504  0.3921  0.2166 -5.8972
  845MOL0     H14067  -0.321   2.183   1.638  0.5879 -1.1377 -0.2856
  845MOL0     H14068  -0.182   2.214   1.529  0.7734  3.8444  0.3660
  845MOL0     H14069  -0.463   2.131   1.452  0.2025  0.1908 -1.7055
  845MOL0     H14070  -0.313   2.162   1.352 -0.4651  5.7947  1.2373
  845MOL0     H14071  -0.229   1.811   1.585 -0.1089  2.8732  2.8572
  845MOL0     H14072   0.015   2.590   1.355  3.3065 -0.8319 -2.4881
  845MOL0     H14073   0.182   2.512   1.207  0.3015 -3.5333 -0.2148
  845MOL0     H14074   0.300   2.605   1.292  0.8342 -0.2581  1.4271
  845MOL0     H14075   0.300   2.417   1.276  0.5919  0.6413  1.1799
  846MOL0     O14076   7.433   3.280   8.830  0.8154 -0.2597 -0.1696
  846MOL0     C14077   7.373   3.391   8.820  0.4892 -0.0769 -1.0856
  846MOL0     O14078   7.424   3.517   8.861 -0.7281  0.3786 -0.3889
  846MOL0     C14079   7.549   3.548   8.898  0.1021 -1.1061 -0.0163
  846MOL0     C14080   7.658   3.471   8.847  0.0477  0.7556  0.2074
  846MOL0     C14081   7.791   3.516   8.853  0.8588  0.2606 -0.2408
  846MOL0     C14082   7.818   3.641   8.924 -0.0010 -0.1741 -0.0589
  846MOL0     O14083   7.946   3.675   8.945 -0.0466 -0.0483 -0.0036
  846MOL0     C14084   7.972   3.748   9.062 -1.1582 -0.1454 -0.2590
  846MOL0     C14085   8.128   3.751   9.078 -0.4501 -0.6211  0.5034
  846MOL0     C14086   8.169   3.863   9.178  0.5275 -0.2645  1.0322
  846MOL0     C14087   8.326   3.874   9.193 -0.9238 -0.7984  0.1399
  846MOL0     C14088   8.384   3.947   9.316  0.0092  0.2266  0.5361
  846MOL0     C14089   8.332   4.091   9.316 -0.1257 -0.6271  0.3571
  846MOL0     C14090   8.441   4.173   9.394 -0.3731 -0.2337  0.2528
  846MOL0     C14091   8.569   4.206   9.319  0.0419  0.0728  0.9582
  846MOL0     N14092   8.672   4.281   9.393  0.1058  0.1476  1.4492
  846MOL0     C14093   8.784   4.219   9.444  0.3642 -0.7624  0.3189
  846MOL0     C14094   8.859   4.315   9.502 -0.1017 -0.2626 -0.4202
  846MOL0     C14095   8.983   4.306   9.591 -0.5058  0.3932 -0.1513
  846MOL0     C14096   9.090   4.205   9.537 -0.8041  0.5748 -0.9337
  846MOL0     C14097   9.152   4.250   9.413  0.1822  0.4242  0.1072
  846MOL0     C14098   9.253   4.154   9.365  0.7691  0.5780  0.3513
  846MOL0     O14099   9.382   4.173   9.433 -0.2842  0.6186 -0.1675
  846MOL0     C14100   9.471   4.248   9.365  0.0956  0.4927  0.0406
  846MOL0     C14101   9.494   4.251   9.224 -0.4108 -0.3599 -1.0381
  846MOL0     C14102   9.592   4.320   9.169 -0.0782  0.4583 -1.0207
  846MOL0     C14103   9.675   4.393   9.256 -0.6815  0.1353 -0.3030
  846MOL0     C14104   9.801   4.469   9.206 -0.2148 -0.2524 -0.5018
  846MOL0     O14105   9.860   4.563   9.285 -0.2803  0.3228 -0.2622
  846MOL0     C14106   9.979   4.623   9.256 -0.1218 -0.7915  0.2457
  846MOL0     C14107  10.068   4.635   9.366 -0.2280  0.1026  0.1621
  846MOL0     C14108  10.180   4.723   9.350 -0.7532  0.2966  0.7236
  846MOL0     C14109  10.200   4.789   9.231 -0.1130  0.2010  0.5088
  846MOL0     O14110  10.312   4.864   9.223  0.0463  0.0763  0.1080
  846MOL0     C14111  10.433   4.784   9.221  0.0288 -0.0455 -0.6916
  846MOL0     C14112  10.548   4.866   9.188 -0.3915  0.5221 -0.0727
  846MOL0     C14113  10.670   4.773   9.203 -0.5099 -0.4466  1.2347
  846MOL0     C14114  10.793   4.849   9.187 -0.7519 -0.5353  0.0482
  846MOL0     C14115  10.916   4.767   9.147 -0.3003  0.1672  0.1116
  846MOL0     C14116  10.911   4.746   8.999  0.1545  0.0966  0.4599
  846MOL0     C14117  11.053   4.696   8.956  1.1912  0.4606 -0.3628
  846MOL0     C14118  11.061   4.692   8.798  0.0649  0.3067 -0.3750
  846MOL0    Cl14119  11.198   4.587   8.735 -0.3255 -0.0751  0.2087
  846MOL0     C14120  10.115   4.773   9.123  0.2183  0.6489 -0.0841
  846MOL0     C14121   9.998   4.696   9.139  0.2791  0.7644  0.1144
  846MOL0     O14122   9.835   4.451   9.090  0.8982  0.0843 -0.8674
  846MOL0     C14123   9.645   4.394   9.397  0.5450  0.1096  0.7297
  846MOL0     C14124   9.541   4.321   9.449  0.3620 -1.4084 -0.1586
  846MOL0     N14125   8.798   4.438   9.476 -0.1678 -0.7792 -0.3250
  846MOL0     N14126   8.689   4.415   9.414  0.1375 -0.2401  0.2669
  846MOL0     C14127   7.710   3.715   8.977  0.2631 -0.3218 -0.8216
  846MOL0     C14128   7.578   3.670   8.957 -0.4283  0.5234  0.2724
  846MOL0     C14129   7.253   3.394   8.741 -0.8053 -0.2151  0.2740
  846MOL0     C14130   7.249   3.324   8.619  0.3620 -0.0665 -0.0643
  846MOL0     C14131   7.134   3.319   8.548 -0.2889 -0.4645  0.8729
  846MOL0     C14132   7.019   3.372   8.585 -0.9983 -0.8488  0.7350
  846MOL0     O14133   6.912   3.350   8.512  0.1976 -0.1262 -0.7314
  846MOL0     C14134   6.821   3.457   8.510 -0.2558 -0.6708 -0.3035
  846MOL0     C14135   6.706   3.433   8.411 -1.4502  0.1922 -1.1189
  846MOL0     C14136   6.641   3.304   8.440 -0.9423  0.1229 -0.4212
  846MOL0     C14137   6.545   3.261   8.326 -0.4753 -0.2264 -0.4650
  846MOL0     C14138   6.413   3.334   8.331 -0.3999 -0.5586 -0.0975
  846MOL0     C14139   6.323   3.401   8.362  0.3543 -0.6129 -0.4470
  846MOL0     C14140   7.018   3.451   8.706 -0.2974 -0.4103  1.2759
  846MOL0     C14141   7.136   3.459   8.782 -0.5315  0.1542  0.9128
  846MOL0     C14142   7.123   3.541   8.905 -0.9427 -0.5112  0.3191
  846MOL0     H14143   7.644   3.380   8.788 -2.0311  1.7490 -0.9482
  846MOL0     H14144   7.868   3.449   8.816  0.3309 -0.4783 -0.0359
  846MOL0     H14145   7.935   3.850   9.052  1.2670  0.7611 -0.8508
  846MOL0     H14146   7.920   3.703   9.147 -1.8177  0.4152 -0.3563
  846MOL0     H14147   8.177   3.758   8.981  1.0770 -2.0507  1.1087
  846MOL0     H14148   8.157   3.652   9.115  1.4995 -1.0190 -1.7953
  846MOL0     H14149   8.126   3.842   9.277  0.7114  1.1272  1.4186
  846MOL0     H14150   8.113   3.954   9.157 -0.2006 -0.9387 -0.0166
  846MOL0     H14151   8.366   3.773   9.203  0.5622 -0.5152 -2.0631
  846MOL0     H14152   8.375   3.930   9.112 -0.4747  0.5516  1.3094
  846MOL0     H14153   8.366   3.897   9.412  1.3283 -0.0884  0.6383
  846MOL0     H14154   8.493   3.945   9.319  0.0882  1.7862 -0.4037
  846MOL0     H14155   8.318   4.134   9.216 -0.7371  1.4528  1.2832
  846MOL0     H14156   8.233   4.108   9.358  0.5613 -0.0150  1.8146
  846MOL0     H14157   8.472   4.135   9.491 -1.3145  0.3427  0.7974
  846MOL0     H14158   8.388   4.265   9.419 -0.1361  0.1821 -0.7127
  846MOL0     H14159   8.620   4.115   9.285  2.3301  1.2332  1.0407
  846MOL0     H14160   8.534   4.258   9.229  1.5479 -1.8545 -0.8552
  846MOL0     H14161   8.792   4.110   9.446 -1.9367 -0.9770  0.9922
  846MOL0     H14162   9.034   4.403   9.593 -1.3745  0.9544 -2.1289
  846MOL0     H14163   8.959   4.292   9.697 -1.4291  4.9155  0.4770
  846MOL0     H14164   9.164   4.185   9.615 -0.1835 -0.9974 -1.8698
  846MOL0     H14165   9.028   4.117   9.520 -0.9856  1.0606 -3.1011
  846MOL0     H14166   9.188   4.353   9.420 -4.3975  2.2342  1.1446
  846MOL0     H14167   9.083   4.265   9.330  0.0415 -1.7175 -0.2244
  846MOL0     H14168   9.263   4.166   9.257  2.2651  1.5852  0.5726
  846MOL0     H14169   9.217   4.052   9.382  2.2904 -0.0571 -0.0760
  846MOL0     H14170   9.428   4.188   9.166 -1.8983 -0.0486  0.2425
  846MOL0     H14171   9.600   4.322   9.061 -0.3629 -1.2556 -1.1027
  846MOL0     H14172  10.053   4.575   9.455  0.7231 -0.2958  0.0716
  846MOL0     H14173  10.251   4.739   9.431  1.0155 -2.1580 -0.2092
  846MOL0     H14174  10.440   4.740   9.321 -1.2301  2.0622  0.3947
  846MOL0     H14175  10.421   4.701   9.150  3.1473 -0.7238 -0.5637
  846MOL0     H14176  10.541   4.895   9.083  1.2960 -2.5260 -1.1822
  846MOL0     H14177  10.559   4.941   9.267 -4.3039  0.1398  1.0702
  846MOL0     H14178  10.661   4.741   9.307 -1.1267  4.0439  2.7732
  846MOL0     H14179  10.663   4.698   9.124 -1.6353  1.6578 -0.8130
  846MOL0     H14180  10.811   4.896   9.284  0.4761 -0.8601 -0.0128
  846MOL0     H14181  10.782   4.930   9.115  2.8706  0.8239  0.8451
  846MOL0     H14182  10.915   4.668   9.193  0.4108  0.8389  1.6446
  846MOL0     H14183  11.001   4.821   9.189 -1.1709 -0.0460  2.3179
  846MOL0     H14184  10.831   4.682   8.960 -1.0091  1.1099  1.1281
  846MOL0     H14185  10.882   4.838   8.948  0.9076  1.7654  2.9020
  846MOL0     H14186  11.073   4.591   8.980  0.4061  0.2229 -0.7017
  846MOL0     H14187  11.129   4.766   8.993 -1.3019  2.6094  1.0743
  846MOL0     H14188  10.968   4.645   8.766  0.2828  1.2759 -2.6249
  846MOL0     H14189  11.059   4.790   8.748 -1.9761 -0.4870 -1.9786
  846MOL0     H14190  10.134   4.824   9.028 -1.1113  1.4532  0.0486
  846MOL0     H14191   9.929   4.668   9.060  1.7163 -2.1961 -0.2295
  846MOL0     H14192   9.710   4.446   9.466 -0.3640 -2.5069  3.7776
  846MOL0     H14193   9.517   4.313   9.554  1.7324  0.5787  0.3836
  846MOL0     H14194   7.720   3.815   9.018 -1.2688  1.1589 -3.7522
  846MOL0     H14195   7.485   3.719   8.984 -0.2510  0.2047  1.5328
  846MOL0     H14196   7.338   3.274   8.583  0.0500 -0.5213 -0.2196
  846MOL0     H14197   7.143   3.247   8.467  0.6455  1.9147 -1.2932
  846MOL0     H14198   6.879   3.545   8.480 -0.3178 -1.1755 -1.9966
  846MOL0     H14199   6.775   3.476   8.608 -0.7775  0.3863 -0.7398
  846MOL0     H14200   6.747   3.447   8.310 -1.0292  0.2229 -0.9449
  846MOL0     H14201   6.632   3.508   8.440  0.1331  0.7855  1.7665
  846MOL0     H14202   6.595   3.307   8.539 -0.5086  0.3657 -0.2249
  846MOL0     H14203   6.719   3.228   8.437  0.9099  1.9513 -1.4693
  846MOL0     H14204   6.597   3.296   8.236  0.6167  5.1606  1.8655
  846MOL0     H14205   6.533   3.153   8.312 -1.2959  0.0912 -2.5514
  846MOL0     H14206   6.237   3.455   8.397  0.5538 -1.4255  1.4437
  846MOL0     H14207   6.928   3.508   8.725 -4.2150 -4.7472 -1.9099
  846MOL0     H14208   7.216   3.596   8.918  0.3506 -2.3608 -0.5612
  846MOL0     H14209   7.047   3.619   8.907  0.1644  0.6065  0.1095
  846MOL0     H14210   7.109   3.473   8.989  2.2561  0.3202  1.6828
  847MOL0     O14211   0.774   1.985   8.799 -0.9874 -0.0034  0.0767
  847MOL0     C14212   0.656   2.013   8.811 -0.4515  0.1135 -0.2252
  847MOL0     O14213   0.605   2.132   8.772 -0.1559 -0.2210  0.0124
  847MOL0     C14214   0.700   2.239   8.750 -0.9123 -0.0786  0.1113
  847MOL0     C14215   0.730   2.280   8.622  0.0026  0.0196  0.8405
  847MOL0     C14216   0.833   2.376   8.605  1.6500 -0.3216  0.3869
  847MOL0     C14217   0.904   2.423   8.711  0.2076  0.6595 -0.6086
  847MOL0     O14218   0.997   2.511   8.677 -0.7296  0.8720 -0.0106
  847MOL0     C14219   1.110   2.520   8.766  1.4576  0.2304 -0.5171
  847MOL0     C14220   1.226   2.540   8.685  0.3014  0.5044  0.1176
  847MOL0     C14221   1.331   2.630   8.757  0.0564  0.4771 -0.4077
  847MOL0     C14222   1.473   2.633   8.680  0.3520  0.0571 -0.3923
  847MOL0     C14223   1.477   2.747   8.577 -0.5183  0.6088  0.0049
  847MOL0     C14224   1.516   2.873   8.648 -0.5813 -0.4694 -0.2323
  847MOL0     C14225   1.652   2.881   8.733 -0.3078 -0.9939  0.9224
  847MOL0     C14226   1.778   2.854   8.654  0.1235  0.1346 -0.1894
  847MOL0     N14227   1.810   2.961   8.565 -0.5528  0.6949 -0.0167
  847MOL0     C14228   1.887   3.076   8.598  0.4278 -0.0961  0.2215
  847MOL0     C14229   1.910   3.137   8.484 -0.2560 -0.2380 -0.4939
  847MOL0     C14230   1.979   3.269   8.470  0.2447  0.0643 -0.0592
  847MOL0     C14231   2.119   3.255   8.533  0.8710  0.5211  0.4223
  847MOL0     C14232   2.224   3.159   8.471  0.2484  0.3631  0.0356
  847MOL0     C14233   2.363   3.190   8.513 -0.0167 -1.4801 -0.0109
  847MOL0     O14234   2.414   3.315   8.466 -0.7195  0.0346 -0.2409
  847MOL0     C14235   2.541   3.350   8.433  0.0437  0.3271  0.6430
  847MOL0     C14236   2.580   3.470   8.369 -0.3183  0.9217  0.2294
  847MOL0     C14237   2.717   3.494   8.330 -0.1541  0.2338  0.1117
  847MOL0     C14238   2.815   3.398   8.336  0.8329 -0.4939  0.2546
  847MOL0     C14239   2.954   3.436   8.294 -0.8477  0.3570 -0.8856
  847MOL0     O14240   3.041   3.334   8.317 -0.0664 -0.4430 -0.0803
  847MOL0     C14241   3.171   3.365   8.280 -0.0603  0.9748 -0.4781
  847MOL0     C14242   3.252   3.466   8.342  1.0135 -0.0772  0.8993
  847MOL0     C14243   3.379   3.501   8.299 -0.5095 -0.2588 -0.0153
  847MOL0     C14244   3.444   3.418   8.203 -0.0302 -0.7113  0.3402
  847MOL0     O14245   3.571   3.458   8.173  0.5971  0.5054 -0.7815
  847MOL0     C14246   3.661   3.356   8.125  0.0019 -0.3248 -0.0880
  847MOL0     C14247   3.796   3.436   8.104 -1.1668 -0.0022  0.4084
  847MOL0     C14248   3.908   3.327   8.090  0.2406 -0.9321  0.2477
  847MOL0     C14249   4.032   3.379   8.013  0.3785 -0.1219  0.1563
  847MOL0     C14250   4.160   3.293   8.049 -0.3203  0.0835  0.1770
  847MOL0     C14251   4.296   3.347   8.008 -0.0736  0.3550  0.0294
  847MOL0     C14252   4.315   3.363   7.853  0.3339  0.2278 -0.5987
  847MOL0     C14253   4.450   3.425   7.812 -0.1109  0.5745 -0.1142
  847MOL0    Cl14254   4.574   3.322   7.878 -0.0705  0.1168 -0.2487
  847MOL0     C14255   3.371   3.316   8.147  0.8066  0.5219 -0.2988
  847MOL0     C14256   3.234   3.289   8.179  0.4508  0.8394  0.0053
  847MOL0     O14257   2.978   3.545   8.240  0.1270  0.1639  0.1515
  847MOL0     C14258   2.781   3.282   8.407 -0.6755  1.2769 -0.2190
  847MOL0     C14259   2.652   3.261   8.454 -0.4124 -0.2287 -0.1606
  847MOL0     N14260   1.838   3.075   8.386 -0.3291  0.6358  0.7568
  847MOL0     N14261   1.792   2.965   8.424 -0.1689 -0.5674 -0.2094
  847MOL0     C14262   0.875   2.382   8.842  0.2632 -0.2150 -0.0916
  847MOL0     C14263   0.767   2.299   8.862 -0.1623 -0.0559  0.4408
  847MOL0     C14264   0.560   1.909   8.845  0.2236 -0.8361 -0.5224
  847MOL0     C14265   0.436   1.945   8.885 -0.7113 -0.2449  0.6612
  847MOL0     C14266   0.339   1.854   8.924  0.9053 -0.3682  1.1525
  847MOL0     C14267   0.368   1.721   8.941 -0.6950 -0.0187 -0.4799
  847MOL0     O14268   0.284   1.624   8.984  0.0995  0.1463  0.1931
  847MOL0     C14269   0.146   1.660   8.991 -0.1451  0.3558 -0.3803
  847MOL0     C14270   0.069   1.528   8.987  0.3573  0.2227 -0.2986
  847MOL0     C14271   0.052   1.481   9.137 -0.6776 -0.6106  0.5692
  847MOL0     C14272  -0.022   1.351   9.146 -0.5207  0.3992  0.6447
  847MOL0     C14273  -0.167   1.371   9.134  0.2131  0.1232 -0.4070
  847MOL0     C14274  -0.287   1.378   9.109 -0.9139 -0.5755 -0.3865
  847MOL0     C14275   0.497   1.685   8.904 -0.0752 -0.7866  0.8633
  847MOL0     C14276   0.588   1.773   8.853 -0.0316  0.3344 -0.1912
  847MOL0     C14277   0.716   1.717   8.788  1.3472  0.6075  0.1661
  847MOL0     H14278   0.662   2.242   8.546  1.5805 -2.3086  0.4936
  847MOL0     H14279   0.855   2.418   8.507 -0.8344  1.5802  0.5300
  847MOL0     H14280   1.095   2.608   8.828 -1.0227 -0.1499 -0.4711
  847MOL0     H14281   1.124   2.432   8.829 -0.7430 -2.1743 -3.1412
  847MOL0     H14282   1.193   2.588   8.592 -2.3169  3.1109  2.2052
  847MOL0     H14283   1.267   2.446   8.647 -0.6313 -0.5765  1.6810
  847MOL0     H14284   1.346   2.600   8.861 -2.2449  0.8206  0.0947
  847MOL0     H14285   1.282   2.727   8.763 -2.2252 -0.5967 -0.4052
  847MOL0     H14286   1.559   2.627   8.746  1.8360  0.3331 -2.2177
  847MOL0     H14287   1.471   2.542   8.619  1.0303 -1.5977  1.9191
  847MOL0     H14288   1.552   2.723   8.501 -2.7734 -0.0109 -2.1882
  847MOL0     H14289   1.381   2.757   8.526 -1.8007 -0.8124  1.9840
  847MOL0     H14290   1.526   2.957   8.578  0.1346 -0.3347  0.0226
  847MOL0     H14291   1.429   2.910   8.704 -0.3460 -1.9968  1.2084
  847MOL0     H14292   1.636   2.812   8.816 -4.9726 -1.2202  0.0656
  847MOL0     H14293   1.648   2.981   8.778  0.0462 -0.7060  0.3245
  847MOL0     H14294   1.861   2.834   8.721  0.8499 -1.5107 -1.5133
  847MOL0     H14295   1.765   2.758   8.603 -1.4836 -0.0647  0.5475
  847MOL0     H14296   1.917   3.107   8.698 -0.2173  0.5424  0.2189
  847MOL0     H14297   2.000   3.289   8.364  0.4328  0.1424 -0.0063
  847MOL0     H14298   1.924   3.355   8.509  0.1596 -0.2934  0.6154
  847MOL0     H14299   2.157   3.357   8.533 -0.8877  1.2559 -1.4566
  847MOL0     H14300   2.107   3.239   8.640 -1.7537 -1.4293 -0.0504
  847MOL0     H14301   2.217   3.177   8.364 -2.2206  2.4912  0.4528
  847MOL0     H14302   2.200   3.054   8.492 -0.2841  0.5209  0.2427
  847MOL0     H14303   2.433   3.113   8.480  3.7319  2.8073 -3.4002
  847MOL0     H14304   2.374   3.184   8.622 -0.8588  0.8990  0.2603
  847MOL0     H14305   2.514   3.556   8.363 -0.2714  0.8738 -1.4068
  847MOL0     H14306   2.735   3.590   8.282 -1.8920  0.4104 -0.2465
  847MOL0     H14307   3.213   3.520   8.429  2.0893  1.5267  0.4329
  847MOL0     H14308   3.442   3.569   8.355  1.4154 -0.0170 -2.3222
  847MOL0     H14309   3.675   3.287   8.209 -0.1518 -0.5608 -0.2597
  847MOL0     H14310   3.635   3.321   8.025  2.2084  3.3338 -2.1726
  847MOL0     H14311   3.790   3.490   8.009  0.9981  2.1380  1.3931
  847MOL0     H14312   3.812   3.512   8.181 -1.6771  1.1634 -0.6051
  847MOL0     H14313   3.946   3.304   8.190  1.3881 -0.1270  0.0186
  847MOL0     H14314   3.875   3.231   8.050 -0.2566 -1.4662  1.8831
  847MOL0     H14315   4.043   3.486   8.029 -0.2655  0.2938 -1.9056
  847MOL0     H14316   4.019   3.362   7.906  2.1538  0.8959 -0.2627
  847MOL0     H14317   4.146   3.197   7.999  2.2349 -1.2225  1.7685
  847MOL0     H14318   4.158   3.278   8.157  1.9261 -1.3757  0.0742
  847MOL0     H14319   4.312   3.436   8.069  2.3285  0.1170 -0.1756
  847MOL0     H14320   4.363   3.271   8.048  1.1365  3.1819  3.9824
  847MOL0     H14321   4.233   3.429   7.826  0.4857 -0.4121 -2.7720
  847MOL0     H14322   4.290   3.268   7.804 -1.0044 -0.2338  0.8423
  847MOL0     H14323   4.457   3.422   7.703 -1.7994  0.9658 -0.2729
  847MOL0     H14324   4.445   3.526   7.853  0.0348 -0.2869  2.1665
  847MOL0     H14325   3.412   3.242   8.079  1.9850 -2.0487  2.9896
  847MOL0     H14326   3.188   3.210   8.121  2.9946 -0.3762 -0.5108
  847MOL0     H14327   2.855   3.205   8.425 -1.0971  0.9215  0.0102
  847MOL0     H14328   2.625   3.164   8.493  0.7316 -1.2374 -1.7158
  847MOL0     H14329   0.922   2.431   8.927 -0.5048  2.6636 -1.2091
  847MOL0     H14330   0.747   2.268   8.964  0.7425  0.4974  0.7961
  847MOL0     H14331   0.405   2.049   8.886  0.9113  0.2690  1.5244
  847MOL0     H14332   0.244   1.901   8.948 -1.1968 -4.2846  1.4222
  847MOL0     H14333   0.126   1.724   8.904  2.7604  1.9000 -0.0266
  847MOL0     H14334   0.130   1.711   9.087 -2.1063 -1.3378  0.2680
  847MOL0     H14335   0.123   1.455   8.926 -0.2965 -0.8275  0.3692
  847MOL0     H14336  -0.030   1.545   8.943  0.0565 -1.9421 -0.5687
  847MOL0     H14337   0.004   1.560   9.195  1.1805 -0.3806  1.8933
  847MOL0     H14338   0.152   1.454   9.175 -0.9382 -3.0364 -0.3000
  847MOL0     H14339   0.010   1.281   9.067  1.0791 -3.0642  4.0279
  847MOL0     H14340  -0.002   1.296   9.239  2.7479 -2.2094 -1.3321
  847MOL0     H14341  -0.393   1.379   9.095 -1.3085 -2.4832  1.8626
  847MOL0     H14342   0.524   1.580   8.916  2.8952 -0.2635 -0.3570
  847MOL0     H14343   0.709   1.741   8.681  0.4558  1.1819  0.3447
  847MOL0     H14344   0.810   1.756   8.829  1.0645  0.9196  0.5153
  847MOL0     H14345   0.703   1.609   8.795 -1.5347  0.8291 -0.6785
  848MOL0     O14346   3.227   6.780   6.953 -0.5750  0.0663  0.1979
  848MOL0     C14347   3.189   6.848   6.863 -0.4773  0.1041  0.2185
  848MOL0     O14348   3.268   6.872   6.754 -0.0608 -0.0320  0.4755
  848MOL0     C14349   3.384   6.805   6.713  0.6943 -0.5159 -0.0713
  848MOL0     C14350   3.414   6.821   6.579 -0.8228 -0.5725  0.0601
  848MOL0     C14351   3.551   6.778   6.535  0.8910  0.0359  0.1121
  848MOL0     C14352   3.637   6.721   6.627 -0.4190  0.6331 -0.2401
  848MOL0     O14353   3.762   6.690   6.579 -0.3470  0.0128  0.1583
  848MOL0     C14354   3.867   6.622   6.661  0.9831 -0.0160  0.4557
  848MOL0     C14355   3.937   6.702   6.766 -0.1603  0.1811 -0.7674
  848MOL0     C14356   3.998   6.609   6.886 -0.2143 -0.1678  0.7844
  848MOL0     C14357   4.089   6.495   6.832  0.1222 -0.4439  0.4217
  848MOL0     C14358   4.159   6.412   6.947  0.3124  0.3888  0.3529
  848MOL0     C14359   4.281   6.331   6.895 -0.0773 -0.2954  0.6958
  848MOL0     C14360   4.392   6.290   7.001  0.4587  0.5375  0.3071
  848MOL0     C14361   4.336   6.240   7.133  0.5280 -0.2044 -0.0286
  848MOL0     N14362   4.445   6.220   7.226 -0.0834  0.6734 -0.8514
  848MOL0     C14363   4.529   6.310   7.278  0.4310 -0.0106 -0.0612
  848MOL0     C14364   4.614   6.246   7.362  0.0838  0.4941  0.5310
  848MOL0     C14365   4.727   6.300   7.431  1.2255  0.3819 -0.2923
  848MOL0     C14366   4.873   6.253   7.390  0.3353 -0.2650 -0.2525
  848MOL0     C14367   4.877   6.105   7.428  0.2693 -0.6860  0.4386
  848MOL0     C14368   5.026   6.052   7.432  0.2876  0.6338  0.2833
  848MOL0     O14369   5.080   6.107   7.554  0.4273  0.4010  0.2425
  848MOL0     C14370   5.209   6.081   7.580  0.1219  0.1650  0.3979
  848MOL0     C14371   5.301   6.009   7.496 -0.7854 -0.5291  0.3792
  848MOL0     C14372   5.441   6.006   7.522  0.2383 -0.3690 -0.6238
  848MOL0     C14373   5.489   6.063   7.639 -0.9588  0.8292  0.2873
  848MOL0     C14374   5.633   6.050   7.675  1.0583 -0.3080 -0.3249
  848MOL0     O14375   5.722   6.000   7.583  0.2122  0.3445 -0.2652
  848MOL0     C14376   5.852   5.985   7.626 -0.1703  0.1503  0.5419
  848MOL0     C14377   5.956   6.065   7.576 -0.2031 -0.4439  0.0768
  848MOL0     C14378   6.083   6.034   7.618 -0.2924 -0.3670 -0.4762
  848MOL0     C14379   6.117   5.942   7.714 -0.4492  0.4769  0.4229
  848MOL0     O14380   6.246   5.910   7.765 -0.0684  0.6133  0.2496
  848MOL0     C14381   6.363   5.981   7.728  0.8203  0.2725  0.3281
  848MOL0     C14382   6.453   6.029   7.846 -0.5759  0.6429  0.9788
  848MOL0     C14383   6.371   6.132   7.919  0.2898  0.5885 -0.9101
  848MOL0     C14384   6.463   6.182   8.030 -0.4653 -0.3893  0.0789
  848MOL0     C14385   6.409   6.308   8.089  0.2788  0.0843  0.0372
  848MOL0     C14386   6.290   6.284   8.184 -0.2182  0.2937 -0.2536
  848MOL0     C14387   6.262   6.420   8.250  0.0420  0.1260 -0.5476
  848MOL0     C14388   6.138   6.421   8.341 -0.6883 -0.2222 -0.5695
  848MOL0    Cl14389   6.183   6.350   8.505  0.1369 -0.2477  0.0523
  848MOL0     C14390   6.014   5.853   7.751  0.0157 -0.9103  0.3644
  848MOL0     C14391   5.877   5.881   7.713  0.1035  0.4657  0.2115
  848MOL0     O14392   5.657   6.115   7.778  0.2368  0.2849 -0.3472
  848MOL0     C14393   5.399   6.139   7.717  0.3833  0.4430 -0.3330
  848MOL0     C14394   5.261   6.154   7.692 -0.0674  0.1176 -0.4389
  848MOL0     N14395   4.562   6.118   7.372  0.0436 -0.6125  0.4577
  848MOL0     N14396   4.458   6.107   7.294 -0.0753 -0.2027  0.4873
  848MOL0     C14397   3.599   6.710   6.761  0.6181 -0.8334 -0.0195
  848MOL0     C14398   3.476   6.749   6.803 -0.5365 -0.6186  0.6213
  848MOL0     C14399   3.052   6.918   6.879 -0.7401 -0.5681  1.4434
  848MOL0     C14400   3.023   7.029   6.795 -0.1347 -0.4607 -0.3878
  848MOL0     C14401   2.906   7.106   6.803 -0.8205  0.6205 -0.2712
  848MOL0     C14402   2.805   7.062   6.897  0.5043  0.1842 -0.1035
  848MOL0     O14403   2.679   7.119   6.907 -0.3386 -0.0282  0.2729
  848MOL0     C14404   2.625   7.214   6.812 -0.2561 -0.3853 -0.0258
  848MOL0     C14405   2.595   7.151   6.677 -1.1690 -0.3399  0.4270
  848MOL0     C14406   2.473   7.055   6.685 -0.4084 -0.7676 -0.9168
  848MOL0     C14407   2.450   6.974   6.557 -1.2723 -0.4222  0.3119
  848MOL0     C14408   2.555   6.874   6.539 -0.0999  0.5359  0.3387
  848MOL0     C14409   2.654   6.805   6.524  0.3656 -0.0906 -0.2384
  848MOL0     C14410   2.835   6.961   6.989 -0.5286 -0.2114  0.0377
  848MOL0     C14411   2.960   6.895   6.978  0.7896  0.1621 -0.3757
  848MOL0     C14412   2.958   6.770   7.073 -0.0049 -0.6359 -0.0549
  848MOL0     H14413   3.339   6.871   6.518  1.0085  1.1095 -0.9004
  848MOL0     H14414   3.578   6.786   6.430  1.6542  2.6547  0.4353
  848MOL0     H14415   3.826   6.528   6.699  0.6484  0.2000  0.6403
  848MOL0     H14416   3.944   6.588   6.590  0.6218  1.8597 -0.9161
  848MOL0     H14417   3.862   6.765   6.814 -0.2784 -1.4526  1.3445
  848MOL0     H14418   4.014   6.755   6.710 -0.8158 -0.0111 -1.8700
  848MOL0     H14419   3.928   6.563   6.957  1.2755 -0.6043  2.0195
  848MOL0     H14420   4.070   6.672   6.938  2.8114 -1.5251 -1.4793
  848MOL0     H14421   4.034   6.428   6.764 -1.2136  1.1234 -0.1144
  848MOL0     H14422   4.165   6.544   6.772  0.0637 -1.6863 -0.7219
  848MOL0     H14423   4.201   6.483   7.019 -0.2121  0.9387  0.1286
  848MOL0     H14424   4.086   6.346   6.996  0.4239 -1.9799 -2.4284
  848MOL0     H14425   4.235   6.238   6.859 -0.5950  0.2185  0.0068
  848MOL0     H14426   4.331   6.393   6.821 -1.8578 -0.6044 -0.8451
  848MOL0     H14427   4.462   6.373   7.016  1.3581 -0.2448  0.5083
  848MOL0     H14428   4.451   6.209   6.958 -0.6602  0.5474 -1.3399
  848MOL0     H14429   4.274   6.322   7.171  0.1340  0.0580 -1.2005
  848MOL0     H14430   4.277   6.148   7.141 -0.6595  0.6559  1.9456
  848MOL0     H14431   4.538   6.415   7.251  0.1520  0.5400  1.7811
  848MOL0     H14432   4.722   6.408   7.418 -0.2799  0.2199 -1.2153
  848MOL0     H14433   4.710   6.277   7.537  1.3187  1.7629  0.0333
  848MOL0     H14434   4.901   6.278   7.287 -0.2030  0.7918 -0.1595
  848MOL0     H14435   4.950   6.309   7.443  2.4142 -2.7772 -0.4360
  848MOL0     H14436   4.808   6.049   7.364  1.1801 -0.6186 -0.6225
  848MOL0     H14437   4.837   6.093   7.529  0.6349  0.3825  0.7200
  848MOL0     H14438   5.079   6.084   7.342 -0.4070 -4.2835 -2.1904
  848MOL0     H14439   5.019   5.943   7.437  0.9664  0.4677 -1.7314
  848MOL0     H14440   5.266   5.962   7.405  1.2079 -1.8360  0.2235
  848MOL0     H14441   5.513   5.961   7.454  0.7331 -0.8934  0.2211
  848MOL0     H14442   5.929   6.148   7.510  0.1882 -0.5229 -0.1935
  848MOL0     H14443   6.160   6.089   7.564 -1.3831  0.5766 -1.1191
  848MOL0     H14444   6.429   5.917   7.668  2.5983  1.0135  1.4197
  848MOL0     H14445   6.336   6.066   7.664 -0.5482  2.3265  3.3982
  848MOL0     H14446   6.484   5.949   7.914  2.8065  0.8871 -0.0628
  848MOL0     H14447   6.544   6.080   7.811 -1.5895  1.9186  0.0923
  848MOL0     H14448   6.340   6.218   7.859 -2.1926  0.2706 -0.2277
  848MOL0     H14449   6.285   6.082   7.965  1.4216  0.7116  1.4936
  848MOL0     H14450   6.562   6.193   7.985 -1.0508 -1.2923 -1.5554
  848MOL0     H14451   6.470   6.109   8.111  0.4190  0.4071  0.7364
  848MOL0     H14452   6.372   6.370   8.007 -1.0800 -0.5253  0.1654
  848MOL0     H14453   6.494   6.363   8.130  1.3613 -1.4360 -0.0544
  848MOL0     H14454   6.206   6.252   8.122  0.6122 -3.3910  0.3038
  848MOL0     H14455   6.309   6.211   8.263  0.7378  1.2945  0.4886
  848MOL0     H14456   6.258   6.495   8.171  1.6782  0.4715 -0.3365
  848MOL0     H14457   6.350   6.453   8.307 -1.0454  0.6591  0.9045
  848MOL0     H14458   6.100   6.523   8.350 -1.8240 -0.4446 -2.4055
  848MOL0     H14459   6.059   6.369   8.288 -0.9330  0.2145 -0.6389
  848MOL0     H14460   6.046   5.770   7.813  2.6630 -0.5202 -0.3382
  848MOL0     H14461   5.800   5.815   7.751  0.3773  0.7203  1.2319
  848MOL0     H14462   5.428   6.188   7.809 -0.0925 -0.0615  0.0904
  848MOL0     H14463   5.206   6.204   7.771  0.5086 -0.3117  0.2452
  848MOL0     H14464   3.664   6.671   6.838  0.0380 -3.6579 -0.8577
  848MOL0     H14465   3.455   6.744   6.909  3.0777  1.0148  1.5732
  848MOL0     H14466   3.098   7.058   6.721  0.1718  1.6093  0.6721
  848MOL0     H14467   2.885   7.183   6.730 -0.0905  1.5428  0.4802
  848MOL0     H14468   2.696   7.294   6.790  0.6999 -0.4475  2.4315
  848MOL0     H14469   2.530   7.262   6.838 -1.1911 -0.8425 -2.3668
  848MOL0     H14470   2.686   7.098   6.648 -0.9463 -0.2461  0.9381
  848MOL0     H14471   2.580   7.225   6.598  0.1549  0.1993  0.6628
  848MOL0     H14472   2.392   7.126   6.704  0.9505 -0.1143  4.0082
  848MOL0     H14473   2.482   6.990   6.773 -0.3549  2.0363  1.3184
  848MOL0     H14474   2.359   6.915   6.566 -0.4721 -1.8260 -0.4135
  848MOL0     H14475   2.444   7.045   6.473  1.4911  0.5323  0.8075
  848MOL0     H14476   2.744   6.749   6.508  0.3153 -1.0187  2.3146
  848MOL0     H14477   2.758   6.951   7.065 -1.3700 -0.9264 -0.8799
  848MOL0     H14478   3.033   6.795   7.150 -0.4297  3.4595 -0.7469
  848MOL0     H14479   2.861   6.755   7.120 -1.7366  0.6260 -2.9735
  848MOL0     H14480   2.990   6.683   7.015  1.5823 -0.0590 -0.0962
  849MOL0     O14481   6.678   1.248   7.058 -0.0432 -0.2293 -0.4350
  849MOL0     C14482   6.630   1.147   7.109  0.1765  0.2814 -0.3475
  849MOL0     O14483   6.697   1.030   7.135  0.2324  0.4383  0.5831
  849MOL0     C14484   6.837   1.032   7.114  0.2567  0.1094  0.2661
  849MOL0     C14485   6.910   1.113   7.202 -0.6516 -1.2816  0.1541
  849MOL0     C14486   7.048   1.109   7.188  0.4605 -0.8695  0.3094
  849MOL0     C14487   7.109   1.034   7.086 -0.4370  0.1069  0.0712
  849MOL0     O14488   7.244   1.031   7.068  0.4566 -0.0609  0.3332
  849MOL0     C14489   7.297   1.149   7.000  0.0682  1.4627  0.2219
  849MOL0     C14490   7.424   1.126   6.916  0.8069 -0.1875  0.7487
  849MOL0     C14491   7.478   1.263   6.857 -0.0452  0.2078  0.2566
  849MOL0     C14492   7.629   1.278   6.881  0.3421 -0.2053  0.8949
  849MOL0     C14493   7.682   1.417   6.832  0.3060  0.0196 -0.2490
  849MOL0     C14494   7.834   1.443   6.846 -0.7106  0.3562 -0.0551
  849MOL0     C14495   7.878   1.464   6.997  0.0812 -0.4706  0.1836
  849MOL0     C14496   8.035   1.451   6.999 -0.4691 -0.1564  0.2993
  849MOL0     N14497   8.087   1.464   7.136  0.5117  0.0615 -0.0112
  849MOL0     C14498   8.044   1.565   7.227 -0.0287 -0.8674 -0.6049
  849MOL0     C14499   8.092   1.527   7.343 -0.3266  0.7093  0.1697
  849MOL0     C14500   8.069   1.604   7.471  0.1281 -0.2771 -0.4240
  849MOL0     C14501   8.192   1.696   7.503 -0.3911  1.0555  0.3060
  849MOL0     C14502   8.217   1.794   7.400 -0.5861 -0.6028  1.0021
  849MOL0     C14503   8.346   1.876   7.449  0.4063 -1.4460  0.9113
  849MOL0     O14504   8.376   1.991   7.362  0.1493  0.2968  0.0191
  849MOL0     C14505   8.507   2.033   7.363 -0.2220 -0.1644  0.0446
  849MOL0     C14506   8.555   2.099   7.252 -0.3360 -0.2121  0.2713
  849MOL0     C14507   8.681   2.155   7.248 -0.5257  0.3433  0.6661
  849MOL0     C14508   8.775   2.121   7.345  0.3715  0.0272  0.2732
  849MOL0     C14509   8.910   2.177   7.344  0.4075 -0.1992  0.3716
  849MOL0     O14510   8.944   2.231   7.222  0.7575 -0.5368 -0.1505
  849MOL0     C14511   9.065   2.293   7.209  0.4043  0.2788  0.1371
  849MOL0     C14512   9.082   2.400   7.122 -0.1653 -0.0691  1.0570
  849MOL0     C14513   9.208   2.460   7.103  0.4141  0.5131 -0.2171
  849MOL0     C14514   9.317   2.426   7.187 -0.2646 -0.3079 -0.1524
  849MOL0     O14515   9.434   2.499   7.177 -0.6358 -0.1276  0.2007
  849MOL0     C14516   9.528   2.510   7.290 -0.2632 -0.3265 -0.1339
  849MOL0     C14517   9.648   2.586   7.220 -0.3696  0.1176  0.3213
  849MOL0     C14518   9.747   2.629   7.318 -0.0143 -0.3842 -0.2358
  849MOL0     C14519   9.731   2.783   7.338 -0.7170 -0.1895 -0.4899
  849MOL0     C14520   9.839   2.837   7.436 -0.2071  0.2355  0.0402
  849MOL0     C14521   9.838   2.775   7.580  0.2359 -0.7748  0.6720
  849MOL0     C14522   9.944   2.843   7.667 -0.1032  0.7220  0.1761
  849MOL0     C14523   9.940   2.784   7.801  1.1690 -0.1801 -0.9016
  849MOL0    Cl14524  10.070   2.839   7.906  0.3219 -0.0003  0.0842
  849MOL0     C14525   9.303   2.311   7.270 -0.0003 -0.0400 -0.1786
  849MOL0     C14526   9.176   2.246   7.281 -0.1161 -0.1013 -0.6456
  849MOL0     O14527   8.977   2.168   7.452 -0.9223 -0.3758  0.3785
  849MOL0     C14528   8.727   2.050   7.452  0.2057 -0.5788 -0.1601
  849MOL0     C14529   8.589   2.009   7.465  0.2255 -0.8133 -0.5910
  849MOL0     N14530   8.173   1.419   7.319 -0.4892  0.1269  1.1475
  849MOL0     N14531   8.158   1.372   7.202 -0.9231 -0.5761  0.1458
  849MOL0     C14532   7.036   0.957   6.988  0.2833  0.1616 -0.7840
  849MOL0     C14533   6.897   0.971   7.002 -0.4543  0.5902  0.0891
  849MOL0     C14534   6.491   1.149   7.159  0.1542 -0.0291  0.4878
  849MOL0     C14535   6.389   1.220   7.094  0.5737  0.2843  0.6648
  849MOL0     C14536   6.264   1.225   7.155  0.4004  0.8874  0.3284
  849MOL0     C14537   6.233   1.157   7.274 -0.6364 -0.6257 -0.4182
  849MOL0     O14538   6.109   1.161   7.339  0.1916 -0.1428 -0.0329
  849MOL0     C14539   5.996   1.204   7.262 -0.2977  0.5944  0.6837
  849MOL0     C14540   5.960   1.080   7.170 -0.0435 -0.4816  0.2314
  849MOL0     C14541   5.819   1.094   7.103 -0.1196 -0.0127  0.2158
  849MOL0     C14542   5.794   0.960   7.030  0.5858  0.6846 -0.5643
  849MOL0     C14543   5.651   0.944   7.009 -0.3840 -0.5589 -0.0091
  849MOL0     C14544   5.533   0.947   6.970 -0.2154 -0.3262 -0.6153
  849MOL0     C14545   6.335   1.097   7.333 -1.0236 -0.7712  0.1725
  849MOL0     C14546   6.464   1.088   7.281 -0.3434  0.5019  0.1579
  849MOL0     C14547   6.565   1.015   7.379  0.3741 -0.2054  0.2903
  849MOL0     H14548   6.865   1.177   7.277  0.2039 -1.8775  1.2007
  849MOL0     H14549   7.104   1.173   7.255  1.2951 -0.6552 -0.5675
  849MOL0     H14550   7.222   1.198   6.937 -1.8980  0.7622  1.9454
  849MOL0     H14551   7.324   1.216   7.082 -2.3446 -0.0718  2.3987
  849MOL0     H14552   7.401   1.053   6.837 -1.3957  0.4502  0.7372
  849MOL0     H14553   7.493   1.075   6.984  1.4933 -0.9689 -0.5034
  849MOL0     H14554   7.414   1.333   6.912 -1.3898 -1.6692  1.2086
  849MOL0     H14555   7.446   1.253   6.753  4.3986 -0.9235 -1.2607
  849MOL0     H14556   7.652   1.280   6.988 -0.5725  1.5665  1.1062
  849MOL0     H14557   7.679   1.197   6.828  1.8115  0.9063  0.5308
  849MOL0     H14558   7.668   1.429   6.725  2.1244  2.2227 -0.3185
  849MOL0     H14559   7.631   1.485   6.901  3.7234 -0.5460  3.2354
  849MOL0     H14560   7.879   1.354   6.802 -2.0725  0.4210 -1.6769
  849MOL0     H14561   7.860   1.538   6.798 -1.8900  2.0188  2.3577
  849MOL0     H14562   7.843   1.383   7.062 -0.7807  1.7772  2.6869
  849MOL0     H14563   7.838   1.559   7.034  1.4368 -0.0291  0.5716
  849MOL0     H14564   8.062   1.352   6.959 -1.7279  0.4654 -2.3366
  849MOL0     H14565   8.085   1.522   6.931  4.0397 -2.5268  0.7513
  849MOL0     H14566   7.979   1.650   7.208  2.5709  1.6793  0.9224
  849MOL0     H14567   7.986   1.673   7.451  2.7075  2.8424 -1.2768
  849MOL0     H14568   8.047   1.538   7.555 -0.4382 -0.0714 -0.4060
  849MOL0     H14569   8.182   1.743   7.601 -3.8409 -1.8701  1.6189
  849MOL0     H14570   8.275   1.625   7.505 -1.1855 -0.0259 -2.1186
  849MOL0     H14571   8.138   1.868   7.387 -0.5749 -1.0730 -2.7082
  849MOL0     H14572   8.238   1.735   7.310 -2.5910 -3.2816  2.1155
  849MOL0     H14573   8.425   1.800   7.444 -0.2412 -2.0829 -1.5314
  849MOL0     H14574   8.332   1.908   7.553 -0.8716 -0.2835  0.4190
  849MOL0     H14575   8.490   2.124   7.170  0.8928 -1.9684 -1.3319
  849MOL0     H14576   8.709   2.216   7.163 -1.2188 -1.2070 -0.7280
  849MOL0     H14577   9.000   2.428   7.057  0.5012  1.4306  0.8256
  849MOL0     H14578   9.216   2.547   7.039  1.2198  2.6387  2.5535
  849MOL0     H14579   9.487   2.572   7.371 -0.6424  0.1691 -0.6937
  849MOL0     H14580   9.563   2.409   7.311 -2.9107 -2.2234 -3.7836
  849MOL0     H14581   9.694   2.518   7.148 -2.1708 -0.8891  0.0670
  849MOL0     H14582   9.612   2.673   7.165 -0.6811 -0.1541  0.0917
  849MOL0     H14583   9.739   2.573   7.412  0.8332  1.7183  1.1659
  849MOL0     H14584   9.845   2.605   7.276 -0.2897 -1.9565 -0.0595
  849MOL0     H14585   9.628   2.810   7.363 -0.9917 -0.9418 -0.7817
  849MOL0     H14586   9.743   2.830   7.240  2.3982  0.3656  0.0675
  849MOL0     H14587   9.825   2.945   7.443  0.0111  0.3600 -1.1903
  849MOL0     H14588   9.938   2.816   7.395 -0.5681 -0.1998 -0.6392
  849MOL0     H14589   9.737   2.790   7.619  0.0007  3.5712 -1.1015
  849MOL0     H14590   9.848   2.667   7.565 -3.5950 -1.0134 -1.4709
  849MOL0     H14591   9.940   2.952   7.670  0.6750  0.7444  2.0645
  849MOL0     H14592  10.046   2.825   7.633 -0.1865  2.5952 -1.1984
  849MOL0     H14593   9.843   2.811   7.845  2.6252 -1.6862  3.8861
  849MOL0     H14594   9.949   2.675   7.799  0.0799 -0.3124  0.2254
  849MOL0     H14595   9.384   2.271   7.331 -0.7872 -0.9167  0.3221
  849MOL0     H14596   9.176   2.156   7.342 -0.8211 -0.0260 -0.5242
  849MOL0     H14597   8.802   2.012   7.522 -0.1252 -2.6635 -0.8562
  849MOL0     H14598   8.556   1.956   7.554 -0.8124 -3.8763 -2.6237
  849MOL0     H14599   7.077   0.905   6.902  0.8872 -0.6541 -0.0182
  849MOL0     H14600   6.839   0.905   6.938  0.9611  0.6183 -1.2804
  849MOL0     H14601   6.410   1.264   6.997 -1.9817 -0.8715 -0.4939
  849MOL0     H14602   6.190   1.285   7.103  1.6502  0.4723 -2.0486
  849MOL0     H14603   6.013   1.293   7.200 -0.7114 -0.9951 -1.8304
  849MOL0     H14604   5.902   1.222   7.316 -0.7338 -2.9805  1.3473
  849MOL0     H14605   5.960   0.992   7.235 -2.2781  0.6577  1.9329
  849MOL0     H14606   6.038   1.069   7.094 -0.2291 -1.0028  0.1098
  849MOL0     H14607   5.813   1.181   7.037  2.1113 -0.6600 -0.9237
  849MOL0     H14608   5.747   1.099   7.186 -0.3920 -0.7981  0.0411
  849MOL0     H14609   5.838   0.956   6.930 -2.3762  0.0200 -1.9629
  849MOL0     H14610   5.818   0.876   7.095 -2.0332 -0.8225 -1.3569
  849MOL0     H14611   5.433   0.941   6.932 -1.5870  1.1184  2.4482
  849MOL0     H14612   6.322   1.036   7.421  1.8670 -0.6819  0.7351
  849MOL0     H14613   6.540   1.016   7.485 -1.0066 -0.0773 -0.0115
  849MOL0     H14614   6.591   0.911   7.356  1.1853 -0.3315  1.6964
  849MOL0     H14615   6.663   1.064   7.382  0.7965 -1.0612  0.8138
  850MOL0     O14616  10.356   3.180   2.033 -0.2399  0.2553 -1.1034
  850MOL0     C14617  10.313   3.106   2.125  1.0338  0.0691  0.2859
  850MOL0     O14618  10.316   2.968   2.123  0.1617  0.3562  0.3301
  850MOL0     C14619  10.378   2.910   2.011 -0.3821 -0.1420 -0.2815
  850MOL0     C14620  10.293   2.845   1.917 -0.6797 -0.0945  0.3890
  850MOL0     C14621  10.353   2.789   1.800 -0.9753  0.0107 -0.8123
  850MOL0     C14622  10.489   2.788   1.787 -0.0495  0.0707  0.1584
  850MOL0     O14623  10.560   2.713   1.696  0.1306 -0.2388 -1.1517
  850MOL0     C14624  10.509   2.722   1.564  0.2723 -1.0768 -0.0985
  850MOL0     C14625  10.618   2.696   1.457  0.1581  0.7690 -0.3785
  850MOL0     C14626  10.733   2.804   1.438 -0.7484  0.1071  0.1434
  850MOL0     C14627  10.847   2.743   1.351 -0.2227  0.0698  0.0863
  850MOL0     C14628  10.959   2.847   1.338 -0.1671  0.1445 -0.4511
  850MOL0     C14629  11.056   2.800   1.234 -0.0315 -0.8844  0.0663
  850MOL0     C14630  11.189   2.873   1.259  0.0506  0.4611 -0.4000
  850MOL0     C14631  11.283   2.847   1.140  0.3820  0.4812  0.6043
  850MOL0     N14632  11.411   2.900   1.175  0.6549  0.4718 -0.3597
  850MOL0     C14633  11.455   3.023   1.140 -0.8884 -1.2757  0.5178
  850MOL0     C14634  11.579   3.028   1.204  0.4130 -0.5217  0.2582
  850MOL0     C14635  11.650   3.161   1.219 -0.8513 -0.8604 -0.1052
  850MOL0     C14636  11.800   3.148   1.162  0.1648  1.0475 -0.2822
  850MOL0     C14637  11.894   3.046   1.228 -0.6227  0.2128 -0.1965
  850MOL0     C14638  11.925   3.062   1.373 -0.3510 -0.1495 -0.5434
  850MOL0     O14639  11.924   3.202   1.415 -0.1249 -0.3416 -0.5424
  850MOL0     C14640  11.874   3.234   1.534  0.2027  0.1143 -0.0978
  850MOL0     C14641  11.921   3.350   1.600 -0.2883  0.2751  0.2597
  850MOL0     C14642  11.880   3.384   1.730  0.3607  0.0435  0.1015
  850MOL0     C14643  11.787   3.299   1.795  0.0810  0.0037 -0.7010
  850MOL0     C14644  11.769   3.317   1.943  0.5257  0.5420 -0.0514
  850MOL0     O14645  11.794   3.441   1.989 -0.3108 -0.4611 -0.4856
  850MOL0     C14646  11.807   3.450   2.123 -0.1007  0.9356  0.3791
  850MOL0     C14647  11.931   3.468   2.183  0.3536  0.6262  0.1743
  850MOL0     C14648  11.935   3.465   2.319  0.5575 -0.2518 -0.7655
  850MOL0     C14649  11.813   3.462   2.400 -0.1010 -0.4039 -0.1618
  850MOL0     O14650  11.801   3.490   2.541 -0.5832  0.6368  0.0081
  850MOL0     C14651  11.931   3.492   2.604  1.2590  0.5882 -0.3658
  850MOL0     C14652  11.916   3.530   2.749 -0.2587  0.8128  0.9158
  850MOL0     C14653  12.045   3.580   2.807 -0.0193  0.5246 -0.4444
  850MOL0     C14654  12.029   3.633   2.942 -0.7881 -0.7804  0.4613
  850MOL0     C14655  12.171   3.683   3.001  0.7762 -0.0317 -0.2951
  850MOL0     C14656  12.154   3.735   3.145  0.2939  0.3319  0.4516
  850MOL0     C14657  12.118   3.887   3.143  0.7718  0.3885 -0.0236
  850MOL0     C14658  12.084   3.923   3.282 -0.1555 -0.6784 -0.6290
  850MOL0    Cl14659  11.926   3.864   3.321 -0.5052  0.5936 -0.1928
  850MOL0     C14660  11.697   3.446   2.333 -0.4216 -0.6489  0.1821
  850MOL0     C14661  11.689   3.439   2.200 -0.8081 -0.0589 -0.3196
  850MOL0     O14662  11.739   3.221   2.015  0.4000 -0.2905  0.4135
  850MOL0     C14663  11.736   3.186   1.727  1.0191 -0.3621  0.2104
  850MOL0     C14664  11.773   3.158   1.595 -0.4118 -0.1274  0.2704
  850MOL0     N14665  11.601   2.906   1.270 -0.2164 -0.1399  0.6944
  850MOL0     N14666  11.500   2.834   1.246 -0.3113 -0.5574 -0.1342
  850MOL0     C14667  10.566   2.843   1.882  0.0090  0.0771  0.5036
  850MOL0     C14668  10.515   2.908   1.994 -0.4347 -0.5357 -0.7485
  850MOL0     C14669  10.253   3.182   2.243 -0.2912  0.5412  0.7888
  850MOL0     C14670  10.225   3.319   2.236 -0.2907  0.0609  0.4137
  850MOL0     C14671  10.157   3.384   2.336 -0.2490  1.0223 -0.1660
  850MOL0     C14672  10.133   3.316   2.457 -0.3226  0.6210 -0.0148
  850MOL0     O14673  10.057   3.347   2.565  0.2140  0.5682  0.1419
  850MOL0     C14674   9.955   3.457   2.542  0.4038 -0.1360  0.3883
  850MOL0     C14675   9.889   3.481   2.680 -0.9002 -0.1990  0.0726
  850MOL0     C14676   9.740   3.539   2.661 -0.2222 -0.2314  1.2915
  850MOL0     C14677   9.677   3.563   2.796 -0.6991  0.3330 -0.3405
  850MOL0     C14678   9.560   3.650   2.781  0.4865  0.1452  0.0544
  850MOL0     C14679   9.454   3.715   2.762 -0.2543 -0.5505 -0.8837
  850MOL0     C14680  10.173   3.184   2.472 -0.1539  0.6450 -1.0490
  850MOL0     C14681  10.238   3.118   2.365  0.1066  0.5973 -0.4550
  850MOL0     C14682  10.292   2.983   2.406 -0.2000 -0.3393  0.8975
  850MOL0     H14683  10.187   2.843   1.942 -0.9196 -1.6856 -0.6546
  850MOL0     H14684  10.290   2.743   1.724 -2.9113 -1.8839  1.7901
  850MOL0     H14685  10.418   2.663   1.550 -1.4504  1.7581 -2.0111
  850MOL0     H14686  10.477   2.826   1.548  2.5670  0.0107  1.7143
  850MOL0     H14687  10.569   2.684   1.360 -0.9519 -3.0070  0.4678
  850MOL0     H14688  10.662   2.598   1.476 -0.1471  0.5989 -0.5417
  850MOL0     H14689  10.777   2.833   1.534 -1.5056  0.1966  0.4761
  850MOL0     H14690  10.690   2.892   1.390 -0.4864 -1.3191 -2.9033
  850MOL0     H14691  10.872   2.647   1.397  3.3045  0.3004 -1.0758
  850MOL0     H14692  10.811   2.701   1.256  0.5166  1.0899 -0.6694
  850MOL0     H14693  10.912   2.941   1.307  1.1565  0.5831 -1.1816
  850MOL0     H14694  11.019   2.862   1.429  1.0899 -2.3185 -0.7976
  850MOL0     H14695  11.060   2.691   1.232  1.7419 -0.8546 -2.5088
  850MOL0     H14696  11.017   2.831   1.137  2.9517 -0.0856 -0.9679
  850MOL0     H14697  11.239   2.841   1.351  0.5851  0.8292 -0.5528
  850MOL0     H14698  11.183   2.982   1.264 -0.3773  0.4920 -1.3237
  850MOL0     H14699  11.293   2.745   1.102  1.0503  1.2193 -1.3260
  850MOL0     H14700  11.238   2.892   1.051 -2.2508 -2.1397  0.4459
  850MOL0     H14701  11.410   3.106   1.087  0.1314  0.7323  2.6112
  850MOL0     H14702  11.602   3.244   1.166 -0.7899  0.0038  1.1380
  850MOL0     H14703  11.659   3.199   1.321 -0.8352  1.0718 -0.7828
  850MOL0     H14704  11.803   3.111   1.059  2.3100 -2.4839  0.8372
  850MOL0     H14705  11.848   3.246   1.164  0.4921  0.8990 -0.7450
  850MOL0     H14706  11.993   3.041   1.183 -0.4584  0.5526  0.1250
  850MOL0     H14707  11.856   2.950   1.191  0.7708  0.2908 -1.9815
  850MOL0     H14708  12.027   3.028   1.392 -0.7533 -1.8406 -1.1486
  850MOL0     H14709  11.864   2.985   1.422  2.4326 -2.3336 -0.2392
  850MOL0     H14710  11.993   3.409   1.546  1.6382 -2.2158 -0.0935
  850MOL0     H14711  11.899   3.475   1.786  0.9746 -0.7554  1.2265
  850MOL0     H14712  12.027   3.481   2.135 -0.8143  2.8437 -1.7718
  850MOL0     H14713  12.023   3.509   2.365 -0.5982  0.2691  1.0633
  850MOL0     H14714  11.975   3.391   2.602  0.2525  0.1432 -0.3823
  850MOL0     H14715  12.002   3.556   2.552  0.5407  0.5542 -1.4106
  850MOL0     H14716  11.833   3.601   2.760 -2.0860 -1.4309  2.5935
  850MOL0     H14717  11.887   3.445   2.811  0.9817 -1.1149 -1.0229
  850MOL0     H14718  12.107   3.491   2.818 -1.1087 -0.2085 -0.1205
  850MOL0     H14719  12.087   3.653   2.736  0.4230 -1.9954 -2.9646
  850MOL0     H14720  11.997   3.566   3.022 -0.0293 -0.5487  0.9768
  850MOL0     H14721  11.952   3.711   2.940 -2.7310 -2.5760  1.7402
  850MOL0     H14722  12.219   3.754   2.933  0.8130 -0.9070 -1.2072
  850MOL0     H14723  12.243   3.600   3.005  2.5665  1.4438 -0.4720
  850MOL0     H14724  12.069   3.682   3.189  1.3299 -1.5813  0.2606
  850MOL0     H14725  12.242   3.716   3.208  2.2087  4.3353 -0.6766
  850MOL0     H14726  12.036   3.915   3.076  2.3710  0.4191 -2.0667
  850MOL0     H14727  12.201   3.943   3.100  0.1271  0.5844 -1.0653
  850MOL0     H14728  12.159   3.890   3.354 -1.0434 -0.8112  0.2518
  850MOL0     H14729  12.085   4.032   3.287  0.1606 -0.6852 -0.5143
  850MOL0     H14730  11.608   3.446   2.395 -0.4652  2.2310  0.2534
  850MOL0     H14731  11.598   3.422   2.143  0.3604 -3.8248 -1.3279
  850MOL0     H14732  11.664   3.118   1.771 -1.8353  0.9789 -2.0657
  850MOL0     H14733  11.732   3.070   1.545  0.9719 -1.0882  0.7613
  850MOL0     H14734  10.671   2.855   1.860 -0.3079  2.3164 -0.0856
  850MOL0     H14735  10.585   2.954   2.063 -0.2329  0.2712 -1.4801
  850MOL0     H14736  10.240   3.366   2.139 -1.2085  0.3474  0.3986
  850MOL0     H14737  10.111   3.479   2.312 -3.5513 -0.2623  0.4188
  850MOL0     H14738   9.875   3.417   2.479  1.6829 -1.7623 -0.2644
  850MOL0     H14739   9.998   3.544   2.493 -3.1820  1.5033 -0.1219
  850MOL0     H14740   9.960   3.536   2.742  1.0016 -1.7679 -0.5899
  850MOL0     H14741   9.870   3.382   2.724 -1.7250  0.3595  1.0098
  850MOL0     H14742   9.673   3.468   2.611  0.4516  1.6118 -2.5652
  850MOL0     H14743   9.740   3.632   2.603 -0.1118 -1.3422 -0.5634
  850MOL0     H14744   9.649   3.468   2.842  0.3762 -0.4761 -1.2995
  850MOL0     H14745   9.747   3.609   2.866 -0.8660 -1.6125  1.1705
  850MOL0     H14746   9.369   3.779   2.751 -1.3492 -1.6710  0.6633
  850MOL0     H14747  10.165   3.128   2.564 -0.4548 -1.4406 -2.2598
  850MOL0     H14748  10.246   2.916   2.333 -0.6360  2.0513 -1.1738
  850MOL0     H14749  10.397   3.003   2.383 -1.3900  3.8588 -2.1217
  850MOL0     H14750  10.274   2.946   2.507  2.9108  1.5333  2.2755
  851MOL0     O14751   0.917   5.330   4.649  0.2575  0.6774  0.2747
  851MOL0     C14752   0.798   5.322   4.601 -0.2238  0.4424  0.1698
  851MOL0     O14753   0.770   5.264   4.485 -0.1873 -1.0491  0.3011
  851MOL0     C14754   0.860   5.208   4.397  1.4616  0.2907 -0.1808
  851MOL0     C14755   0.978   5.274   4.355 -0.0715 -0.6655  0.7602
  851MOL0     C14756   1.058   5.232   4.251  0.2028 -0.1860  0.4694
  851MOL0     C14757   1.012   5.120   4.178 -0.6034  0.1594 -0.2700
  851MOL0     O14758   1.064   5.064   4.060  0.2939  1.1506  0.0559
  851MOL0     C14759   1.183   5.116   4.020  0.0829 -0.0307  1.0479
  851MOL0     C14760   1.214   5.048   3.898 -0.1331 -0.2142  1.0217
  851MOL0     C14761   1.346   5.115   3.840  0.8337  0.5091 -0.9952
  851MOL0     C14762   1.463   5.017   3.865 -0.3676 -0.0501  0.1049
  851MOL0     C14763   1.592   5.057   3.814 -0.0589 -1.0123  0.4708
  851MOL0     C14764   1.680   4.938   3.780  0.2565 -0.0950  0.3102
  851MOL0     C14765   1.823   4.975   3.746  0.0618 -0.3638  0.5045
  851MOL0     C14766   1.827   5.072   3.626 -0.5365  0.6160  0.3183
  851MOL0     N14767   1.968   5.089   3.590  0.7691  0.5952  0.1217
  851MOL0     C14768   2.057   5.197   3.610  1.0248  0.2117  1.3263
  851MOL0     C14769   2.183   5.149   3.569 -0.0453 -0.5782 -1.4196
  851MOL0     C14770   2.313   5.236   3.554  0.3128  0.2558  0.8858
  851MOL0     C14771   2.432   5.155   3.600  0.3430 -0.1112 -0.4421
  851MOL0     C14772   2.452   5.179   3.752 -0.3160 -0.3687  0.5566
  851MOL0     C14773   2.588   5.123   3.793 -0.1640  0.0853 -0.6388
  851MOL0     O14774   2.691   5.189   3.718 -0.4344  0.4330 -0.0877
  851MOL0     C14775   2.819   5.183   3.761  0.6488 -0.0476 -0.1517
  851MOL0     C14776   2.865   5.122   3.884 -0.4326 -0.9768  0.0647
  851MOL0     C14777   3.003   5.115   3.912 -0.5571  0.1596  0.5634
  851MOL0     C14778   3.102   5.183   3.829  0.3756 -0.0994 -0.4634
  851MOL0     C14779   3.250   5.192   3.860  0.5962  1.0659  0.0775
  851MOL0     O14780   3.319   5.266   3.765 -0.6089  0.4259 -0.3192
  851MOL0     C14781   3.457   5.297   3.765 -0.3469  1.1832  0.0136
  851MOL0     C14782   3.553   5.218   3.824  0.2410  0.6993  0.2214
  851MOL0     C14783   3.687   5.255   3.807 -0.3044 -0.9081 -0.1272
  851MOL0     C14784   3.724   5.367   3.737 -0.6184  0.3713 -0.2223
  851MOL0     O14785   3.851   5.417   3.724 -0.0472 -0.8083  0.7996
  851MOL0     C14786   3.915   5.415   3.854 -0.6901  0.5661  0.5776
  851MOL0     C14787   4.038   5.509   3.844 -0.2842  0.2830  0.7509
  851MOL0     C14788   4.139   5.474   3.729  0.4930 -0.3039 -1.0429
  851MOL0     C14789   4.259   5.571   3.735  0.3394  0.5317 -0.2783
  851MOL0     C14790   4.350   5.543   3.859 -0.0908 -0.4163 -0.1916
  851MOL0     C14791   4.501   5.581   3.847  0.5091 -0.7115 -0.0448
  851MOL0     C14792   4.566   5.469   3.754  0.4538 -0.2383 -0.0852
  851MOL0     C14793   4.719   5.497   3.761 -0.5220 -0.2756  0.3916
  851MOL0    Cl14794   4.769   5.399   3.621 -0.0825  0.0098  0.0676
  851MOL0     C14795   3.628   5.448   3.674  0.3455 -0.7971  0.5285
  851MOL0     C14796   3.497   5.406   3.682 -0.4457  0.1253 -0.1291
  851MOL0     O14797   3.298   5.136   3.961  0.2789 -0.2549  0.3463
  851MOL0     C14798   3.045   5.251   3.710  0.0970  0.4868 -0.8478
  851MOL0     C14799   2.912   5.246   3.679  0.4073  0.5082 -0.2708
  851MOL0     N14800   2.161   5.016   3.530 -0.2815 -0.1378  0.5145
  851MOL0     N14801   2.038   4.982   3.538  0.5747 -0.2766  0.5190
  851MOL0     C14802   0.901   5.052   4.221  0.5052 -0.4729  0.0009
  851MOL0     C14803   0.822   5.096   4.324  0.0599  0.6304  0.1308
  851MOL0     C14804   0.682   5.359   4.679 -0.2598 -0.0968 -0.1161
  851MOL0     C14805   0.595   5.250   4.716  0.5489 -1.2352 -0.1516
  851MOL0     C14806   0.489   5.281   4.797 -0.7719  0.7949  0.0392
  851MOL0     C14807   0.459   5.413   4.846 -0.6437 -0.5674  1.3111
  851MOL0     O14808   0.349   5.435   4.929 -0.6461 -0.0330  0.2201
  851MOL0     C14809   0.265   5.547   4.906  0.8537 -0.3215 -0.1255
  851MOL0     C14810   0.124   5.505   4.905  0.0009 -0.9210  0.4158
  851MOL0     C14811   0.049   5.502   5.039  0.1634 -0.8325 -0.0287
  851MOL0     C14812  -0.091   5.438   5.007 -0.9512 -0.2059 -0.0768
  851MOL0     C14813  -0.162   5.434   5.133 -0.0985 -0.3112  0.5197
  851MOL0     C14814  -0.206   5.407   5.238  1.0386 -0.3870 -0.3269
  851MOL0     C14815   0.545   5.514   4.804 -0.2995  0.6069 -0.0983
  851MOL0     C14816   0.653   5.490   4.720 -0.4250 -0.1804 -0.2348
  851MOL0     C14817   0.740   5.611   4.679 -0.0721 -0.2056  0.1390
  851MOL0     H14818   1.000   5.370   4.402 -2.6824 -0.6348  2.0843
  851MOL0     H14819   1.140   5.297   4.221  0.6166 -1.5152 -1.4881
  851MOL0     H14820   1.179   5.223   3.998  0.7674  0.0663  1.3805
  851MOL0     H14821   1.266   5.106   4.090  0.3994 -1.6976  0.4948
  851MOL0     H14822   1.132   5.056   3.826  2.0234  1.1621 -1.4793
  851MOL0     H14823   1.231   4.943   3.925  3.1904 -0.2007 -0.3992
  851MOL0     H14824   1.367   5.209   3.890 -2.5396  0.3308  1.1241
  851MOL0     H14825   1.331   5.138   3.734  1.3699 -1.2162 -1.4925
  851MOL0     H14826   1.478   4.994   3.971  0.4594  0.2798  0.0705
  851MOL0     H14827   1.429   4.927   3.814  2.4472  0.8437 -3.8830
  851MOL0     H14828   1.564   5.116   3.727  0.2280 -1.3177  0.1727
  851MOL0     H14829   1.636   5.128   3.885 -2.2225  1.3902 -0.4143
  851MOL0     H14830   1.683   4.873   3.868 -1.4255  0.1253  0.5695
  851MOL0     H14831   1.628   4.881   3.702  1.3395  0.2093 -0.6536
  851MOL0     H14832   1.865   4.879   3.713  1.1032  0.6542 -1.2955
  851MOL0     H14833   1.876   5.008   3.835 -0.2771  1.8084 -0.0551
  851MOL0     H14834   1.760   5.023   3.555  1.5702 -0.6042 -0.9368
  851MOL0     H14835   1.789   5.173   3.646  1.1794  1.5218 -0.7290
  851MOL0     H14836   2.021   5.297   3.633  0.7295  0.3122  0.4792
  851MOL0     H14837   2.323   5.264   3.448 -1.4207 -2.0877  0.0196
  851MOL0     H14838   2.301   5.326   3.615 -0.7640  0.7929 -0.0685
  851MOL0     H14839   2.416   5.049   3.575 -2.3592  0.2728 -0.6636
  851MOL0     H14840   2.521   5.198   3.553  0.7043 -0.4434 -0.0726
  851MOL0     H14841   2.369   5.139   3.811 -1.2356  2.6036  1.4622
  851MOL0     H14842   2.457   5.285   3.776 -0.9822  0.3451 -2.1808
  851MOL0     H14843   2.599   5.019   3.761 -0.1425 -0.7937  1.9695
  851MOL0     H14844   2.610   5.134   3.900 -1.5165 -2.7027  0.0237
  851MOL0     H14845   2.800   5.069   3.953  0.3926 -1.0439  0.8047
  851MOL0     H14846   3.023   5.072   4.009 -3.2281  3.8053  2.9720
  851MOL0     H14847   3.519   5.123   3.865 -0.6655 -1.4950 -4.8179
  851MOL0     H14848   3.760   5.178   3.826  0.4508 -0.0528  0.5211
  851MOL0     H14849   3.844   5.445   3.932 -1.7446  2.1223 -0.9026
  851MOL0     H14850   3.957   5.316   3.873  1.9554  1.3399 -0.7940
  851MOL0     H14851   4.009   5.613   3.823  1.0759  0.3003 -1.2774
  851MOL0     H14852   4.085   5.518   3.943  0.7892  0.6932  0.2285
  851MOL0     H14853   4.180   5.372   3.729  1.9599  0.2485 -2.1904
  851MOL0     H14854   4.081   5.486   3.637 -0.0365  2.6064 -0.4322
  851MOL0     H14855   4.218   5.672   3.721  0.1598  0.7386  1.5065
  851MOL0     H14856   4.327   5.552   3.651  2.0221  0.9159  0.9275
  851MOL0     H14857   4.331   5.441   3.892 -3.3768 -0.8772 -3.0066
  851MOL0     H14858   4.306   5.604   3.939  1.9219  1.3512 -0.3150
  851MOL0     H14859   4.511   5.681   3.804 -1.5066 -0.4610 -0.0324
  851MOL0     H14860   4.544   5.569   3.947  2.1513 -3.4451 -0.9634
  851MOL0     H14861   4.538   5.481   3.649  0.0865  0.3565  0.0767
  851MOL0     H14862   4.546   5.365   3.781 -1.8792 -0.9318 -3.7164
  851MOL0     H14863   4.739   5.603   3.746  2.2056  0.1710  5.0417
  851MOL0     H14864   4.775   5.459   3.847  0.2586 -5.3316 -1.9661
  851MOL0     H14865   3.659   5.534   3.616  0.2683 -1.1047  0.0273
  851MOL0     H14866   3.419   5.466   3.634 -1.0182 -0.4059  0.1269
  851MOL0     H14867   3.118   5.294   3.643  1.4030 -0.6912 -0.2406
  851MOL0     H14868   2.874   5.272   3.581 -0.4413  1.3290  0.2645
  851MOL0     H14869   0.882   4.953   4.182 -0.0786 -0.4630  0.2587
  851MOL0     H14870   0.735   5.034   4.345 -0.1350 -0.1953 -2.5898
  851MOL0     H14871   0.599   5.144   4.691 -1.2300 -1.8594  1.8402
  851MOL0     H14872   0.424   5.197   4.820  0.7604  0.2857  3.1068
  851MOL0     H14873   0.276   5.591   4.807 -4.1532 -0.3828 -0.9488
  851MOL0     H14874   0.272   5.630   4.977 -1.0866  1.6676 -2.0791
  851MOL0     H14875   0.115   5.412   4.850 -2.1887  0.8871 -2.5953
  851MOL0     H14876   0.072   5.569   4.834  4.7377  1.0147 -1.7585
  851MOL0     H14877   0.021   5.603   5.069  0.6252  0.0774 -2.4087
  851MOL0     H14878   0.098   5.440   5.115 -1.8931 -0.5961  1.5975
  851MOL0     H14879  -0.148   5.489   4.929  1.1583  0.9687 -0.9382
  851MOL0     H14880  -0.064   5.342   4.961  0.3860 -0.9544  2.1327
  851MOL0     H14881  -0.266   5.365   5.316  0.3082 -0.3139 -0.8249
  851MOL0     H14882   0.534   5.610   4.852 -0.0401  0.1573  0.8833
  851MOL0     H14883   0.818   5.641   4.750 -0.2360  1.8942 -0.4845
  851MOL0     H14884   0.786   5.605   4.580 -1.5059 -2.3738 -0.4716
  851MOL0     H14885   0.669   5.695   4.679 -0.4218 -0.3673  3.6865
  852MOL0     O14886   0.920   4.178  11.326 -0.3250  0.6510  0.3928
  852MOL0     C14887   0.898   4.145  11.208  0.0438 -0.1243 -0.4924
  852MOL0     O14888   0.790   4.089  11.160 -0.1026  0.5619  0.0788
  852MOL0     C14889   0.676   4.086  11.234 -0.1289 -0.4540  0.4580
  852MOL0     C14890   0.648   3.980  11.328 -0.1916 -0.3964  0.6417
  852MOL0     C14891   0.530   3.978  11.407  0.3449  0.2839  0.1320
  852MOL0     C14892   0.432   4.077  11.393  0.2690 -0.4491 -0.3327
  852MOL0     O14893   0.311   4.084  11.457 -0.4602  0.2788 -0.4959
  852MOL0     C14894   0.269   3.959  11.519 -0.4178  0.3529 -0.0578
  852MOL0     C14895   0.137   3.972  11.575 -0.4924  0.6488  0.2992
  852MOL0     C14896   0.037   3.966  11.463 -0.1152  0.1935  0.5635
  852MOL0     C14897  -0.101   3.935  11.529 -0.3864  0.1801  0.4586
  852MOL0     C14898  -0.202   3.950  11.423  1.1028 -0.4608 -0.0219
  852MOL0     C14899  -0.344   3.925  11.473 -0.2147 -0.7611 -0.2948
  852MOL0     C14900  -0.439   3.953  11.359 -0.3053 -0.5203  0.2215
  852MOL0     C14901  -0.583   3.974  11.404 -0.2965 -0.1777  0.4403
  852MOL0     N14902  -0.660   3.852  11.440 -0.4205  0.2775  0.3359
  852MOL0     C14903  -0.649   3.797  11.567  0.1563  0.1197 -0.5609
  852MOL0     C14904  -0.735   3.693  11.553  0.1365  0.4047 -0.6371
  852MOL0     C14905  -0.772   3.600  11.664  0.1457  0.4587  0.1086
  852MOL0     C14906  -0.921   3.628  11.696 -0.4556 -0.9037 -0.9982
  852MOL0     C14907  -0.954   3.757  11.774  0.4533 -0.4370 -0.0849
  852MOL0     C14908  -1.099   3.819  11.747 -0.9343  0.1095 -0.1688
  852MOL0     O14909  -1.195   3.731  11.806 -0.3479 -0.1178 -0.5386
  852MOL0     C14910  -1.322   3.768  11.774 -0.3011 -0.1379 -0.0866
  852MOL0     C14911  -1.372   3.768  11.647 -0.2941 -0.3401  0.0009
  852MOL0     C14912  -1.509   3.802  11.630 -0.3452 -0.0873  0.0848
  852MOL0     C14913  -1.576   3.855  11.736  0.3555  0.4059 -0.2479
  852MOL0     C14914  -1.719   3.904  11.704 -0.3878  0.1537 -0.2510
  852MOL0     O14915  -1.792   3.937  11.808  0.1814 -0.1165 -0.6556
  852MOL0     C14916  -1.918   4.000  11.799  0.8838 -0.2172 -0.0921
  852MOL0     C14917  -1.962   4.092  11.895  0.1363 -0.0862 -0.9093
  852MOL0     C14918  -2.086   4.163  11.897 -0.2146  0.5146  0.9171
  852MOL0     C14919  -2.171   4.138  11.783  0.7014  0.2044  0.3699
  852MOL0     O14920  -2.300   4.182  11.768 -0.1597 -0.2309 -0.0859
  852MOL0     C14921  -2.317   4.321  11.777 -0.0073 -0.8603 -0.9221
  852MOL0     C14922  -2.455   4.354  11.848 -0.3886 -0.2178 -0.4658
  852MOL0     C14923  -2.571   4.332  11.753  1.0228  0.0961 -0.8728
  852MOL0     C14924  -2.704   4.338  11.841 -0.8904 -0.4000  0.6435
  852MOL0     C14925  -2.746   4.212  11.920  0.5995 -0.6825  0.3606
  852MOL0     C14926  -2.898   4.212  11.980 -0.6973 -0.4950  0.8749
  852MOL0     C14927  -2.884   4.129  12.110  0.1544  0.3791  0.0298
  852MOL0     C14928  -3.014   4.118  12.196  0.2356  0.5682  0.8109
  852MOL0    Cl14929  -3.142   4.039  12.116 -0.0451  0.0274  0.3091
  852MOL0     C14930  -2.127   4.048  11.676 -0.7648 -0.0145  0.1827
  852MOL0     C14931  -2.016   3.976  11.702  0.6580 -0.8407 -0.3100
  852MOL0     O14932  -1.752   3.918  11.586 -0.2807  0.1522 -0.3131
  852MOL0     C14933  -1.531   3.857  11.870  0.1857  0.3903  0.5526
  852MOL0     C14934  -1.397   3.821  11.888  0.4705  0.0270 -0.2739
  852MOL0     N14935  -0.793   3.682  11.426  0.4801  0.1280 -0.0988
  852MOL0     N14936  -0.748   3.781  11.363 -0.4268 -0.6572 -0.5970
  852MOL0     C14937   0.464   4.182  11.298 -0.2245 -0.1286 -0.4096
  852MOL0     C14938   0.581   4.192  11.223 -0.0403  0.4037 -0.7466
  852MOL0     C14939   1.012   4.168  11.121 -0.0471 -1.0162  0.3812
  852MOL0     C14940   1.033   4.071  11.025  0.1146  0.2356 -0.0687
  852MOL0     C14941   1.156   4.074  10.948  0.0008 -0.4172 -0.4862
  852MOL0     C14942   1.249   4.179  10.973 -0.0766 -0.1148  0.5726
  852MOL0     O14943   1.372   4.174  10.899 -0.2032 -1.0463  0.0999
  852MOL0     C14944   1.481   4.258  10.943 -0.4562 -0.3861  0.3744
  852MOL0     C14945   1.612   4.176  10.955  0.1537 -0.2329  1.2601
  852MOL0     C14946   1.587   4.063  11.058 -0.3119 -0.4028 -0.8086
  852MOL0     C14947   1.707   3.987  11.109 -0.5271  0.6924  0.4997
  852MOL0     C14948   1.754   3.899  11.006 -0.5712  0.2964  0.9666
  852MOL0     C14949   1.802   3.843  10.906  0.2792 -0.4567 -0.3588
  852MOL0     C14950   1.201   4.288  11.043 -0.1474 -0.3479  0.3618
  852MOL0     C14951   1.093   4.289  11.123  0.4367 -0.5274 -0.6505
  852MOL0     C14952   1.060   4.412  11.216 -0.2527  0.7788  0.0985
  852MOL0     H14953   0.713   3.897  11.355 -1.2385 -1.5307 -0.1619
  852MOL0     H14954   0.524   3.904  11.487  0.2233 -1.5090 -1.4568
  852MOL0     H14955   0.284   3.883  11.441  0.0240  0.4003 -0.0254
  852MOL0     H14956   0.325   3.936  11.610  0.9930  0.6996 -0.8093
  852MOL0     H14957   0.117   4.057  11.641  1.1089  1.2317  0.0720
  852MOL0     H14958   0.111   3.884  11.635 -0.8247 -0.9507 -2.0448
  852MOL0     H14959   0.062   3.892  11.386 -2.5531  0.4372 -0.5512
  852MOL0     H14960   0.032   4.060  11.407 -3.0747 -0.3824 -0.3152
  852MOL0     H14961  -0.102   3.839  11.581  0.7445  1.4450  3.0238
  852MOL0     H14962  -0.128   4.009  11.606 -2.7633 -2.3599  2.2974
  852MOL0     H14963  -0.205   4.056  11.398 -1.2213 -0.5219 -0.2221
  852MOL0     H14964  -0.164   3.904  11.331  2.6672  1.2634 -0.3008
  852MOL0     H14965  -0.358   3.820  11.500 -0.5076 -0.5662  0.3444
  852MOL0     H14966  -0.365   3.971  11.570 -0.6610 -1.7518  0.0885
  852MOL0     H14967  -0.428   3.872  11.287  1.2337  1.2103 -1.5920
  852MOL0     H14968  -0.408   4.048  11.315  2.1861 -0.3679  2.0864
  852MOL0     H14969  -0.587   4.039  11.492 -0.5867 -0.6924  0.8094
  852MOL0     H14970  -0.642   4.022  11.325 -1.0645 -1.1216  0.4260
  852MOL0     H14971  -0.592   3.847  11.644  0.7871 -1.0936 -0.2126
  852MOL0     H14972  -0.747   3.497  11.637  0.2551  1.2167 -3.0154
  852MOL0     H14973  -0.726   3.616  11.762 -0.2001 -0.9580  0.5267
  852MOL0     H14974  -0.981   3.626  11.604 -4.4276  0.3134  1.3056
  852MOL0     H14975  -0.953   3.545  11.759 -0.5038 -1.4130 -1.6731
  852MOL0     H14976  -0.881   3.831  11.739  1.3450 -2.7625 -3.6683
  852MOL0     H14977  -0.942   3.753  11.883  1.4115 -2.1155 -0.2135
  852MOL0     H14978  -1.108   3.835  11.639 -0.9483 -2.4955 -0.6205
  852MOL0     H14979  -1.098   3.917  11.796  0.0576  0.1413 -0.2290
  852MOL0     H14980  -1.304   3.747  11.565  2.2120  2.6756  1.1091
  852MOL0     H14981  -1.554   3.807  11.531 -0.3137 -0.5861  0.0442
  852MOL0     H14982  -1.904   4.109  11.986 -3.7008  1.9026  1.4076
  852MOL0     H14983  -2.116   4.232  11.975 -2.7543 -0.2681  0.7264
  852MOL0     H14984  -2.239   4.363  11.840 -2.3497  0.8365  1.0290
  852MOL0     H14985  -2.313   4.362  11.675 -0.1120  1.0197 -0.2025
  852MOL0     H14986  -2.477   4.298  11.940 -1.5905  1.3831  0.2767
  852MOL0     H14987  -2.450   4.455  11.890 -0.6013 -0.3461 -0.1232
  852MOL0     H14988  -2.568   4.415  11.683  0.4808 -0.1179 -1.1600
  852MOL0     H14989  -2.570   4.240  11.693  0.9743 -3.2674  3.7498
  852MOL0     H14990  -2.771   4.355  11.756  2.8931 -0.3653 -2.6653
  852MOL0     H14991  -2.700   4.434  11.893 -2.2065  0.6464 -1.0759
  852MOL0     H14992  -2.671   4.196  11.997  0.3904 -1.7097  0.3715
  852MOL0     H14993  -2.734   4.127  11.853  3.0445 -0.1419  0.0214
  852MOL0     H14994  -2.918   4.317  12.003  2.4747  0.1001  1.4432
  852MOL0     H14995  -2.971   4.175  11.908  1.0107 -1.5973 -0.3638
  852MOL0     H14996  -2.804   4.166  12.174 -1.9057  0.8191  2.5092
  852MOL0     H14997  -2.857   4.024  12.094  0.1400  0.3739  0.0383
  852MOL0     H14998  -2.986   4.056  12.282 -1.5148  0.7570  1.5745
  852MOL0     H14999  -3.038   4.216  12.239  0.4448  0.1231  1.9990
  852MOL0     H15000  -2.192   4.016  11.595 -2.5278  3.0443  0.2084
  852MOL0     H15001  -2.005   3.901  11.624 -1.6528 -3.4023  1.6381
  852MOL0     H15002  -1.594   3.891  11.952 -2.0117 -2.1847  0.0689
  852MOL0     H15003  -1.355   3.810  11.987 -0.9900 -3.8225  0.0957
  852MOL0     H15004   0.395   4.266  11.297  0.2013  0.3172  1.5662
  852MOL0     H15005   0.591   4.273  11.152  0.5309  1.9371  0.9950
  852MOL0     H15006   0.968   3.985  11.024  0.6218 -0.1656 -1.8385
  852MOL0     H15007   1.199   3.990  10.894 -2.3552 -3.3351  1.7825
  852MOL0     H15008   1.459   4.302  11.041 -0.0487  0.6868 -0.0016
  852MOL0     H15009   1.502   4.335  10.868  0.3556 -3.1076 -2.4164
  852MOL0     H15010   1.691   4.238  10.997  1.0644 -0.7772  0.3853
  852MOL0     H15011   1.647   4.145  10.856 -0.8919  0.6136  0.5978
  852MOL0     H15012   1.502   3.999  11.030 -0.5922  0.2772 -1.5658
  852MOL0     H15013   1.546   4.111  11.147  0.3515  0.3145 -0.8790
  852MOL0     H15014   1.791   4.049  11.141 -0.8847  1.3212  0.2343
  852MOL0     H15015   1.679   3.926  11.195 -1.6759  1.4310  0.6747
  852MOL0     H15016   1.835   3.778  10.827  1.0598 -1.0012  0.4104
  852MOL0     H15017   1.264   4.376  11.040  0.0027 -0.4780 -0.3345
  852MOL0     H15018   1.117   4.421  11.308  0.5174 -1.4185 -0.0927
  852MOL0     H15019   1.070   4.506  11.161  0.5231  0.4331 -0.3788
  852MOL0     H15020   0.956   4.415  11.250 -0.8172  2.4410 -1.6028
  853MOL0     O15021   1.886   4.909   7.990  0.0542  0.4489  0.6964
  853MOL0     C15022   1.886   4.924   8.105  0.5191  0.0345 -0.8332
  853MOL0     O15023   1.973   4.876   8.191  0.3547 -0.3861 -0.0408
  853MOL0     C15024   2.082   4.805   8.151 -0.6951  0.3695 -0.0024
  853MOL0     C15025   2.088   4.668   8.172 -0.0849  0.3446  1.0807
  853MOL0     C15026   2.203   4.597   8.137 -0.3203  0.6022  0.3199
  853MOL0     C15027   2.316   4.656   8.084  0.1264  0.1560 -0.2473
  853MOL0     O15028   2.418   4.568   8.053 -0.4601  0.2119 -0.1400
  853MOL0     C15029   2.503   4.602   7.944  0.4968 -0.3722 -0.1928
  853MOL0     C15030   2.645   4.593   7.996 -0.6465  0.8400  0.7027
  853MOL0     C15031   2.705   4.464   7.934  0.2221  0.9007  0.0863
  853MOL0     C15032   2.835   4.427   8.021  0.3052  0.4081 -0.2831
  853MOL0     C15033   2.913   4.310   7.957  1.5772 -0.0389  0.2306
  853MOL0     C15034   2.994   4.361   7.837  0.0179 -0.1899  0.1892
  853MOL0     C15035   3.146   4.390   7.871  0.0652  0.0110  0.1128
  853MOL0     C15036   3.226   4.414   7.743  0.0750 -0.1835 -0.3802
  853MOL0     N15037   3.363   4.457   7.781  0.0459  0.2227 -0.4144
  853MOL0     C15038   3.458   4.368   7.830 -0.1641  0.6225  0.1174
  853MOL0     C15039   3.571   4.446   7.862 -0.1449  0.0631  0.9318
  853MOL0     C15040   3.692   4.388   7.925  0.4842 -0.4627 -0.3909
  853MOL0     C15041   3.792   4.326   7.830 -0.1489  0.5504 -0.0955
  853MOL0     C15042   3.915   4.266   7.902  0.0422 -0.4641 -0.8573
  853MOL0     C15043   4.023   4.368   7.948  0.4442 -0.9149  0.0662
  853MOL0     O15044   4.104   4.309   8.056  0.3029 -0.8448  0.4556
  853MOL0     C15045   4.234   4.291   8.026 -0.2764 -0.0861  0.0133
  853MOL0     C15046   4.320   4.285   8.133 -0.1073  0.7266  0.0055
  853MOL0     C15047   4.457   4.263   8.123 -0.8748 -0.4453 -0.0396
  853MOL0     C15048   4.527   4.264   8.001  0.1536  0.1338  0.2161
  853MOL0     C15049   4.674   4.250   7.999 -0.5655 -0.1372 -0.2644
  853MOL0     O15050   4.736   4.243   8.124 -0.5878 -0.0211 -0.8009
  853MOL0     C15051   4.867   4.218   8.136 -0.4249  0.4440 -0.0876
  853MOL0     C15052   4.928   4.282   8.243  0.1788 -0.5009 -0.2081
  853MOL0     C15053   5.060   4.273   8.276 -0.3247  0.7068  1.4683
  853MOL0     C15054   5.140   4.169   8.213  0.3472  0.1938 -1.1287
  853MOL0     O15055   5.269   4.160   8.254 -0.1755  0.2141 -0.3752
  853MOL0     C15056   5.359   4.270   8.234 -0.4301 -0.7284  0.0896
  853MOL0     C15057   5.488   4.253   8.304  0.4992  0.1380 -0.0232
  853MOL0     C15058   5.574   4.384   8.286 -0.4032  0.6146 -0.7953
  853MOL0     C15059   5.707   4.372   8.358 -0.4869 -0.4045  0.5056
  853MOL0     C15060   5.790   4.497   8.396 -0.4123 -0.3740  0.4731
  853MOL0     C15061   5.936   4.469   8.422 -0.2754  0.0790 -0.4663
  853MOL0     C15062   6.040   4.467   8.309  0.0528  0.9264 -0.1327
  853MOL0     C15063   6.146   4.357   8.321 -0.1061 -0.9526 -0.9165
  853MOL0    Cl15064   6.239   4.399   8.468 -0.1183  0.1686 -0.6411
  853MOL0     C15065   5.070   4.085   8.116 -0.4999 -0.1578  0.1946
  853MOL0     C15066   4.940   4.118   8.074  0.0505 -0.1837 -0.0158
  853MOL0     O15067   4.743   4.256   7.895  0.4571 -0.5465  0.0621
  853MOL0     C15068   4.443   4.275   7.881 -0.8730  0.4682 -0.4638
  853MOL0     C15069   4.302   4.293   7.893 -0.4099 -0.1251 -0.4479
  853MOL0     N15070   3.539   4.573   7.817  0.1611 -0.4206  0.3182
  853MOL0     N15071   3.418   4.579   7.770 -0.2740 -0.6135 -0.1258
  853MOL0     C15072   2.316   4.796   8.066 -0.7944  0.3342 -0.3105
  853MOL0     C15073   2.197   4.871   8.097  0.1059  0.0236 -0.3005
  853MOL0     C15074   1.780   5.010   8.165  0.8972  0.4555 -0.2136
  853MOL0     C15075   1.652   5.005   8.085 -0.5036 -0.2602  0.1122
  853MOL0     C15076   1.540   5.070   8.129 -0.1043 -0.0970  1.2706
  853MOL0     C15077   1.548   5.133   8.246  0.0076 -0.5168 -0.3489
  853MOL0     O15078   1.449   5.202   8.310  0.5085  1.0104 -0.1988
  853MOL0     C15079   1.327   5.133   8.319  0.5687  0.2400  0.0434
  853MOL0     C15080   1.255   5.191   8.445  0.2906  1.0214  0.0865
  853MOL0     C15081   1.133   5.097   8.479  0.1832 -0.0642 -0.1359
  853MOL0     C15082   1.048   5.157   8.590 -0.7672  0.4588 -0.9324
  853MOL0     C15083   1.121   5.199   8.714 -0.1596 -0.0934  0.2472
  853MOL0     C15084   1.194   5.239   8.813  0.2259  0.1509  1.3183
  853MOL0     C15085   1.664   5.134   8.327 -0.7083  0.1933 -0.8122
  853MOL0     C15086   1.782   5.085   8.278 -0.0724 -0.4610 -0.8689
  853MOL0     C15087   1.902   5.108   8.362  0.7960 -0.0440 -0.1432
  853MOL0     H15088   1.997   4.617   8.203 -0.2370 -0.4187 -0.5508
  853MOL0     H15089   2.200   4.489   8.147 -0.5772  0.5679 -0.0938
  853MOL0     H15090   2.486   4.534   7.860 -1.1004 -0.9181  0.5361
  853MOL0     H15091   2.498   4.710   7.927 -1.1348 -0.0702  1.8635
  853MOL0     H15092   2.660   4.582   8.104 -1.2014 -0.0194  0.7010
  853MOL0     H15093   2.711   4.676   7.970  0.5406 -0.2963 -0.0468
  853MOL0     H15094   2.720   4.485   7.828 -1.7593 -0.3174 -0.4725
  853MOL0     H15095   2.625   4.392   7.951  2.4425 -1.3954  1.7197
  853MOL0     H15096   2.898   4.515   8.035 -1.7180  1.7795  0.6459
  853MOL0     H15097   2.789   4.404   8.118  0.7885  1.8581  0.3111
  853MOL0     H15098   2.979   4.256   8.026  0.8700 -1.7341 -0.3709
  853MOL0     H15099   2.843   4.232   7.924  0.7294  1.4233 -1.5826
  853MOL0     H15100   2.984   4.298   7.749 -3.8297 -1.4286  1.3026
  853MOL0     H15101   2.953   4.461   7.818  3.3668  0.9857 -1.5677
  853MOL0     H15102   3.185   4.297   7.914  0.3783 -0.7681 -1.7367
  853MOL0     H15103   3.147   4.468   7.947 -0.8432 -0.1317  0.2850
  853MOL0     H15104   3.240   4.327   7.679  0.8819  2.4042 -4.0475
  853MOL0     H15105   3.182   4.499   7.689 -0.9319  0.8048  1.8720
  853MOL0     H15106   3.449   4.262   7.848 -0.5758  0.6789  0.2614
  853MOL0     H15107   3.748   4.467   7.976 -0.3753  0.0064 -0.1398
  853MOL0     H15108   3.661   4.316   8.002 -2.1484 -0.0533 -0.9567
  853MOL0     H15109   3.739   4.247   7.775  1.4792 -0.6847  0.0026
  853MOL0     H15110   3.822   4.393   7.748  1.0258 -0.5774 -0.6317
  853MOL0     H15111   3.954   4.192   7.832 -1.2046  0.6681 -2.8233
  853MOL0     H15112   3.872   4.209   7.985  2.5865  0.1813  1.0367
  853MOL0     H15113   3.970   4.454   7.990 -4.0095 -3.0051 -0.7036
  853MOL0     H15114   4.077   4.405   7.861  0.5972 -0.1761  0.4688
  853MOL0     H15115   4.285   4.293   8.235  0.4527  0.8580  0.1934
  853MOL0     H15116   4.514   4.252   8.214 -1.6969  1.2757  0.7264
  853MOL0     H15117   4.871   4.343   8.311  1.4680 -1.7153  2.0734
  853MOL0     H15118   5.114   4.331   8.351  0.4665  2.2409 -0.2210
  853MOL0     H15119   5.390   4.285   8.130 -0.6969 -0.7556  0.0056
  853MOL0     H15120   5.312   4.362   8.272  1.6346  0.4940 -0.1805
  853MOL0     H15121   5.467   4.245   8.411 -1.2003  3.6202  0.0216
  853MOL0     H15122   5.540   4.164   8.267 -0.3624  0.0121 -0.9652
  853MOL0     H15123   5.580   4.409   8.180  0.1335  3.4994 -0.1755
  853MOL0     H15124   5.526   4.468   8.337  0.5758  1.0095 -0.4991
  853MOL0     H15125   5.779   4.318   8.295  0.6117  3.2237 -1.6475
  853MOL0     H15126   5.686   4.316   8.450 -2.2960 -3.1930 -1.4369
  853MOL0     H15127   5.743   4.538   8.486 -0.8055  0.2211  0.0045
  853MOL0     H15128   5.792   4.565   8.310  0.2898 -0.2245  0.6000
  853MOL0     H15129   5.981   4.540   8.492 -0.7122 -1.0814  1.0483
  853MOL0     H15130   5.940   4.374   8.477  1.4947 -1.2649 -2.6969
  853MOL0     H15131   6.087   4.564   8.294 -0.6454  1.1117 -1.2051
  853MOL0     H15132   5.983   4.450   8.217  1.3670 -0.5108 -0.7094
  853MOL0     H15133   6.095   4.262   8.336 -0.8361 -0.1239  2.7450
  853MOL0     H15134   6.216   4.359   8.237 -0.1482 -0.7354 -0.9481
  853MOL0     H15135   5.121   3.997   8.076  0.0543  1.2282 -2.3595
  853MOL0     H15136   4.871   4.061   8.013 -3.6472  1.5744  2.1657
  853MOL0     H15137   4.485   4.287   7.782 -1.2520  1.8776 -0.4723
  853MOL0     H15138   4.252   4.299   7.797 -0.2246  2.0342 -0.4492
  853MOL0     H15139   2.407   4.842   8.030 -1.6947 -0.6151 -4.3472
  853MOL0     H15140   2.207   4.979   8.103  0.1337  0.0071 -0.0215
  853MOL0     H15141   1.648   4.958   7.987 -0.1562  1.0946 -0.5692
  853MOL0     H15142   1.453   5.071   8.064  2.1704  0.4858 -2.0739
  853MOL0     H15143   1.341   5.025   8.329  0.0697  0.1670  0.0131
  853MOL0     H15144   1.257   5.138   8.235 -2.1473  1.9571  2.2297
  853MOL0     H15145   1.225   5.292   8.417 -1.5248  0.3900 -0.3989
  853MOL0     H15146   1.323   5.204   8.530  1.1143 -0.7023 -0.2590
  853MOL0     H15147   1.175   5.004   8.516 -2.1292 -0.7375  0.9818
  853MOL0     H15148   1.065   5.079   8.394 -1.5599 -3.2566  1.7462
  853MOL0     H15149   0.990   5.242   8.551 -1.2558  0.2305 -0.7155
  853MOL0     H15150   0.977   5.082   8.627 -0.6218  1.2920  1.1771
  853MOL0     H15151   1.260   5.272   8.891  2.2296 -1.9010  0.6036
  853MOL0     H15152   1.665   5.200   8.413  4.6929  2.0427 -1.8733
  853MOL0     H15153   1.983   5.141   8.297 -0.7565  2.2206 -1.0545
  853MOL0     H15154   1.887   5.182   8.442  0.5231  0.0273 -0.2593
  853MOL0     H15155   1.923   5.011   8.409 -1.1844 -0.6375 -0.3640
  854MOL0     O15156   4.135   4.679   0.704 -0.9238  0.2420 -0.2148
  854MOL0     C15157   4.106   4.670   0.587 -0.6367 -0.4693  0.0553
  854MOL0     O15158   4.189   4.707   0.487 -0.1500 -0.5633  0.8466
  854MOL0     C15159   4.293   4.791   0.513  0.0059 -0.4363 -0.4292
  854MOL0     C15160   4.419   4.763   0.460  0.0675  0.1108  0.4407
  854MOL0     C15161   4.521   4.854   0.482 -0.6211 -0.6248  0.1100
  854MOL0     C15162   4.512   4.960   0.577  0.0607 -0.6908 -0.3041
  854MOL0     O15163   4.628   5.034   0.613 -0.1225 -0.4547 -0.3035
  854MOL0     C15164   4.746   5.023   0.536 -0.5832  0.0429  0.5898
  854MOL0     C15165   4.837   5.133   0.590 -0.2710  0.5453  0.6644
  854MOL0     C15166   4.981   5.108   0.532 -0.4979  0.2897  0.0334
  854MOL0     C15167   5.075   5.220   0.564  0.4604  0.1503 -0.4946
  854MOL0     C15168   5.218   5.200   0.511 -0.3420 -0.2177 -0.3762
  854MOL0     C15169   5.281   5.068   0.566  0.4109 -0.7240 -0.1052
  854MOL0     C15170   5.425   5.086   0.529 -0.0341  0.5475 -0.1099
  854MOL0     C15171   5.531   4.994   0.579  0.5335  0.6472  0.1231
  854MOL0     N15172   5.533   4.987   0.730 -0.9929 -0.3144  0.5814
  854MOL0     C15173   5.460   4.901   0.807  0.4681  0.1935 -1.2133
  854MOL0     C15174   5.505   4.934   0.933  0.6869 -1.2954  0.2067
  854MOL0     C15175   5.455   4.865   1.052 -0.1496  0.1525  0.4919
  854MOL0     C15176   5.571   4.828   1.148 -0.1465  0.0104 -0.1192
  854MOL0     C15177   5.517   4.723   1.249 -0.4164  1.1819 -0.0388
  854MOL0     C15178   5.630   4.655   1.329  0.5119  0.1311  0.4102
  854MOL0     O15179   5.716   4.738   1.405  0.6640  0.2145  0.5615
  854MOL0     C15180   5.809   4.681   1.490  0.3323  0.6256  0.0111
  854MOL0     C15181   5.850   4.752   1.610 -0.2912  0.1885 -0.2363
  854MOL0     C15182   5.959   4.715   1.687 -0.3755 -1.2962 -0.3619
  854MOL0     C15183   6.036   4.602   1.647 -0.7092  0.2014 -0.3840
  854MOL0     C15184   6.151   4.564   1.736  0.3305  0.4263  0.9504
  854MOL0     O15185   6.191   4.650   1.836  0.8681 -0.6957 -0.4736
  854MOL0     C15186   6.305   4.627   1.903  0.1848  0.4193 -0.3888
  854MOL0     C15187   6.346   4.740   1.972 -0.6382 -0.2949 -0.9424
  854MOL0     C15188   6.473   4.738   2.042  0.9250 -0.4589  0.2638
  854MOL0     C15189   6.551   4.622   2.042 -0.6429  0.6637  0.2107
  854MOL0     O15190   6.668   4.623   2.117  0.1324  0.3931 -0.1253
  854MOL0     C15191   6.767   4.523   2.085  0.4715  0.1331 -0.8430
  854MOL0     C15192   6.885   4.577   2.174 -0.1868  1.2041 -0.1897
  854MOL0     C15193   6.950   4.700   2.131 -0.4536 -0.8969 -0.0442
  854MOL0     C15194   7.076   4.734   2.212 -0.4190 -0.6894 -0.3177
  854MOL0     C15195   7.204   4.668   2.158 -0.6849  0.8486 -0.5152
  854MOL0     C15196   7.333   4.708   2.236  0.1795  0.5125  1.4018
  854MOL0     C15197   7.418   4.823   2.173  0.8375  0.3320 -0.0155
  854MOL0     C15198   7.347   4.951   2.172  0.5052  0.1243  0.2843
  854MOL0    Cl15199   7.450   5.086   2.093 -0.1601  0.5680 -0.1967
  854MOL0     C15200   6.502   4.517   1.977 -0.9050  0.0550  0.5670
  854MOL0     C15201   6.391   4.516   1.896  0.7722  0.3052 -1.1872
  854MOL0     O15202   6.184   4.446   1.720 -0.0209  0.0758  0.0768
  854MOL0     C15203   5.985   4.519   1.544  0.7340 -0.4783  0.0048
  854MOL0     C15204   5.870   4.554   1.464  0.1724 -0.3548 -0.8454
  854MOL0     N15205   5.618   5.015   0.934 -0.0092 -0.2247 -0.2448
  854MOL0     N15206   5.634   5.048   0.809 -0.1880  0.1375 -0.2638
  854MOL0     C15207   4.387   4.987   0.632 -0.3236 -1.0857 -0.5949
  854MOL0     C15208   4.279   4.912   0.595 -0.1224 -0.5788  0.1807
  854MOL0     C15209   3.977   4.599   0.560  0.7647  0.4199 -0.1931
  854MOL0     C15210   3.912   4.520   0.662  0.4188 -0.9122 -0.2202
  854MOL0     C15211   3.799   4.438   0.638 -0.1259  0.0600  0.9982
  854MOL0     C15212   3.747   4.433   0.507 -0.4090 -0.1934 -0.3955
  854MOL0     O15213   3.641   4.350   0.498 -0.0678  0.2120  0.2257
  854MOL0     C15214   3.585   4.330   0.369 -0.1815  0.3398  1.4420
  854MOL0     C15215   3.469   4.223   0.385  0.2750 -0.0043 -0.4505
  854MOL0     C15216   3.466   4.123   0.271 -0.4343 -1.3268  0.2229
  854MOL0     C15217   3.471   4.181   0.125  0.4546  0.6651 -0.3752
  854MOL0     C15218   3.356   4.266   0.100  0.4331  0.4963  0.7965
  854MOL0     C15219   3.271   4.351   0.096  1.3448 -0.4096 -0.6251
  854MOL0     C15220   3.797   4.521   0.410 -0.6664 -0.2340 -0.0349
  854MOL0     C15221   3.918   4.595   0.428  1.1078 -0.8748 -0.2076
  854MOL0     C15222   3.981   4.656   0.302 -1.1189 -0.2632  0.7255
  854MOL0     H15223   4.457   4.670   0.419  0.4758  1.2730 -1.9559
  854MOL0     H15224   4.616   4.816   0.445 -0.8931  0.3427 -1.7453
  854MOL0     H15225   4.795   4.928   0.561 -0.0414  1.2658  4.9430
  854MOL0     H15226   4.720   5.028   0.430 -1.0589 -0.1441  0.6963
  854MOL0     H15227   4.849   5.119   0.698 -1.3191 -1.1429  0.6081
  854MOL0     H15228   4.806   5.236   0.569 -1.1243  0.2061  0.2074
  854MOL0     H15229   4.966   5.115   0.424 -3.0182  0.8576  0.3590
  854MOL0     H15230   5.019   5.007   0.549  2.0038  0.9803 -1.0360
  854MOL0     H15231   5.032   5.314   0.527 -1.6624  1.0745  3.7697
  854MOL0     H15232   5.090   5.236   0.671  1.2906  0.1524 -0.5993
  854MOL0     H15233   5.227   5.196   0.402  1.1396  0.8065 -0.3097
  854MOL0     H15234   5.268   5.292   0.540  1.9463 -0.9275 -1.8555
  854MOL0     H15235   5.277   5.065   0.676 -0.1140  0.4231 -0.0802
  854MOL0     H15236   5.238   4.980   0.517 -0.2283 -1.8983  2.3780
  854MOL0     H15237   5.451   5.188   0.559 -1.4532  0.6208  0.9768
  854MOL0     H15238   5.438   5.088   0.420  2.0223  1.1254  0.1043
  854MOL0     H15239   5.503   4.897   0.536 -1.1422  1.2469 -0.1967
  854MOL0     H15240   5.628   5.021   0.536  2.0302 -1.9723  1.5276
  854MOL0     H15241   5.378   4.836   0.780 -0.4497 -0.2042  2.0879
  854MOL0     H15242   5.374   4.920   1.100 -0.6770  0.4572 -0.7228
  854MOL0     H15243   5.403   4.779   1.009 -1.1160 -0.7408  3.2175
  854MOL0     H15244   5.652   4.781   1.092 -1.4991  0.3744 -2.5263
  854MOL0     H15245   5.614   4.916   1.197  0.1932 -1.1866  1.8126
  854MOL0     H15246   5.463   4.647   1.194 -1.1718  1.3472  0.4575
  854MOL0     H15247   5.448   4.763   1.324  0.0006  1.4511  0.2082
  854MOL0     H15248   5.683   4.606   1.247 -1.6321 -2.1358  0.2767
  854MOL0     H15249   5.575   4.584   1.391 -1.5092  0.9015 -0.4165
  854MOL0     H15250   5.791   4.839   1.632 -2.0505 -0.9386 -0.3045
  854MOL0     H15251   5.999   4.767   1.773 -0.5712 -3.3084  1.0328
  854MOL0     H15252   6.296   4.836   1.978 -1.4247 -0.6421 -1.7119
  854MOL0     H15253   6.502   4.832   2.088 -0.0479  0.1836 -0.3772
  854MOL0     H15254   6.743   4.425   2.126  3.7691 -0.6225 -0.4240
  854MOL0     H15255   6.781   4.514   1.977  0.8065 -0.6363 -0.7436
  854MOL0     H15256   6.854   4.586   2.279 -2.8314 -0.9239 -0.7002
  854MOL0     H15257   6.956   4.494   2.180 -2.6454 -0.9158  2.1174
  854MOL0     H15258   6.989   4.692   2.029 -0.0473 -3.1939  0.2417
  854MOL0     H15259   6.872   4.777   2.135 -0.1743 -0.6247  0.2798
  854MOL0     H15260   7.055   4.697   2.313  2.3595 -3.2358 -0.5280
  854MOL0     H15261   7.077   4.843   2.215 -0.3648 -0.5608 -2.9323
  854MOL0     H15262   7.215   4.666   2.049  1.0917 -1.8255 -0.3913
  854MOL0     H15263   7.188   4.562   2.183  0.1833  1.3167  2.4333
  854MOL0     H15264   7.305   4.723   2.341 -0.6689 -0.9737  1.4134
  854MOL0     H15265   7.397   4.620   2.242 -0.0672  0.2438  0.2846
  854MOL0     H15266   7.458   4.794   2.075  0.8301 -0.2560  0.1467
  854MOL0     H15267   7.502   4.812   2.242  1.2059  2.5497 -0.0692
  854MOL0     H15268   7.256   4.944   2.111  0.2626  3.4296  0.0834
  854MOL0     H15269   7.306   4.987   2.266  0.6260 -0.0748  0.4145
  854MOL0     H15270   6.567   4.430   1.979  0.1393  0.6298 -2.3391
  854MOL0     H15271   6.357   4.427   1.844 -2.9704  1.9684 -1.9143
  854MOL0     H15272   6.053   4.441   1.510  1.4572 -0.2272  0.8239
  854MOL0     H15273   5.860   4.496   1.373 -1.1719  0.3246 -1.1546
  854MOL0     H15274   4.373   5.071   0.700 -1.6023 -0.7935 -1.1760
  854MOL0     H15275   4.183   4.941   0.637  0.3218 -1.0701  1.5902
  854MOL0     H15276   3.942   4.534   0.765 -0.1460  0.3578 -0.2098
  854MOL0     H15277   3.738   4.393   0.716 -0.7878 -0.7417  0.0357
  854MOL0     H15278   3.665   4.305   0.299  1.2762  2.2210  2.3429
  854MOL0     H15279   3.533   4.420   0.335  1.5317  0.9293  0.3076
  854MOL0     H15280   3.370   4.270   0.389  0.7730  1.1806 -1.4264
  854MOL0     H15281   3.490   4.167   0.477  1.2279 -0.2080 -0.7867
  854MOL0     H15282   3.370   4.069   0.274 -0.1378 -1.8681  0.0888
  854MOL0     H15283   3.554   4.060   0.286 -0.7517 -2.6236 -2.6451
  854MOL0     H15284   3.568   4.230   0.111  2.0977 -1.6835  1.8873
  854MOL0     H15285   3.480   4.094   0.059  3.3149  0.2822  0.3890
  854MOL0     H15286   3.208   4.435   0.075  3.1557  0.6874 -1.9950
  854MOL0     H15287   3.752   4.527   0.312  0.6996  0.9222 -0.6323
  854MOL0     H15288   4.086   4.629   0.288 -0.7882  1.0537  0.5505
  854MOL0     H15289   3.931   4.627   0.209 -2.5725 -0.1719  1.4545
  854MOL0     H15290   3.980   4.765   0.309 -0.3141 -0.2737  1.1248
  855MOL0     O15291   2.825   6.409   8.547  0.1744 -0.9312  0.3537
  855MOL0     C15292   2.704   6.421   8.546  0.2351  0.2521  0.0109
  855MOL0     O15293   2.629   6.415   8.655 -0.7751  0.4180  0.0744
  855MOL0     C15294   2.701   6.412   8.771  0.6502 -0.2603  0.7169
  855MOL0     C15295   2.773   6.305   8.819 -0.4466 -0.0372  0.0026
  855MOL0     C15296   2.843   6.317   8.943 -1.0291 -0.4914  0.4592
  855MOL0     C15297   2.828   6.433   9.021 -1.0361  0.0080 -0.1734
  855MOL0     O15298   2.884   6.444   9.148  0.5553 -0.8780 -0.4148
  855MOL0     C15299   3.021   6.460   9.154 -0.3044  0.1251  0.3243
  855MOL0     C15300   3.081   6.483   9.295 -0.1631  0.4065 -0.0021
  855MOL0     C15301   3.233   6.494   9.292  0.2540 -0.4433 -0.3647
  855MOL0     C15302   3.306   6.358   9.279 -0.7023  0.9879 -0.3639
  855MOL0     C15303   3.452   6.357   9.308  1.5248 -0.1178  0.7743
  855MOL0     C15304   3.474   6.340   9.458  0.1448 -1.1579 -0.5923
  855MOL0     C15305   3.631   6.320   9.492  0.2050 -0.5883  0.7077
  855MOL0     C15306   3.721   6.442   9.452  0.1101 -0.0796  0.1296
  855MOL0     N15307   3.840   6.433   9.533 -0.4143 -0.7795  0.0418
  855MOL0     C15308   3.965   6.375   9.499 -0.2715 -0.1847 -0.4332
  855MOL0     C15309   4.040   6.403   9.606 -0.5912  0.0430 -1.2860
  855MOL0     C15310   4.183   6.361   9.632 -0.7558 -0.4592 -0.6862
  855MOL0     C15311   4.296   6.463   9.607 -0.1917  0.4039 -0.1086
  855MOL0     C15312   4.432   6.391   9.629  0.1834 -0.0055 -0.0613
  855MOL0     C15313   4.548   6.494   9.611  0.6743 -0.6400 -0.5848
  855MOL0     O15314   4.571   6.505   9.472 -0.2418  1.0626  0.4804
  855MOL0     C15315   4.663   6.596   9.429 -1.0765 -0.1060 -0.3436
  855MOL0     C15316   4.643   6.646   9.302 -0.3547  0.8094 -0.4929
  855MOL0     C15317   4.749   6.716   9.237  0.2536 -0.1465 -0.7258
  855MOL0     C15318   4.868   6.738   9.300  0.4725 -0.3856  0.2398
  855MOL0     C15319   4.984   6.805   9.228  0.8546 -0.2814  0.0030
  855MOL0     O15320   5.075   6.857   9.319  0.0859  0.0724  1.2246
  855MOL0     C15321   5.186   6.924   9.266  0.0453 -0.2803 -0.2498
  855MOL0     C15322   5.311   6.929   9.334 -1.2189  0.0887  0.8874
  855MOL0     C15323   5.428   6.999   9.303  0.0174  0.6043 -0.9243
  855MOL0     C15324   5.415   7.085   9.201 -0.1531 -0.4278  0.2617
  855MOL0     O15325   5.522   7.166   9.155 -0.3766 -0.0350 -0.6075
  855MOL0     C15326   5.616   7.234   9.245  0.0482  0.6353  1.0040
  855MOL0     C15327   5.534   7.324   9.333  0.0276  0.0486  0.1821
  855MOL0     C15328   5.620   7.431   9.405 -0.0830  0.2159 -1.0705
  855MOL0     C15329   5.701   7.378   9.517  0.0517  0.6222 -0.1224
  855MOL0     C15330   5.759   7.485   9.607 -0.5319  0.4944 -0.1373
  855MOL0     C15331   5.863   7.562   9.527 -0.9950 -0.1264 -0.5206
  855MOL0     C15332   5.950   7.661   9.614  0.1694 -0.2220 -0.6112
  855MOL0     C15333   6.084   7.700   9.558  0.8323 -0.1446  0.3598
  855MOL0    Cl15334   6.075   7.754   9.390  0.3042  0.1918  0.1707
  855MOL0     C15335   5.294   7.089   9.125 -0.7173 -0.1338 -0.3600
  855MOL0     C15336   5.184   7.009   9.158  0.0174 -0.0430 -0.5338
  855MOL0     O15337   4.988   6.811   9.111 -0.2622  1.7101  0.6303
  855MOL0     C15338   4.867   6.710   9.438  0.0444 -0.6686  0.5848
  855MOL0     C15339   4.771   6.637   9.503 -0.5414 -0.7061  0.6462
  855MOL0     N15340   3.963   6.476   9.704  0.6312  0.5303  0.4521
  855MOL0     N15341   3.846   6.501   9.647 -0.5611  0.3279 -0.7372
  855MOL0     C15342   2.725   6.522   8.983 -0.5757  1.0248 -0.3765
  855MOL0     C15343   2.658   6.509   8.861 -0.5476  0.3603 -0.2584
  855MOL0     C15344   2.639   6.421   8.407 -0.6465 -0.2378 -0.1278
  855MOL0     C15345   2.702   6.482   8.290 -0.7211  0.6604 -0.0718
  855MOL0     C15346   2.635   6.497   8.168  0.2587 -0.5406 -0.1591
  855MOL0     C15347   2.504   6.460   8.151  0.0564 -0.2327 -0.0703
  855MOL0     O15348   2.444   6.455   8.028  0.2840 -0.5614 -0.1075
  855MOL0     C15349   2.319   6.525   8.029  0.1622 -0.6527  0.4169
  855MOL0     C15350   2.333   6.679   8.067  0.3155 -0.0396 -0.0472
  855MOL0     C15351   2.211   6.759   8.002  0.2161 -0.5462 -0.0160
  855MOL0     C15352   2.174   6.896   8.067  0.2443 -0.5813 -0.7515
  855MOL0     C15353   2.146   6.881   8.212 -0.8176  0.0010 -0.8644
  855MOL0     C15354   2.113   6.870   8.331  0.0151 -0.0940  0.3166
  855MOL0     C15355   2.440   6.412   8.266 -0.8896 -0.2121  0.0501
  855MOL0     C15356   2.504   6.395   8.388  0.4803 -0.0273  1.0679
  855MOL0     C15357   2.398   6.344   8.491 -0.1762 -1.2950 -0.3648
  855MOL0     H15358   2.785   6.222   8.749 -0.9019  0.4516 -0.6676
  855MOL0     H15359   2.912   6.235   8.962 -0.5652 -0.2640 -0.2273
  855MOL0     H15360   3.069   6.370   9.116  1.6413  1.3790 -0.3420
  855MOL0     H15361   3.057   6.546   9.097  1.8088 -1.8458 -1.5290
  855MOL0     H15362   3.066   6.413   9.378  2.4967  0.3533  0.5256
  855MOL0     H15363   3.034   6.577   9.326  0.0462  0.5104 -0.0025
  855MOL0     H15364   3.274   6.532   9.386 -2.3172 -2.4109  1.7001
  855MOL0     H15365   3.265   6.555   9.206  1.0172  1.4418  1.1960
  855MOL0     H15366   3.258   6.288   9.349  1.4874 -0.8419 -0.5859
  855MOL0     H15367   3.296   6.326   9.175 -0.1363 -3.3278  0.7001
  855MOL0     H15368   3.487   6.270   9.251  0.2113  0.3229 -0.7971
  855MOL0     H15369   3.508   6.443   9.269  0.0716  0.5932  0.1883
  855MOL0     H15370   3.432   6.427   9.509 -0.0275 -1.6750  0.1569
  855MOL0     H15371   3.419   6.250   9.489 -0.0784 -0.9419 -0.3587
  855MOL0     H15372   3.667   6.231   9.438  3.1825  1.2136 -0.5262
  855MOL0     H15373   3.642   6.290   9.597 -0.3941 -1.5798  0.5006
  855MOL0     H15374   3.738   6.449   9.345  0.6316  0.8950  0.2666
  855MOL0     H15375   3.675   6.539   9.472 -0.9939 -0.7912  1.2131
  855MOL0     H15376   4.000   6.318   9.414  1.2402 -0.4095  0.3006
  855MOL0     H15377   4.190   6.320   9.733  1.9332  1.0230 -0.1922
  855MOL0     H15378   4.201   6.280   9.561  1.0735 -0.4088 -0.3130
  855MOL0     H15379   4.291   6.494   9.503 -3.2636 -0.3505 -0.2727
  855MOL0     H15380   4.290   6.548   9.675  1.8966 -0.1664  0.8932
  855MOL0     H15381   4.454   6.307   9.562  1.3483 -1.5400  2.1067
  855MOL0     H15382   4.443   6.350   9.730 -0.1444  0.1633  0.0439
  855MOL0     H15383   4.640   6.465   9.661  0.5582  2.0418  1.4413
  855MOL0     H15384   4.506   6.590   9.644  1.1394 -0.7142  0.2441
  855MOL0     H15385   4.550   6.631   9.247 -0.9674  0.1799  0.6849
  855MOL0     H15386   4.737   6.744   9.132 -3.1123  1.2128 -0.1163
  855MOL0     H15387   5.319   6.866   9.422  0.2266 -1.2420 -0.1392
  855MOL0     H15388   5.512   6.977   9.368 -1.5884 -0.9425  0.7489
  855MOL0     H15389   5.678   7.163   9.301  0.9112 -1.5306 -2.3490
  855MOL0     H15390   5.692   7.288   9.188  0.8027 -0.1258  1.2651
  855MOL0     H15391   5.470   7.381   9.264  0.7569 -1.7019 -2.0729
  855MOL0     H15392   5.480   7.256   9.400  1.7182  0.1474  1.6882
  855MOL0     H15393   5.689   7.481   9.336  0.2074 -0.9983 -1.6988
  855MOL0     H15394   5.549   7.502   9.447 -2.2107 -0.9726 -2.4873
  855MOL0     H15395   5.784   7.321   9.475 -0.0754  0.5938 -0.3378
  855MOL0     H15396   5.636   7.314   9.578  0.2088  1.0387  0.4894
  855MOL0     H15397   5.805   7.442   9.696  0.8902  4.3665  1.1926
  855MOL0     H15398   5.679   7.554   9.638  0.1695  0.9674  0.6373
  855MOL0     H15399   5.930   7.485   9.485 -0.7356  0.3703 -1.0410
  855MOL0     H15400   5.823   7.614   9.439  1.6366  2.0935 -0.5570
  855MOL0     H15401   5.973   7.612   9.710 -1.4719  2.2290  1.1653
  855MOL0     H15402   5.896   7.753   9.640 -0.1483 -1.4577  4.1001
  855MOL0     H15403   6.112   7.790   9.614 -1.6199  0.2177  1.1476
  855MOL0     H15404   6.153   7.617   9.573 -0.0833 -1.4875 -2.2558
  855MOL0     H15405   5.281   7.152   9.038 -1.2720 -0.5167 -0.5602
  855MOL0     H15406   5.094   7.016   9.097  0.4105  1.8656 -0.9657
  855MOL0     H15407   4.954   6.722   9.501  0.7614  0.2357 -0.5456
  855MOL0     H15408   4.787   6.617   9.608 -0.4471  0.4188  0.8647
  855MOL0     H15409   2.701   6.614   9.035 -4.2295  0.7748 -1.3613
  855MOL0     H15410   2.583   6.582   8.834 -1.0073  0.5900  1.5175
  855MOL0     H15411   2.806   6.516   8.288 -0.0788 -1.1418  0.7162
  855MOL0     H15412   2.672   6.550   8.080 -1.5603  2.8923  0.9611
  855MOL0     H15413   2.252   6.466   8.091  1.5516 -1.3226  1.3392
  855MOL0     H15414   2.274   6.521   7.930 -0.1758  0.3766  0.5190
  855MOL0     H15415   2.428   6.724   8.039  0.7731 -0.7911  0.2662
  855MOL0     H15416   2.315   6.699   8.174 -0.5887 -0.3915 -0.1217
  855MOL0     H15417   2.127   6.694   8.027  0.1348  0.0994  1.5015
  855MOL0     H15418   2.219   6.765   7.893 -3.1030 -0.5160 -0.3607
  855MOL0     H15419   2.251   6.973   8.057 -1.9432  1.9919  0.5804
  855MOL0     H15420   2.099   6.947   8.005  0.0193 -2.8373 -2.4442
  855MOL0     H15421   2.060   6.847   8.421 -1.8146  0.4004 -0.5900
  855MOL0     H15422   2.337   6.382   8.254 -1.1378  0.5849  0.1529
  855MOL0     H15423   2.305   6.306   8.447 -1.4200 -0.5098  1.4452
  855MOL0     H15424   2.437   6.269   8.561 -1.1480 -0.5827  0.9799
  855MOL0     H15425   2.363   6.418   8.564 -1.2484 -1.4718 -0.6749
  856MOL0     O15426  10.381   4.197   1.171  0.8426  0.5460  0.7086
  856MOL0     C15427  10.415   4.122   1.264  0.0600 -0.0790 -1.1857
  856MOL0     O15428  10.353   4.009   1.300 -0.1583 -0.2283 -1.1605
  856MOL0     C15429  10.223   4.002   1.312 -0.2884 -0.6039  0.0213
  856MOL0     C15430  10.128   4.101   1.318  0.0035  0.3845 -0.5064
  856MOL0     C15431   9.988   4.076   1.324  0.7863  0.0350  0.1354
  856MOL0     C15432   9.934   3.947   1.323 -0.1105  0.1705 -0.7914
  856MOL0     O15433   9.800   3.914   1.324  0.3156 -0.6341 -0.3398
  856MOL0     C15434   9.701   4.006   1.332 -0.4902 -0.7375  0.6036
  856MOL0     C15435   9.573   3.929   1.281 -0.3281  0.2860 -0.1496
  856MOL0     C15436   9.446   4.004   1.295  0.3180 -0.1145 -0.7182
  856MOL0     C15437   9.336   3.925   1.215 -0.3558 -0.3481 -0.3565
  856MOL0     C15438   9.188   3.990   1.235  0.0755  0.7013  0.7887
  856MOL0     C15439   9.077   3.899   1.162  0.1817  0.0844 -0.2884
  856MOL0     C15440   8.937   3.961   1.183  0.1445 -0.1737 -0.1130
  856MOL0     C15441   8.828   3.854   1.160 -0.1186  0.2030 -0.6779
  856MOL0     N15442   8.696   3.920   1.141  0.0781 -0.3325 -0.5099
  856MOL0     C15443   8.571   3.894   1.198 -0.0509  0.1927  0.5346
  856MOL0     C15444   8.486   3.985   1.149  0.3752 -0.4658  0.9891
  856MOL0     C15445   8.350   4.007   1.196 -0.5497  1.2312  0.1462
  856MOL0     C15446   8.314   4.011   1.346 -0.3760  0.6505  1.2347
  856MOL0     C15447   8.398   4.122   1.416  0.4646  0.0680  0.6923
  856MOL0     C15448   8.372   4.109   1.561  0.4363  0.3214 -0.1312
  856MOL0     O15449   8.424   3.980   1.615  0.4308 -1.0263  0.6688
  856MOL0     C15450   8.559   3.946   1.607 -0.4544 -0.7058  0.1853
  856MOL0     C15451   8.658   4.037   1.641  0.5460  0.1934 -0.7326
  856MOL0     C15452   8.791   4.011   1.626  0.3656  0.0190  0.0423
  856MOL0     C15453   8.830   3.875   1.594 -1.7049 -0.0535  0.5124
  856MOL0     C15454   8.980   3.847   1.589  1.5877 -0.4940 -0.7173
  856MOL0     O15455   9.066   3.956   1.630  0.5005 -0.0931  0.2758
  856MOL0     C15456   9.196   3.929   1.670 -0.5331 -0.3777 -0.0107
  856MOL0     C15457   9.257   3.807   1.692 -0.3570  0.4645  0.4541
  856MOL0     C15458   9.400   3.808   1.713  0.2655  0.1042  0.0254
  856MOL0     C15459   9.479   3.915   1.713  0.6938  0.0508  0.3146
  856MOL0     O15460   9.623   3.925   1.709  0.2204 -0.2411  0.4935
  856MOL0     C15461   9.695   3.835   1.796  0.8168  0.2071  0.7140
  856MOL0     C15462   9.831   3.887   1.819  0.0383 -0.1373 -0.6334
  856MOL0     C15463   9.909   3.903   1.685 -0.3516 -0.7755 -0.5227
  856MOL0     C15464  10.024   4.005   1.691 -0.4891  0.0865 -0.2496
  856MOL0     C15465  10.139   3.939   1.777 -0.2009  0.3930 -0.1028
  856MOL0     C15466  10.266   4.025   1.754 -0.3206  0.5545 -0.2167
  856MOL0     C15467  10.380   3.951   1.827 -0.6235 -0.8068 -1.2491
  856MOL0     C15468  10.517   4.010   1.799  0.4443 -0.0205  0.5231
  856MOL0    Cl15469  10.646   3.904   1.846 -0.2414  0.3876  0.1468
  856MOL0     C15470   9.417   4.037   1.697 -0.1066 -0.3909  0.0958
  856MOL0     C15471   9.273   4.043   1.674  0.6735  1.1267 -0.7432
  856MOL0     O15472   9.016   3.749   1.536  0.0392  0.4236  0.0251
  856MOL0     C15473   8.737   3.782   1.569  0.0852  0.4961 -0.4625
  856MOL0     C15474   8.596   3.816   1.571 -0.3079  0.0083  0.1769
  856MOL0     N15475   8.552   4.067   1.062 -0.7693  0.4104  0.5097
  856MOL0     N15476   8.674   4.030   1.057  0.1459 -0.4568  0.0429
  856MOL0     C15477  10.027   3.848   1.304  0.2935 -0.4630  0.4536
  856MOL0     C15478  10.174   3.872   1.306  0.3508  0.9949 -0.3540
  856MOL0     C15479  10.554   4.145   1.308  1.4361 -0.5786 -0.7727
  856MOL0     C15480  10.615   4.266   1.281 -0.6816  0.7383 -0.3364
  856MOL0     C15481  10.754   4.292   1.305  0.0866 -0.4744  0.7396
  856MOL0     C15482  10.834   4.202   1.363 -0.0019  0.0565 -1.0161
  856MOL0     O15483  10.966   4.232   1.384 -0.9409  0.3984 -0.0816
  856MOL0     C15484  11.065   4.129   1.382 -0.4242  0.5525 -0.8611
  856MOL0     C15485  11.099   4.083   1.522  0.0252 -0.5288 -0.4556
  856MOL0     C15486  11.148   4.210   1.594  0.2211  0.5001  0.3481
  856MOL0     C15487  11.287   4.272   1.554  0.3306  0.0694 -0.2456
  856MOL0     C15488  11.377   4.162   1.549 -0.7127  0.0441  0.3125
  856MOL0     C15489  11.448   4.059   1.551  0.3114  0.0062 -0.2446
  856MOL0     C15490  10.771   4.076   1.404  0.1620 -0.7095  1.0205
  856MOL0     C15491  10.636   4.049   1.376 -1.4792  0.0396  0.7108
  856MOL0     C15492  10.586   3.917   1.416 -0.2541 -0.7397 -1.0431
  856MOL0     H15493  10.161   4.204   1.316  0.1161  0.3515 -0.3423
  856MOL0     H15494   9.916   4.156   1.317  0.6916 -0.0128  0.5645
  856MOL0     H15495   9.673   4.041   1.432  1.1656  0.3266  0.7301
  856MOL0     H15496   9.722   4.095   1.273  1.0621 -1.2249  0.3679
  856MOL0     H15497   9.557   3.835   1.334 -2.9331 -2.7182 -5.4332
  856MOL0     H15498   9.594   3.902   1.177  2.0593  3.2138 -0.5951
  856MOL0     H15499   9.451   4.100   1.243 -2.8901 -0.2687 -1.5378
  856MOL0     H15500   9.415   4.019   1.399  1.4612 -0.8097 -0.2602
  856MOL0     H15501   9.362   3.931   1.109  2.4439  0.7597  0.3055
  856MOL0     H15502   9.341   3.818   1.237  0.3834 -0.5206 -1.2856
  856MOL0     H15503   9.164   3.995   1.341 -1.7752  0.4954  0.4129
  856MOL0     H15504   9.182   4.092   1.196 -4.0082  0.1260 -0.5782
  856MOL0     H15505   9.102   3.891   1.056  0.2350  2.7910 -0.5480
  856MOL0     H15506   9.078   3.794   1.194  0.3919  0.6126  1.5716
  856MOL0     H15507   8.919   4.048   1.119 -1.1764 -1.0636 -0.9929
  856MOL0     H15508   8.940   3.991   1.288  1.3457  0.2911 -0.2639
  856MOL0     H15509   8.838   3.803   1.064 -0.0212  0.2593 -0.6974
  856MOL0     H15510   8.829   3.771   1.231  2.7988  0.9222  0.2541
  856MOL0     H15511   8.549   3.814   1.269 -1.0642 -1.5575 -1.6410
  856MOL0     H15512   8.302   4.098   1.160  1.1361  2.4419  0.8696
  856MOL0     H15513   8.292   3.924   1.154  0.5885 -0.5173  1.8532
  856MOL0     H15514   8.207   4.026   1.357 -1.1639 -3.0645  0.1017
  856MOL0     H15515   8.336   3.915   1.395 -1.0958 -0.5954 -0.7880
  856MOL0     H15516   8.366   4.222   1.384 -1.0089 -1.2605 -2.4282
  856MOL0     H15517   8.505   4.109   1.403  0.6206  0.8191  1.1906
  856MOL0     H15518   8.263   4.102   1.568  0.4651  0.9322  1.1470
  856MOL0     H15519   8.419   4.191   1.615  3.5193 -1.8070  0.7141
  856MOL0     H15520   8.631   4.138   1.670 -0.3512 -0.5618  1.2277
  856MOL0     H15521   8.864   4.090   1.640 -0.7004  0.8476  1.1124
  856MOL0     H15522   9.197   3.717   1.701  1.7709 -0.8741  2.7437
  856MOL0     H15523   9.442   3.708   1.720  3.7457  1.3593 -0.8765
  856MOL0     H15524   9.640   3.822   1.889  0.7454 -0.9811  0.5185
  856MOL0     H15525   9.700   3.746   1.732 -1.0587  0.9625 -0.6165
  856MOL0     H15526   9.818   3.986   1.865 -1.6173 -1.1348  1.2157
  856MOL0     H15527   9.879   3.815   1.886 -0.9468  0.5095  0.8427
  856MOL0     H15528   9.948   3.808   1.648 -0.7760 -2.4114  2.8593
  856MOL0     H15529   9.838   3.943   1.612 -2.0905  0.8494  1.8890
  856MOL0     H15530   9.991   4.104   1.724  2.4541  1.9508 -2.3872
  856MOL0     H15531  10.055   4.021   1.587 -1.5889  3.0666 -0.2202
  856MOL0     H15532  10.165   3.840   1.738  0.2484  0.3253  0.3525
  856MOL0     H15533  10.115   3.923   1.882 -1.8397  0.4693 -0.4388
  856MOL0     H15534  10.294   4.010   1.650  0.3741 -2.2673  0.3013
  856MOL0     H15535  10.266   4.132   1.778  0.0301  0.2138  1.4553
  856MOL0     H15536  10.390   3.851   1.782  1.4155 -0.2970 -2.0619
  856MOL0     H15537  10.374   3.949   1.937  3.6951  1.7357 -0.7348
  856MOL0     H15538  10.529   4.048   1.697 -3.1032  0.1440  0.0401
  856MOL0     H15539  10.522   4.103   1.856 -1.4390 -0.3636  1.2843
  856MOL0     H15540   9.483   4.121   1.710  0.1591 -0.2512 -1.8033
  856MOL0     H15541   9.224   4.139   1.667 -1.6457 -0.0051 -1.0529
  856MOL0     H15542   8.769   3.680   1.553  1.2250  0.5873  1.0780
  856MOL0     H15543   8.533   3.732   1.546  0.6096 -1.5537  2.6819
  856MOL0     H15544   9.993   3.749   1.275  0.5891  0.5549 -4.0747
  856MOL0     H15545  10.242   3.794   1.275  0.3497  0.8920 -0.0957
  856MOL0     H15546  10.548   4.346   1.251 -2.0190 -0.6336 -1.1693
  856MOL0     H15547  10.802   4.382   1.267  0.0434 -0.2314  1.2544
  856MOL0     H15548  11.159   4.164   1.339  0.1993  0.5541  0.4565
  856MOL0     H15549  11.022   4.049   1.322  0.4264 -1.6119  1.2584
  856MOL0     H15550  11.166   3.996   1.517 -1.0308 -1.3196 -1.6643
  856MOL0     H15551  11.012   4.046   1.576  0.4422 -0.4243  0.2950
  856MOL0     H15552  11.145   4.171   1.696  1.7939 -0.8563 -0.0682
  856MOL0     H15553  11.071   4.287   1.603  0.0080  0.1388  2.0344
  856MOL0     H15554  11.281   4.317   1.455  2.1629 -0.8222 -0.8022
  856MOL0     H15555  11.328   4.337   1.631  1.0347  0.0829 -0.6323
  856MOL0     H15556  11.531   3.991   1.554  1.4840  1.4241  1.0812
  856MOL0     H15557  10.829   3.998   1.451  1.7450 -0.7504 -0.8843
  856MOL0     H15558  10.546   3.870   1.327 -1.4659  0.8513 -1.3918
  856MOL0     H15559  10.659   3.848   1.459  0.9351  0.6228 -0.7767
  856MOL0     H15560  10.498   3.926   1.481  0.2961 -0.1805 -0.3471
  857MOL0     O15561   0.753   2.852   9.016 -0.4136  0.1895  0.2566
  857MOL0     C15562   0.775   2.739   9.055  0.2013 -0.4643  0.1903
  857MOL0     O15563   0.901   2.686   9.079  0.4902 -0.3874 -0.1016
  857MOL0     C15564   1.014   2.760   9.065  0.0019  0.0028  0.2337
  857MOL0     C15565   1.113   2.743   9.161  0.4557 -0.0936 -0.1933
  857MOL0     C15566   1.241   2.807   9.158 -0.3573  0.9255  0.2153
  857MOL0     C15567   1.263   2.903   9.059 -0.4950 -0.7258 -0.0422
  857MOL0     O15568   1.380   2.978   9.057 -0.2552 -0.1996 -0.0528
  857MOL0     C15569   1.400   3.085   8.957  0.1008 -0.0594  0.4411
  857MOL0     C15570   1.529   3.155   9.000  0.1896  0.4479 -1.0313
  857MOL0     C15571   1.541   3.275   8.909  0.4448  0.9075  0.4124
  857MOL0     C15572   1.687   3.330   8.886  0.3275  0.2292  1.0686
  857MOL0     C15573   1.697   3.439   8.788  0.4726 -0.0098  0.6391
  857MOL0     C15574   1.843   3.478   8.786  0.1812  0.5066 -0.3504
  857MOL0     C15575   1.864   3.616   8.859 -0.2115  0.5070  0.0559
  857MOL0     C15576   1.989   3.685   8.806  0.3316 -0.1687 -0.0201
  857MOL0     N15577   2.114   3.609   8.825 -0.1054  0.8139  0.6507
  857MOL0     C15578   2.208   3.594   8.721 -0.7565  0.2093 -0.1497
  857MOL0     C15579   2.316   3.540   8.781 -0.0354 -0.1346  0.0904
  857MOL0     C15580   2.452   3.514   8.725  0.8295  0.3483 -0.0742
  857MOL0     C15581   2.555   3.617   8.747 -0.4576 -0.4816 -1.0006
  857MOL0     C15582   2.610   3.638   8.894 -0.5304 -0.0248  0.1590
  857MOL0     C15583   2.711   3.527   8.948  0.1144 -1.0987 -0.2721
  857MOL0     O15584   2.798   3.479   8.856  0.4509  0.2797  0.5750
  857MOL0     C15585   2.902   3.566   8.828  0.7191  0.1849 -0.0233
  857MOL0     C15586   2.966   3.648   8.915  0.0551 -0.0270 -0.9043
  857MOL0     C15587   3.067   3.741   8.866 -0.0084  0.3709  0.8338
  857MOL0     C15588   3.120   3.726   8.736  0.0636 -1.1450 -0.4237
  857MOL0     C15589   3.244   3.792   8.695 -0.2687 -1.2029  0.3182
  857MOL0     O15590   3.256   3.819   8.559  0.4204 -0.1643 -0.6355
  857MOL0     C15591   3.385   3.853   8.518 -0.2102  0.4244  0.3624
  857MOL0     C15592   3.420   3.984   8.482  0.5688 -0.7454  0.6431
  857MOL0     C15593   3.550   4.025   8.429  0.0977 -0.8201  0.2500
  857MOL0     C15594   3.656   3.937   8.446 -0.6405 -0.3275 -0.2602
  857MOL0     O15595   3.785   3.951   8.404  0.4663  0.0846 -0.1061
  857MOL0     C15596   3.839   4.064   8.323 -0.2549  0.2662 -0.3048
  857MOL0     C15597   3.994   4.065   8.319  0.2356  0.7911 -0.1143
  857MOL0     C15598   4.065   4.142   8.428  0.5889  0.0794 -0.7407
  857MOL0     C15599   4.197   4.066   8.447  0.1522 -0.4870 -0.4959
  857MOL0     C15600   4.293   4.147   8.535  0.1042  0.9832  0.1759
  857MOL0     C15601   4.421   4.074   8.576 -0.1731 -0.3414 -0.3141
  857MOL0     C15602   4.520   4.166   8.632 -0.1279 -0.4802 -0.1314
  857MOL0     C15603   4.628   4.194   8.528  0.3702 -0.0108 -0.3308
  857MOL0    Cl15604   4.755   4.294   8.599  0.1103  0.0764  0.3723
  857MOL0     C15605   3.626   3.810   8.496 -0.4003 -0.3188  0.1615
  857MOL0     C15606   3.495   3.762   8.519 -0.3417 -0.2185  1.1939
  857MOL0     O15607   3.323   3.839   8.777 -0.1615 -0.5903  0.2781
  857MOL0     C15608   3.050   3.640   8.648  0.4536  0.3932  0.2326
  857MOL0     C15609   2.940   3.564   8.694  0.3219  0.7956  0.3773
  857MOL0     N15610   2.281   3.520   8.918  0.4330  0.6258  1.1097
  857MOL0     N15611   2.157   3.565   8.938  0.5135  0.6194  0.1877
  857MOL0     C15612   1.167   2.914   8.957  0.4448  0.7117  0.1279
  857MOL0     C15613   1.047   2.844   8.955 -0.4525 -0.9812  0.0406
  857MOL0     C15614   0.652   2.650   9.063 -0.0484  0.6470  0.2000
  857MOL0     C15615   0.525   2.698   9.011 -0.3411 -0.7182 -0.8062
  857MOL0     C15616   0.413   2.621   9.032 -0.2604  0.1841  0.5867
  857MOL0     C15617   0.416   2.500   9.095  0.1394 -0.2610  0.8015
  857MOL0     O15618   0.308   2.417   9.098 -0.3749 -0.0435  0.4786
  857MOL0     C15619   0.279   2.362   8.969  0.3626 -0.3740  0.6697
  857MOL0     C15620   0.127   2.368   8.947 -0.0865 -0.0091 -0.0489
  857MOL0     C15621   0.085   2.510   8.928  0.5583 -0.3092 -0.4490
  857MOL0     C15622  -0.069   2.513   8.920 -0.8445 -0.7143  0.9288
  857MOL0     C15623  -0.108   2.453   8.789  0.8879  0.1601  0.2025
  857MOL0     C15624  -0.145   2.399   8.679 -1.0767 -0.8967 -0.5662
  857MOL0     C15625   0.540   2.448   9.144  0.5020  0.4951 -0.7215
  857MOL0     C15626   0.655   2.529   9.133  0.2488  0.6709 -0.9836
  857MOL0     C15627   0.776   2.480   9.210  0.7792 -0.5491 -0.6709
  857MOL0     H15628   1.083   2.688   9.250 -0.9809 -0.5596 -0.9331
  857MOL0     H15629   1.315   2.782   9.233  0.6197 -1.2914 -1.3621
  857MOL0     H15630   1.416   3.033   8.863 -2.6281  0.7292 -0.5411
  857MOL0     H15631   1.311   3.147   8.939  1.6439  1.4341 -3.0550
  857MOL0     H15632   1.615   3.088   8.992  0.2640 -0.0507  2.3610
  857MOL0     H15633   1.524   3.181   9.107  1.6764 -1.4911 -0.4217
  857MOL0     H15634   1.501   3.361   8.962 -0.1439  0.9522 -0.0877
  857MOL0     H15635   1.496   3.257   8.811 -2.7017 -1.5564  2.1410
  857MOL0     H15636   1.730   3.360   8.982  1.6733 -0.1350  0.5927
  857MOL0     H15637   1.744   3.251   8.837 -0.4074  1.8062 -2.6287
  857MOL0     H15638   1.667   3.398   8.691 -1.9360  0.2288  1.2300
  857MOL0     H15639   1.637   3.529   8.805  1.0381  0.4865  0.0848
  857MOL0     H15640   1.904   3.405   8.840 -0.8178 -0.3459 -0.3518
  857MOL0     H15641   1.870   3.491   8.681  1.6979 -1.0504 -0.1901
  857MOL0     H15642   1.867   3.599   8.967 -2.4867  0.9409  0.2493
  857MOL0     H15643   1.785   3.690   8.839  0.9527  1.9493  0.6230
  857MOL0     H15644   1.965   3.720   8.705 -1.8268  0.5317  0.6765
  857MOL0     H15645   1.989   3.781   8.859 -0.5838  1.3397 -2.5361
  857MOL0     H15646   2.209   3.630   8.618  0.3234  1.1500  0.1663
  857MOL0     H15647   2.488   3.415   8.753 -0.3288 -0.2131 -0.5047
  857MOL0     H15648   2.425   3.513   8.619 -0.0701 -1.5588  0.1390
  857MOL0     H15649   2.644   3.591   8.690  1.2021 -0.3351  1.3830
  857MOL0     H15650   2.524   3.713   8.707 -2.6236 -0.0244  1.4682
  857MOL0     H15651   2.521   3.649   8.956 -0.7393 -1.7510  0.2134
  857MOL0     H15652   2.658   3.737   8.889 -2.6505  1.0126 -1.1095
  857MOL0     H15653   2.643   3.445   8.972 -2.6877  1.9407  3.1831
  857MOL0     H15654   2.758   3.559   9.041 -1.4617  2.4353 -0.5238
  857MOL0     H15655   2.946   3.663   9.020  1.9547 -1.3008 -0.2988
  857MOL0     H15656   3.111   3.804   8.943 -2.4436 -0.1551  2.7618
  857MOL0     H15657   3.342   4.058   8.498  0.9508 -0.0832 -0.4540
  857MOL0     H15658   3.565   4.124   8.389 -0.9687  0.9713  3.8388
  857MOL0     H15659   3.808   4.048   8.219  0.9361  2.3175 -1.0403
  857MOL0     H15660   3.792   4.161   8.341  0.1465  1.2411 -3.7472
  857MOL0     H15661   4.022   3.960   8.307  0.3408  0.9949 -1.9057
  857MOL0     H15662   4.018   4.114   8.224  1.3560  1.3679  0.4417
  857MOL0     H15663   4.086   4.243   8.393 -0.4558  2.0044  3.4870
  857MOL0     H15664   4.014   4.133   8.525  2.7446 -1.3084  0.3463
  857MOL0     H15665   4.252   4.042   8.356  1.2594 -0.4297  0.1288
  857MOL0     H15666   4.171   3.976   8.504  0.4024  0.2257  0.7917
  857MOL0     H15667   4.228   4.165   8.620  0.6669  0.4383  0.7310
  857MOL0     H15668   4.302   4.246   8.490  1.0246  1.1494  0.7168
  857MOL0     H15669   4.403   4.003   8.658  0.7661 -0.2069  0.0205
  857MOL0     H15670   4.466   4.012   8.498  0.4967 -1.3725  0.8537
  857MOL0     H15671   4.571   4.117   8.716 -1.9173 -1.4543  0.4220
  857MOL0     H15672   4.471   4.254   8.673  3.1250  1.1062  0.6932
  857MOL0     H15673   4.671   4.100   8.492  1.1984 -0.2041  1.0883
  857MOL0     H15674   4.583   4.247   8.444 -2.1874  1.3158  1.7018
  857MOL0     H15675   3.714   3.748   8.513  2.5874  3.0041 -1.6565
  857MOL0     H15676   3.491   3.661   8.558 -0.8141  0.0023  1.7232
  857MOL0     H15677   3.080   3.622   8.546  3.2633 -3.6563  1.5004
  857MOL0     H15678   2.893   3.503   8.616  0.8788  1.8395 -0.8066
  857MOL0     H15679   1.173   2.994   8.884 -3.3764  2.3418  1.3173
  857MOL0     H15680   0.976   2.862   8.875  1.4642 -0.4087 -1.6072
  857MOL0     H15681   0.514   2.791   8.957 -1.2208 -1.0238 -1.1692
  857MOL0     H15682   0.317   2.661   9.002  0.5706  1.6313 -0.2948
  857MOL0     H15683   0.311   2.258   8.976 -0.9872 -0.7346  1.8647
  857MOL0     H15684   0.346   2.408   8.895 -0.6978 -1.5514 -1.1129
  857MOL0     H15685   0.072   2.326   9.032 -0.6460 -0.5165 -0.6499
  857MOL0     H15686   0.101   2.310   8.858  1.7806  0.6009 -1.0389
  857MOL0     H15687   0.133   2.555   8.841  1.0699  1.1696  0.5583
  857MOL0     H15688   0.112   2.561   9.021 -1.0592 -1.8955  0.9867
  857MOL0     H15689  -0.125   2.470   9.004  1.5287  0.2064  3.1158
  857MOL0     H15690  -0.098   2.619   8.924  0.6713 -0.3016  1.7077
  857MOL0     H15691  -0.183   2.352   8.590  1.0019  0.9393 -2.5482
  857MOL0     H15692   0.541   2.350   9.190  0.3314  1.3072  1.0814
  857MOL0     H15693   0.740   2.407   9.283 -0.2458 -0.0909 -0.6973
  857MOL0     H15694   0.861   2.442   9.153  1.6168 -2.2055  1.5153
  857MOL0     H15695   0.822   2.561   9.268  1.0227  1.5944 -3.5995
  858MOL0     O15696   3.514   5.821   3.535  0.2658 -0.1541  0.3776
  858MOL0     C15697   3.511   5.926   3.472  0.4239 -1.4308 -1.4036
  858MOL0     O15698   3.610   5.970   3.392 -0.7521 -0.2922 -0.9677
  858MOL0     C15699   3.735   5.909   3.402 -0.5195 -0.0507 -0.1286
  858MOL0     C15700   3.812   5.891   3.512 -0.6273 -0.1546 -0.0801
  858MOL0     C15701   3.937   5.817   3.512 -0.5868 -0.5225  0.3523
  858MOL0     C15702   3.980   5.774   3.382  0.0591  0.4265 -0.5057
  858MOL0     O15703   4.104   5.705   3.381  0.1858  0.4169  0.5930
  858MOL0     C15704   4.160   5.688   3.249  0.2011  0.3847 -0.3577
  858MOL0     C15705   4.301   5.624   3.243  1.2716  0.0054  0.7430
  858MOL0     C15706   4.396   5.686   3.349 -0.7797  0.0223 -0.7620
  858MOL0     C15707   4.544   5.625   3.313 -0.5984 -0.4891 -0.4308
  858MOL0     C15708   4.659   5.651   3.418  0.5681  0.4110 -0.4561
  858MOL0     C15709   4.797   5.599   3.378 -0.1914 -0.2474 -0.6245
  858MOL0     C15710   4.917   5.664   3.445  0.3192  0.6530 -0.1451
  858MOL0     C15711   4.971   5.775   3.362 -0.1020 -0.1421  0.5308
  858MOL0     N15712   5.072   5.724   3.275 -0.4731 -0.1203 -0.0159
  858MOL0     C15713   5.213   5.716   3.295 -0.0889 -0.5774  0.3181
  858MOL0     C15714   5.265   5.654   3.187  0.4914 -0.6710 -0.4965
  858MOL0     C15715   5.407   5.623   3.174 -0.4841  0.7708  0.1292
  858MOL0     C15716   5.446   5.591   3.028  0.4618  0.2130  0.2174
  858MOL0     C15717   5.450   5.735   2.960  0.4381  0.1824  0.3380
  858MOL0     C15718   5.414   5.728   2.812 -0.6330  0.2175 -0.5243
  858MOL0     O15719   5.491   5.629   2.734 -0.4044  0.0871 -0.6205
  858MOL0     C15720   5.622   5.668   2.738  0.4313  0.2168 -0.0596
  858MOL0     C15721   5.670   5.775   2.665  0.3707 -0.0332  0.7944
  858MOL0     C15722   5.805   5.810   2.663  0.7305 -0.3277  0.5802
  858MOL0     C15723   5.906   5.728   2.727  0.6690 -0.6250  0.1828
  858MOL0     C15724   6.046   5.763   2.720  0.1937  0.0589 -0.2429
  858MOL0     O15725   6.070   5.899   2.694 -0.4199  0.6212 -0.2179
  858MOL0     C15726   6.203   5.922   2.670 -1.0184  0.1163 -0.3108
  858MOL0     C15727   6.265   6.021   2.749 -0.3202  0.0032  0.4730
  858MOL0     C15728   6.395   6.055   2.728  0.1688  0.0037  0.3550
  858MOL0     C15729   6.476   5.998   2.627  0.3088  0.5028  0.1664
  858MOL0     O15730   6.602   6.038   2.593  0.4034  0.7958 -0.1803
  858MOL0     C15731   6.693   6.073   2.695  0.2004  0.5042  0.1758
  858MOL0     C15732   6.837   6.029   2.650  0.1094 -1.0781 -0.5433
  858MOL0     C15733   6.952   6.047   2.757 -0.6747  0.3733 -0.0009
  858MOL0     C15734   7.097   6.033   2.702 -0.5131 -0.0825  0.6076
  858MOL0     C15735   7.215   6.035   2.799  0.1572  0.0080 -1.2949
  858MOL0     C15736   7.213   5.934   2.907  0.6672 -0.0254 -0.6769
  858MOL0     C15737   7.332   5.941   3.007  1.1530 -1.0364 -0.4783
  858MOL0     C15738   7.469   5.967   2.944  0.1885  0.7319  1.0572
  858MOL0    Cl15739   7.482   6.133   2.890  0.2083  0.2866  0.4287
  858MOL0     C15740   6.417   5.900   2.551  0.3099  0.2292  0.0053
  858MOL0     C15741   6.276   5.868   2.563  0.3667  0.0216  0.9639
  858MOL0     O15742   6.136   5.683   2.746 -0.4734 -0.0248 -0.1429
  858MOL0     C15743   5.851   5.613   2.780 -0.0668  0.2840 -0.2914
  858MOL0     C15744   5.719   5.584   2.791 -0.1500  0.5426 -0.4530
  858MOL0     N15745   5.159   5.631   3.109  0.6090  0.1796 -0.0391
  858MOL0     N15746   5.045   5.650   3.160 -0.6962 -0.0991 -0.2866
  858MOL0     C15747   3.897   5.794   3.268 -0.2144 -0.2337  0.3708
  858MOL0     C15748   3.778   5.859   3.284 -0.8154 -0.4901 -0.2429
  858MOL0     C15749   3.390   6.011   3.477 -0.3523  1.0913 -0.3420
  858MOL0     C15750   3.323   6.047   3.361  0.1768 -0.7811  0.2113
  858MOL0     C15751   3.210   6.131   3.369 -0.6495  0.5007  0.0545
  858MOL0     C15752   3.158   6.179   3.491  0.7690  0.4494 -0.9352
  858MOL0     O15753   3.054   6.270   3.486 -0.2943  0.0256 -0.2501
  858MOL0     C15754   2.990   6.304   3.611 -0.8275 -0.6352  0.5928
  858MOL0     C15755   2.897   6.200   3.665 -0.2840  0.9258  0.3664
  858MOL0     C15756   2.815   6.128   3.562 -0.2693  0.3572 -0.4852
  858MOL0     C15757   2.761   5.995   3.623 -0.0977 -0.4369  0.1475
  858MOL0     C15758   2.683   5.925   3.515 -0.5381 -0.3345  0.4493
  858MOL0     C15759   2.642   5.873   3.421  0.0540  0.4983 -0.3512
  858MOL0     C15760   3.226   6.124   3.604  0.6734 -0.6283  0.4584
  858MOL0     C15761   3.337   6.041   3.601 -0.3135 -0.4494  0.1881
  858MOL0     C15762   3.390   5.990   3.735  0.8535  0.9925 -0.6005
  858MOL0     H15763   3.784   5.929   3.610 -0.5632  0.8024 -0.4203
  858MOL0     H15764   3.998   5.811   3.601 -0.4438  2.1536  0.5153
  858MOL0     H15765   4.097   5.614   3.198  1.1571 -1.5524  1.1413
  858MOL0     H15766   4.160   5.781   3.192 -1.1195  0.5102 -0.1922
  858MOL0     H15767   4.336   5.653   3.143 -2.5924 -1.1983 -1.1706
  858MOL0     H15768   4.285   5.516   3.243 -3.7160  0.5198  1.1414
  858MOL0     H15769   4.363   5.661   3.450 -0.9022 -0.6958 -0.9790
  858MOL0     H15770   4.390   5.796   3.349  0.0349  0.1033  0.5853
  858MOL0     H15771   4.548   5.517   3.298 -0.6656 -0.5098 -0.3013
  858MOL0     H15772   4.583   5.670   3.221  2.7923 -1.4901  0.3509
  858MOL0     H15773   4.663   5.759   3.437  1.2591  0.1972  0.6903
  858MOL0     H15774   4.628   5.614   3.516 -0.0090  4.9945  1.3341
  858MOL0     H15775   4.808   5.492   3.396  0.7020 -0.0019  0.4414
  858MOL0     H15776   4.805   5.613   3.270  0.2132 -1.8040 -0.8129
  858MOL0     H15777   4.996   5.589   3.457  1.3816  1.9220  0.9877
  858MOL0     H15778   4.885   5.695   3.545  2.0597  0.5016  0.4778
  858MOL0     H15779   4.893   5.839   3.319  0.1357  0.2133  0.6226
  858MOL0     H15780   5.027   5.831   3.437  0.1600  0.7234 -0.2958
  858MOL0     H15781   5.277   5.748   3.376  0.1124  1.1202 -0.4701
  858MOL0     H15782   5.476   5.700   3.207  1.7175 -0.3279 -1.6438
  858MOL0     H15783   5.433   5.540   3.239 -0.1675  2.5894  2.4455
  858MOL0     H15784   5.550   5.557   3.034  0.2921 -0.1174  1.6735
  858MOL0     H15785   5.374   5.524   2.981 -0.2245  0.5516  0.7699
  858MOL0     H15786   5.550   5.776   2.981 -0.7139  2.3033  2.0506
  858MOL0     H15787   5.379   5.800   3.013 -1.8064 -2.6574  1.0169
  858MOL0     H15788   5.419   5.825   2.761 -0.5070  1.9635  2.5481
  858MOL0     H15789   5.307   5.704   2.814 -0.5890  0.0429  0.2281
  858MOL0     H15790   5.595   5.826   2.607  0.8782 -1.6382 -1.3875
  858MOL0     H15791   5.827   5.906   2.618 -0.9321  0.3131  1.0458
  858MOL0     H15792   6.214   6.081   2.824  1.0691  0.6537  0.9340
  858MOL0     H15793   6.440   6.126   2.798  3.6745 -1.7086  0.0908
  858MOL0     H15794   6.690   6.181   2.712  0.9580  0.3387  1.4529
  858MOL0     H15795   6.663   6.034   2.792  2.2733  3.6602  2.2878
  858MOL0     H15796   6.820   5.929   2.610 -2.4041 -0.8408 -0.2311
  858MOL0     H15797   6.869   6.087   2.563 -2.4488  2.0115  0.3459
  858MOL0     H15798   6.948   6.147   2.801 -1.7214  0.6502 -0.6864
  858MOL0     H15799   6.946   5.983   2.846 -2.9258  2.2883  1.3394
  858MOL0     H15800   7.107   6.113   2.628  1.7941 -0.4550  0.4586
  858MOL0     H15801   7.118   5.940   2.648  2.6571  0.7622  0.2023
  858MOL0     H15802   7.208   6.129   2.855 -2.9672  0.5034 -2.3006
  858MOL0     H15803   7.312   6.023   2.748  2.3602 -0.0544  2.5412
  858MOL0     H15804   7.119   5.934   2.964  0.5373  0.0236 -0.8917
  858MOL0     H15805   7.215   5.832   2.867 -1.5314  0.2586 -1.6362
  858MOL0     H15806   7.334   5.842   3.053  0.9597 -1.1249 -0.6602
  858MOL0     H15807   7.324   6.012   3.089  0.8391 -2.0932  0.4260
  858MOL0     H15808   7.542   5.938   3.021 -1.1954 -0.3523  2.0272
  858MOL0     H15809   7.476   5.893   2.864  0.0251  1.4816  0.3388
  858MOL0     H15810   6.461   5.863   2.459 -1.7950  0.5301 -1.1835
  858MOL0     H15811   6.241   5.780   2.510  0.2006  0.8746 -0.3967
  858MOL0     H15812   5.916   5.530   2.808 -1.3878 -0.2343  1.4188
  858MOL0     H15813   5.689   5.494   2.844  0.1620 -1.3899 -3.3452
  858MOL0     H15814   3.931   5.761   3.170  2.1974  0.0687  1.0368
  858MOL0     H15815   3.718   5.874   3.195  0.7097 -0.3443 -1.2923
  858MOL0     H15816   3.375   6.029   3.268  0.4558  1.2167 -0.0641
  858MOL0     H15817   3.145   6.141   3.283  0.4174 -2.1044 -1.1713
  858MOL0     H15818   2.924   6.385   3.577 -2.3207 -2.6570 -1.6492
  858MOL0     H15819   3.057   6.355   3.681 -0.1507 -0.2002 -0.3455
  858MOL0     H15820   2.842   6.247   3.747  1.6109 -0.7441  2.7337
  858MOL0     H15821   2.958   6.130   3.723 -0.1388 -0.2445 -1.1290
  858MOL0     H15822   2.890   6.111   3.484  1.6116  1.2084  1.0652
  858MOL0     H15823   2.740   6.196   3.519 -1.9589  0.4707  2.3712
  858MOL0     H15824   2.835   5.927   3.667  2.1369  2.0313  0.4205
  858MOL0     H15825   2.692   6.029   3.701 -0.1457  1.7925 -0.8007
  858MOL0     H15826   2.611   5.807   3.342  1.1765 -1.2180  0.5747
  858MOL0     H15827   3.184   6.164   3.695  2.4035  0.8071  0.6765
  858MOL0     H15828   3.499   5.996   3.742  0.9470 -1.3122  1.7961
  858MOL0     H15829   3.341   6.042   3.818 -0.1476  0.3872 -0.7931
  858MOL0     H15830   3.369   5.883   3.747 -0.9155  1.3343 -0.3623
  859MOL0     O15831   4.492   5.420   0.096  0.3122 -0.1507  0.0216
  859MOL0     C15832   4.463   5.355   0.192  0.0793 -0.0353  0.3371
  859MOL0     O15833   4.540   5.340   0.305  0.2766 -0.2864 -0.5022
  859MOL0     C15834   4.660   5.414   0.323  0.0307  0.3547  0.3309
  859MOL0     C15835   4.755   5.430   0.231  0.9673 -0.4464 -0.2876
  859MOL0     C15836   4.876   5.491   0.250 -0.0780 -0.1213 -0.2776
  859MOL0     C15837   4.909   5.540   0.385  0.1635  0.3116  0.6516
  859MOL0     O15838   5.023   5.590   0.420 -1.3060 -1.0161  0.4562
  859MOL0     C15839   5.079   5.687   0.328 -0.1014 -0.6260  0.2448
  859MOL0     C15840   5.096   5.825   0.395  0.7798 -0.4979 -0.1321
  859MOL0     C15841   4.971   5.880   0.472 -0.3981 -0.0120 -0.2986
  859MOL0     C15842   4.843   5.879   0.389 -0.0936 -0.7797 -0.3187
  859MOL0     C15843   4.735   5.967   0.445 -0.2769  0.4223 -0.3321
  859MOL0     C15844   4.701   5.929   0.594 -1.0373 -0.1714 -0.8040
  859MOL0     C15845   4.619   6.046   0.662 -0.9127  0.1650 -0.3383
  859MOL0     C15846   4.630   6.036   0.822  0.6881 -0.1892 -0.3799
  859MOL0     N15847   4.761   6.088   0.869 -0.2288  0.9525  0.2403
  859MOL0     C15848   4.803   6.219   0.849  1.5195  1.0104  0.3115
  859MOL0     C15849   4.926   6.219   0.912  0.3597 -0.5311  0.0019
  859MOL0     C15850   5.015   6.337   0.929 -0.3652  0.0395  1.1098
  859MOL0     C15851   5.157   6.295   0.877  0.4328 -0.2527 -0.9941
  859MOL0     C15852   5.161   6.228   0.745  0.5659 -0.6838 -0.2097
  859MOL0     C15853   5.297   6.191   0.687 -0.5116 -1.3236 -0.7021
  859MOL0     O15854   5.368   6.112   0.783  0.0504  0.1747 -0.3347
  859MOL0     C15855   5.500   6.108   0.766 -0.3893 -0.1408 -0.0910
  859MOL0     C15856   5.567   6.080   0.880 -0.6657  0.2271  0.6758
  859MOL0     C15857   5.703   6.049   0.876  0.8328 -0.3496 -0.0837
  859MOL0     C15858   5.769   6.038   0.758 -0.7148 -0.6382  1.0054
  859MOL0     C15859   5.908   5.998   0.752  0.2160 -0.2156  0.2738
  859MOL0     O15860   5.977   6.025   0.639  0.7553  0.2023 -0.1371
  859MOL0     C15861   6.104   5.967   0.628 -0.1207 -0.3728 -0.3183
  859MOL0     C15862   6.124   5.832   0.609  0.1766  0.3478 -0.3094
  859MOL0     C15863   6.249   5.782   0.592 -0.1831 -0.5611  0.0350
  859MOL0     C15864   6.367   5.860   0.613 -0.1898  1.1476  0.2364
  859MOL0     O15865   6.478   5.788   0.612 -0.6133  0.1199 -0.5552
  859MOL0     C15866   6.577   5.853   0.531  0.3960  0.0326  0.4619
  859MOL0     C15867   6.677   5.749   0.501  0.5907 -0.2473 -0.6019
  859MOL0     C15868   6.780   5.815   0.412  0.1760 -0.2005 -0.1733
  859MOL0     C15869   6.902   5.728   0.395 -0.1693  0.8213  0.6008
  859MOL0     C15870   6.990   5.732   0.524 -0.7686 -0.2986  0.3153
  859MOL0     C15871   7.138   5.714   0.498  0.2275  0.2666 -0.6279
  859MOL0     C15872   7.230   5.761   0.613  0.1064 -0.8030 -0.9479
  859MOL0     C15873   7.376   5.727   0.594  0.2012  0.6001 -0.6603
  859MOL0    Cl15874   7.393   5.546   0.593  0.2947 -0.0233  0.2616
  859MOL0     C15875   6.347   5.998   0.627 -0.7152  0.1684 -0.0184
  859MOL0     C15876   6.219   6.052   0.632 -0.4819  1.1357 -0.1719
  859MOL0     O15877   5.954   5.938   0.849  0.1622 -0.5593 -0.4288
  859MOL0     C15878   5.698   6.064   0.639  0.5159 -0.0791  0.1662
  859MOL0     C15879   5.561   6.101   0.643 -0.0487 -0.2261  0.1879
  859MOL0     N15880   4.946   6.099   0.970 -0.2366  0.1767  0.8117
  859MOL0     N15881   4.852   6.019   0.940  0.1390 -0.0916 -0.1697
  859MOL0     C15882   4.810   5.519   0.482  0.5319  0.2970 -0.3892
  859MOL0     C15883   4.692   5.453   0.447 -0.3954 -0.2007 -0.7185
  859MOL0     C15884   4.336   5.269   0.189 -0.6476 -0.6143 -0.3275
  859MOL0     C15885   4.338   5.144   0.251 -0.8297  0.2995 -0.5606
  859MOL0     C15886   4.225   5.067   0.254  0.2605 -0.4367 -0.1904
  859MOL0     C15887   4.107   5.120   0.199  0.1680  0.4292  1.1070
  859MOL0     O15888   4.000   5.033   0.207 -0.0550  0.1573  0.7849
  859MOL0     C15889   3.884   5.075   0.137  0.4654  0.1155 -0.3227
  859MOL0     C15890   3.773   4.964   0.132  0.2292  0.9101 -0.9216
  859MOL0     C15891   3.705   4.930   0.263 -1.1493  0.4009 -0.2090
  859MOL0     C15892   3.589   4.834   0.255 -0.3231 -0.6612 -0.1790
  859MOL0     C15893   3.620   4.709   0.179  0.2056 -0.3096 -0.5006
  859MOL0     C15894   3.655   4.613   0.114 -0.7596  0.3730  0.8814
  859MOL0     C15895   4.102   5.239   0.137 -0.2454  0.1231 -0.2260
  859MOL0     C15896   4.219   5.315   0.138 -0.0027  0.5287  0.7367
  859MOL0     C15897   4.210   5.459   0.105  0.6680 -0.4338 -0.5851
  859MOL0     H15898   4.742   5.389   0.131  2.0851 -1.0542 -0.1931
  859MOL0     H15899   4.940   5.507   0.163  3.6287 -1.3737  1.9794
  859MOL0     H15900   5.174   5.641   0.297 -0.0263 -1.1716  1.2638
  859MOL0     H15901   5.026   5.708   0.234 -0.7653 -0.2683  0.6981
  859MOL0     H15902   5.113   5.902   0.319  1.7376  2.7160  3.0629
  859MOL0     H15903   5.173   5.826   0.472  1.0817  1.5904 -0.3925
  859MOL0     H15904   5.004   5.977   0.511  2.0327 -1.0494  0.4479
  859MOL0     H15905   4.947   5.811   0.553 -0.5135 -0.5005 -0.7486
  859MOL0     H15906   4.875   5.902   0.287 -0.8465  0.9845 -0.1849
  859MOL0     H15907   4.801   5.778   0.384  0.8071 -1.1626 -0.3906
  859MOL0     H15908   4.770   6.070   0.437 -1.6261  0.8603 -0.8776
  859MOL0     H15909   4.647   5.971   0.380 -0.6155  4.6544  0.1018
  859MOL0     H15910   4.644   5.836   0.593  0.1728 -0.9357 -1.5450
  859MOL0     H15911   4.795   5.918   0.650 -1.1219  1.5363 -0.2787
  859MOL0     H15912   4.523   6.034   0.611 -1.0547  0.9775 -0.2782
  859MOL0     H15913   4.662   6.138   0.623  2.3111 -0.4926  1.3132
  859MOL0     H15914   4.540   6.083   0.863 -1.3265 -0.8371 -3.6537
  859MOL0     H15915   4.619   5.932   0.853 -0.2962 -0.0034 -0.0635
  859MOL0     H15916   4.747   6.299   0.802 -0.4423 -0.3403  0.2233
  859MOL0     H15917   4.983   6.433   0.887  2.6928  0.3015 -0.8850
  859MOL0     H15918   5.018   6.354   1.037  3.5915  2.2900  0.8122
  859MOL0     H15919   5.237   6.370   0.878  2.2752 -2.1026 -1.4861
  859MOL0     H15920   5.188   6.222   0.952  0.9306  1.4070  0.4867
  859MOL0     H15921   5.126   6.293   0.664  0.1138 -2.2020 -1.2781
  859MOL0     H15922   5.098   6.139   0.738  0.0711 -0.3818  0.3184
  859MOL0     H15923   5.344   6.287   0.665  0.5057 -1.3490  1.2020
  859MOL0     H15924   5.286   6.122   0.603 -0.2767 -2.8473  0.4701
  859MOL0     H15925   5.514   6.068   0.974 -0.1016  0.8587  1.0842
  859MOL0     H15926   5.754   6.060   0.972  0.7913  0.9926 -0.1912
  859MOL0     H15927   6.046   5.759   0.591  0.3015  0.2373 -0.4087
  859MOL0     H15928   6.265   5.676   0.570  2.0701  0.0170 -1.5020
  859MOL0     H15929   6.527   5.891   0.442 -0.6786 -1.7596  0.2458
  859MOL0     H15930   6.622   5.929   0.596  1.1337 -0.3082  0.3555
  859MOL0     H15931   6.720   5.732   0.600 -2.3034  2.2088  1.2445
  859MOL0     H15932   6.635   5.657   0.458 -1.4268  0.9539 -1.3575
  859MOL0     H15933   6.740   5.826   0.311  1.6475 -0.7172 -0.8446
  859MOL0     H15934   6.805   5.916   0.445  0.9392  0.0076 -1.3172
  859MOL0     H15935   6.957   5.746   0.302  1.0237 -0.5102  1.0128
  859MOL0     H15936   6.870   5.626   0.374  2.6630  0.4219 -2.4310
  859MOL0     H15937   6.951   5.665   0.602  2.5255 -1.1666  1.3537
  859MOL0     H15938   6.970   5.835   0.554 -0.2528 -0.4911  1.3676
  859MOL0     H15939   7.149   5.607   0.476 -3.0651 -0.1728 -0.6990
  859MOL0     H15940   7.170   5.768   0.409 -0.1666 -2.3831 -2.5035
  859MOL0     H15941   7.190   5.726   0.708 -0.4687  0.4383 -0.7061
  859MOL0     H15942   7.210   5.868   0.621 -2.2439 -1.0900 -2.2327
  859MOL0     H15943   7.418   5.768   0.502  0.4181 -2.0339 -1.8373
  859MOL0     H15944   7.428   5.764   0.683 -2.7478  1.9753  0.6507
  859MOL0     H15945   6.428   6.070   0.626 -1.2603  0.7901  0.2136
  859MOL0     H15946   6.207   6.160   0.638 -0.5519  1.1262 -0.1373
  859MOL0     H15947   5.741   6.047   0.541 -1.3821  1.6217 -1.0535
  859MOL0     H15948   5.498   6.110   0.555 -1.5070 -2.0187  1.0079
  859MOL0     H15949   4.819   5.559   0.582 -1.4478  1.1131 -0.4864
  859MOL0     H15950   4.619   5.457   0.527  1.2596  0.3562  0.8272
  859MOL0     H15951   4.422   5.113   0.311 -2.5473  0.4384  2.0663
  859MOL0     H15952   4.215   4.975   0.310 -1.2801 -0.4626 -0.4742
  859MOL0     H15953   3.901   5.111   0.035  0.1565  0.6592 -0.1876
  859MOL0     H15954   3.836   5.150   0.201  3.2043  0.2287  1.8290
  859MOL0     H15955   3.820   4.874   0.090  0.8399  0.6208  0.3450
  859MOL0     H15956   3.711   4.998   0.048 -0.6977  2.0620  0.1894
  859MOL0     H15957   3.674   5.027   0.302  1.0532  1.0859 -0.0140
  859MOL0     H15958   3.786   4.892   0.327  2.5411  1.6521 -3.6849
  859MOL0     H15959   3.569   4.807   0.359  1.1461 -0.5529  0.1571
  859MOL0     H15960   3.503   4.873   0.200  1.4193  0.8869 -1.9438
  859MOL0     H15961   3.696   4.529   0.061 -1.6738 -0.2672  1.1439
  859MOL0     H15962   4.020   5.290   0.086  2.0875  2.2931 -2.1180
  859MOL0     H15963   4.282   5.470   0.023  0.1666 -2.7751 -1.4046
  859MOL0     H15964   4.113   5.481   0.058  1.0944  1.8686 -0.5360
  859MOL0     H15965   4.216   5.524   0.193  0.1432 -3.1540  1.6034
  860MOL0     O15966   0.459   6.625  10.271  0.3482  0.5233  0.5436
  860MOL0     C15967   0.426   6.503  10.284 -0.3553 -0.5021  0.0121
  860MOL0     O15968   0.511   6.398  10.254  0.0664 -0.6258  0.2048
  860MOL0     C15969   0.642   6.441  10.219 -0.3884  0.7270  0.1304
  860MOL0     C15970   0.684   6.415  10.087 -0.2159 -0.2783  0.0051
  860MOL0     C15971   0.817   6.442  10.052 -0.4720  0.2051  0.2450
  860MOL0     C15972   0.901   6.507  10.143 -0.2745  0.2313  0.0736
  860MOL0     O15973   1.036   6.527  10.118  0.5025 -0.3945 -0.8911
  860MOL0     C15974   1.107   6.402  10.109 -0.8196 -0.8550 -0.1151
  860MOL0     C15975   1.256   6.415  10.116 -0.3794  0.3687 -0.4083
  860MOL0     C15976   1.308   6.544  10.044  0.0414  0.0908 -0.7752
  860MOL0     C15977   1.417   6.612  10.128  1.2201  0.8953 -0.3803
  860MOL0     C15978   1.544   6.521  10.128  0.3076 -0.5098  0.9588
  860MOL0     C15979   1.655   6.587  10.212 -0.3255  0.3370  0.1310
  860MOL0     C15980   1.794   6.519  10.212 -0.0098  0.1687 -0.3129
  860MOL0     C15981   1.907   6.572  10.308  0.8413  0.3777  0.2979
  860MOL0     N15982   2.033   6.500  10.294  0.0084  0.3564 -0.2287
  860MOL0     C15983   2.089   6.417  10.390  0.4388 -0.1398  0.5242
  860MOL0     C15984   2.203   6.371  10.341 -0.3331  0.2946  0.2896
  860MOL0     C15985   2.299   6.280  10.411  0.2511  0.2501 -0.4476
  860MOL0     C15986   2.420   6.355  10.464 -0.4652 -0.1228 -0.1823
  860MOL0     C15987   2.515   6.268  10.537 -0.5328 -0.0344 -0.2080
  860MOL0     C15988   2.640   6.336  10.584  0.0768 -0.0942 -0.0370
  860MOL0     O15989   2.741   6.373  10.490  0.0757  0.1920 -0.0400
  860MOL0     C15990   2.838   6.454  10.535 -0.2311  0.9869 -0.4611
  860MOL0     C15991   2.851   6.508  10.664  1.0415 -0.3158  1.1719
  860MOL0     C15992   2.948   6.608  10.688  0.4600  0.0125 -0.3878
  860MOL0     C15993   3.043   6.642  10.585 -0.4431  0.3428 -0.6926
  860MOL0     C15994   3.151   6.738  10.612  0.5475 -0.9723 -0.4380
  860MOL0     O15995   3.225   6.784  10.506 -0.7067  0.3873  0.0048
  860MOL0     C15996   3.356   6.824  10.527  0.5919 -0.2870  0.1342
  860MOL0     C15997   3.461   6.763  10.463 -0.5843 -0.5398 -0.0122
  860MOL0     C15998   3.594   6.788  10.499 -0.3520 -0.3107 -0.6540
  860MOL0     C15999   3.628   6.883  10.596  0.9412 -0.1416 -0.0025
  860MOL0     O16000   3.761   6.899  10.627 -0.4246  0.7352 -0.1866
  860MOL0     C16001   3.789   7.026  10.698 -0.6860 -0.0528 -0.6629
  860MOL0     C16002   3.935   7.070  10.699 -0.7410  0.5922  0.5696
  860MOL0     C16003   4.042   6.969  10.725  0.8325  0.0591 -1.5906
  860MOL0     C16004   4.180   7.026  10.757  0.2754 -1.1520 -0.5118
  860MOL0     C16005   4.272   6.933  10.837  0.6490 -0.7728  0.1838
  860MOL0     C16006   4.352   6.843  10.740  0.1713 -0.1590  0.7632
  860MOL0     C16007   4.463   6.764  10.817  0.2963 -0.3788 -0.1417
  860MOL0     C16008   4.414   6.636  10.898  0.0190 -0.2732  0.2863
  860MOL0    Cl16009   4.562   6.575  10.995 -0.3725 -0.0082 -0.2421
  860MOL0     C16010   3.520   6.956  10.653  0.1963 -0.4628 -0.1683
  860MOL0     C16011   3.386   6.927  10.620  0.1270  0.9838 -0.0493
  860MOL0     O16012   3.161   6.769  10.732  0.3049  0.8176 -0.0314
  860MOL0     C16013   3.034   6.580  10.459 -0.8676  0.0961  0.2682
  860MOL0     C16014   2.933   6.486  10.435  0.7704 -0.2618 -0.2875
  860MOL0     N16015   2.222   6.447  10.220  0.2399  0.7221  0.0552
  860MOL0     N16016   2.115   6.507  10.186 -0.4562 -0.0987 -0.2950
  860MOL0     C16017   0.859   6.551  10.264 -0.1915  0.5321 -1.2091
  860MOL0     C16018   0.730   6.517  10.300 -0.0163  0.5935 -0.0198
  860MOL0     C16019   0.293   6.464  10.315  0.5500 -0.1589  0.1775
  860MOL0     C16020   0.259   6.331  10.277  0.7232 -0.0974 -0.0720
  860MOL0     C16021   0.130   6.284  10.295 -0.1506 -0.3274 -0.0805
  860MOL0     C16022   0.039   6.359  10.366 -1.1534  0.1605  0.4847
  860MOL0     O16023  -0.073   6.291  10.359 -0.3315 -0.6207  0.5578
  860MOL0     C16024  -0.188   6.353  10.422  0.6435  0.1638 -0.3091
  860MOL0     C16025  -0.317   6.275  10.409  0.1216  0.6906  0.4930
  860MOL0     C16026  -0.349   6.242  10.257 -0.1376 -0.5115 -0.0161
  860MOL0     C16027  -0.260   6.131  10.186 -0.5707  0.0556  0.2259
  860MOL0     C16028  -0.342   6.057  10.092  0.1106 -0.2066  0.8998
  860MOL0     C16029  -0.385   5.990   9.993 -0.8612 -0.1717 -0.0719
  860MOL0     C16030   0.071   6.485  10.416  0.0269  0.1238 -0.5856
  860MOL0     C16031   0.198   6.541  10.394 -0.2129  0.2856 -0.1654
  860MOL0     C16032   0.244   6.661  10.469  0.7587 -0.6549  0.1636
  860MOL0     H16033   0.626   6.359  10.014  0.4846  0.6325 -1.2728
  860MOL0     H16034   0.843   6.418   9.949  0.1171  0.3192  0.3618
  860MOL0     H16035   1.081   6.325  10.182  0.5807 -2.3770 -1.1670
  860MOL0     H16036   1.093   6.355  10.012  1.6074  0.0601 -0.9885
  860MOL0     H16037   1.301   6.331  10.062 -1.3501 -0.3401 -0.1330
  860MOL0     H16038   1.304   6.404  10.214  0.5836  4.3175 -0.2574
  860MOL0     H16039   1.225   6.613  10.024 -0.0513  0.2426  0.0972
  860MOL0     H16040   1.337   6.511   9.944 -0.5482 -1.7321 -0.3778
  860MOL0     H16041   1.443   6.710  10.088  0.8908  0.3965 -1.9082
  860MOL0     H16042   1.372   6.632  10.225 -2.1914 -2.1087 -1.1153
  860MOL0     H16043   1.520   6.421  10.167  2.9352 -2.0355 -1.0231
  860MOL0     H16044   1.574   6.515  10.023  0.1595 -0.5660  0.9186
  860MOL0     H16045   1.669   6.687  10.169 -0.1520 -0.6034 -2.0867
  860MOL0     H16046   1.623   6.596  10.316  1.2108 -0.5919  0.7223
  860MOL0     H16047   1.824   6.522  10.107  2.8525 -3.4407  0.1777
  860MOL0     H16048   1.781   6.412  10.231  0.3390 -0.0985 -1.4853
  860MOL0     H16049   1.918   6.677  10.282  2.5604  0.2644  0.4661
  860MOL0     H16050   1.873   6.555  10.410 -5.4190 -1.9040 -1.6766
  860MOL0     H16051   2.043   6.380  10.481 -1.5331 -0.4967 -0.5324
  860MOL0     H16052   2.243   6.233  10.492 -0.8915 -0.4679 -1.6111
  860MOL0     H16053   2.334   6.209  10.335 -0.2814 -1.0465  0.4880
  860MOL0     H16054   2.477   6.404  10.384  0.1162 -1.7872 -0.8524
  860MOL0     H16055   2.380   6.425  10.537 -0.6711 -1.1611  0.7265
  860MOL0     H16056   2.550   6.181  10.481  0.0996 -0.5122  0.8828
  860MOL0     H16057   2.456   6.233  10.623 -0.4130  0.9611  0.2957
  860MOL0     H16058   2.685   6.278  10.665  2.1967  0.1343 -0.9739
  860MOL0     H16059   2.605   6.432  10.621 -0.6217  0.0001 -0.9061
  860MOL0     H16060   2.775   6.491  10.741  2.0184 -1.7291  1.8659
  860MOL0     H16061   2.955   6.661  10.782 -2.4907 -2.5237  1.4524
  860MOL0     H16062   3.436   6.686  10.389  0.4072  0.0970 -1.0419
  860MOL0     H16063   3.672   6.749  10.434 -0.3828 -0.2821 -0.7092
  860MOL0     H16064   3.732   7.101  10.642  1.6717  0.9796 -1.8378
  860MOL0     H16065   3.758   7.011  10.802  0.6319 -0.3041 -0.2859
  860MOL0     H16066   3.956   7.117  10.603  2.8545 -0.7864  0.5119
  860MOL0     H16067   3.936   7.151  10.772 -1.6032  0.9853  0.1554
  860MOL0     H16068   4.013   6.909  10.811  0.1977  2.1493 -0.2714
  860MOL0     H16069   4.053   6.894  10.646 -1.1857 -0.0998 -1.7579
  860MOL0     H16070   4.159   7.115  10.817 -1.0355 -0.9849 -1.1722
  860MOL0     H16071   4.231   7.061  10.666  1.4127  0.3033  0.6346
  860MOL0     H16072   4.209   6.873  10.902 -1.2459 -2.3331 -2.8642
  860MOL0     H16073   4.333   7.007  10.890 -3.5090  2.6730  0.6970
  860MOL0     H16074   4.286   6.768  10.694 -1.5047 -1.0569  4.2632
  860MOL0     H16075   4.409   6.906  10.671  0.7304 -1.0975  0.3359
  860MOL0     H16076   4.501   6.836  10.890  0.3924  0.0996 -0.6543
  860MOL0     H16077   4.544   6.739  10.748 -1.2700 -0.0438 -2.2049
  860MOL0     H16078   4.352   6.674  10.980  4.7280  0.2291  4.1103
  860MOL0     H16079   4.360   6.560  10.842 -1.2760  1.7126 -1.2919
  860MOL0     H16080   3.541   7.032  10.727  0.4593 -1.3076  0.6421
  860MOL0     H16081   3.305   6.988  10.657  0.6337  2.6902 -1.6041
  860MOL0     H16082   3.108   6.604  10.383 -1.3565  0.8016  0.0013
  860MOL0     H16083   2.930   6.429  10.343 -0.2254  3.4941 -2.8017
  860MOL0     H16084   0.924   6.595  10.339 -0.8217 -2.0997  1.0427
  860MOL0     H16085   0.693   6.552  10.396  1.8966  0.1683  0.9157
  860MOL0     H16086   0.327   6.270  10.218  2.6748  2.0808 -0.2198
  860MOL0     H16087   0.100   6.187  10.256 -0.1009  0.2836 -1.7171
  860MOL0     H16088  -0.212   6.452  10.383  1.0664 -0.0436 -1.1182
  860MOL0     H16089  -0.181   6.354  10.531 -3.7990  0.0139  0.1596
  860MOL0     H16090  -0.396   6.337  10.452 -0.9652 -0.1931 -0.2019
  860MOL0     H16091  -0.320   6.182  10.467 -3.5464  1.2429  1.4215
  860MOL0     H16092  -0.352   6.333  10.197 -0.8681  1.1127  2.3265
  860MOL0     H16093  -0.456   6.219  10.254 -0.7983  1.9793  1.7034
  860MOL0     H16094  -0.171   6.177  10.143 -1.5725  0.3720 -1.6106
  860MOL0     H16095  -0.217   6.066  10.262 -0.0500 -0.0769 -0.1849
  860MOL0     H16096  -0.413   5.921   9.916 -0.9828 -1.4135  1.0482
  860MOL0     H16097   0.003   6.525  10.491  0.7546 -1.7034  1.1712
  860MOL0     H16098   0.298   6.630  10.558  1.4824 -0.6359 -0.2567
  860MOL0     H16099   0.297   6.738  10.412 -1.5386  1.7434  1.0214
  860MOL0     H16100   0.154   6.718  10.495 -0.7647 -0.1722 -4.9432
  861MOL0     O16101   1.638   7.800   1.662  0.5609 -1.1385 -0.4153
  861MOL0     C16102   1.537   7.731   1.680 -1.3343 -1.0361  0.8685
  861MOL0     O16103   1.530   7.642   1.784  0.1191 -0.0969  0.0977
  861MOL0     C16104   1.629   7.647   1.876 -0.2027 -0.8579 -0.5352
  861MOL0     C16105   1.602   7.704   2.001 -0.5433 -0.3915  0.0065
  861MOL0     C16106   1.706   7.731   2.082 -0.1479 -0.4761  0.4579
  861MOL0     C16107   1.841   7.690   2.061  0.2502 -0.1776  0.3753
  861MOL0     O16108   1.948   7.716   2.138  0.2598 -0.0556  0.0760
  861MOL0     C16109   1.944   7.821   2.226  0.7601  0.0120  0.6343
  861MOL0     C16110   2.051   7.788   2.331 -0.0180  0.1830 -0.6259
  861MOL0     C16111   2.183   7.857   2.307 -0.4693 -0.1536  1.0387
  861MOL0     C16112   2.282   7.854   2.424  0.4302 -0.3854 -0.1045
  861MOL0     C16113   2.352   7.718   2.421  0.8569 -0.5567 -0.7026
  861MOL0     C16114   2.477   7.725   2.339 -0.3983 -1.1611  0.7411
  861MOL0     C16115   2.540   7.585   2.333 -0.0324 -0.3730  0.4460
  861MOL0     C16116   2.584   7.527   2.470 -0.2928 -0.5982  0.3132
  861MOL0     N16117   2.686   7.432   2.455 -1.3230 -0.2293  0.0043
  861MOL0     C16118   2.684   7.336   2.372  0.0240 -0.5340 -0.1930
  861MOL0     C16119   2.792   7.256   2.390  0.1867 -0.3418  0.2646
  861MOL0     C16120   2.840   7.136   2.317 -0.1889  0.8987  0.7002
  861MOL0     C16121   2.937   7.146   2.201  0.3381 -0.1153  0.0143
  861MOL0     C16122   3.079   7.210   2.240 -0.6642 -0.8741 -0.3560
  861MOL0     C16123   3.173   7.106   2.306  0.0031 -0.4435  0.9606
  861MOL0     O16124   3.238   7.032   2.201  0.6015  0.6239 -0.1426
  861MOL0     C16125   3.368   7.055   2.154 -0.2957  0.4196 -0.1124
  861MOL0     C16126   3.413   6.963   2.059 -1.3409 -0.2663  0.3031
  861MOL0     C16127   3.531   6.976   1.994 -0.0342  0.1456 -0.8984
  861MOL0     C16128   3.610   7.096   2.009 -0.3616  0.1529 -0.8193
  861MOL0     C16129   3.737   7.101   1.938 -0.0552 -0.1962 -0.6380
  861MOL0     O16130   3.784   7.230   1.915  0.4256 -0.1103 -0.3256
  861MOL0     C16131   3.903   7.245   1.861 -1.3799  0.3540 -0.0379
  861MOL0     C16132   3.978   7.357   1.895  0.5599  0.3259 -0.2733
  861MOL0     C16133   4.105   7.379   1.840 -0.3157 -0.5445 -0.0470
  861MOL0     C16134   4.149   7.308   1.738  0.0302  0.7753  0.4807
  861MOL0     O16135   4.266   7.335   1.671  0.1128 -0.6471  0.5530
  861MOL0     C16136   4.357   7.446   1.692  0.2961 -0.0098 -0.0595
  861MOL0     C16137   4.469   7.398   1.775 -0.0974  0.3482 -0.1389
  861MOL0     C16138   4.587   7.494   1.777 -0.2977 -0.3606 -1.1558
  861MOL0     C16139   4.681   7.466   1.898 -0.1320  0.3835  0.0143
  861MOL0     C16140   4.788   7.361   1.858 -0.6735 -0.8027  0.7731
  861MOL0     C16141   4.881   7.325   1.974  0.7703 -0.1657 -0.2168
  861MOL0     C16142   4.977   7.430   2.030  0.6098 -0.3796 -0.5153
  861MOL0     C16143   5.076   7.364   2.141 -0.7198 -0.2468 -0.0266
  861MOL0    Cl16144   4.973   7.326   2.280 -0.2015 -0.2325 -0.2554
  861MOL0     C16145   4.076   7.195   1.695 -0.4826  0.6360  0.2321
  861MOL0     C16146   3.955   7.168   1.753 -0.4690 -0.3550 -0.6409
  861MOL0     O16147   3.790   6.993   1.917 -1.0270  0.9123  0.1831
  861MOL0     C16148   3.563   7.196   2.093 -0.6399 -0.4003 -0.0049
  861MOL0     C16149   3.454   7.169   2.169  0.6578 -1.1561 -0.1546
  861MOL0     N16150   2.863   7.310   2.491  0.1036 -0.4097  0.3367
  861MOL0     N16151   2.806   7.414   2.525 -0.3035 -0.3131 -0.2612
  861MOL0     C16152   1.868   7.624   1.942  0.9669  0.3141 -0.4134
  861MOL0     C16153   1.764   7.602   1.854 -0.3435  0.1523  0.3327
  861MOL0     C16154   1.418   7.757   1.604 -0.5143 -0.4983 -0.0791
  861MOL0     C16155   1.297   7.710   1.668  0.6165  0.3560  0.1245
  861MOL0     C16156   1.175   7.697   1.598  0.4615  0.0226  0.4268
  861MOL0     C16157   1.179   7.750   1.461 -0.2316 -0.2750  1.1175
  861MOL0     O16158   1.074   7.749   1.372  0.1606  0.6934 -0.6233
  861MOL0     C16159   0.958   7.668   1.393  0.1856 -0.1610  0.8692
  861MOL0     C16160   0.883   7.670   1.262  0.1780 -0.3334 -0.4852
  861MOL0     C16161   0.844   7.818   1.233 -1.2515  0.5189 -0.7682
  861MOL0     C16162   0.753   7.849   1.110  0.9574  0.2775 -0.6580
  861MOL0     C16163   0.645   7.749   1.090 -0.6032 -0.1246 -0.6150
  861MOL0     C16164   0.554   7.671   1.057  0.4406 -0.1462  1.3898
  861MOL0     C16165   1.297   7.792   1.397  0.1521  0.3294  0.4154
  861MOL0     C16166   1.417   7.792   1.468  0.7168  0.1120  0.0018
  861MOL0     C16167   1.545   7.827   1.390 -0.8258 -0.1502 -0.4397
  861MOL0     H16168   1.501   7.741   2.019  0.0222  0.7706  0.9334
  861MOL0     H16169   1.687   7.789   2.171  2.7033 -0.0439  0.8477
  861MOL0     H16170   1.970   7.918   2.184  1.3264 -0.4092  0.0078
  861MOL0     H16171   1.847   7.829   2.278  0.0975  1.3662 -0.7332
  861MOL0     H16172   2.070   7.680   2.331  0.2649  0.2330 -0.5590
  861MOL0     H16173   1.995   7.820   2.419  0.6023  1.8858 -0.8099
  861MOL0     H16174   2.152   7.961   2.289 -1.1972 -0.6108 -0.5496
  861MOL0     H16175   2.231   7.823   2.214 -1.3127  0.6628  0.2756
  861MOL0     H16176   2.353   7.936   2.433 -0.4960  0.2857  1.4555
  861MOL0     H16177   2.226   7.853   2.518 -0.8018 -0.1276 -0.8145
  861MOL0     H16178   2.377   7.687   2.523  0.7083  1.2414 -0.0773
  861MOL0     H16179   2.276   7.647   2.388  0.4714 -0.0449 -0.9200
  861MOL0     H16180   2.454   7.759   2.238  1.7126 -2.0718 -0.1242
  861MOL0     H16181   2.558   7.794   2.368  0.0664 -1.3719 -0.0204
  861MOL0     H16182   2.622   7.600   2.263 -0.0698  1.5279  0.7701
  861MOL0     H16183   2.459   7.525   2.288 -1.3184  2.3604 -1.1670
  861MOL0     H16184   2.606   7.604   2.545 -1.6695 -0.8504  0.9953
  861MOL0     H16185   2.496   7.472   2.505  0.4707 -1.3742  1.0646
  861MOL0     H16186   2.608   7.332   2.294 -1.9147  0.2174  1.5635
  861MOL0     H16187   2.890   7.075   2.394  1.3719 -2.1118 -2.4223
  861MOL0     H16188   2.754   7.084   2.273 -0.8791  4.3124 -2.4213
  861MOL0     H16189   2.954   7.044   2.166 -1.6696  0.0443 -1.6356
  861MOL0     H16190   2.892   7.195   2.114  1.4126  0.7318 -0.0883
  861MOL0     H16191   3.073   7.301   2.300 -1.7989 -1.3175  0.2379
  861MOL0     H16192   3.139   7.246   2.156  2.4197  0.3293  2.1511
  861MOL0     H16193   3.108   7.047   2.371  3.0259  0.1876  4.9770
  861MOL0     H16194   3.249   7.155   2.369 -0.5207 -1.8837  2.8112
  861MOL0     H16195   3.360   6.871   2.038 -0.9221 -0.4647  0.0899
  861MOL0     H16196   3.556   6.897   1.924 -0.4253 -0.2135 -0.6357
  861MOL0     H16197   3.940   7.423   1.972  2.1434 -0.2957  1.0926
  861MOL0     H16198   4.160   7.467   1.870 -2.0378 -0.1914  2.3688
  861MOL0     H16199   4.401   7.470   1.595  0.1479 -2.1677 -0.7161
  861MOL0     H16200   4.317   7.528   1.753 -1.2408 -2.0165  1.7926
  861MOL0     H16201   4.427   7.377   1.873  0.2306 -2.0154 -0.4422
  861MOL0     H16202   4.506   7.303   1.735 -2.1523 -0.7492  0.4405
  861MOL0     H16203   4.637   7.496   1.680  1.6549  0.8430 -0.2118
  861MOL0     H16204   4.553   7.596   1.798 -0.7272 -0.8011  0.4262
  861MOL0     H16205   4.627   7.427   1.985 -0.8863  3.1246  0.8690
  861MOL0     H16206   4.718   7.558   1.943 -1.1720  0.5898  0.4723
  861MOL0     H16207   4.853   7.397   1.778 -1.2547  2.5750  1.6585
  861MOL0     H16208   4.738   7.278   1.808 -1.9111  1.6452 -2.4680
  861MOL0     H16209   4.824   7.285   2.059  1.9652 -0.5092  0.4370
  861MOL0     H16210   4.943   7.240   1.947  0.7308 -1.2036  2.6771
  861MOL0     H16211   4.927   7.508   2.088  0.8976 -0.8750  0.4309
  861MOL0     H16212   5.038   7.478   1.952 -0.5359  1.2074 -0.4907
  861MOL0     H16213   5.122   7.272   2.103  0.6897  1.0364 -1.6099
  861MOL0     H16214   5.153   7.432   2.177  1.5084 -1.8437 -1.5159
  861MOL0     H16215   4.123   7.132   1.619  0.0800  1.0744  0.2104
  861MOL0     H16216   3.912   7.072   1.726  1.7777 -1.6972  0.2713
  861MOL0     H16217   3.608   7.295   2.098 -3.3509  0.9503 -0.2149
  861MOL0     H16218   3.425   7.254   2.229  0.9915  0.0293 -1.6169
  861MOL0     H16219   1.966   7.588   1.915 -0.2274 -0.9887 -3.5164
  861MOL0     H16220   1.786   7.571   1.752 -1.3509 -0.0979  0.1791
  861MOL0     H16221   1.288   7.699   1.776  0.5528  2.0197  0.3075
  861MOL0     H16222   1.093   7.645   1.646 -0.2161 -0.4944 -1.1883
  861MOL0     H16223   0.905   7.706   1.481  1.9518  1.9644  1.1113
  861MOL0     H16224   0.974   7.561   1.408  0.9135 -0.0951  0.5995
  861MOL0     H16225   0.802   7.596   1.268  1.7786 -2.0784  0.8038
  861MOL0     H16226   0.934   7.627   1.175 -2.0684  0.8794 -2.5204
  861MOL0     H16227   0.926   7.888   1.212 -0.2746  0.1192  1.5075
  861MOL0     H16228   0.792   7.858   1.321 -0.1445  1.8584 -0.6887
  861MOL0     H16229   0.708   7.948   1.127 -5.1292 -2.2342  0.4140
  861MOL0     H16230   0.821   7.839   1.025 -0.3422 -3.4119 -1.4292
  861MOL0     H16231   0.483   7.599   1.021  1.0965 -0.0680 -0.1631
  861MOL0     H16232   1.299   7.819   1.292 -0.9170  1.6819  0.7060
  861MOL0     H16233   1.527   7.803   1.285  2.2311  0.1900 -1.1498
  861MOL0     H16234   1.549   7.936   1.398 -0.2067 -0.1203 -1.1101
  861MOL0     H16235   1.631   7.773   1.432 -1.2230  0.7796  1.7129
  862MOL0     O16236   6.907  10.321   7.192 -0.2094 -0.1892 -0.0624
  862MOL0     C16237   6.834  10.294   7.287  0.1249  0.0630 -0.5627
  862MOL0     O16238   6.879  10.219   7.394 -0.0823 -0.3016  0.2491
  862MOL0     C16239   7.014  10.199   7.403 -0.1730 -0.0429  0.3006
  862MOL0     C16240   7.064  10.081   7.356 -0.3363  0.0729 -0.9437
  862MOL0     C16241   7.208  10.061   7.374  0.0297  0.7092 -0.1658
  862MOL0     C16242   7.289  10.162   7.441  0.4687 -0.0343 -0.0054
  862MOL0     O16243   7.425  10.158   7.459  0.3364  0.2418 -0.1757
  862MOL0     C16244   7.504  10.195   7.351 -0.0296 -0.6495  0.4784
  862MOL0     C16245   7.630  10.289   7.365  0.5254  0.2457  0.7459
  862MOL0     C16246   7.691  10.289   7.504 -0.0689  0.0465 -0.1353
  862MOL0     C16247   7.762  10.155   7.534  0.3743  0.3959  0.4645
  862MOL0     C16248   7.761  10.118   7.678 -0.2012  0.9745 -0.3428
  862MOL0     C16249   7.849  10.200   7.771  0.2219  0.2773  0.0497
  862MOL0     C16250   7.996  10.218   7.719  0.3655  0.2003  0.5244
  862MOL0     C16251   8.084  10.211   7.837 -0.4495  0.2981  0.2318
  862MOL0     N16252   8.101  10.087   7.912 -0.6385  0.3552  0.2141
  862MOL0     C16253   8.099   9.961   7.858  0.0034 -0.6801 -0.0761
  862MOL0     C16254   8.109   9.871   7.959  0.0658  0.6570  0.0557
  862MOL0     C16255   8.113   9.721   7.956  0.2657 -0.1925  0.0176
  862MOL0     C16256   8.247   9.666   7.891  0.6039  0.0748  0.0617
  862MOL0     C16257   8.366   9.745   7.938 -0.6122  0.2416 -0.3565
  862MOL0     C16258   8.497   9.670   7.910 -0.5309 -0.1113  0.5116
  862MOL0     O16259   8.526   9.689   7.774  0.7120 -0.1148 -0.3571
  862MOL0     C16260   8.651   9.653   7.730  0.4885  0.1242 -0.1969
  862MOL0     C16261   8.745   9.585   7.809  0.6636 -0.2479 -0.6750
  862MOL0     C16262   8.864   9.540   7.758 -0.6645  0.7436  0.8088
  862MOL0     C16263   8.897   9.554   7.630  0.4022 -1.6315  0.4854
  862MOL0     C16264   9.027   9.496   7.580 -0.0408  0.2983 -0.6207
  862MOL0     O16265   9.044   9.507   7.445  0.4161 -0.3280  0.1400
  862MOL0     C16266   9.133   9.419   7.387 -0.0883  0.2764 -1.0229
  862MOL0     C16267   9.270   9.440   7.399  0.1147 -0.1884 -0.2152
  862MOL0     C16268   9.367   9.352   7.352  0.5274  0.4801 -0.1138
  862MOL0     C16269   9.322   9.233   7.286  0.1053 -0.0688  0.2363
  862MOL0     O16270   9.399   9.123   7.256  0.0417 -0.0041 -0.3424
  862MOL0     C16271   9.517   9.150   7.178 -0.1688  1.0203 -0.4806
  862MOL0     C16272   9.516   9.023   7.089  0.7412 -0.2794  0.2652
  862MOL0     C16273   9.640   8.995   7.009 -0.0494 -0.5731  0.5023
  862MOL0     C16274   9.654   8.854   6.956 -0.0206 -1.0204  0.2017
  862MOL0     C16275   9.724   8.855   6.827  0.1407 -0.1556  0.7664
  862MOL0     C16276   9.874   8.912   6.824 -0.4723 -0.0908 -0.0457
  862MOL0     C16277   9.922   8.900   6.674 -0.5941 -0.3803 -0.0800
  862MOL0     C16278  10.036   9.004   6.652 -0.3904 -0.4239 -0.5712
  862MOL0    Cl16279  10.073   9.034   6.479 -0.1746 -0.1978  0.0535
  862MOL0     C16280   9.188   9.215   7.266  0.1951 -1.2491 -0.0668
  862MOL0     C16281   9.094   9.308   7.326 -0.1213  1.0657 -0.5851
  862MOL0     O16282   9.090   9.428   7.660 -0.9672 -0.4755 -0.9262
  862MOL0     C16283   8.802   9.620   7.541 -0.2358 -0.2140  0.6390
  862MOL0     C16284   8.681   9.665   7.594 -0.2219 -0.8044  0.0260
  862MOL0     N16285   8.137   9.943   8.076  1.3438 -0.0936  0.2107
  862MOL0     N16286   8.130  10.075   8.048  0.1163  0.7107 -0.0217
  862MOL0     C16287   7.228  10.274   7.503  0.0970  0.0238 -0.0576
  862MOL0     C16288   7.090  10.290   7.481  0.1739  1.1253  0.4991
  862MOL0     C16289   6.701  10.361   7.281  0.5615  0.1513  0.2779
  862MOL0     C16290   6.665  10.435   7.165  0.8881  0.7687 -0.1099
  862MOL0     C16291   6.536  10.496   7.153 -0.4788  0.1666 -0.0626
  862MOL0     C16292   6.441  10.484   7.257 -0.1968 -0.3561 -0.3392
  862MOL0     O16293   6.325  10.560   7.250 -0.1791  0.5005  0.1402
  862MOL0     C16294   6.226  10.562   7.353 -0.0200  0.3928  0.2250
  862MOL0     C16295   6.135  10.674   7.312 -1.2222 -0.1741 -0.1872
  862MOL0     C16296   6.013  10.698   7.404 -0.1548 -0.2130  0.1833
  862MOL0     C16297   5.891  10.602   7.387  0.2787 -0.0919  0.9497
  862MOL0     C16298   5.787  10.632   7.489 -0.4431 -0.4532 -0.3761
  862MOL0     C16299   5.698  10.641   7.571 -0.1837  0.7946 -0.2226
  862MOL0     C16300   6.482  10.415   7.380  0.0978 -0.0886  0.1870
  862MOL0     C16301   6.612  10.365   7.393  0.1873  0.8732  0.2646
  862MOL0     C16302   6.657  10.319   7.526  0.6237  0.0027 -0.6092
  862MOL0     H16303   7.009  10.016   7.289 -1.8901 -1.8929  2.0277
  862MOL0     H16304   7.242   9.962   7.343 -4.6279 -1.4100  0.6345
  862MOL0     H16305   7.543  10.100   7.313 -0.1773 -0.6736  0.3893
  862MOL0     H16306   7.440  10.243   7.276  2.6289 -1.7224 -2.7353
  862MOL0     H16307   7.597  10.391   7.343 -1.8402 -0.7764 -0.9440
  862MOL0     H16308   7.700  10.266   7.285  0.2387 -0.6792  0.7554
  862MOL0     H16309   7.603  10.297   7.569  0.5736 -3.4465  1.3558
  862MOL0     H16310   7.755  10.376   7.520 -2.7735  2.4849 -1.5643
  862MOL0     H16311   7.704  10.072   7.493  0.3076 -0.7355  2.6996
  862MOL0     H16312   7.863  10.152   7.492  1.3805  3.1013  2.3905
  862MOL0     H16313   7.659  10.113   7.718  0.5709 -0.4199  1.5650
  862MOL0     H16314   7.792  10.013   7.686 -1.8196  0.5893  1.4571
  862MOL0     H16315   7.798  10.296   7.782  0.0053  0.0536  1.1197
  862MOL0     H16316   7.840  10.152   7.868  0.3189 -0.9653 -0.5356
  862MOL0     H16317   8.012  10.315   7.671 -0.8828  0.3294  0.3426
  862MOL0     H16318   8.022  10.139   7.649 -2.1781  0.7926 -1.2044
  862MOL0     H16319   8.184  10.250   7.813 -0.8518  0.2837 -1.5656
  862MOL0     H16320   8.047  10.290   7.904 -2.2133 -0.6150  0.3768
  862MOL0     H16321   8.090   9.936   7.753 -1.1485  0.5712 -0.3000
  862MOL0     H16322   8.099   9.690   8.060  0.4044  0.3032  0.1895
  862MOL0     H16323   8.023   9.686   7.905 -0.4510  0.5435  0.7525
  862MOL0     H16324   8.258   9.561   7.921  1.5789  0.4300  1.0195
  862MOL0     H16325   8.248   9.674   7.782 -2.3188  0.9199  0.0068
  862MOL0     H16326   8.366   9.747   8.048  2.9037 -0.8939 -0.2238
  862MOL0     H16327   8.355   9.844   7.893  0.4278  1.3163  1.6250
  862MOL0     H16328   8.486   9.563   7.931  0.5118 -1.2282 -3.6870
  862MOL0     H16329   8.576   9.714   7.971  0.1962  1.2345 -1.3152
  862MOL0     H16330   8.730   9.564   7.915 -0.4647 -1.8535 -1.1202
  862MOL0     H16331   8.935   9.494   7.826  3.1376  2.0450 -1.9541
  862MOL0     H16332   9.295   9.528   7.458 -1.8364 -0.2851  0.8424
  862MOL0     H16333   9.473   9.364   7.369  0.2682  1.9149  0.6099
  862MOL0     H16334   9.522   9.243   7.121 -0.9609  1.5293  0.2665
  862MOL0     H16335   9.605   9.154   7.244 -0.4959 -1.5045  0.2169
  862MOL0     H16336   9.490   8.938   7.153  1.7146  0.3322  1.5223
  862MOL0     H16337   9.423   9.032   7.032 -0.8058  0.6796  2.7557
  862MOL0     H16338   9.637   9.068   6.928 -0.7412  2.1212  2.7888
  862MOL0     H16339   9.729   9.026   7.064 -0.2940 -0.0198  0.5929
  862MOL0     H16340   9.556   8.806   6.945 -0.0295 -0.8823 -0.3744
  862MOL0     H16341   9.707   8.798   7.033 -0.1985 -1.3255  0.1057
  862MOL0     H16342   9.659   8.916   6.764 -0.1001 -2.0219 -0.9142
  862MOL0     H16343   9.714   8.757   6.779 -1.6917  2.1261 -4.0782
  862MOL0     H16344   9.863   9.018   6.848 -2.2754 -0.7215  2.2284
  862MOL0     H16345   9.950   8.861   6.884  0.6675  1.9444  0.3361
  862MOL0     H16346   9.839   8.907   6.603  1.1295 -1.0104 -2.2689
  862MOL0     H16347   9.964   8.801   6.655  0.0092 -0.0576 -0.4447
  862MOL0     H16348  10.009   9.100   6.696  1.3559  1.4558 -3.2956
  862MOL0     H16349  10.127   8.976   6.706 -0.5460 -2.1196 -1.1180
  862MOL0     H16350   9.166   9.137   7.194 -0.2118 -0.0630 -1.2731
  862MOL0     H16351   8.991   9.282   7.305  0.5992 -0.3256 -2.8052
  862MOL0     H16352   8.818   9.652   7.438 -3.1407 -0.4768  0.0312
  862MOL0     H16353   8.595   9.704   7.541  0.0767  0.9419  0.7437
  862MOL0     H16354   7.288  10.348   7.555  1.3858 -1.0095 -0.0404
  862MOL0     H16355   7.041  10.374   7.528 -0.0050  1.6264 -0.5617
  862MOL0     H16356   6.740  10.433   7.087  0.8351 -1.9723 -0.2157
  862MOL0     H16357   6.491  10.554   7.073 -3.6880 -1.3271  0.5248
  862MOL0     H16358   6.262  10.579   7.455  1.4101  0.1529 -0.2156
  862MOL0     H16359   6.178  10.463   7.356 -0.0902  0.4371  1.0683
  862MOL0     H16360   6.107  10.654   7.208  2.8388  1.7080 -1.8914
  862MOL0     H16361   6.185  10.771   7.318 -0.0615 -0.7739  0.0779
  862MOL0     H16362   5.971  10.797   7.386 -2.2546 -1.5876 -3.7415
  862MOL0     H16363   6.053  10.688   7.506 -1.4139 -1.1582  0.6037
  862MOL0     H16364   5.849  10.603   7.286 -1.5916 -0.9467  1.6700
  862MOL0     H16365   5.926  10.499   7.397 -0.2056 -0.4426 -0.5996
  862MOL0     H16366   5.624  10.643   7.648  1.1334  3.0956  1.0761
  862MOL0     H16367   6.419  10.400   7.467  0.4479 -1.2702  0.2592
  862MOL0     H16368   6.581  10.355   7.596 -1.1601 -0.4534 -2.2229
  862MOL0     H16369   6.667  10.210   7.536 -1.1383 -0.1153  0.3469
  862MOL0     H16370   6.743  10.379   7.558  1.4514 -1.7575  0.6157
  863MOL0     O16371   3.858   0.901   0.461  0.3175 -0.2514 -0.9398
  863MOL0     C16372   3.842   0.802   0.394 -0.4704  0.0896 -0.7658
  863MOL0     O16373   3.946   0.720   0.348 -0.6176 -0.4939  0.2076
  863MOL0     C16374   4.075   0.725   0.406  1.1783  0.2893  0.6923
  863MOL0     C16375   4.177   0.683   0.320  0.0185 -0.2059 -0.2799
  863MOL0     C16376   4.310   0.683   0.366 -0.0130  0.4277  0.4827
  863MOL0     C16377   4.341   0.708   0.499 -0.1370 -0.6380  0.7749
  863MOL0     O16378   4.471   0.682   0.529 -0.1813 -0.3659 -0.1271
  863MOL0     C16379   4.531   0.769   0.622 -0.0551 -0.7176  0.1511
  863MOL0     C16380   4.687   0.750   0.620 -0.2506 -1.1290  0.2939
  863MOL0     C16381   4.743   0.843   0.731  0.0919  0.3546  0.5161
  863MOL0     C16382   4.889   0.805   0.748  0.1169  0.6597  0.0567
  863MOL0     C16383   4.980   0.897   0.833  0.0596 -0.3651 -0.1059
  863MOL0     C16384   4.909   0.979   0.946  1.3015  0.0886  0.7455
  863MOL0     C16385   5.005   1.062   1.022 -0.7335 -0.2483 -1.6272
  863MOL0     C16386   4.973   1.054   1.167 -0.0898  0.0896 -1.1496
  863MOL0     N16387   5.074   1.131   1.244 -0.1209 -0.0906 -0.2134
  863MOL0     C16388   5.189   1.067   1.289  0.1728 -0.2040 -0.1991
  863MOL0     C16389   5.249   1.172   1.363 -0.6533 -0.7395 -0.5624
  863MOL0     C16390   5.371   1.170   1.451  0.3690 -0.1105 -0.0821
  863MOL0     C16391   5.503   1.113   1.398 -0.2432  0.2120 -0.1869
  863MOL0     C16392   5.626   1.136   1.489  0.7451 -1.2670  0.3557
  863MOL0     C16393   5.755   1.102   1.412 -0.0633  0.0666 -0.5388
  863MOL0     O16394   5.849   1.157   1.503 -0.1309  0.5168 -0.1208
  863MOL0     C16395   5.978   1.177   1.462 -1.2649 -0.3756 -0.2355
  863MOL0     C16396   6.067   1.194   1.562 -0.1351 -0.3272 -0.0172
  863MOL0     C16397   6.194   1.245   1.541  0.8648 -0.2731  0.9327
  863MOL0     C16398   6.226   1.285   1.412  0.4512  0.4122  0.5710
  863MOL0     C16399   6.355   1.338   1.387  0.6611  0.5672 -0.0461
  863MOL0     O16400   6.425   1.364   1.500 -0.3487 -0.7171 -0.5819
  863MOL0     C16401   6.544   1.433   1.504 -0.9925 -0.2089  1.7501
  863MOL0     C16402   6.650   1.409   1.411  0.0548  0.6181  0.5270
  863MOL0     C16403   6.770   1.468   1.433 -0.2501 -0.3978 -0.4690
  863MOL0     C16404   6.787   1.563   1.532  0.2653  0.1087  0.6719
  863MOL0     O16405   6.913   1.626   1.543  0.3856  0.1182 -0.5056
  863MOL0     C16406   6.956   1.694   1.661  0.0468 -0.5456 -0.1906
  863MOL0     C16407   7.095   1.760   1.649 -0.5889  0.8469  0.0282
  863MOL0     C16408   7.209   1.657   1.633 -0.1811 -0.4404  0.6593
  863MOL0     C16409   7.318   1.721   1.547 -0.6402  0.4499  0.5962
  863MOL0     C16410   7.414   1.611   1.485  0.3322  0.0500 -0.3874
  863MOL0     C16411   7.557   1.662   1.478  0.9759  0.9248 -0.3124
  863MOL0     C16412   7.656   1.561   1.415 -0.5167 -0.4276  0.0097
  863MOL0     C16413   7.799   1.612   1.432  0.0898  0.0651 -0.1759
  863MOL0    Cl16414   7.911   1.530   1.313 -0.1429 -0.1924 -0.4409
  863MOL0     C16415   6.680   1.599   1.614 -1.0584 -0.1130  0.2758
  863MOL0     C16416   6.566   1.525   1.601 -0.0006 -0.1028 -0.0415
  863MOL0     O16417   6.386   1.372   1.275  0.3033 -0.3089 -0.5354
  863MOL0     C16418   6.131   1.262   1.297  0.3118 -0.4766 -0.3147
  863MOL0     C16419   6.013   1.200   1.329  0.0290 -0.7823 -0.2873
  863MOL0     N16420   5.166   1.279   1.368  0.2337  0.8207  0.0419
  863MOL0     N16421   5.059   1.252   1.304  0.3867 -0.5115 -0.3271
  863MOL0     C16422   4.243   0.758   0.577 -0.4605 -0.0330 -0.2758
  863MOL0     C16423   4.110   0.771   0.530  0.3745 -0.0393 -0.4479
  863MOL0     C16424   3.709   0.761   0.339 -0.0774  0.3116 -0.5088
  863MOL0     C16425   3.708   0.646   0.251  0.3756 -0.8567 -0.2744
  863MOL0     C16426   3.582   0.601   0.210 -0.0652  0.3647  0.1025
  863MOL0     C16427   3.467   0.672   0.228  0.0560 -0.3505  0.0883
  863MOL0     O16428   3.360   0.617   0.168  0.2995  0.8041 -0.1736
  863MOL0     C16429   3.241   0.686   0.145  0.3538  0.2874  0.3174
  863MOL0     C16430   3.208   0.654   0.004  0.6116  0.1061  0.5808
  863MOL0     C16431   3.290   0.734  -0.091 -0.4790  0.3849 -0.3857
  863MOL0     C16432   3.283   0.679  -0.231  0.2408  1.1057  0.7341
  863MOL0     C16433   3.145   0.656  -0.283 -0.3909 -0.7036 -0.6010
  863MOL0     C16434   3.029   0.655  -0.322  0.3081 -0.0245  0.0857
  863MOL0     C16435   3.466   0.784   0.305  0.7097  0.8488 -0.6584
  863MOL0     C16436   3.579   0.834   0.366  0.5030 -0.5174  0.2975
  863MOL0     C16437   3.574   0.964   0.433 -0.1997 -0.0792 -0.4952
  863MOL0     H16438   4.158   0.655   0.217  1.0236 -0.8029 -0.3131
  863MOL0     H16439   4.393   0.658   0.300 -0.3647 -0.6027  0.4168
  863MOL0     H16440   4.519   0.874   0.592  0.2265 -1.1540 -1.5871
  863MOL0     H16441   4.488   0.749   0.721 -0.1014 -2.0720 -0.1232
  863MOL0     H16442   4.710   0.782   0.518  1.5474  0.6570  1.1753
  863MOL0     H16443   4.704   0.645   0.643 -2.5480 -1.9318 -1.3636
  863MOL0     H16444   4.681   0.848   0.821  0.5052 -0.7478  0.8761
  863MOL0     H16445   4.751   0.946   0.694  0.7084 -0.6773 -2.4319
  863MOL0     H16446   4.884   0.707   0.797 -1.8325  1.3097  1.2684
  863MOL0     H16447   4.933   0.791   0.649  0.7418  1.5282  0.1964
  863MOL0     H16448   5.052   0.829   0.880  0.1498  2.0939  3.7786
  863MOL0     H16449   5.032   0.967   0.767 -0.8273 -0.7876 -1.2901
  863MOL0     H16450   4.835   1.041   0.893  1.8070 -1.2210 -1.6126
  863MOL0     H16451   4.852   0.911   1.009  0.2081  0.7945  0.5686
  863MOL0     H16452   4.987   1.163   0.985 -0.1838 -0.2268 -1.8348
  863MOL0     H16453   5.108   1.036   0.999 -1.5339 -4.1390 -1.5179
  863MOL0     H16454   4.879   1.091   1.209  0.3060 -0.9272  0.7643
  863MOL0     H16455   4.973   0.951   1.205  0.0311  0.0348 -1.2980
  863MOL0     H16456   5.217   0.966   1.261 -3.0622 -0.8952 -1.4295
  863MOL0     H16457   5.392   1.268   1.495  0.4834 -0.6842  1.2070
  863MOL0     H16458   5.329   1.101   1.526 -2.5615  1.0765 -0.4932
  863MOL0     H16459   5.482   1.005   1.395  0.0199  0.1431  0.3474
  863MOL0     H16460   5.527   1.144   1.296 -0.1362  2.6497  0.5233
  863MOL0     H16461   5.619   1.080   1.582 -1.4868 -0.7105  0.5880
  863MOL0     H16462   5.624   1.244   1.509 -1.1223 -1.1083 -0.4741
  863MOL0     H16463   5.743   1.162   1.321  0.3103  0.6340 -0.2239
  863MOL0     H16464   5.766   0.997   1.385  1.9864  0.5314 -1.7454
  863MOL0     H16465   6.041   1.191   1.667  4.0237  1.8937  1.2724
  863MOL0     H16466   6.260   1.246   1.627  0.7671 -1.5783  1.0466
  863MOL0     H16467   6.643   1.322   1.347  1.3656 -0.6102  1.9628
  863MOL0     H16468   6.864   1.436   1.389  0.1954  1.3359 -0.8572
  863MOL0     H16469   6.880   1.766   1.691  0.8102  1.3530 -2.5463
  863MOL0     H16470   6.959   1.616   1.738  2.0167 -0.8858 -0.5635
  863MOL0     H16471   7.087   1.825   1.561  0.1928 -1.0759 -1.5335
  863MOL0     H16472   7.112   1.822   1.738 -1.3347 -0.6908  1.3014
  863MOL0     H16473   7.259   1.630   1.726  2.1362 -0.4011 -0.5109
  863MOL0     H16474   7.165   1.567   1.591  0.2995 -1.3498  2.0336
  863MOL0     H16475   7.371   1.797   1.606 -3.7472  2.1943  1.3500
  863MOL0     H16476   7.287   1.787   1.466  1.1526  1.7802  0.9334
  863MOL0     H16477   7.381   1.574   1.387  0.8451  1.9225 -1.2987
  863MOL0     H16478   7.408   1.524   1.552 -2.3414 -1.5615 -2.5170
  863MOL0     H16479   7.555   1.752   1.416  0.1151 -1.0659 -3.4226
  863MOL0     H16480   7.601   1.680   1.577 -0.6892  0.6556  0.5067
  863MOL0     H16481   7.625   1.546   1.311 -0.0519 -0.1969 -0.1655
  863MOL0     H16482   7.645   1.465   1.466 -2.1538  0.3088  1.1246
  863MOL0     H16483   7.813   1.720   1.426  2.9103 -0.1461  1.2026
  863MOL0     H16484   7.821   1.575   1.532 -3.2734 -2.8814 -0.3175
  863MOL0     H16485   6.688   1.680   1.686 -0.7853 -0.8434  1.0839
  863MOL0     H16486   6.492   1.544   1.677 -1.9798  0.0041 -1.8807
  863MOL0     H16487   6.162   1.295   1.198  0.6793  0.4617  0.0910
  863MOL0     H16488   5.944   1.187   1.246 -0.1801 -2.8159  0.1531
  863MOL0     H16489   4.269   0.790   0.678 -1.7907  1.4610 -0.3728
  863MOL0     H16490   4.027   0.786   0.598 -2.1076 -0.6009 -3.1119
  863MOL0     H16491   3.789   0.578   0.225 -0.0379 -1.2025 -0.6795
  863MOL0     H16492   3.566   0.510   0.154 -4.2390  0.9856 -0.0373
  863MOL0     H16493   3.253   0.793   0.161  1.0053  0.2369  0.2205
  863MOL0     H16494   3.160   0.659   0.213 -1.2119 -1.7121 -2.1695
  863MOL0     H16495   3.103   0.671  -0.018  0.6310 -2.1455 -1.8462
  863MOL0     H16496   3.211   0.545  -0.007 -0.6455  0.2381 -1.4757
  863MOL0     H16497   3.394   0.719  -0.061 -0.7456 -2.0262 -0.5194
  863MOL0     H16498   3.274   0.843  -0.092  1.0741  0.6317 -1.5215
  863MOL0     H16499   3.344   0.742  -0.297 -0.4005  4.6223  3.2433
  863MOL0     H16500   3.335   0.583  -0.236  1.1031  1.6051 -1.2980
  863MOL0     H16501   2.925   0.656  -0.350 -0.0383 -0.8070  1.2634
  863MOL0     H16502   3.373   0.839   0.322  0.8499  1.4077 -1.6616
  863MOL0     H16503   3.622   0.946   0.531 -0.9167  0.3701 -0.0564
  863MOL0     H16504   3.646   1.032   0.387  0.7655  1.0551  2.4573
  863MOL0     H16505   3.479   1.016   0.447 -1.2314 -1.6145 -1.4612
  864MOL0     O16506   6.700   5.218   9.579 -0.1706  0.6096  0.8409
  864MOL0     C16507   6.684   5.127   9.657  0.1260 -0.6126  0.3199
  864MOL0     O16508   6.780   5.084   9.739  0.4311  0.0044 -0.4420
  864MOL0     C16509   6.903   5.151   9.743  0.1625  0.3407 -0.3864
  864MOL0     C16510   7.006   5.119   9.655  0.0141  0.3545  0.4781
  864MOL0     C16511   7.136   5.158   9.686  0.2590 -1.0544 -0.2106
  864MOL0     C16512   7.159   5.269   9.777 -0.1441 -0.5088  0.5561
  864MOL0     O16513   7.278   5.336   9.787  0.0295 -0.0673  0.3162
  864MOL0     C16514   7.376   5.320   9.683 -0.1610 -0.9819  0.6899
  864MOL0     C16515   7.503   5.405   9.720 -0.4451 -0.2969  0.0665
  864MOL0     C16516   7.536   5.377   9.862 -0.4474 -0.1868 -0.9060
  864MOL0     C16517   7.678   5.416   9.892 -0.1121  0.2925  0.2113
  864MOL0     C16518   7.697   5.411  10.043  0.6782  0.2670  0.1718
  864MOL0     C16519   7.837   5.437  10.083 -0.3000 -0.1961  0.1342
  864MOL0     C16520   7.857   5.452  10.234 -0.1126 -1.0617  0.8714
  864MOL0     C16521   8.006   5.449  10.274  0.8280  0.2131 -0.3125
  864MOL0     N16522   8.039   5.493  10.413  0.9146  0.2183  0.3418
  864MOL0     C16523   8.162   5.470  10.472  0.1104  1.4527  0.7069
  864MOL0     C16524   8.140   5.499  10.600 -0.1881  0.1778 -0.1164
  864MOL0     C16525   8.243   5.490  10.707 -0.3092  0.0963  0.3321
  864MOL0     C16526   8.282   5.633  10.746 -0.0370  0.4706  0.1420
  864MOL0     C16527   8.359   5.632  10.870  0.5467 -0.1466 -0.0435
  864MOL0     C16528   8.380   5.776  10.906 -0.8329  0.1462 -0.5961
  864MOL0     O16529   8.480   5.781  11.010  0.4792 -0.1663 -0.8359
  864MOL0     C16530   8.548   5.904  11.011 -0.4392  0.0205  0.2599
  864MOL0     C16531   8.508   6.023  10.948 -0.0671 -0.3747 -0.9524
  864MOL0     C16532   8.590   6.139  10.959 -0.4353  0.0394  0.4141
  864MOL0     C16533   8.715   6.134  11.026  0.2386  0.3761  0.1587
  864MOL0     C16534   8.810   6.252  11.045  0.1160  0.1204  0.0384
  864MOL0     O16535   8.793   6.357  10.957 -0.1029  0.3900  0.9774
  864MOL0     C16536   8.877   6.465  10.952 -0.5429 -0.0373 -0.3079
  864MOL0     C16537   8.931   6.530  11.063  0.4691 -0.3956 -0.7301
  864MOL0     C16538   9.002   6.653  11.054  0.1524  0.2666 -0.1937
  864MOL0     C16539   9.028   6.719  10.932  0.4132  1.4939  0.3796
  864MOL0     O16540   9.097   6.839  10.924  1.0617  0.2847 -0.0575
  864MOL0     C16541   9.084   6.918  10.811 -0.6841  0.1216  0.5005
  864MOL0     C16542   9.134   7.049  10.834 -0.1217 -1.0333  1.1192
  864MOL0     C16543   9.280   7.068  10.890 -1.2058  0.4579  0.4478
  864MOL0     C16544   9.391   7.043  10.785  0.6675 -1.0389  0.3684
  864MOL0     C16545   9.528   7.061  10.852  0.3589  0.5195  0.7057
  864MOL0     C16546   9.579   7.205  10.862  0.0692 -0.7929  0.0519
  864MOL0     C16547   9.726   7.211  10.904  0.2292  0.1411 -0.1755
  864MOL0     C16548   9.743   7.203  11.051  0.1893 -0.6834 -0.0531
  864MOL0    Cl16549   9.915   7.207  11.111  0.0779  0.1853  0.3502
  864MOL0     C16550   8.972   6.651  10.814  0.0592 -0.7008 -0.0564
  864MOL0     C16551   8.895   6.536  10.828  0.2033 -0.7855  0.1365
  864MOL0     O16552   8.909   6.235  11.117  0.4813 -0.6386  0.2519
  864MOL0     C16553   8.746   6.009  11.090 -1.5245  0.2600  0.1449
  864MOL0     C16554   8.666   5.897  11.091 -0.9150  1.2586  0.6499
  864MOL0     N16555   8.014   5.551  10.623 -0.0221 -0.0597  0.3511
  864MOL0     N16556   7.953   5.537  10.510  0.8197 -0.0003  0.9359
  864MOL0     C16557   7.046   5.310   9.850 -0.3535 -0.0809  0.2264
  864MOL0     C16558   6.922   5.234   9.856  0.2962  0.1625 -0.0455
  864MOL0     C16559   6.552   5.076   9.673 -0.0214  0.4406  0.4876
  864MOL0     C16560   6.532   4.990   9.777  0.1481 -0.0999 -0.4679
  864MOL0     C16561   6.408   4.934   9.804 -0.4898 -0.1197 -0.2802
  864MOL0     C16562   6.302   4.942   9.715  0.4861  0.2225  0.2616
  864MOL0     O16563   6.187   4.870   9.737 -0.2367 -0.1492 -0.7896
  864MOL0     C16564   6.050   4.917   9.687  0.0919 -0.3123 -0.5400
  864MOL0     C16565   6.006   5.046   9.765 -0.4561 -0.2434  0.2344
  864MOL0     C16566   5.859   5.078   9.734  0.2000 -0.8007  1.0243
  864MOL0     C16567   5.828   5.100   9.588 -0.0169 -0.6993 -0.6357
  864MOL0     C16568   5.921   5.189   9.523 -0.3721 -0.0316  0.5065
  864MOL0     C16569   6.007   5.248   9.467  0.2626 -0.4834  0.9134
  864MOL0     C16570   6.320   5.036   9.610 -0.4169  0.5710 -0.5650
  864MOL0     C16571   6.445   5.107   9.585  1.5982  0.5809 -0.5056
  864MOL0     C16572   6.444   5.195   9.458 -0.1373 -0.5831 -0.1488
  864MOL0     H16573   6.994   5.054   9.570  1.2804 -0.8284  1.1651
  864MOL0     H16574   7.220   5.140   9.619 -0.1471 -0.3229 -0.9358
  864MOL0     H16575   7.406   5.217   9.667 -1.0385 -1.0877 -0.4766
  864MOL0     H16576   7.339   5.361   9.588  2.7322 -1.3834 -0.7369
  864MOL0     H16577   7.481   5.510   9.697  2.7558  1.0888  2.5628
  864MOL0     H16578   7.588   5.380   9.656 -0.1650  2.2304 -0.6716
  864MOL0     H16579   7.521   5.271   9.887  3.4179 -0.0928  2.9966
  864MOL0     H16580   7.476   5.432   9.935  1.0356 -1.5855  1.4808
  864MOL0     H16581   7.743   5.341   9.847 -1.1212 -0.7488  0.4134
  864MOL0     H16582   7.703   5.515   9.854  0.1947  0.9795  2.1153
  864MOL0     H16583   7.626   5.478  10.094  1.6373  2.7816 -1.6233
  864MOL0     H16584   7.680   5.310  10.080 -0.1925  0.7255  1.0990
  864MOL0     H16585   7.908   5.363  10.045  0.8610  1.6005 -1.3952
  864MOL0     H16586   7.872   5.530  10.038  3.4406 -2.1864 -1.5434
  864MOL0     H16587   7.802   5.373  10.286 -0.5805 -0.1583  1.7860
  864MOL0     H16588   7.815   5.549  10.260  2.7068  0.1131  1.4230
  864MOL0     H16589   8.042   5.346  10.264  1.1831  0.2089  0.8949
  864MOL0     H16590   8.056   5.507  10.196 -1.9034  0.3584 -2.0868
  864MOL0     H16591   8.256   5.436  10.430  0.6989 -1.0377  3.7274
  864MOL0     H16592   8.191   5.440  10.789 -4.1056  2.3431 -0.4597
  864MOL0     H16593   8.331   5.435  10.673 -0.2252 -0.5853  1.6216
  864MOL0     H16594   8.347   5.684  10.675 -0.0600  2.5263  1.5029
  864MOL0     H16595   8.187   5.679  10.777 -0.1528 -1.3488  2.8359
  864MOL0     H16596   8.437   5.556  10.875 -0.4666 -1.1494  2.0223
  864MOL0     H16597   8.284   5.600  10.943  0.8277  0.1622  0.3820
  864MOL0     H16598   8.286   5.819  10.940 -0.1285  0.4012  1.1394
  864MOL0     H16599   8.415   5.826  10.814  2.1745  2.6136  1.6456
  864MOL0     H16600   8.417   6.041  10.892 -1.1546  0.5343  0.9950
  864MOL0     H16601   8.554   6.226  10.904 -0.4422 -0.8737 -1.0882
  864MOL0     H16602   8.908   6.487  11.160  2.9602 -0.6008 -0.1690
  864MOL0     H16603   9.048   6.699  11.141  0.1108  0.8106 -0.4594
  864MOL0     H16604   9.155   6.883  10.736  1.5429  2.4392  1.4104
  864MOL0     H16605   8.984   6.902  10.770 -0.0056 -0.3557 -1.0375
  864MOL0     H16606   9.123   7.091  10.734 -0.9825 -0.7435  1.3252
  864MOL0     H16607   9.071   7.100  10.908  1.5498  0.4499  1.5884
  864MOL0     H16608   9.303   7.160  10.945  2.4484 -0.2779  0.3398
  864MOL0     H16609   9.301   7.004  10.975  0.3882 -0.9236 -0.9236
  864MOL0     H16610   9.378   7.109  10.699  1.5296 -0.5050  0.6333
  864MOL0     H16611   9.377   6.940  10.751  1.0797 -1.6688  2.0027
  864MOL0     H16612   9.597   7.014  10.781 -0.3643  0.6780 -0.1123
  864MOL0     H16613   9.543   7.010  10.947  1.9195  0.3011  0.3693
  864MOL0     H16614   9.563   7.252  10.764  2.3057  3.5292  1.5033
  864MOL0     H16615   9.516   7.263  10.929  2.5983  0.5392  1.4161
  864MOL0     H16616   9.761   7.310  10.874 -0.8802  1.6312  2.9853
  864MOL0     H16617   9.781   7.128  10.859 -1.2259 -1.4642  0.8634
  864MOL0     H16618   9.697   7.291  11.097  1.3053  0.7552 -1.6118
  864MOL0     H16619   9.694   7.116  11.097 -0.5385  0.1770  0.8668
  864MOL0     H16620   8.980   6.692  10.714 -0.5798  2.5289  1.1056
  864MOL0     H16621   8.842   6.502  10.740 -0.6968  1.5031 -0.2709
  864MOL0     H16622   8.832   6.010  11.156 -1.6288  1.5952  0.3063
  864MOL0     H16623   8.701   5.815  11.152 -2.4942 -1.4459 -1.8031
  864MOL0     H16624   7.069   5.394   9.915 -0.6813  1.7736 -1.9285
  864MOL0     H16625   6.842   5.276   9.916 -1.1758 -1.2451 -0.9564
  864MOL0     H16626   6.614   4.967   9.844  0.6594  0.1283 -1.0072
  864MOL0     H16627   6.383   4.889   9.899  1.3489 -1.7415 -0.4979
  864MOL0     H16628   5.973   4.842   9.708 -0.6242  0.5226 -0.0792
  864MOL0     H16629   6.050   4.942   9.580 -1.5830 -1.1061 -0.7656
  864MOL0     H16630   6.072   5.128   9.736  2.2781 -2.4273 -0.1800
  864MOL0     H16631   6.008   5.025   9.872 -4.4013  0.4213  0.5692
  864MOL0     H16632   5.825   5.169   9.785 -1.0997  1.5047 -3.4418
  864MOL0     H16633   5.812   4.994   9.787 -0.5469  0.4003  2.3491
  864MOL0     H16634   5.827   5.011   9.524  2.0144 -0.5563 -0.9358
  864MOL0     H16635   5.732   5.153   9.583  0.6489  0.5841 -0.3915
  864MOL0     H16636   6.079   5.287   9.398  1.6282  0.5767  2.8355
  864MOL0     H16637   6.241   5.038   9.535 -0.2167  0.3357 -0.7835
  864MOL0     H16638   6.393   5.288   9.485 -0.3318 -0.5724 -0.5581
  864MOL0     H16639   6.541   5.198   9.408 -1.0074  1.7190 -1.8747
  864MOL0     H16640   6.380   5.142   9.387 -0.9990 -1.1643  1.0275
  865MOL0     O16641  11.297   8.490   7.743 -0.6035  0.5772 -0.1972
  865MOL0     C16642  11.214   8.422   7.680  0.0867 -0.8226 -0.0133
  865MOL0     O16643  11.248   8.326   7.580 -0.3638 -0.7309 -0.3742
  865MOL0     C16644  11.380   8.280   7.561  0.0608  0.1460 -0.6554
  865MOL0     C16645  11.394   8.140   7.532 -0.4124 -0.2763  0.9483
  865MOL0     C16646  11.523   8.082   7.510  0.4902  0.1229  0.3934
  865MOL0     C16647  11.633   8.162   7.522 -0.4241  0.9014 -0.3439
  865MOL0     O16648  11.762   8.121   7.535  0.2875 -0.1871  0.2297
  865MOL0     C16649  11.787   7.978   7.550 -0.0986  0.0289  0.9205
  865MOL0     C16650  11.935   7.948   7.588  0.2664  0.1922  0.1422
  865MOL0     C16651  11.995   8.059   7.674 -0.1201 -0.0506 -0.9821
  865MOL0     C16652  12.140   8.039   7.712  0.1812 -0.0448  0.3502
  865MOL0     C16653  12.196   8.164   7.788 -0.1135  0.2356 -0.6815
  865MOL0     C16654  12.347   8.146   7.795  0.1408 -0.0719  0.3297
  865MOL0     C16655  12.407   8.275   7.853 -0.8938  0.7730 -0.1162
  865MOL0     C16656  12.546   8.239   7.924 -0.2364 -0.2042  1.3189
  865MOL0     N16657  12.652   8.200   7.839 -0.4978  0.4691 -0.1176
  865MOL0     C16658  12.770   8.274   7.818  0.8423 -0.2665  0.8026
  865MOL0     C16659  12.839   8.202   7.732  0.3488 -0.0348  0.8066
  865MOL0     C16660  12.971   8.227   7.656  0.0471 -0.1305 -0.6742
  865MOL0     C16661  13.063   8.127   7.736 -0.1555 -0.8048 -0.5039
  865MOL0     C16662  13.203   8.130   7.680 -0.7785 -0.0785 -0.0479
  865MOL0     C16663  13.292   8.057   7.776 -0.3218 -0.0377  0.2777
  865MOL0     O16664  13.314   7.928   7.729 -0.2039 -0.2992 -0.1744
  865MOL0     C16665  13.408   7.853   7.796 -0.2800 -0.1342 -0.2233
  865MOL0     C16666  13.377   7.709   7.797 -0.6051 -0.6395 -0.1969
  865MOL0     C16667  13.455   7.615   7.864  0.6199  0.0579  0.2728
  865MOL0     C16668  13.565   7.657   7.941 -0.2973 -0.2721  0.3861
  865MOL0     C16669  13.646   7.551   8.014 -0.1152  0.3150  0.5319
  865MOL0     O16670  13.588   7.428   8.039 -0.5196 -0.0631 -0.1154
  865MOL0     C16671  13.650   7.351   8.130  1.1832 -0.2361  0.2419
  865MOL0     C16672  13.777   7.295   8.096 -0.0641  0.0607 -0.1618
  865MOL0     C16673  13.830   7.201   8.183  0.9200 -0.1041  0.4329
  865MOL0     C16674  13.767   7.154   8.301  0.0218  0.1462 -0.6247
  865MOL0     O16675  13.815   7.055   8.380  0.0577 -0.8034 -0.3978
  865MOL0     C16676  13.873   6.936   8.314  0.1783 -0.1310 -0.7130
  865MOL0     C16677  13.839   6.818   8.411 -0.3447  0.0121 -1.6099
  865MOL0     C16678  13.929   6.814   8.538 -0.1791  1.1864  0.4790
  865MOL0     C16679  14.070   6.788   8.495  0.2550 -0.1998 -0.6286
  865MOL0     C16680  14.151   6.785   8.625  0.0812 -0.5488  0.0317
  865MOL0     C16681  14.291   6.747   8.597 -0.6165  0.0350  0.2379
  865MOL0     C16682  14.355   6.690   8.721 -0.0029  1.5544  0.5598
  865MOL0     C16683  14.383   6.790   8.832 -0.2148  0.3491  0.1726
  865MOL0    Cl16684  14.495   6.910   8.766  0.1312 -0.0150  0.1671
  865MOL0     C16685  13.643   7.214   8.332  0.4743  0.3151 -0.2551
  865MOL0     C16686  13.588   7.314   8.247 -0.5800 -0.3566 -0.1015
  865MOL0     O16687  13.742   7.600   8.076  0.0574 -0.0253  0.6254
  865MOL0     C16688  13.595   7.796   7.937 -0.9430 -0.2905  0.5809
  865MOL0     C16689  13.523   7.894   7.861  0.5917 -0.1051 -0.7153
  865MOL0     N16690  12.762   8.089   7.702  0.5457 -0.0375  0.2567
  865MOL0     N16691  12.653   8.084   7.764  0.4439  0.2573 -0.0823
  865MOL0     C16692  11.613   8.294   7.554 -0.4418  0.4563  0.1082
  865MOL0     C16693  11.493   8.358   7.570 -0.3877 -0.2442  0.4280
  865MOL0     C16694  11.069   8.445   7.708 -0.2352  1.0590  0.2998
  865MOL0     C16695  10.977   8.347   7.670  0.2772  0.8077 -0.5534
  865MOL0     C16696  10.837   8.360   7.707 -0.2670  0.2330  0.2541
  865MOL0     C16697  10.787   8.469   7.779  0.3689  0.0940  0.2147
  865MOL0     O16698  10.660   8.464   7.826 -0.6635  0.4765 -0.3452
  865MOL0     C16699  10.593   8.585   7.865 -0.0193  0.4610 -0.4014
  865MOL0     C16700  10.435   8.570   7.844 -0.1028  0.2526 -0.0432
  865MOL0     C16701  10.355   8.691   7.889  0.4072 -0.8611  0.1775
  865MOL0     C16702  10.207   8.678   7.878  0.1769  0.5408 -0.3529
  865MOL0     C16703  10.161   8.605   7.761  0.6167  0.3714  0.5661
  865MOL0     C16704  10.116   8.562   7.658  0.3245  0.2480 -0.1913
  865MOL0     C16705  10.887   8.564   7.814  0.9248  0.0378 -0.1672
  865MOL0     C16706  11.021   8.563   7.772  0.1903 -0.0825 -0.0003
  865MOL0     C16707  11.105   8.686   7.809 -0.1866  0.2465 -0.5727
  865MOL0     H16708  11.309   8.074   7.516 -1.8424  2.0047 -1.7942
  865MOL0     H16709  11.534   7.974   7.500  2.2951  0.4798 -2.4536
  865MOL0     H16710  11.724   7.946   7.634 -1.7361 -0.7406 -0.5249
  865MOL0     H16711  11.743   7.922   7.467 -0.8040  1.5437  0.2314
  865MOL0     H16712  12.002   7.924   7.504  0.4560  1.0159  0.0441
  865MOL0     H16713  11.947   7.857   7.647  0.4114  1.0606  1.4907
  865MOL0     H16714  11.932   8.080   7.761  2.1755  0.5129  0.6257
  865MOL0     H16715  12.001   8.152   7.616 -2.1733  1.1711  0.6181
  865MOL0     H16716  12.156   7.945   7.765 -0.4732  0.3205  1.2192
  865MOL0     H16717  12.185   8.026   7.613 -1.5234  0.4229 -0.5400
  865MOL0     H16718  12.170   8.249   7.724  1.5915  0.3263 -1.2915
  865MOL0     H16719  12.140   8.174   7.882 -1.2368  0.5423 -1.3645
  865MOL0     H16720  12.359   8.069   7.871  1.0259  2.0390  2.4537
  865MOL0     H16721  12.395   8.110   7.704  1.5054  0.7265  0.6984
  865MOL0     H16722  12.352   8.305   7.943  0.7802 -0.2791  1.3395
  865MOL0     H16723  12.418   8.351   7.775 -0.5533  2.4200  1.4487
  865MOL0     H16724  12.576   8.330   7.975  4.2447 -1.2912  1.0209
  865MOL0     H16725  12.529   8.164   8.002 -1.2165 -1.7754 -0.3091
  865MOL0     H16726  12.795   8.372   7.858 -1.7759  0.4259  0.9095
  865MOL0     H16727  12.973   8.187   7.554  1.0389 -2.0638  0.0370
  865MOL0     H16728  12.999   8.332   7.651  1.6188 -0.4476  0.5564
  865MOL0     H16729  13.063   8.157   7.841 -0.1781 -2.0399 -0.1413
  865MOL0     H16730  13.023   8.026   7.740 -0.2755 -0.7675  3.6910
  865MOL0     H16731  13.234   8.235   7.675  1.2944 -0.6073  0.6742
  865MOL0     H16732  13.208   8.101   7.574  1.8158  0.2672 -0.0762
  865MOL0     H16733  13.252   8.050   7.878 -0.5724  0.2540  0.2019
  865MOL0     H16734  13.384   8.114   7.788  1.3967 -1.7070 -3.6567
  865MOL0     H16735  13.295   7.678   7.733 -0.7813  1.4248 -1.0286
  865MOL0     H16736  13.419   7.513   7.855 -0.0854  0.3245  0.0401
  865MOL0     H16737  13.833   7.323   8.007 -1.8527 -1.9933 -2.0474
  865MOL0     H16738  13.928   7.166   8.151  1.6021  2.5330 -0.5857
  865MOL0     H16739  13.819   6.913   8.222 -1.4307  0.8413 -0.0515
  865MOL0     H16740  13.979   6.940   8.286 -0.2107 -0.1480 -2.2927
  865MOL0     H16741  13.741   6.816   8.460  0.7244  2.9681  1.0016
  865MOL0     H16742  13.863   6.725   8.358  1.6460 -0.0315 -0.7223
  865MOL0     H16743  13.933   6.910   8.591 -0.3215  1.7768 -0.5453
  865MOL0     H16744  13.885   6.743   8.608 -0.3650  1.6108  0.7983
  865MOL0     H16745  14.110   6.864   8.426  0.5552  1.7128  1.5367
  865MOL0     H16746  14.074   6.688   8.451 -0.1412 -0.6536  0.3612
  865MOL0     H16747  14.112   6.717   8.701  1.3636  0.4046  1.6104
  865MOL0     H16748  14.157   6.883   8.672 -0.3933 -0.2548 -0.5174
  865MOL0     H16749  14.296   6.667   8.522  0.7314 -0.4711  0.8431
  865MOL0     H16750  14.351   6.825   8.548  1.2160 -1.4779 -0.0346
  865MOL0     H16751  14.444   6.632   8.697 -0.8044  1.1383 -1.6518
  865MOL0     H16752  14.282   6.622   8.765  0.9931 -0.7406 -1.1313
  865MOL0     H16753  14.297   6.846   8.868 -0.5787 -1.3688  2.1882
  865MOL0     H16754  14.416   6.736   8.921 -0.2606 -1.4029 -0.8293
  865MOL0     H16755  13.574   7.189   8.412  0.9863  1.2609  0.5121
  865MOL0     H16756  13.488   7.354   8.266 -1.2001 -3.0679  3.5606
  865MOL0     H16757  13.665   7.843   8.005 -2.0992  0.2407  1.4459
  865MOL0     H16758  13.542   8.000   7.879 -2.3347  0.4780 -0.6043
  865MOL0     H16759  11.705   8.350   7.570  0.2142 -1.1083  2.3152
  865MOL0     H16760  11.503   8.465   7.587  1.1920  0.0206 -1.8061
  865MOL0     H16761  10.998   8.254   7.619 -1.6789  0.2208 -0.3777
  865MOL0     H16762  10.779   8.273   7.677 -0.3180 -0.0427  1.1161
  865MOL0     H16763  10.632   8.665   7.802 -0.5465 -1.4767 -3.4053
  865MOL0     H16764  10.620   8.612   7.968 -0.3300  2.1532 -0.7378
  865MOL0     H16765  10.397   8.477   7.887  1.3126 -0.6193 -0.5798
  865MOL0     H16766  10.421   8.554   7.737 -3.6347 -0.7767  0.4642
  865MOL0     H16767  10.393   8.770   7.824  0.4567 -1.0420 -0.0154
  865MOL0     H16768  10.380   8.705   7.994 -0.4571  5.9827 -0.0622
  865MOL0     H16769  10.164   8.620   7.960 -1.7753  0.9157 -1.0730
  865MOL0     H16770  10.156   8.774   7.890 -4.0561 -1.6078  0.6454
  865MOL0     H16771  10.069   8.531   7.567  0.0886  0.5325 -0.1675
  865MOL0     H16772  10.848   8.642   7.879  3.0560 -0.6847  2.1427
  865MOL0     H16773  11.176   8.673   7.891 -0.3269  0.8668 -0.3535
  865MOL0     H16774  11.162   8.727   7.725  1.5100  1.2240  0.9730
  865MOL0     H16775  11.036   8.766   7.836 -1.9474 -0.9482 -1.3107
  866MOL0     O16776   9.653   0.834   5.847 -0.1016  0.2089 -0.3078
  866MOL0     C16777   9.564   0.751   5.844 -0.3335 -0.5888 -0.1507
  866MOL0     O16778   9.584   0.629   5.783  0.1585  0.2152  0.3954
  866MOL0     C16779   9.707   0.599   5.727  0.6126  0.5745 -0.4678
  866MOL0     C16780   9.752   0.471   5.745  0.7635 -0.1199 -0.1817
  866MOL0     C16781   9.874   0.426   5.686 -0.1662  0.5090  0.0478
  866MOL0     C16782   9.947   0.519   5.612 -0.2694  0.6593  0.2621
  866MOL0     O16783  10.078   0.481   5.570 -0.7049 -0.2986  0.0029
  866MOL0     C16784  10.171   0.592   5.569 -0.5436  0.9699 -0.2225
  866MOL0     C16785  10.303   0.540   5.597 -0.1545 -0.2083 -0.0681
  866MOL0     C16786  10.360   0.623   5.711  0.2886 -0.3969 -0.4016
  866MOL0     C16787  10.506   0.579   5.742  0.5437 -0.1599  0.0928
  866MOL0     C16788  10.567   0.676   5.840  0.1272 -0.5270 -0.2639
  866MOL0     C16789  10.681   0.617   5.920 -0.4626  0.6794  1.0896
  866MOL0     C16790  10.720   0.707   6.038  0.3440  0.2286 -1.3176
  866MOL0     C16791  10.844   0.652   6.108 -0.7611  0.2592  0.0595
  866MOL0     N16792  10.978   0.700   6.050  0.7707  0.6298  0.3093
  866MOL0     C16793  11.025   0.649   5.935 -0.9553  0.3658  0.1074
  866MOL0     C16794  11.151   0.694   5.914 -0.1556  0.1711  0.3277
  866MOL0     C16795  11.238   0.660   5.790 -0.0421 -0.6461  0.5393
  866MOL0     C16796  11.339   0.542   5.805  0.0556 -0.5069 -0.7975
  866MOL0     C16797  11.438   0.536   5.679  0.2832 -0.3118  0.2368
  866MOL0     C16798  11.368   0.481   5.556  0.6037 -0.2706 -0.1767
  866MOL0     O16799  11.423   0.534   5.440  0.4827 -0.1761  0.1072
  866MOL0     C16800  11.551   0.494   5.414  0.6520 -0.1305 -0.4444
  866MOL0     C16801  11.627   0.388   5.468  0.1705 -0.7815 -0.3659
  866MOL0     C16802  11.755   0.352   5.423  0.1422 -0.2597  0.9305
  866MOL0     C16803  11.822   0.427   5.318 -0.0369 -0.6531 -0.6368
  866MOL0     C16804  11.954   0.381   5.267  0.2008 -0.2183 -0.5753
  866MOL0     O16805  12.041   0.475   5.227  0.0172 -0.6359  0.4527
  866MOL0     C16806  12.163   0.447   5.183  0.4729  0.0962 -0.9210
  866MOL0     C16807  12.191   0.396   5.055  0.2475 -0.8513 -0.1454
  866MOL0     C16808  12.328   0.371   5.021  0.1238 -0.4378 -0.3623
  866MOL0     C16809  12.431   0.392   5.113 -0.3590  0.1210 -0.0100
  866MOL0     O16810  12.558   0.351   5.075  0.0891 -0.8632  0.4011
  866MOL0     C16811  12.643   0.461   5.051 -0.5487  0.2842 -0.6173
  866MOL0     C16812  12.784   0.427   5.016  0.3482 -0.3804 -0.0707
  866MOL0     C16813  12.873   0.554   5.008 -0.7916 -0.7007  0.3811
  866MOL0     C16814  13.015   0.513   4.970  0.1235  0.9493  0.9348
  866MOL0     C16815  13.119   0.618   4.945  0.2198  0.6945  0.2542
  866MOL0     C16816  13.253   0.548   4.951  0.7032  0.4426  0.1504
  866MOL0     C16817  13.359   0.629   4.879 -0.0891  0.3260  0.3584
  866MOL0     C16818  13.483   0.543   4.863  0.8165  0.0004 -0.4848
  866MOL0    Cl16819  13.625   0.650   4.804  0.0106 -0.2486  0.4248
  866MOL0     C16820  12.406   0.446   5.235 -0.7163 -0.0381 -0.0866
  866MOL0     C16821  12.272   0.475   5.269  0.3801 -0.1187  0.2628
  866MOL0     O16822  11.975   0.267   5.277 -0.2980  0.9076 -0.0067
  866MOL0     C16823  11.737   0.536   5.259 -0.1111  0.2011  0.5953
  866MOL0     C16824  11.611   0.562   5.307  0.8291  0.2211  0.1675
  866MOL0     N16825  11.173   0.789   6.013  0.6909 -0.0518  0.6393
  866MOL0     N16826  11.064   0.792   6.099 -0.9551 -1.0081  0.1532
  866MOL0     C16827   9.892   0.643   5.583  1.3091  0.0120  0.3232
  866MOL0     C16828   9.769   0.681   5.637  0.2967  0.5064 -0.5803
  866MOL0     C16829   9.430   0.783   5.901  0.9538 -0.2624  0.8168
  866MOL0     C16830   9.321   0.697   5.871 -0.4752  0.1652  0.2790
  866MOL0     C16831   9.197   0.726   5.914  0.7528 -0.6839  0.0014
  866MOL0     C16832   9.173   0.843   5.992 -0.7048 -0.5976 -1.2395
  866MOL0     O16833   9.052   0.884   6.040 -0.6902  0.2174 -0.2528
  866MOL0     C16834   8.933   0.819   6.004 -0.4361  0.5591  0.4960
  866MOL0     C16835   8.818   0.897   6.081  0.2801 -0.4079 -1.3357
  866MOL0     C16836   8.685   0.854   6.015  0.1774  0.6546  0.1961
  866MOL0     C16837   8.582   0.969   6.046 -0.6845 -0.8584 -0.3189
  866MOL0     C16838   8.456   0.946   5.974 -0.6475 -0.1534  0.1061
  866MOL0     C16839   8.362   0.920   5.902 -0.5933 -0.5760  0.0496
  866MOL0     C16840   9.273   0.929   6.018 -1.1317 -0.9662 -0.1216
  866MOL0     C16841   9.403   0.898   5.975  0.1298 -0.0716 -0.2855
  866MOL0     C16842   9.512   0.998   6.010  0.2254 -0.3688 -0.1246
  866MOL0     H16843   9.696   0.402   5.807  0.5995  0.6983  0.6010
  866MOL0     H16844   9.905   0.322   5.698 -0.8142  0.3484  0.3781
  866MOL0     H16845  10.165   0.625   5.465  0.1180  1.4783 -0.1061
  866MOL0     H16846  10.140   0.673   5.637 -0.6075  0.6786  0.1007
  866MOL0     H16847  10.360   0.556   5.505  1.6993 -0.6756  0.9441
  866MOL0     H16848  10.306   0.433   5.617 -1.4410 -0.5627 -1.5401
  866MOL0     H16849  10.295   0.625   5.799  0.0955  1.2190 -0.5595
  866MOL0     H16850  10.345   0.723   5.670 -0.0894 -0.7301 -1.0884
  866MOL0     H16851  10.489   0.477   5.777 -0.7505  0.9228  2.9336
  866MOL0     H16852  10.575   0.595   5.658  0.5954  1.8166  0.4577
  866MOL0     H16853  10.613   0.755   5.780 -1.2636 -0.6937 -1.5870
  866MOL0     H16854  10.496   0.728   5.905  2.4827  2.7710 -0.0434
  866MOL0     H16855  10.658   0.519   5.962  1.7132  0.5489  2.1305
  866MOL0     H16856  10.767   0.606   5.852  2.8869 -2.2831  5.2876
  866MOL0     H16857  10.645   0.703   6.118  0.5898 -0.4640 -1.1077
  866MOL0     H16858  10.725   0.816   6.028 -0.4378  1.5859  6.3975
  866MOL0     H16859  10.842   0.677   6.214 -0.8754 -0.1137  0.1462
  866MOL0     H16860  10.848   0.543   6.096  0.0191  0.4099 -1.2909
  866MOL0     H16861  10.971   0.582   5.868 -0.6933  1.2223 -0.9858
  866MOL0     H16862  11.170   0.646   5.705 -2.1305 -1.2517  2.2281
  866MOL0     H16863  11.303   0.745   5.767  0.4927 -1.3372 -0.6281
  866MOL0     H16864  11.404   0.568   5.889 -0.6055 -0.7806 -0.1902
  866MOL0     H16865  11.294   0.446   5.831 -0.1085 -0.2181 -0.0133
  866MOL0     H16866  11.518   0.464   5.698  0.0358 -0.5802  0.2624
  866MOL0     H16867  11.489   0.632   5.665  1.2685 -0.4101  2.6375
  866MOL0     H16868  11.261   0.505   5.563  0.7876  0.4797  0.1128
  866MOL0     H16869  11.372   0.372   5.565  0.2952 -0.3451 -0.8757
  866MOL0     H16870  11.589   0.325   5.548  1.9365  0.8062  1.8874
  866MOL0     H16871  11.807   0.263   5.456 -0.1958 -1.9032 -2.4916
  866MOL0     H16872  12.114   0.389   4.979  0.1238  1.8922 -0.3850
  866MOL0     H16873  12.355   0.327   4.926  3.7982 -0.2989  0.4406
  866MOL0     H16874  12.592   0.504   4.965 -2.6491 -0.0691  0.3795
  866MOL0     H16875  12.641   0.537   5.129 -2.9679  1.3324 -1.5788
  866MOL0     H16876  12.835   0.365   5.090  2.8180  3.1338  1.4027
  866MOL0     H16877  12.788   0.375   4.919 -0.6902  0.3020 -0.4945
  866MOL0     H16878  12.846   0.624   4.929  3.1427 -0.2740 -0.7545
  866MOL0     H16879  12.877   0.604   5.105  0.2317 -1.3943  0.7132
  866MOL0     H16880  13.011   0.461   4.874 -3.2316  1.5149  0.6235
  866MOL0     H16881  13.050   0.446   5.048 -0.1302  0.9861  1.0822
  866MOL0     H16882  13.120   0.696   5.022 -3.0728  1.2523 -0.1236
  866MOL0     H16883  13.092   0.673   4.855 -0.0920 -1.1085 -0.8020
  866MOL0     H16884  13.289   0.516   5.049  1.8059  0.2238 -0.3032
  866MOL0     H16885  13.239   0.455   4.895  0.4212  1.2836 -1.2189
  866MOL0     H16886  13.375   0.716   4.943  1.5179 -0.0903  0.5574
  866MOL0     H16887  13.330   0.661   4.778 -1.6452  3.6652  1.7308
  866MOL0     H16888  13.501   0.485   4.954  2.2167  0.8237 -0.2010
  866MOL0     H16889  13.458   0.481   4.777 -0.2576  3.3298 -2.8022
  866MOL0     H16890  12.494   0.477   5.290 -0.0552  1.1165 -1.7375
  866MOL0     H16891  12.258   0.525   5.364  1.2114 -0.1145  0.3969
  866MOL0     H16892  11.763   0.577   5.163 -0.1280 -1.3872 -0.1119
  866MOL0     H16893  11.558   0.642   5.256  1.2973 -0.3893 -1.3530
  866MOL0     H16894   9.927   0.708   5.504 -0.5793 -1.0620 -1.5215
  866MOL0     H16895   9.706   0.769   5.624  0.6379  1.9367  4.9065
  866MOL0     H16896   9.340   0.612   5.807 -2.6908 -0.2425  0.0953
  866MOL0     H16897   9.120   0.653   5.891  2.1326 -2.6079  1.1585
  866MOL0     H16898   8.935   0.712   6.026  1.5512  0.5665  0.4821
  866MOL0     H16899   8.917   0.829   5.896 -0.8086 -2.7330  0.1497
  866MOL0     H16900   8.843   1.004   6.076  0.1476 -0.2982 -0.0559
  866MOL0     H16901   8.811   0.885   6.190  1.1015  2.2420 -0.9058
  866MOL0     H16902   8.655   0.753   6.044 -0.4774 -0.0860 -2.7406
  866MOL0     H16903   8.703   0.847   5.907  1.1864 -2.6123  0.4673
  866MOL0     H16904   8.561   0.976   6.154 -2.7474  0.6178 -0.7557
  866MOL0     H16905   8.615   1.068   6.015 -2.5498  0.0294  0.3626
  866MOL0     H16906   8.284   0.889   5.835  0.7054 -0.8788 -1.4085
  866MOL0     H16907   9.248   1.017   6.076 -0.9725  0.1518 -1.6894
  866MOL0     H16908   9.540   1.049   5.917 -1.4394  2.0827  0.6118
  866MOL0     H16909   9.473   1.078   6.074  0.0574 -0.0077 -0.6660
  866MOL0     H16910   9.593   0.952   6.066 -1.0085  0.3375  2.3555
  867MOL0     O16911   7.931   3.675   5.759  0.5713 -0.0235 -0.4605
  867MOL0     C16912   7.851   3.581   5.736  0.1205  0.8026 -0.6360
  867MOL0     O16913   7.883   3.454   5.750 -0.6087 -0.3172 -0.0483
  867MOL0     C16914   7.984   3.412   5.827  0.1376  0.5153  0.9659
  867MOL0     C16915   7.972   3.289   5.892 -0.5890 -0.6337 -0.3814
  867MOL0     C16916   8.081   3.228   5.960 -0.2387  0.2028  0.5614
  867MOL0     C16917   8.206   3.284   5.942 -0.9487  0.4785 -0.2545
  867MOL0     O16918   8.309   3.226   6.010 -0.3065  0.2318 -0.9135
  867MOL0     C16919   8.391   3.301   6.100 -0.1643 -0.4844  0.7848
  867MOL0     C16920   8.302   3.386   6.193 -0.0201 -0.0872  0.4399
  867MOL0     C16921   8.392   3.455   6.285  0.6208 -0.4976  0.2693
  867MOL0     C16922   8.316   3.548   6.386  0.4640 -0.0219  0.6490
  867MOL0     C16923   8.402   3.581   6.501  0.8790 -0.0279  0.9964
  867MOL0     C16924   8.323   3.637   6.619  0.1896  0.5914  0.0938
  867MOL0     C16925   8.410   3.672   6.742 -0.3209 -0.3072 -0.3449
  867MOL0     C16926   8.451   3.554   6.833 -1.5063  0.4788  0.1071
  867MOL0     N16927   8.490   3.609   6.966  0.2330 -0.2018  0.5804
  867MOL0     C16928   8.574   3.707   7.006  0.8537 -0.4430  0.1912
  867MOL0     C16929   8.567   3.708   7.144  0.0379 -0.0097  0.4475
  867MOL0     C16930   8.652   3.791   7.236  0.9390 -0.5063  0.3503
  867MOL0     C16931   8.770   3.708   7.294  0.4610  0.2630  0.0178
  867MOL0     C16932   8.873   3.669   7.187 -0.1985  0.1167  1.3372
  867MOL0     C16933   9.014   3.626   7.228 -0.4168  0.1704 -0.2403
  867MOL0     O16934   9.071   3.702   7.335 -1.0118 -0.3836 -0.0916
  867MOL0     C16935   9.086   3.835   7.332  0.6188 -0.1859  0.2719
  867MOL0     C16936   9.089   3.914   7.217  0.5333 -0.2040 -0.2251
  867MOL0     C16937   9.099   4.055   7.230 -0.2942  0.4432  0.5770
  867MOL0     C16938   9.098   4.127   7.354  0.0548  0.5729  0.3254
  867MOL0     C16939   9.116   4.270   7.356  0.2149 -0.1493 -0.8967
  867MOL0     O16940   9.145   4.321   7.485  0.1795 -0.7401 -0.8173
  867MOL0     C16941   9.159   4.454   7.497 -0.8572 -0.6432 -0.7201
  867MOL0     C16942   9.063   4.547   7.461 -0.2133  0.0431  0.2865
  867MOL0     C16943   9.079   4.679   7.484 -0.3250  0.1278 -0.1203
  867MOL0     C16944   9.183   4.731   7.558  0.2731 -0.1949 -0.2135
  867MOL0     O16945   9.189   4.867   7.578 -0.8127 -0.0612 -0.0050
  867MOL0     C16946   9.233   4.944   7.688 -0.2284  1.1281  0.8627
  867MOL0     C16947   9.246   5.089   7.643 -0.4052 -0.3946 -0.7884
  867MOL0     C16948   9.176   5.188   7.735 -0.3163  0.8752  0.8048
  867MOL0     C16949   9.216   5.332   7.703  0.1672  0.1943 -0.1896
  867MOL0     C16950   9.110   5.447   7.730 -0.2349  0.7375  0.4830
  867MOL0     C16951   9.169   5.578   7.796  0.2443 -0.1461 -0.0508
  867MOL0     C16952   9.251   5.649   7.694 -0.8927 -0.4951 -0.5500
  867MOL0     C16953   9.276   5.803   7.718  0.2476  0.1694  0.0667
  867MOL0    Cl16954   9.111   5.876   7.706 -0.0575 -0.0407 -0.0424
  867MOL0     C16955   9.263   4.637   7.617 -0.4215  0.5145 -0.2736
  867MOL0     C16956   9.252   4.499   7.589 -0.3238  0.2466  0.5254
  867MOL0     O16957   9.099   4.338   7.254  0.4102 -0.2284 -0.0305
  867MOL0     C16958   9.104   4.040   7.463 -0.3052  0.4706 -0.3323
  867MOL0     C16959   9.093   3.897   7.457 -0.4216  0.0043  1.1214
  867MOL0     N16960   8.458   3.635   7.179  0.1687 -0.2350  0.9010
  867MOL0     N16961   8.415   3.574   7.076 -0.0803  1.0903 -0.4343
  867MOL0     C16962   8.225   3.394   5.864 -0.0384 -0.4575 -0.1181
  867MOL0     C16963   8.121   3.463   5.816  0.7011 -0.1608  0.6861
  867MOL0     C16964   7.717   3.618   5.687  0.2595  1.2762  0.0652
  867MOL0     C16965   7.674   3.750   5.665  0.3840  0.6222  0.3889
  867MOL0     C16966   7.546   3.779   5.616  0.2278 -0.4180  0.0386
  867MOL0     C16967   7.450   3.679   5.582 -0.6487  0.5978  0.1146
  867MOL0     O16968   7.320   3.699   5.552  0.2261 -1.0038 -0.1320
  867MOL0     C16969   7.285   3.825   5.496  0.3571  0.3874 -0.6265
  867MOL0     C16970   7.136   3.818   5.472 -0.2563  0.1120 -0.0728
  867MOL0     C16971   7.050   3.798   5.600 -0.6123  0.9861 -0.2151
  867MOL0     C16972   6.914   3.871   5.580 -0.2613 -0.0855  0.3704
  867MOL0     C16973   6.816   3.836   5.685  0.9975  0.4320  0.0336
  867MOL0     C16974   6.752   3.821   5.789 -0.2127 -0.0059  0.3689
  867MOL0     C16975   7.493   3.548   5.602 -0.3857  1.1518  0.3323
  867MOL0     C16976   7.617   3.513   5.655 -0.0905 -0.1375  0.4425
  867MOL0     C16977   7.640   3.363   5.656 -0.2762 -0.2653  0.9411
  867MOL0     H16978   7.866   3.263   5.893 -1.2289  1.2751 -3.5727
  867MOL0     H16979   8.077   3.142   6.026  2.4151 -0.3808  0.0928
  867MOL0     H16980   8.441   3.226   6.161  0.1924 -1.3581 -0.5284
  867MOL0     H16981   8.454   3.364   6.036 -2.0997  0.2868 -0.4671
  867MOL0     H16982   8.230   3.323   6.247 -2.5605  1.7632 -0.5982
  867MOL0     H16983   8.241   3.455   6.135 -0.4230 -0.1759  0.7509
  867MOL0     H16984   8.478   3.500   6.234  1.2186 -0.2793  1.4278
  867MOL0     H16985   8.442   3.372   6.337  1.2623 -1.9134 -2.4320
  867MOL0     H16986   8.281   3.641   6.342  0.1146 -0.0374  0.8913
  867MOL0     H16987   8.229   3.488   6.416  0.5259 -0.9832 -0.9676
  867MOL0     H16988   8.465   3.498   6.536  0.2899 -0.8645  0.0917
  867MOL0     H16989   8.476   3.657   6.475 -0.5551  0.8226 -0.8149
  867MOL0     H16990   8.276   3.733   6.595 -0.5625 -0.0613 -1.1389
  867MOL0     H16991   8.245   3.570   6.656 -1.4180  2.3450  0.0623
  867MOL0     H16992   8.360   3.739   6.812 -0.4657  0.5291 -1.2185
  867MOL0     H16993   8.503   3.720   6.710 -0.8520 -0.0577 -1.5768
  867MOL0     H16994   8.373   3.478   6.825  0.0975 -1.1797 -0.5719
  867MOL0     H16995   8.536   3.505   6.784 -1.8070  1.9902 -2.0650
  867MOL0     H16996   8.640   3.773   6.948  2.0448  0.0427  2.0190
  867MOL0     H16997   8.683   3.885   7.190 -1.7288  1.1554  1.7146
  867MOL0     H16998   8.590   3.818   7.322 -0.6333 -3.4239  0.2970
  867MOL0     H16999   8.817   3.780   7.362 -0.3031  0.1879  0.6324
  867MOL0     H17000   8.728   3.626   7.352  0.2933  0.6147  0.3961
  867MOL0     H17001   8.886   3.750   7.114 -5.3976  1.5755  1.6169
  867MOL0     H17002   8.842   3.584   7.126  0.6032  0.5977  0.2253
  867MOL0     H17003   9.081   3.615   7.143  2.0064 -1.5292  1.7382
  867MOL0     H17004   9.004   3.526   7.271  3.0519 -0.5619 -0.8582
  867MOL0     H17005   9.079   3.868   7.119  0.2672 -2.2265  0.7071
  867MOL0     H17006   9.090   4.117   7.141  0.1828  0.5523  0.6027
  867MOL0     H17007   8.970   4.523   7.411  0.6124  0.8407 -1.7295
  867MOL0     H17008   9.005   4.754   7.455 -1.8577 -1.0857  0.4986
  867MOL0     H17009   9.161   4.929   7.769  1.2514 -0.0002  2.0394
  867MOL0     H17010   9.332   4.917   7.726 -1.1777 -0.2118  2.5248
  867MOL0     H17011   9.354   5.109   7.643 -0.0369 -2.0623  1.4796
  867MOL0     H17012   9.203   5.103   7.543  1.3371  1.7343 -1.3067
  867MOL0     H17013   9.072   5.177   7.702 -1.0234  0.5611  2.9409
  867MOL0     H17014   9.192   5.170   7.842  1.8728  1.3153  0.6092
  867MOL0     H17015   9.245   5.341   7.598  0.0118 -0.8106 -0.3281
  867MOL0     H17016   9.304   5.351   7.766 -1.3687 -1.0061  2.5071
  867MOL0     H17017   9.033   5.407   7.796 -2.7868 -0.1076 -2.7432
  867MOL0     H17018   9.054   5.477   7.640  0.8834  0.6751 -0.2485
  867MOL0     H17019   9.094   5.649   7.834 -0.6519 -1.2550  0.3196
  867MOL0     H17020   9.227   5.543   7.881 -0.9933 -0.9188  0.5096
  867MOL0     H17021   9.212   5.651   7.592  1.0423  0.6818 -1.3334
  867MOL0     H17022   9.340   5.585   7.690 -2.2593 -2.6346  1.1761
  867MOL0     H17023   9.324   5.822   7.814  0.2756 -2.6815  0.7139
  867MOL0     H17024   9.339   5.840   7.636 -2.2140 -1.0882 -2.5661
  867MOL0     H17025   9.339   4.677   7.684  4.1590  0.0552 -4.6484
  867MOL0     H17026   9.329   4.439   7.637  2.3607  1.8541 -1.4684
  867MOL0     H17027   9.114   4.075   7.565 -0.4289 -2.5612  0.8254
  867MOL0     H17028   9.108   3.829   7.541  0.3355 -1.0728  0.1348
  867MOL0     H17029   8.330   3.414   5.848  1.0350 -4.2885  1.0262
  867MOL0     H17030   8.134   3.555   5.760 -0.0124 -1.3365 -1.5237
  867MOL0     H17031   7.738   3.836   5.679  2.1075 -0.2665 -1.3775
  867MOL0     H17032   7.519   3.883   5.605  1.0249 -0.0258  1.5598
  867MOL0     H17033   7.347   3.844   5.408 -1.2901 -2.3104 -2.5306
  867MOL0     H17034   7.300   3.908   5.566 -2.0455 -0.4791  1.0685
  867MOL0     H17035   7.110   3.725   5.421 -2.2218 -1.8380  3.9768
  867MOL0     H17036   7.102   3.906   5.417  2.8693  2.0558  0.8417
  867MOL0     H17037   7.105   3.827   5.691  0.7015 -1.9991  0.0632
  867MOL0     H17038   7.034   3.692   5.618  5.0189 -0.0484  0.7533
  867MOL0     H17039   6.923   3.980   5.590 -1.8663 -0.0833  2.5661
  867MOL0     H17040   6.874   3.846   5.482 -4.0078  1.7608  1.2566
  867MOL0     H17041   6.710   3.811   5.887 -2.4725  1.6200 -0.3559
  867MOL0     H17042   7.413   3.478   5.576  0.7635  1.2480 -4.3097
  867MOL0     H17043   7.544   3.310   5.656  0.4387 -1.6119  1.5598
  867MOL0     H17044   7.696   3.340   5.564  0.3942 -0.6973  1.4467
  867MOL0     H17045   7.685   3.318   5.745  1.4713  0.7208  0.5950
  868MOL0     O17046   6.879   6.835   4.192  0.4220  0.2360 -0.2656
  868MOL0     C17047   6.835   6.952   4.182 -0.4965 -0.0249 -0.0423
  868MOL0     O17048   6.917   7.053   4.143 -0.2094 -0.7562  0.0468
  868MOL0     C17049   7.057   7.038   4.161  0.4222 -0.5777 -0.4650
  868MOL0     C17050   7.131   7.033   4.047 -0.7593  0.1166 -0.0999
  868MOL0     C17051   7.270   7.039   4.048  0.2457 -0.0357 -0.4184
  868MOL0     C17052   7.333   7.046   4.174  0.2783 -0.0196 -0.1354
  868MOL0     O17053   7.471   7.051   4.195 -0.0377 -0.1976  0.8945
  868MOL0     C17054   7.550   7.083   4.077  0.5509 -0.0829  0.6486
  868MOL0     C17055   7.693   7.121   4.117  0.0170 -0.7864 -0.2828
  868MOL0     C17056   7.792   7.110   4.001  1.3971  0.0228 -0.0159
  868MOL0     C17057   7.928   7.182   4.026 -0.1950  0.1591  0.2309
  868MOL0     C17058   8.027   7.091   4.109  0.2341 -0.4341 -1.1241
  868MOL0     C17059   8.160   7.161   4.123 -0.3865  0.2032 -0.1153
  868MOL0     C17060   8.217   7.198   3.991 -0.1821 -1.1849  0.1512
  868MOL0     C17061   8.242   7.070   3.912 -0.3709 -0.4344 -0.4093
  868MOL0     N17062   8.324   7.107   3.801  0.2096  0.3506  0.3388
  868MOL0     C17063   8.271   7.144   3.678 -0.1410 -0.1273  0.0871
  868MOL0     C17064   8.377   7.173   3.603 -0.3720  0.1684 -0.1134
  868MOL0     C17065   8.390   7.225   3.462  0.1830 -0.1539 -0.2608
  868MOL0     C17066   8.288   7.330   3.430  0.3847 -0.0182  0.0376
  868MOL0     C17067   8.341   7.475   3.427 -0.2896 -0.2736 -0.3296
  868MOL0     C17068   8.232   7.582   3.444 -0.3139 -0.0090  0.0943
  868MOL0     O17069   8.312   7.698   3.463 -0.0934  0.5053 -0.2901
  868MOL0     C17070   8.250   7.810   3.421  1.0281  0.1558 -0.6404
  868MOL0     C17071   8.126   7.845   3.479 -0.1325  0.3291  0.4455
  868MOL0     C17072   8.054   7.955   3.420  0.5377 -0.0784  0.2901
  868MOL0     C17073   8.104   8.029   3.315 -0.1589 -0.0261  0.3152
  868MOL0     C17074   8.029   8.150   3.276  0.2276 -0.6035  0.3691
  868MOL0     O17075   7.899   8.170   3.330  0.5299  0.0055  0.3749
  868MOL0     C17076   7.853   8.292   3.327  0.6290 -0.0247  0.4283
  868MOL0     C17077   7.924   8.392   3.387 -0.8957  0.5348 -0.4393
  868MOL0     C17078   7.864   8.516   3.394  0.4521  0.2988  0.3575
  868MOL0     C17079   7.744   8.549   3.331  0.0161  0.4353  0.4163
  868MOL0     O17080   7.680   8.671   3.339  0.2198 -0.9703  0.7446
  868MOL0     C17081   7.720   8.775   3.428  0.1710  0.0039  0.3437
  868MOL0     C17082   7.620   8.895   3.400 -0.3685  0.4435  0.5648
  868MOL0     C17083   7.629   9.004   3.501  0.4897  1.1183 -0.6434
  868MOL0     C17084   7.764   9.077   3.501 -0.1919  0.0125 -0.5437
  868MOL0     C17085   7.777   9.183   3.391 -0.5814  0.9576  0.5519
  868MOL0     C17086   7.891   9.281   3.419  0.0434  0.5968  0.5402
  868MOL0     C17087   8.038   9.241   3.412  0.2277 -0.7328  0.0256
  868MOL0     C17088   8.089   9.183   3.275  0.5043 -0.6667 -0.8101
  868MOL0    Cl17089   8.263   9.139   3.266  0.0543 -0.2563 -0.8153
  868MOL0     C17090   7.671   8.445   3.267  0.7144  0.7454  0.9849
  868MOL0     C17091   7.730   8.314   3.268  0.0034  0.3407 -0.2671
  868MOL0     O17092   8.076   8.207   3.176  0.0030  0.9616 -0.4272
  868MOL0     C17093   8.226   7.994   3.266  0.8304 -1.0657 -0.5610
  868MOL0     C17094   8.293   7.880   3.313 -0.9378  0.3687 -0.3166
  868MOL0     N17095   8.493   7.153   3.675  0.4337 -0.0449 -0.7242
  868MOL0     N17096   8.458   7.116   3.797  0.0829  0.3039 -1.0019
  868MOL0     C17097   7.261   7.020   4.291  0.4274 -0.4205  0.6511
  868MOL0     C17098   7.118   7.022   4.282  0.6215  0.2017 -0.3119
  868MOL0     C17099   6.705   6.989   4.226 -0.1071  0.1111  0.3877
  868MOL0     C17100   6.675   7.125   4.249  0.3999 -0.3199 -0.0327
  868MOL0     C17101   6.555   7.163   4.294 -0.1063 -0.1607  0.1986
  868MOL0     C17102   6.448   7.073   4.328 -0.0374 -0.1061 -0.6521
  868MOL0     O17103   6.320   7.114   4.340 -0.5566  0.0414 -0.4073
  868MOL0     C17104   6.230   7.024   4.411  0.4687  0.8423 -0.3936
  868MOL0     C17105   6.255   6.998   4.555  1.1675  0.1694 -0.0438
  868MOL0     C17106   6.246   7.134   4.629  0.4476  0.2183  0.1616
  868MOL0     C17107   6.250   7.097   4.774  0.7285 -0.7882  0.1609
  868MOL0     C17108   6.131   7.036   4.825  1.4221 -0.4530 -0.5075
  868MOL0     C17109   6.022   6.997   4.874 -0.0102 -0.7862 -0.9552
  868MOL0     C17110   6.484   6.939   4.307 -0.1154  0.5381  0.5995
  868MOL0     C17111   6.601   6.892   4.250  0.0224 -0.2296  1.0852
  868MOL0     C17112   6.612   6.744   4.203  0.0950  0.7573  0.1159
  868MOL0     H17113   7.081   7.040   3.951  0.9118  2.8113 -0.9151
  868MOL0     H17114   7.332   7.038   3.959 -0.6147 -1.9006 -1.0376
  868MOL0     H17115   7.560   6.989   4.022 -0.7232  0.0711  0.1054
  868MOL0     H17116   7.495   7.156   4.017 -1.0349  0.7284  2.9275
  868MOL0     H17117   7.729   7.051   4.193 -0.6781 -1.2008 -0.3314
  868MOL0     H17118   7.697   7.225   4.150  0.3367 -0.5867 -0.9255
  868MOL0     H17119   7.744   7.150   3.910 -1.7003  0.9346  1.8669
  868MOL0     H17120   7.814   7.006   3.976  0.9344  0.5653 -3.1116
  868MOL0     H17121   7.969   7.179   3.925  3.0325 -0.3980  1.4435
  868MOL0     H17122   7.909   7.286   4.056 -0.3478  0.7186 -1.6766
  868MOL0     H17123   7.986   7.066   4.208  1.7597  0.6317 -0.1924
  868MOL0     H17124   8.035   6.994   4.058 -2.1965 -0.7273 -1.0687
  868MOL0     H17125   8.146   7.256   4.177  1.7661  0.8990 -0.6782
  868MOL0     H17126   8.233   7.099   4.176 -0.4178  0.2839  0.0245
  868MOL0     H17127   8.313   7.249   4.001 -0.2383 -0.9660 -0.3895
  868MOL0     H17128   8.153   7.258   3.925  0.4888 -0.5989  0.0256
  868MOL0     H17129   8.295   6.994   3.970  0.4260 -0.7390 -1.5092
  868MOL0     H17130   8.147   7.027   3.879  0.2831 -3.7811  1.5664
  868MOL0     H17131   8.163   7.142   3.660 -0.3158 -0.7917  1.1333
  868MOL0     H17132   8.485   7.278   3.463  0.3747 -0.4947 -0.1809
  868MOL0     H17133   8.396   7.148   3.384 -1.6042 -0.3315 -0.2677
  868MOL0     H17134   8.240   7.301   3.336 -0.0569 -1.3175  0.6406
  868MOL0     H17135   8.203   7.323   3.498 -0.0288 -2.4225 -0.6507
  868MOL0     H17136   8.387   7.489   3.329  0.2968  3.2554  0.3091
  868MOL0     H17137   8.428   7.493   3.491  2.5227 -3.5751 -2.9216
  868MOL0     H17138   8.191   7.553   3.541 -0.1403 -4.2184 -0.8956
  868MOL0     H17139   8.157   7.584   3.365 -1.0939 -0.9587  0.7909
  868MOL0     H17140   8.087   7.785   3.561  0.8046  0.3608  0.9231
  868MOL0     H17141   7.957   7.971   3.465  0.3228 -1.4145  0.3499
  868MOL0     H17142   8.020   8.375   3.434  0.0522  1.5462 -1.9266
  868MOL0     H17143   7.919   8.597   3.443  2.9288 -0.9110 -0.2705
  868MOL0     H17144   7.707   8.744   3.532 -2.1047  2.1428  0.7963
  868MOL0     H17145   7.824   8.795   3.403  0.4884 -1.7366  0.1064
  868MOL0     H17146   7.638   8.942   3.303  4.5835 -0.5899  0.7389
  868MOL0     H17147   7.528   8.838   3.387 -0.9059  1.3242  0.4554
  868MOL0     H17148   7.544   9.068   3.477 -0.1897  0.3074 -0.4785
  868MOL0     H17149   7.612   8.952   3.596  2.4356  0.4281 -0.6255
  868MOL0     H17150   7.857   9.020   3.492 -0.8540 -1.0227 -1.0556
  868MOL0     H17151   7.762   9.119   3.602 -2.0753 -0.6346 -0.2760
  868MOL0     H17152   7.679   9.226   3.369 -0.8115  0.0014 -0.3761
  868MOL0     H17153   7.802   9.142   3.293 -0.0143  2.1702  0.1704
  868MOL0     H17154   7.891   9.371   3.357 -0.7754  0.2695  0.0546
  868MOL0     H17155   7.878   9.327   3.518  4.6954  1.8476  0.7946
  868MOL0     H17156   8.063   9.157   3.478  2.7710 -1.6943 -2.0037
  868MOL0     H17157   8.099   9.321   3.455 -2.4655 -0.2501  3.3723
  868MOL0     H17158   8.022   9.103   3.243  0.7486  0.0864 -3.4168
  868MOL0     H17159   8.080   9.259   3.196 -1.4340 -0.7567 -0.7187
  868MOL0     H17160   7.569   8.467   3.234  0.8821  1.4823  0.9474
  868MOL0     H17161   7.671   8.229   3.233  1.5064 -0.9621  0.2151
  868MOL0     H17162   8.283   8.053   3.196  0.3878 -0.4411 -0.4042
  868MOL0     H17163   8.390   7.844   3.280  0.3735 -0.6801  4.0154
  868MOL0     H17164   7.313   7.007   4.385 -0.2684 -1.6059  0.8952
  868MOL0     H17165   7.059   7.007   4.372 -0.5201 -1.8074 -1.3209
  868MOL0     H17166   6.752   7.201   4.237  1.3742 -1.5863 -2.4138
  868MOL0     H17167   6.537   7.270   4.289  0.0752 -0.0606  1.3614
  868MOL0     H17168   6.219   6.938   4.345  0.9041  0.1517  0.4223
  868MOL0     H17169   6.132   7.070   4.396  0.6022  1.3196  0.1609
  868MOL0     H17170   6.350   6.946   4.568  1.5264  0.6590 -0.6913
  868MOL0     H17171   6.176   6.932   4.592  1.5346  0.6042  1.5978
  868MOL0     H17172   6.152   7.189   4.612  0.0977 -0.7539 -1.1794
  868MOL0     H17173   6.320   7.208   4.598 -0.5150  2.2287  2.3209
  868MOL0     H17174   6.336   7.032   4.790  0.8001 -0.4284  1.3834
  868MOL0     H17175   6.264   7.188   4.833  1.3644 -0.3943 -0.5766
  868MOL0     H17176   5.924   6.974   4.913 -0.1731  0.4402 -0.5787
  868MOL0     H17177   6.411   6.860   4.319  2.9084 -2.3165  1.7397
  868MOL0     H17178   6.682   6.742   4.119  1.0156  0.1141  0.8877
  868MOL0     H17179   6.646   6.688   4.291  1.3380 -0.3538 -1.0294
  868MOL0     H17180   6.518   6.703   4.165  0.4025  0.2485 -0.1107
  869MOL0     O17181   4.738  11.064   3.000 -0.0989  0.0653  0.0193
  869MOL0     C17182   4.746  10.974   3.082 -0.9801  0.7680 -0.6304
  869MOL0     O17183   4.861  10.898   3.113  0.0315 -0.0716  0.2097
  869MOL0     C17184   4.984  10.937   3.049  0.1172 -0.5007  0.0721
  869MOL0     C17185   5.067  11.032   3.112 -0.5219  1.0376 -0.0664
  869MOL0     C17186   5.180  11.076   3.047 -0.5653  0.9673  0.8570
  869MOL0     C17187   5.228  11.013   2.928  0.5502 -0.1026  0.4696
  869MOL0     O17188   5.340  11.050   2.864  0.0331  0.3697 -1.1442
  869MOL0     C17189   5.428  11.149   2.916 -0.4897 -0.5282  0.6570
  869MOL0     C17190   5.553  11.163   2.832 -0.9261  0.4035 -0.2564
  869MOL0     C17191   5.649  11.040   2.837  0.1235  0.8070  0.2222
  869MOL0     C17192   5.710  11.007   2.698 -0.5051 -0.1194 -0.6759
  869MOL0     C17193   5.860  11.052   2.681  0.0467  0.9396 -0.0895
  869MOL0     C17194   5.882  11.204   2.680 -0.7204 -0.7550  0.2619
  869MOL0     C17195   6.028  11.257   2.702  0.1069 -0.3342  0.2676
  869MOL0     C17196   6.026  11.410   2.711 -0.4370  0.3926 -0.2073
  869MOL0     N17197   6.161  11.465   2.733 -0.7551  0.0509 -0.1493
  869MOL0     C17198   6.251  11.499   2.636  0.5509  0.4209 -0.8483
  869MOL0     C17199   6.368  11.510   2.700  0.0778 -0.2359 -0.4412
  869MOL0     C17200   6.498  11.562   2.644  0.0497  0.1964 -0.0280
  869MOL0     C17201   6.613  11.534   2.744  0.0478 -0.5084  1.6230
  869MOL0     C17202   6.742  11.581   2.674  0.3461  0.5264 -0.0565
  869MOL0     C17203   6.858  11.540   2.773 -0.0915 -0.5728  0.6359
  869MOL0     O17204   6.981  11.537   2.694 -0.0010 -0.1800  0.9700
  869MOL0     C17205   7.099  11.508   2.750 -1.4005  0.3371  0.4152
  869MOL0     C17206   7.103  11.431   2.870  0.1166  1.1574 -0.0010
  869MOL0     C17207   7.223  11.406   2.934 -0.5699 -0.5570 -0.5837
  869MOL0     C17208   7.346  11.436   2.874 -0.9163  0.5913 -0.3943
  869MOL0     C17209   7.485  11.418   2.940  0.4516  0.1779 -0.2658
  869MOL0     O17210   7.584  11.492   2.879 -0.1951 -0.2611  0.2673
  869MOL0     C17211   7.702  11.462   2.944 -0.0370 -0.3342 -0.0070
  869MOL0     C17212   7.752  11.543   3.044 -0.4486 -1.1047 -0.3956
  869MOL0     C17213   7.877  11.518   3.111  0.4565 -0.6169 -0.3329
  869MOL0     C17214   7.944  11.401   3.071 -0.6067  0.3406 -0.0543
  869MOL0     O17215   8.063  11.375   3.123 -0.2062  0.3721 -0.6482
  869MOL0     C17216   8.174  11.454   3.081  0.0707  0.3994  0.5833
  869MOL0     C17217   8.305  11.410   3.141 -0.2699  0.2281 -0.9704
  869MOL0     C17218   8.319  11.267   3.189 -0.2984  1.1629 -0.4698
  869MOL0     C17219   8.326  11.183   3.064  0.2853  0.3563 -0.3747
  869MOL0     C17220   8.272  11.046   3.098  0.2711 -0.0657  0.2222
  869MOL0     C17221   8.280  10.949   2.976  0.0316  0.2640 -0.6211
  869MOL0     C17222   8.203  10.820   2.983 -0.0304 -1.0047  0.9203
  869MOL0     C17223   8.062  10.824   2.909  0.0406 -0.3175  0.1680
  869MOL0    Cl17224   8.065  10.881   2.735 -0.1132 -0.3789 -0.2999
  869MOL0     C17225   7.898  11.322   2.969  0.1143 -0.7200 -1.4856
  869MOL0     C17226   7.781  11.349   2.902 -0.7863 -0.3383 -0.8394
  869MOL0     O17227   7.497  11.342   3.038  0.0107 -0.2581  0.9882
  869MOL0     C17228   7.343  11.501   2.747 -0.8777 -0.1017  0.0810
  869MOL0     C17229   7.221  11.530   2.686 -0.9055  0.5446  0.4591
  869MOL0     N17230   6.344  11.494   2.833 -0.0366 -0.2456 -0.4768
  869MOL0     N17231   6.225  11.465   2.852  0.3590 -0.0223 -0.2511
  869MOL0     C17232   5.146  10.910   2.869 -0.6156 -0.1964  0.2513
  869MOL0     C17233   5.023  10.878   2.935  0.3983  0.2580  0.9286
  869MOL0     C17234   4.619  10.948   3.157  0.6745 -0.2361  0.2938
  869MOL0     C17235   4.634  10.863   3.274  1.3178  0.6626  0.0020
  869MOL0     C17236   4.519  10.835   3.351  0.0670  0.8054  0.5928
  869MOL0     C17237   4.393  10.872   3.303 -0.5654  0.5458 -0.7466
  869MOL0     O17238   4.288  10.819   3.376  0.2040  0.3773 -0.3567
  869MOL0     C17239   4.157  10.828   3.312  0.0015  0.3235  0.5600
  869MOL0     C17240   4.068  10.740   3.392 -0.2352 -0.2758  0.3770
  869MOL0     C17241   3.987  10.644   3.305  0.3296 -0.2092  0.6159
  869MOL0     C17242   3.899  10.549   3.391  0.3126 -0.6419 -0.1871
  869MOL0     C17243   3.797  10.616   3.482 -0.9176 -0.1098 -0.1578
  869MOL0     C17244   3.715  10.677   3.554 -0.5161  0.7465 -0.0826
  869MOL0     C17245   4.376  10.957   3.193  0.5422  0.9246 -0.0111
  869MOL0     C17246   4.490  10.998   3.121 -0.5046  0.5531 -0.2851
  869MOL0     C17247   4.472  11.096   3.013 -0.0350 -0.6976  0.6383
  869MOL0     H17248   5.044  11.085   3.204  0.5759 -0.8893  1.3884
  869MOL0     H17249   5.242  11.154   3.092  0.2765  0.7678  0.0794
  869MOL0     H17250   5.382  11.248   2.920 -1.3871 -0.8041 -1.7551
  869MOL0     H17251   5.463  11.116   3.015  2.3348 -1.5796 -0.5886
  869MOL0     H17252   5.620  11.237   2.878 -1.4127 -0.0281  1.2059
  869MOL0     H17253   5.530  11.192   2.730 -1.3581 -1.9727 -0.8787
  869MOL0     H17254   5.575  10.961   2.848  0.4581  0.1528 -1.8202
  869MOL0     H17255   5.720  11.030   2.920  0.2094 -2.0270 -0.1131
  869MOL0     H17256   5.701  10.899   2.683 -3.3963 -0.2260  0.9931
  869MOL0     H17257   5.654  11.058   2.619 -1.2001  0.2876  0.0647
  869MOL0     H17258   5.920  11.009   2.762  1.0359  0.9395 -0.8015
  869MOL0     H17259   5.902  11.011   2.588 -1.3583 -0.1161 -0.3020
  869MOL0     H17260   5.853  11.244   2.583  3.6454 -0.4253 -1.1664
  869MOL0     H17261   5.816  11.237   2.761 -2.2233  0.3264 -1.3457
  869MOL0     H17262   6.096  11.239   2.618 -0.8640  2.1217 -1.1714
  869MOL0     H17263   6.072  11.215   2.793  0.2603 -0.9359 -0.0765
  869MOL0     H17264   5.977  11.449   2.622 -2.4664  0.7254  1.0013
  869MOL0     H17265   5.966  11.446   2.795  0.7845 -0.7499  1.2265
  869MOL0     H17266   6.233  11.503   2.529  2.1334 -1.5072 -1.2482
  869MOL0     H17267   6.510  11.496   2.558 -0.6202 -0.7440  0.5788
  869MOL0     H17268   6.494  11.665   2.606  1.4267 -0.3326 -1.7202
  869MOL0     H17269   6.598  11.582   2.841 -0.0625  0.1411  1.2884
  869MOL0     H17270   6.622  11.429   2.771 -1.5689 -0.8927  0.8028
  869MOL0     H17271   6.745  11.689   2.657  0.1196  0.7896  1.4484
  869MOL0     H17272   6.757  11.533   2.577  3.4658  0.7566  0.2210
  869MOL0     H17273   6.842  11.444   2.822  2.9024 -0.4753  1.9945
  869MOL0     H17274   6.863  11.615   2.852  1.9802 -0.8683  0.8372
  869MOL0     H17275   7.012  11.397   2.919 -0.1020 -2.4162 -2.4777
  869MOL0     H17276   7.228  11.369   3.036  0.1879 -1.1691 -0.8276
  869MOL0     H17277   7.693  11.629   3.075  1.1128  0.0829 -0.5861
  869MOL0     H17278   7.912  11.584   3.190  0.6160 -0.7316 -0.3075
  869MOL0     H17279   8.186  11.451   2.972  0.1336 -0.1052  0.6013
  869MOL0     H17280   8.141  11.555   3.105 -1.7951  0.6516 -2.5224
  869MOL0     H17281   8.381  11.425   3.064  0.3506  2.2483 -0.0093
  869MOL0     H17282   8.326  11.480   3.222 -2.6172 -1.4742  1.2872
  869MOL0     H17283   8.408  11.255   3.252 -1.2000  0.6190  0.7485
  869MOL0     H17284   8.232  11.251   3.253 -1.1690 -3.1360 -2.3408
  869MOL0     H17285   8.430  11.183   3.033 -0.4367  0.2863 -3.0868
  869MOL0     H17286   8.271  11.228   2.981 -3.0067 -2.7430 -0.1535
  869MOL0     H17287   8.174  11.049   3.147  0.3821  2.1047  0.3877
  869MOL0     H17288   8.337  11.018   3.182  0.0647  0.8013  0.6818
  869MOL0     H17289   8.257  11.001   2.883 -3.6476  0.2673  0.1357
  869MOL0     H17290   8.383  10.913   2.976 -0.0724 -0.1801  1.2145
  869MOL0     H17291   8.181  10.775   3.080 -1.1915 -0.7729  0.7734
  869MOL0     H17292   8.277  10.757   2.932  4.2896  4.4275 -0.5354
  869MOL0     H17293   8.031  10.719   2.918  1.2776 -0.5603  2.9961
  869MOL0     H17294   7.987  10.884   2.961  1.7962  0.9766  1.3153
  869MOL0     H17295   7.949  11.227   2.957 -0.0275 -1.2783  1.6034
  869MOL0     H17296   7.749  11.284   2.822  1.1723 -0.8661 -1.2525
  869MOL0     H17297   7.424  11.545   2.690 -1.6244  1.9577  0.5374
  869MOL0     H17298   7.221  11.569   2.585 -1.9948 -1.0307 -0.1956
  869MOL0     H17299   5.178  10.858   2.780  0.2226  1.1159 -0.2470
  869MOL0     H17300   4.969  10.800   2.883 -0.8892  1.7594 -0.0699
  869MOL0     H17301   4.728  10.832   3.319  0.5222 -0.1293  1.1865
  869MOL0     H17302   4.536  10.784   3.445 -2.1169  0.0469  0.6145
  869MOL0     H17303   4.156  10.780   3.214 -0.6452 -0.4190  0.9184
  869MOL0     H17304   4.112  10.928   3.307 -1.8613 -0.5061 -0.0019
  869MOL0     H17305   4.007  10.813   3.446 -2.4710  0.6081 -3.0430
  869MOL0     H17306   4.135  10.688   3.461  1.2151  0.5219 -0.3685
  869MOL0     H17307   4.036  10.581   3.230 -2.1545  0.9702 -2.2010
  869MOL0     H17308   3.918  10.701   3.241 -0.4141 -0.5724  1.0808
  869MOL0     H17309   3.852  10.491   3.311  1.1823 -1.8144  0.1225
  869MOL0     H17310   3.954  10.475   3.450 -1.2683 -1.3722  0.4325
  869MOL0     H17311   3.637  10.721   3.613  0.5665 -0.1593  2.1701
  869MOL0     H17312   4.283  10.989   3.147  1.1381  2.0051 -0.5118
  869MOL0     H17313   4.542  11.180   3.011 -0.5884 -0.1757 -2.4914
  869MOL0     H17314   4.473  11.042   2.917 -0.5963  0.1314  0.1550
  869MOL0     H17315   4.380  11.153   3.026  1.4355  2.1113 -0.5593
  870MOL0     O17316   5.204   1.583   7.487  0.4442 -0.4178  0.2071
  870MOL0     C17317   5.135   1.507   7.417 -0.4902 -0.5517  0.8916
  870MOL0     O17318   5.060   1.398   7.462  0.0283  0.1317 -0.1504
  870MOL0     C17319   5.075   1.375   7.595  0.7073  0.6104 -0.3075
  870MOL0     C17320   5.175   1.290   7.643  0.3612  0.2827  0.5406
  870MOL0     C17321   5.184   1.262   7.781 -0.0896  0.1175  0.0572
  870MOL0     C17322   5.094   1.315   7.871 -0.5587  0.0177 -0.1498
  870MOL0     O17323   5.113   1.296   8.007  0.3079  0.4195 -0.0342
  870MOL0     C17324   5.021   1.204   8.058 -0.4345 -0.0364 -0.7073
  870MOL0     C17325   5.037   1.170   8.206  0.5118 -0.2982 -0.3256
  870MOL0     C17326   4.921   1.083   8.262 -0.0809 -0.2829 -0.6079
  870MOL0     C17327   4.961   1.007   8.387  0.1296 -0.9908  0.7105
  870MOL0     C17328   4.847   0.964   8.479  0.9903 -0.0688  0.2520
  870MOL0     C17329   4.885   0.852   8.579 -0.4777 -0.1324 -0.3393
  870MOL0     C17330   4.972   0.911   8.686  0.1362 -0.6007 -0.4299
  870MOL0     C17331   4.880   0.977   8.791  0.0213 -0.9065 -0.6206
  870MOL0     N17332   4.967   1.049   8.886 -0.8083  0.0602  0.3795
  870MOL0     C17333   5.036   0.980   8.980 -0.5878 -0.6944  0.3804
  870MOL0     C17334   5.086   1.076   9.062  0.4066 -0.3101  0.4101
  870MOL0     C17335   5.173   1.054   9.184  0.6227  0.8196  0.0514
  870MOL0     C17336   5.155   1.162   9.292  0.3989 -0.4009  0.8798
  870MOL0     C17337   5.242   1.297   9.260  0.4302  0.0313 -0.2506
  870MOL0     C17338   5.225   1.404   9.379  0.2271  0.3937  0.6047
  870MOL0     O17339   5.285   1.531   9.352  1.0120  0.4434 -0.0889
  870MOL0     C17340   5.404   1.568   9.407  0.3421 -0.2428 -0.1940
  870MOL0     C17341   5.428   1.705   9.429 -0.5505  0.2890 -0.6573
  870MOL0     C17342   5.557   1.742   9.475 -0.2404 -0.2623  0.8960
  870MOL0     C17343   5.658   1.653   9.493  0.0222 -0.5762 -0.6501
  870MOL0     C17344   5.791   1.703   9.528  0.6413 -0.2992 -0.0004
  870MOL0     O17345   5.892   1.619   9.489 -0.1982 -0.1403  0.0433
  870MOL0     C17346   6.026   1.651   9.505  0.7304  0.0390 -0.2886
  870MOL0     C17347   6.106   1.574   9.420 -0.0752  0.6212 -0.0205
  870MOL0     C17348   6.244   1.581   9.423 -0.8986 -0.3628  0.6149
  870MOL0     C17349   6.310   1.669   9.512 -0.2238 -0.9137 -0.2577
  870MOL0     O17350   6.447   1.686   9.514  0.2023  0.0601  0.1124
  870MOL0     C17351   6.521   1.558   9.494 -0.6371 -0.3274  0.4946
  870MOL0     C17352   6.652   1.559   9.569 -0.4452  0.1091  0.0032
  870MOL0     C17353   6.726   1.429   9.574 -0.1173  0.0633  0.1659
  870MOL0     C17354   6.654   1.306   9.642 -0.0377 -0.0600  0.6893
  870MOL0     C17355   6.754   1.190   9.667  0.2924 -0.1306 -0.9327
  870MOL0     C17356   6.681   1.054   9.673 -0.2122 -0.0853  0.3279
  870MOL0     C17357   6.648   1.002   9.532  0.1152  0.6123 -0.5396
  870MOL0     C17358   6.609   0.855   9.534  0.4662 -0.8107 -0.2049
  870MOL0    Cl17359   6.535   0.802   9.382 -0.1422 -0.2696  0.1494
  870MOL0     C17360   6.232   1.754   9.580 -1.1574 -0.4916 -0.8435
  870MOL0     C17361   6.090   1.748   9.585  1.0660  0.6752  1.0368
  870MOL0     O17362   5.805   1.817   9.575 -0.1617 -0.6100  0.4300
  870MOL0     C17363   5.626   1.514   9.477  0.7583  1.0405  0.1345
  870MOL0     C17364   5.500   1.474   9.431 -0.6075 -0.2151 -0.1431
  870MOL0     N17365   5.066   1.200   8.999 -0.6700  0.6749  0.2420
  870MOL0     N17366   4.997   1.180   8.894  0.4615 -0.5942 -0.2687
  870MOL0     C17367   4.998   1.398   7.823  0.0502  0.7881 -0.7563
  870MOL0     C17368   4.986   1.428   7.686 -0.9754 -0.6034  0.5886
  870MOL0     C17369   5.133   1.531   7.270  0.2601 -0.9535  0.5008
  870MOL0     C17370   5.019   1.473   7.205  0.0603 -0.5790 -0.3159
  870MOL0     C17371   4.990   1.495   7.072 -0.3093 -0.6803 -0.3200
  870MOL0     C17372   5.085   1.570   6.995  0.2112 -0.3652 -0.9951
  870MOL0     O17373   5.086   1.583   6.862 -0.6005 -0.5755 -0.1088
  870MOL0     C17374   4.964   1.561   6.787  0.4787  0.2023  0.9793
  870MOL0     C17375   4.835   1.641   6.808 -0.2497  0.5126 -0.3629
  870MOL0     C17376   4.863   1.794   6.795  0.2827  0.2830  0.2348
  870MOL0     C17377   4.905   1.835   6.658  0.1789 -0.0005 -0.1443
  870MOL0     C17378   4.790   1.834   6.569  0.1653  1.0027  0.5890
  870MOL0     C17379   4.699   1.834   6.486 -0.8398  0.0639 -0.2879
  870MOL0     C17380   5.207   1.619   7.060 -0.0504 -0.4840  0.3333
  870MOL0     C17381   5.230   1.606   7.193  1.2202  1.0936 -1.1061
  870MOL0     C17382   5.348   1.664   7.254  0.0207  1.0847  0.6933
  870MOL0     H17383   5.237   1.234   7.575  1.7221  2.2703  0.0589
  870MOL0     H17384   5.265   1.198   7.815  1.5555  0.8655 -2.2188
  870MOL0     H17385   4.920   1.244   8.048 -0.7458 -0.6545 -0.1466
  870MOL0     H17386   5.040   1.105   8.015 -0.0225  0.3548 -1.4416
  870MOL0     H17387   5.039   1.259   8.271  1.4384  0.5303 -1.4512
  870MOL0     H17388   5.137   1.127   8.220 -0.2127 -1.4968  1.5717
  870MOL0     H17389   4.871   1.016   8.191 -4.1184  1.4958  0.3023
  870MOL0     H17390   4.836   1.151   8.275 -0.0684 -0.2390 -0.7467
  870MOL0     H17391   5.027   0.923   8.363  0.6914 -0.3381 -0.0306
  870MOL0     H17392   5.018   1.077   8.448 -3.0253  0.4012  2.3121
  870MOL0     H17393   4.805   1.046   8.537  0.5099  0.1133 -0.3463
  870MOL0     H17394   4.763   0.929   8.419  0.2800 -1.8549  2.1638
  870MOL0     H17395   4.797   0.802   8.620 -0.6376 -0.7753 -1.4331
  870MOL0     H17396   4.940   0.776   8.523  1.4314 -0.0380  1.2962
  870MOL0     H17397   5.046   0.981   8.647  1.0077 -0.8533  0.7170
  870MOL0     H17398   5.029   0.830   8.733 -0.9457 -1.4610 -0.5579
  870MOL0     H17399   4.810   1.046   8.744  0.3605  1.4858  2.1291
  870MOL0     H17400   4.829   0.899   8.848 -0.4471  1.6901  2.8896
  870MOL0     H17401   5.041   0.872   8.980 -0.2266 -0.7128 -1.4182
  870MOL0     H17402   5.155   0.954   9.224  1.2580 -0.1506 -1.9299
  870MOL0     H17403   5.278   1.037   9.159  0.4446 -3.5365  1.2990
  870MOL0     H17404   5.051   1.186   9.317  0.4172  0.9778 -0.2549
  870MOL0     H17405   5.207   1.126   9.382 -0.1948  1.2601  1.9308
  870MOL0     H17406   5.211   1.345   9.167  1.4573  3.5226  1.0532
  870MOL0     H17407   5.348   1.268   9.262 -0.0782 -1.9997  1.4872
  870MOL0     H17408   5.280   1.369   9.467  0.9924  0.3225  0.1054
  870MOL0     H17409   5.119   1.423   9.400 -0.0921 -0.1239 -0.4424
  870MOL0     H17410   5.358   1.784   9.402  0.4208  1.2830 -0.3721
  870MOL0     H17411   5.584   1.846   9.490 -1.3542  0.0979  0.5235
  870MOL0     H17412   6.060   1.506   9.349 -0.9062  1.5230 -0.3799
  870MOL0     H17413   6.296   1.515   9.355 -0.2347 -1.1414  1.8375
  870MOL0     H17414   6.463   1.470   9.524 -1.2782 -0.8672 -2.0600
  870MOL0     H17415   6.539   1.546   9.386  4.2017 -0.2527  1.0660
  870MOL0     H17416   6.724   1.634   9.535  2.1168 -1.3185  1.9184
  870MOL0     H17417   6.614   1.579   9.669 -3.2329  0.5811 -1.0718
  870MOL0     H17418   6.744   1.400   9.470 -4.1534 -1.1656 -0.3722
  870MOL0     H17419   6.826   1.432   9.617  2.4072 -1.3241 -4.8196
  870MOL0     H17420   6.568   1.268   9.586  2.3147 -3.5145 -0.9644
  870MOL0     H17421   6.620   1.328   9.744  0.7775 -1.8605  1.4015
  870MOL0     H17422   6.793   1.203   9.769 -0.4904 -1.8001 -0.3841
  870MOL0     H17423   6.832   1.195   9.591  0.1079  2.2653 -1.0379
  870MOL0     H17424   6.751   0.979   9.711  0.9611  2.0730  2.6989
  870MOL0     H17425   6.593   1.052   9.738  1.0308  0.4188  2.0929
  870MOL0     H17426   6.740   1.015   9.473 -0.2350 -1.0349 -1.4960
  870MOL0     H17427   6.565   1.052   9.482  0.3028 -0.8810 -2.4592
  870MOL0     H17428   6.698   0.794   9.552  1.9112  1.0414 -0.8270
  870MOL0     H17429   6.540   0.831   9.616  1.9263 -0.1827  1.2584
  870MOL0     H17430   6.278   1.825   9.648 -0.5725 -2.4686  0.9150
  870MOL0     H17431   6.027   1.813   9.645 -0.0710  3.1411 -2.4924
  870MOL0     H17432   5.701   1.436   9.489  2.3245  2.2011 -1.5699
  870MOL0     H17433   5.472   1.372   9.407 -2.3191  0.0215  0.7193
  870MOL0     H17434   4.936   1.439   7.902 -0.0172  1.5902 -1.2169
  870MOL0     H17435   4.911   1.495   7.645 -0.1173  0.7024  1.0735
  870MOL0     H17436   4.939   1.416   7.251 -2.0680 -1.5369 -4.6343
  870MOL0     H17437   4.901   1.450   7.028 -0.7004  0.7928 -1.0963
  870MOL0     H17438   4.937   1.459   6.816 -1.7350  0.8666  1.4229
  870MOL0     H17439   4.985   1.550   6.680 -1.0282  0.1143  0.6750
  870MOL0     H17440   4.810   1.629   6.914 -3.1208  1.3963 -0.8479
  870MOL0     H17441   4.753   1.604   6.746  0.1744 -0.0217 -0.6141
  870MOL0     H17442   4.947   1.816   6.862  1.3131  1.2753 -1.3120
  870MOL0     H17443   4.773   1.849   6.823  1.0035  0.9799  1.1992
  870MOL0     H17444   4.934   1.940   6.660  0.6725 -0.1383 -0.0485
  870MOL0     H17445   4.987   1.772   6.623  1.9768  0.7499  2.4525
  870MOL0     H17446   4.634   1.840   6.401  1.5252  0.0083 -2.1971
  870MOL0     H17447   5.280   1.671   6.999 -2.8065  0.3316 -2.5323
  870MOL0     H17448   5.425   1.686   7.179 -0.6891  1.1138 -0.0438
  870MOL0     H17449   5.323   1.766   7.284 -0.1430  1.4911 -0.7293
  870MOL0     H17450   5.393   1.614   7.340  1.2434  1.8771  0.5399
  871MOL0     O17451   3.692   2.127   0.882  0.0894  0.6805 -0.0351
  871MOL0     C17452   3.612   2.203   0.824  0.4664 -0.0709 -1.1528
  871MOL0     O17453   3.640   2.299   0.735  1.1241  0.1000 -0.0209
  871MOL0     C17454   3.773   2.327   0.704  0.4555 -0.8385 -0.5909
  871MOL0     C17455   3.818   2.463   0.685  0.8141  0.2226  0.3551
  871MOL0     C17456   3.937   2.489   0.612  0.8994  0.9504 -1.3941
  871MOL0     C17457   4.018   2.385   0.577 -0.4686  0.3255  0.0009
  871MOL0     O17458   4.138   2.399   0.516 -0.1418  0.0123 -0.0430
  871MOL0     C17459   4.168   2.525   0.456 -0.6821 -0.0505  1.1185
  871MOL0     C17460   4.315   2.517   0.410 -0.4366 -0.0135  0.2271
  871MOL0     C17461   4.411   2.540   0.535  0.4626  0.1284 -0.3232
  871MOL0     C17462   4.551   2.599   0.496 -0.1311  0.0387  0.0398
  871MOL0     C17463   4.651   2.622   0.606  0.2057  0.1040 -0.3513
  871MOL0     C17464   4.785   2.665   0.539 -0.0292  0.6093  0.1803
  871MOL0     C17465   4.905   2.651   0.634  0.7405 -0.4248  0.0748
  871MOL0     C17466   5.030   2.668   0.539  0.2653 -0.1331 -0.4094
  871MOL0     N17467   5.153   2.686   0.616 -0.1936 -0.2190  0.1162
  871MOL0     C17468   5.159   2.666   0.750 -0.2811  0.4575 -0.0674
  871MOL0     C17469   5.265   2.743   0.790 -0.2514 -0.2109  0.6043
  871MOL0     C17470   5.312   2.779   0.921  0.2225  0.5722 -0.7055
  871MOL0     C17471   5.231   2.904   0.964 -0.2231 -0.4398 -0.1291
  871MOL0     C17472   5.290   2.999   1.065  0.5245 -0.6547 -0.3797
  871MOL0     C17473   5.275   2.960   1.211 -0.5158 -0.3227 -0.9131
  871MOL0     O17474   5.356   2.847   1.258 -0.5665  0.8175  0.0947
  871MOL0     C17475   5.492   2.875   1.257 -0.4651 -0.8700  0.7864
  871MOL0     C17476   5.546   3.005   1.271  0.3850  0.0693 -0.5746
  871MOL0     C17477   5.683   3.029   1.254 -0.3076  0.0445 -0.3678
  871MOL0     C17478   5.770   2.921   1.236 -0.3633  0.2728  0.1784
  871MOL0     C17479   5.919   2.931   1.236  0.3591  0.0566 -0.4624
  871MOL0     O17480   5.980   2.845   1.321  0.0702  0.2161 -0.2869
  871MOL0     C17481   6.116   2.836   1.273 -0.5049 -0.1039  0.0153
  871MOL0     C17482   6.153   2.751   1.165  0.2939 -0.3178  0.9277
  871MOL0     C17483   6.288   2.742   1.124  1.1435  0.6855 -0.5188
  871MOL0     C17484   6.385   2.817   1.193  0.1251 -0.1612 -0.1940
  871MOL0     O17485   6.515   2.789   1.181 -0.8484 -0.0426  0.0990
  871MOL0     C17486   6.561   2.711   1.064 -0.7126 -0.5956  0.2968
  871MOL0     C17487   6.550   2.562   1.091  0.1376  0.0890  0.2552
  871MOL0     C17488   6.549   2.484   0.955 -0.4284 -0.3466 -0.3316
  871MOL0     C17489   6.650   2.530   0.847 -0.0943 -0.2522 -0.1481
  871MOL0     C17490   6.634   2.456   0.717  0.7424 -0.5033 -0.7747
  871MOL0     C17491   6.519   2.504   0.629 -0.1613  0.0888  0.3427
  871MOL0     C17492   6.542   2.650   0.575 -1.0435  0.9272 -0.1099
  871MOL0     C17493   6.437   2.683   0.469 -0.2923 -0.0291 -0.1096
  871MOL0    Cl17494   6.453   2.578   0.331  0.3071 -0.2159 -0.6043
  871MOL0     C17495   6.349   2.911   1.293  0.8001 -0.1734 -0.1025
  871MOL0     C17496   6.214   2.914   1.335 -0.8200  0.3595 -0.2972
  871MOL0     O17497   5.968   3.017   1.167 -0.4881 -0.6210 -0.0520
  871MOL0     C17498   5.718   2.787   1.225 -0.6894 -0.1825 -0.7053
  871MOL0     C17499   5.578   2.770   1.229 -0.7267  1.7100  0.6470
  871MOL0     N17500   5.323   2.802   0.671 -0.2113 -0.1233  0.0287
  871MOL0     N17501   5.267   2.755   0.567  1.1438  0.5330 -0.4375
  871MOL0     C17502   3.975   2.250   0.596 -0.6996 -0.6527 -0.2556
  871MOL0     C17503   3.848   2.226   0.648  0.0800 -0.0891 -0.5636
  871MOL0     C17504   3.463   2.195   0.848  0.7642 -0.3182 -0.1423
  871MOL0     C17505   3.378   2.293   0.791 -0.8419 -0.2731  0.2577
  871MOL0     C17506   3.251   2.311   0.830  0.3824  0.3036  0.4369
  871MOL0     C17507   3.192   2.223   0.923 -0.1821  0.4087  0.4305
  871MOL0     O17508   3.064   2.222   0.965 -0.1283 -0.1172  0.1789
  871MOL0     C17509   2.995   2.343   0.926 -0.8027 -0.6732  0.3825
  871MOL0     C17510   2.851   2.340   0.987  0.1631  0.1688  0.7932
  871MOL0     C17511   2.805   2.486   1.006  0.4817  1.0291 -0.2226
  871MOL0     C17512   2.662   2.481   1.050 -0.1106 -0.1087  0.2533
  871MOL0     C17513   2.651   2.430   1.186  0.9581  0.5181  0.0775
  871MOL0     C17514   2.631   2.377   1.296 -0.0315 -0.3556  0.1967
  871MOL0     C17515   3.268   2.119   0.963  0.2578 -0.3666  0.8909
  871MOL0     C17516   3.399   2.095   0.930 -0.1079  0.5784 -0.2588
  871MOL0     C17517   3.462   1.970   0.979 -0.5310 -0.0912 -0.1090
  871MOL0     H17518   3.742   2.534   0.718 -0.5501 -0.8468 -0.3832
  871MOL0     H17519   3.970   2.589   0.587  1.8117  0.2956 -2.9595
  871MOL0     H17520   4.106   2.539   0.367  1.0703 -3.0280 -0.7157
  871MOL0     H17521   4.153   2.612   0.521  1.8232  1.1220  0.2757
  871MOL0     H17522   4.330   2.598   0.337  2.0748 -0.0791  0.5655
  871MOL0     H17523   4.335   2.435   0.342 -1.1541  1.0621 -1.3386
  871MOL0     H17524   4.421   2.444   0.585 -2.0857 -0.0805 -0.0875
  871MOL0     H17525   4.359   2.598   0.612  1.2155 -0.1525  0.4085
  871MOL0     H17526   4.603   2.535   0.424  2.6334  0.0192  1.9080
  871MOL0     H17527   4.536   2.699   0.455  0.5157 -0.3417 -1.1905
  871MOL0     H17528   4.613   2.696   0.677  4.2966  0.3518  1.9083
  871MOL0     H17529   4.664   2.532   0.667  0.0142 -0.8459 -1.6707
  871MOL0     H17530   4.791   2.590   0.460 -1.6488 -0.5965  1.1273
  871MOL0     H17531   4.778   2.769   0.504 -2.1245  0.8686  1.1472
  871MOL0     H17532   4.909   2.552   0.680 -1.3009 -0.9268 -0.7226
  871MOL0     H17533   4.913   2.731   0.709  0.2407 -0.6345  0.3525
  871MOL0     H17534   5.055   2.583   0.475 -1.5163 -0.8438 -0.2184
  871MOL0     H17535   5.013   2.752   0.472  0.5443  1.3139  1.2512
  871MOL0     H17536   5.093   2.613   0.818 -1.9646 -1.2580 -2.8284
  871MOL0     H17537   5.290   2.705   0.999 -1.8397  0.9041 -0.9183
  871MOL0     H17538   5.420   2.800   0.924 -0.0689  2.1917  2.3070
  871MOL0     H17539   5.223   2.967   0.876  2.1541 -0.1228 -0.1941
  871MOL0     H17540   5.131   2.875   0.995 -1.3037  2.7010 -0.3443
  871MOL0     H17541   5.230   3.090   1.059 -3.1512 -2.7007  1.8913
  871MOL0     H17542   5.397   3.014   1.043  0.8340 -0.9411  0.8873
  871MOL0     H17543   5.167   2.940   1.219 -0.8278  1.6495  0.6210
  871MOL0     H17544   5.281   3.046   1.279  3.2250 -0.3303 -1.0525
  871MOL0     H17545   5.479   3.082   1.307 -1.5365 -1.9439  0.3518
  871MOL0     H17546   5.728   3.127   1.264  3.0242 -1.5644  3.4468
  871MOL0     H17547   6.079   2.684   1.122  3.8710 -3.4238 -0.9267
  871MOL0     H17548   6.302   2.669   1.046  1.3023 -0.4180  0.5109
  871MOL0     H17549   6.506   2.747   0.977  1.2838  1.3730 -0.2380
  871MOL0     H17550   6.668   2.734   1.051 -1.0966  2.3750  1.6870
  871MOL0     H17551   6.637   2.522   1.144  0.5839  1.2802  0.4557
  871MOL0     H17552   6.469   2.529   1.156 -0.6950  1.7161  0.0965
  871MOL0     H17553   6.572   2.381   0.982  0.3182 -0.1063 -0.0010
  871MOL0     H17554   6.449   2.490   0.912 -0.3458  0.6702 -0.4036
  871MOL0     H17555   6.749   2.504   0.886 -0.6478 -1.5782  0.4510
  871MOL0     H17556   6.645   2.637   0.825  0.3713  0.4201  2.6172
  871MOL0     H17557   6.596   2.355   0.730  0.7812 -0.1763  2.5690
  871MOL0     H17558   6.732   2.446   0.669  1.7024 -2.1314  1.3932
  871MOL0     H17559   6.524   2.444   0.537 -0.7839  1.1277 -0.3877
  871MOL0     H17560   6.424   2.480   0.677  1.7611 -4.9327  2.4199
  871MOL0     H17561   6.637   2.646   0.520 -2.3365 -2.1972 -2.4232
  871MOL0     H17562   6.534   2.722   0.657 -0.6076  0.0547  0.7154
  871MOL0     H17563   6.337   2.693   0.512  0.2500  3.2711  0.6476
  871MOL0     H17564   6.471   2.781   0.434  1.5820 -0.4000  0.5332
  871MOL0     H17565   6.433   2.969   1.331  0.5189  2.0130 -2.5387
  871MOL0     H17566   6.181   2.981   1.413 -1.4036  1.9349 -1.8129
  871MOL0     H17567   5.781   2.700   1.213  0.9440  0.7656  0.6426
  871MOL0     H17568   5.522   2.679   1.212 -1.5427  2.4075 -0.5380
  871MOL0     H17569   4.042   2.181   0.546  1.3608  0.4648  0.8794
  871MOL0     H17570   3.804   2.129   0.629  4.0899 -2.0460 -0.9992
  871MOL0     H17571   3.405   2.364   0.712  1.4718 -2.5981 -1.2143
  871MOL0     H17572   3.191   2.389   0.784 -3.3370 -1.7020  1.4593
  871MOL0     H17573   3.004   2.363   0.819 -0.7554  1.5370  0.7458
  871MOL0     H17574   3.049   2.434   0.956  0.2532 -0.9437 -0.6390
  871MOL0     H17575   2.843   2.287   1.083  0.7801 -4.8328 -1.6134
  871MOL0     H17576   2.790   2.293   0.909  1.1983 -0.1524  0.1595
  871MOL0     H17577   2.821   2.531   0.908 -1.0958 -0.8492 -1.4150
  871MOL0     H17578   2.858   2.545   1.081 -0.0246  1.0646  0.1158
  871MOL0     H17579   2.624   2.584   1.054 -1.2803 -0.5033 -0.3182
  871MOL0     H17580   2.596   2.429   0.980 -1.2982 -3.0694  3.3180
  871MOL0     H17581   2.616   2.347   1.397  1.6846  1.3670  1.0430
  871MOL0     H17582   3.206   2.052   1.022  0.4315  0.6911  2.3266
  871MOL0     H17583   3.504   1.923   0.890  0.4544 -4.7935  2.4832
  871MOL0     H17584   3.544   1.993   1.049  0.7381 -0.3119 -1.4741
  871MOL0     H17585   3.390   1.900   1.022  0.2492 -1.0332 -0.2889
  872MOL0     O17586  10.659   0.685  10.518 -0.2689 -0.1193  0.7591
  872MOL0     C17587  10.663   0.596  10.434 -0.1920  0.1891  0.2158
  872MOL0     O17588  10.556   0.535  10.375 -0.0763 -0.4055  0.3340
  872MOL0     C17589  10.426   0.575  10.402 -0.6030  0.4026  0.8602
  872MOL0     C17590  10.388   0.709  10.397  0.5923  0.1024 -0.1080
  872MOL0     C17591  10.249   0.741  10.408 -0.4068  0.5032 -0.2828
  872MOL0     C17592  10.155   0.637  10.395 -0.0383  0.0197 -0.9453
  872MOL0     O17593  10.022   0.652  10.410 -0.3997 -0.6370 -0.2187
  872MOL0     C17594   9.971   0.749  10.503  0.4713 -0.4284 -0.2841
  872MOL0     C17595   9.821   0.711  10.517 -1.0783 -0.0961  0.0890
  872MOL0     C17596   9.746   0.810  10.603 -0.4187  0.4539 -0.5244
  872MOL0     C17597   9.615   0.747  10.640 -0.3020 -0.0326  0.8914
  872MOL0     C17598   9.513   0.841  10.705 -0.1774  0.5842  0.2212
  872MOL0     C17599   9.372   0.772  10.711 -0.0318 -0.5133  0.2154
  872MOL0     C17600   9.273   0.858  10.793  0.3716 -0.4036  0.3609
  872MOL0     C17601   9.285   0.837  10.956  0.3637 -0.3669 -0.1199
  872MOL0     N17602   9.357   0.717  11.012 -0.2714  0.2438 -0.4195
  872MOL0     C17603   9.471   0.717  11.094  0.2468  1.1439  0.4952
  872MOL0     C17604   9.484   0.589  11.133 -0.2836  0.3845  0.0529
  872MOL0     C17605   9.600   0.518  11.204 -0.5646 -0.3792 -0.5536
  872MOL0     C17606   9.734   0.517  11.122  0.6789  0.2435 -0.7922
  872MOL0     C17607   9.729   0.446  10.983  0.8277 -0.4623 -1.2534
  872MOL0     C17608   9.850   0.478  10.893 -0.8537  0.2984  0.2841
  872MOL0     O17609   9.840   0.391  10.780  0.1024  0.3903  0.3687
  872MOL0     C17610   9.953   0.312  10.751  0.7160 -0.5726  0.9511
  872MOL0     C17611  10.075   0.368  10.735 -0.6054  0.4149  0.8832
  872MOL0     C17612  10.185   0.296  10.690 -0.4180 -0.0303  0.2240
  872MOL0     C17613  10.174   0.156  10.677 -0.4657  0.2890  1.3230
  872MOL0     C17614  10.283   0.079  10.605 -0.2049  0.2168 -0.1436
  872MOL0     O17615  10.405   0.139  10.609  0.7056 -0.4302  0.3388
  872MOL0     C17616  10.515   0.070  10.562 -0.8796  0.6998  0.3549
  872MOL0     C17617  10.545  -0.069  10.588  0.0016 -0.3513 -0.2748
  872MOL0     C17618  10.657  -0.135  10.539 -0.6641  0.5271 -0.2996
  872MOL0     C17619  10.738  -0.067  10.449  0.7486 -0.0572 -0.1414
  872MOL0     O17620  10.826  -0.143  10.378 -0.4166  0.4573 -0.0214
  872MOL0     C17621  10.951  -0.173  10.435 -0.5346  0.2317 -0.1339
  872MOL0     C17622  11.035  -0.223  10.323 -0.1779  0.0935 -0.3475
  872MOL0     C17623  11.185  -0.262  10.337  0.6214 -0.1777 -0.1384
  872MOL0     C17624  11.275  -0.156  10.398 -0.6176 -0.6166 -0.2098
  872MOL0     C17625  11.412  -0.207  10.425 -0.5135 -0.5647 -0.3400
  872MOL0     C17626  11.502  -0.188  10.299  0.1435 -0.0855 -0.6555
  872MOL0     C17627  11.659  -0.204  10.331  0.1468 -0.3404 -0.2398
  872MOL0     C17628  11.695  -0.335  10.405 -0.0775 -0.5213 -0.0363
  872MOL0    Cl17629  11.612  -0.473  10.331 -0.0960  0.7456 -0.2222
  872MOL0     C17630  10.704   0.064  10.404 -0.0917 -0.2452  0.0409
  872MOL0     C17631  10.602   0.131  10.465  0.6717 -0.4588 -0.4511
  872MOL0     O17632  10.258  -0.040  10.564  0.1914  0.3382 -0.2781
  872MOL0     C17633  10.051   0.093  10.706 -0.5537 -0.4676 -0.1693
  872MOL0     C17634   9.945   0.170  10.744 -0.3207  0.3793  0.1571
  872MOL0     N17635   9.382   0.516  11.077 -0.3234 -0.2587 -0.9882
  872MOL0     N17636   9.306   0.598  11.022 -0.0026  0.0890  0.0133
  872MOL0     C17637  10.196   0.496  10.405 -0.4808  0.1301  0.1247
  872MOL0     C17638  10.339   0.466  10.416  0.5862 -0.5594 -0.1543
  872MOL0     C17639  10.801   0.544  10.403 -0.5839  0.3459 -0.2937
  872MOL0     C17640  10.899   0.556  10.507 -1.0417 -0.6893  0.2770
  872MOL0     C17641  11.027   0.513  10.492  0.0452 -1.1843 -0.4287
  872MOL0     C17642  11.060   0.458  10.369 -0.5017 -0.0666 -0.0984
  872MOL0     O17643  11.191   0.409  10.351 -0.1259  0.6293 -0.6151
  872MOL0     C17644  11.238   0.310  10.447  0.0809 -0.7618  0.2330
  872MOL0     C17645  11.386   0.312  10.451  0.4523 -0.3587 -0.7880
  872MOL0     C17646  11.446   0.201  10.540 -0.8513 -0.8357  0.5490
  872MOL0     C17647  11.598   0.222  10.536 -0.0414 -0.2106  0.0505
  872MOL0     C17648  11.669   0.167  10.412  0.3946  0.8608 -0.3250
  872MOL0     C17649  11.737   0.130  10.316  0.2691 -1.2605  0.2412
  872MOL0     C17650  10.969   0.448  10.262  0.2343  0.0138 -1.2576
  872MOL0     C17651  10.836   0.491  10.280 -0.3575 -0.9840 -0.0531
  872MOL0     C17652  10.751   0.469  10.161 -0.2001 -0.3812 -0.5566
  872MOL0     H17653  10.452   0.796  10.388  0.1546  0.5995  1.3332
  872MOL0     H17654  10.229   0.846  10.423 -1.4303  0.2958 -0.0759
  872MOL0     H17655  10.021   0.730  10.598  3.5049  0.3653 -1.5878
  872MOL0     H17656   9.988   0.854  10.475 -1.9071  0.1490  0.1632
  872MOL0     H17657   9.831   0.616  10.571 -0.9204 -0.5879 -0.7829
  872MOL0     H17658   9.782   0.684  10.419  0.0551 -0.0955 -0.3767
  872MOL0     H17659   9.729   0.905  10.550  1.8936  1.8811  1.1319
  872MOL0     H17660   9.807   0.832  10.691  0.8663  0.9295 -1.5091
  872MOL0     H17661   9.576   0.714  10.543 -0.5008 -1.5627  1.4596
  872MOL0     H17662   9.628   0.663  10.709  0.7639 -0.3073  0.3729
  872MOL0     H17663   9.553   0.858  10.805  0.8952 -2.2992  0.3561
  872MOL0     H17664   9.496   0.931  10.644  0.0505  0.7190  0.3558
  872MOL0     H17665   9.333   0.766  10.609  0.5372 -1.7102  0.0518
  872MOL0     H17666   9.386   0.671  10.752  3.6932  0.5516  2.0055
  872MOL0     H17667   9.183   0.802  10.765  0.3355  0.4684 -1.4086
  872MOL0     H17668   9.250   0.959  10.758 -1.8381 -1.7970 -2.6207
  872MOL0     H17669   9.327   0.924  11.006 -1.2899 -0.4373  1.5374
  872MOL0     H17670   9.182   0.822  10.991 -0.2952  0.5581 -1.5767
  872MOL0     H17671   9.539   0.796  11.124  0.4251  1.0104  0.4406
  872MOL0     H17672   9.620   0.564  11.301  1.1527  0.3324 -1.2106
  872MOL0     H17673   9.567   0.416  11.227 -1.3008  0.2433  1.3225
  872MOL0     H17674   9.757   0.622  11.103 -2.6285  1.6700  1.9226
  872MOL0     H17675   9.811   0.473  11.185 -0.8516  0.1255  1.1090
  872MOL0     H17676   9.631   0.467  10.939 -1.4987  1.1267  3.8961
  872MOL0     H17677   9.718   0.338  10.993 -1.6387 -0.2289 -0.6372
  872MOL0     H17678   9.941   0.466  10.953 -1.0210 -1.0792  0.2937
  872MOL0     H17679   9.834   0.576  10.847 -0.5437  0.6124  0.8235
  872MOL0     H17680  10.100   0.473  10.747  3.0959 -0.3238  0.9497
  872MOL0     H17681  10.280   0.348  10.683 -1.0156  0.8875 -2.7124
  872MOL0     H17682  10.479  -0.120  10.658  1.3924 -0.7387  0.7919
  872MOL0     H17683  10.671  -0.242  10.552 -0.6679  0.7847  2.4131
  872MOL0     H17684  10.989  -0.076  10.467  1.0927  0.1141 -1.5449
  872MOL0     H17685  10.939  -0.247  10.514 -1.5362 -1.1851 -1.5394
  872MOL0     H17686  10.986  -0.310  10.279 -1.7611  0.4055  0.6965
  872MOL0     H17687  11.025  -0.149  10.243 -2.1330 -0.0050 -0.2449
  872MOL0     H17688  11.201  -0.353  10.396  2.5719  0.5514  0.5337
  872MOL0     H17689  11.228  -0.274  10.237  1.0826 -2.6004  0.2994
  872MOL0     H17690  11.224  -0.118  10.487  4.2188  2.3816  1.6766
  872MOL0     H17691  11.279  -0.074  10.326  1.3867 -1.1202 -0.7274
  872MOL0     H17692  11.415  -0.313  10.453 -0.3785  0.1109  2.4765
  872MOL0     H17693  11.453  -0.148  10.508  1.2695 -3.2087  0.8331
  872MOL0     H17694  11.475  -0.266  10.228  4.2779 -0.5087 -2.0382
  872MOL0     H17695  11.481  -0.089  10.258 -1.4939  0.5832  1.5632
  872MOL0     H17696  11.701  -0.125  10.393  1.9507  0.2850 -2.1644
  872MOL0     H17697  11.715  -0.195  10.238  1.8453 -1.9195  0.5564
  872MOL0     H17698  11.804  -0.336  10.414  0.2667  2.1647 -2.4083
  872MOL0     H17699  11.645  -0.328  10.502 -1.5433 -2.4840 -0.6047
  872MOL0     H17700  10.769   0.109  10.330  0.3777 -1.2359 -0.1731
  872MOL0     H17701  10.584   0.238  10.459  0.6937 -0.2864  1.8079
  872MOL0     H17702  10.028  -0.010  10.679  1.1079 -1.1184  0.7517
  872MOL0     H17703   9.852   0.118  10.760 -0.8776  1.7345  1.6270
  872MOL0     H17704  10.122   0.418  10.418 -1.8944  0.3107 -4.8375
  872MOL0     H17705  10.358   0.360  10.423  2.4515 -0.3318 -0.9603
  872MOL0     H17706  10.873   0.601  10.602 -1.6557 -2.4566  0.9827
  872MOL0     H17707  11.094   0.520  10.578  1.8967  1.0365 -1.9523
  872MOL0     H17708  11.209   0.218  10.397  0.9568 -0.0299 -1.7155
  872MOL0     H17709  11.192   0.324  10.545 -1.0601  1.8743 -0.5906
  872MOL0     H17710  11.430   0.406  10.488  2.2717 -0.8553 -1.5478
  872MOL0     H17711  11.426   0.310  10.349 -0.8800 -0.4936 -1.3248
  872MOL0     H17712  11.419   0.105  10.494 -1.3463  0.4255 -2.0002
  872MOL0     H17713  11.419   0.215  10.645 -2.3191 -3.3007  0.5843
  872MOL0     H17714  11.617   0.327  10.558 -3.4939  0.5824 -0.1104
  872MOL0     H17715  11.635   0.165  10.622  0.5340 -1.1327 -0.7788
  872MOL0     H17716  11.787   0.119  10.222 -4.4086 -0.7298 -2.6262
  872MOL0     H17717  10.996   0.399  10.169  1.4892 -1.7707 -0.0237
  872MOL0     H17718  10.687   0.381  10.166  0.3542 -0.7801 -0.4547
  872MOL0     H17719  10.686   0.556  10.145 -2.4769 -1.9024 -0.0435
  872MOL0     H17720  10.809   0.445  10.071  0.4177  0.4856 -0.4047
  873MOL0     O17721   3.553   7.188   4.136 -0.6032  0.7850  0.7937
  873MOL0     C17722   3.586   7.290   4.194  0.1090 -0.7645 -0.1826
  873MOL0     O17723   3.699   7.365   4.167  0.3508 -0.1591 -0.2465
  873MOL0     C17724   3.792   7.315   4.073  0.1629 -0.0570 -0.1095
  873MOL0     C17725   3.800   7.348   3.937 -0.2988 -0.6445  0.9826
  873MOL0     C17726   3.899   7.288   3.851 -0.4291 -0.3044 -0.0890
  873MOL0     C17727   3.981   7.192   3.909  0.2119 -0.7017  0.4580
  873MOL0     O17728   4.063   7.105   3.835  0.1053  0.5416 -0.0778
  873MOL0     C17729   4.087   7.130   3.697  0.2289  0.4177  0.4663
  873MOL0     C17730   4.210   7.042   3.673  0.5712  0.3128  0.1062
  873MOL0     C17731   4.335   7.089   3.749  0.2992  0.4973 -0.6898
  873MOL0     C17732   4.385   6.974   3.836  0.8867 -0.3315 -0.5122
  873MOL0     C17733   4.524   7.016   3.905  0.1338 -0.2434  0.4681
  873MOL0     C17734   4.594   6.896   3.948 -0.2934 -0.4531  0.2303
  873MOL0     C17735   4.716   6.929   4.036  0.1085 -1.2646  0.9665
  873MOL0     C17736   4.836   6.994   3.952  0.0168  0.2979 -0.4823
  873MOL0     N17737   4.970   6.981   4.010 -0.0101 -0.1324  0.0580
  873MOL0     C17738   5.075   7.070   3.994  0.8149  0.0515  0.0204
  873MOL0     C17739   5.181   7.008   4.036  0.0346  0.5612  0.0959
  873MOL0     C17740   5.326   7.056   4.032  0.1817 -0.1339 -0.2504
  873MOL0     C17741   5.345   7.207   4.067  0.4202 -0.1633 -0.7573
  873MOL0     C17742   5.392   7.291   3.940  0.9438  0.8095 -0.2616
  873MOL0     C17743   5.538   7.244   3.888  0.0125  0.1292 -1.0372
  873MOL0     O17744   5.622   7.231   4.003  0.7605  0.5738 -0.0703
  873MOL0     C17745   5.761   7.254   3.987 -0.7269  0.3778  0.2987
  873MOL0     C17746   5.849   7.229   4.096  0.1242  0.1530 -0.2312
  873MOL0     C17747   5.983   7.260   4.093  0.0291 -0.6075  0.4875
  873MOL0     C17748   6.047   7.318   3.993 -0.0219 -0.4355  0.0864
  873MOL0     C17749   6.186   7.366   4.005 -0.0794 -0.1868 -0.5195
  873MOL0     O17750   6.251   7.414   3.893  0.2925  0.3510 -0.1887
  873MOL0     C17751   6.393   7.398   3.894 -1.2859 -0.3198  0.0443
  873MOL0     C17752   6.456   7.274   3.894  0.0492  0.0236 -0.2627
  873MOL0     C17753   6.594   7.273   3.893  0.4846 -0.6245  0.3073
  873MOL0     C17754   6.663   7.394   3.864 -0.1996  0.5952 -0.3891
  873MOL0     O17755   6.801   7.392   3.847 -0.9068 -0.1866 -0.8588
  873MOL0     C17756   6.889   7.302   3.925 -0.0032  0.2295  0.5328
  873MOL0     C17757   7.024   7.366   3.961  0.0636 -0.5381 -0.1879
  873MOL0     C17758   7.113   7.386   3.841 -0.5793  0.5220  0.4155
  873MOL0     C17759   7.262   7.397   3.884 -0.2171  0.1051  0.8000
  873MOL0     C17760   7.359   7.427   3.762  0.6356  0.3186 -0.3485
  873MOL0     C17761   7.503   7.460   3.808  0.7876  0.2344  0.2552
  873MOL0     C17762   7.577   7.484   3.675  0.2377 -0.0311  0.0948
  873MOL0     C17763   7.709   7.539   3.701  0.1401 -0.4904  0.8141
  873MOL0    Cl17764   7.802   7.421   3.803 -0.2153  0.2716  0.3123
  873MOL0     C17765   6.600   7.513   3.846 -0.2404  1.2553 -0.0244
  873MOL0     C17766   6.463   7.513   3.856  0.2686 -0.4709 -1.0693
  873MOL0     O17767   6.245   7.352   4.113  0.3730  0.6642  0.1561
  873MOL0     C17768   5.977   7.319   3.870  1.0786  0.0582  0.4938
  873MOL0     C17769   5.836   7.288   3.867  0.2666 -0.6431 -0.4249
  873MOL0     N17770   5.149   6.877   4.068 -0.5073  0.3168  0.5726
  873MOL0     N17771   5.020   6.865   4.051  0.0183  0.1735 -0.3989
  873MOL0     C17772   3.982   7.170   4.045  0.1394 -0.7908  0.3971
  873MOL0     C17773   3.887   7.234   4.123  0.6634 -0.1602 -0.3546
  873MOL0     C17774   3.499   7.353   4.302  0.3048  0.1100  0.6358
  873MOL0     C17775   3.550   7.462   4.387  0.9927  0.2346  0.0520
  873MOL0     C17776   3.482   7.502   4.492 -0.3468  0.8759 -0.2382
  873MOL0     C17777   3.356   7.442   4.531 -0.3201 -0.1218 -0.1456
  873MOL0     O17778   3.283   7.480   4.640 -0.1401  0.5126  0.2908
  873MOL0     C17779   3.333   7.585   4.717 -0.0613  0.6622  0.2558
  873MOL0     C17780   3.248   7.628   4.827  0.9096 -0.4218  0.8180
  873MOL0     C17781   3.099   7.649   4.809 -0.1413 -0.4055 -0.1033
  873MOL0     C17782   3.077   7.767   4.710 -0.3624  0.6930 -0.7429
  873MOL0     C17783   2.941   7.805   4.687 -0.0611 -0.2658  0.6902
  873MOL0     C17784   2.834   7.856   4.652 -0.0510  0.2806  0.2614
  873MOL0     C17785   3.296   7.348   4.452 -0.0797  1.2925  0.6075
  873MOL0     C17786   3.366   7.300   4.330 -0.3870 -0.1084 -0.3927
  873MOL0     C17787   3.296   7.183   4.259  0.5668  0.4611 -0.2977
  873MOL0     H17788   3.720   7.405   3.890  0.4700  0.6041  1.1236
  873MOL0     H17789   3.880   7.313   3.747 -2.5601  1.7806  0.6977
  873MOL0     H17790   3.995   7.110   3.641 -1.1425  4.7281  0.8892
  873MOL0     H17791   4.114   7.234   3.683  3.0134 -0.3168 -0.1919
  873MOL0     H17792   4.224   7.046   3.564 -0.4830 -2.2086 -0.1726
  873MOL0     H17793   4.176   6.941   3.696  0.3166  0.2516 -0.4981
  873MOL0     H17794   4.299   7.180   3.797  0.3075  1.4772 -2.4864
  873MOL0     H17795   4.405   7.108   3.668 -0.3388  3.1540 -0.6910
  873MOL0     H17796   4.308   6.954   3.912  0.6994  1.8844 -0.0402
  873MOL0     H17797   4.394   6.883   3.776 -0.1649 -1.0954  0.4427
  873MOL0     H17798   4.581   7.071   3.829 -2.6303  0.6901 -1.1073
  873MOL0     H17799   4.492   7.082   3.985 -2.1145  1.5247 -1.7086
  873MOL0     H17800   4.527   6.840   4.013  0.5634  1.1966  2.6749
  873MOL0     H17801   4.630   6.835   3.864  1.2400  2.1606 -1.1647
  873MOL0     H17802   4.744   6.841   4.093  0.2909 -1.7409  0.1592
  873MOL0     H17803   4.690   7.008   4.107  0.3425 -0.1385 -0.1548
  873MOL0     H17804   4.834   6.925   3.867  0.1323 -2.0345  1.2929
  873MOL0     H17805   4.812   7.095   3.919 -0.6503 -0.6091 -2.9706
  873MOL0     H17806   5.064   7.170   3.954  0.8135 -0.4575 -1.3085
  873MOL0     H17807   5.387   6.985   4.089 -3.1143 -3.1536 -0.1118
  873MOL0     H17808   5.362   7.043   3.929  0.2288  0.9258 -0.3762
  873MOL0     H17809   5.248   7.247   4.097  0.3102 -1.1263  0.2219
  873MOL0     H17810   5.424   7.212   4.142  3.4970 -1.9996 -3.5746
  873MOL0     H17811   5.399   7.395   3.973 -0.7357  0.8604  0.0602
  873MOL0     H17812   5.313   7.288   3.865  0.8608  0.8737 -0.1779
  873MOL0     H17813   5.582   7.320   3.823  0.2063 -0.0165 -1.0798
  873MOL0     H17814   5.524   7.149   3.836 -1.0245 -0.1096 -0.3424
  873MOL0     H17815   5.811   7.190   4.189  1.5537  2.2370  1.3212
  873MOL0     H17816   6.029   7.259   4.191 -3.2717  3.6048  2.4004
  873MOL0     H17817   6.402   7.181   3.890  0.7336 -0.5098  1.7589
  873MOL0     H17818   6.642   7.176   3.893  2.4692  0.2996  0.1858
  873MOL0     H17819   6.835   7.275   4.017 -0.3741  3.7479  1.4979
  873MOL0     H17820   6.900   7.214   3.861 -0.2319 -0.5668  1.5425
  873MOL0     H17821   6.996   7.458   4.012  0.2864 -1.4276  1.6078
  873MOL0     H17822   7.074   7.296   4.028  3.5984  0.5272 -1.5126
  873MOL0     H17823   7.109   7.300   3.773  0.2375 -1.9918  3.2964
  873MOL0     H17824   7.082   7.470   3.779  0.3223 -1.1590 -2.4783
  873MOL0     H17825   7.299   7.312   3.943  1.4058 -0.1080 -0.4634
  873MOL0     H17826   7.265   7.477   3.959  1.6050 -0.3754  1.2790
  873MOL0     H17827   7.316   7.511   3.708 -0.4454 -1.1703 -1.9206
  873MOL0     H17828   7.359   7.346   3.689  0.9751  0.5965 -0.6591
  873MOL0     H17829   7.496   7.550   3.870 -1.5298  0.1516  0.1846
  873MOL0     H17830   7.541   7.371   3.861  0.4207 -0.8941 -1.3258
  873MOL0     H17831   7.545   7.565   3.609  1.3476  0.9031  0.6598
  873MOL0     H17832   7.575   7.390   3.620 -1.9418  1.3817 -2.4931
  873MOL0     H17833   7.743   7.566   3.601 -1.6232 -0.2334  0.2476
  873MOL0     H17834   7.700   7.638   3.748 -1.0612  0.4356 -1.2455
  873MOL0     H17835   6.656   7.598   3.809 -1.4212  0.4956 -4.0805
  873MOL0     H17836   6.404   7.604   3.851  1.0767  0.2004  0.6342
  873MOL0     H17837   6.029   7.356   3.782  1.0841  0.1175  0.5220
  873MOL0     H17838   5.788   7.309   3.771 -1.8600  0.2384  0.7502
  873MOL0     H17839   4.046   7.099   4.095 -0.5064  0.3307  2.9792
  873MOL0     H17840   3.892   7.206   4.228  1.0296 -1.6156 -0.7392
  873MOL0     H17841   3.653   7.493   4.372  1.7040 -2.6011 -1.7053
  873MOL0     H17842   3.527   7.576   4.557  1.1484  1.0738 -1.4438
  873MOL0     H17843   3.369   7.673   4.664  2.3245 -0.3068  0.1277
  873MOL0     H17844   3.425   7.543   4.758 -2.0889 -4.7178  0.1149
  873MOL0     H17845   3.289   7.724   4.859 -0.1593  0.4752 -0.3713
  873MOL0     H17846   3.267   7.560   4.910 -0.7761 -1.5526  0.3381
  873MOL0     H17847   3.042   7.658   4.902 -0.2641 -0.5787 -0.1603
  873MOL0     H17848   3.056   7.570   4.746  1.2450 -0.0620 -1.5261
  873MOL0     H17849   3.133   7.852   4.751  1.7336 -2.4602  3.8444
  873MOL0     H17850   3.116   7.738   4.612  0.2639  0.3918 -0.4105
  873MOL0     H17851   2.736   7.899   4.646 -0.2331 -0.2215 -0.5820
  873MOL0     H17852   3.207   7.295   4.484  1.0850 -2.1043 -1.2205
  873MOL0     H17853   3.359   7.094   4.246 -1.5541 -1.3537  0.9807
  873MOL0     H17854   3.207   7.153   4.316  2.4887  0.0800  2.6958
  873MOL0     H17855   3.254   7.222   4.165  0.7731  1.6035  0.0709
  874MOL0     O17856   5.402   9.450   6.579 -0.1920 -0.0708 -0.1485
  874MOL0     C17857   5.380   9.547   6.507 -0.2262 -0.0029  0.5112
  874MOL0     O17858   5.404   9.558   6.372  0.0414  0.0856 -0.6112
  874MOL0     C17859   5.436   9.440   6.309  0.0325  0.2016  1.1569
  874MOL0     C17860   5.543   9.452   6.221 -0.4402  0.4989 -0.3601
  874MOL0     C17861   5.578   9.345   6.137 -0.2331 -0.5142 -0.6094
  874MOL0     C17862   5.508   9.224   6.137  0.2212 -0.3538  0.1042
  874MOL0     O17863   5.537   9.134   6.045  0.2223  0.0580 -0.3198
  874MOL0     C17864   5.458   9.013   6.055 -0.4417 -1.1845  0.6112
  874MOL0     C17865   5.494   8.900   5.963  0.1812 -0.6072  0.1122
  874MOL0     C17866   5.600   8.806   6.018  0.4043  0.2497  0.0533
  874MOL0     C17867   5.657   8.711   5.912 -0.4586 -0.2079 -0.2410
  874MOL0     C17868   5.770   8.605   5.961  0.4703  0.8593  0.2856
  874MOL0     C17869   5.888   8.657   6.044  0.6099 -0.7740 -0.5193
  874MOL0     C17870   5.983   8.551   6.105  0.5863  0.3790  0.0713
  874MOL0     C17871   6.056   8.612   6.227 -0.1500  0.8584 -0.1207
  874MOL0     N17872   6.157   8.705   6.194 -0.2776  0.5796  0.5418
  874MOL0     C17873   6.141   8.830   6.126 -0.2540  0.2359  0.5305
  874MOL0     C17874   6.265   8.841   6.059  0.0623 -0.2236 -0.2744
  874MOL0     C17875   6.297   8.951   5.960  0.8826 -0.4325  0.7351
  874MOL0     C17876   6.410   9.049   6.007  0.3165 -0.2331 -0.0500
  874MOL0     C17877   6.548   8.986   5.971  0.8969  0.4671  1.2266
  874MOL0     C17878   6.655   9.088   5.969  0.5926 -0.4548  0.1251
  874MOL0     O17879   6.776   9.032   5.920  0.1179 -0.8873 -0.4637
  874MOL0     C17880   6.863   8.962   5.997  0.3056 -0.0724  0.2555
  874MOL0     C17881   6.852   8.935   6.138  0.6538  0.3733 -0.1151
  874MOL0     C17882   6.966   8.885   6.210 -0.1842 -0.9069 -0.5023
  874MOL0     C17883   7.086   8.859   6.144 -0.4238 -0.2778 -0.0077
  874MOL0     C17884   7.207   8.796   6.211  0.1868  1.2420  0.1924
  874MOL0     O17885   7.319   8.776   6.145  0.0610 -0.1706 -0.2305
  874MOL0     C17886   7.434   8.746   6.214 -0.1599 -0.0298 -0.1020
  874MOL0     C17887   7.518   8.854   6.267 -0.6152  0.5742  0.5144
  874MOL0     C17888   7.653   8.831   6.311  0.6943  0.0260 -0.8179
  874MOL0     C17889   7.708   8.706   6.294  0.4015 -0.4285 -0.3608
  874MOL0     O17890   7.839   8.686   6.345 -0.3914 -0.3053 -0.3249
  874MOL0     C17891   7.855   8.577   6.437  0.6089  0.0772  0.2615
  874MOL0     C17892   7.988   8.601   6.511 -0.3120 -0.2501  0.0720
  874MOL0     C17893   8.108   8.567   6.427 -0.9172 -0.3431  0.6429
  874MOL0     C17894   8.242   8.583   6.498  0.9209  0.7305  0.3431
  874MOL0     C17895   8.376   8.541   6.440 -0.1696  0.5553 -0.4771
  874MOL0     C17896   8.391   8.533   6.286  0.7278  0.3764 -1.1013
  874MOL0     C17897   8.530   8.480   6.256 -0.5918 -0.3997  0.3918
  874MOL0     C17898   8.558   8.421   6.127  0.0249 -0.0096  0.1193
  874MOL0    Cl17899   8.736   8.397   6.124 -0.0519  0.1068 -0.3860
  874MOL0     C17900   7.620   8.600   6.252 -0.4974  0.3186 -0.2316
  874MOL0     C17901   7.486   8.618   6.217  0.3668 -0.2855 -0.2603
  874MOL0     O17902   7.190   8.753   6.322  0.4756 -0.4004  0.2042
  874MOL0     C17903   7.085   8.879   6.008 -0.2787  0.0099  0.6250
  874MOL0     C17904   6.979   8.932   5.938  0.1270  0.1996 -0.4978
  874MOL0     N17905   6.345   8.734   6.098 -0.2551 -0.4842  0.1565
  874MOL0     N17906   6.284   8.663   6.180  0.4230 -0.4029  0.1861
  874MOL0     C17907   5.403   9.217   6.235 -0.6130  0.1450 -0.0789
  874MOL0     C17908   5.361   9.325   6.308 -0.4725 -0.0395  0.4165
  874MOL0     C17909   5.364   9.674   6.575  0.2321 -0.0389  0.3079
  874MOL0     C17910   5.471   9.770   6.565 -0.2322  0.4753  0.5245
  874MOL0     C17911   5.468   9.898   6.632  0.8832 -0.6472 -0.1586
  874MOL0     C17912   5.350   9.933   6.691  0.4326 -0.3385  0.0097
  874MOL0     O17913   5.352  10.065   6.723  0.6281 -0.5997 -0.0270
  874MOL0     C17914   5.233  10.141   6.746  0.7772 -0.3384 -0.2820
  874MOL0     C17915   5.175  10.128   6.889  0.3422  0.0158  0.2310
  874MOL0     C17916   5.081  10.244   6.926 -0.5841  0.1197 -0.3178
  874MOL0     C17917   4.941  10.226   6.887  0.3584 -0.4120  0.1515
  874MOL0     C17918   4.924  10.249   6.745 -1.3002 -0.4435  0.4777
  874MOL0     C17919   4.918  10.260   6.626  0.5640 -0.5717 -0.3640
  874MOL0     C17920   5.238   9.839   6.693 -0.2346 -0.6567 -0.3127
  874MOL0     C17921   5.249   9.713   6.643  0.0111 -0.3236  0.4224
  874MOL0     C17922   5.136   9.607   6.659 -0.3169  0.0659  0.1461
  874MOL0     H17923   5.602   9.543   6.219  0.5737 -0.1564 -0.7584
  874MOL0     H17924   5.668   9.360   6.079 -0.8412  3.5936 -0.8355
  874MOL0     H17925   5.451   8.974   6.157 -4.7630 -0.3048  0.8369
  874MOL0     H17926   5.357   9.045   6.027 -0.0170  0.0006  0.3654
  874MOL0     H17927   5.527   8.947   5.870 -2.9783  0.9167 -0.3797
  874MOL0     H17928   5.400   8.846   5.945 -1.4759 -0.3460  5.9528
  874MOL0     H17929   5.549   8.743   6.092  0.2255 -1.4242 -1.4309
  874MOL0     H17930   5.672   8.866   6.075 -0.5704  0.2629  1.3254
  874MOL0     H17931   5.582   8.661   5.851 -0.1736 -3.2009  1.6263
  874MOL0     H17932   5.718   8.773   5.846 -1.6337  1.2658  0.0231
  874MOL0     H17933   5.717   8.536   6.028  1.4025 -0.6334 -0.4750
  874MOL0     H17934   5.808   8.557   5.871 -1.3688  0.6811 -0.4307
  874MOL0     H17935   5.951   8.723   5.983  1.5297 -0.9415  0.2294
  874MOL0     H17936   5.840   8.722   6.118 -0.7575 -0.6900 -1.4370
  874MOL0     H17937   6.056   8.524   6.027  0.0338  0.6513 -0.5550
  874MOL0     H17938   5.938   8.460   6.145  1.5892 -1.0822 -1.9663
  874MOL0     H17939   5.975   8.661   6.282 -0.8813 -0.4554  0.0151
  874MOL0     H17940   6.094   8.533   6.293 -1.7494 -0.2072 -0.3964
  874MOL0     H17941   6.051   8.888   6.112  0.2681  1.0078  0.3117
  874MOL0     H17942   6.306   8.912   5.858 -1.9116 -0.6142  0.4723
  874MOL0     H17943   6.203   9.007   5.952  0.2017 -1.5372  0.7493
  874MOL0     H17944   6.397   9.145   5.957 -5.1954  0.5921  2.3416
  874MOL0     H17945   6.404   9.063   6.115  1.6916  1.1130 -0.1125
  874MOL0     H17946   6.526   8.946   5.872 -2.2798 -1.4925  2.5399
  874MOL0     H17947   6.575   8.903   6.037  0.9924 -1.7554 -1.4212
  874MOL0     H17948   6.676   9.124   6.071  4.8616  2.3178 -1.4535
  874MOL0     H17949   6.632   9.183   5.920  0.9644  0.6576  1.9847
  874MOL0     H17950   6.763   8.947   6.199  1.5053  4.8051  0.5333
  874MOL0     H17951   6.963   8.862   6.315 -0.3520 -1.6911 -0.6784
  874MOL0     H17952   7.465   8.949   6.269 -2.3119 -0.3449  1.8876
  874MOL0     H17953   7.712   8.917   6.339 -0.5668  0.5345  0.3861
  874MOL0     H17954   7.778   8.584   6.514  0.5758  1.4737  0.1322
  874MOL0     H17955   7.854   8.477   6.392 -0.8205 -0.4999  1.4904
  874MOL0     H17956   7.992   8.706   6.540  1.5045 -0.6397  1.4492
  874MOL0     H17957   7.994   8.534   6.597  0.6246 -0.7845 -0.3905
  874MOL0     H17958   8.112   8.469   6.380  0.3736  0.7064 -1.6149
  874MOL0     H17959   8.112   8.622   6.333 -0.0445 -4.2101 -1.7847
  874MOL0     H17960   8.224   8.530   6.592 -0.0088  1.7676  0.7778
  874MOL0     H17961   8.246   8.688   6.530 -2.8130  0.8831  0.8349
  874MOL0     H17962   8.385   8.437   6.472  0.5640  0.2451 -1.6322
  874MOL0     H17963   8.457   8.599   6.486  0.4151 -1.3699  1.0650
  874MOL0     H17964   8.316   8.472   6.236  1.4175 -1.8318  0.4212
  874MOL0     H17965   8.385   8.632   6.240 -3.5329  0.6379 -0.3720
  874MOL0     H17966   8.545   8.411   6.338 -1.2857  0.1655  1.0091
  874MOL0     H17967   8.596   8.567   6.266 -2.1446  0.7598  0.8972
  874MOL0     H17968   8.509   8.324   6.125 -0.4520  0.1973 -2.7984
  874MOL0     H17969   8.519   8.479   6.043  0.6868  1.2865  0.6688
  874MOL0     H17970   7.654   8.497   6.263  0.3898  0.4834 -1.2840
  874MOL0     H17971   7.410   8.543   6.198 -1.4899  1.0816  1.3976
  874MOL0     H17972   7.168   8.876   5.938 -0.7356  0.6231  0.0439
  874MOL0     H17973   6.995   8.968   5.837  0.0902 -0.4379 -0.7345
  874MOL0     H17974   5.343   9.127   6.252  3.2952 -2.6862  0.0293
  874MOL0     H17975   5.281   9.307   6.379  0.0389 -2.6729  0.4134
  874MOL0     H17976   5.558   9.752   6.503 -0.2402  0.9630  0.3676
  874MOL0     H17977   5.546   9.970   6.611 -0.0060  0.7964  1.2553
  874MOL0     H17978   5.151  10.125   6.675 -0.4248 -0.4552  1.0848
  874MOL0     H17979   5.278  10.240   6.732  4.1053 -1.8624 -1.2370
  874MOL0     H17980   5.248  10.128   6.970 -0.3311  1.5731  0.8741
  874MOL0     H17981   5.119  10.034   6.886 -1.0073  0.7921  0.2980
  874MOL0     H17982   5.117  10.344   6.899 -1.4118  1.7869  3.9883
  874MOL0     H17983   5.072  10.249   7.035  0.3579  0.2813 -0.2414
  874MOL0     H17984   4.893  10.132   6.916 -2.0396  1.1354  1.5461
  874MOL0     H17985   4.884  10.303   6.939 -0.5484 -1.8426  1.3740
  874MOL0     H17986   4.912  10.278   6.520  1.4157  1.2719 -0.1442
  874MOL0     H17987   5.141   9.860   6.737 -0.7034  0.0993 -1.6347
  874MOL0     H17988   5.049   9.646   6.712 -2.7722 -2.4839 -1.6729
  874MOL0     H17989   5.094   9.571   6.565 -1.3838 -0.8473  0.9516
  874MOL0     H17990   5.167   9.517   6.712  0.6503  1.6682  2.4344
  875MOL0     O17991   5.469   4.829   6.571  0.4412 -0.9040  0.6810
  875MOL0     C17992   5.391   4.752   6.624  0.3073  0.2810 -0.2895
  875MOL0     O17993   5.424   4.621   6.651  0.2537  0.0411 -0.0871
  875MOL0     C17994   5.552   4.587   6.637  0.6830  0.6116  1.0319
  875MOL0     C17995   5.625   4.567   6.749 -0.2997 -0.3468  0.4663
  875MOL0     C17996   5.759   4.526   6.750  0.1751 -0.4843 -0.1088
  875MOL0     C17997   5.827   4.516   6.620  1.0999  0.2543 -0.5583
  875MOL0     O17998   5.957   4.491   6.599 -0.3923 -0.0358  0.2358
  875MOL0     C17999   6.053   4.485   6.701 -0.4883  0.4314  0.9264
  875MOL0     C18000   6.190   4.485   6.645 -0.3428  1.1526  0.2975
  875MOL0     C18001   6.298   4.473   6.752  0.1404 -0.0773 -0.1329
  875MOL0     C18002   6.426   4.543   6.717 -0.1836  0.0036 -0.4102
  875MOL0     C18003   6.493   4.482   6.594 -0.6099 -0.4862 -0.2619
  875MOL0     C18004   6.625   4.562   6.564  0.2666  0.4666  0.2111
  875MOL0     C18005   6.714   4.497   6.454 -0.1330 -0.7559  0.3817
  875MOL0     C18006   6.812   4.393   6.506 -0.1356  0.6234  0.4508
  875MOL0     N18007   6.863   4.310   6.402 -0.5603 -0.0947  0.6103
  875MOL0     C18008   6.875   4.342   6.268  0.2198 -0.3058 -0.2591
  875MOL0     C18009   6.958   4.248   6.213 -0.0019  0.1112  0.5670
  875MOL0     C18010   7.003   4.240   6.073  0.0629 -0.0314 -0.3122
  875MOL0     C18011   7.092   4.355   6.038  0.2718  0.5184  0.3249
  875MOL0     C18012   7.220   4.355   6.117  0.2006  0.0824  0.1296
  875MOL0     C18013   7.305   4.474   6.080 -0.4343 -0.2907  1.6194
  875MOL0     O18014   7.232   4.594   6.113 -0.3294 -0.2594  0.4808
  875MOL0     C18015   7.200   4.614   6.242  0.7714  0.0255 -0.7328
  875MOL0     C18016   7.072   4.655   6.278 -0.1214  0.5856 -0.7131
  875MOL0     C18017   7.036   4.688   6.410  0.0400 -1.5254 -0.2198
  875MOL0     C18018   7.136   4.680   6.513  0.3407 -0.0347 -1.0671
  875MOL0     C18019   7.106   4.712   6.655 -0.9559 -0.2288 -0.1311
  875MOL0     O18020   7.203   4.708   6.751 -0.1297  0.0371  0.1761
  875MOL0     C18021   7.166   4.723   6.879 -0.6963 -0.5309 -0.8005
  875MOL0     C18022   7.124   4.849   6.936  0.7766  0.1644  0.1317
  875MOL0     C18023   7.055   4.830   7.062 -0.5046 -0.3813 -0.2104
  875MOL0     C18024   7.033   4.708   7.130 -0.5740  0.0897  0.5427
  875MOL0     O18025   6.970   4.716   7.252 -0.1137  0.0059 -0.4217
  875MOL0     C18026   6.907   4.595   7.306  0.2445  1.3205  0.2048
  875MOL0     C18027   6.769   4.629   7.362 -0.1181  0.3281 -0.2142
  875MOL0     C18028   6.688   4.505   7.398 -0.0762  0.1853 -0.5103
  875MOL0     C18029   6.752   4.422   7.515  0.4408 -0.2419 -0.1151
  875MOL0     C18030   6.668   4.299   7.553  0.5335  0.8102  0.0324
  875MOL0     C18031   6.759   4.190   7.607 -0.5882  0.9296 -0.5806
  875MOL0     C18032   6.691   4.084   7.693 -1.0996  0.0088 -0.4605
  875MOL0     C18033   6.662   4.138   7.825  0.0621 -1.0206  0.4711
  875MOL0    Cl18034   6.603   3.988   7.920  0.3600 -0.4366  0.0725
  875MOL0     C18035   7.084   4.595   7.066 -0.1332 -0.6388 -1.1148
  875MOL0     C18036   7.149   4.596   6.944 -1.1104  0.1841 -0.1663
  875MOL0     O18037   6.985   4.725   6.687  0.3327 -0.1030  0.1105
  875MOL0     C18038   7.263   4.638   6.475  1.0643 -0.5495 -0.4106
  875MOL0     C18039   7.294   4.611   6.336 -0.7235 -0.7724 -0.3697
  875MOL0     N18040   6.999   4.156   6.309 -0.0722 -0.3328  0.3057
  875MOL0     N18041   6.947   4.198   6.422 -0.7098 -0.2674 -0.1877
  875MOL0     C18042   5.743   4.536   6.509 -0.8236  0.2299  0.5048
  875MOL0     C18043   5.610   4.569   6.515  0.8513  0.7821  0.1951
  875MOL0     C18044   5.246   4.769   6.633 -0.1014  0.1135  0.6003
  875MOL0     C18045   5.165   4.663   6.688  0.3140  1.0605  0.7031
  875MOL0     C18046   5.024   4.663   6.679 -0.0366 -0.6061 -0.4930
  875MOL0     C18047   4.962   4.765   6.618  0.2202 -0.7828 -1.0343
  875MOL0     O18048   4.825   4.766   6.625 -0.3366  0.2130 -0.7136
  875MOL0     C18049   4.748   4.875   6.580  0.1096  0.4725 -0.2629
  875MOL0     C18050   4.609   4.899   6.638  0.8092  0.4225  0.6147
  875MOL0     C18051   4.613   4.962   6.777 -0.0559 -0.4122 -0.2478
  875MOL0     C18052   4.465   4.953   6.835 -0.0372 -0.2888 -0.2097
  875MOL0     C18053   4.380   5.038   6.763  0.0952 -0.4214  0.0874
  875MOL0     C18054   4.321   5.118   6.705  0.6692 -0.0113  0.7360
  875MOL0     C18055   5.039   4.874   6.571  0.0448 -1.0113 -0.2385
  875MOL0     C18056   5.180   4.883   6.578 -0.7096  0.4512  1.0424
  875MOL0     C18057   5.250   5.005   6.520 -0.8067 -0.2424  0.2893
  875MOL0     H18058   5.572   4.547   6.841  1.8824 -4.0008  1.1367
  875MOL0     H18059   5.811   4.519   6.846  2.3845 -0.2256 -1.2186
  875MOL0     H18060   6.025   4.570   6.764 -2.4923 -0.7308  1.7019
  875MOL0     H18061   6.033   4.399   6.765  4.2913  0.6605  3.1068
  875MOL0     H18062   6.210   4.565   6.573 -1.7824  1.5585  0.3267
  875MOL0     H18063   6.199   4.386   6.600 -0.5085 -0.7569  4.0868
  875MOL0     H18064   6.322   4.368   6.770  0.7626 -0.1653 -1.3392
  875MOL0     H18065   6.269   4.504   6.852  1.8227  1.0868  0.0396
  875MOL0     H18066   6.402   4.650   6.709 -0.6077  0.0827  1.4574
  875MOL0     H18067   6.498   4.533   6.799 -1.1777  1.8325  0.7679
  875MOL0     H18068   6.518   4.380   6.623 -0.0147 -0.6215 -1.2141
  875MOL0     H18069   6.434   4.468   6.503 -2.8355 -3.4024  1.4680
  875MOL0     H18070   6.592   4.662   6.536 -0.1020  0.6555  1.2989
  875MOL0     H18071   6.683   4.585   6.653  1.5462  2.1625 -0.9893
  875MOL0     H18072   6.765   4.584   6.411 -3.1334 -0.2974 -2.6205
  875MOL0     H18073   6.649   4.461   6.374 -2.5981  0.5177  1.7189
  875MOL0     H18074   6.891   4.443   6.562 -0.7303  1.9115  0.1833
  875MOL0     H18075   6.760   4.333   6.582 -2.8159  3.8325  1.3732
  875MOL0     H18076   6.831   4.432   6.226 -0.8086  0.4969  2.3334
  875MOL0     H18077   7.058   4.154   6.034  0.5967  2.2216 -5.3077
  875MOL0     H18078   6.915   4.247   6.007 -0.9391 -3.2761  0.5028
  875MOL0     H18079   7.112   4.356   5.931  1.4543 -1.2836  0.4735
  875MOL0     H18080   7.045   4.450   6.065 -1.5144 -0.5789  1.2961
  875MOL0     H18081   7.274   4.263   6.091 -1.6234 -0.7079 -1.1133
  875MOL0     H18082   7.212   4.351   6.226  1.0790  0.6708  0.2274
  875MOL0     H18083   7.322   4.484   5.973  0.6653  5.3784  2.0150
  875MOL0     H18084   7.405   4.486   6.123  0.0447  3.8030 -0.1692
  875MOL0     H18085   7.007   4.669   6.193  0.6240 -0.7605 -1.5407
  875MOL0     H18086   6.939   4.736   6.423  0.7264 -0.2172  0.2467
  875MOL0     H18087   7.141   4.941   6.881  0.5668  0.6146  0.7913
  875MOL0     H18088   7.019   4.914   7.120  3.3033  0.5435  1.0530
  875MOL0     H18089   6.897   4.520   7.226  0.8399  1.9706 -0.4931
  875MOL0     H18090   6.979   4.552   7.377  2.3896  1.9341 -1.5028
  875MOL0     H18091   6.788   4.677   7.459  2.0070 -0.2514 -0.2889
  875MOL0     H18092   6.714   4.697   7.296 -1.6408 -2.5017 -2.0369
  875MOL0     H18093   6.588   4.531   7.433  0.4637 -0.8190  2.0056
  875MOL0     H18094   6.687   4.458   7.300  0.9919  1.4661 -1.1712
  875MOL0     H18095   6.769   4.481   7.606  1.8800 -0.3890 -0.2629
  875MOL0     H18096   6.851   4.392   7.481 -0.3598 -1.0051 -1.8934
  875MOL0     H18097   6.622   4.249   7.467  0.1260  3.1420 -1.1912
  875MOL0     H18098   6.582   4.328   7.613  0.2263 -0.0477  0.0169
  875MOL0     H18099   6.799   4.137   7.520 -0.9208  0.8794 -0.7039
  875MOL0     H18100   6.848   4.229   7.658 -0.7567  1.7748 -0.9215
  875MOL0     H18101   6.765   4.005   7.706 -1.0657 -0.2004 -1.8619
  875MOL0     H18102   6.594   4.045   7.662 -1.0055 -3.1815  2.6284
  875MOL0     H18103   6.740   4.193   7.878 -2.1430  1.9975  0.8417
  875MOL0     H18104   6.588   4.218   7.821  0.0922 -1.0046  0.2263
  875MOL0     H18105   7.071   4.501   7.119 -0.0899 -0.6448 -1.1146
  875MOL0     H18106   7.189   4.504   6.904  0.2458  0.2338  0.9859
  875MOL0     H18107   7.338   4.627   6.553  1.0460  1.0083 -0.1547
  875MOL0     H18108   7.399   4.598   6.309 -0.7148 -2.3453  0.3522
  875MOL0     H18109   5.796   4.558   6.417  1.2831  0.9108  1.8045
  875MOL0     H18110   5.559   4.587   6.421  1.0070 -0.6437 -0.1788
  875MOL0     H18111   5.207   4.574   6.734  3.6400  1.0095 -2.0302
  875MOL0     H18112   4.969   4.583   6.726  0.6476  0.2559  1.9206
  875MOL0     H18113   4.729   4.851   6.475 -2.9882  1.4713 -0.0424
  875MOL0     H18114   4.798   4.972   6.589  0.4308  0.1923  1.4647
  875MOL0     H18115   4.576   4.796   6.651  4.4347 -0.8545  0.9285
  875MOL0     H18116   4.544   4.955   6.570  0.2711 -0.3479  0.4832
  875MOL0     H18117   4.650   5.064   6.765 -2.4417  0.3200 -2.1874
  875MOL0     H18118   4.686   4.913   6.843 -0.8473 -0.6742  0.4455
  875MOL0     H18119   4.424   4.852   6.838  0.8177 -0.6444  2.2774
  875MOL0     H18120   4.476   4.979   6.941 -1.8124  0.0922 -0.0934
  875MOL0     H18121   4.258   5.197   6.669  2.7772  1.1125 -0.7478
  875MOL0     H18122   4.996   4.956   6.514 -2.1056  0.5009  3.2227
  875MOL0     H18123   5.312   5.037   6.604  0.3205 -0.1635 -0.5362
  875MOL0     H18124   5.321   4.984   6.439  1.5087  3.3485  1.1647
  875MOL0     H18125   5.179   5.080   6.486 -1.1862 -0.8102 -0.1915
  876MOL0     O18126   6.989   8.976   0.906 -0.4530 -0.3414  0.2837
  876MOL0     C18127   6.905   9.044   0.840 -1.0183 -0.5421  0.1680
  876MOL0     O18128   6.890   9.052   0.702 -0.2354  0.3447 -0.3179
  876MOL0     C18129   6.983   8.977   0.632 -0.4301  0.6706  0.4855
  876MOL0     C18130   7.095   9.054   0.588 -0.2208 -0.6306  0.5391
  876MOL0     C18131   7.208   9.004   0.519  0.5329  0.1944  0.3989
  876MOL0     C18132   7.213   8.858   0.500  0.2526  0.5461 -0.5374
  876MOL0     O18133   7.308   8.784   0.438 -0.1539  0.6824  0.0149
  876MOL0     C18134   7.442   8.826   0.413 -0.3818 -1.5660  0.5222
  876MOL0     C18135   7.512   8.820   0.547  0.4889  0.2918  0.0775
  876MOL0     C18136   7.664   8.841   0.523 -0.0045 -0.4940  0.5421
  876MOL0     C18137   7.770   8.805   0.632  0.5980 -0.7462 -0.1228
  876MOL0     C18138   7.904   8.874   0.592  0.2401  0.9943 -0.0570
  876MOL0     C18139   7.932   9.002   0.670  0.7833 -0.4950 -0.0924
  876MOL0     C18140   8.050   9.072   0.607 -0.3622 -0.5506 -1.6221
  876MOL0     C18141   8.177   9.042   0.688 -0.1761  1.0566  0.5085
  876MOL0     N18142   8.293   9.094   0.612  0.0857 -0.4026 -0.1731
  876MOL0     C18143   8.429   9.051   0.613 -0.3170 -0.6942 -0.0949
  876MOL0     C18144   8.497   9.149   0.552 -0.0250  0.5501 -0.6593
  876MOL0     C18145   8.641   9.147   0.503 -0.8038  0.1799  1.3454
  876MOL0     C18146   8.745   9.211   0.598 -0.3358  0.2813 -0.1799
  876MOL0     C18147   8.845   9.302   0.528 -0.3297  0.1895 -0.5887
  876MOL0     C18148   8.949   9.359   0.626 -0.2341 -0.3200  0.5678
  876MOL0     O18149   9.053   9.263   0.648  0.1481  0.5071 -0.1881
  876MOL0     C18150   9.136   9.297   0.750  0.0260  0.5183  0.9895
  876MOL0     C18151   9.223   9.192   0.773 -0.9150  0.8164  0.2360
  876MOL0     C18152   9.331   9.206   0.862  0.3259 -0.6496  1.1073
  876MOL0     C18153   9.341   9.321   0.945  0.6517 -0.3601  0.5099
  876MOL0     C18154   9.451   9.343   1.047 -0.4007 -0.1463 -0.1345
  876MOL0     O18155   9.540   9.244   1.076  0.2228 -0.7236  0.1309
  876MOL0     C18156   9.644   9.270   1.163 -0.7265 -0.5791 -0.1639
  876MOL0     C18157   9.695   9.161   1.231 -0.1731  0.0477 -0.4856
  876MOL0     C18158   9.800   9.174   1.318  0.1914 -0.7561 -0.3290
  876MOL0     C18159   9.857   9.303   1.343  0.3742  0.2822 -0.2316
  876MOL0     O18160   9.960   9.309   1.434 -0.5899  0.2789  0.1695
  876MOL0     C18161  10.087   9.342   1.372  0.2458  0.3352  0.3291
  876MOL0     C18162  10.183   9.397   1.470 -0.1008 -0.5809  0.2818
  876MOL0     C18163  10.203   9.315   1.602 -0.1294  0.6392 -0.1302
  876MOL0     C18164  10.328   9.364   1.683  0.2247 -1.2291  0.7027
  876MOL0     C18165  10.441   9.417   1.596  0.4094 -0.3531 -0.8814
  876MOL0     C18166  10.565   9.440   1.679  0.1962  0.2693 -1.3441
  876MOL0     C18167  10.679   9.503   1.590  0.3183  0.0665 -0.3283
  876MOL0     C18168  10.802   9.574   1.653  0.7340  0.6335 -0.7785
  876MOL0    Cl18169  10.908   9.457   1.748 -0.0467  0.2121 -0.2027
  876MOL0     C18170   9.813   9.415   1.277  0.5758 -0.2015  0.9944
  876MOL0     C18171   9.705   9.394   1.186 -1.1052  0.6547 -0.2307
  876MOL0     O18172   9.432   9.441   1.119 -0.0086  0.3489 -0.4731
  876MOL0     C18173   9.240   9.432   0.922  0.3032  0.1896 -0.5935
  876MOL0     C18174   9.152   9.421   0.817  0.4864 -0.6360 -0.4768
  876MOL0     N18175   8.418   9.263   0.534  0.6309  0.4961  0.0064
  876MOL0     N18176   8.304   9.224   0.566  1.5376 -0.5435 -0.1757
  876MOL0     C18177   7.107   8.780   0.544  0.2746 -0.9720 -0.2605
  876MOL0     C18178   6.991   8.836   0.616  0.1569 -0.5563  0.0615
  876MOL0     C18179   6.822   9.143   0.918  0.1324  0.0334 -0.1821
  876MOL0     C18180   6.705   9.194   0.866 -0.6506  0.2999 -0.1220
  876MOL0     C18181   6.614   9.282   0.930  0.3907  0.0841  0.1802
  876MOL0     C18182   6.644   9.333   1.053  0.3286  0.0345 -0.1009
  876MOL0     O18183   6.562   9.404   1.139 -0.2994  0.1627  0.2196
  876MOL0     C18184   6.472   9.493   1.085 -0.2112  0.2082  0.2183
  876MOL0     C18185   6.345   9.414   1.074 -0.3076 -0.5183 -0.1970
  876MOL0     C18186   6.264   9.403   1.201  0.6915 -0.6014  0.3595
  876MOL0     C18187   6.186   9.536   1.226 -0.1515  0.6873  0.2795
  876MOL0     C18188   6.044   9.510   1.244 -0.1083 -0.5582  0.8154
  876MOL0     C18189   5.920   9.493   1.238  0.1298 -0.7442  0.2702
  876MOL0     C18190   6.761   9.288   1.112 -0.6199  1.2133  0.5305
  876MOL0     C18191   6.848   9.190   1.047  0.6885  0.3353  0.0985
  876MOL0     C18192   6.975   9.151   1.114 -0.2631 -0.8029  0.2601
  876MOL0     H18193   7.093   9.161   0.603 -0.2184 -0.5931  0.2753
  876MOL0     H18194   7.290   9.059   0.474 -0.4802  1.3327 -0.1310
  876MOL0     H18195   7.476   8.755   0.337  1.2722 -0.8522  0.5417
  876MOL0     H18196   7.446   8.931   0.382  2.5189 -1.2991  1.5304
  876MOL0     H18197   7.503   8.723   0.596  2.0737 -0.5084 -1.1488
  876MOL0     H18198   7.481   8.896   0.620 -0.6901  0.5687 -0.6915
  876MOL0     H18199   7.677   8.943   0.487  1.9505 -1.1826 -0.8539
  876MOL0     H18200   7.692   8.780   0.437 -0.2366  2.3881 -1.7275
  876MOL0     H18201   7.747   8.834   0.735  0.4341  1.0950 -0.6382
  876MOL0     H18202   7.791   8.698   0.626  3.2588 -0.2476 -4.2909
  876MOL0     H18203   7.993   8.812   0.608 -0.6450 -0.3016  0.0367
  876MOL0     H18204   7.893   8.883   0.484  2.0723 -0.3985 -0.4210
  876MOL0     H18205   7.849   9.071   0.653  2.9732  2.6077  0.9945
  876MOL0     H18206   7.937   8.979   0.777 -2.1812  0.8536  0.4238
  876MOL0     H18207   8.031   9.180   0.601  0.9090 -0.2490 -0.7812
  876MOL0     H18208   8.070   9.051   0.502  1.2767  0.7066 -1.6022
  876MOL0     H18209   8.170   9.075   0.792 -0.1856 -0.5085  1.0303
  876MOL0     H18210   8.183   8.934   0.703 -1.3767  0.9357  0.2478
  876MOL0     H18211   8.456   8.952   0.646  0.4883 -1.1017 -1.8821
  876MOL0     H18212   8.677   9.045   0.487 -0.3840  0.0371  2.9841
  876MOL0     H18213   8.643   9.206   0.411  0.4941  0.3436  1.4638
  876MOL0     H18214   8.689   9.275   0.667 -1.3011 -0.0461 -0.6475
  876MOL0     H18215   8.796   9.130   0.652  1.0112  0.5999 -0.9262
  876MOL0     H18216   8.785   9.381   0.482 -1.0678 -0.9180 -1.5926
  876MOL0     H18217   8.894   9.250   0.445 -0.1811 -0.2044 -0.2591
  876MOL0     H18218   8.902   9.391   0.720  1.0921  0.4363  1.0018
  876MOL0     H18219   8.989   9.448   0.577  0.4553 -0.4024  0.9587
  876MOL0     H18220   9.220   9.097   0.720 -0.8897  0.5269  0.7470
  876MOL0     H18221   9.398   9.120   0.869 -0.4201 -1.3392  0.1374
  876MOL0     H18222   9.647   9.065   1.219  1.8517 -1.0156 -0.3863
  876MOL0     H18223   9.837   9.094   1.381 -0.3354  0.0841  1.1182
  876MOL0     H18224  10.134   9.255   1.325  1.3981  0.2196  1.6031
  876MOL0     H18225  10.087   9.423   1.299 -0.3858 -0.7011 -0.8523
  876MOL0     H18226  10.278   9.399   1.417 -1.2765 -3.5069 -2.2207
  876MOL0     H18227  10.155   9.500   1.495  0.6798 -1.0133  3.4549
  876MOL0     H18228  10.116   9.336   1.664 -0.1596  1.6165 -0.4906
  876MOL0     H18229  10.218   9.207   1.586  0.7842  0.8534 -0.7741
  876MOL0     H18230  10.358   9.281   1.747 -1.1830  0.6399  4.1078
  876MOL0     H18231  10.294   9.446   1.748 -0.2251 -1.5077  0.8196
  876MOL0     H18232  10.426   9.515   1.551  2.0115 -0.5531 -1.9534
  876MOL0     H18233  10.461   9.346   1.515  0.9790  1.1476 -2.1113
  876MOL0     H18234  10.538   9.495   1.770  0.8459 -0.4943 -0.6807
  876MOL0     H18235  10.611   9.346   1.708  0.5940  0.3616 -1.6625
  876MOL0     H18236  10.621   9.565   1.521  0.5787  0.1628 -0.4624
  876MOL0     H18237  10.717   9.425   1.524 -0.8761  0.3987 -1.4590
  876MOL0     H18238  10.863   9.612   1.571  1.6422 -1.8302 -1.3586
  876MOL0     H18239  10.756   9.639   1.728 -2.1847 -2.8031  0.7566
  876MOL0     H18240   9.860   9.512   1.294 -0.4219  0.4707  0.0811
  876MOL0     H18241   9.668   9.471   1.119 -0.6585  0.7386 -0.3846
  876MOL0     H18242   9.252   9.523   0.980  1.6575 -0.9017  0.9388
  876MOL0     H18243   9.095   9.511   0.795 -0.6482 -0.1953  3.5209
  876MOL0     H18244   7.107   8.673   0.523 -1.8920 -1.4462  1.7385
  876MOL0     H18245   6.917   8.769   0.658 -0.1013  0.7395  1.8045
  876MOL0     H18246   6.676   9.169   0.764 -2.0148  3.3298 -0.6134
  876MOL0     H18247   6.526   9.313   0.875 -0.4292  0.0212  1.4170
  876MOL0     H18248   6.500   9.525   0.984  2.0767 -1.1684  0.3478
  876MOL0     H18249   6.446   9.580   1.147  1.3293  0.3848  0.6493
  876MOL0     H18250   6.372   9.309   1.058  0.5450 -0.2259 -0.7636
  876MOL0     H18251   6.294   9.444   0.982  1.8580 -1.7613 -1.8964
  876MOL0     H18252   6.325   9.377   1.288  0.4617  0.8189  0.9715
  876MOL0     H18253   6.196   9.319   1.185 -0.2364  0.2330 -0.2332
  876MOL0     H18254   6.221   9.581   1.319 -0.8807 -2.6698  2.3336
  876MOL0     H18255   6.200   9.605   1.142 -0.9280 -0.0942 -0.5177
  876MOL0     H18256   5.818   9.500   1.206  0.1612  4.3118  0.4788
  876MOL0     H18257   6.803   9.321   1.206  0.4508 -0.5094  0.7170
  876MOL0     H18258   7.062   9.183   1.056 -1.0540  2.2526  0.6375
  876MOL0     H18259   6.986   9.193   1.214  0.8814 -2.6582  0.9820
  876MOL0     H18260   6.971   9.042   1.128 -4.9984 -0.9136 -0.2428
  877MOL0     O18261   0.485   0.081   6.496 -0.1330 -0.6268  0.0685
  877MOL0     C18262   0.437   0.051   6.391  0.0568 -0.0018  0.5839
  877MOL0     O18263   0.451   0.122   6.276 -0.0936 -0.3543  0.2517
  877MOL0     C18264   0.575   0.171   6.257 -0.2257 -1.4611  0.7446
  877MOL0     C18265   0.587   0.288   6.173 -0.2747 -0.2392  0.3378
  877MOL0     C18266   0.710   0.353   6.173 -0.5000  0.2923  0.0951
  877MOL0     C18267   0.826   0.304   6.229 -0.4952  0.2582 -0.0974
  877MOL0     O18268   0.948   0.365   6.212  0.0996 -0.3071  0.4466
  877MOL0     C18269   0.995   0.380   6.072 -0.1040  0.6297 -0.1251
  877MOL0     C18270   1.095   0.493   6.054 -1.1864 -0.3709  0.0786
  877MOL0     C18271   1.193   0.509   6.168 -0.3159  0.0838  0.1815
  877MOL0     C18272   1.277   0.383   6.190 -0.4416  0.1759 -0.6512
  877MOL0     C18273   1.367   0.406   6.312 -0.1969  0.8594 -0.3219
  877MOL0     C18274   1.452   0.283   6.342  0.3060  1.0209 -0.4491
  877MOL0     C18275   1.547   0.239   6.233  0.1634 -0.1225  0.5646
  877MOL0     C18276   1.664   0.332   6.211 -0.2943  0.3851  0.1113
  877MOL0     N18277   1.751   0.348   6.330 -0.5246  0.4341 -0.1316
  877MOL0     C18278   1.830   0.452   6.358 -0.7510 -0.5762 -0.8360
  877MOL0     C18279   1.877   0.432   6.488 -0.3745  0.9382 -0.1060
  877MOL0     C18280   1.989   0.492   6.567 -0.0470  0.5936 -0.8138
  877MOL0     C18281   2.121   0.465   6.493  0.8096 -0.3113  0.2360
  877MOL0     C18282   2.164   0.321   6.476  0.1149 -0.3352 -0.3399
  877MOL0     C18283   2.309   0.335   6.421  0.2092  0.0500  0.1917
  877MOL0     O18284   2.347   0.204   6.388 -0.5951  0.9740  0.1885
  877MOL0     C18285   2.484   0.185   6.387  0.6266  0.2205  0.6678
  877MOL0     C18286   2.543   0.114   6.497  0.3931 -0.7696 -0.5737
  877MOL0     C18287   2.684   0.104   6.501  1.0130  0.1283 -0.6153
  877MOL0     C18288   2.756   0.175   6.401 -0.5704  0.5081 -0.3187
  877MOL0     C18289   2.906   0.147   6.409 -0.9588  0.1407  1.3435
  877MOL0     O18290   2.986   0.196   6.301 -0.4674 -0.0352  0.3829
  877MOL0     C18291   3.119   0.169   6.298  0.8363  0.1907  0.0081
  877MOL0     C18292   3.209   0.275   6.281 -0.4415 -0.0110  0.1883
  877MOL0     C18293   3.347   0.261   6.281  0.8196  0.4689  0.9723
  877MOL0     C18294   3.409   0.139   6.290  0.7227 -0.1803 -0.2176
  877MOL0     O18295   3.541   0.127   6.282  0.6167 -0.3442 -0.4316
  877MOL0     C18296   3.591   0.008   6.214  0.3304 -0.1047  0.3771
  877MOL0     C18297   3.739   0.028   6.175  0.3553 -0.2499  0.1973
  877MOL0     C18298   3.780  -0.089   6.089  0.4554 -0.9439 -0.0086
  877MOL0     C18299   3.936  -0.082   6.062 -0.3694  0.5990 -0.8907
  877MOL0     C18300   3.978  -0.213   5.989 -0.2615  0.4619  0.5988
  877MOL0     C18301   4.116  -0.204   5.942  0.3338 -0.2796 -0.0441
  877MOL0     C18302   4.145  -0.335   5.865 -0.3489  0.6933  0.0342
  877MOL0     C18303   4.293  -0.346   5.834  0.6242  0.2431  0.9419
  877MOL0    Cl18304   4.313  -0.488   5.727 -0.3450 -0.3283  0.4727
  877MOL0     C18305   3.322   0.029   6.310  0.3227 -0.8334  0.8545
  877MOL0     C18306   3.180   0.039   6.306  0.5686  0.2088 -0.4122
  877MOL0     O18307   2.948   0.083   6.504  0.0230  0.2984 -0.2734
  877MOL0     C18308   2.694   0.255   6.308 -0.0985  0.6068  0.2266
  877MOL0     C18309   2.561   0.260   6.295 -0.3214  0.1880  0.0809
  877MOL0     N18310   1.823   0.314   6.537 -0.5114  0.0273  0.2907
  877MOL0     N18311   1.745   0.268   6.440  0.3131 -0.0108 -0.2468
  877MOL0     C18312   0.819   0.183   6.302  0.1014 -0.6631  0.3595
  877MOL0     C18313   0.695   0.120   6.313  0.2267 -0.5070  0.8684
  877MOL0     C18314   0.347  -0.066   6.393 -0.9015 -1.1459  0.6425
  877MOL0     C18315   0.337  -0.137   6.271  0.2238  1.3652  0.4395
  877MOL0     C18316   0.277  -0.266   6.270  0.4039  0.6740  0.1058
  877MOL0     C18317   0.196  -0.323   6.380  0.2322 -0.3628  0.0572
  877MOL0     O18318   0.119  -0.437   6.372  0.8375 -0.4524 -0.4812
  877MOL0     C18319   0.124  -0.502   6.247 -0.0198  0.3332  0.1328
  877MOL0     C18320   0.030  -0.614   6.266  0.6839  0.1120  0.0832
  877MOL0     C18321   0.104  -0.728   6.329 -0.5662 -0.1667 -0.4732
  877MOL0     C18322   0.138  -0.712   6.480 -0.5613 -0.1223 -0.6899
  877MOL0     C18323   0.156  -0.838   6.550  0.0283 -0.1749 -0.0862
  877MOL0     C18324   0.135  -0.942   6.608  0.7547  0.3194  1.0953
  877MOL0     C18325   0.207  -0.251   6.495 -0.0263  0.0621 -0.4388
  877MOL0     C18326   0.276  -0.121   6.506 -0.1592  0.0903  0.9211
  877MOL0     C18327   0.271  -0.052   6.643 -1.0749 -0.3637  0.2659
  877MOL0     H18328   0.503   0.325   6.115 -0.5066  0.6545  1.2277
  877MOL0     H18329   0.716   0.445   6.116 -0.9585 -0.6755 -1.6160
  877MOL0     H18330   1.044   0.288   6.041  0.7955  0.0263  2.8629
  877MOL0     H18331   0.907   0.379   6.007  0.4768 -1.8794 -0.9884
  877MOL0     H18332   1.041   0.587   6.042 -2.5024 -0.9668  1.0464
  877MOL0     H18333   1.143   0.485   5.957 -0.1216 -0.2209  0.5790
  877MOL0     H18334   1.141   0.519   6.264 -0.0102  0.0096  0.3546
  877MOL0     H18335   1.249   0.602   6.154  2.2162 -1.4747 -0.7781
  877MOL0     H18336   1.209   0.304   6.223 -0.7025  1.4745  2.3547
  877MOL0     H18337   1.328   0.349   6.100 -1.3228 -0.5265 -0.9034
  877MOL0     H18338   1.427   0.496   6.302 -1.1111  1.7656  1.7615
  877MOL0     H18339   1.295   0.431   6.390 -0.5630  1.2406 -0.7746
  877MOL0     H18340   1.502   0.291   6.439 -1.3523  1.0571  0.4475
  877MOL0     H18341   1.393   0.192   6.357  0.2897  1.3949  2.1794
  877MOL0     H18342   1.493   0.215   6.140 -0.2985 -1.9369  1.2540
  877MOL0     H18343   1.593   0.142   6.255  0.7256 -0.1863 -0.7936
  877MOL0     H18344   1.729   0.300   6.129 -0.0086 -1.0019  0.8460
  877MOL0     H18345   1.619   0.431   6.203 -0.4929  0.2576 -0.4014
  877MOL0     H18346   1.866   0.534   6.297 -2.3159  1.6512  1.0517
  877MOL0     H18347   1.967   0.596   6.594 -0.2224  0.8034 -1.7040
  877MOL0     H18348   1.991   0.450   6.668 -3.1475  2.1270  0.0255
  877MOL0     H18349   2.111   0.513   6.395  0.1366 -0.9773 -0.0293
  877MOL0     H18350   2.192   0.514   6.560  0.0689  1.4255 -0.2065
  877MOL0     H18351   2.094   0.266   6.412 -0.7534  0.2359  0.0944
  877MOL0     H18352   2.171   0.284   6.579  2.2779 -1.0014 -0.6785
  877MOL0     H18353   2.371   0.384   6.497  0.0794  0.6585 -0.0875
  877MOL0     H18354   2.308   0.397   6.331  1.4033  0.7826  0.6527
  877MOL0     H18355   2.475   0.067   6.568 -0.4321  1.1378 -0.0270
  877MOL0     H18356   2.728   0.036   6.573 -0.5945 -0.5718 -0.2375
  877MOL0     H18357   3.157   0.370   6.280 -0.3180  0.0698 -1.5991
  877MOL0     H18358   3.407   0.345   6.247  2.6032 -2.6736 -4.8784
  877MOL0     H18359   3.579  -0.060   6.300  0.5955  0.6911  1.0599
  877MOL0     H18360   3.532  -0.028   6.129 -1.5599 -1.8993  2.3073
  877MOL0     H18361   3.747   0.118   6.112  0.2266 -0.4620 -0.1232
  877MOL0     H18362   3.800   0.037   6.266 -2.0363  0.4250  1.8544
  877MOL0     H18363   3.771  -0.188   6.136 -0.2097  0.3236  2.7094
  877MOL0     H18364   3.722  -0.097   5.997  2.3318 -0.9074 -1.2611
  877MOL0     H18365   3.993  -0.070   6.154  0.2446  0.8639 -1.3068
  877MOL0     H18366   3.978  -0.004   5.999  0.1866 -0.7390 -2.2331
  877MOL0     H18367   3.913  -0.222   5.902 -3.6615 -4.1849  3.1647
  877MOL0     H18368   3.965  -0.308   6.041  0.2644 -1.1624 -2.0177
  877MOL0     H18369   4.135  -0.116   5.880  1.5910 -0.9489 -0.6585
  877MOL0     H18370   4.185  -0.198   6.027  1.6752  0.7277 -1.1586
  877MOL0     H18371   4.084  -0.346   5.775 -0.9054  0.7090  0.4006
  877MOL0     H18372   4.110  -0.417   5.928 -1.8604 -0.1792 -1.8239
  877MOL0     H18373   4.323  -0.254   5.782 -2.7729  2.0300  1.8057
  877MOL0     H18374   4.360  -0.350   5.921 -1.0778  1.3766  2.3973
  877MOL0     H18375   3.366  -0.066   6.338  0.5437 -0.1594  2.9537
  877MOL0     H18376   3.132  -0.058   6.308  2.5214 -0.8654 -1.8323
  877MOL0     H18377   2.741   0.295   6.218 -3.9764 -0.5239 -2.5672
  877MOL0     H18378   2.509   0.315   6.218  1.2600 -0.5803 -1.6077
  877MOL0     H18379   0.916   0.154   6.342 -0.0717 -0.5404  0.8816
  877MOL0     H18380   0.698   0.024   6.364 -1.0004  0.4303  2.8510
  877MOL0     H18381   0.393  -0.097   6.187  0.0352  2.3691  0.7702
  877MOL0     H18382   0.279  -0.318   6.175 -0.2763  0.0646  0.4087
  877MOL0     H18383   0.223  -0.541   6.222 -1.8093 -4.3505 -0.8005
  877MOL0     H18384   0.097  -0.435   6.165 -0.8922  0.2221  0.3140
  877MOL0     H18385  -0.004  -0.633   6.164 -0.9974  3.8326 -0.2262
  877MOL0     H18386  -0.046  -0.585   6.340  2.0504  2.3235  0.7211
  877MOL0     H18387   0.202  -0.737   6.280 -0.2190  0.4200  0.0926
  877MOL0     H18388   0.051  -0.823   6.326 -1.1785  0.1218  0.5885
  877MOL0     H18389   0.215  -0.641   6.513  1.5964 -2.0337 -1.3858
  877MOL0     H18390   0.053  -0.662   6.529 -0.5655 -0.3984 -0.4176
  877MOL0     H18391   0.109  -1.033   6.658 -1.5221  1.6711  2.5804
  877MOL0     H18392   0.152  -0.289   6.582  0.4504 -0.9699 -0.5712
  877MOL0     H18393   0.355  -0.077   6.709 -0.6871  0.6932  0.2002
  877MOL0     H18394   0.258   0.057   6.638 -0.0089 -0.1423  1.6091
  877MOL0     H18395   0.184  -0.082   6.702 -2.7373  3.4929  0.0973
  878MOL0     O18396   0.777   1.785   4.356 -0.4721  0.4063  0.7481
  878MOL0     C18397   0.769   1.691   4.440  0.0460  0.4088  0.8462
  878MOL0     O18398   0.839   1.684   4.558  0.1142 -0.1254 -0.5747
  878MOL0     C18399   0.944   1.770   4.577  0.5768  0.2555 -0.8119
  878MOL0     C18400   1.039   1.810   4.483 -0.0265  0.0852 -0.6080
  878MOL0     C18401   1.148   1.898   4.517 -0.6113 -0.2570  0.7473
  878MOL0     C18402   1.162   1.932   4.657 -0.5470  0.2600 -0.1819
  878MOL0     O18403   1.280   1.995   4.699  0.3289 -0.2496  0.0604
  878MOL0     C18404   1.255   2.132   4.737  0.6849 -0.1950 -0.5900
  878MOL0     C18405   1.382   2.216   4.725  1.0215 -0.3079 -0.2740
  878MOL0     C18406   1.500   2.175   4.809 -1.0178 -0.5289  0.3078
  878MOL0     C18407   1.632   2.258   4.777  0.6668  0.7684  0.4773
  878MOL0     C18408   1.757   2.229   4.861  0.2218  0.5418 -0.2889
  878MOL0     C18409   1.764   2.304   4.984 -0.5507  0.0999 -0.6417
  878MOL0     C18410   1.826   2.446   4.954 -0.0295 -0.5660  0.5506
  878MOL0     C18411   1.977   2.441   4.922  0.5412 -0.0810 -0.5608
  878MOL0     N18412   2.041   2.572   4.956 -0.0418 -0.3877 -0.0969
  878MOL0     C18413   2.084   2.651   4.855  0.0270 -0.3999 -0.0453
  878MOL0     C18414   2.165   2.743   4.920  1.0117 -0.0469  0.6582
  878MOL0     C18415   2.223   2.873   4.863 -0.1455  0.2146 -0.1877
  878MOL0     C18416   2.338   2.867   4.760 -0.3953 -0.1080 -0.4630
  878MOL0     C18417   2.371   3.000   4.700 -0.1671 -0.0490  0.7315
  878MOL0     C18418   2.519   3.009   4.683  0.8419 -0.4805  0.2620
  878MOL0     O18419   2.566   3.034   4.818 -0.3206  0.9472 -0.3067
  878MOL0     C18420   2.697   3.058   4.841  0.2893 -0.4961 -0.4911
  878MOL0     C18421   2.792   3.059   4.746  0.0244  1.8408  0.0729
  878MOL0     C18422   2.927   3.082   4.778  0.9185  0.0866 -1.7972
  878MOL0     C18423   2.975   3.111   4.907 -0.2552  0.9414 -0.5437
  878MOL0     C18424   3.121   3.145   4.924  0.0424 -0.7863  0.1976
  878MOL0     O18425   3.156   3.143   5.052  0.0624 -0.2903 -0.0761
  878MOL0     C18426   3.281   3.195   5.081  0.3249 -0.1094  0.4856
  878MOL0     C18427   3.300   3.332   5.101 -0.5326  0.3820  0.1379
  878MOL0     C18428   3.435   3.372   5.097 -0.1463 -0.4759 -0.4664
  878MOL0     C18429   3.545   3.283   5.086 -0.3994  0.6239  0.5377
  878MOL0     O18430   3.674   3.328   5.073  0.5084 -0.7611 -0.0333
  878MOL0     C18431   3.713   3.470   5.095  1.1522  0.5090  0.5244
  878MOL0     C18432   3.865   3.470   5.123 -1.2750  0.5267 -0.3227
  878MOL0     C18433   3.937   3.520   5.003 -0.3338  0.0883  1.0688
  878MOL0     C18434   4.081   3.476   5.013  0.1184  0.3534 -0.1328
  878MOL0     C18435   4.169   3.515   4.893  1.1052  0.8603  1.0492
  878MOL0     C18436   4.233   3.657   4.909  0.2810  0.0799 -0.1915
  878MOL0     C18437   4.366   3.650   4.990  0.1781  0.0774  0.1846
  878MOL0     C18438   4.462   3.765   4.954  0.3439  0.5728  0.0724
  878MOL0    Cl18439   4.576   3.838   5.075 -0.2062  0.3567  0.1711
  878MOL0     C18440   3.528   3.145   5.074  0.7527  0.2994  0.0250
  878MOL0     C18441   3.393   3.104   5.064 -0.2917 -0.1983  0.9979
  878MOL0     O18442   3.202   3.176   4.835  0.3059  0.1112  1.1591
  878MOL0     C18443   2.869   3.118   5.002 -0.6027  0.4658  0.0701
  878MOL0     C18444   2.733   3.089   4.970 -0.1809  1.0906  0.2204
  878MOL0     N18445   2.176   2.712   5.057 -0.8505  0.4828  0.5813
  878MOL0     N18446   2.099   2.614   5.078 -0.6534  0.5504 -0.1475
  878MOL0     C18447   1.069   1.893   4.746 -0.4434  0.0735 -0.0056
  878MOL0     C18448   0.957   1.819   4.709 -0.4499  0.5377  0.1909
  878MOL0     C18449   0.666   1.586   4.402  0.4421 -0.5412  0.2588
  878MOL0     C18450   0.539   1.636   4.367 -0.7102 -0.7453 -1.1953
  878MOL0     C18451   0.437   1.553   4.339 -0.2700  1.0137  0.9310
  878MOL0     C18452   0.445   1.409   4.362 -0.2207 -0.3898  0.1855
  878MOL0     O18453   0.338   1.324   4.368 -0.2682 -0.4468  0.5161
  878MOL0     C18454   0.209   1.381   4.331 -0.4674 -0.0709  0.9533
  878MOL0     C18455   0.136   1.448   4.449 -0.9573 -0.4143  0.2010
  878MOL0     C18456  -0.012   1.470   4.422  0.2666  0.9226 -0.0750
  878MOL0     C18457  -0.045   1.526   4.285 -0.1411  1.2766 -0.6361
  878MOL0     C18458   0.025   1.643   4.239  0.7916 -0.0855  0.7500
  878MOL0     C18459   0.083   1.752   4.221 -0.9714  0.2614  0.2576
  878MOL0     C18460   0.571   1.357   4.392 -0.3018 -0.0797  0.0922
  878MOL0     C18461   0.681   1.446   4.407 -0.0391  0.6105  0.9054
  878MOL0     C18462   0.812   1.382   4.445 -0.0318  0.3580  0.4847
  878MOL0     H18463   1.033   1.774   4.381 -0.8097  0.2370 -0.6228
  878MOL0     H18464   1.225   1.933   4.450 -0.8308 -0.2857  0.4786
  878MOL0     H18465   1.185   2.187   4.673  2.4525  0.4055 -2.0640
  878MOL0     H18466   1.226   2.146   4.841  1.5488 -2.1654 -0.0424
  878MOL0     H18467   1.365   2.323   4.741  1.6401 -0.1883 -0.3952
  878MOL0     H18468   1.414   2.201   4.622  0.6097 -0.9614 -0.3136
  878MOL0     H18469   1.532   2.070   4.812 -1.1932 -0.5777  0.4885
  878MOL0     H18470   1.483   2.200   4.914  1.1408  2.0885  0.1621
  878MOL0     H18471   1.664   2.259   4.672  0.9276 -0.2101  0.5420
  878MOL0     H18472   1.604   2.362   4.798 -2.0719  0.5597 -1.4987
  878MOL0     H18473   1.780   2.125   4.888  3.4925  1.3373  0.4806
  878MOL0     H18474   1.841   2.257   4.797  0.7488 -0.8093 -0.2202
  878MOL0     H18475   1.667   2.324   5.030 -1.6374 -0.8999 -2.3500
  878MOL0     H18476   1.827   2.252   5.057 -2.0197 -0.1617  0.4909
  878MOL0     H18477   1.816   2.512   5.041  2.8511 -0.7537  1.1624
  878MOL0     H18478   1.782   2.496   4.868 -1.0864  1.6173  2.2759
  878MOL0     H18479   2.021   2.360   4.981  0.8055  0.3647 -0.1368
  878MOL0     H18480   1.987   2.421   4.815  0.9942  0.3035 -0.5946
  878MOL0     H18481   2.058   2.643   4.750 -0.0278  1.4558 -0.2091
  878MOL0     H18482   2.136   2.933   4.834  1.3502  2.1206 -0.9629
  878MOL0     H18483   2.272   2.918   4.950 -0.7347 -2.1494  1.4535
  878MOL0     H18484   2.423   2.816   4.808 -0.7662 -0.0597  0.2683
  878MOL0     H18485   2.306   2.796   4.684  0.6110 -1.1774  0.0650
  878MOL0     H18486   2.338   3.082   4.764 -1.4480 -0.4172  0.5711
  878MOL0     H18487   2.333   3.008   4.598  0.6468 -2.5364  0.1417
  878MOL0     H18488   2.545   3.102   4.631 -0.4645 -0.1994  0.0588
  878MOL0     H18489   2.564   2.920   4.639  1.0031 -0.6060  0.6786
  878MOL0     H18490   2.769   3.057   4.640 -2.3134  0.3673  0.5376
  878MOL0     H18491   2.994   3.076   4.692  1.7149 -2.2733 -1.1067
  878MOL0     H18492   3.223   3.408   5.090  0.8610  2.0387  1.3156
  878MOL0     H18493   3.453   3.479   5.102  0.4975 -0.6331  0.9402
  878MOL0     H18494   3.684   3.520   5.002  0.5813 -1.0497 -0.1786
  878MOL0     H18495   3.667   3.506   5.187  3.0663  1.3126  1.2194
  878MOL0     H18496   3.895   3.538   5.202 -0.4522  0.4552 -0.5630
  878MOL0     H18497   3.893   3.368   5.153  1.4979  1.2436 -0.2747
  878MOL0     H18498   3.886   3.485   4.912  2.1583 -2.2294  0.4481
  878MOL0     H18499   3.943   3.629   5.011  1.0120  0.0091  1.4144
  878MOL0     H18500   4.085   3.368   5.030 -0.1470  0.2867 -0.4763
  878MOL0     H18501   4.113   3.531   5.102 -2.4382 -0.8764  1.6423
  878MOL0     H18502   4.101   3.519   4.807 -0.3288  2.1885  2.1770
  878MOL0     H18503   4.244   3.437   4.877 -0.0271 -0.7432  3.0614
  878MOL0     H18504   4.257   3.689   4.807  1.5458 -1.4333 -0.4012
  878MOL0     H18505   4.158   3.730   4.942  1.1123  1.5994 -1.4826
  878MOL0     H18506   4.422   3.561   4.962  0.4009 -0.2838  1.6921
  878MOL0     H18507   4.334   3.644   5.094 -2.8459  0.9314 -0.6013
  878MOL0     H18508   4.513   3.731   4.863  1.0999  0.8408  0.3835
  878MOL0     H18509   4.405   3.852   4.921 -2.0618  0.2883  3.0965
  878MOL0     H18510   3.611   3.076   5.058  0.1195 -0.8094  1.3709
  878MOL0     H18511   3.375   2.997   5.053 -1.4164 -0.2295  2.7339
  878MOL0     H18512   2.899   3.150   5.102  0.9109  0.7848 -0.4563
  878MOL0     H18513   2.654   3.097   5.044 -3.8028 -0.9149 -3.0795
  878MOL0     H18514   1.082   1.912   4.852  0.4224  0.1855 -0.1300
  878MOL0     H18515   0.876   1.785   4.771 -1.4279 -2.7228 -2.5522
  878MOL0     H18516   0.513   1.741   4.366 -1.2457 -0.8726 -2.2215
  878MOL0     H18517   0.340   1.600   4.324 -1.8303 -2.6042 -1.8161
  878MOL0     H18518   0.146   1.296   4.303  0.1922 -0.2122 -0.1820
  878MOL0     H18519   0.218   1.440   4.239  1.0731 -1.3805  0.2019
  878MOL0     H18520   0.190   1.539   4.476 -1.4479 -0.8821  3.1164
  878MOL0     H18521   0.143   1.385   4.538 -0.0936  1.4657  1.5305
  878MOL0     H18522  -0.055   1.538   4.497 -2.5269 -0.5983 -0.1614
  878MOL0     H18523  -0.070   1.377   4.430  0.1262  0.9732 -0.4812
  878MOL0     H18524  -0.029   1.450   4.207 -0.3875  2.4868 -1.8955
  878MOL0     H18525  -0.154   1.534   4.276 -0.5105 -1.3776  0.5186
  878MOL0     H18526   0.115   1.852   4.199 -2.8957  0.9964  0.5159
  878MOL0     H18527   0.591   1.252   4.411 -0.4597 -0.4473 -1.5905
  878MOL0     H18528   0.792   1.275   4.454 -0.3528  0.4466  0.8541
  878MOL0     H18529   0.887   1.403   4.368 -0.4873  2.5355  0.5439
  878MOL0     H18530   0.846   1.427   4.539 -0.5056 -0.6624  1.1493
  879MOL0     O18531  10.040   0.988   0.725  0.4644 -0.0573  0.2870
  879MOL0     C18532  10.067   0.904   0.817  1.0353  0.3287  0.0413
  879MOL0     O18533  10.189   0.841   0.827 -0.6016 -0.6230 -0.4441
  879MOL0     C18534  10.309   0.896   0.780  0.5881  0.2443 -0.5723
  879MOL0     C18535  10.401   0.808   0.724 -0.1661  0.6302 -0.1749
  879MOL0     C18536  10.526   0.847   0.703  0.5560  0.6043  0.4206
  879MOL0     C18537  10.563   0.983   0.732 -0.6734  0.0334 -0.0459
  879MOL0     O18538  10.690   1.014   0.700  0.1017  0.7793  0.3822
  879MOL0     C18539  10.704   1.098   0.586 -0.3868 -0.5071 -0.3392
  879MOL0     C18540  10.839   1.180   0.596  0.6102 -0.1710 -0.2011
  879MOL0     C18541  10.959   1.094   0.552 -0.7436  0.4315  0.1836
  879MOL0     C18542  11.097   1.151   0.585  0.2285 -0.1463 -0.2692
  879MOL0     C18543  11.216   1.066   0.556 -0.1901  0.3425 -0.3090
  879MOL0     C18544  11.347   1.130   0.594  0.6024  0.4872 -0.4181
  879MOL0     C18545  11.378   1.243   0.504  0.0374 -0.5260 -0.2299
  879MOL0     C18546  11.522   1.292   0.504  0.9723 -0.8274 -0.2339
  879MOL0     N18547  11.559   1.409   0.428  0.1840  0.2053 -0.0673
  879MOL0     C18548  11.627   1.395   0.311 -0.4469  0.7522 -0.5243
  879MOL0     C18549  11.641   1.523   0.273 -0.5421  0.0004 -0.0703
  879MOL0     C18550  11.719   1.580   0.153  0.0728 -0.2340  0.4538
  879MOL0     C18551  11.867   1.580   0.184 -0.2474  0.1214  0.2687
  879MOL0     C18552  11.922   1.675   0.292  0.2740  0.0063  0.9191
  879MOL0     C18553  11.874   1.823   0.277 -0.3793  0.6598 -0.2991
  879MOL0     O18554  11.906   1.873   0.150  0.5637 -0.5912 -0.0265
  879MOL0     C18555  12.022   1.944   0.144  0.3388  0.3808 -0.2511
  879MOL0     C18556  12.138   1.887   0.089  0.1172 -0.3304  0.6185
  879MOL0     C18557  12.261   1.956   0.070  0.6887 -0.5699 -0.0225
  879MOL0     C18558  12.258   2.092   0.125 -0.5404 -0.7209  0.9966
  879MOL0     C18559  12.380   2.178   0.093 -0.7710 -0.4589 -0.0149
  879MOL0     O18560  12.503   2.120   0.065  0.1701 -0.1136  0.3904
  879MOL0     C18561  12.618   2.189   0.040  0.4043  0.1563  0.3164
  879MOL0     C18562  12.651   2.309   0.104 -0.3533  0.5786 -0.0464
  879MOL0     C18563  12.776   2.366   0.084 -0.8333 -0.2933 -0.3838
  879MOL0     C18564  12.873   2.296   0.007  0.3314  0.0783 -0.1047
  879MOL0     O18565  13.005   2.338  -0.006  0.2465  0.1118 -0.3720
  879MOL0     C18566  13.024   2.469  -0.071 -0.8029  0.4020 -0.3809
  879MOL0     C18567  13.172   2.507  -0.038 -0.3140 -0.2025  0.0496
  879MOL0     C18568  13.208   2.651  -0.069  0.9601  0.1991  0.3332
  879MOL0     C18569  13.210   2.684  -0.222  0.1171 -0.6705 -0.0098
  879MOL0     C18570  13.282   2.815  -0.245 -0.6407 -0.5864 -0.3649
  879MOL0     C18571  13.278   2.855  -0.398  0.0204 -0.1276  0.0921
  879MOL0     C18572  13.341   2.993  -0.416  0.5813 -0.1272 -0.0055
  879MOL0     C18573  13.304   3.051  -0.550 -0.0222  0.2583 -0.1041
  879MOL0    Cl18574  13.408   2.965  -0.673 -0.0507  0.0610  0.1859
  879MOL0     C18575  12.842   2.173  -0.048  0.0042 -1.0204 -0.0711
  879MOL0     C18576  12.714   2.119  -0.035  1.2223 -0.7918  0.2034
  879MOL0     O18577  12.361   2.298   0.097 -0.5805  0.3915 -0.0496
  879MOL0     C18578  12.140   2.150   0.183  0.1912 -0.1750  0.3076
  879MOL0     C18579  12.022   2.070   0.193  1.0857 -0.0853  0.1708
  879MOL0     N18580  11.578   1.610   0.365  1.0788 -0.1575 -0.1551
  879MOL0     N18581  11.526   1.539   0.452  0.3353  0.1443  0.1148
  879MOL0     C18582  10.464   1.072   0.778 -0.4466 -0.4043 -0.5436
  879MOL0     C18583  10.334   1.025   0.810  0.7539  0.7507  0.6898
  879MOL0     C18584   9.952   0.846   0.896 -0.6945  0.4262  0.8564
  879MOL0     C18585   9.824   0.908   0.885 -0.9027  0.6725 -0.0999
  879MOL0     C18586   9.715   0.875   0.966  0.1487 -0.2073 -0.4979
  879MOL0     C18587   9.725   0.764   1.047 -0.3594  1.0195  1.0468
  879MOL0     O18588   9.621   0.723   1.124  0.3696 -0.3062  0.1183
  879MOL0     C18589   9.612   0.788   1.255 -0.5827  0.5423  0.1146
  879MOL0     C18590   9.682   0.709   1.368 -0.6394  0.6986 -0.6188
  879MOL0     C18591   9.663   0.771   1.507  0.8240  0.0488  0.1171
  879MOL0     C18592   9.733   0.902   1.523  0.4987  0.0970 -0.7508
  879MOL0     C18593   9.883   0.888   1.526  0.4958  0.6940 -0.1122
  879MOL0     C18594  10.005   0.889   1.531 -0.3505 -0.1999  1.1089
  879MOL0     C18595   9.848   0.693   1.061  0.1870 -0.7887  0.5860
  879MOL0     C18596   9.961   0.731   0.986  0.2932 -0.1562  0.5696
  879MOL0     C18597  10.085   0.653   1.019  0.4395  0.5323 -0.2772
  879MOL0     H18598  10.370   0.704   0.716  1.4108 -0.3280  3.6173
  879MOL0     H18599  10.590   0.767   0.668  0.8828 -0.7568  3.7726
  879MOL0     H18600  10.697   1.042   0.493  0.0489  1.0845 -1.3694
  879MOL0     H18601  10.624   1.173   0.597 -2.2870 -2.1851 -1.9203
  879MOL0     H18602  10.851   1.212   0.700 -0.9659  1.4146 -0.4421
  879MOL0     H18603  10.830   1.265   0.528 -4.1268  0.2770  0.6416
  879MOL0     H18604  10.950   1.069   0.446  0.6869  2.4942 -0.5028
  879MOL0     H18605  10.955   0.999   0.606  2.4463 -0.1168 -0.3083
  879MOL0     H18606  11.089   1.241   0.523 -3.1389 -0.0415  0.1498
  879MOL0     H18607  11.097   1.194   0.686 -1.7016  1.1835 -0.7752
  879MOL0     H18608  11.205   0.978   0.620  0.0442  2.9873  3.7452
  879MOL0     H18609  11.227   1.043   0.450 -5.3108  1.0569 -1.2764
  879MOL0     H18610  11.333   1.162   0.697  1.3524  1.4963 -0.6199
  879MOL0     H18611  11.430   1.058   0.588 -1.9184 -2.5654 -2.0003
  879MOL0     H18612  11.319   1.325   0.546  1.7287 -0.1527  1.5932
  879MOL0     H18613  11.347   1.230   0.400  1.9347  2.4345 -1.2783
  879MOL0     H18614  11.547   1.303   0.609  1.7449 -0.2093 -0.4756
  879MOL0     H18615  11.583   1.211   0.464  0.4081 -0.8657 -1.0510
  879MOL0     H18616  11.669   1.303   0.271  0.9101  0.8979  0.4812
  879MOL0     H18617  11.696   1.513   0.069 -1.3093  1.5162 -0.6296
  879MOL0     H18618  11.681   1.674   0.112 -0.6450 -0.7388 -0.0569
  879MOL0     H18619  11.893   1.479   0.218  1.6221 -0.0455 -1.4132
  879MOL0     H18620  11.925   1.592   0.092 -0.4575  0.8038  0.2197
  879MOL0     H18621  12.029   1.655   0.296 -0.1677 -2.6873  1.3242
  879MOL0     H18622  11.879   1.648   0.389 -1.5556 -0.9705 -0.1068
  879MOL0     H18623  11.906   1.898   0.349  4.1067  1.2903 -2.5713
  879MOL0     H18624  11.766   1.817   0.292 -0.2253 -1.7664  0.3566
  879MOL0     H18625  12.129   1.786   0.050  1.5733 -0.9621  1.8151
  879MOL0     H18626  12.343   1.911   0.016  1.7544  0.1517  0.9427
  879MOL0     H18627  12.581   2.351   0.175  1.3533 -0.8326  2.6097
  879MOL0     H18628  12.795   2.457   0.139 -0.0978 -1.0706  0.6862
  879MOL0     H18629  13.006   2.456  -0.178 -1.6890  1.9275 -0.4442
  879MOL0     H18630  12.959   2.548  -0.033 -0.0598  0.4699  0.8138
  879MOL0     H18631  13.172   2.500   0.072 -1.1846 -3.6262 -0.0292
  879MOL0     H18632  13.242   2.445  -0.096  0.9815  3.8309 -3.1109
  879MOL0     H18633  13.130   2.711  -0.021  1.3478  1.3329 -0.4314
  879MOL0     H18634  13.299   2.692  -0.024 -0.1915  2.9921  0.2834
  879MOL0     H18635  13.106   2.696  -0.252 -1.0282 -1.4114  3.2381
  879MOL0     H18636  13.254   2.598  -0.274  5.1010  1.1414  0.6504
  879MOL0     H18637  13.385   2.815  -0.208 -0.2947 -0.1740 -1.3148
  879MOL0     H18638  13.232   2.888  -0.180  0.6507 -2.2471  2.7121
  879MOL0     H18639  13.338   2.773  -0.439 -0.8153 -3.5170  4.7331
  879MOL0     H18640  13.177   2.845  -0.440 -1.5802 -1.2134  3.8068
  879MOL0     H18641  13.448   2.997  -0.392  0.3564 -0.5743  1.1566
  879MOL0     H18642  13.299   3.056  -0.337 -0.0809  1.7550 -1.7704
  879MOL0     H18643  13.195   3.045  -0.562 -0.1491  2.1023 -0.0981
  879MOL0     H18644  13.337   3.155  -0.548  2.6648 -0.5331  1.3604
  879MOL0     H18645  12.907   2.115  -0.112 -0.9351 -1.3870 -0.7123
  879MOL0     H18646  12.690   2.027  -0.086 -0.4276  1.6646 -3.9878
  879MOL0     H18647  12.138   2.258   0.179  0.8866 -0.1726 -0.2204
  879MOL0     H18648  11.936   2.123   0.233  1.6042  3.1298 -2.4854
  879MOL0     H18649  10.491   1.176   0.791  0.5399 -0.8955  1.8763
  879MOL0     H18650  10.256   1.081   0.860 -0.9409 -1.3969  0.6185
  879MOL0     H18651   9.806   0.978   0.804  2.6511 -0.8546 -2.4450
  879MOL0     H18652   9.621   0.930   0.962 -1.3963 -2.3548  2.2989
  879MOL0     H18653   9.506   0.804   1.275 -0.5384  0.7799  0.1681
  879MOL0     H18654   9.644   0.893   1.259 -3.7029  1.5645  1.0915
  879MOL0     H18655   9.790   0.692   1.360 -0.2067  0.8676  3.0783
  879MOL0     H18656   9.631   0.612   1.364 -2.7116  1.6768  0.4347
  879MOL0     H18657   9.687   0.698   1.585 -0.4298 -1.8815 -1.2035
  879MOL0     H18658   9.556   0.780   1.528  1.0011 -1.7284  2.1288
  879MOL0     H18659   9.693   0.979   1.457  0.7084  2.4558  1.7040
  879MOL0     H18660   9.706   0.951   1.616  0.0576 -0.7075 -0.4437
  879MOL0     H18661  10.110   0.905   1.519 -0.4697 -1.1125 -2.1179
  879MOL0     H18662   9.849   0.603   1.122  0.8733 -2.4209 -1.6921
  879MOL0     H18663  10.065   0.573   1.091  2.7471 -0.8521 -1.0554
  879MOL0     H18664  10.124   0.611   0.926  0.9104  2.9372 -1.2277
  879MOL0     H18665  10.159   0.724   1.057 -0.9682  1.4040  0.9783
  880MOL0     O18666  10.617   8.820   9.727  0.4492 -0.8303 -0.0106
  880MOL0     C18667  10.634   8.856   9.842 -0.3363  0.1483 -0.0104
  880MOL0     O18668  10.536   8.921   9.919  0.2873  0.4248  0.4734
  880MOL0     C18669  10.409   8.945   9.887  0.2617 -0.2032  0.4729
  880MOL0     C18670  10.330   9.004   9.992 -0.7190  0.2727 -0.0580
  880MOL0     C18671  10.188   9.004   9.990 -1.1141  0.1286 -0.9300
  880MOL0     C18672  10.120   8.939   9.886  0.1650 -0.5284  0.3488
  880MOL0     O18673   9.986   8.940   9.875  0.0598  0.3052 -0.9502
  880MOL0     C18674   9.895   9.041   9.934 -0.4847  0.4917  1.0530
  880MOL0     C18675   9.742   9.013   9.905 -1.2795 -0.0082  0.4092
  880MOL0     C18676   9.652   9.139   9.923  0.4728 -0.1802  0.0964
  880MOL0     C18677   9.657   9.180  10.071 -0.6625 -0.0723 -0.0277
  880MOL0     C18678   9.554   9.289  10.115  0.2326  0.3938  0.1787
  880MOL0     C18679   9.552   9.429  10.051 -0.1466  0.3017 -0.6693
  880MOL0     C18680   9.436   9.510  10.099  0.3221  0.2784  0.4263
  880MOL0     C18681   9.441   9.661  10.076 -0.2498 -0.9942 -0.0997
  880MOL0     N18682   9.506   9.693   9.949 -0.5482 -0.0745 -0.3525
  880MOL0     C18683   9.629   9.756   9.924  0.1573  0.1174  0.4934
  880MOL0     C18684   9.643   9.769   9.785  0.2085  0.4204 -0.6441
  880MOL0     C18685   9.766   9.848   9.709 -0.0553  0.0518 -1.2113
  880MOL0     C18686   9.862   9.761   9.633  0.3505  0.4813 -0.4315
  880MOL0     C18687  10.014   9.801   9.652  0.0509  1.1138  0.7807
  880MOL0     C18688  10.104   9.713   9.556  1.0784 -0.0130  0.2882
  880MOL0     O18689  10.240   9.739   9.581 -0.4370 -0.3911 -0.4630
  880MOL0     C18690  10.342   9.671   9.522  0.4844 -0.0096  0.2726
  880MOL0     C18691  10.327   9.577   9.417  0.1757  0.0485  0.3548
  880MOL0     C18692  10.448   9.516   9.371  0.6006 -0.4719 -0.2755
  880MOL0     C18693  10.577   9.544   9.417  0.2337  0.7853 -0.4631
  880MOL0     C18694  10.697   9.488   9.346 -0.1124 -0.2064 -0.3788
  880MOL0     O18695  10.822   9.543   9.380 -0.6141 -0.1479  0.2330
  880MOL0     C18696  10.940   9.476   9.332  0.4861 -0.2696 -0.5480
  880MOL0     C18697  10.958   9.345   9.287 -0.6731 -0.0472  0.1246
  880MOL0     C18698  11.088   9.294   9.255 -1.4501  0.2336  0.6019
  880MOL0     C18699  11.196   9.377   9.252  0.7313 -0.3697 -0.3920
  880MOL0     O18700  11.315   9.317   9.218  0.1718  0.6242 -0.0010
  880MOL0     C18701  11.438   9.382   9.242 -0.8682  0.3498  0.2650
  880MOL0     C18702  11.563   9.296   9.193  0.1146  0.1077 -0.3619
  880MOL0     C18703  11.701   9.345   9.216  0.1845  0.1389  0.0583
  880MOL0     C18704  11.725   9.495   9.181 -0.1626  0.0426 -0.8871
  880MOL0     C18705  11.730   9.510   9.027  0.6258  0.0342  0.4757
  880MOL0     C18706  11.792   9.647   8.981  0.1309 -0.1170  0.2037
  880MOL0     C18707  11.842   9.652   8.834  0.2307 -1.4273  0.0143
  880MOL0     C18708  11.892   9.791   8.790  0.1066  0.4266 -0.1499
  880MOL0    Cl18709  12.004   9.861   8.899 -0.5026  0.0333  0.3445
  880MOL0     C18710  11.174   9.516   9.291 -1.0566 -0.0173 -0.5448
  880MOL0     C18711  11.049   9.565   9.335  0.6383 -0.6917 -0.2805
  880MOL0     O18712  10.683   9.427   9.248 -0.1765  0.4307  0.8130
  880MOL0     C18713  10.582   9.653   9.508 -0.0512 -0.0399  0.5326
  880MOL0     C18714  10.471   9.710   9.555  0.2976  0.3465 -0.8458
  880MOL0     N18715   9.526   9.724   9.732  0.4780 -0.6612  0.4068
  880MOL0     N18716   9.448   9.675   9.824 -0.3896 -0.1394 -0.8125
  880MOL0     C18717  10.195   8.886   9.778  0.1802 -1.4011  0.3862
  880MOL0     C18718  10.338   8.892   9.780 -0.1785 -0.6421 -0.6049
  880MOL0     C18719  10.773   8.839   9.890  0.7498 -0.3191 -0.8436
  880MOL0     C18720  10.808   8.916  10.008  0.2905  0.9445 -0.1910
  880MOL0     C18721  10.930   8.901  10.068 -0.3953  0.1977 -0.5987
  880MOL0     C18722  11.024   8.814  10.004 -0.2122  0.3296  0.4484
  880MOL0     O18723  11.153   8.795  10.060  0.1594  0.3345  0.9274
  880MOL0     C18724  11.216   8.893  10.138  0.4904 -0.7230  0.5324
  880MOL0     C18725  11.362   8.871  10.135 -0.1327 -0.0789  0.8994
  880MOL0     C18726  11.406   8.739  10.198  0.5045 -0.0386 -0.0180
  880MOL0     C18727  11.559   8.719  10.186 -0.4748 -0.0481  0.4761
  880MOL0     C18728  11.601   8.604  10.270  0.1825  0.1399 -0.0874
  880MOL0     C18729  11.633   8.500  10.333  0.3687 -0.4433 -0.2718
  880MOL0     C18730  10.993   8.741   9.897  0.5749 -0.0369  0.4834
  880MOL0     C18731  10.864   8.750   9.830  0.6833  1.0481 -0.0586
  880MOL0     C18732  10.841   8.654   9.721 -0.5464  0.5677  0.1456
  880MOL0     H18733  10.373   9.039  10.086  0.0080  1.6392 -0.8608
  880MOL0     H18734  10.131   9.032  10.077 -0.1559 -1.2042  0.1672
  880MOL0     H18735   9.897   9.028  10.043 -2.1993 -0.4766  0.9920
  880MOL0     H18736   9.924   9.144   9.910  1.4097 -0.5844 -1.9287
  880MOL0     H18737   9.719   8.924   9.965  2.9858 -2.4225 -1.0570
  880MOL0     H18738   9.746   8.979   9.801  2.9820 -0.1834  0.4674
  880MOL0     H18739   9.552   9.113   9.887  0.3769  1.1327 -0.6453
  880MOL0     H18740   9.684   9.220   9.857  0.0519 -0.1024 -0.0154
  880MOL0     H18741   9.639   9.089  10.129 -0.6692 -1.4685 -2.1060
  880MOL0     H18742   9.757   9.218  10.093 -1.8330  3.0970  0.2447
  880MOL0     H18743   9.457   9.246  10.084 -0.4936  1.7763  0.4734
  880MOL0     H18744   9.537   9.282  10.222  2.4195 -0.1000  0.5286
  880MOL0     H18745   9.636   9.487  10.092 -2.3577  3.3291 -0.0229
  880MOL0     H18746   9.559   9.429   9.942  1.0983  3.9727 -0.7338
  880MOL0     H18747   9.407   9.477  10.199  0.1644 -1.4368 -0.1510
  880MOL0     H18748   9.351   9.480  10.037 -0.0117  0.2375  0.9005
  880MOL0     H18749   9.346   9.713  10.090  0.0189 -0.1476 -1.2580
  880MOL0     H18750   9.499   9.694  10.164 -2.5088  1.2050  0.6801
  880MOL0     H18751   9.707   9.778   9.995  0.8182 -1.2818  0.2516
  880MOL0     H18752   9.720   9.916   9.638 -0.4650  2.6478  1.3586
  880MOL0     H18753   9.821   9.906   9.783  0.5547 -0.1417 -1.5077
  880MOL0     H18754   9.843   9.655   9.655 -1.3640  0.3552 -2.2880
  880MOL0     H18755   9.831   9.763   9.528  0.0219 -2.5596 -0.4983
  880MOL0     H18756  10.046   9.775   9.753 -1.8917  0.0543  1.1767
  880MOL0     H18757  10.021   9.910   9.640  0.7668  0.9142 -0.9561
  880MOL0     H18758  10.072   9.737   9.454  2.8507 -1.3267 -0.6317
  880MOL0     H18759  10.078   9.608   9.574  1.3572 -0.6354 -2.5550
  880MOL0     H18760  10.234   9.552   9.366 -0.2679  1.0429  0.6384
  880MOL0     H18761  10.445   9.446   9.289  1.6031 -0.0999 -0.6395
  880MOL0     H18762  10.881   9.270   9.306 -5.2696  4.2105  0.3625
  880MOL0     H18763  11.099   9.188   9.233  1.8624  0.8925 -1.5497
  880MOL0     H18764  11.442   9.473   9.181 -0.0277  0.1273 -0.0168
  880MOL0     H18765  11.455   9.406   9.348 -2.0841 -1.3283  0.8831
  880MOL0     H18766  11.554   9.195   9.236 -3.2019 -0.3839 -1.8540
  880MOL0     H18767  11.558   9.288   9.084  1.3930  3.5502 -0.8035
  880MOL0     H18768  11.716   9.334   9.324  0.1399  0.3326  0.0851
  880MOL0     H18769  11.762   9.277   9.155 -0.5237 -0.1729 -0.3085
  880MOL0     H18770  11.822   9.529   9.218 -0.3674 -1.3619  1.1002
  880MOL0     H18771  11.655   9.567   9.223  2.6396  2.5624 -0.1672
  880MOL0     H18772  11.630   9.496   8.986  0.8532 -1.1537  0.2841
  880MOL0     H18773  11.781   9.420   8.991  2.0839  1.7477 -2.0154
  880MOL0     H18774  11.714   9.722   8.997 -0.4918 -0.5592 -0.6775
  880MOL0     H18775  11.871   9.687   9.045 -0.6757  3.4511 -0.7839
  880MOL0     H18776  11.755   9.622   8.775 -0.2043 -0.1639 -0.0144
  880MOL0     H18777  11.929   9.587   8.821  2.3156  1.1972  0.0254
  880MOL0     H18778  11.939   9.788   8.691 -1.3643  1.4324 -0.9082
  880MOL0     H18779  11.800   9.845   8.769  1.6980  2.9897 -1.0518
  880MOL0     H18780  11.252   9.591   9.284 -0.7217 -0.4885 -2.1526
  880MOL0     H18781  11.032   9.665   9.372  0.2057 -0.4881 -0.9999
  880MOL0     H18782  10.675   9.703   9.529 -0.3775  1.1053 -0.6716
  880MOL0     H18783  10.488   9.799   9.614  1.0203 -1.3168  1.6372
  880MOL0     H18784  10.139   8.845   9.695 -1.2278  1.8148 -0.3838
  880MOL0     H18785  10.393   8.849   9.697 -0.8152 -1.6751 -0.5151
  880MOL0     H18786  10.738   8.988  10.048 -4.1104 -1.9292 -1.9660
  880MOL0     H18787  10.962   8.969  10.146  1.3319  0.9623 -1.8959
  880MOL0     H18788  11.180   8.897  10.240 -1.0735  1.0155 -0.0410
  880MOL0     H18789  11.197   8.989  10.089  1.2785 -2.0646 -2.7193
  880MOL0     H18790  11.403   8.951  10.197 -0.5246  1.7513 -1.1303
  880MOL0     H18791  11.408   8.886  10.037 -3.4254  1.2170 -0.5624
  880MOL0     H18792  11.349   8.663  10.143  0.4730 -0.5450  0.7026
  880MOL0     H18793  11.374   8.731  10.303 -0.3785 -0.8004 -0.3288
  880MOL0     H18794  11.576   8.696  10.080  0.2246  3.3235 -0.2582
  880MOL0     H18795  11.622   8.797  10.230 -0.5651  1.9397 -2.5954
  880MOL0     H18796  11.656   8.399  10.360 -0.0325 -0.6635 -0.7345
  880MOL0     H18797  11.065   8.676   9.848 -0.8133  1.0238 -3.3201
  880MOL0     H18798  10.796   8.709   9.638 -0.8704  2.2341  1.3699
  880MOL0     H18799  10.939   8.621   9.683 -2.2412 -3.6520 -1.0858
  880MOL0     H18800  10.788   8.561   9.739  0.0300  0.5120  1.6730
  881MOL0     O18801   7.507   7.210   6.236 -0.1162 -0.7637  0.5077
  881MOL0     C18802   7.458   7.254   6.342  0.5973  0.3906  0.1064
  881MOL0     O18803   7.527   7.272   6.452 -0.2128  0.0975 -0.4544
  881MOL0     C18804   7.655   7.223   6.480  0.5244 -0.0714 -0.2526
  881MOL0     C18805   7.688   7.220   6.613  0.2662  0.1602  0.4946
  881MOL0     C18806   7.815   7.181   6.662 -0.3733  0.2455  0.0114
  881MOL0     C18807   7.915   7.156   6.576 -0.3720  0.2255  0.5516
  881MOL0     O18808   8.038   7.142   6.634 -0.1698 -0.1410 -0.1992
  881MOL0     C18809   8.146   7.086   6.556 -0.5205 -0.0563 -0.6699
  881MOL0     C18810   8.268   7.079   6.650 -0.3520 -0.4720  0.3009
  881MOL0     C18811   8.409   7.051   6.587  1.4003  0.6557  0.1317
  881MOL0     C18812   8.519   7.046   6.686  0.4967 -0.0643  0.3696
  881MOL0     C18813   8.637   6.956   6.651  0.5405 -0.1942  0.2416
  881MOL0     C18814   8.764   6.965   6.740  0.8399 -0.0902 -0.7078
  881MOL0     C18815   8.737   6.915   6.886 -0.8245 -0.3456  0.6133
  881MOL0     C18816   8.752   6.764   6.905 -0.3452  0.2510 -0.4774
  881MOL0     N18817   8.896   6.711   6.893  0.7694 -0.0785  0.2902
  881MOL0     C18818   9.001   6.743   6.973 -1.2475 -0.0674 -0.1898
  881MOL0     C18819   9.107   6.662   6.922  0.0740  0.5108 -0.4357
  881MOL0     C18820   9.244   6.653   6.969  0.4420  0.4035 -0.3725
  881MOL0     C18821   9.329   6.786   6.951 -0.4277  0.1924  0.4383
  881MOL0     C18822   9.452   6.794   7.043 -0.0290  0.1796 -0.6787
  881MOL0     C18823   9.568   6.693   6.995 -0.1577 -0.3142  0.0854
  881MOL0     O18824   9.681   6.723   7.083 -0.5008 -0.4233  0.1093
  881MOL0     C18825   9.792   6.645   7.063  0.4982  0.2214 -1.2610
  881MOL0     C18826   9.820   6.546   6.963  0.2489 -0.7838  0.3435
  881MOL0     C18827   9.946   6.493   6.952 -0.3453  0.4186 -0.2824
  881MOL0     C18828  10.050   6.531   7.042  0.1496 -0.4593 -0.2182
  881MOL0     C18829  10.185   6.487   7.015  0.4543 -0.3444  0.5938
  881MOL0     O18830  10.198   6.417   6.898  1.0443 -0.5397 -0.3205
  881MOL0     C18831  10.323   6.411   6.842  0.0552  0.1883  0.4881
  881MOL0     C18832  10.416   6.323   6.896  0.9267 -0.7598  0.5546
  881MOL0     C18833  10.540   6.310   6.836 -0.4205 -0.5733  0.1837
  881MOL0     C18834  10.584   6.397   6.730  0.7485  0.6584  0.2162
  881MOL0     O18835  10.723   6.393   6.701  0.8720 -0.2549 -0.1653
  881MOL0     C18836  10.759   6.426   6.569 -0.2124  0.4799 -0.9135
  881MOL0     C18837  10.855   6.546   6.585 -0.9214 -0.4435 -0.2754
  881MOL0     C18838  10.881   6.604   6.452 -0.1284  0.7172  0.4667
  881MOL0     C18839  11.011   6.691   6.443  0.0104  0.0882  0.1784
  881MOL0     C18840  11.044   6.723   6.300  0.1742  0.3493  0.2318
  881MOL0     C18841  11.159   6.822   6.280 -0.4198  0.2962  0.1687
  881MOL0     C18842  11.222   6.818   6.139  0.3771 -0.3022 -0.0099
  881MOL0     C18843  11.177   6.940   6.044  0.0261  1.4543 -0.1105
  881MOL0    Cl18844  10.995   6.960   6.045 -0.2746 -0.4964 -0.3961
  881MOL0     C18845  10.489   6.482   6.676  0.3008  0.0985  0.2001
  881MOL0     C18846  10.358   6.490   6.727  0.1719 -0.2854 -0.2477
  881MOL0     O18847  10.275   6.520   7.091  0.4134 -0.6719  0.1527
  881MOL0     C18848  10.020   6.623   7.146 -0.1770  0.1510  1.0914
  881MOL0     C18849   9.892   6.671   7.163  0.3299 -0.5648 -0.0430
  881MOL0     N18850   9.058   6.597   6.803  0.2501  0.7788  0.0247
  881MOL0     N18851   8.934   6.622   6.795 -0.7823  0.0288 -0.0064
  881MOL0     C18852   7.889   7.160   6.435  0.1655  0.2020 -0.2449
  881MOL0     C18853   7.762   7.192   6.386  0.2016  0.3951 -0.3900
  881MOL0     C18854   7.319   7.292   6.340  0.0717  0.4331 -0.7158
  881MOL0     C18855   7.258   7.332   6.461  0.9366 -0.3285 -0.1882
  881MOL0     C18856   7.122   7.360   6.467  0.8488  0.9125 -0.5776
  881MOL0     C18857   7.042   7.358   6.357  0.1503 -1.1310 -0.1062
  881MOL0     O18858   6.907   7.380   6.367 -0.7526 -0.2938 -0.4904
  881MOL0     C18859   6.824   7.396   6.253  0.1748  0.6403 -0.1361
  881MOL0     C18860   6.673   7.383   6.277 -0.1879  1.0279 -0.2438
  881MOL0     C18861   6.587   7.437   6.163 -0.6470  0.0089 -1.1227
  881MOL0     C18862   6.564   7.329   6.056 -0.1500 -0.0799 -0.1077
  881MOL0     C18863   6.685   7.315   5.974 -0.5744  0.0946  0.3061
  881MOL0     C18864   6.786   7.301   5.912 -0.4701 -1.1966  1.2536
  881MOL0     C18865   7.107   7.338   6.233 -0.2849 -0.8047 -0.7060
  881MOL0     C18866   7.239   7.298   6.223 -0.0697 -0.1842 -0.4150
  881MOL0     C18867   7.287   7.269   6.082  0.1384  0.9601  0.2642
  881MOL0     H18868   7.605   7.247   6.678 -0.1300 -1.5213  0.7179
  881MOL0     H18869   7.837   7.183   6.768 -1.0802  2.6957  0.1891
  881MOL0     H18870   8.124   6.981   6.532  0.5694 -0.4122 -0.1992
  881MOL0     H18871   8.170   7.152   6.472  1.1223  1.2724  0.7467
  881MOL0     H18872   8.246   6.998   6.721 -0.5529 -1.2244 -0.6011
  881MOL0     H18873   8.276   7.170   6.710  1.8559 -0.5142  0.1580
  881MOL0     H18874   8.428   7.130   6.513 -2.4275 -1.0061 -3.0026
  881MOL0     H18875   8.397   6.957   6.533 -1.1683 -0.9937  3.2825
  881MOL0     H18876   8.554   7.147   6.709  2.4709 -0.4879 -0.5306
  881MOL0     H18877   8.476   7.004   6.778  0.9644 -2.5699 -0.4725
  881MOL0     H18878   8.604   6.852   6.644  0.5167 -0.4863  3.1923
  881MOL0     H18879   8.661   6.991   6.551  0.4878  2.2280  1.0251
  881MOL0     H18880   8.849   6.905   6.707  0.5660 -0.5248 -0.6321
  881MOL0     H18881   8.799   7.069   6.741 -0.5282  0.4014 -1.0102
  881MOL0     H18882   8.644   6.947   6.933  0.3013  1.2426  1.8806
  881MOL0     H18883   8.819   6.954   6.948 -0.1763  0.9630 -0.9896
  881MOL0     H18884   8.712   6.730   7.000 -0.8392 -2.9726 -1.7382
  881MOL0     H18885   8.690   6.716   6.829  0.0010  0.6629 -1.0354
  881MOL0     H18886   9.002   6.804   7.062 -1.1995 -1.7109  0.9757
  881MOL0     H18887   9.235   6.631   7.076 -2.2336 -2.5766 -1.0621
  881MOL0     H18888   9.292   6.570   6.918 -0.9743  0.1946 -1.4328
  881MOL0     H18889   9.361   6.789   6.846 -0.0587 -0.9082  0.5017
  881MOL0     H18890   9.275   6.879   6.971 -0.0284  0.4178  0.4597
  881MOL0     H18891   9.422   6.775   7.146 -0.3316 -2.6902 -1.1927
  881MOL0     H18892   9.490   6.895   7.030 -0.4675  0.1963 -1.9586
  881MOL0     H18893   9.587   6.714   6.889 -2.7408  2.3503  0.0162
  881MOL0     H18894   9.530   6.592   7.007 -0.8582 -0.2127 -1.1196
  881MOL0     H18895   9.745   6.523   6.888  0.8774 -1.8349  0.0200
  881MOL0     H18896   9.964   6.442   6.857 -1.3820 -0.6172  0.0511
  881MOL0     H18897  10.382   6.275   6.987 -0.6854  0.2261  0.5210
  881MOL0     H18898  10.603   6.240   6.888  0.3732 -0.2522 -0.3313
  881MOL0     H18899  10.811   6.338   6.528 -1.1010 -1.2333  1.4141
  881MOL0     H18900  10.670   6.450   6.510 -1.3595  0.9372  0.9305
  881MOL0     H18901  10.817   6.620   6.657 -2.0385  0.5363 -1.8072
  881MOL0     H18902  10.947   6.502   6.625 -0.5392  1.2688  0.8537
  881MOL0     H18903  10.895   6.514   6.392  2.2886  1.1120  0.3684
  881MOL0     H18904  10.797   6.658   6.407  0.2332 -0.3804 -1.6589
  881MOL0     H18905  11.087   6.629   6.491 -3.6596 -3.7337  1.6546
  881MOL0     H18906  11.004   6.778   6.509  0.4295 -1.0620  1.7743
  881MOL0     H18907  10.954   6.755   6.247 -0.5957  1.2987  2.0242
  881MOL0     H18908  11.071   6.636   6.239  0.1785 -0.3113  1.1612
  881MOL0     H18909  11.118   6.921   6.301 -1.9669 -0.4693  0.9173
  881MOL0     H18910  11.235   6.805   6.356 -1.0972 -2.2129  0.3913
  881MOL0     H18911  11.213   6.718   6.095  0.5498  0.6343 -2.3526
  881MOL0     H18912  11.328   6.835   6.159  0.3838  1.0135 -1.0454
  881MOL0     H18913  11.217   7.030   6.092 -0.5072  0.4636  2.3541
  881MOL0     H18914  11.223   6.933   5.945  2.0433  2.0927  0.7321
  881MOL0     H18915  10.509   6.544   6.588  1.4841 -1.5102 -0.7193
  881MOL0     H18916  10.299   6.572   6.687  1.7275  2.5640  2.7727
  881MOL0     H18917  10.088   6.655   7.224 -0.2210 -2.0433  2.1111
  881MOL0     H18918   9.887   6.743   7.244  4.6628 -0.5294  0.4398
  881MOL0     H18919   7.965   7.123   6.367  0.6487 -0.1345  0.4653
  881MOL0     H18920   7.758   7.195   6.278  0.5968 -2.0567 -0.5203
  881MOL0     H18921   7.307   7.333   6.557  1.2733 -0.9099 -0.3490
  881MOL0     H18922   7.060   7.379   6.554 -2.0158 -1.4875 -1.9491
  881MOL0     H18923   6.855   7.330   6.170 -2.9293 -1.1255 -0.0558
  881MOL0     H18924   6.831   7.497   6.213  0.3880  0.7518  0.1807
  881MOL0     H18925   6.658   7.439   6.370  2.7037 -0.1903  1.0740
  881MOL0     H18926   6.654   7.277   6.297 -0.0385  0.9313 -0.6127
  881MOL0     H18927   6.616   7.531   6.117 -1.3462  0.1709 -1.2430
  881MOL0     H18928   6.488   7.460   6.206 -0.2622  0.3073 -0.3765
  881MOL0     H18929   6.544   7.228   6.091  0.2558 -0.9407 -2.2112
  881MOL0     H18930   6.486   7.365   5.987 -2.7382 -0.3243  2.4728
  881MOL0     H18931   6.877   7.300   5.856  0.2640 -2.2349  2.3963
  881MOL0     H18932   7.046   7.335   6.143 -0.5086 -1.9411 -0.5304
  881MOL0     H18933   7.381   7.320   6.056  1.9227 -0.9668  2.4430
  881MOL0     H18934   7.299   7.160   6.077 -5.5342  0.0865 -0.1282
  881MOL0     H18935   7.205   7.305   6.019  0.3975  2.1042  0.5492
  882MOL0     O18936   9.136   6.086   3.823 -0.4618 -0.5192 -0.6647
  882MOL0     C18937   9.102   6.204   3.810  0.3068  0.7510 -0.4141
  882MOL0     O18938   9.192   6.295   3.779  0.1996 -0.0208  0.6253
  882MOL0     C18939   9.325   6.262   3.814  0.2995 -0.2784 -0.3044
  882MOL0     C18940   9.367   6.289   3.944 -0.3534 -0.0308  0.6205
  882MOL0     C18941   9.503   6.288   3.978 -0.6546 -0.0958  0.0579
  882MOL0     C18942   9.605   6.262   3.880  0.5088  0.1003  0.2094
  882MOL0     O18943   9.738   6.280   3.919 -0.0865  0.3506  0.1556
  882MOL0     C18944   9.829   6.255   3.813  0.4778 -0.4769  0.3669
  882MOL0     C18945   9.968   6.223   3.873  0.3739 -0.6231 -0.7859
  882MOL0     C18946   9.984   6.080   3.930  0.5201  0.3967  0.5171
  882MOL0     C18947  10.126   6.061   3.991 -0.1047 -0.7034  0.5731
  882MOL0     C18948  10.154   5.914   4.026 -0.4968 -0.0634  0.6161
  882MOL0     C18949  10.299   5.891   4.069 -0.7989  0.1752  0.2112
  882MOL0     C18950  10.337   5.943   4.198  0.8987 -0.6025 -0.2026
  882MOL0     C18951  10.470   5.896   4.250  0.3586  0.7358 -0.0013
  882MOL0     N18952  10.580   5.933   4.167  0.8981 -0.6869  0.0389
  882MOL0     C18953  10.627   5.891   4.038  0.0061 -0.0145  0.1926
  882MOL0     C18954  10.761   5.942   4.029 -0.0900  0.4309 -0.1760
  882MOL0     C18955  10.839   5.941   3.899  0.5694 -0.2744 -0.9376
  882MOL0     C18956  10.884   5.798   3.869  0.1000 -0.2598 -0.3539
  882MOL0     C18957  10.979   5.737   3.972 -0.7559 -0.8049  0.2883
  882MOL0     C18958  11.056   5.617   3.925 -1.2928  0.5695  0.9494
  882MOL0     O18959  10.974   5.500   3.902 -0.0668  0.2093 -0.3017
  882MOL0     C18960  11.029   5.377   3.875  0.0663  0.1828 -0.2715
  882MOL0     C18961  10.953   5.261   3.874 -0.3047 -0.3519 -0.2143
  882MOL0     C18962  10.989   5.134   3.834 -0.6270 -0.9022  0.0516
  882MOL0     C18963  11.117   5.116   3.780  0.1697  0.7241  0.0309
  882MOL0     C18964  11.162   4.974   3.757 -0.5724 -0.0446  0.1643
  882MOL0     O18965  11.098   4.861   3.806 -0.7808  0.2829  0.1018
  882MOL0     C18966  11.169   4.742   3.777 -0.4407 -0.4022 -0.3455
  882MOL0     C18967  11.139   4.641   3.690 -0.1008  0.2913 -0.5315
  882MOL0     C18968  11.217   4.525   3.683 -0.4040  0.2850 -0.0617
  882MOL0     C18969  11.337   4.506   3.759  0.6543  0.7778 -0.5684
  882MOL0     O18970  11.413   4.395   3.768 -0.5966 -0.2228  0.2662
  882MOL0     C18971  11.444   4.353   3.632 -0.2325 -0.2804  0.2580
  882MOL0     C18972  11.571   4.252   3.619  0.8337 -0.5142 -0.5458
  882MOL0     C18973  11.692   4.300   3.527  0.0494  0.6035 -0.5670
  882MOL0     C18974  11.643   4.346   3.388 -0.4318 -0.3198  0.0365
  882MOL0     C18975  11.769   4.402   3.310  0.4500  0.3352 -0.1290
  882MOL0     C18976  11.788   4.551   3.306  0.0896 -0.4363 -0.5936
  882MOL0     C18977  11.781   4.615   3.452  0.1025 -0.5309  0.8352
  882MOL0     C18978  11.812   4.767   3.451  0.5565  0.2195  0.1324
  882MOL0    Cl18979  11.984   4.801   3.428  0.0023  0.1968 -0.4137
  882MOL0     C18980  11.369   4.608   3.842  0.2720  0.0399 -0.1881
  882MOL0     C18981  11.289   4.724   3.853  0.4411  0.2118 -0.6428
  882MOL0     O18982  11.259   4.973   3.677  0.1840  0.0725 -0.0280
  882MOL0     C18983  11.199   5.236   3.767  0.0879  0.2061  0.2735
  882MOL0     C18984  11.158   5.361   3.818  0.3171  0.7762 -0.0644
  882MOL0     N18985  10.788   6.004   4.148 -0.5432  0.3653 -0.2237
  882MOL0     N18986  10.688   5.999   4.227  0.2476  0.1073 -0.4575
  882MOL0     C18987   9.559   6.231   3.749  0.1163  0.3523 -0.6792
  882MOL0     C18988   9.421   6.220   3.716 -0.5730  1.0952  0.1753
  882MOL0     C18989   8.955   6.241   3.805  0.0810 -0.4472 -0.1334
  882MOL0     C18990   8.909   6.350   3.726  0.5402 -1.0632  0.2161
  882MOL0     C18991   8.767   6.379   3.705 -0.5671  0.5932 -0.0430
  882MOL0     C18992   8.677   6.298   3.768  0.1239 -0.2449  0.0262
  882MOL0     O18993   8.539   6.301   3.751  0.8622  0.3160  0.6592
  882MOL0     C18994   8.488   6.369   3.633 -0.0070  0.0283  1.0239
  882MOL0     C18995   8.341   6.336   3.601 -0.5270 -0.2425  0.1407
  882MOL0     C18996   8.295   6.191   3.573  0.6283 -0.1049 -0.6368
  882MOL0     C18997   8.382   6.126   3.466  0.3427 -0.3393  0.1714
  882MOL0     C18998   8.340   6.172   3.334  1.1856  0.1197  0.8681
  882MOL0     C18999   8.302   6.189   3.217 -0.5633  0.0929  0.4155
  882MOL0     C19000   8.717   6.192   3.846 -0.8325 -0.0422 -0.9931
  882MOL0     C19001   8.854   6.163   3.868 -0.8018 -0.6286 -0.1577
  882MOL0     C19002   8.875   6.049   3.968  0.3681 -0.4481  0.6614
  882MOL0     H19003   9.302   6.336   4.016  1.2154  1.0974  1.3594
  882MOL0     H19004   9.531   6.318   4.079 -0.8396 -2.1065  0.7580
  882MOL0     H19005   9.802   6.159   3.768 -0.4728  0.2834 -0.7307
  882MOL0     H19006   9.839   6.337   3.742  2.2922  1.7808  3.0348
  882MOL0     H19007   9.977   6.287   3.961 -1.5789 -0.3397 -0.7521
  882MOL0     H19008  10.045   6.240   3.798  0.8357 -0.0659 -0.1995
  882MOL0     H19009   9.961   6.012   3.847  2.3093 -2.0563  1.8904
  882MOL0     H19010   9.908   6.071   4.007 -0.4052  0.1091 -0.4033
  882MOL0     H19011  10.201   6.094   3.918 -0.6852 -0.3166  0.1416
  882MOL0     H19012  10.125   6.122   4.081 -0.9998 -0.4624  0.4101
  882MOL0     H19013  10.081   5.866   4.092 -1.0085 -0.4894 -0.2309
  882MOL0     H19014  10.152   5.852   3.935  2.7327 -1.1282  1.1591
  882MOL0     H19015  10.312   5.782   4.068  1.7564  0.4037 -0.9641
  882MOL0     H19016  10.368   5.928   3.992  0.2513 -0.6960  0.6956
  882MOL0     H19017  10.260   5.902   4.265 -0.2912  0.1909 -1.0387
  882MOL0     H19018  10.329   6.051   4.212  1.2024 -0.7844  1.6990
  882MOL0     H19019  10.478   5.937   4.351  2.4226 -0.4314  0.3560
  882MOL0     H19020  10.470   5.788   4.264 -0.4278  0.4495 -1.8529
  882MOL0     H19021  10.587   5.827   3.960 -0.6100 -0.9010  1.2034
  882MOL0     H19022  10.785   5.971   3.808  2.2783  1.6865 -1.3650
  882MOL0     H19023  10.922   6.012   3.907  0.5178 -0.3172  0.0722
  882MOL0     H19024  10.794   5.736   3.866  0.1220 -0.4002  1.0670
  882MOL0     H19025  10.932   5.803   3.771  0.6314  1.3485 -0.0472
  882MOL0     H19026  10.929   5.712   4.065  3.3111  0.1341  2.9997
  882MOL0     H19027  11.051   5.815   3.999  1.7171 -2.5103 -0.9826
  882MOL0     H19028  11.128   5.598   4.006  0.1862  1.8391 -0.0051
  882MOL0     H19029  11.114   5.641   3.836  2.2450 -4.3501  1.5338
  882MOL0     H19030  10.858   5.275   3.924  0.9341 -0.1877  2.2433
  882MOL0     H19031  10.923   5.049   3.844 -0.8976 -0.6918  0.0537
  882MOL0     H19032  11.050   4.659   3.632 -1.6473 -1.8772  1.0143
  882MOL0     H19033  11.190   4.444   3.616  2.6568 -0.2468 -0.8360
  882MOL0     H19034  11.360   4.296   3.592 -0.4870 -0.3094  0.8253
  882MOL0     H19035  11.469   4.441   3.571 -1.3075  0.2900  0.6131
  882MOL0     H19036  11.609   4.247   3.721  0.9640 -0.0297 -0.5704
  882MOL0     H19037  11.535   4.154   3.585 -2.4319  0.4076 -0.0839
  882MOL0     H19038  11.749   4.379   3.577  2.3761 -0.5066 -1.3058
  882MOL0     H19039  11.767   4.222   3.508 -0.9781 -0.3626 -0.7418
  882MOL0     H19040  11.566   4.423   3.391  1.6548  1.8549  2.1565
  882MOL0     H19041  11.603   4.256   3.340  0.1863 -0.4166 -0.3074
  882MOL0     H19042  11.761   4.372   3.206  3.2952  0.5829 -0.5039
  882MOL0     H19043  11.858   4.352   3.350  0.6181  1.7795  1.4398
  882MOL0     H19044  11.882   4.566   3.253  0.1451  1.1075 -0.1072
  882MOL0     H19045  11.709   4.595   3.245  1.4399  3.1934  0.0550
  882MOL0     H19046  11.859   4.562   3.507 -0.7283 -3.0022 -0.2223
  882MOL0     H19047  11.683   4.606   3.500  0.9211 -0.3806  2.6257
  882MOL0     H19048  11.753   4.811   3.370 -0.8267 -2.7904 -0.6233
  882MOL0     H19049  11.775   4.830   3.533 -1.1438  1.2221 -1.3254
  882MOL0     H19050  11.457   4.599   3.904  0.3616 -2.3598 -0.5696
  882MOL0     H19051  11.331   4.804   3.912  3.8134  0.2615 -2.8490
  882MOL0     H19052  11.301   5.237   3.731 -0.4970 -0.2568 -1.5196
  882MOL0     H19053  11.218   5.446   3.787  0.7965  0.0420 -1.2150
  882MOL0     H19054   9.627   6.232   3.664 -2.5694  3.2851 -3.0137
  882MOL0     H19055   9.380   6.182   3.623 -1.0111  0.6574  0.5445
  882MOL0     H19056   8.978   6.418   3.677  1.9577 -2.6271 -0.0229
  882MOL0     H19057   8.739   6.463   3.643 -0.3393 -1.4134 -3.1026
  882MOL0     H19058   8.548   6.348   3.544 -1.9647  1.4271 -0.7389
  882MOL0     H19059   8.513   6.475   3.641  3.0552  0.2452 -5.4047
  882MOL0     H19060   8.313   6.389   3.509  0.4272 -0.3398 -0.2150
  882MOL0     H19061   8.279   6.368   3.685  0.9048 -0.6046  1.3857
  882MOL0     H19062   8.188   6.190   3.548  0.3297 -1.8044  0.5596
  882MOL0     H19063   8.301   6.132   3.665 -2.1572 -1.6423 -1.3226
  882MOL0     H19064   8.490   6.143   3.471  0.4788 -0.9510 -0.5901
  882MOL0     H19065   8.368   6.019   3.452 -1.0971  0.0461 -1.6761
  882MOL0     H19066   8.273   6.218   3.118  0.0656 -2.3762 -0.5619
  882MOL0     H19067   8.636   6.153   3.908 -0.2748 -1.3035 -1.0364
  882MOL0     H19068   8.966   5.988   3.957  0.4250 -0.4729  1.2611
  882MOL0     H19069   8.890   6.097   4.065  0.4576  0.5420  0.1705
  882MOL0     H19070   8.788   5.983   3.975 -2.4859  2.8904 -0.3703
  883MOL0     O19071  10.416  10.231   7.692 -0.1946 -0.3741  0.7864
  883MOL0     C19072  10.314  10.182   7.644 -0.7399 -0.7869 -0.0314
  883MOL0     O19073  10.300  10.050   7.607  0.1324 -0.3831 -0.5337
  883MOL0     C19074  10.411   9.973   7.611 -0.4945 -0.1225  0.5246
  883MOL0     C19075  10.462   9.942   7.735  0.1232  0.1149 -0.1533
  883MOL0     C19076  10.565   9.851   7.755 -0.0049  0.3063  0.0420
  883MOL0     C19077  10.627   9.793   7.638 -0.6749  0.2201 -0.2063
  883MOL0     O19078  10.735   9.699   7.646 -1.1056 -0.1203  0.2460
  883MOL0     C19079  10.772   9.661   7.776 -0.2366  0.1052  0.1753
  883MOL0     C19080  10.889   9.556   7.746 -0.1666 -0.5831  0.0380
  883MOL0     C19081  11.007   9.613   7.669 -0.1003  0.0985  0.2598
  883MOL0     C19082  11.116   9.505   7.650 -0.1892 -0.3351 -0.1464
  883MOL0     C19083  11.211   9.560   7.542  0.0756  1.2095  0.1684
  883MOL0     C19084  11.335   9.462   7.539 -0.3373 -0.2985  0.4284
  883MOL0     C19085  11.440   9.481   7.649 -0.3773  0.2260  0.0980
  883MOL0     C19086  11.556   9.387   7.617  0.5200  0.8303 -0.0880
  883MOL0     N19087  11.649   9.402   7.731  0.3790 -1.2012 -0.2624
  883MOL0     C19088  11.727   9.514   7.746 -0.6425 -0.7905  2.1307
  883MOL0     C19089  11.791   9.497   7.866  0.3515  0.4648  1.2169
  883MOL0     C19090  11.890   9.590   7.929 -1.2256 -0.4845 -0.7025
  883MOL0     C19091  12.023   9.524   7.976  0.3853  0.0333  0.0198
  883MOL0     C19092  12.087   9.635   8.055 -0.2337 -0.6038  0.2558
  883MOL0     C19093  12.221   9.597   8.117  0.8791  0.4450 -0.1236
  883MOL0     O19094  12.306   9.573   8.007  0.0115  0.2596 -0.5252
  883MOL0     C19095  12.441   9.546   8.043  0.0555  0.6433  0.8524
  883MOL0     C19096  12.530   9.515   7.934  0.1500  0.0197  0.3130
  883MOL0     C19097  12.659   9.475   7.966 -0.2252 -0.3545 -0.4422
  883MOL0     C19098  12.708   9.463   8.100  0.1410  0.0406 -0.3641
  883MOL0     C19099  12.842   9.411   8.130 -0.3479 -0.8165  0.2523
  883MOL0     O19100  12.888   9.410   8.261  0.0994 -0.9446 -0.0359
  883MOL0     C19101  13.024   9.393   8.272 -0.2684 -0.0881  0.2785
  883MOL0     C19102  13.098   9.272   8.288  0.8284 -0.4601  0.4802
  883MOL0     C19103  13.237   9.279   8.303 -0.3453  0.7256  0.1581
  883MOL0     C19104  13.311   9.400   8.294 -0.0030  0.2827 -1.0514
  883MOL0     O19105  13.441   9.410   8.295  0.3107  0.2139  0.0558
  883MOL0     C19106  13.510   9.537   8.281 -0.4936 -0.4677  0.1594
  883MOL0     C19107  13.660   9.517   8.258  0.0608  0.3966 -0.2260
  883MOL0     C19108  13.683   9.447   8.118 -0.2738 -0.6558 -0.4529
  883MOL0     C19109  13.831   9.435   8.077 -0.2009 -0.7818  1.0200
  883MOL0     C19110  13.851   9.402   7.925 -0.1149 -0.0418  0.1774
  883MOL0     C19111  13.970   9.485   7.875 -0.9986 -0.6232  0.5674
  883MOL0     C19112  14.009   9.448   7.729 -0.0018  0.1875 -0.9024
  883MOL0     C19113  14.107   9.554   7.681 -0.3547 -0.1383  0.2445
  883MOL0    Cl19114  14.252   9.538   7.779  0.0671  0.5774 -0.1957
  883MOL0     C19115  13.230   9.515   8.283 -0.1668  0.7594 -0.3694
  883MOL0     C19116  13.094   9.516   8.267 -0.2268  0.2981  1.3986
  883MOL0     O19117  12.907   9.381   8.032 -0.5638 -0.0733  0.1436
  883MOL0     C19118  12.615   9.496   8.210 -0.1626  0.2626  0.1201
  883MOL0     C19119  12.487   9.538   8.179 -0.5601 -0.4304  0.6531
  883MOL0     N19120  11.738   9.383   7.924 -0.2232 -0.1926 -1.2588
  883MOL0     N19121  11.655   9.333   7.849  1.2672  0.1509 -0.5806
  883MOL0     C19122  10.581   9.829   7.512  0.6458 -0.8361 -0.2967
  883MOL0     C19123  10.468   9.909   7.498  0.3836  0.0701  0.3893
  883MOL0     C19124  10.210  10.281   7.625 -0.2492 -0.2346  0.1471
  883MOL0     C19125  10.214  10.399   7.699 -0.2528  0.8057  0.3274
  883MOL0     C19126  10.107  10.494   7.691 -0.8074 -0.9974  0.5173
  883MOL0     C19127   9.995  10.477   7.607 -0.4601 -0.0128  0.5649
  883MOL0     O19128   9.889  10.565   7.594 -0.0219 -0.6544 -0.0536
  883MOL0     C19129   9.869  10.662   7.695 -0.0264 -0.9247  0.3303
  883MOL0     C19130   9.735  10.721   7.663 -0.0760  0.1480  0.0284
  883MOL0     C19131   9.628  10.611   7.628  0.7407  0.0979  0.0407
  883MOL0     C19132   9.482  10.672   7.613 -0.3400 -0.2775 -0.7972
  883MOL0     C19133   9.437  10.716   7.742 -0.2036  0.3596  0.1922
  883MOL0     C19134   9.406  10.759   7.850  0.3043 -0.0667  0.1266
  883MOL0     C19135   9.991  10.359   7.535 -0.0754 -0.6214 -0.0073
  883MOL0     C19136  10.089  10.253   7.545  0.4039 -0.9919  0.4405
  883MOL0     C19137  10.050  10.132   7.457  0.1613  0.4048 -0.1287
  883MOL0     H19138  10.424   9.987   7.827  1.3722 -0.0712  0.4684
  883MOL0     H19139  10.592   9.830   7.858 -0.2671 -0.0604  0.0364
  883MOL0     H19140  10.804   9.731   7.853  0.1227  0.0986  0.0365
  883MOL0     H19141  10.690   9.601   7.818  1.2308 -1.5935  0.7691
  883MOL0     H19142  10.846   9.464   7.703  2.6504 -1.5262 -0.9512
  883MOL0     H19143  10.936   9.521   7.838  0.8736  1.0720  0.1751
  883MOL0     H19144  11.049   9.699   7.721  2.3321  0.6303 -2.3534
  883MOL0     H19145  10.963   9.644   7.574 -0.4145  2.0352  1.0025
  883MOL0     H19146  11.173   9.490   7.742 -1.2777  2.2663  1.0629
  883MOL0     H19147  11.069   9.413   7.616  0.1981 -0.1884 -1.1180
  883MOL0     H19148  11.158   9.565   7.447 -0.7078  0.1520  0.5325
  883MOL0     H19149  11.252   9.656   7.574  2.5742 -0.2926  1.8647
  883MOL0     H19150  11.292   9.361   7.540 -2.4779  0.5588 -0.0596
  883MOL0     H19151  11.391   9.473   7.446 -1.9464 -1.0013 -0.6530
  883MOL0     H19152  11.414   9.464   7.753  1.1728  1.1383  0.6648
  883MOL0     H19153  11.463   9.587   7.634 -1.8548  0.4805 -0.6399
  883MOL0     H19154  11.529   9.285   7.587 -0.9170  1.2334 -0.2109
  883MOL0     H19155  11.606   9.431   7.530  1.9555  2.4755  1.4836
  883MOL0     H19156  11.731   9.590   7.669  2.2171 -4.4970 -1.9327
  883MOL0     H19157  11.917   9.676   7.868  1.1996 -2.4188 -2.5882
  883MOL0     H19158  11.839   9.620   8.021  2.0605 -1.6071  1.6749
  883MOL0     H19159  12.003   9.447   8.051 -1.5498  1.3932  0.9771
  883MOL0     H19160  12.080   9.473   7.897 -0.6520 -2.8456  1.0092
  883MOL0     H19161  12.013   9.671   8.126  0.2342 -0.4776  0.6834
  883MOL0     H19162  12.115   9.724   7.997  2.8254 -2.0832 -0.7920
  883MOL0     H19163  12.200   9.509   8.179  2.0049  1.2470  1.4572
  883MOL0     H19164  12.265   9.674   8.181  1.3882 -0.5652  0.7757
  883MOL0     H19165  12.499   9.517   7.830 -2.3231 -1.9763  0.9165
  883MOL0     H19166  12.715   9.441   7.880  0.1038  0.9305 -0.7566
  883MOL0     H19167  13.048   9.176   8.291 -0.4743  0.0871 -1.5733
  883MOL0     H19168  13.288   9.184   8.317  0.7103  1.0027 -1.6005
  883MOL0     H19169  13.469   9.586   8.192 -1.9910 -1.3438  0.3172
  883MOL0     H19170  13.490   9.606   8.363  0.1112  1.8275 -1.5249
  883MOL0     H19171  13.722   9.608   8.252  3.9783 -2.0310 -0.0175
  883MOL0     H19172  13.690   9.461   8.347  1.2949  1.0105 -0.2266
  883MOL0     H19173  13.645   9.345   8.131  0.0216 -0.5168  2.0783
  883MOL0     H19174  13.633   9.496   8.034 -0.3402  1.5832  0.8035
  883MOL0     H19175  13.891   9.378   8.148 -2.0305 -1.6968  1.9035
  883MOL0     H19176  13.870   9.537   8.087 -2.5649  0.3904 -0.5855
  883MOL0     H19177  13.756   9.416   7.874  0.0334 -0.7138 -0.2879
  883MOL0     H19178  13.880   9.298   7.911 -0.4464 -0.3935  1.9478
  883MOL0     H19179  13.955   9.593   7.880 -0.4251 -0.4590 -0.7893
  883MOL0     H19180  14.052   9.457   7.942  0.1858  2.2455  0.4541
  883MOL0     H19181  13.921   9.457   7.665 -0.6331 -0.1105 -0.0937
  883MOL0     H19182  14.053   9.348   7.734  1.9696  0.9706  4.8960
  883MOL0     H19183  14.132   9.530   7.577 -0.2243 -1.1049  0.4862
  883MOL0     H19184  14.070   9.657   7.680  1.1914  0.4389 -0.4882
  883MOL0     H19185  13.279   9.611   8.288 -0.7135  0.9843  1.3814
  883MOL0     H19186  13.045   9.613   8.278 -1.7728 -0.4050  1.0387
  883MOL0     H19187  12.645   9.488   8.314  1.3872 -0.6743 -0.3574
  883MOL0     H19188  12.425   9.560   8.265 -1.1764  2.5862 -0.4275
  883MOL0     H19189  10.625   9.779   7.426  1.6744  0.9633 -0.8783
  883MOL0     H19190  10.426   9.921   7.399  0.9989  2.4124  0.3549
  883MOL0     H19191  10.299  10.410   7.765 -1.3273  0.9540  1.7161
  883MOL0     H19192  10.113  10.585   7.750 -1.2846 -0.2657 -0.5351
  883MOL0     H19193   9.943  10.743   7.691 -2.1238  1.0428 -1.3639
  883MOL0     H19194   9.864  10.620   7.796  4.6846 -1.0618  0.7391
  883MOL0     H19195   9.760  10.786   7.579  0.3813 -1.5791 -1.2295
  883MOL0     H19196   9.694  10.783   7.743  1.6131  1.0973  0.1901
  883MOL0     H19197   9.626  10.529   7.701  1.4095 -1.5762 -1.7317
  883MOL0     H19198   9.657  10.565   7.533 -1.8303  0.1289 -0.8188
  883MOL0     H19199   9.487  10.756   7.543  0.9333 -1.2862 -1.9548
  883MOL0     H19200   9.412  10.593   7.584 -0.6451 -0.5198  0.5003
  883MOL0     H19201   9.369  10.815   7.933  0.4114  2.7089 -1.5967
  883MOL0     H19202   9.904  10.346   7.472  0.7978 -3.4740 -0.7688
  883MOL0     H19203  10.121  10.125   7.375 -1.6408 -1.6093 -1.6250
  883MOL0     H19204  10.049  10.043   7.521  0.4304 -0.4307 -1.2607
  883MOL0     H19205   9.953  10.144   7.410  1.2788  2.4154 -2.0680
  884MOL0     O19206  10.680   7.421   8.833 -0.5212 -0.2996  0.0955
  884MOL0     C19207  10.626   7.450   8.728  0.1128 -0.5684 -0.4418
  884MOL0     O19208  10.681   7.449   8.606 -0.6117  0.1477  0.0384
  884MOL0     C19209  10.812   7.410   8.592  0.0336 -0.4868  0.0650
  884MOL0     C19210  10.892   7.484   8.510 -0.6815 -0.6415 -0.5859
  884MOL0     C19211  11.026   7.456   8.489  0.5993  0.5919 -0.2253
  884MOL0     C19212  11.092   7.356   8.560  0.1160  0.1915 -0.1503
  884MOL0     O19213  11.227   7.347   8.547 -0.2543 -0.2113  0.3081
  884MOL0     C19214  11.304   7.294   8.655 -0.3730  0.1097 -0.0835
  884MOL0     C19215  11.448   7.291   8.618 -0.6590  0.3202 -0.2542
  884MOL0     C19216  11.480   7.196   8.506  0.5965 -0.2111  1.0104
  884MOL0     C19217  11.631   7.172   8.478  0.6177 -0.8123  0.2616
  884MOL0     C19218  11.631   7.058   8.375  0.1458 -0.6132  0.0280
  884MOL0     C19219  11.766   7.053   8.302  0.7327 -1.1012  0.4314
  884MOL0     C19220  11.882   7.059   8.406  0.0243  0.0186 -0.2483
  884MOL0     C19221  11.948   7.191   8.449  0.2523  0.8629  0.0180
  884MOL0     N19222  12.036   7.256   8.346  0.1746  0.4072 -0.3620
  884MOL0     C19223  12.165   7.253   8.336 -0.6423  0.7841  0.0341
  884MOL0     C19224  12.194   7.357   8.249 -0.2750 -0.9167 -0.4093
  884MOL0     C19225  12.318   7.412   8.190  0.6540  0.7349  0.3940
  884MOL0     C19226  12.434   7.323   8.235 -0.4063 -0.1351  0.1774
  884MOL0     C19227  12.568   7.373   8.171  0.6284  0.4759 -0.1449
  884MOL0     C19228  12.676   7.348   8.279  0.2887 -0.2201 -0.5325
  884MOL0     O19229  12.693   7.203   8.302  0.5091 -0.1231  0.3226
  884MOL0     C19230  12.726   7.159   8.431  0.3055 -0.7497  0.8783
  884MOL0     C19231  12.762   7.246   8.536  0.2016 -0.4775  0.1877
  884MOL0     C19232  12.810   7.190   8.654  0.1674 -0.3069 -0.4211
  884MOL0     C19233  12.821   7.051   8.667  1.2395 -0.4285 -0.3159
  884MOL0     C19234  12.871   6.989   8.791  0.8485  0.1860 -0.9817
  884MOL0     O19235  12.962   7.062   8.862 -0.0783  0.5264  0.0817
  884MOL0     C19236  12.996   7.029   8.990 -0.2723  0.1746 -0.3511
  884MOL0     C19237  13.123   7.039   9.032  0.0031 -0.0992  0.1640
  884MOL0     C19238  13.163   7.014   9.161  0.3725  0.6470 -0.3941
  884MOL0     C19239  13.071   6.973   9.260 -0.5154  0.8100 -0.0761
  884MOL0     O19240  13.118   6.962   9.388  0.2043 -0.3232  0.0161
  884MOL0     C19241  13.021   6.919   9.486  0.7709  0.0090  0.1175
  884MOL0     C19242  13.076   6.922   9.624  0.7402 -0.1567 -0.5354
  884MOL0     C19243  13.183   6.810   9.659 -0.5638 -0.8975 -0.3341
  884MOL0     C19244  13.183   6.768   9.806 -0.6069 -0.5322 -1.2582
  884MOL0     C19245  13.313   6.687   9.847 -0.0634 -0.9113  0.2243
  884MOL0     C19246  13.288   6.543   9.809 -0.2517 -0.1811 -0.2975
  884MOL0     C19247  13.391   6.445   9.872 -0.3839  1.4864  0.1936
  884MOL0     C19248  13.385   6.308   9.821 -0.1473  0.4548 -0.6801
  884MOL0    Cl19249  13.234   6.237   9.811  0.7746  0.0565 -0.1188
  884MOL0     C19250  12.938   6.971   9.224  0.4655 -0.1970 -0.2144
  884MOL0     C19251  12.899   6.991   9.086  0.6537  0.3453 -0.6541
  884MOL0     O19252  12.822   6.880   8.823 -0.2300 -0.0382 -0.0657
  884MOL0     C19253  12.778   6.967   8.565 -0.0853 -0.5714 -1.4412
  884MOL0     C19254  12.727   7.021   8.447  0.4371  0.4072 -0.2065
  884MOL0     N19255  12.078   7.408   8.202  0.5706  0.7089  0.0171
  884MOL0     N19256  11.988   7.351   8.266  0.7086  0.2941  0.5792
  884MOL0     C19257  11.010   7.280   8.651 -0.1501 -0.0818  0.0112
  884MOL0     C19258  10.875   7.302   8.655  0.2333 -0.3558 -0.0584
  884MOL0     C19259  10.490   7.492   8.741  0.4357  0.3088 -0.2199
  884MOL0     C19260  10.408   7.446   8.636 -0.3833 -0.0882  0.3871
  884MOL0     C19261  10.271   7.472   8.634  0.1514 -0.3648  0.2346
  884MOL0     C19262  10.215   7.547   8.732  0.0359  0.9713 -0.0590
  884MOL0     O19263  10.086   7.591   8.735 -0.3181  0.8147  0.0749
  884MOL0     C19264   9.997   7.573   8.623  0.1436  0.2278  0.6231
  884MOL0     C19265   9.912   7.444   8.624 -0.7102  0.6654 -0.5040
  884MOL0     C19266   9.789   7.450   8.713  0.0854 -0.0372 -0.2024
  884MOL0     C19267   9.840   7.470   8.863  0.3058  0.3837  0.0472
  884MOL0     C19268   9.721   7.465   8.959  0.7421  0.3766 -0.1394
  884MOL0     C19269   9.612   7.471   9.017 -0.5867  0.8226  0.4918
  884MOL0     C19270  10.294   7.596   8.837 -0.2067 -0.9504  0.4352
  884MOL0     C19271  10.431   7.566   8.843 -0.9115 -0.3647  0.1376
  884MOL0     C19272  10.514   7.623   8.959 -0.0325  0.2067 -0.6285
  884MOL0     H19273  10.852   7.572   8.462 -4.3715 -2.1906 -0.6799
  884MOL0     H19274  11.072   7.499   8.400 -1.6288  0.9740 -1.2711
  884MOL0     H19275  11.290   7.362   8.740  3.4085  0.8395  0.1074
  884MOL0     H19276  11.269   7.194   8.680 -0.2201 -1.0466 -3.8607
  884MOL0     H19277  11.506   7.265   8.706 -1.9404 -1.0715  0.2064
  884MOL0     H19278  11.485   7.392   8.594  2.1109 -0.8581 -1.3883
  884MOL0     H19279  11.432   7.232   8.414 -1.0279  2.2215  2.7126
  884MOL0     H19280  11.433   7.099   8.529  0.8410 -0.8257 -0.8402
  884MOL0     H19281  11.665   7.263   8.429 -2.6139  0.4187  0.1029
  884MOL0     H19282  11.694   7.153   8.566  0.1105  0.3045  0.8864
  884MOL0     H19283  11.635   6.960   8.424  1.5927  0.0966  1.4606
  884MOL0     H19284  11.554   7.058   8.298  1.9894 -0.0478 -1.9233
  884MOL0     H19285  11.773   6.958   8.248  2.5876 -0.7273 -0.0432
  884MOL0     H19286  11.768   7.133   8.229 -0.5483 -2.2765 -0.9457
  884MOL0     H19287  11.966   7.003   8.364  0.2724  0.1578  0.0598
  884MOL0     H19288  11.853   7.011   8.500  0.2169  0.6032  0.1167
  884MOL0     H19289  11.875   7.260   8.493 -0.6752 -0.0209 -0.1038
  884MOL0     H19290  12.014   7.149   8.525 -0.1027  0.2067 -0.0344
  884MOL0     H19291  12.243   7.201   8.391  0.8162  1.2895 -1.5069
  884MOL0     H19292  12.301   7.416   8.082  0.1770  2.0475  0.4961
  884MOL0     H19293  12.336   7.516   8.219  0.2466  1.6507 -2.3496
  884MOL0     H19294  12.436   7.323   8.345  0.1141 -0.0888  0.1728
  884MOL0     H19295  12.407   7.222   8.205 -2.5921  0.9328 -1.8277
  884MOL0     H19296  12.564   7.481   8.154 -0.8554  0.3847 -0.5519
  884MOL0     H19297  12.583   7.331   8.071 -3.1750  1.2321 -1.1976
  884MOL0     H19298  12.653   7.399   8.374 -0.8518 -1.6835  0.0096
  884MOL0     H19299  12.771   7.390   8.245  0.4874 -0.9719 -0.9293
  884MOL0     H19300  12.743   7.352   8.547  2.3756  0.0884 -0.9603
  884MOL0     H19301  12.834   7.264   8.731  0.9817  1.1600 -2.0116
  884MOL0     H19302  13.197   7.084   8.966 -2.0815  2.4482 -0.5928
  884MOL0     H19303  13.266   7.018   9.195  0.5122  0.1751 -0.7587
  884MOL0     H19304  12.929   6.978   9.482  0.7819 -0.0010 -0.3572
  884MOL0     H19305  12.988   6.818   9.458 -1.9966  0.8604 -0.0174
  884MOL0     H19306  13.117   7.023   9.633 -0.8809  0.4280  0.9467
  884MOL0     H19307  12.985   6.914   9.684 -0.8730 -0.1000 -2.8592
  884MOL0     H19308  13.170   6.725   9.592 -0.1745 -2.7292  1.7823
  884MOL0     H19309  13.282   6.856   9.646 -0.7227 -1.0136 -2.2768
  884MOL0     H19310  13.090   6.716   9.831 -1.7021  0.6147 -2.7978
  884MOL0     H19311  13.179   6.859   9.866  0.8123 -1.0820 -0.2860
  884MOL0     H19312  13.324   6.700   9.955  1.0565  1.3251 -0.0908
  884MOL0     H19313  13.396   6.728   9.788  0.0693  0.6403  1.4365
  884MOL0     H19314  13.191   6.507   9.845 -0.7542 -0.6058 -1.9968
  884MOL0     H19315  13.292   6.542   9.700  1.5953  1.1904 -0.2919
  884MOL0     H19316  13.373   6.435   9.979  1.0724  2.0874  0.5087
  884MOL0     H19317  13.496   6.475   9.872  0.6231 -1.5679 -1.6137
  884MOL0     H19318  13.422   6.322   9.719 -0.0977 -0.7791 -0.8506
  884MOL0     H19319  13.462   6.255   9.878  0.5220  2.0153 -0.0798
  884MOL0     H19320  12.865   6.952   9.303  2.2682  0.4553  1.6990
  884MOL0     H19321  12.792   6.990   9.070 -0.2731  3.1153  3.5724
  884MOL0     H19322  12.790   6.860   8.578 -3.1928 -0.7931  0.9148
  884MOL0     H19323  12.672   6.970   8.368 -0.0961  0.0171  0.4088
  884MOL0     H19324  11.045   7.193   8.706  0.7651  0.4813  0.3531
  884MOL0     H19325  10.803   7.237   8.704  0.5947  0.0047  0.9830
  884MOL0     H19326  10.456   7.402   8.549  1.3054  3.5946 -0.7186
  884MOL0     H19327  10.224   7.446   8.540 -0.1020  2.2979 -0.4495
  884MOL0     H19328  10.065   7.582   8.537  0.6160  0.3086  1.0050
  884MOL0     H19329   9.932   7.661   8.623 -0.7628 -0.4278  0.7768
  884MOL0     H19330   9.982   7.371   8.666  0.1388  1.9661  0.4127
  884MOL0     H19331   9.881   7.425   8.521  2.0811  3.5786 -2.0657
  884MOL0     H19332   9.732   7.357   8.713 -0.1349  0.0559  1.6155
  884MOL0     H19333   9.715   7.526   8.686 -1.3288 -1.4073 -0.3248
  884MOL0     H19334   9.895   7.376   8.878 -0.1834 -0.4856 -2.8935
  884MOL0     H19335   9.903   7.552   8.898  0.3157 -0.6020  2.5100
  884MOL0     H19336   9.514   7.477   9.060 -1.6244 -0.1357 -1.6197
  884MOL0     H19337  10.242   7.664   8.904 -0.0237 -1.2632  0.8955
  884MOL0     H19338  10.530   7.537   9.025 -1.8633 -0.3120 -0.7952
  884MOL0     H19339  10.609   7.662   8.921  1.7962 -1.3353  2.0048
  884MOL0     H19340  10.465   7.702   9.017 -2.2226 -0.9256 -0.8288
  885MOL0     O19341  10.064   0.538   6.001  0.1795  0.2415  0.2395
  885MOL0     C19342   9.978   0.562   6.080  0.4134 -0.1274 -0.3536
  885MOL0     O19343   9.935   0.686   6.116 -0.3484  0.1472 -0.3151
  885MOL0     C19344  10.011   0.791   6.081 -0.8782 -0.3039  0.6745
  885MOL0     C19345  10.030   0.828   5.946  0.2977 -0.6935  1.1701
  885MOL0     C19346  10.117   0.935   5.911  0.1783  0.6580  0.9771
  885MOL0     C19347  10.186   1.006   6.015 -0.6697  0.3777 -0.2115
  885MOL0     O19348  10.253   1.121   5.997  0.8514  0.0654 -0.4174
  885MOL0     C19349  10.284   1.170   5.865 -0.8112 -0.2938  0.5629
  885MOL0     C19350  10.412   1.107   5.802  0.4690  0.5829 -0.0850
  885MOL0     C19351  10.537   1.129   5.888 -0.0728 -0.1170 -0.5245
  885MOL0     C19352  10.656   1.046   5.832  0.0828 -0.6701 -0.5838
  885MOL0     C19353  10.788   1.124   5.863  0.0071 -0.1125 -0.4067
  885MOL0     C19354  10.818   1.124   6.014  0.3890 -0.2124 -0.1497
  885MOL0     C19355  10.962   1.182   6.046  0.3671 -0.1324 -0.2622
  885MOL0     C19356  10.990   1.190   6.200  1.0275 -0.8951 -0.2064
  885MOL0     N19357  10.952   1.320   6.262  0.1584 -0.4166 -1.0960
  885MOL0     C19358  11.011   1.442   6.254  0.1997  0.2329 -0.0025
  885MOL0     C19359  10.949   1.525   6.342 -0.1272 -0.4929  0.1458
  885MOL0     C19360  10.988   1.674   6.366  0.5041 -0.5217 -1.1019
  885MOL0     C19361  11.033   1.697   6.512  0.3846  0.4324 -0.0137
  885MOL0     C19362  11.105   1.825   6.529  0.1327 -0.8638  0.3285
  885MOL0     C19363  11.186   1.835   6.661  0.2292  0.2829  0.7938
  885MOL0     O19364  11.252   1.970   6.665  0.0437 -0.3098  0.0089
  885MOL0     C19365  11.363   1.973   6.748 -0.7557  0.4308  0.4016
  885MOL0     C19366  11.475   2.046   6.704  0.5988 -0.6385  0.0336
  885MOL0     C19367  11.592   2.055   6.776  0.3526  0.1223  0.5243
  885MOL0     C19368  11.603   1.975   6.896  0.2840 -0.0424 -0.2245
  885MOL0     C19369  11.729   1.989   6.978  0.8228  0.7520  0.8282
  885MOL0     O19370  11.829   2.052   6.926  0.1409  0.1091  0.8037
  885MOL0     C19371  11.954   2.066   6.995  0.2984 -0.2778 -0.0788
  885MOL0     C19372  11.979   2.181   7.066  0.1610  0.3107  0.3070
  885MOL0     C19373  12.104   2.199   7.118 -0.6481 -0.7702  0.7451
  885MOL0     C19374  12.214   2.109   7.106  0.4393 -0.2910 -0.1833
  885MOL0     O19375  12.342   2.124   7.154  0.0112  0.4372 -0.1548
  885MOL0     C19376  12.367   2.234   7.230  0.4409 -0.4234 -0.5256
  885MOL0     C19377  12.513   2.233   7.283 -1.2385  0.2422  0.4374
  885MOL0     C19378  12.557   2.091   7.328  0.1564 -0.7043 -0.3231
  885MOL0     C19379  12.698   2.115   7.398  0.0013 -0.2873 -0.3111
  885MOL0     C19380  12.813   2.104   7.302 -0.0546 -0.6421  0.3256
  885MOL0     C19381  12.942   2.119   7.375  0.3939 -0.7620 -0.1091
  885MOL0     C19382  13.055   2.097   7.273 -0.3801 -0.5200  0.3515
  885MOL0     C19383  13.187   2.141   7.338  0.2215 -0.1093 -0.1051
  885MOL0    Cl19384  13.242   2.022   7.467  0.2924  0.0338  0.0631
  885MOL0     C19385  12.182   1.991   7.033  0.8251  0.3484 -0.1756
  885MOL0     C19386  12.053   1.974   6.978 -0.0563 -0.0270  0.0241
  885MOL0     O19387  11.739   1.913   7.067  0.0378  0.9583  0.2887
  885MOL0     C19388  11.491   1.900   6.937  0.0685  0.3623 -0.5230
  885MOL0     C19389  11.371   1.907   6.865  0.3990  0.0243 -0.4089
  885MOL0     N19390  10.868   1.444   6.416  0.3339 -0.9898 -0.2056
  885MOL0     N19391  10.862   1.324   6.361 -0.6023 -0.0559 -0.0365
  885MOL0     C19392  10.163   0.965   6.148  0.2936 -0.2280 -0.6976
  885MOL0     C19393  10.083   0.865   6.183  0.2007  1.3241  0.0537
  885MOL0     C19394   9.907   0.457   6.152  0.3731 -0.6454 -0.6844
  885MOL0     C19395   9.983   0.342   6.196 -0.1209  0.1422  0.4679
  885MOL0     C19396   9.914   0.236   6.260 -0.2180  0.0067 -0.2769
  885MOL0     C19397   9.778   0.246   6.291 -0.8392  0.0209  0.4420
  885MOL0     O19398   9.717   0.136   6.349  0.8113 -0.1508 -0.2337
  885MOL0     C19399   9.567   0.135   6.344  0.5659  0.2823 -0.9239
  885MOL0     C19400   9.526   0.008   6.415  0.7101 -0.8812 -0.2992
  885MOL0     C19401   9.371  -0.013   6.415  1.0359  0.6250 -0.3575
  885MOL0     C19402   9.327  -0.098   6.535 -0.6314  0.2861 -0.6575
  885MOL0     C19403   9.353  -0.242   6.512 -1.2118 -0.5414 -0.7994
  885MOL0     C19404   9.356  -0.357   6.476 -0.5297  0.5876 -0.3171
  885MOL0     C19405   9.715   0.361   6.260 -0.5709  0.4282  0.1631
  885MOL0     C19406   9.769   0.468   6.192 -0.1427  0.6102 -0.0615
  885MOL0     C19407   9.682   0.578   6.153 -0.4274  0.4523  1.1963
  885MOL0     H19408   9.990   0.768   5.865 -1.0600 -0.7967  1.8889
  885MOL0     H19409  10.124   0.956   5.804  0.0304 -2.5303  0.2508
  885MOL0     H19410  10.199   1.164   5.796 -2.3025  0.2957  2.2561
  885MOL0     H19411  10.301   1.278   5.878 -2.5893  0.3734 -1.9536
  885MOL0     H19412  10.423   1.141   5.699 -0.8244 -1.4150 -0.9506
  885MOL0     H19413  10.395   0.999   5.794 -2.9915  1.0201 -0.3709
  885MOL0     H19414  10.507   1.104   5.990  0.1509  0.5028 -0.3043
  885MOL0     H19415  10.570   1.233   5.884  1.7368 -0.5321  1.7278
  885MOL0     H19416  10.647   0.946   5.875 -4.8648 -0.3346 -0.3511
  885MOL0     H19417  10.655   1.042   5.723 -0.1303 -1.1302 -0.5651
  885MOL0     H19418  10.867   1.083   5.800  1.1451  0.5763  0.5192
  885MOL0     H19419  10.783   1.225   5.823  1.4224  0.2768  0.3161
  885MOL0     H19420  10.734   1.172   6.066 -0.0157 -1.5591  0.4916
  885MOL0     H19421  10.803   1.032   6.070 -3.7037  0.6265  0.4567
  885MOL0     H19422  10.977   1.281   6.002  0.8898 -0.0633  0.0626
  885MOL0     H19423  11.039   1.117   6.001 -1.1995 -1.0177 -1.7769
  885MOL0     H19424  10.942   1.100   6.239  0.3037 -0.6677 -0.5675
  885MOL0     H19425  11.098   1.182   6.217  0.7342  1.3002  3.9475
  885MOL0     H19426  11.094   1.458   6.185 -1.8021 -1.0323 -2.8750
  885MOL0     H19427  11.074   1.701   6.305  1.5342  2.4103  1.3986
  885MOL0     H19428  10.901   1.736   6.343  1.8375  2.1408  0.5514
  885MOL0     H19429  10.947   1.679   6.578 -0.3982  1.7004 -0.6581
  885MOL0     H19430  11.113   1.626   6.534 -0.4078 -0.1954  0.9623
  885MOL0     H19431  11.031   1.905   6.526 -1.1572 -2.0210  0.1836
  885MOL0     H19432  11.174   1.834   6.445  0.2367 -2.0494  0.2655
  885MOL0     H19433  11.263   1.757   6.665  1.5910  1.6174  4.2799
  885MOL0     H19434  11.123   1.816   6.748 -0.3246 -0.1933  0.2942
  885MOL0     H19435  11.452   2.101   6.613  1.1026 -3.1473 -1.7009
  885MOL0     H19436  11.680   2.099   6.731  1.1346 -1.6163  0.2513
  885MOL0     H19437  11.903   2.256   7.081 -0.0796  0.5053 -1.6087
  885MOL0     H19438  12.112   2.288   7.180 -1.8669 -1.0389  1.3183
  885MOL0     H19439  12.336   2.323   7.175  0.9221 -0.5963 -1.0874
  885MOL0     H19440  12.305   2.221   7.319 -2.3548 -1.5973 -2.4943
  885MOL0     H19441  12.574   2.271   7.199 -0.7869 -2.3592 -0.5194
  885MOL0     H19442  12.531   2.307   7.361  3.4306 -2.3945  2.3013
  885MOL0     H19443  12.486   2.041   7.395  1.9128  0.6966  2.7900
  885MOL0     H19444  12.571   2.029   7.239  2.5117 -0.1097 -0.4319
  885MOL0     H19445  12.715   2.038   7.474  1.5842 -0.5845 -0.9206
  885MOL0     H19446  12.688   2.210   7.450 -2.2466 -0.5421 -0.1632
  885MOL0     H19447  12.804   2.177   7.221 -2.4750 -0.5902  0.5671
  885MOL0     H19448  12.816   2.007   7.252 -0.5503 -0.4803 -0.0216
  885MOL0     H19449  12.948   2.221   7.412 -2.2879  0.0857 -1.7943
  885MOL0     H19450  12.954   2.048   7.457  0.7499  0.0319  0.5385
  885MOL0     H19451  13.042   2.147   7.176  2.3423  0.5710  0.4536
  885MOL0     H19452  13.067   1.990   7.255 -0.6497 -0.4182 -0.4966
  885MOL0     H19453  13.267   2.146   7.264  0.0272 -2.2473 -0.5115
  885MOL0     H19454  13.170   2.244   7.370 -0.3280  0.0091 -0.7621
  885MOL0     H19455  12.275   1.936   7.028  2.3589  2.8845 -2.0744
  885MOL0     H19456  12.028   1.889   6.916 -0.7651 -1.2452  1.9015
  885MOL0     H19457  11.487   1.848   7.032  3.5956  1.3247  0.2985
  885MOL0     H19458  11.293   1.850   6.914 -0.1777  2.5592  1.8531
  885MOL0     H19459  10.203   1.019   6.233 -2.5365 -2.5094  2.3345
  885MOL0     H19460  10.063   0.827   6.283 -0.7235 -0.4258 -0.7673
  885MOL0     H19461  10.084   0.323   6.159 -0.3553  0.8659 -0.6123
  885MOL0     H19462   9.969   0.146   6.286 -0.4890 -0.6050 -1.6948
  885MOL0     H19463   9.537   0.129   6.239 -0.1350  0.0101 -0.7097
  885MOL0     H19464   9.521   0.220   6.396  3.2244 -1.1498  4.4973
  885MOL0     H19465   9.570   0.010   6.515  0.2622  2.2201 -0.0441
  885MOL0     H19466   9.565  -0.069   6.347  0.1640 -0.3869 -1.1929
  885MOL0     H19467   9.325  -0.053   6.324 -0.8200 -0.6536  1.0584
  885MOL0     H19468   9.330   0.086   6.440  0.6218 -0.5221  4.5368
  885MOL0     H19469   9.379  -0.055   6.621 -2.1236 -0.4837  0.6846
  885MOL0     H19470   9.220  -0.077   6.544 -0.8291 -0.9638  0.0827
  885MOL0     H19471   9.387  -0.458   6.465  0.0521  0.8312 -0.9724
  885MOL0     H19472   9.613   0.374   6.292 -0.8473 -0.2181 -0.4293
  885MOL0     H19473   9.709   0.660   6.220  0.9957 -0.9184  2.3946
  885MOL0     H19474   9.694   0.607   6.048 -1.3170  0.4435  1.0894
  885MOL0     H19475   9.579   0.549   6.174 -0.0733 -0.8125  1.3050
  886MOL0     O19476   2.772   8.099   1.937  0.4856  0.0265  0.3265
  886MOL0     C19477   2.712   8.195   1.892  1.5407 -0.4778 -0.3360
  886MOL0     O19478   2.758   8.281   1.796  0.2373 -0.2829 -0.3612
  886MOL0     C19479   2.888   8.260   1.764  0.4285 -0.1385  0.6536
  886MOL0     C19480   2.932   8.218   1.633 -0.2420 -0.0052 -0.0315
  886MOL0     C19481   3.075   8.207   1.618  0.0109 -0.4139  0.3927
  886MOL0     C19482   3.164   8.226   1.720  0.1344 -0.0119  0.7478
  886MOL0     O19483   3.298   8.204   1.699 -0.2228 -0.1515  0.7953
  886MOL0     C19484   3.396   8.269   1.774  1.1149  0.3133 -0.1257
  886MOL0     C19485   3.520   8.256   1.696 -0.7174 -0.0206 -0.3206
  886MOL0     C19486   3.608   8.130   1.722 -0.2425  0.8429  0.0851
  886MOL0     C19487   3.755   8.143   1.693 -0.8046  0.5954  0.9465
  886MOL0     C19488   3.823   8.014   1.736 -0.5457  0.0160  0.4718
  886MOL0     C19489   3.962   8.006   1.687  1.1193  0.4643  0.0838
  886MOL0     C19490   4.011   7.857   1.678  0.0916  0.4256  0.7952
  886MOL0     C19491   4.075   7.810   1.811 -0.5296  0.4756  1.1408
  886MOL0     N19492   4.213   7.847   1.827 -0.4959  0.6108 -0.1294
  886MOL0     C19493   4.312   7.814   1.741  0.1051 -0.2240 -0.3491
  886MOL0     C19494   4.416   7.887   1.790  0.7551  0.6585  0.6153
  886MOL0     C19495   4.553   7.897   1.735  0.5072 -0.2510 -0.1530
  886MOL0     C19496   4.666   7.934   1.830  0.1424 -0.4227  0.7154
  886MOL0     C19497   4.804   7.873   1.788  0.5171 -0.1142 -0.0434
  886MOL0     C19498   4.911   7.933   1.877  0.2460  0.9228 -0.3032
  886MOL0     O19499   5.034   7.887   1.827 -0.1423 -0.1513  0.6639
  886MOL0     C19500   5.148   7.872   1.902 -1.5958 -0.5052  0.0909
  886MOL0     C19501   5.257   7.947   1.873  0.0344 -0.3498  0.0778
  886MOL0     C19502   5.372   7.943   1.950  0.0149 -0.3290 -0.1629
  886MOL0     C19503   5.369   7.850   2.059  0.3457 -0.4455 -0.1956
  886MOL0     C19504   5.477   7.856   2.163 -0.2620  0.4708  0.5197
  886MOL0     O19505   5.583   7.944   2.147  0.0744  0.1894 -0.0858
  886MOL0     C19506   5.680   7.989   2.235 -0.7212  0.3227 -0.6121
  886MOL0     C19507   5.744   7.908   2.332 -1.7976 -0.3011  0.7351
  886MOL0     C19508   5.860   7.958   2.410  0.2597  0.7242  0.4126
  886MOL0     C19509   5.898   8.089   2.396 -0.1285  0.5739  0.7770
  886MOL0     O19510   6.003   8.145   2.454 -0.0404 -0.0801  0.4917
  886MOL0     C19511   6.012   8.128   2.594 -1.3322  0.4418 -0.4324
  886MOL0     C19512   6.144   8.181   2.648 -0.6575  0.0791 -0.4501
  886MOL0     C19513   6.264   8.114   2.581  0.8429  0.4960 -0.1898
  886MOL0     C19514   6.407   8.152   2.633  0.6274  0.3040  0.8939
  886MOL0     C19515   6.527   8.086   2.552  0.8236  0.2578 -0.1509
  886MOL0     C19516   6.552   7.942   2.615 -0.9039 -0.4930  0.0465
  886MOL0     C19517   6.623   7.843   2.529  0.3988 -0.2110  0.3188
  886MOL0     C19518   6.527   7.776   2.429 -0.5479 -0.0533  0.7343
  886MOL0    Cl19519   6.410   7.660   2.517  0.1611  0.0808 -0.2063
  886MOL0     C19520   5.829   8.170   2.306  0.2053  0.4645 -0.0438
  886MOL0     C19521   5.725   8.119   2.223 -0.6840  0.9531 -0.1479
  886MOL0     O19522   5.457   7.790   2.265 -0.6804 -0.2157 -0.0528
  886MOL0     C19523   5.261   7.767   2.085  0.0117 -0.3604 -0.7697
  886MOL0     C19524   5.149   7.780   2.008 -0.5106  0.5809  0.0448
  886MOL0     N19525   4.379   7.944   1.913 -0.1206  0.0747  0.7697
  886MOL0     N19526   4.255   7.914   1.931 -0.4637 -0.3330 -0.5196
  886MOL0     C19527   3.119   8.269   1.836  0.1040 -0.7429 -0.1111
  886MOL0     C19528   2.988   8.293   1.861  0.0579 -0.1455 -0.1729
  886MOL0     C19529   2.580   8.221   1.957 -0.6265  0.5936  0.6085
  886MOL0     C19530   2.481   8.285   1.883  0.0134  0.0288 -0.0194
  886MOL0     C19531   2.354   8.313   1.936  0.8125  0.4280  0.1245
  886MOL0     C19532   2.332   8.288   2.073  0.0688  0.2001 -0.7065
  886MOL0     O19533   2.200   8.313   2.119 -0.1299 -0.2390  0.3176
  886MOL0     C19534   2.176   8.347   2.258  0.5517 -1.1845  0.0173
  886MOL0     C19535   2.027   8.375   2.275  0.1954 -0.5821  0.5270
  886MOL0     C19536   1.946   8.249   2.231  0.1258 -0.2027  0.9514
  886MOL0     C19537   1.794   8.261   2.252  0.8488 -0.3232 -0.0889
  886MOL0     C19538   1.745   8.135   2.314  0.4859  0.1857 -0.4240
  886MOL0     C19539   1.689   8.031   2.347  0.0914 -0.0693  0.1262
  886MOL0     C19540   2.438   8.243   2.155  0.3615 -0.5567 -0.4269
  886MOL0     C19541   2.564   8.217   2.095 -0.3619 -0.9891  0.9389
  886MOL0     C19542   2.663   8.169   2.198  0.4030 -0.5339  0.2431
  886MOL0     H19543   2.853   8.190   1.564 -0.6577  0.5011  0.2373
  886MOL0     H19544   3.112   8.180   1.519 -3.3775 -1.8556 -0.6456
  886MOL0     H19545   3.358   8.372   1.774 -0.3286 -0.1686  1.4926
  886MOL0     H19546   3.389   8.230   1.876 -1.1598 -2.0524 -1.0915
  886MOL0     H19547   3.579   8.339   1.737 -2.5023 -0.4765  3.7231
  886MOL0     H19548   3.508   8.271   1.589  0.1198  2.7019 -0.1076
  886MOL0     H19549   3.562   8.049   1.664 -0.3397  0.9616 -0.0030
  886MOL0     H19550   3.600   8.098   1.826 -1.4019  1.1644  0.1130
  886MOL0     H19551   3.762   8.164   1.586 -0.8413 -0.4276  0.7394
  886MOL0     H19552   3.812   8.226   1.736 -0.1392  1.8467 -2.1098
  886MOL0     H19553   3.814   8.002   1.845 -2.2091 -2.3294  0.1515
  886MOL0     H19554   3.766   7.933   1.690 -0.7472  0.9805 -1.0197
  886MOL0     H19555   3.957   8.032   1.581  0.2717 -0.9810 -0.2615
  886MOL0     H19556   4.025   8.066   1.753  1.8126 -0.6719  0.4860
  886MOL0     H19557   4.096   7.855   1.609  0.0661 -1.2470  0.7861
  886MOL0     H19558   3.943   7.778   1.644  2.7917 -2.2902  1.2482
  886MOL0     H19559   4.021   7.857   1.893 -2.6555  1.5372 -0.7363
  886MOL0     H19560   4.060   7.702   1.818 -0.8580  0.1366 -2.5465
  886MOL0     H19561   4.302   7.749   1.655  2.4042 -1.6042  0.3357
  886MOL0     H19562   4.580   7.797   1.701  1.3239  0.5675 -2.0574
  886MOL0     H19563   4.543   7.968   1.652 -2.4223  0.2964  0.5581
  886MOL0     H19564   4.668   8.043   1.829 -1.5092 -0.2973  3.0208
  886MOL0     H19565   4.641   7.909   1.933 -0.8944  1.6118  0.9971
  886MOL0     H19566   4.818   7.912   1.687 -0.5503  0.3413 -0.0252
  886MOL0     H19567   4.810   7.763   1.792  0.3138 -0.1311 -0.1991
  886MOL0     H19568   4.896   7.895   1.979  0.6682  1.4410 -0.0390
  886MOL0     H19569   4.905   8.042   1.884  1.0587  0.9186  0.7278
  886MOL0     H19570   5.242   8.024   1.798 -1.6305 -1.4155 -0.7293
  886MOL0     H19571   5.459   8.007   1.944 -0.3989  0.1269 -2.1575
  886MOL0     H19572   5.725   7.801   2.331  0.7960 -0.8427 -1.3342
  886MOL0     H19573   5.915   7.883   2.466  1.3723  0.7269 -0.6375
  886MOL0     H19574   5.937   8.194   2.639 -0.5326  2.5433 -1.9983
  886MOL0     H19575   5.992   8.025   2.625 -0.1628  0.5326  0.6934
  886MOL0     H19576   6.149   8.290   2.641 -0.2193  0.2973  2.2631
  886MOL0     H19577   6.158   8.154   2.753 -1.5945 -1.3439 -0.6658
  886MOL0     H19578   6.262   8.004   2.586  1.3663  0.4985  0.1171
  886MOL0     H19579   6.262   8.151   2.478 -0.9922  1.4351  0.1475
  886MOL0     H19580   6.406   8.134   2.741 -0.4326  1.2372  1.0598
  886MOL0     H19581   6.409   8.260   2.612 -0.1150  0.5926  2.1942
  886MOL0     H19582   6.619   8.146   2.559  1.1979 -0.4927  2.8280
  886MOL0     H19583   6.498   8.070   2.448  1.4239  3.4479 -0.9312
  886MOL0     H19584   6.610   7.945   2.707 -1.6818 -1.1063  0.5678
  886MOL0     H19585   6.463   7.889   2.651  0.8367 -3.0046  0.9087
  886MOL0     H19586   6.671   7.773   2.598 -0.0397  2.0162  3.0427
  886MOL0     H19587   6.689   7.913   2.477 -0.1568 -0.4150 -0.6787
  886MOL0     H19588   6.475   7.850   2.367  1.7246  2.0107  1.1243
  886MOL0     H19589   6.592   7.717   2.363 -0.0198  3.3569 -2.1128
  886MOL0     H19590   5.855   8.274   2.289 -4.6043  1.8094 -0.7718
  886MOL0     H19591   5.682   8.190   2.153  2.1175  0.1325 -2.9922
  886MOL0     H19592   5.255   7.702   2.171 -2.7086  1.7492  0.7800
  886MOL0     H19593   5.065   7.715   2.029  0.5568 -1.4029 -1.4945
  886MOL0     H19594   3.192   8.284   1.915  0.9215  1.5443 -1.2430
  886MOL0     H19595   2.951   8.323   1.959 -1.0304 -0.5064 -0.4570
  886MOL0     H19596   2.479   8.299   1.775 -1.2028 -0.3593 -0.0684
  886MOL0     H19597   2.274   8.350   1.874  0.9279  2.4851  1.1293
  886MOL0     H19598   2.233   8.433   2.292 -0.2639 -0.0355 -1.3739
  886MOL0     H19599   2.197   8.271   2.334  0.8179  1.6327  2.9648
  886MOL0     H19600   2.002   8.465   2.218  1.3813 -0.6326 -0.1000
  886MOL0     H19601   2.014   8.413   2.377 -1.3559 -1.1276  0.5711
  886MOL0     H19602   1.993   8.157   2.267  2.6220 -0.2190 -1.9354
  886MOL0     H19603   1.952   8.243   2.122  2.7313 -1.1932  1.0722
  886MOL0     H19604   1.762   8.344   2.316 -0.2381 -1.9081  1.5258
  886MOL0     H19605   1.757   8.289   2.153  1.2802  0.7328  0.0306
  886MOL0     H19606   1.636   7.940   2.369 -0.3814 -0.4674 -2.3913
  886MOL0     H19607   2.424   8.247   2.263 -0.7783  0.6445 -0.5880
  886MOL0     H19608   2.746   8.240   2.198 -0.7395  0.8516 -0.1391
  886MOL0     H19609   2.619   8.167   2.298 -1.0668  0.7560 -0.3421
  886MOL0     H19610   2.692   8.068   2.168  0.7689 -0.5052  0.4888
  887MOL0     O19611   5.713  10.521   2.115  0.4212  0.0872 -0.2884
  887MOL0     C19612   5.676  10.402   2.107 -0.8304  0.6972  1.2230
  887MOL0     O19613   5.763  10.299   2.079  0.4841  0.3268 -1.1482
  887MOL0     C19614   5.893  10.339   2.046 -1.1320 -0.6051 -0.6474
  887MOL0     C19615   5.977  10.380   2.151 -0.6619  0.8611 -1.2099
  887MOL0     C19616   6.116  10.393   2.132  0.5935 -0.2808  0.4134
  887MOL0     C19617   6.172  10.377   1.997  0.0501  0.0678 -0.5283
  887MOL0     O19618   6.303  10.402   1.983 -0.1121 -0.5538  0.8682
  887MOL0     C19619   6.315  10.538   1.932 -0.1729  0.1997 -0.3818
  887MOL0     C19620   6.465  10.561   1.890  0.1882 -0.6791  0.1942
  887MOL0     C19621   6.473  10.679   1.798  0.4119  0.0874 -0.4333
  887MOL0     C19622   6.617  10.705   1.759 -0.8188 -0.8501  0.6814
  887MOL0     C19623   6.636  10.834   1.671 -0.0894 -0.7797 -0.0663
  887MOL0     C19624   6.785  10.860   1.648  0.0908 -0.2139  0.9909
  887MOL0     C19625   6.798  10.958   1.535  0.4801 -0.4714  0.0879
  887MOL0     C19626   6.928  11.026   1.548 -0.6398  0.5842 -0.0881
  887MOL0     N19627   7.047  10.942   1.547 -0.6372  0.7359  0.1137
  887MOL0     C19628   7.048  10.830   1.461 -0.6378 -0.8202 -1.1009
  887MOL0     C19629   7.158  10.765   1.501 -0.1757  0.1571 -0.0907
  887MOL0     C19630   7.235  10.663   1.423  0.2834  0.4620  0.3747
  887MOL0     C19631   7.176  10.520   1.420 -0.7362 -0.5946 -0.8545
  887MOL0     C19632   7.165  10.443   1.561 -0.2216 -1.5605  0.4640
  887MOL0     C19633   7.296  10.423   1.638  0.2357 -0.5885  0.4028
  887MOL0     O19634   7.406  10.382   1.555  0.4712 -0.5229 -0.0867
  887MOL0     C19635   7.534  10.402   1.614  0.2355 -0.1268  0.0541
  887MOL0     C19636   7.646  10.343   1.550 -0.2304 -0.5699  0.5939
  887MOL0     C19637   7.783  10.358   1.604 -0.3361  0.4458  0.2449
  887MOL0     C19638   7.803  10.427   1.727 -0.0337  0.0096  0.5292
  887MOL0     C19639   7.938  10.445   1.785 -0.3493 -0.1291 -0.3962
  887MOL0     O19640   7.961  10.542   1.875 -0.0291  0.2300 -0.8757
  887MOL0     C19641   8.081  10.566   1.928 -0.1297 -0.5589  0.3266
  887MOL0     C19642   8.078  10.670   2.022  0.2947 -0.1165 -0.3555
  887MOL0     C19643   8.201  10.710   2.088 -0.5417 -0.0311  0.0737
  887MOL0     C19644   8.324  10.668   2.048  0.3119  0.0116 -0.0310
  887MOL0     O19645   8.430  10.717   2.112  0.2623 -0.5867 -0.1278
  887MOL0     C19646   8.544  10.734   2.035  1.0028  1.1131 -0.1689
  887MOL0     C19647   8.635  10.821   2.109 -0.3070 -0.3035 -0.3369
  887MOL0     C19648   8.759  10.866   2.025  0.3744 -0.0608  0.1427
  887MOL0     C19649   8.840  10.964   2.107 -0.2627  0.2983 -0.3136
  887MOL0     C19650   8.972  11.007   2.041  0.3664 -0.1236  0.1627
  887MOL0     C19651   9.086  10.903   2.051  0.1689  0.5422 -0.1659
  887MOL0     C19652   9.139  10.878   2.191  0.6906 -0.5381 -0.1313
  887MOL0     C19653   9.273  10.803   2.195 -0.3398 -0.1828 -0.0292
  887MOL0    Cl19654   9.278  10.627   2.140 -0.0509 -0.0543 -0.4228
  887MOL0     C19655   8.325  10.564   1.948  0.1990  0.1863 -0.6206
  887MOL0     C19656   8.207  10.514   1.902  0.4294  1.4849  0.2552
  887MOL0     O19657   8.019  10.357   1.757  0.3659  0.1387 -0.0674
  887MOL0     C19658   7.693  10.490   1.779  0.6465  0.3777  0.5285
  887MOL0     C19659   7.564  10.478   1.723 -0.1248 -0.3095  0.2304
  887MOL0     N19660   7.215  10.829   1.614  0.4388  1.0597 -0.0428
  887MOL0     N19661   7.145  10.932   1.636  0.4592  1.0627 -0.6331
  887MOL0     C19662   6.096  10.344   1.888  0.2348  0.2157  0.3475
  887MOL0     C19663   5.955  10.320   1.919  0.6215 -0.3183 -0.1240
  887MOL0     C19664   5.533  10.363   2.115 -0.5484  0.2989  0.2992
  887MOL0     C19665   5.453  10.479   2.127  0.1070  1.0251  0.4974
  887MOL0     C19666   5.320  10.467   2.172  0.0726  0.9759  0.1546
  887MOL0     C19667   5.266  10.348   2.174  1.3156  0.2694 -1.2249
  887MOL0     O19668   5.142  10.357   2.212  0.3090 -0.0884  0.4722
  887MOL0     C19669   5.052  10.246   2.225 -0.0125  0.0998 -0.9903
  887MOL0     C19670   4.916  10.314   2.254  0.1876 -0.1524 -1.1838
  887MOL0     C19671   4.909  10.375   2.398 -0.5375  0.4563  0.3980
  887MOL0     C19672   4.893  10.262   2.501 -0.0411 -0.1142 -0.5951
  887MOL0     C19673   4.898  10.335   2.626 -0.3609 -0.4967  0.4631
  887MOL0     C19674   4.897  10.417   2.718  0.6182 -0.0997  1.3923
  887MOL0     C19675   5.332  10.227   2.160 -1.0173 -0.2655 -0.0197
  887MOL0     C19676   5.471  10.240   2.131 -0.1245  0.5000  0.6062
  887MOL0     C19677   5.546  10.108   2.140  0.3625  0.9891 -0.5498
  887MOL0     H19678   5.951  10.404   2.253 -0.0339 -0.3070 -0.7538
  887MOL0     H19679   6.188  10.428   2.205  0.7346  0.4879 -0.0899
  887MOL0     H19680   6.251  10.560   1.846  1.2744  1.8814 -1.0931
  887MOL0     H19681   6.287  10.606   2.013 -2.1644 -1.1866  0.1767
  887MOL0     H19682   6.502  10.468   1.845  0.3293  0.6342 -2.6020
  887MOL0     H19683   6.522  10.582   1.981 -1.4905  1.3852  0.8534
  887MOL0     H19684   6.436  10.766   1.853  4.0653  0.2584  2.1448
  887MOL0     H19685   6.409  10.654   1.713 -0.2090  0.3004 -0.0320
  887MOL0     H19686   6.662  10.715   1.857 -2.8275 -1.3561  1.7161
  887MOL0     H19687   6.661  10.624   1.700  0.6722  0.2685  0.2058
  887MOL0     H19688   6.575  10.833   1.580 -0.8988 -0.4619  0.4622
  887MOL0     H19689   6.593  10.915   1.730 -0.8322 -0.8578 -0.4882
  887MOL0     H19690   6.829  10.911   1.734  4.1131  2.0349 -2.0433
  887MOL0     H19691   6.835  10.764   1.631  1.5119  0.4829  1.0297
  887MOL0     H19692   6.723  11.038   1.543  2.0005  0.9995  0.2500
  887MOL0     H19693   6.787  10.913   1.436 -0.7306 -3.7029  1.5690
  887MOL0     H19694   6.952  11.089   1.462 -0.9651 -1.8634 -2.0901
  887MOL0     H19695   6.933  11.074   1.647  2.9559 -1.8699  1.1181
  887MOL0     H19696   7.002  10.809   1.365 -0.7114 -2.8187 -0.6816
  887MOL0     H19697   7.257  10.696   1.321  1.5257 -2.2287 -0.3354
  887MOL0     H19698   7.329  10.659   1.478  0.0450  4.3581  1.2982
  887MOL0     H19699   7.079  10.527   1.371 -1.0639  0.2979 -0.1028
  887MOL0     H19700   7.241  10.454   1.361  0.2882  0.8801 -1.4356
  887MOL0     H19701   7.132  10.340   1.546 -0.8455 -1.5140  1.4117
  887MOL0     H19702   7.098  10.497   1.630  1.8681 -1.3779  2.4576
  887MOL0     H19703   7.274  10.345   1.711 -0.7580  0.3833  1.1785
  887MOL0     H19704   7.315  10.515   1.694  1.0116 -1.1917  1.1450
  887MOL0     H19705   7.633  10.299   1.452 -2.6482 -0.6698  0.8872
  887MOL0     H19706   7.870  10.318   1.553 -0.7668 -0.7010  0.3923
  887MOL0     H19707   7.983  10.714   2.049  0.3599 -2.2989  4.6086
  887MOL0     H19708   8.189  10.782   2.169  2.4062 -0.3536  0.9002
  887MOL0     H19709   8.601  10.644   2.009  0.4710  0.9634 -0.8386
  887MOL0     H19710   8.509  10.775   1.940  0.0141  1.6964  0.4358
  887MOL0     H19711   8.572  10.903   2.146 -0.4483 -0.3050 -0.5718
  887MOL0     H19712   8.665  10.775   2.204 -1.4443  1.5048  0.9660
  887MOL0     H19713   8.810  10.775   1.992  0.2659  0.7240 -2.4513
  887MOL0     H19714   8.719  10.917   1.937 -0.2673 -0.6073  0.1147
  887MOL0     H19715   8.862  10.910   2.200  1.6113  0.2299 -0.7422
  887MOL0     H19716   8.779  11.052   2.129  1.1825  2.0941 -2.9789
  887MOL0     H19717   9.004  11.096   2.097 -2.1881 -0.1852  1.8817
  887MOL0     H19718   8.956  11.031   1.936 -0.9352  1.2848  0.6507
  887MOL0     H19719   9.063  10.809   1.999 -0.0317  1.8564 -2.6103
  887MOL0     H19720   9.175  10.943   2.003  1.7577 -1.4569  0.9464
  887MOL0     H19721   9.074  10.807   2.243  0.5409 -1.4908 -1.5459
  887MOL0     H19722   9.135  10.975   2.240 -0.4203 -1.8772  2.6621
  887MOL0     H19723   9.343  10.855   2.129  0.9616 -2.9375 -0.9313
  887MOL0     H19724   9.304  10.824   2.298 -0.1128  2.5435 -0.5825
  887MOL0     H19725   8.418  10.518   1.916  0.7532 -0.1944  1.3930
  887MOL0     H19726   8.224  10.440   1.826  1.9914  3.6780 -1.6806
  887MOL0     H19727   7.704  10.550   1.870 -0.2212  1.2310  0.0989
  887MOL0     H19728   7.493  10.544   1.771  0.9406  1.5327 -0.6424
  887MOL0     H19729   6.139  10.347   1.789  1.3232  1.3801  0.8138
  887MOL0     H19730   5.897  10.287   1.834  1.4958  0.1748 -0.9299
  887MOL0     H19731   5.490  10.581   2.130  0.8738  0.7605  0.4235
  887MOL0     H19732   5.266  10.554   2.206  0.7057  2.0876 -1.5102
  887MOL0     H19733   5.075  10.192   2.318 -2.5901  1.0069  0.2894
  887MOL0     H19734   5.057  10.170   2.146 -3.1714 -3.0279  1.4694
  887MOL0     H19735   4.836  10.240   2.248 -1.5415  1.4957  0.2135
  887MOL0     H19736   4.907  10.394   2.180  3.7965 -0.1795 -1.8467
  887MOL0     H19737   4.823  10.441   2.404  0.5470  1.9695 -0.1311
  887MOL0     H19738   4.985  10.450   2.422 -0.1608 -0.8324  3.8192
  887MOL0     H19739   4.804  10.198   2.501 -0.0062 -0.2111 -2.4082
  887MOL0     H19740   4.976  10.191   2.498  1.2963  1.4330 -1.8957
  887MOL0     H19741   4.904  10.482   2.803 -2.1892 -0.4678  1.9949
  887MOL0     H19742   5.281  10.131   2.164 -1.4543  0.0214  2.3655
  887MOL0     H19743   5.494  10.016   2.169 -0.1512  1.0339 -1.3087
  887MOL0     H19744   5.587  10.084   2.041  2.1182 -2.9759  0.8873
  887MOL0     H19745   5.620  10.118   2.220 -1.8117  1.4676  1.5026
  888MOL0     O19746   2.897   7.784   8.820 -0.1739 -0.3576 -0.0543
  888MOL0     C19747   2.858   7.766   8.708 -0.2140 -0.3795  0.4242
  888MOL0     O19748   2.933   7.707   8.614 -0.6085  0.2123 -0.2204
  888MOL0     C19749   3.067   7.680   8.627 -0.3315 -0.4550 -0.2818
  888MOL0     C19750   3.153   7.774   8.678 -0.1424 -0.1779 -0.1077
  888MOL0     C19751   3.294   7.732   8.686  0.5048 -0.0869 -0.4502
  888MOL0     C19752   3.340   7.598   8.661  0.2772 -0.2472  0.0631
  888MOL0     O19753   3.464   7.557   8.699  0.7009 -0.0403 -0.6662
  888MOL0     C19754   3.519   7.443   8.632  0.2883 -0.6892  0.4632
  888MOL0     C19755   3.671   7.442   8.663  0.4624  0.2840 -0.5571
  888MOL0     C19756   3.749   7.577   8.629 -0.6416  1.3492  0.1304
  888MOL0     C19757   3.761   7.596   8.477 -0.3002  0.2036 -0.1922
  888MOL0     C19758   3.850   7.710   8.448  0.0237  0.0105 -0.0128
  888MOL0     C19759   3.839   7.727   8.297  0.0482 -0.2845  0.3093
  888MOL0     C19760   3.936   7.845   8.268 -0.4379  0.5926  0.1591
  888MOL0     C19761   3.933   7.896   8.125  0.9502 -0.5023 -0.0838
  888MOL0     N19762   3.958   7.784   8.035  0.0241  0.3610 -0.0671
  888MOL0     C19763   4.060   7.703   8.034 -0.5101  0.7101  0.0436
  888MOL0     C19764   4.036   7.612   7.936  0.0201 -1.4479 -0.7133
  888MOL0     C19765   4.129   7.499   7.893 -0.3220  1.0664  1.3459
  888MOL0     C19766   4.076   7.354   7.881  0.0505  0.3365  0.8491
  888MOL0     C19767   4.167   7.252   7.811 -0.4338 -0.5733 -0.1898
  888MOL0     C19768   4.314   7.264   7.858 -0.2432  0.0544 -0.4764
  888MOL0     O19769   4.316   7.286   8.002 -0.4731 -0.0291  0.2624
  888MOL0     C19770   4.443   7.250   8.045 -0.5042 -0.1141 -0.6023
  888MOL0     C19771   4.479   7.128   8.108 -0.0213  0.5207 -1.0399
  888MOL0     C19772   4.617   7.093   8.136 -0.8194  0.5905  0.0938
  888MOL0     C19773   4.715   7.186   8.105  0.6494 -0.1693 -0.3313
  888MOL0     C19774   4.859   7.144   8.113  0.1046  0.2091 -0.0622
  888MOL0     O19775   4.945   7.229   8.051 -0.0792  0.0346 -0.5403
  888MOL0     C19776   5.087   7.226   8.067  0.4186  0.1670  0.1442
  888MOL0     C19777   5.175   7.123   8.102 -0.3086 -0.5318  0.0219
  888MOL0     C19778   5.311   7.140   8.107  0.0197 -0.8500  0.1251
  888MOL0     C19779   5.377   7.254   8.069 -0.8198 -0.2871  0.1111
  888MOL0     O19780   5.509   7.253   8.077 -0.2856 -0.4927 -0.4895
  888MOL0     C19781   5.576   7.362   8.002  0.6521  0.3196 -0.5502
  888MOL0     C19782   5.723   7.359   8.040 -0.0341 -0.0766  0.5288
  888MOL0     C19783   5.794   7.486   8.010  0.1752 -0.4851  0.6246
  888MOL0     C19784   5.943   7.478   8.019 -0.4423 -0.6608 -0.6121
  888MOL0     C19785   5.984   7.461   8.166  0.6680  0.3436 -0.2419
  888MOL0     C19786   6.138   7.483   8.189  0.2478  0.3541 -0.4723
  888MOL0     C19787   6.182   7.626   8.156 -0.8942  0.5435  0.2185
  888MOL0     C19788   6.130   7.730   8.254 -0.4055  0.5357 -0.2749
  888MOL0    Cl19789   6.145   7.899   8.199  0.1542  0.3247 -0.1946
  888MOL0     C19790   5.288   7.355   8.029  0.1997 -0.3216 -0.2399
  888MOL0     C19791   5.149   7.344   8.023  0.0323  0.1048 -0.0340
  888MOL0     O19792   4.888   7.042   8.178 -0.5557 -0.9955  0.3120
  888MOL0     C19793   4.673   7.313   8.056 -0.1622  0.4501 -0.0559
  888MOL0     C19794   4.542   7.349   8.032 -0.4258 -1.0549  0.2363
  888MOL0     N19795   3.906   7.634   7.891  0.4364 -0.6264 -0.4044
  888MOL0     N19796   3.862   7.735   7.951 -0.4718 -0.7085 -0.2793
  888MOL0     C19797   3.243   7.501   8.626  0.5833 -0.7625  0.8728
  888MOL0     C19798   3.109   7.548   8.608  0.1655 -0.0097 -0.4060
  888MOL0     C19799   2.720   7.821   8.670 -0.5467 -0.6602  0.5486
  888MOL0     C19800   2.683   7.782   8.541 -0.4847 -0.4597  0.1686
  888MOL0     C19801   2.557   7.824   8.495  0.0357 -0.2396  0.1620
  888MOL0     C19802   2.472   7.905   8.567 -0.6094 -0.0668 -0.5206
  888MOL0     O19803   2.349   7.938   8.513 -0.4798 -0.6948  0.2468
  888MOL0     C19804   2.232   7.920   8.590 -0.1990 -0.8928  0.1204
  888MOL0     C19805   2.151   8.056   8.565  0.2467 -0.3725  0.4350
  888MOL0     C19806   2.002   8.048   8.619 -1.2999 -0.1294  0.0408
  888MOL0     C19807   1.918   8.181   8.594  1.2178 -0.1898  0.3169
  888MOL0     C19808   1.972   8.288   8.683  0.1564 -0.2886 -0.1835
  888MOL0     C19809   2.016   8.364   8.763 -0.1997 -0.4578  0.4916
  888MOL0     C19810   2.519   7.946   8.695  0.9991 -0.3942  0.4478
  888MOL0     C19811   2.635   7.904   8.743 -0.1426  0.4425 -0.2478
  888MOL0     C19812   2.662   7.946   8.883 -0.9827 -0.2621 -0.7172
  888MOL0     H19813   3.116   7.875   8.691 -0.1377 -0.3066  1.0240
  888MOL0     H19814   3.364   7.809   8.717  0.2722  0.4338 -1.1967
  888MOL0     H19815   3.482   7.343   8.656 -1.0969 -0.7684 -1.7099
  888MOL0     H19816   3.511   7.457   8.524  0.5338 -1.2068  0.3758
  888MOL0     H19817   3.722   7.359   8.613  1.5084 -0.6565  1.9159
  888MOL0     H19818   3.685   7.418   8.768  3.7202  0.3155 -0.8755
  888MOL0     H19819   3.848   7.582   8.676  0.0865  2.9331 -1.4320
  888MOL0     H19820   3.703   7.670   8.665 -1.4490  1.6340 -1.5061
  888MOL0     H19821   3.793   7.501   8.434 -2.7346 -0.9112  0.2656
  888MOL0     H19822   3.658   7.603   8.441 -0.5297  1.4564  0.6373
  888MOL0     H19823   3.818   7.800   8.500 -1.4288 -0.2487 -0.3867
  888MOL0     H19824   3.951   7.690   8.483 -0.2891 -1.1653  0.2530
  888MOL0     H19825   3.858   7.637   8.238  0.5398 -0.1640  0.2864
  888MOL0     H19826   3.737   7.763   8.276  0.3577 -0.0528 -0.9115
  888MOL0     H19827   4.042   7.821   8.276  0.1443  2.2752 -1.7302
  888MOL0     H19828   3.920   7.923   8.343  0.6856  0.0558  1.0018
  888MOL0     H19829   3.827   7.923   8.124  0.3030 -2.8017 -0.7735
  888MOL0     H19830   4.001   7.979   8.109  2.2183 -1.4232  0.3621
  888MOL0     H19831   4.154   7.722   8.084  1.2354 -4.5282 -0.6439
  888MOL0     H19832   4.155   7.518   7.789 -3.1984  0.0836  0.3614
  888MOL0     H19833   4.212   7.513   7.963 -0.6334  1.4750  1.6366
  888MOL0     H19834   4.049   7.322   7.982  1.4352  2.0181  1.8296
  888MOL0     H19835   3.985   7.357   7.820 -0.2282  0.5285  1.2682
  888MOL0     H19836   4.168   7.267   7.702 -1.5210 -1.9287 -0.4272
  888MOL0     H19837   4.132   7.150   7.829 -0.1709 -1.0423 -2.0638
  888MOL0     H19838   4.370   7.343   7.806  1.6920 -0.3659  0.8828
  888MOL0     H19839   4.363   7.173   7.825 -0.2880  0.4230 -1.6272
  888MOL0     H19840   4.413   7.042   8.109 -0.2107  0.6695 -0.6810
  888MOL0     H19841   4.650   6.995   8.170  1.0994  0.6796 -1.3714
  888MOL0     H19842   5.131   7.031   8.139 -0.8861  1.6317  5.8594
  888MOL0     H19843   5.374   7.064   8.151  0.6125  0.9060  2.5372
  888MOL0     H19844   5.566   7.342   7.895 -1.2646 -2.2580  0.0072
  888MOL0     H19845   5.531   7.457   8.030 -0.9384 -0.7137  0.5280
  888MOL0     H19846   5.729   7.346   8.148  1.3965  2.6191  0.8497
  888MOL0     H19847   5.763   7.273   7.986 -0.1803  1.6883 -2.6685
  888MOL0     H19848   5.771   7.518   7.908  1.7853  0.3038  0.4695
  888MOL0     H19849   5.756   7.561   8.080  0.6446  0.9004 -0.5679
  888MOL0     H19850   5.982   7.572   7.981 -1.9976  0.0443 -0.5581
  888MOL0     H19851   5.988   7.404   7.953  1.4284 -1.1213  1.0844
  888MOL0     H19852   5.960   7.360   8.201  1.9492 -0.0492 -0.4655
  888MOL0     H19853   5.927   7.524   8.235 -1.1397 -0.6230 -0.7631
  888MOL0     H19854   6.163   7.458   8.293 -2.7083  1.4137  0.6102
  888MOL0     H19855   6.194   7.413   8.127  0.1546  1.4738 -1.8640
  888MOL0     H19856   6.154   7.643   8.052 -1.6021 -1.5223  0.0331
  888MOL0     H19857   6.291   7.631   8.159 -0.5800 -3.3620 -0.3261
  888MOL0     H19858   6.025   7.709   8.272 -0.5536  2.7711  2.0523
  888MOL0     H19859   6.177   7.716   8.352 -0.2471 -3.0373 -0.7259
  888MOL0     H19860   5.315   7.459   8.013 -2.3351  0.5289  0.4960
  888MOL0     H19861   5.086   7.427   7.994  1.2856 -0.2313 -4.6285
  888MOL0     H19862   4.753   7.387   8.052  0.9154 -0.5081  2.1030
  888MOL0     H19863   4.531   7.449   7.991  0.4731  0.1430  2.7251
  888MOL0     H19864   3.270   7.396   8.617  0.3183 -0.6912 -1.3100
  888MOL0     H19865   3.027   7.482   8.581 -1.1202  0.8283  1.2623
  888MOL0     H19866   2.732   7.724   8.464  1.5846  0.5617  0.6412
  888MOL0     H19867   2.511   7.786   8.404 -0.9984  1.4031 -0.0442
  888MOL0     H19868   2.253   7.912   8.697 -2.3593  1.9996  0.8914
  888MOL0     H19869   2.181   7.828   8.561  1.3921 -1.6833 -0.2984
  888MOL0     H19870   2.143   8.070   8.456  0.4346 -2.4169  0.1271
  888MOL0     H19871   2.205   8.141   8.607  4.0732 -2.2614 -0.2717
  888MOL0     H19872   2.009   8.041   8.728  0.8116  1.4292  0.0632
  888MOL0     H19873   1.956   7.956   8.581  0.4436 -0.5185 -1.3055
  888MOL0     H19874   1.920   8.211   8.489  1.5392 -1.1671  0.0309
  888MOL0     H19875   1.818   8.159   8.633  1.9357  0.0124  2.3763
  888MOL0     H19876   2.052   8.425   8.843  1.2801 -1.5878  0.7327
  888MOL0     H19877   2.483   8.031   8.752 -1.9744 -1.3529  0.1927
  888MOL0     H19878   2.573   7.979   8.937 -0.5485 -0.9470  0.4545
  888MOL0     H19879   2.714   7.866   8.935  1.9337 -0.6735 -3.8644
  888MOL0     H19880   2.736   8.028   8.882 -0.0214 -1.0599  1.0887
  889MOL0     O19881   8.633   2.252   9.298  0.2092  0.4076  1.0328
  889MOL0     C19882   8.700   2.152   9.273  0.6021 -0.9623  0.5656
  889MOL0     O19883   8.830   2.130   9.305 -0.3570 -0.3459 -0.8521
  889MOL0     C19884   8.894   2.220   9.381 -0.4933  0.6599  0.0519
  889MOL0     C19885   8.863   2.221   9.514 -0.2097 -0.3920  0.9592
  889MOL0     C19886   8.914   2.326   9.593  0.3503  0.8972 -0.2738
  889MOL0     C19887   9.030   2.394   9.554  0.9806 -0.5075  0.1078
  889MOL0     O19888   9.083   2.467   9.655  0.2228  0.1171 -0.0145
  889MOL0     C19889   9.203   2.550   9.646  0.8918 -0.2772 -0.7344
  889MOL0     C19890   9.317   2.458   9.676  0.0693  0.3603  0.0058
  889MOL0     C19891   9.449   2.534   9.679 -0.5493 -0.6757  0.5799
  889MOL0     C19892   9.497   2.589   9.539 -0.3212  0.6193  0.3469
  889MOL0     C19893   9.649   2.616   9.541 -0.6838 -0.1075 -0.7730
  889MOL0     C19894   9.707   2.727   9.648 -0.5139  0.4372 -0.1333
  889MOL0     C19895   9.856   2.762   9.629  0.4616 -0.3972  0.1649
  889MOL0     C19896   9.947   2.644   9.662 -0.3608 -1.0180  0.3681
  889MOL0     N19897  10.075   2.663   9.592 -0.2657 -0.0185 -0.7924
  889MOL0     C19898  10.104   2.672   9.457 -0.7992  0.1693 -0.5426
  889MOL0     C19899  10.238   2.690   9.443  0.2208 -0.9186 -0.0140
  889MOL0     C19900  10.326   2.731   9.333  0.5594 -0.8594  0.3039
  889MOL0     C19901  10.464   2.793   9.379  0.3010 -0.7142 -0.2126
  889MOL0     C19902  10.544   2.816   9.255  0.0050 -0.5238  0.3517
  889MOL0     C19903  10.688   2.841   9.296  0.0318 -0.1841 -0.6646
  889MOL0     O19904  10.708   2.980   9.340 -0.4744  0.8435  0.2716
  889MOL0     C19905  10.837   3.018   9.382 -0.8675  1.2354  0.1490
  889MOL0     C19906  10.854   3.146   9.412 -1.3512 -1.3174 -0.2127
  889MOL0     C19907  10.972   3.196   9.466 -0.6573  1.0115 -0.2297
  889MOL0     C19908  11.097   3.125   9.465  0.0014  0.6878 -1.0978
  889MOL0     C19909  11.226   3.177   9.513 -0.7760 -0.7218  0.4245
  889MOL0     O19910  11.332   3.098   9.537 -0.3667  0.2267 -1.2184
  889MOL0     C19911  11.454   3.161   9.560 -0.6623  0.5311  0.3596
  889MOL0     C19912  11.485   3.271   9.645 -0.6709 -0.7408  0.0162
  889MOL0     C19913  11.618   3.323   9.661 -0.2073  0.1330 -0.7090
  889MOL0     C19914  11.733   3.266   9.601  0.0166  1.2603  0.4001
  889MOL0     O19915  11.857   3.312   9.620 -0.7373  0.4368  0.1106
  889MOL0     C19916  11.975   3.222   9.629  1.0284 -0.4420  0.0269
  889MOL0     C19917  12.040   3.216   9.487  0.4293  0.7231 -1.5451
  889MOL0     C19918  12.056   3.355   9.417 -0.7582 -0.0259 -0.2740
  889MOL0     C19919  12.098   3.352   9.265  0.4209  0.1407 -0.4919
  889MOL0     C19920  12.102   3.492   9.210 -0.4312  0.1947 -0.1295
  889MOL0     C19921  12.226   3.565   9.269 -0.0559 -0.1110  0.1058
  889MOL0     C19922  12.228   3.702   9.212  0.3811 -0.1729  0.8727
  889MOL0     C19923  12.363   3.773   9.237 -0.0508 -0.2321  0.3960
  889MOL0    Cl19924  12.387   3.898   9.109 -0.3438  0.0126  0.5484
  889MOL0     C19925  11.703   3.155   9.509  0.6567  0.5394  0.1971
  889MOL0     C19926  11.569   3.107   9.498  0.1454 -0.3687 -0.1378
  889MOL0     O19927  11.229   3.304   9.530  0.8417  0.4852 -0.2611
  889MOL0     C19928  11.079   2.990   9.429  0.7970  0.3090  0.7709
  889MOL0     C19929  10.953   2.938   9.384  0.6616  0.8461 -0.2587
  889MOL0     N19930  10.288   2.685   9.570 -0.0641  0.1075 -0.4560
  889MOL0     N19931  10.196   2.663   9.655  0.4121 -0.1829 -0.3858
  889MOL0     C19932   9.077   2.372   9.424 -0.4662 -0.1521  0.9808
  889MOL0     C19933   8.999   2.295   9.336  0.2980 -0.3021  0.3445
  889MOL0     C19934   8.632   2.046   9.195 -0.6330  0.4933  0.1739
  889MOL0     C19935   8.707   1.935   9.164  0.7195 -0.2709 -0.1119
  889MOL0     C19936   8.661   1.831   9.075 -0.5059 -1.0089 -0.2872
  889MOL0     C19937   8.528   1.833   9.022  1.1546 -1.5031 -0.4948
  889MOL0     O19938   8.467   1.748   8.938  0.4627 -0.5578 -0.3514
  889MOL0     C19939   8.544   1.633   8.886 -0.1187  0.1339  0.0018
  889MOL0     C19940   8.450   1.541   8.822 -0.0375  0.2349 -0.3694
  889MOL0     C19941   8.368   1.602   8.706  0.4238  0.1569  1.1600
  889MOL0     C19942   8.260   1.502   8.639  0.1310 -0.3023 -0.4142
  889MOL0     C19943   8.148   1.490   8.732 -0.9355 -0.2130  0.9871
  889MOL0     C19944   8.055   1.470   8.798 -0.1524 -0.2365 -0.2759
  889MOL0     C19945   8.453   1.947   9.054  0.4563  0.0486  0.0077
  889MOL0     C19946   8.495   2.051   9.142 -0.5405 -0.8970  1.0949
  889MOL0     C19947   8.394   2.161   9.159 -0.1992  0.4437 -0.0295
  889MOL0     H19948   8.794   2.146   9.551  2.2489 -2.9720  0.6190
  889MOL0     H19949   8.872   2.342   9.692 -4.2822 -1.9970 -1.4730
  889MOL0     H19950   9.208   2.589   9.544  1.9647  0.4185 -0.4290
  889MOL0     H19951   9.196   2.636   9.713 -2.4901 -0.5960 -0.4899
  889MOL0     H19952   9.326   2.373   9.606  0.4820 -0.3411  0.8880
  889MOL0     H19953   9.297   2.415   9.774 -2.7510  2.9783  0.7195
  889MOL0     H19954   9.524   2.466   9.721  0.7160  0.4536  0.2592
  889MOL0     H19955   9.438   2.614   9.754 -1.4019 -0.0161 -0.2260
  889MOL0     H19956   9.472   2.506   9.473 -0.9446  2.0977 -1.3709
  889MOL0     H19957   9.435   2.673   9.504 -0.7480  0.1292 -0.0794
  889MOL0     H19958   9.705   2.525   9.563  1.3166  1.2894  0.2136
  889MOL0     H19959   9.681   2.645   9.440  0.3383 -0.7153 -0.6361
  889MOL0     H19960   9.642   2.812   9.628 -2.5407 -0.9472  0.1972
  889MOL0     H19961   9.685   2.692   9.749  1.8495  0.8965  0.6033
  889MOL0     H19962   9.875   2.853   9.687 -1.6562  0.9302 -1.0739
  889MOL0     H19963   9.866   2.796   9.525 -0.4477 -0.7180 -0.0376
  889MOL0     H19964   9.956   2.628   9.770 -3.4522 -0.4397  0.8104
  889MOL0     H19965   9.901   2.552   9.625 -1.1619  0.5538 -2.9411
  889MOL0     H19966  10.027   2.664   9.380 -2.0053 -1.0382  0.7425
  889MOL0     H19967  10.346   2.639   9.279 -2.7965 -1.4269 -0.1979
  889MOL0     H19968  10.276   2.791   9.257 -0.5772 -2.2258 -0.0507
  889MOL0     H19969  10.437   2.889   9.424 -1.4176  0.0023 -2.5760
  889MOL0     H19970  10.519   2.724   9.443  0.1443 -0.6781 -0.0408
  889MOL0     H19971  10.517   2.904   9.197  1.2728  0.7259  1.5866
  889MOL0     H19972  10.544   2.730   9.187 -1.6195 -1.3867  1.3696
  889MOL0     H19973  10.753   2.831   9.209 -0.2588 -0.3303 -0.8647
  889MOL0     H19974  10.711   2.768   9.375 -1.6995 -0.0225  0.0251
  889MOL0     H19975  10.769   3.213   9.405  1.2386  2.2379 -0.3334
  889MOL0     H19976  10.973   3.293   9.514  0.3555  0.7350  0.3391
  889MOL0     H19977  11.414   3.321   9.710 -0.2944 -1.3021  0.8793
  889MOL0     H19978  11.633   3.415   9.715  0.7142  1.6879 -3.4232
  889MOL0     H19979  12.052   3.257   9.699  0.0605  0.0022  0.8920
  889MOL0     H19980  11.947   3.123   9.667 -1.5176  0.4045  0.4789
  889MOL0     H19981  12.136   3.164   9.481  1.5519  2.2923  1.1826
  889MOL0     H19982  11.969   3.165   9.421 -0.8687  2.6154 -1.6642
  889MOL0     H19983  11.970   3.420   9.434  0.3677  1.4750 -0.0946
  889MOL0     H19984  12.141   3.397   9.471 -1.0518 -0.1976  0.3186
  889MOL0     H19985  12.017   3.299   9.215  0.5877  1.6733 -2.5183
  889MOL0     H19986  12.195   3.306   9.243 -0.9824 -2.0295 -2.5164
  889MOL0     H19987  12.010   3.544   9.239 -0.1353 -0.1104  1.4372
  889MOL0     H19988  12.111   3.479   9.102  2.3005 -0.6301  0.1146
  889MOL0     H19989  12.227   3.569   9.378  2.1975  0.3211  0.1074
  889MOL0     H19990  12.318   3.514   9.240 -0.1205 -0.1269 -0.0700
  889MOL0     H19991  12.138   3.761   9.232  0.8363  1.0041 -0.4177
  889MOL0     H19992  12.211   3.688   9.105  2.1137 -0.6057  0.6408
  889MOL0     H19993  12.358   3.817   9.337 -1.3960  0.8905 -0.1359
  889MOL0     H19994  12.446   3.703   9.229 -0.1105 -0.0952 -2.3852
  889MOL0     H19995  11.780   3.095   9.462 -1.7025 -0.0008 -3.3528
  889MOL0     H19996  11.564   3.012   9.445 -1.0779 -1.3219  1.5851
  889MOL0     H19997  11.156   2.914   9.436  0.7002  0.0986 -0.2471
  889MOL0     H19998  10.939   2.834   9.357 -0.6457  1.2747 -1.3737
  889MOL0     H19999   9.171   2.420   9.400  0.1372 -0.3454  2.8255
  889MOL0     H20000   9.021   2.278   9.231 -0.9328  3.0065 -0.6119
  889MOL0     H20001   8.813   1.927   9.185  0.3081 -2.2152  1.5479
  889MOL0     H20002   8.729   1.751   9.048 -0.3953 -1.3540  0.9759
  889MOL0     H20003   8.598   1.584   8.968  3.8209  2.0207 -1.2198
  889MOL0     H20004   8.615   1.668   8.810 -0.1735 -0.9451 -0.5574
  889MOL0     H20005   8.399   1.506   8.912  1.6798  1.5288  1.1575
  889MOL0     H20006   8.501   1.450   8.787  3.9638  1.2943  2.0864
  889MOL0     H20007   8.427   1.640   8.622 -1.1550 -0.1282 -0.1300
  889MOL0     H20008   8.313   1.691   8.738  1.5380  1.7306 -1.0214
  889MOL0     H20009   8.233   1.546   8.543 -0.0529  0.8113  0.1231
  889MOL0     H20010   8.308   1.406   8.620  0.8201  0.2599 -1.6603
  889MOL0     H20011   7.971   1.453   8.862  1.1561 -1.7733  1.1193
  889MOL0     H20012   8.348   1.945   9.025 -0.5668  2.9198  2.9885
  889MOL0     H20013   8.401   2.198   9.262 -2.9775 -2.6708  1.4490
  889MOL0     H20014   8.412   2.238   9.083 -0.7521  1.0467  0.4315
  889MOL0     H20015   8.296   2.124   9.126 -1.1082  2.9408 -0.4097
  890MOL0     O20016   9.526  10.679   2.746  0.0033 -0.0173 -0.4773
  890MOL0     C20017   9.443  10.598   2.748 -0.1036  0.4627 -0.0441
  890MOL0     O20018   9.468  10.461   2.773 -0.0398 -0.0246 -0.0059
  890MOL0     C20019   9.585  10.440   2.839  0.5124  0.2630 -0.3150
  890MOL0     C20020   9.678  10.359   2.778 -0.3393 -0.3619  0.1413
  890MOL0     C20021   9.798  10.326   2.845 -0.0798  0.0439 -0.6802
  890MOL0     C20022   9.814  10.361   2.981  1.2381  0.2431  0.7464
  890MOL0     O20023   9.925  10.303   3.039 -0.0708 -0.0706 -0.2084
  890MOL0     C20024   9.932  10.282   3.179  0.3789  0.3800 -0.1827
  890MOL0     C20025  10.076  10.247   3.207  0.6834 -0.0681 -0.7433
  890MOL0     C20026  10.184  10.346   3.166  0.0794 -0.9338 -0.8643
  890MOL0     C20027  10.314  10.310   3.241  0.4129  0.6398 -0.0414
  890MOL0     C20028  10.429  10.382   3.177  0.1201  0.0405  0.1363
  890MOL0     C20029  10.559  10.334   3.253 -0.4837 -0.1316 -0.0408
  890MOL0     C20030  10.678  10.417   3.221  0.0152 -0.9249  0.8570
  890MOL0     C20031  10.731  10.397   3.083  0.9310  0.5855 -0.2402
  890MOL0     N20032  10.868  10.439   3.079  0.2334 -0.3194 -0.0038
  890MOL0     C20033  10.974  10.378   3.140 -0.4038  0.2655  0.2203
  890MOL0     C20034  11.079  10.459   3.121 -0.4010  0.0277 -1.3212
  890MOL0     C20035  11.216  10.449   3.177 -0.7149  0.7002 -0.3701
  890MOL0     C20036  11.314  10.387   3.071 -0.9048 -0.6334 -0.0897
  890MOL0     C20037  11.466  10.415   3.096 -0.2079 -0.7663  0.3351
  890MOL0     C20038  11.516  10.423   3.242  0.5383  0.0944 -0.7356
  890MOL0     O20039  11.511  10.290   3.302 -0.0398 -0.1800 -0.0794
  890MOL0     C20040  11.632  10.227   3.327  1.4120  0.0038 -0.4443
  890MOL0     C20041  11.750  10.277   3.267 -1.2921  0.2329  0.6995
  890MOL0     C20042  11.873  10.227   3.310  0.2411 -0.7506  0.1344
  890MOL0     C20043  11.884  10.131   3.401  0.4460  0.0428 -0.5598
  890MOL0     C20044  12.011  10.073   3.450 -0.0115 -0.3156 -0.1281
  890MOL0     O20045  12.109  10.166   3.446 -1.2014  0.6793  0.5487
  890MOL0     C20046  12.232  10.126   3.500  0.6270  0.5123 -0.0650
  890MOL0     C20047  12.314  10.232   3.541 -0.1001 -0.5862 -0.7245
  890MOL0     C20048  12.449  10.206   3.575 -0.3624 -0.5784 -1.1570
  890MOL0     C20049  12.507  10.084   3.585  0.0850 -0.3304  0.2848
  890MOL0     O20050  12.635  10.039   3.621  0.4445  0.5736  0.4910
  890MOL0     C20051  12.701  10.135   3.700  0.0843  0.4900 -0.1707
  890MOL0     C20052  12.853  10.095   3.701  0.1904 -0.7827  0.4245
  890MOL0     C20053  12.927  10.207   3.777  0.2076 -0.0161  0.4281
  890MOL0     C20054  13.081  10.193   3.751 -0.1587  0.2528  0.5071
  890MOL0     C20055  13.148  10.320   3.789  0.1204  0.0203  0.2741
  890MOL0     C20056  13.293  10.321   3.758 -0.0275 -0.5535  1.0634
  890MOL0     C20057  13.354  10.462   3.758  0.3518  0.5888  0.6248
  890MOL0     C20058  13.354  10.518   3.900 -0.1041  0.6240  0.0750
  890MOL0    Cl20059  13.227  10.638   3.916  0.6096  0.6446  0.1548
  890MOL0     C20060  12.427   9.975   3.532 -0.1798  0.9012 -1.3957
  890MOL0     C20061  12.295   9.993   3.495  0.5624  1.3345  1.1669
  890MOL0     O20062  12.013   9.963   3.502 -0.1908 -0.0687 -0.3181
  890MOL0     C20063  11.767  10.073   3.446 -0.1755  0.1025  0.1123
  890MOL0     C20064  11.641  10.125   3.407  0.5647  0.2964 -0.5315
  890MOL0     N20065  11.039  10.558   3.044 -0.2415  0.9447 -0.2362
  890MOL0     N20066  10.920  10.549   3.015  0.2229  0.5937 -0.6342
  890MOL0     C20067   9.709  10.432   3.049  0.6161 -0.3212  0.6275
  890MOL0     C20068   9.597  10.481   2.978 -0.4303  0.3781  0.5717
  890MOL0     C20069   9.308  10.628   2.689 -0.3169 -0.1895  0.6006
  890MOL0     C20070   9.225  10.519   2.648 -0.4794 -0.2333  0.1836
  890MOL0     C20071   9.101  10.538   2.598 -0.2621  0.1671  0.7333
  890MOL0     C20072   9.035  10.657   2.587 -0.6609 -0.5509 -0.3478
  890MOL0     O20073   8.909  10.688   2.537  0.0596  0.5620  0.2802
  890MOL0     C20074   8.847  10.584   2.468  0.0287 -0.7592 -0.2382
  890MOL0     C20075   8.916  10.551   2.333  0.1115 -0.3934 -0.7951
  890MOL0     C20076   8.864  10.417   2.271  0.3528 -0.2807  0.5744
  890MOL0     C20077   8.955  10.370   2.160 -0.0286 -0.2010 -0.1569
  890MOL0     C20078   8.984  10.465   2.056 -0.5093 -0.4290 -0.2620
  890MOL0     C20079   8.993  10.529   1.954 -0.7523 -0.1156 -0.1740
  890MOL0     C20080   9.122  10.763   2.608 -0.9064 -0.5918 -0.7019
  890MOL0     C20081   9.258  10.756   2.650 -0.4316 -0.5035  1.0052
  890MOL0     C20082   9.343  10.874   2.630  0.0804  0.0030 -0.5884
  890MOL0     H20083   9.661  10.312   2.681  5.8269 -0.6919 -1.1698
  890MOL0     H20084   9.884  10.270   2.809 -0.2113  0.5259 -1.7563
  890MOL0     H20085   9.900  10.374   3.230 -0.4364  0.0118 -0.0154
  890MOL0     H20086   9.866  10.198   3.204 -1.8509  2.8432  3.0751
  890MOL0     H20087  10.091  10.152   3.155  2.8204  0.4649 -1.2211
  890MOL0     H20088  10.092  10.235   3.314  1.3914 -0.6239 -0.9069
  890MOL0     H20089  10.157  10.443   3.208  1.9990 -0.9919  0.6106
  890MOL0     H20090  10.203  10.351   3.058  1.2197 -0.2158 -0.6441
  890MOL0     H20091  10.299  10.334   3.347 -0.7539 -0.6057  0.1063
  890MOL0     H20092  10.322  10.201   3.233 -1.0904  0.3574  1.5246
  890MOL0     H20093  10.445  10.359   3.071 -1.8655  0.5944 -0.3169
  890MOL0     H20094  10.413  10.490   3.179  0.1189  0.0443 -0.0234
  890MOL0     H20095  10.547  10.328   3.361  3.6862 -2.6152  0.5135
  890MOL0     H20096  10.587  10.230   3.233  2.0406 -0.1560  2.8663
  890MOL0     H20097  10.755  10.403   3.298 -0.6575  3.8781  2.7831
  890MOL0     H20098  10.660  10.525   3.222  1.4831 -0.5271 -2.7857
  890MOL0     H20099  10.726  10.290   3.062  0.0302  0.5622  0.0479
  890MOL0     H20100  10.670  10.449   3.008 -0.2517 -0.0307  0.2590
  890MOL0     H20101  10.987  10.280   3.184 -0.2329 -0.1249 -0.6780
  890MOL0     H20102  11.248  10.546   3.217  2.2276 -0.6585  0.8198
  890MOL0     H20103  11.220  10.385   3.265  1.4206  2.3754  0.8672
  890MOL0     H20104  11.307  10.278   3.083 -0.9573 -0.4663  1.6824
  890MOL0     H20105  11.288  10.406   2.967  0.0050 -0.3101 -0.2691
  890MOL0     H20106  11.487  10.517   3.062 -0.3080 -0.5792  0.8347
  890MOL0     H20107  11.522  10.342   3.036 -2.0293 -1.6256 -0.4145
  890MOL0     H20108  11.445  10.480   3.302 -0.0564  0.8640 -2.1149
  890MOL0     H20109  11.608  10.481   3.253  0.5815 -0.0221 -0.4818
  890MOL0     H20110  11.760  10.355   3.192  1.6444  1.0508  1.8178
  890MOL0     H20111  11.959  10.281   3.271  0.7014  0.2755  2.3898
  890MOL0     H20112  12.299  10.339   3.541 -0.0007 -0.5667 -0.0220
  890MOL0     H20113  12.513  10.292   3.591 -0.0745 -0.5712 -2.2984
  890MOL0     H20114  12.697  10.236   3.659 -0.1835  1.3340  1.7847
  890MOL0     H20115  12.651  10.131   3.798  3.4037  0.6795  1.6882
  890MOL0     H20116  12.859  10.006   3.764 -0.1596  0.4373  2.2739
  890MOL0     H20117  12.899  10.088   3.602  0.7608 -0.7300  0.6803
  890MOL0     H20118  12.894  10.309   3.756  1.1820  0.3914  0.8345
  890MOL0     H20119  12.901  10.192   3.882  1.3004  3.0860  1.2352
  890MOL0     H20120  13.094  10.173   3.644 -0.6716 -0.0727  0.4997
  890MOL0     H20121  13.135  10.119   3.811 -2.6718 -1.0866  1.2988
  890MOL0     H20122  13.127  10.339   3.895 -0.5448 -0.8135  0.2985
  890MOL0     H20123  13.108  10.408   3.738  1.5078  1.7552  2.0151
  890MOL0     H20124  13.341  10.242   3.817 -0.9497 -2.0932 -0.1503
  890MOL0     H20125  13.301  10.290   3.653  2.7485 -0.3902  1.1453
  890MOL0     H20126  13.310  10.523   3.679  0.3110 -0.1127  0.0911
  890MOL0     H20127  13.458  10.463   3.724  0.5895  1.3607  1.3415
  890MOL0     H20128  13.334  10.438   3.972 -2.9872  0.1337 -1.1601
  890MOL0     H20129  13.455  10.553   3.926  0.3185 -1.0044  0.7517
  890MOL0     H20130  12.472   9.877   3.524 -1.3600  0.1705  0.2012
  890MOL0     H20131  12.231   9.910   3.468  0.1286  1.9890  0.0976
  890MOL0     H20132  11.779  10.002   3.528  0.6224  0.5338  0.3792
  890MOL0     H20133  11.543  10.093   3.444  0.6217  1.9634  1.2503
  890MOL0     H20134   9.716  10.453   3.155 -0.6911  2.2322  0.2757
  890MOL0     H20135   9.521  10.541   3.027 -3.8347 -0.2238 -3.3959
  890MOL0     H20136   9.258  10.419   2.672  0.4863 -0.0834 -0.4821
  890MOL0     H20137   9.045  10.451   2.566 -2.7420  1.6764  0.6866
  890MOL0     H20138   8.745  10.612   2.443  0.4289  0.0396 -1.0343
  890MOL0     H20139   8.825  10.503   2.538 -1.6900 -0.5591 -0.5000
  890MOL0     H20140   9.023  10.546   2.355 -0.8893 -2.1947  5.7756
  890MOL0     H20141   8.890  10.632   2.265 -2.0318 -0.1527  0.2196
  890MOL0     H20142   8.769  10.425   2.217  1.9144 -1.0602 -2.5313
  890MOL0     H20143   8.864  10.339   2.348  2.5627 -0.4284  0.4752
  890MOL0     H20144   9.046  10.319   2.193 -0.7694 -3.0409 -2.0978
  890MOL0     H20145   8.909  10.285   2.110  2.0799 -0.6445 -1.5077
  890MOL0     H20146   8.989  10.601   1.875  0.3299  3.3906  2.6932
  890MOL0     H20147   9.068  10.855   2.589 -0.5574 -0.5311 -1.4534
  890MOL0     H20148   9.382  10.909   2.726 -0.6422 -1.3305  0.2226
  890MOL0     H20149   9.412  10.836   2.554 -1.6270 -0.9901 -1.7137
  890MOL0     H20150   9.282  10.954   2.586  0.7540  0.9234  0.1081
  891MOL0     O20151   1.228   1.562   1.232 -0.2470 -0.4845  0.4872
  891MOL0     C20152   1.203   1.680   1.234  1.0529 -0.5609 -0.2994
  891MOL0     O20153   1.269   1.788   1.190  0.1690 -0.2412  0.1013
  891MOL0     C20154   1.367   1.775   1.091 -1.1006  0.2018 -0.6430
  891MOL0     C20155   1.333   1.821   0.964 -0.0723  0.1780 -0.5583
  891MOL0     C20156   1.426   1.804   0.861 -0.1446 -0.7382 -0.6432
  891MOL0     C20157   1.553   1.751   0.880 -0.2334  0.0628 -0.2022
  891MOL0     O20158   1.628   1.737   0.771 -0.5246  0.2428 -0.0944
  891MOL0     C20159   1.763   1.719   0.797  0.1179 -0.0151 -0.4531
  891MOL0     C20160   1.803   1.570   0.806  0.4017  0.2290  0.5750
  891MOL0     C20161   1.928   1.539   0.886 -0.4355  0.1617 -0.1011
  891MOL0     C20162   1.918   1.397   0.953 -0.5291 -0.0057 -0.4483
  891MOL0     C20163   2.051   1.356   1.017  0.4358 -0.3618 -0.1779
  891MOL0     C20164   2.059   1.215   1.090 -0.8709 -0.3398  0.1798
  891MOL0     C20165   2.039   1.105   0.995 -0.1128  0.2818  0.7358
  891MOL0     C20166   2.033   0.974   1.076 -0.0969 -0.6600  0.5751
  891MOL0     N20167   2.165   0.922   1.104  0.2880 -0.0335 -0.1870
  891MOL0     C20168   2.220   0.832   1.012  0.4052 -0.5386  0.2224
  891MOL0     C20169   2.334   0.784   1.073  0.3815 -0.8394  0.3391
  891MOL0     C20170   2.418   0.677   1.015  0.5008 -0.2884 -1.3017
  891MOL0     C20171   2.499   0.736   0.898 -0.0651  0.0528  0.5394
  891MOL0     C20172   2.610   0.832   0.932 -0.8130 -0.5357 -0.4393
  891MOL0     C20173   2.703   0.773   1.032 -0.1693 -0.3195  0.2843
  891MOL0     O20174   2.757   0.649   0.989 -0.4997 -0.1477 -0.7171
  891MOL0     C20175   2.859   0.582   1.047 -0.7266  0.9177  0.3067
  891MOL0     C20176   2.894   0.455   1.002  0.5005  0.2975  0.0164
  891MOL0     C20177   2.992   0.382   1.054 -0.0801 -0.4863  0.3622
  891MOL0     C20178   3.087   0.442   1.149  0.7465  0.1221  0.6607
  891MOL0     C20179   3.202   0.370   1.217  0.4271  0.4484  1.4460
  891MOL0     O20180   3.218   0.240   1.192  0.4190 -0.0580 -0.6656
  891MOL0     C20181   3.321   0.184   1.248  0.7018  0.6136 -0.2366
  891MOL0     C20182   3.336   0.166   1.387 -0.3259 -0.6131  0.2187
  891MOL0     C20183   3.448   0.097   1.429  0.1983 -0.6375  0.5504
  891MOL0     C20184   3.546   0.041   1.343  0.3655 -0.1334  0.8727
  891MOL0     O20185   3.656  -0.027   1.386  1.0693  0.1397 -0.1862
  891MOL0     C20186   3.630  -0.110   1.508 -0.2959 -0.7178  0.0311
  891MOL0     C20187   3.760  -0.156   1.562  0.1863  0.0993  0.5331
  891MOL0     C20188   3.863  -0.040   1.582  0.0501 -0.2732  0.4312
  891MOL0     C20189   3.983  -0.101   1.650  0.3615 -0.7376 -0.0887
  891MOL0     C20190   4.101  -0.001   1.658  0.7482  0.1434 -0.4010
  891MOL0     C20191   4.213  -0.063   1.739  0.8653  0.4487  0.9041
  891MOL0     C20192   4.325   0.031   1.757 -0.8280  0.4846  0.2120
  891MOL0     C20193   4.447  -0.009   1.833  0.2531  0.1196 -0.4477
  891MOL0    Cl20194   4.547  -0.143   1.754  0.2864 -0.0122 -0.2012
  891MOL0     C20195   3.526   0.058   1.208  0.8167  0.2655  0.1158
  891MOL0     C20196   3.415   0.135   1.159 -0.1546  0.1368 -1.0887
  891MOL0     O20197   3.273   0.443   1.290  0.2120 -0.2946  0.1823
  891MOL0     C20198   3.060   0.577   1.180  0.8230  0.8352 -0.1012
  891MOL0     C20199   2.948   0.645   1.136 -0.2819 -0.1649  0.7646
  891MOL0     N20200   2.339   0.845   1.193  0.1140  0.0725 -0.7056
  891MOL0     N20201   2.249   0.935   1.212 -0.1624  0.1842  0.1124
  891MOL0     C20202   1.582   1.708   1.013  0.1201 -0.0916 -0.0348
  891MOL0     C20203   1.492   1.718   1.120  0.3319 -0.8754  0.1530
  891MOL0     C20204   1.073   1.720   1.297 -0.5812  0.3199 -0.5010
  891MOL0     C20205   1.045   1.855   1.335 -0.2123  1.0711  1.0369
  891MOL0     C20206   0.930   1.888   1.404 -0.1379 -0.4997 -0.3505
  891MOL0     C20207   0.835   1.791   1.445  0.3045  0.3230 -0.3191
  891MOL0     O20208   0.718   1.820   1.506 -0.1306  0.0162 -0.0559
  891MOL0     C20209   0.710   1.954   1.570 -0.3552  0.6982  0.4086
  891MOL0     C20210   0.579   1.959   1.652 -0.5591  0.4517  0.5918
  891MOL0     C20211   0.450   1.928   1.583 -0.0529  0.5605 -0.2227
  891MOL0     C20212   0.326   1.920   1.668  0.4979  0.0180  0.1304
  891MOL0     C20213   0.196   1.892   1.599 -0.4409  0.1395 -0.1280
  891MOL0     C20214   0.089   1.842   1.581  0.0419 -0.3161  0.1217
  891MOL0     C20215   0.855   1.666   1.403  0.7367 -0.1274 -0.0093
  891MOL0     C20216   0.967   1.631   1.335  0.0239 -0.1618 -0.6430
  891MOL0     C20217   0.964   1.481   1.290 -0.2141 -0.4240 -0.5114
  891MOL0     H20218   1.234   1.865   0.958  0.0778  1.0192  2.0723
  891MOL0     H20219   1.404   1.847   0.764 -1.7791  2.6367  1.0422
  891MOL0     H20220   1.806   1.764   0.707  1.1269  1.6593  0.8161
  891MOL0     H20221   1.793   1.786   0.878 -1.0284  1.0535 -0.8626
  891MOL0     H20222   1.811   1.538   0.702  2.5406  1.8276  0.1805
  891MOL0     H20223   1.715   1.520   0.849  0.7386  0.3386  1.4088
  891MOL0     H20224   1.937   1.619   0.960 -0.9950  1.5959 -1.5302
  891MOL0     H20225   2.013   1.543   0.817 -0.1627  0.3812  0.2444
  891MOL0     H20226   1.835   1.393   1.024 -1.4191 -1.0271 -1.5243
  891MOL0     H20227   1.908   1.331   0.867 -1.4822  1.2686 -1.3450
  891MOL0     H20228   2.130   1.370   0.942 -0.5362 -1.7870 -1.5242
  891MOL0     H20229   2.063   1.424   1.102  0.1235 -1.1647  0.5350
  891MOL0     H20230   2.159   1.199   1.131 -1.5418 -0.0734  2.0619
  891MOL0     H20231   1.980   1.213   1.167 -4.5648  0.2070 -3.2801
  891MOL0     H20232   2.120   1.088   0.924  0.0093  1.7545  0.4852
  891MOL0     H20233   1.946   1.125   0.942  0.5182 -2.1964 -1.4966
  891MOL0     H20234   1.983   0.988   1.172  2.6672  2.4318  1.7687
  891MOL0     H20235   1.977   0.897   1.024 -1.1576 -0.2577  1.0861
  891MOL0     H20236   2.176   0.802   0.918 -0.7741  2.3025 -0.2305
  891MOL0     H20237   2.485   0.633   1.090  2.7746  0.2471 -2.9236
  891MOL0     H20238   2.350   0.602   0.974  0.0843  0.5414 -2.1698
  891MOL0     H20239   2.543   0.652   0.845  0.5425  1.0225 -0.5277
  891MOL0     H20240   2.440   0.780   0.817  1.3886 -5.0132 -3.7763
  891MOL0     H20241   2.577   0.932   0.962  1.0336 -0.0207  0.0237
  891MOL0     H20242   2.670   0.827   0.841 -1.9285 -1.9927 -1.1278
  891MOL0     H20243   2.657   0.759   1.130 -2.0009 -2.6612 -0.8066
  891MOL0     H20244   2.782   0.846   1.051 -2.2685  1.8021  1.4717
  891MOL0     H20245   2.839   0.402   0.924  2.7082 -1.0377 -0.7013
  891MOL0     H20246   3.009   0.278   1.029 -2.6871 -0.6518 -1.1301
  891MOL0     H20247   3.262   0.215   1.448 -3.0864 -1.2070 -2.4167
  891MOL0     H20248   3.463   0.108   1.536 -1.6623  0.8087  0.7179
  891MOL0     H20249   3.593  -0.050   1.592  2.7465  0.0569  0.9678
  891MOL0     H20250   3.560  -0.193   1.497 -0.8746 -0.2888  0.4047
  891MOL0     H20251   3.742  -0.214   1.653 -0.5857  0.0802  0.3706
  891MOL0     H20252   3.790  -0.222   1.480 -1.3738  0.6845 -0.5438
  891MOL0     H20253   3.893   0.004   1.486  0.7121  1.1730  1.2654
  891MOL0     H20254   3.819   0.038   1.643  0.1678 -1.7331  2.4948
  891MOL0     H20255   4.002  -0.187   1.586 -1.6250  0.5721 -2.6015
  891MOL0     H20256   3.947  -0.128   1.750 -0.2454  2.8729  0.8036
  891MOL0     H20257   4.061   0.089   1.707 -1.3225 -0.5114 -0.7855
  891MOL0     H20258   4.131   0.027   1.556 -0.8826 -1.1652 -1.2964
  891MOL0     H20259   4.185  -0.099   1.838 -0.7448  1.8777  1.0208
  891MOL0     H20260   4.249  -0.151   1.685  0.2861 -0.6777  2.3058
  891MOL0     H20261   4.286   0.113   1.818 -0.5339  0.4542  0.4428
  891MOL0     H20262   4.360   0.067   1.659  1.9880  0.6486  1.1836
  891MOL0     H20263   4.514   0.076   1.843  0.3455 -0.0851  0.8258
  891MOL0     H20264   4.411  -0.040   1.932 -0.0571 -1.5129 -1.0281
  891MOL0     H20265   3.590   0.010   1.135 -0.7767 -3.6482  0.9952
  891MOL0     H20266   3.405   0.150   1.052  0.0558 -1.0694 -1.2949
  891MOL0     H20267   3.116   0.631   1.255  1.9680 -0.8384  0.3158
  891MOL0     H20268   2.929   0.744   1.175  0.8964 -0.0774  1.1636
  891MOL0     H20269   1.683   1.667   1.018  0.4952  0.7589 -0.4188
  891MOL0     H20270   1.527   1.685   1.217 -0.0294  2.6537  1.6256
  891MOL0     H20271   1.118   1.936   1.331  0.8003  0.4131  3.7739
  891MOL0     H20272   0.919   1.991   1.437 -2.0880 -1.2956  1.7764
  891MOL0     H20273   0.715   2.023   1.486 -1.3524 -3.2480 -3.2151
  891MOL0     H20274   0.793   1.960   1.641  0.7728 -0.9628 -0.6987
  891MOL0     H20275   0.581   2.059   1.697 -0.4609  1.6463 -1.8932
  891MOL0     H20276   0.598   1.885   1.731  1.1993  1.7431  1.4497
  891MOL0     H20277   0.459   1.834   1.528 -0.0739  1.9001 -2.6549
  891MOL0     H20278   0.435   2.003   1.506 -1.5003  1.4859  0.9126
  891MOL0     H20279   0.339   1.843   1.744 -0.9166 -0.8909 -0.5121
  891MOL0     H20280   0.307   2.010   1.729  1.2855 -0.2082  0.7191
  891MOL0     H20281  -0.007   1.812   1.545 -1.2589  2.4241  0.9751
  891MOL0     H20282   0.775   1.596   1.426 -0.9292  1.4724 -0.6817
  891MOL0     H20283   0.985   1.477   1.183  1.9209  2.2703 -0.3174
  891MOL0     H20284   1.048   1.426   1.333  1.4257  2.2922  0.0520
  891MOL0     H20285   0.869   1.437   1.322 -0.9647  2.4929  1.7407
  892MOL0     O20286  11.065   0.567   9.039 -0.4532 -0.7908  0.6322
  892MOL0     C20287  11.010   0.509   9.135  0.4088 -0.1629 -0.7407
  892MOL0     O20288  11.063   0.420   9.212 -0.1619 -0.1603  0.1180
  892MOL0     C20289  11.188   0.381   9.181 -0.5580  0.0586  0.3530
  892MOL0     C20290  11.215   0.323   9.057  0.1550 -1.2651 -0.0667
  892MOL0     C20291  11.349   0.291   9.020  0.3706  0.1889 -0.5918
  892MOL0     C20292  11.455   0.306   9.112  0.2504  0.7856 -0.0796
  892MOL0     O20293  11.582   0.270   9.085 -0.6110 -0.1489  0.7524
  892MOL0     C20294  11.633   0.319   8.952  0.6516 -0.6216 -0.2564
  892MOL0     C20295  11.785   0.345   8.959 -0.1511 -0.1773 -0.2042
  892MOL0     C20296  11.859   0.224   9.014 -0.6632 -0.3944 -0.3686
  892MOL0     C20297  12.007   0.241   9.030  0.3316 -0.7841  0.4595
  892MOL0     C20298  12.092   0.232   8.905  0.3276 -0.3382  0.0091
  892MOL0     C20299  12.234   0.270   8.936 -0.6071  0.1915 -0.0393
  892MOL0     C20300  12.329   0.253   8.813 -0.3462  0.1328  0.8513
  892MOL0     C20301  12.358   0.110   8.758  0.0230  0.0810 -0.5284
  892MOL0     N20302  12.460   0.037   8.839 -0.0869 -0.5924 -0.2227
  892MOL0     C20303  12.586   0.079   8.850  0.4181  0.3015  0.2284
  892MOL0     C20304  12.650  -0.005   8.927 -0.4796  1.1922 -0.3185
  892MOL0     C20305  12.798  -0.011   8.974  1.0085 -0.6752  0.0248
  892MOL0     C20306  12.900  -0.019   8.859  0.0937 -0.0401  0.3462
  892MOL0     C20307  12.984  -0.144   8.860  0.3186  0.1641  0.6155
  892MOL0     C20308  13.070  -0.167   8.731  0.9085  0.7108  0.0945
  892MOL0     O20309  13.129  -0.298   8.736 -0.0475 -0.1316  0.4935
  892MOL0     C20310  13.247  -0.319   8.666  1.2772  0.7119 -0.3307
  892MOL0     C20311  13.342  -0.404   8.724  0.1214  0.1423  0.7548
  892MOL0     C20312  13.465  -0.428   8.665 -0.0371  0.5525 -0.4073
  892MOL0     C20313  13.501  -0.363   8.545 -0.5129  0.0032  1.2157
  892MOL0     C20314  13.636  -0.383   8.485  0.7134 -0.8467  0.2622
  892MOL0     O20315  13.733  -0.446   8.557 -0.1105 -0.0352  0.3486
  892MOL0     C20316  13.859  -0.439   8.507  0.5352 -0.1773  1.3410
  892MOL0     C20317  13.941  -0.333   8.542 -0.0978  0.7701 -0.4836
  892MOL0     C20318  14.080  -0.330   8.504 -0.3536 -0.5881 -0.7813
  892MOL0     C20319  14.135  -0.444   8.445 -0.2177 -0.5298  1.1125
  892MOL0     O20320  14.266  -0.442   8.411  0.1167  0.4469 -0.1075
  892MOL0     C20321  14.332  -0.557   8.358  0.4027  0.5940 -0.1282
  892MOL0     C20322  14.469  -0.534   8.292 -0.2646  0.7584  0.0448
  892MOL0     C20323  14.553  -0.658   8.276  0.5865 -2.0793  1.0167
  892MOL0     C20324  14.674  -0.625   8.185  0.1938 -0.5587 -0.6500
  892MOL0     C20325  14.741  -0.745   8.125 -0.4661 -0.6750 -0.3913
  892MOL0     C20326  14.889  -0.735   8.077  0.3064 -0.1535  0.8198
  892MOL0     C20327  14.996  -0.701   8.191  0.8846  0.3354  0.5562
  892MOL0     C20328  15.133  -0.679   8.137 -0.0228  0.1122  0.5060
  892MOL0    Cl20329  15.132  -0.565   7.998  0.1037 -0.1094 -0.1197
  892MOL0     C20330  14.049  -0.550   8.409 -0.0112  0.4279 -0.7496
  892MOL0     C20331  13.910  -0.547   8.437 -0.4609  0.0309 -0.3473
  892MOL0     O20332  13.649  -0.332   8.372  0.1674 -0.3802  0.0821
  892MOL0     C20333  13.399  -0.281   8.478  0.4250  1.2895  0.0251
  892MOL0     C20334  13.270  -0.269   8.534  0.1017  0.3316 -0.2758
  892MOL0     N20335  12.556  -0.100   8.975  0.4044  0.1987  0.0690
  892MOL0     N20336  12.443  -0.072   8.915  0.4140  0.2340  0.6563
  892MOL0     C20337  11.424   0.360   9.238  0.6583 -0.1471  0.3309
  892MOL0     C20338  11.299   0.403   9.270 -0.0434  0.3170 -0.8181
  892MOL0     C20339  10.878   0.552   9.168 -0.7358  0.3287 -0.8159
  892MOL0     C20340  10.850   0.623   9.290  0.7902  0.2499 -0.5193
  892MOL0     C20341  10.721   0.647   9.344  0.1823  0.2703 -0.2058
  892MOL0     C20342  10.608   0.591   9.270 -1.7314  0.3890  0.0934
  892MOL0     O20343  10.480   0.592   9.326 -0.2582  1.0061 -0.5276
  892MOL0     C20344  10.417   0.463   9.329 -0.0517 -0.6310 -0.1316
  892MOL0     C20345  10.263   0.494   9.360  0.0214  0.2237  0.3394
  892MOL0     C20346  10.186   0.559   9.242  0.2315 -0.6969  0.5720
  892MOL0     C20347  10.044   0.595   9.297  1.2868 -0.0324  0.5707
  892MOL0     C20348   9.972   0.656   9.181  0.2539 -0.6727  0.3752
  892MOL0     C20349   9.933   0.730   9.092 -0.5390 -0.1234  0.1703
  892MOL0     C20350  10.640   0.529   9.142  0.0259  0.0777 -0.1928
  892MOL0     C20351  10.771   0.512   9.090  0.3009  0.3429  0.3182
  892MOL0     C20352  10.792   0.443   8.959 -0.4216 -0.7199 -0.6291
  892MOL0     H20353  11.125   0.308   9.000  0.4401 -3.1358 -0.0856
  892MOL0     H20354  11.370   0.238   8.928  0.8566 -2.2869  0.8406
  892MOL0     H20355  11.612   0.236   8.884  2.4811 -1.3228 -0.0238
  892MOL0     H20356  11.578   0.404   8.909 -1.6064 -1.6306  0.4586
  892MOL0     H20357  11.811   0.432   9.019  1.4087  0.9781 -2.3954
  892MOL0     H20358  11.817   0.354   8.854 -1.6495 -2.6862 -0.9590
  892MOL0     H20359  11.835   0.129   8.966 -2.9942 -0.7414  1.3050
  892MOL0     H20360  11.822   0.226   9.117  0.2050  1.4086 -0.0538
  892MOL0     H20361  12.034   0.327   9.091  0.1588 -1.2091  1.1483
  892MOL0     H20362  12.035   0.153   9.089  2.6306 -0.4008  0.0380
  892MOL0     H20363  12.080   0.131   8.865  0.2073 -0.3522  0.0810
  892MOL0     H20364  12.045   0.301   8.835 -4.8867 -2.8090  0.6171
  892MOL0     H20365  12.242   0.374   8.966 -0.2996  0.1529  0.0170
  892MOL0     H20366  12.266   0.210   9.022  1.6778  2.2885  0.6680
  892MOL0     H20367  12.424   0.291   8.851 -0.3406 -1.2460  2.3291
  892MOL0     H20368  12.287   0.322   8.740  1.0818 -0.2200 -0.3627
  892MOL0     H20369  12.266   0.051   8.758 -0.6347  1.0473  1.5361
  892MOL0     H20370  12.398   0.115   8.656 -0.8568 -1.5331 -0.9861
  892MOL0     H20371  12.620   0.173   8.807 -0.3380 -0.5783 -2.5003
  892MOL0     H20372  12.820   0.085   9.020  0.1602  0.6324 -2.1395
  892MOL0     H20373  12.814  -0.088   9.050  1.9688 -0.0523  0.4667
  892MOL0     H20374  12.852  -0.000   8.762  2.7546  1.4268 -0.7823
  892MOL0     H20375  12.964   0.068   8.871 -0.3237  0.7848 -2.5240
  892MOL0     H20376  12.914  -0.228   8.862  0.8883 -0.3806 -0.9232
  892MOL0     H20377  13.052  -0.155   8.944 -0.0106  0.5894  0.9415
  892MOL0     H20378  13.143  -0.085   8.737  1.9221 -0.1090 -0.6885
  892MOL0     H20379  13.009  -0.160   8.640  0.0189  2.8409  0.7917
  892MOL0     H20380  13.314  -0.445   8.821 -1.2976 -0.7957 -0.0174
  892MOL0     H20381  13.541  -0.485   8.717 -0.6528  2.1962  2.5154
  892MOL0     H20382  13.904  -0.249   8.600 -1.7595  1.6068 -2.6225
  892MOL0     H20383  14.141  -0.242   8.520  0.7404 -1.6638  1.4315
  892MOL0     H20384  14.340  -0.625   8.443 -0.3201  1.7644  0.9156
  892MOL0     H20385  14.279  -0.606   8.276  0.8697 -0.2301  0.0532
  892MOL0     H20386  14.459  -0.498   8.189 -0.5958 -5.4419 -2.4854
  892MOL0     H20387  14.523  -0.453   8.343 -1.1203  1.6103 -0.3755
  892MOL0     H20388  14.595  -0.678   8.375  3.3485  0.8102  0.6201
  892MOL0     H20389  14.494  -0.740   8.235 -2.0222 -0.1940  0.7156
  892MOL0     H20390  14.746  -0.566   8.242 -1.1802  1.1641 -0.5932
  892MOL0     H20391  14.639  -0.568   8.098  2.3132  3.0788  0.6404
  892MOL0     H20392  14.674  -0.780   8.046  1.4764  1.0607 -2.9710
  892MOL0     H20393  14.737  -0.813   8.211  0.5235  0.2549  0.4142
  892MOL0     H20394  14.919  -0.827   8.026  2.5531 -0.5706  2.7383
  892MOL0     H20395  14.899  -0.661   7.996  2.7034 -3.4967 -2.2487
  892MOL0     H20396  15.000  -0.785   8.261 -2.8913 -2.0800 -1.7683
  892MOL0     H20397  14.970  -0.612   8.250  1.1838  1.0274 -0.3282
  892MOL0     H20398  15.203  -0.649   8.216 -0.7139  0.9134  0.8191
  892MOL0     H20399  15.168  -0.777   8.102  0.5186  1.0937 -1.9379
  892MOL0     H20400  14.094  -0.625   8.345  2.2455  3.0138 -2.4283
  892MOL0     H20401  13.845  -0.633   8.424 -0.1851 -0.3706  0.8664
  892MOL0     H20402  13.413  -0.235   8.380 -0.7284  1.2567 -0.1698
  892MOL0     H20403  13.193  -0.221   8.476  1.4029 -2.5095 -4.8633
  892MOL0     H20404  11.504   0.365   9.312 -1.7127  1.8496  2.9830
  892MOL0     H20405  11.302   0.459   9.364 -0.5317 -1.7950  0.5185
  892MOL0     H20406  10.929   0.648   9.360 -0.8210  1.1112  1.0865
  892MOL0     H20407  10.707   0.694   9.440 -1.3113 -0.4328 -0.0524
  892MOL0     H20408  10.470   0.400   9.401  0.6098  0.6882  0.5670
  892MOL0     H20409  10.430   0.417   9.231  1.8516 -1.0917  0.2933
  892MOL0     H20410  10.269   0.560   9.447  3.8662  2.1729 -1.1951
  892MOL0     H20411  10.205   0.407   9.394  1.3121 -0.8731 -0.1752
  892MOL0     H20412  10.180   0.489   9.158  0.7356 -0.0552 -0.0058
  892MOL0     H20413  10.230   0.656   9.216 -1.9580 -0.0105 -0.7891
  892MOL0     H20414   9.999   0.499   9.324 -0.3761  0.6902  0.5198
  892MOL0     H20415  10.038   0.668   9.378 -2.1193 -0.2187  0.6302
  892MOL0     H20416   9.911   0.793   9.009  1.2431  2.5422  1.5835
  892MOL0     H20417  10.554   0.491   9.087  1.1121 -1.1325 -1.0972
  892MOL0     H20418  10.696   0.440   8.906 -1.7960  0.9777  1.5870
  892MOL0     H20419  10.857   0.509   8.901  0.7312 -2.5550 -1.4847
  892MOL0     H20420  10.833   0.345   8.982 -0.0642 -0.7931 -1.5365
  893MOL0     O20421   3.553   5.435   5.296  0.7654  0.5727  0.6974
  893MOL0     C20422   3.559   5.312   5.279 -0.1903  0.3801  0.3212
  893MOL0     O20423   3.670   5.236   5.302  0.3032 -0.0475  0.1297
  893MOL0     C20424   3.786   5.290   5.338  0.0354  0.3055  0.5738
  893MOL0     C20425   3.806   5.359   5.461  0.8080  0.3009  1.1782
  893MOL0     C20426   3.924   5.425   5.493  0.0344  0.0509  0.0768
  893MOL0     C20427   4.027   5.432   5.397 -0.4414  0.6309 -0.1431
  893MOL0     O20428   4.146   5.485   5.434  0.0318 -0.1558 -0.4088
  893MOL0     C20429   4.270   5.422   5.389  0.3553  0.3783 -0.5334
  893MOL0     C20430   4.388   5.484   5.468  0.0813  0.6426  0.4821
  893MOL0     C20431   4.522   5.422   5.422 -0.6091 -0.1049 -0.3697
  893MOL0     C20432   4.649   5.453   5.513  0.1087 -0.8153  0.4877
  893MOL0     C20433   4.763   5.360   5.471 -0.4274  0.0026  0.3055
  893MOL0     C20434   4.883   5.413   5.548  0.5619 -0.0642 -0.6154
  893MOL0     C20435   5.010   5.355   5.493 -0.6398  0.3637  0.3950
  893MOL0     C20436   5.122   5.398   5.597 -1.0753  0.6727  1.3313
  893MOL0     N20437   5.246   5.318   5.577 -0.7440  0.3660 -1.0033
  893MOL0     C20438   5.255   5.189   5.616 -0.9272  0.0105  0.1390
  893MOL0     C20439   5.343   5.133   5.533  0.4939  0.9169  0.1322
  893MOL0     C20440   5.396   4.992   5.549  0.9204 -0.4215 -0.7055
  893MOL0     C20441   5.518   4.991   5.632  0.7355  0.6335 -0.9941
  893MOL0     C20442   5.618   4.879   5.608 -1.3983  0.1334 -0.0371
  893MOL0     C20443   5.748   4.903   5.685 -0.8589  0.0170 -0.0824
  893MOL0     O20444   5.823   5.000   5.621  0.4360 -0.7606 -0.0533
  893MOL0     C20445   5.961   5.005   5.644  0.6117 -0.2837 -0.9651
  893MOL0     C20446   6.019   4.950   5.766 -0.5931  0.0954 -0.6258
  893MOL0     C20447   6.156   4.979   5.791  0.4394  0.1162  0.2626
  893MOL0     C20448   6.228   5.066   5.705 -0.0791 -0.2011 -0.6352
  893MOL0     C20449   6.368   5.107   5.730  0.0841 -0.1907  0.4322
  893MOL0     O20450   6.426   5.166   5.618  0.0523  0.5784 -0.1804
  893MOL0     C20451   6.558   5.198   5.627 -0.6458  0.4486  0.6024
  893MOL0     C20452   6.668   5.109   5.604  0.4460 -0.4701 -0.0329
  893MOL0     C20453   6.798   5.146   5.620 -0.6102  0.0634  0.0923
  893MOL0     C20454   6.828   5.274   5.662 -0.6572  1.0659 -0.3493
  893MOL0     O20455   6.961   5.293   5.664 -0.4536 -0.1821  0.2810
  893MOL0     C20456   7.007   5.420   5.718 -0.5840 -0.5457 -0.2176
  893MOL0     C20457   7.150   5.439   5.674  0.0602  0.1721  0.1937
  893MOL0     C20458   7.239   5.341   5.742 -1.4918 -0.2180  0.0757
  893MOL0     C20459   7.388   5.387   5.719  0.8075  0.2008  0.0537
  893MOL0     C20460   7.467   5.314   5.828  1.0408  0.3581 -0.2471
  893MOL0     C20461   7.608   5.368   5.838  0.2634  1.3089  0.9500
  893MOL0     C20462   7.687   5.288   5.943 -0.9914 -0.6087  0.4531
  893MOL0     C20463   7.830   5.335   5.930 -0.2497 -0.3714  0.7741
  893MOL0    Cl20464   7.909   5.284   5.776  0.2736  0.0317 -0.2556
  893MOL0     C20465   6.736   5.367   5.675  0.5599 -0.6023 -1.1171
  893MOL0     C20466   6.600   5.328   5.657 -0.0758 -0.6147  0.1448
  893MOL0     O20467   6.419   5.090   5.839  0.3820 -0.0784  0.0173
  893MOL0     C20468   6.170   5.111   5.587 -0.3456 -0.4890  0.2614
  893MOL0     C20469   6.044   5.075   5.558  0.7479  0.6421 -0.7671
  893MOL0     N20470   5.381   5.221   5.435  0.3066 -0.3273  0.2526
  893MOL0     N20471   5.320   5.335   5.462 -0.0808  0.1822  0.3665
  893MOL0     C20472   4.011   5.368   5.275 -0.0972  0.3324  0.5497
  893MOL0     C20473   3.893   5.296   5.248  0.1029 -0.0549  0.2547
  893MOL0     C20474   3.441   5.230   5.229 -0.1735  1.6121  0.4822
  893MOL0     C20475   3.456   5.097   5.197  0.1790 -0.1665 -0.2982
  893MOL0     C20476   3.361   5.014   5.145  0.4605  0.2627  0.1306
  893MOL0     C20477   3.230   5.061   5.135 -0.1313 -0.5077 -0.5579
  893MOL0     O20478   3.118   4.993   5.088 -0.2211  1.0924 -0.2332
  893MOL0     C20479   3.133   4.850   5.049 -0.5156 -0.0994  0.0949
  893MOL0     C20480   3.017   4.813   4.968 -0.3462 -0.4157  0.8931
  893MOL0     C20481   3.015   4.670   4.918 -1.0688 -0.0182 -0.1052
  893MOL0     C20482   2.877   4.630   4.870 -0.2559  0.0127  0.2110
  893MOL0     C20483   2.861   4.488   4.877  0.1882 -0.5766 -0.6657
  893MOL0     C20484   2.854   4.369   4.897  0.0858  0.4109  0.0711
  893MOL0     C20485   3.211   5.193   5.156 -1.0167  0.6725 -0.7170
  893MOL0     C20486   3.306   5.278   5.211  0.4778 -0.3267 -1.1752
  893MOL0     C20487   3.263   5.420   5.223 -1.0510  0.2787 -0.2080
  893MOL0     H20488   3.723   5.373   5.529  0.9690  0.9248  1.2441
  893MOL0     H20489   3.930   5.494   5.576  0.2620  3.1135 -2.3237
  893MOL0     H20490   4.260   5.316   5.415  1.2139  0.3143 -0.4421
  893MOL0     H20491   4.282   5.435   5.281  1.4199 -0.6338 -0.5550
  893MOL0     H20492   4.378   5.476   5.577 -1.0402  2.0095  0.5218
  893MOL0     H20493   4.397   5.587   5.432  1.4657 -0.1099 -1.4643
  893MOL0     H20494   4.543   5.457   5.321  3.5678 -0.5150  0.1398
  893MOL0     H20495   4.507   5.314   5.415  1.8837 -0.4932 -0.8173
  893MOL0     H20496   4.682   5.556   5.493  0.8590 -1.0502  0.4812
  893MOL0     H20497   4.625   5.442   5.620  0.1586 -2.3910  0.3590
  893MOL0     H20498   4.746   5.258   5.507  0.8148 -0.7178 -1.0265
  893MOL0     H20499   4.773   5.368   5.363 -4.2914  0.1059 -0.1692
  893MOL0     H20500   4.882   5.522   5.560  0.4985 -0.0918 -0.3725
  893MOL0     H20501   4.876   5.366   5.646  1.2353 -4.1708 -2.3042
  893MOL0     H20502   5.037   5.400   5.397 -2.2363  2.5642  0.8988
  893MOL0     H20503   5.001   5.246   5.485  0.7643  0.2464  0.1727
  893MOL0     H20504   5.132   5.506   5.585 -0.6534  0.3337 -2.6066
  893MOL0     H20505   5.086   5.388   5.700 -1.9453  4.0693  1.4791
  893MOL0     H20506   5.200   5.140   5.696 -0.6663  3.0372  2.3695
  893MOL0     H20507   5.314   4.939   5.599 -2.1276  2.5171 -2.2410
  893MOL0     H20508   5.405   4.944   5.451 -1.6410  1.6842 -2.1035
  893MOL0     H20509   5.579   5.082   5.633  2.2794 -0.3235  1.8036
  893MOL0     H20510   5.488   4.986   5.737 -0.0490  0.5643 -1.2150
  893MOL0     H20511   5.639   4.867   5.501 -4.9513 -0.1713 -0.8035
  893MOL0     H20512   5.588   4.779   5.642 -2.0361  1.6765  4.5191
  893MOL0     H20513   5.809   4.813   5.682  1.1469  1.2980 -2.6541
  893MOL0     H20514   5.728   4.920   5.791 -0.4483 -0.7094  0.1181
  893MOL0     H20515   5.965   4.895   5.843  3.9882 -4.7554 -0.2760
  893MOL0     H20516   6.199   4.943   5.884 -2.8748 -2.2283  1.0757
  893MOL0     H20517   6.632   5.011   5.574 -0.7526 -0.1341  0.2572
  893MOL0     H20518   6.888   5.086   5.625  1.0856  2.5228  1.0932
  893MOL0     H20519   6.954   5.506   5.676  1.0077  0.3987 -0.3942
  893MOL0     H20520   7.003   5.416   5.827  2.6913 -1.7965 -0.0203
  893MOL0     H20521   7.148   5.429   5.565  1.8362 -1.2140  0.2389
  893MOL0     H20522   7.189   5.540   5.691 -1.2881  0.4516  1.9871
  893MOL0     H20523   7.204   5.335   5.846 -1.4153  0.7846  0.1688
  893MOL0     H20524   7.237   5.237   5.709 -0.3279 -1.1496  2.6446
  893MOL0     H20525   7.403   5.494   5.740 -2.7889  1.2654 -1.9778
  893MOL0     H20526   7.418   5.362   5.617 -1.6306 -1.5399 -0.3324
  893MOL0     H20527   7.459   5.208   5.800 -0.2689  0.8728 -1.9525
  893MOL0     H20528   7.436   5.337   5.931  0.2770  0.4996 -0.5066
  893MOL0     H20529   7.655   5.336   5.745 -0.6949  0.4491  0.7423
  893MOL0     H20530   7.615   5.474   5.864 -0.0472  1.8066 -0.8560
  893MOL0     H20531   7.683   5.180   5.928 -0.8860 -0.6176  0.4877
  893MOL0     H20532   7.661   5.309   6.047  4.1408  0.6567  1.7791
  893MOL0     H20533   7.852   5.442   5.934  2.6632 -0.8792  0.4454
  893MOL0     H20534   7.891   5.288   6.008 -0.2918 -2.3245 -0.3149
  893MOL0     H20535   6.763   5.467   5.706 -0.9185 -1.4427  3.8582
  893MOL0     H20536   6.525   5.406   5.667 -0.4232 -0.5919 -2.1794
  893MOL0     H20537   6.223   5.172   5.514 -0.0922 -2.6464 -1.4595
  893MOL0     H20538   5.996   5.107   5.466 -0.4714 -1.2213 -0.8419
  893MOL0     H20539   4.091   5.357   5.202 -0.5134  0.0045  0.1283
  893MOL0     H20540   3.894   5.242   5.153  0.9265  0.2740  0.0714
  893MOL0     H20541   3.551   5.046   5.209  0.6778  0.9913  1.0688
  893MOL0     H20542   3.395   4.915   5.117  2.4022  1.0116 -0.3238
  893MOL0     H20543   3.129   4.780   5.132 -1.5193  0.0455  0.1803
  893MOL0     H20544   3.223   4.824   4.992 -0.8667  0.2678 -0.6492
  893MOL0     H20545   3.006   4.884   4.885 -1.1028  1.2842  2.3827
  893MOL0     H20546   2.929   4.828   5.032 -0.6797  0.3494  0.2832
  893MOL0     H20547   3.041   4.604   5.001 -3.0124 -1.9618 -0.9611
  893MOL0     H20548   3.100   4.654   4.851  2.6262  1.4799  3.7591
  893MOL0     H20549   2.814   4.675   4.947  0.1457  0.1585  0.4625
  893MOL0     H20550   2.852   4.665   4.769  1.7083 -0.5025 -0.5014
  893MOL0     H20551   2.850   4.263   4.914  3.7652  0.4214  2.0217
  893MOL0     H20552   3.122   5.242   5.117 -1.5863  1.1841  1.1370
  893MOL0     H20553   3.302   5.483   5.142 -2.9042  0.6298 -0.8666
  893MOL0     H20554   3.156   5.438   5.227 -1.1034  0.0717 -0.6603
  893MOL0     H20555   3.295   5.472   5.314  0.2501 -0.5373 -0.1617
  894MOL0     O20556   0.667  10.916   2.667 -0.0863 -0.3318  0.1873
  894MOL0     C20557   0.574  10.844   2.622  0.1573 -0.5662 -1.7864
  894MOL0     O20558   0.580  10.714   2.592 -0.2358 -0.0134  0.0432
  894MOL0     C20559   0.698  10.667   2.573 -0.6418  0.0972 -0.0515
  894MOL0     C20560   0.793  10.727   2.496  0.2820 -0.1828  0.8805
  894MOL0     C20561   0.925  10.685   2.499  0.3669 -0.4461  0.3126
  894MOL0     C20562   0.971  10.596   2.591  1.0387  0.5866  0.2434
  894MOL0     O20563   1.104  10.569   2.594  1.0798  0.2437 -0.0164
  894MOL0     C20564   1.172  10.526   2.705  0.3810 -0.5393 -0.1604
  894MOL0     C20565   1.322  10.507   2.683  0.0332 -0.5014  1.1439
  894MOL0     C20566   1.396  10.463   2.811 -0.8340  1.0421 -0.2493
  894MOL0     C20567   1.548  10.432   2.769  0.2392 -0.7923 -0.7801
  894MOL0     C20568   1.627  10.386   2.892  0.4459  0.7984 -0.3258
  894MOL0     C20569   1.776  10.379   2.872 -0.4441  0.2770  0.5136
  894MOL0     C20570   1.846  10.512   2.820 -0.8920  0.2884 -0.3482
  894MOL0     C20571   1.837  10.617   2.943  0.5537  0.1919  0.2075
  894MOL0     N20572   1.919  10.573   3.055 -0.2997  0.1235  0.9554
  894MOL0     C20573   2.056  10.605   3.066 -0.8607  0.0152 -0.6754
  894MOL0     C20574   2.094  10.563   3.191  0.5204 -0.5731 -0.7334
  894MOL0     C20575   2.229  10.577   3.255 -0.5253 -0.4309 -0.4154
  894MOL0     C20576   2.301  10.450   3.315 -0.0349 -0.5427  0.3352
  894MOL0     C20577   2.404  10.493   3.418  0.1556 -0.1982  0.8390
  894MOL0     C20578   2.505  10.374   3.429  0.8548  0.1688  0.1283
  894MOL0     O20579   2.590  10.415   3.544 -0.0429  0.0089 -0.0572
  894MOL0     C20580   2.728  10.383   3.536 -0.0209 -0.4503  0.4510
  894MOL0     C20581   2.811  10.465   3.618  1.0240 -0.4995  0.3524
  894MOL0     C20582   2.953  10.447   3.606 -0.1347 -0.3087  0.2700
  894MOL0     C20583   3.010  10.338   3.534 -0.4702 -0.4316 -0.0229
  894MOL0     C20584   3.146  10.308   3.549  0.0645  0.4240  0.3292
  894MOL0     O20585   3.216  10.385   3.632  0.5488 -0.3613 -0.6017
  894MOL0     C20586   3.349  10.356   3.664  0.2066 -0.6948 -0.0787
  894MOL0     C20587   3.458  10.347   3.575 -1.0896  0.5248 -0.5037
  894MOL0     C20588   3.584  10.309   3.611  0.4082  0.3203  0.0228
  894MOL0     C20589   3.611  10.284   3.751  0.0517  0.3908  0.6371
  894MOL0     O20590   3.727  10.238   3.803  0.1255  0.5170  0.4489
  894MOL0     C20591   3.841  10.224   3.717  0.3578 -0.3763  0.1143
  894MOL0     C20592   3.953  10.185   3.811  0.1932 -0.6014 -0.0355
  894MOL0     C20593   3.961  10.046   3.879 -0.2487 -0.1595  0.9708
  894MOL0     C20594   4.030  10.071   4.017 -0.2407 -0.4187  0.6141
  894MOL0     C20595   4.054   9.938   4.087  0.2455 -0.2204 -0.8180
  894MOL0     C20596   4.105   9.972   4.229  0.6318  1.1593 -0.6373
  894MOL0     C20597   4.155   9.834   4.294  0.2145 -0.3756  0.1393
  894MOL0     C20598   4.259   9.751   4.224  0.7141 -0.4893 -0.3665
  894MOL0    Cl20599   4.294   9.610   4.316  0.4777  0.1397  0.1735
  894MOL0     C20600   3.502  10.306   3.843  0.3888  0.3632 -0.1141
  894MOL0     C20601   3.373  10.350   3.805  0.4427 -0.6910  0.1345
  894MOL0     O20602   3.191  10.206   3.492  0.9279 -0.0047 -0.3902
  894MOL0     C20603   2.928  10.260   3.452 -0.2533 -0.4300 -0.1169
  894MOL0     C20604   2.784  10.285   3.453 -0.6146  0.1634 -0.3507
  894MOL0     N20605   1.985  10.506   3.247  0.2614  1.1125 -0.0729
  894MOL0     N20606   1.882  10.515   3.170 -0.5727 -0.7027 -0.4662
  894MOL0     C20607   0.874  10.529   2.665  1.4202  0.2156  0.0699
  894MOL0     C20608   0.745  10.563   2.652 -0.1418  0.5286 -0.0353
  894MOL0     C20609   0.445  10.903   2.588  0.1480  0.2344  0.2391
  894MOL0     C20610   0.381  10.860   2.465  0.0660  0.0311 -0.3278
  894MOL0     C20611   0.252  10.898   2.435 -0.0610  0.4341 -0.0102
  894MOL0     C20612   0.186  10.981   2.523  0.9261 -0.1205 -0.5879
  894MOL0     O20613   0.055  11.021   2.506 -0.0771  0.4526 -0.0629
  894MOL0     C20614  -0.033  10.964   2.407 -0.2468  0.4626  0.2236
  894MOL0     C20615  -0.149  11.058   2.363  0.3657  0.5300  1.4679
  894MOL0     C20616  -0.125  11.203   2.364 -0.0108 -0.1840 -0.2254
  894MOL0     C20617  -0.009  11.241   2.265  0.8746 -0.5172 -0.2920
  894MOL0     C20618  -0.048  11.219   2.122  0.5227 -0.5298  0.6050
  894MOL0     C20619  -0.066  11.188   2.007 -0.5129 -0.5728  0.4357
  894MOL0     C20620   0.248  11.029   2.633 -0.4162  0.4783 -0.2260
  894MOL0     C20621   0.378  11.003   2.669 -0.0707  0.3254  1.2249
  894MOL0     C20622   0.441  11.056   2.804 -0.5794  0.0615 -0.6076
  894MOL0     H20623   0.772  10.814   2.435  3.3729  0.3754  0.4477
  894MOL0     H20624   0.992  10.723   2.423 -1.3550  1.9466 -0.0999
  894MOL0     H20625   1.162  10.607   2.778 -0.9837 -0.8351  0.0030
  894MOL0     H20626   1.134  10.433   2.749 -0.6044 -1.6010 -3.0328
  894MOL0     H20627   1.373  10.596   2.644 -0.9667 -1.0986 -1.8134
  894MOL0     H20628   1.335  10.429   2.607  1.1095 -1.5925  2.4157
  894MOL0     H20629   1.344  10.376   2.852 -1.4945  2.1391  1.3585
  894MOL0     H20630   1.395  10.542   2.887  2.5348  0.7093  0.2898
  894MOL0     H20631   1.556  10.343   2.706  1.2319 -2.2329  1.2546
  894MOL0     H20632   1.598  10.522   2.730 -0.0168  0.4219  1.4755
  894MOL0     H20633   1.607  10.458   2.972  0.9388  1.7188 -1.0113
  894MOL0     H20634   1.582  10.293   2.928 -1.7963  1.9954  0.1917
  894MOL0     H20635   1.827  10.327   2.955  0.1500  0.2170  0.1190
  894MOL0     H20636   1.790  10.303   2.794  2.4574  1.1668  0.0364
  894MOL0     H20637   1.816  10.550   2.722  0.4167  1.3982 -0.3536
  894MOL0     H20638   1.951  10.488   2.798 -0.9330 -0.5927  0.3693
  894MOL0     H20639   1.861  10.716   2.904 -1.0128  0.5602  0.0917
  894MOL0     H20640   1.733  10.621   2.977  0.5161  0.7986  0.0370
  894MOL0     H20641   2.117  10.664   2.999 -0.0671 -0.5156 -0.4297
  894MOL0     H20642   2.292  10.628   3.182 -0.1240 -0.8446 -0.3630
  894MOL0     H20643   2.204  10.652   3.331 -3.0141 -0.8373 -0.7256
  894MOL0     H20644   2.236  10.381   3.371  0.3013  1.1306  3.0062
  894MOL0     H20645   2.340  10.381   3.240 -2.7111 -4.1975  1.9929
  894MOL0     H20646   2.356  10.517   3.513 -3.6490  0.8301 -1.1424
  894MOL0     H20647   2.463  10.578   3.381  2.8059 -1.7608  1.2090
  894MOL0     H20648   2.554  10.360   3.332  2.0432  1.9143  0.4337
  894MOL0     H20649   2.452  10.286   3.467 -2.3943  2.2332  0.7352
  894MOL0     H20650   2.777  10.546   3.682  3.3129 -0.1464  1.2124
  894MOL0     H20651   3.023  10.504   3.666  0.0086 -0.7069  0.4812
  894MOL0     H20652   3.448  10.370   3.469 -0.8022  1.9779 -0.2391
  894MOL0     H20653   3.659  10.308   3.532 -0.0714  0.6078 -0.4363
  894MOL0     H20654   3.841  10.139   3.647  2.0807 -1.4472  1.3295
  894MOL0     H20655   3.858  10.314   3.658 -0.8022 -2.3519 -3.5654
  894MOL0     H20656   4.043  10.200   3.751 -0.8521  1.4854 -1.2259
  894MOL0     H20657   3.956  10.263   3.886 -2.3521  0.2439 -0.6892
  894MOL0     H20658   3.864   9.999   3.892  0.3815 -1.8501 -0.0602
  894MOL0     H20659   4.021   9.976   3.820  2.9312  1.2698  2.2584
  894MOL0     H20660   3.973  10.139   4.080  0.9899 -1.9185  3.5222
  894MOL0     H20661   4.128  10.113   3.992 -1.6076  3.2722  0.8883
  894MOL0     H20662   4.128   9.881   4.031  1.0477 -0.9998  0.9589
  894MOL0     H20663   3.963   9.883   4.113  0.3571  0.5504  1.4469
  894MOL0     H20664   4.188  10.044   4.227  1.5731  0.4257  2.9955
  894MOL0     H20665   4.027  10.021   4.288  0.5304 -0.3099  0.5111
  894MOL0     H20666   4.063   9.777   4.310 -0.7003  1.5763  2.5227
  894MOL0     H20667   4.184   9.843   4.399  1.2092 -2.2904  0.0722
  894MOL0     H20668   4.229   9.715   4.125  0.8169 -3.3385  0.5519
  894MOL0     H20669   4.345   9.815   4.201  0.6796 -1.3564 -3.2952
  894MOL0     H20670   3.520  10.295   3.950 -2.7269 -1.5148  0.3195
  894MOL0     H20671   3.294  10.357   3.879  0.3005 -1.1574  0.0317
  894MOL0     H20672   2.966  10.169   3.407  0.3335 -0.9471  1.3423
  894MOL0     H20673   2.726  10.222   3.386  0.2074 -0.2162 -0.7153
  894MOL0     H20674   0.892  10.450   2.737  0.1234 -0.9397 -0.8361
  894MOL0     H20675   0.686  10.504   2.722 -0.2669  1.7299  0.8969
  894MOL0     H20676   0.417  10.772   2.412 -0.8686  0.9990 -2.7232
  894MOL0     H20677   0.206  10.834   2.360  0.4994  0.6017 -0.5003
  894MOL0     H20678  -0.067  10.867   2.443 -1.3280  1.2974  1.5715
  894MOL0     H20679   0.023  10.948   2.315 -2.1357  0.8720 -1.0574
  894MOL0     H20680  -0.231  11.034   2.432 -0.0978  1.8279  1.3825
  894MOL0     H20681  -0.170  11.041   2.257  3.8947  1.6200  0.4702
  894MOL0     H20682  -0.100  11.229   2.467  2.1047  0.9022 -0.9581
  894MOL0     H20683  -0.213  11.265   2.344  1.2132  0.7685 -3.1520
  894MOL0     H20684   0.020  11.345   2.283  0.2488 -0.4485  0.3985
  894MOL0     H20685   0.079  11.178   2.277  0.8244 -0.5836 -0.2683
  894MOL0     H20686  -0.090  11.167   1.904 -1.7649  1.1709  0.3318
  894MOL0     H20687   0.179  11.091   2.690 -2.7430 -0.4024 -1.9364
  894MOL0     H20688   0.365  11.109   2.863 -1.5347  0.3881 -2.0668
  894MOL0     H20689   0.487  10.971   2.856  0.0207  1.2950  0.9692
  894MOL0     H20690   0.514  11.133   2.777  0.2133 -0.3010  0.4364
  895MOL0     O20691   3.500  10.796   1.629 -0.3157  0.0869 -0.6779
  895MOL0     C20692   3.428  10.838   1.722 -0.1376 -0.6509 -0.7637
  895MOL0     O20693   3.471  10.851   1.852  0.9155  0.3337  0.2490
  895MOL0     C20694   3.600  10.843   1.888  0.4016  1.3142  0.0002
  895MOL0     C20695   3.705  10.869   1.801 -0.4108  0.5106 -0.0520
  895MOL0     C20696   3.837  10.870   1.843  0.3269  0.1506 -1.1883
  895MOL0     C20697   3.872  10.841   1.967 -0.0104 -0.2809  0.6030
  895MOL0     O20698   4.008  10.829   2.006  0.2055 -0.2400  0.0459
  895MOL0     C20699   4.093  10.939   1.970  0.2409 -0.5322 -0.4031
  895MOL0     C20700   4.232  10.894   2.022 -0.4325  0.7335  0.0927
  895MOL0     C20701   4.325  11.014   2.017  0.0643  0.3509  0.5274
  895MOL0     C20702   4.467  10.979   2.065  0.1534 -0.1531 -0.8695
  895MOL0     C20703   4.566  11.107   2.072 -0.0003 -0.4974  0.5929
  895MOL0     C20704   4.677  11.119   2.170  0.4586 -1.0494 -0.5336
  895MOL0     C20705   4.789  11.014   2.157 -0.2573  0.6340  0.1112
  895MOL0     C20706   4.901  11.036   2.254  0.0657  0.1838  0.0866
  895MOL0     N20707   5.004  11.135   2.204  0.3852 -0.3248  0.3878
  895MOL0     C20708   4.991  11.268   2.199  0.8252 -0.1291 -0.6981
  895MOL0     C20709   5.107  11.325   2.175 -0.3204  0.0871  0.2591
  895MOL0     C20710   5.148  11.466   2.182 -0.4493  0.0939 -0.1543
  895MOL0     C20711   5.163  11.511   2.038 -0.8416 -0.3446 -0.3821
  895MOL0     C20712   5.286  11.457   1.965 -0.5761  0.2758 -0.2017
  895MOL0     C20713   5.411  11.543   2.011  0.2453  0.1926 -0.2408
  895MOL0     O20714   5.526  11.491   1.947  0.4031 -0.2232 -0.1996
  895MOL0     C20715   5.641  11.449   2.016  0.1966 -0.3027  0.1067
  895MOL0     C20716   5.634  11.350   2.102  0.2336 -0.0089 -1.2615
  895MOL0     C20717   5.749  11.306   2.168 -0.3069  0.2780 -0.2077
  895MOL0     C20718   5.871  11.373   2.143 -0.6007 -0.2325  0.1757
  895MOL0     C20719   5.984  11.342   2.225  0.3401  0.4465  0.1226
  895MOL0     O20720   6.102  11.405   2.195 -0.3529  0.2921  0.5746
  895MOL0     C20721   6.232  11.368   2.236 -0.4528 -0.6568 -0.3959
  895MOL0     C20722   6.268  11.262   2.318 -1.1384  0.2080  0.1614
  895MOL0     C20723   6.401  11.230   2.342 -0.6870  0.7994 -0.3227
  895MOL0     C20724   6.507  11.312   2.298  1.4361 -0.2956  0.0350
  895MOL0     O20725   6.637  11.282   2.316  0.3652  0.0182 -0.3409
  895MOL0     C20726   6.672  11.249   2.449  0.6870 -0.3015 -0.5866
  895MOL0     C20727   6.820  11.279   2.489  1.0800  0.5600  0.9715
  895MOL0     C20728   6.909  11.187   2.403  0.4839  0.1836 -0.4366
  895MOL0     C20729   7.063  11.202   2.439 -0.1512  0.3714 -0.2218
  895MOL0     C20730   7.140  11.114   2.343  0.7130 -0.1034 -0.2280
  895MOL0     C20731   7.136  10.962   2.368 -0.7209  0.0506 -0.8802
  895MOL0     C20732   7.234  10.912   2.477  0.0151 -0.0017 -0.5465
  895MOL0     C20733   7.227  10.754   2.485 -0.8866  0.2895  0.5447
  895MOL0    Cl20734   7.352  10.689   2.608  0.1682  0.1206  0.5238
  895MOL0     C20735   6.478  11.423   2.208  1.0840 -0.6178 -0.2437
  895MOL0     C20736   6.338  11.442   2.188  0.5158 -0.1093  0.7415
  895MOL0     O20737   5.973  11.249   2.301  0.5697  0.3701 -0.7237
  895MOL0     C20738   5.880  11.475   2.049 -0.1906  0.4092  0.1530
  895MOL0     C20739   5.755  11.510   1.982 -0.4472  0.5924 -0.0563
  895MOL0     N20740   5.203  11.221   2.171  0.5468 -0.2974 -0.0892
  895MOL0     N20741   5.141  11.108   2.187  0.2515  0.3409  0.0591
  895MOL0     C20742   3.768  10.837   2.057 -0.0668 -0.2486 -0.2450
  895MOL0     C20743   3.633  10.833   2.025  0.2068 -0.3007 -0.5343
  895MOL0     C20744   3.282  10.860   1.690 -0.3510  0.4519 -0.7170
  895MOL0     C20745   3.250  10.909   1.562 -0.1677 -0.1648 -0.0654
  895MOL0     C20746   3.127  10.954   1.536 -0.7417  0.4310  0.1227
  895MOL0     C20747   3.023  10.961   1.625 -0.2770  0.4658 -0.0569
  895MOL0     O20748   2.891  11.006   1.599  0.1192  0.2571 -0.1469
  895MOL0     C20749   2.858  11.050   1.467 -0.4639 -0.4479  0.0310
  895MOL0     C20750   2.706  11.061   1.466  0.1089 -0.4211  0.7635
  895MOL0     C20751   2.651  11.194   1.524  0.0066  0.2117  0.8745
  895MOL0     C20752   2.497  11.193   1.508 -0.5621 -0.5091 -0.3885
  895MOL0     C20753   2.455  11.212   1.371  0.2002  0.8747 -0.6909
  895MOL0     C20754   2.414  11.225   1.262 -0.0332 -1.5613  0.1893
  895MOL0     C20755   3.044  10.901   1.745 -0.0335 -0.5729 -0.3393
  895MOL0     C20756   3.176  10.850   1.784  1.4081 -0.3743 -0.0944
  895MOL0     C20757   3.192  10.802   1.930 -0.8458  0.0470  0.4512
  895MOL0     H20758   3.686  10.892   1.696 -1.8035 -4.2292 -1.1020
  895MOL0     H20759   3.909  10.885   1.763 -0.1702 -2.3731 -2.1937
  895MOL0     H20760   4.101  10.952   1.862 -0.1667  1.4798 -0.2354
  895MOL0     H20761   4.057  11.032   2.015 -2.4973 -2.1344  0.9521
  895MOL0     H20762   4.276  10.813   1.963  0.2712  0.7279  0.6036
  895MOL0     H20763   4.225  10.853   2.124  2.4758 -0.1062  0.0427
  895MOL0     H20764   4.271  11.086   2.079 -0.6287  0.2910 -0.0001
  895MOL0     H20765   4.328  11.060   1.918 -0.2187  0.6535  0.6569
  895MOL0     H20766   4.454  10.930   2.162 -1.7229  2.6713  0.4716
  895MOL0     H20767   4.519  10.920   1.989  0.6599 -0.3475 -0.3809
  895MOL0     H20768   4.623  11.114   1.980  0.1270 -2.2406  0.4976
  895MOL0     H20769   4.503  11.196   2.086  0.4461 -0.0262 -0.3537
  895MOL0     H20770   4.722  11.217   2.155  0.7196 -1.3071 -1.4823
  895MOL0     H20771   4.631  11.125   2.269  0.6632 -0.4199 -0.4716
  895MOL0     H20772   4.831  11.004   2.057  2.3715  0.6774  1.1270
  895MOL0     H20773   4.743  10.915   2.162  1.3209 -0.2563 -1.4778
  895MOL0     H20774   4.856  11.063   2.350 -0.3611  0.6386 -0.2368
  895MOL0     H20775   4.949  10.939   2.269 -1.2239 -0.2685  1.5666
  895MOL0     H20776   4.895  11.316   2.213  2.0244  1.8134  1.4185
  895MOL0     H20777   5.067  11.523   2.228 -0.7125  0.8585 -1.5133
  895MOL0     H20778   5.243  11.475   2.236  0.2001 -2.0606 -0.8088
  895MOL0     H20779   5.068  11.497   1.984 -1.9015 -1.4125  1.6503
  895MOL0     H20780   5.169  11.620   2.042 -2.2448 -0.2171 -1.0246
  895MOL0     H20781   5.275  11.479   1.858  1.7845  0.6662 -0.4174
  895MOL0     H20782   5.303  11.350   1.970 -0.9856  0.1997 -0.3618
  895MOL0     H20783   5.425  11.539   2.120  2.1731 -0.9927 -0.4964
  895MOL0     H20784   5.404  11.651   1.998 -1.1752  0.1827  0.1635
  895MOL0     H20785   5.537  11.302   2.106 -0.2745  0.6282 -3.9010
  895MOL0     H20786   5.739  11.220   2.232  0.2536  0.9879  0.8546
  895MOL0     H20787   6.193  11.193   2.357  2.2015 -3.0738  1.3268
  895MOL0     H20788   6.432  11.141   2.396 -2.0219 -1.5263 -3.1120
  895MOL0     H20789   6.602  11.286   2.525  1.9678 -0.2601  0.6184
  895MOL0     H20790   6.656  11.142   2.456  2.7501 -0.5539  1.7491
  895MOL0     H20791   6.832  11.383   2.456 -0.3648 -0.3182 -2.7959
  895MOL0     H20792   6.835  11.279   2.598 -0.5219  1.7346  1.2374
  895MOL0     H20793   6.878  11.083   2.412  1.8945 -0.3596 -1.5174
  895MOL0     H20794   6.894  11.214   2.298 -1.6711  2.3086  0.3172
  895MOL0     H20795   7.093  11.168   2.539  0.5989 -1.3006 -0.9684
  895MOL0     H20796   7.107  11.300   2.420 -0.0208  0.4458  0.4552
  895MOL0     H20797   7.246  11.142   2.349  0.4474  0.7055  4.1945
  895MOL0     H20798   7.095  11.139   2.246  0.3238  4.0824  0.8167
  895MOL0     H20799   7.034  10.936   2.396 -0.3898 -1.3114 -0.8709
  895MOL0     H20800   7.167  10.913   2.275  2.1561  1.0278 -0.5451
  895MOL0     H20801   7.214  10.945   2.579  1.6887 -2.5074  0.6820
  895MOL0     H20802   7.338  10.945   2.466 -0.2701  1.4172  0.6983
  895MOL0     H20803   7.127  10.729   2.524 -0.7535 -1.0390  0.0754
  895MOL0     H20804   7.234  10.716   2.383  0.8682 -1.1183  1.1507
  895MOL0     H20805   6.561  11.475   2.160  1.3741 -1.2499 -0.4289
  895MOL0     H20806   6.319  11.524   2.120 -1.3551 -1.3480 -0.3301
  895MOL0     H20807   5.976  11.513   2.017  0.7116 -2.1466 -0.3842
  895MOL0     H20808   5.741  11.583   1.903  1.8425  0.7288 -0.4157
  895MOL0     H20809   3.809  10.840   2.157  0.8301  0.7296 -0.6258
  895MOL0     H20810   3.562  10.827   2.107  2.1384  1.9018  1.4508
  895MOL0     H20811   3.328  10.932   1.490 -0.5500 -1.3001 -0.8723
  895MOL0     H20812   3.094  10.996   1.441 -1.7196  3.7807  1.7899
  895MOL0     H20813   2.900  10.981   1.393  1.4119 -0.0033  0.6321
  895MOL0     H20814   2.896  11.149   1.442  1.0196 -1.3671 -1.6126
  895MOL0     H20815   2.645  10.981   1.508 -3.9211  1.4645 -0.8853
  895MOL0     H20816   2.683  11.058   1.359  1.9386  2.4032  0.1959
  895MOL0     H20817   2.698  11.286   1.488 -0.2923  0.1242  0.2575
  895MOL0     H20818   2.683  11.191   1.629  3.2033  2.7385  0.1295
  895MOL0     H20819   2.454  11.105   1.556 -2.7484  3.1138  5.2357
  895MOL0     H20820   2.453  11.280   1.557 -1.0044 -0.4598 -0.8697
  895MOL0     H20821   2.387  11.237   1.159 -1.1245  2.2092  0.7411
  895MOL0     H20822   2.969  10.907   1.823 -0.3148  2.3370 -0.7443
  895MOL0     H20823   3.247  10.881   1.982  1.6619  0.1219 -2.0376
  895MOL0     H20824   3.096  10.779   1.976 -0.7305  0.6641  1.0129
  895MOL0     H20825   3.256  10.715   1.942 -0.7093  0.0470 -0.2252
  896MOL0     O20826   8.604   4.127   9.027 -0.4342 -0.7227 -0.5441
  896MOL0     C20827   8.569   4.179   8.929 -0.4395 -0.0300 -0.5800
  896MOL0     O20828   8.609   4.306   8.895  0.0236  0.2848 -0.1008
  896MOL0     C20829   8.720   4.372   8.933  1.1265 -0.6189  0.1392
  896MOL0     C20830   8.763   4.469   8.849 -0.6070 -0.2717  0.1267
  896MOL0     C20831   8.886   4.530   8.889  0.0548  0.4624  0.8434
  896MOL0     C20832   8.959   4.501   8.997 -0.2634 -0.6383 -0.5983
  896MOL0     O20833   9.076   4.565   9.028  0.1745 -1.4435  0.6334
  896MOL0     C20834   9.178   4.497   9.113 -0.1969  0.7820  0.0299
  896MOL0     C20835   9.313   4.564   9.094 -0.4282  0.8562  0.8841
  896MOL0     C20836   9.328   4.676   9.195 -0.4494 -0.6306 -0.0578
  896MOL0     C20837   9.476   4.725   9.181 -0.1795 -0.4786 -0.4896
  896MOL0     C20838   9.501   4.845   9.273  0.6633 -1.3208  0.0522
  896MOL0     C20839   9.654   4.892   9.272  0.6468 -0.4983 -0.0646
  896MOL0     C20840   9.657   5.028   9.339 -1.1553  0.4788 -0.5939
  896MOL0     C20841   9.790   5.087   9.312  0.9596  0.4077 -0.5609
  896MOL0     N20842   9.789   5.222   9.352 -0.1595 -0.6647  0.7178
  896MOL0     C20843   9.775   5.340   9.277  0.4471 -0.5911 -0.3332
  896MOL0     C20844   9.837   5.438   9.343  0.4200 -0.4573  0.2586
  896MOL0     C20845   9.854   5.576   9.289 -0.0028  0.3065  0.6785
  896MOL0     C20846  10.010   5.610   9.295  0.6650 -0.1221  0.8877
  896MOL0     C20847  10.036   5.761   9.261 -0.0739  0.0884 -0.1152
  896MOL0     C20848  10.183   5.773   9.235 -1.7698 -0.0499 -0.1673
  896MOL0     O20849  10.227   5.723   9.104 -0.1011  0.9272 -0.4377
  896MOL0     C20850  10.362   5.697   9.094 -0.2322  0.0957  0.5842
  896MOL0     C20851  10.450   5.769   9.168 -0.4454 -0.6725 -0.2145
  896MOL0     C20852  10.592   5.741   9.163  0.2804 -0.6941  0.9271
  896MOL0     C20853  10.641   5.652   9.065  0.7951  0.5091 -0.3577
  896MOL0     C20854  10.783   5.624   9.049 -0.0177 -0.8968 -0.4391
  896MOL0     O20855  10.865   5.704   9.120 -0.5965 -0.5937  0.1744
  896MOL0     C20856  10.993   5.721   9.074 -0.2323  0.4527  0.1889
  896MOL0     C20857  11.020   5.765   8.947 -0.3607 -0.7842 -0.0008
  896MOL0     C20858  11.149   5.808   8.919 -0.0820  0.0127 -0.2024
  896MOL0     C20859  11.254   5.792   9.008  1.2684 -0.2578  0.0962
  896MOL0     O20860  11.383   5.841   8.992 -0.3684  0.7492  0.6866
  896MOL0     C20861  11.421   5.909   8.871  0.3435 -0.5415 -0.4675
  896MOL0     C20862  11.572   5.933   8.880 -0.0323 -0.1718  0.3088
  896MOL0     C20863  11.607   6.049   8.781 -0.1907 -0.5866 -0.7985
  896MOL0     C20864  11.744   6.104   8.813 -0.3417  0.2070  0.0489
  896MOL0     C20865  11.792   6.221   8.716 -0.0480  0.5476 -0.0780
  896MOL0     C20866  11.919   6.293   8.755  0.2038 -0.9194 -0.2924
  896MOL0     C20867  11.900   6.388   8.878  0.1820 -0.0766  0.1288
  896MOL0     C20868  12.026   6.466   8.926 -0.5529  0.7965 -0.2914
  896MOL0    Cl20869  12.147   6.360   9.022  0.0477 -0.4630 -0.3026
  896MOL0     C20870  11.218   5.741   9.131 -0.7191 -0.4769  0.2497
  896MOL0     C20871  11.088   5.709   9.169 -0.5081 -0.3487 -0.4715
  896MOL0     O20872  10.818   5.539   8.971  0.5054  0.5135 -0.1153
  896MOL0     C20873  10.548   5.582   8.981 -0.3390 -0.2688 -0.3102
  896MOL0     C20874  10.405   5.598   9.007 -0.2452 -0.1588  0.7054
  896MOL0     N20875   9.897   5.376   9.451  0.6573 -0.5307 -0.5696
  896MOL0     N20876   9.869   5.258   9.452 -0.2070  0.3790 -0.9507
  896MOL0     C20877   8.907   4.402   9.085  0.5459 -0.0265  0.1556
  896MOL0     C20878   8.789   4.345   9.051 -0.0649  0.7338  0.8139
  896MOL0     C20879   8.457   4.126   8.855 -1.2084  0.2277 -0.6851
  896MOL0     C20880   8.350   4.211   8.816 -0.8733 -0.1295  0.1390
  896MOL0     C20881   8.246   4.160   8.734 -0.8688  0.1965 -0.3863
  896MOL0     C20882   8.240   4.025   8.704  0.1736  0.5343 -0.0965
  896MOL0     O20883   8.121   3.985   8.649 -0.6550  0.3960  0.8856
  896MOL0     C20884   8.079   3.844   8.660  0.7847 -0.2354  0.1882
  896MOL0     C20885   7.945   3.830   8.595  0.3533  0.3848  0.4969
  896MOL0     C20886   7.837   3.895   8.671  0.1863 -0.7326  0.1046
  896MOL0     C20887   7.699   3.836   8.625 -0.1497 -0.3043 -0.6131
  896MOL0     C20888   7.654   3.866   8.490  0.5562  0.4651 -0.4271
  896MOL0     C20889   7.600   3.871   8.385 -0.8388  0.1632  1.2340
  896MOL0     C20890   8.345   3.939   8.748 -0.0848  0.0915 -1.3999
  896MOL0     C20891   8.458   3.988   8.813  0.3653 -0.1301  0.0532
  896MOL0     C20892   8.566   3.881   8.835 -0.4674 -0.3819  1.1120
  896MOL0     H20893   8.711   4.476   8.754  1.1234 -1.2688 -0.9357
  896MOL0     H20894   8.937   4.597   8.820  1.3437 -2.9754 -1.8351
  896MOL0     H20895   9.155   4.487   9.219 -1.6305 -1.8847 -0.4534
  896MOL0     H20896   9.200   4.395   9.080  1.8683  1.1657  0.0970
  896MOL0     H20897   9.317   4.582   8.986  0.2100 -0.6713  0.6286
  896MOL0     H20898   9.388   4.490   9.123  0.3999  1.5091  0.4696
  896MOL0     H20899   9.310   4.631   9.293 -0.0835 -3.7146 -1.3136
  896MOL0     H20900   9.256   4.755   9.170  0.9413  0.5979 -0.2858
  896MOL0     H20901   9.527   4.641   9.228 -0.3523 -0.3632 -0.0972
  896MOL0     H20902   9.501   4.740   9.075 -1.8629 -0.7271 -0.9567
  896MOL0     H20903   9.443   4.929   9.235  2.2483  0.1225  0.6962
  896MOL0     H20904   9.471   4.809   9.373 -0.9650 -0.6002 -0.1428
  896MOL0     H20905   9.729   4.830   9.322  0.7577  0.8136  1.4829
  896MOL0     H20906   9.660   4.901   9.163 -0.3025 -1.0528 -0.1712
  896MOL0     H20907   9.650   5.019   9.448  0.4223  0.3330 -0.4784
  896MOL0     H20908   9.585   5.102   9.303 -0.1129  2.2883  0.8428
  896MOL0     H20909   9.866   5.029   9.367  1.3103  0.0222 -1.4336
  896MOL0     H20910   9.821   5.081   9.208  1.3191  0.4232 -0.4559
  896MOL0     H20911   9.715   5.351   9.187 -0.9005  0.0342  0.6095
  896MOL0     H20912   9.820   5.578   9.185 -1.2148 -1.6102  0.9798
  896MOL0     H20913   9.813   5.647   9.362 -0.0348 -2.2090  3.2833
  896MOL0     H20914  10.043   5.588   9.397 -1.3923 -0.4569  1.5339
  896MOL0     H20915  10.061   5.548   9.220  1.4818 -1.7547  2.7139
  896MOL0     H20916  10.005   5.830   9.340 -1.2836  0.2986 -0.7491
  896MOL0     H20917   9.980   5.795   9.174 -1.9304 -0.7750  0.6855
  896MOL0     H20918  10.247   5.749   9.321  1.7057  3.7739 -1.3902
  896MOL0     H20919  10.201   5.881   9.230  0.4623 -0.2955  1.0350
  896MOL0     H20920  10.413   5.836   9.245  0.4184  1.0198 -1.2073
  896MOL0     H20921  10.649   5.803   9.231  1.4766  1.8475 -2.1466
  896MOL0     H20922  10.939   5.781   8.876  2.1017  0.0884 -2.8226
  896MOL0     H20923  11.166   5.849   8.820 -0.5407 -0.3715 -0.4418
  896MOL0     H20924  11.402   5.852   8.780 -1.9850 -1.0120  0.2325
  896MOL0     H20925  11.375   6.007   8.856  0.2464 -0.9052 -2.8729
  896MOL0     H20926  11.610   5.962   8.978  0.2456 -0.9076  0.4280
  896MOL0     H20927  11.615   5.836   8.851 -2.5352 -1.0877 -0.7150
  896MOL0     H20928  11.602   6.016   8.677 -1.1955  1.2257 -1.3671
  896MOL0     H20929  11.535   6.131   8.776 -0.4440 -0.5765  1.7224
  896MOL0     H20930  11.823   6.028   8.817 -1.1457 -0.7279 -1.1957
  896MOL0     H20931  11.731   6.149   8.912 -1.6263 -0.8624  0.3864
  896MOL0     H20932  11.713   6.295   8.700  0.1252  0.6284 -0.5791
  896MOL0     H20933  11.809   6.184   8.614  2.2415 -0.5056  0.6320
  896MOL0     H20934  12.000   6.224   8.781 -0.3977 -0.6376  2.6119
  896MOL0     H20935  11.950   6.351   8.668 -2.9599  0.5231 -0.5853
  896MOL0     H20936  11.863   6.333   8.965  0.5159 -0.2408  0.1722
  896MOL0     H20937  11.824   6.461   8.850  1.8934  2.8686  2.6347
  896MOL0     H20938  12.079   6.512   8.842 -0.5343 -0.9004 -1.2486
  896MOL0     H20939  11.993   6.549   8.990 -0.4124  0.2719  0.4798
  896MOL0     H20940  11.288   5.711   9.208 -0.4663 -0.0823  0.1750
  896MOL0     H20941  11.056   5.678   9.268  1.7753  1.1691  0.8469
  896MOL0     H20942  10.589   5.525   8.899  0.1246 -0.4257  0.0249
  896MOL0     H20943  10.340   5.544   8.938  1.3229 -3.1161  1.3816
  896MOL0     H20944   8.948   4.370   9.180  1.0728 -5.6307 -1.6091
  896MOL0     H20945   8.757   4.267   9.120 -0.0415 -0.3091 -0.3269
  896MOL0     H20946   8.359   4.317   8.838  2.2367 -0.5094  1.1316
  896MOL0     H20947   8.169   4.224   8.692 -0.4455  0.7983 -0.2748
  896MOL0     H20948   8.060   3.809   8.762 -3.2493 -2.1017 -0.9864
  896MOL0     H20949   8.149   3.783   8.603 -0.6656  1.0116 -3.1606
  896MOL0     H20950   7.914   3.725   8.597 -1.4156  0.8866  2.2184
  896MOL0     H20951   7.949   3.865   8.491 -0.3513 -4.3627 -1.3969
  896MOL0     H20952   7.828   3.999   8.641 -0.8467 -0.3348  1.6759
  896MOL0     H20953   7.847   3.877   8.779 -3.2282  1.1395  0.8839
  896MOL0     H20954   7.689   3.728   8.644  3.9514 -0.5730  1.2469
  896MOL0     H20955   7.634   3.878   8.702  2.5426  0.7867  1.2555
  896MOL0     H20956   7.556   3.881   8.287 -0.9505  1.6950  1.4207
  896MOL0     H20957   8.351   3.832   8.728  4.5177 -0.1025 -0.2052
  896MOL0     H20958   8.655   3.925   8.882  2.6450 -2.9950 -1.7844
  896MOL0     H20959   8.527   3.803   8.900 -0.1695 -0.1695  1.5508
  896MOL0     H20960   8.603   3.833   8.744  0.4889  1.0681  0.6858
  897MOL0     O20961   5.634   0.303   4.042  0.5083 -0.1677  0.5964
  897MOL0     C20962   5.578   0.302   4.148  0.0050 -0.7149 -0.9064
  897MOL0     O20963   5.642   0.340   4.261 -0.4605  0.4118  0.2964
  897MOL0     C20964   5.781   0.370   4.272  0.1720  1.0111 -0.4405
  897MOL0     C20965   5.883   0.322   4.190 -0.5655  0.5890 -1.0710
  897MOL0     C20966   6.018   0.354   4.216  0.9145  0.5226  0.3121
  897MOL0     C20967   6.055   0.448   4.309 -0.6850 -0.5067 -0.4196
  897MOL0     O20968   6.184   0.486   4.331 -0.2175  0.2338 -0.8740
  897MOL0     C20969   6.250   0.523   4.208  0.4760  0.4214 -0.4400
  897MOL0     C20970   6.353   0.420   4.174 -0.0367 -0.6172 -0.5800
  897MOL0     C20971   6.497   0.464   4.224  0.1423 -1.0646  0.6359
  897MOL0     C20972   6.586   0.339   4.195  0.5422  0.2770 -0.5535
  897MOL0     C20973   6.732   0.365   4.224  0.0136 -0.3015 -0.2996
  897MOL0     C20974   6.822   0.250   4.186 -0.5941  0.6244  0.5205
  897MOL0     C20975   6.951   0.258   4.269 -0.2545 -0.2590 -0.7696
  897MOL0     C20976   7.037   0.141   4.253 -0.1345 -0.0954  0.5190
  897MOL0     N20977   7.161   0.171   4.314  0.1859 -0.2640 -0.9859
  897MOL0     C20978   7.245   0.274   4.273  0.5254 -0.4389 -0.4797
  897MOL0     C20979   7.333   0.289   4.372  0.3571  0.7401 -0.8266
  897MOL0     C20980   7.447   0.386   4.373 -0.1572  0.1768 -0.3396
  897MOL0     C20981   7.590   0.329   4.373  0.6528 -0.2592  1.0536
  897MOL0     C20982   7.621   0.241   4.494 -0.1416  0.1912  0.1989
  897MOL0     C20983   7.762   0.175   4.494 -0.1947 -0.1846 -0.8013
  897MOL0     O20984   7.854   0.279   4.493  0.3973  0.0342 -0.2016
  897MOL0     C20985   7.985   0.244   4.471 -0.2517 -0.1206  0.4579
  897MOL0     C20986   8.083   0.335   4.510 -0.3318 -0.0908 -0.3557
  897MOL0     C20987   8.214   0.300   4.524  0.6773 -0.1162 -0.2184
  897MOL0     C20988   8.253   0.170   4.490 -0.4784  0.0430  0.5373
  897MOL0     C20989   8.387   0.128   4.518 -0.2824  1.8182 -0.4983
  897MOL0     O20990   8.483   0.216   4.539 -0.2187  0.6165 -0.3791
  897MOL0     C20991   8.619   0.169   4.549  0.3198  0.1194 -0.8120
  897MOL0     C20992   8.709   0.195   4.448  0.0166  0.0386 -0.1200
  897MOL0     C20993   8.834   0.139   4.452  0.4545  0.3026 -0.4448
  897MOL0     C20994   8.875   0.059   4.561  0.5214  0.3784 -0.7824
  897MOL0     O20995   9.011   0.018   4.575  0.0502  0.6055 -0.2492
  897MOL0     C20996   9.092   0.033   4.457  0.4172 -0.1328  0.1742
  897MOL0     C20997   9.232  -0.022   4.478 -0.6376 -0.5764 -0.7129
  897MOL0     C20998   9.312  -0.009   4.345 -0.2937  1.1830  0.1903
  897MOL0     C20999   9.278  -0.134   4.249  0.4803 -0.7298 -0.5031
  897MOL0     C21000   9.383  -0.132   4.140 -0.0332  0.2644 -1.0807
  897MOL0     C21001   9.517  -0.199   4.180  0.2125  0.5475 -0.5814
  897MOL0     C21002   9.557  -0.317   4.090  0.0557  0.1418 -1.0190
  897MOL0     C21003   9.653  -0.419   4.157  0.3352  0.1032 -1.0916
  897MOL0    Cl21004   9.816  -0.341   4.196  0.0221 -0.1370  0.0241
  897MOL0     C21005   8.777   0.034   4.661  0.0335  0.2808  0.8074
  897MOL0     C21006   8.655   0.084   4.653 -0.1748  0.5560  0.4151
  897MOL0     O21007   8.401   0.004   4.527  0.1744  0.3387 -0.1363
  897MOL0     C21008   8.159   0.076   4.447 -0.2383 -0.0098 -0.3641
  897MOL0     C21009   8.024   0.112   4.438 -0.0662  0.6215  1.6847
  897MOL0     N21010   7.302   0.205   4.485  0.0477  0.5586  0.9109
  897MOL0     N21011   7.187   0.150   4.447 -0.1191  0.4412 -0.8063
  897MOL0     C21012   5.954   0.502   4.388 -0.5124  0.2695 -0.8059
  897MOL0     C21013   5.825   0.467   4.366 -0.0338  0.3967  0.1555
  897MOL0     C21014   5.436   0.252   4.143 -0.3074  0.7513 -0.4991
  897MOL0     C21015   5.382   0.185   4.253  0.3524 -0.0809  0.1034
  897MOL0     C21016   5.242   0.144   4.254  0.6693 -0.9924 -0.2012
  897MOL0     C21017   5.153   0.178   4.154 -0.5610  0.2382 -0.7385
  897MOL0     O21018   5.023   0.138   4.150 -0.3662  0.3229  1.4128
  897MOL0     C21019   4.955   0.078   4.263 -1.1470 -0.5771 -0.2996
  897MOL0     C21020   4.802   0.054   4.250  0.9513  0.1013  0.3040
  897MOL0     C21021   4.739   0.191   4.213  0.0600  1.4255 -0.8379
  897MOL0     C21022   4.795   0.308   4.290  0.0285 -0.0171  0.3244
  897MOL0     C21023   4.704   0.417   4.256  0.4474  0.1383 -0.9725
  897MOL0     C21024   4.631   0.500   4.214  0.1762  0.6599 -0.6081
  897MOL0     C21025   5.212   0.238   4.044 -0.4111  0.0080  0.7087
  897MOL0     C21026   5.348   0.284   4.040 -0.8000  0.3646 -0.7648
  897MOL0     C21027   5.383   0.362   3.912  0.3180  0.1527 -0.1466
  897MOL0     H21028   5.855   0.255   4.109 -1.5140  0.2207 -0.4573
  897MOL0     H21029   6.090   0.305   4.152  1.2591  1.5854 -0.1352
  897MOL0     H21030   6.185   0.522   4.120  0.0517 -1.1769 -0.1395
  897MOL0     H21031   6.293   0.622   4.225 -1.4408  1.6037 -2.0645
  897MOL0     H21032   6.349   0.411   4.065 -0.2356  0.9695 -0.7316
  897MOL0     H21033   6.324   0.326   4.222 -1.5571  1.0044  1.8615
  897MOL0     H21034   6.510   0.493   4.328  2.9356 -1.3508  0.4367
  897MOL0     H21035   6.527   0.560   4.181 -3.7395  0.3332  0.6477
  897MOL0     H21036   6.543   0.249   4.238 -1.0606  0.4265 -1.7490
  897MOL0     H21037   6.578   0.323   4.087  0.7389  1.7813 -0.8122
  897MOL0     H21038   6.765   0.451   4.165 -1.2067  0.9960  0.8151
  897MOL0     H21039   6.744   0.375   4.332  1.1390 -0.7012 -0.3761
  897MOL0     H21040   6.770   0.156   4.207  0.3202  0.0455  0.2983
  897MOL0     H21041   6.847   0.257   4.080 -0.2737  0.6853  0.5977
  897MOL0     H21042   6.928   0.276   4.374 -0.9201  0.4718 -1.0300
  897MOL0     H21043   6.994   0.354   4.239 -0.4308  0.7513  1.9933
  897MOL0     H21044   6.988   0.056   4.301 -1.3087  1.1279  1.6089
  897MOL0     H21045   7.054   0.123   4.147  4.2578  0.7821  0.8720
  897MOL0     H21046   7.258   0.318   4.174  2.0081 -1.0353 -0.5791
  897MOL0     H21047   7.437   0.454   4.288 -0.1864 -0.3535 -0.7666
  897MOL0     H21048   7.422   0.440   4.465 -1.2120 -0.4127 -0.2668
  897MOL0     H21049   7.588   0.275   4.278 -0.9142  1.3995  0.0821
  897MOL0     H21050   7.669   0.404   4.361  1.1531 -1.1414 -1.8726
  897MOL0     H21051   7.541   0.167   4.481 -3.4980  3.3584  1.1164
  897MOL0     H21052   7.604   0.306   4.580 -2.2136  0.6444 -0.4913
  897MOL0     H21053   7.748   0.113   4.405 -3.2209 -0.4273 -0.2850
  897MOL0     H21054   7.768   0.110   4.582 -1.3792 -0.5707 -0.9777
  897MOL0     H21055   8.051   0.432   4.547 -1.7792 -1.1268  1.2714
  897MOL0     H21056   8.292   0.373   4.545 -2.5662  3.1128  1.8152
  897MOL0     H21057   8.691   0.250   4.356 -0.3953 -3.1488 -2.1042
  897MOL0     H21058   8.885   0.161   4.359  0.7561  1.8722  0.0497
  897MOL0     H21059   9.045  -0.012   4.368 -2.1996  2.6636 -0.0483
  897MOL0     H21060   9.100   0.137   4.426 -4.5478 -0.6399 -4.3256
  897MOL0     H21061   9.285   0.033   4.557 -1.9557 -0.0778 -0.1501
  897MOL0     H21062   9.220  -0.124   4.516  1.3727 -0.4244  0.5007
  897MOL0     H21063   9.299   0.090   4.300  1.1822  1.2336 -0.1848
  897MOL0     H21064   9.416  -0.018   4.379 -0.1155  1.4387 -0.2725
  897MOL0     H21065   9.177  -0.129   4.209  1.5738 -0.1964 -3.4693
  897MOL0     H21066   9.289  -0.226   4.306  0.6707 -0.9931 -0.9559
  897MOL0     H21067   9.390  -0.031   4.100  0.9172  1.4880  1.9028
  897MOL0     H21068   9.345  -0.188   4.054  0.1497  0.5227 -1.3326
  897MOL0     H21069   9.604  -0.133   4.174 -0.6994  1.8890  0.4255
  897MOL0     H21070   9.519  -0.231   4.284  0.5423 -0.9191 -1.0170
  897MOL0     H21071   9.607  -0.274   4.003  5.0666  0.4824  1.6301
  897MOL0     H21072   9.466  -0.374   4.069  0.8615 -1.7069  0.2165
  897MOL0     H21073   9.603  -0.460   4.245  0.4486  0.6198 -0.7819
  897MOL0     H21074   9.667  -0.506   4.092  0.6100  0.7961 -1.9859
  897MOL0     H21075   8.804  -0.023   4.750  0.8879  1.3775  1.2700
  897MOL0     H21076   8.587   0.056   4.733 -0.2402  1.0119  0.5243
  897MOL0     H21077   8.176  -0.030   4.437  3.2873  0.4206 -0.2129
  897MOL0     H21078   7.948   0.038   4.418  0.1304  1.2444 -1.9611
  897MOL0     H21079   5.988   0.581   4.454 -1.6535  1.6139 -1.7653
  897MOL0     H21080   5.760   0.523   4.433  1.1403 -0.2342  1.9105
  897MOL0     H21081   5.434   0.171   4.347 -0.7477 -0.2763  0.6987
  897MOL0     H21082   5.200   0.096   4.341  0.8177  3.2210  2.5007
  897MOL0     H21083   4.978   0.132   4.354 -0.8192  1.5111 -1.5548
  897MOL0     H21084   5.003  -0.020   4.275  0.9288  0.7305  3.7675
  897MOL0     H21085   4.763   0.013   4.343  1.4522 -2.2586 -0.4556
  897MOL0     H21086   4.790  -0.027   4.177 -0.1547 -0.8867  1.5380
  897MOL0     H21087   4.631   0.185   4.227  0.5276 -0.9095  3.2036
  897MOL0     H21088   4.760   0.212   4.107 -0.6554 -2.4120 -1.8927
  897MOL0     H21089   4.784   0.286   4.396 -3.0105  2.5719  0.7198
  897MOL0     H21090   4.899   0.332   4.270  0.5423 -1.3174  1.2993
  897MOL0     H21091   4.567   0.573   4.169  1.8541  2.5580 -0.0786
  897MOL0     H21092   5.148   0.261   3.960 -2.2017 -0.2980  1.9214
  897MOL0     H21093   5.294   0.419   3.884 -1.7814 -2.6826  0.2463
  897MOL0     H21094   5.456   0.441   3.930 -0.0088  0.2865  0.6372
  897MOL0     H21095   5.419   0.292   3.836 -0.7599 -1.8887  1.1340
  898MOL0     O21096   6.851   3.419   0.837  0.0401 -0.4387 -0.0205
  898MOL0     C21097   6.837   3.518   0.766  0.5597 -0.1595 -0.3383
  898MOL0     O21098   6.899   3.640   0.781  0.3359 -0.0195 -1.1927
  898MOL0     C21099   7.019   3.656   0.851  0.0007 -0.5065 -0.4209
  898MOL0     C21100   7.111   3.558   0.872  0.2382  0.7112 -0.1133
  898MOL0     C21101   7.228   3.584   0.936  0.4529  0.8656 -0.2184
  898MOL0     C21102   7.270   3.719   0.972  0.7356 -0.5304  1.6601
  898MOL0     O21103   7.388   3.744   1.032  0.6883  0.2768  0.5334
  898MOL0     C21104   7.410   3.876   1.084  0.0552 -0.0669 -0.4627
  898MOL0     C21105   7.519   3.850   1.192  0.5029  0.2814  0.1943
  898MOL0     C21106   7.528   3.963   1.300 -0.2248 -1.1165  0.0994
  898MOL0     C21107   7.661   3.954   1.387  0.8224 -0.1699 -0.1972
  898MOL0     C21108   7.674   4.075   1.484  0.8605 -0.6162  0.1668
  898MOL0     C21109   7.805   4.046   1.563 -0.1705 -0.3145 -0.0479
  898MOL0     C21110   7.824   4.135   1.689  1.0502  0.3899  0.0342
  898MOL0     C21111   7.920   4.258   1.677  0.4706  0.2595 -0.0844
  898MOL0     N21112   7.869   4.360   1.585 -0.7260  0.5079  0.7376
  898MOL0     C21113   7.748   4.414   1.582  0.4080  0.2348 -0.0948
  898MOL0     C21114   7.745   4.509   1.480 -1.3103 -0.1076  0.5337
  898MOL0     C21115   7.630   4.590   1.426 -0.2627  1.1838  0.7655
  898MOL0     C21116   7.543   4.503   1.333 -0.4438 -0.3711  0.4856
  898MOL0     C21117   7.422   4.442   1.407 -0.0388 -0.1695  0.3944
  898MOL0     C21118   7.359   4.326   1.323  0.8171  0.5788  0.9705
  898MOL0     O21119   7.252   4.270   1.401  0.1096 -0.2988 -0.3514
  898MOL0     C21120   7.179   4.169   1.340 -0.9558  0.7259 -0.3638
  898MOL0     C21121   7.166   4.157   1.200 -0.3213 -0.4975  0.1160
  898MOL0     C21122   7.056   4.079   1.152  0.1805 -0.5461 -0.3079
  898MOL0     C21123   6.986   3.996   1.246  0.8418  0.3458 -0.2962
  898MOL0     C21124   6.875   3.894   1.194 -0.8977  0.4341 -0.0448
  898MOL0     O21125   6.795   3.826   1.285  0.4513 -0.2601 -0.0182
  898MOL0     C21126   6.694   3.740   1.238 -0.1782 -0.1428 -0.2044
  898MOL0     C21127   6.709   3.666   1.123 -0.3625  1.2127 -0.3337
  898MOL0     C21128   6.595   3.600   1.068 -0.6257 -1.1970  0.1469
  898MOL0     C21129   6.471   3.618   1.130  0.3370  0.5680 -0.1663
  898MOL0     O21130   6.348   3.564   1.076  0.0460  0.0081 -0.4287
  898MOL0     C21131   6.332   3.535   0.939  0.5512 -0.0664 -0.0281
  898MOL0     C21132   6.209   3.441   0.924 -0.3780 -0.5374  0.2467
  898MOL0     C21133   6.080   3.500   0.983  0.0272 -0.1850  0.2644
  898MOL0     C21134   5.957   3.398   0.957 -0.4000  0.1473  0.2305
  898MOL0     C21135   5.825   3.443   1.014  0.3685 -0.0589  0.7731
  898MOL0     C21136   5.706   3.367   0.944  0.2229 -0.0075  0.2421
  898MOL0     C21137   5.722   3.206   0.935 -0.3843 -0.2306  0.0193
  898MOL0     C21138   5.594   3.142   0.880 -0.1133  0.2353  0.1866
  898MOL0    Cl21139   5.518   3.218   0.738  0.3445 -0.1454 -0.0075
  898MOL0     C21140   6.461   3.686   1.256  0.4399  0.9179  0.1292
  898MOL0     C21141   6.575   3.750   1.311  0.4838 -0.0808  0.2391
  898MOL0     O21142   6.850   3.898   1.071  0.1033 -0.0682  0.1219
  898MOL0     C21143   7.013   3.994   1.386  1.1029  0.1034  0.1384
  898MOL0     C21144   7.102   4.093   1.430 -0.6591 -0.4796 -0.8958
  898MOL0     N21145   7.877   4.500   1.420  1.0075  0.5035  0.2941
  898MOL0     N21146   7.945   4.405   1.482 -0.3881 -0.1050 -0.6159
  898MOL0     C21147   7.182   3.824   0.935  0.0380  1.3188  0.6741
  898MOL0     C21148   7.062   3.792   0.870  0.7523  0.4051  0.0928
  898MOL0     C21149   6.736   3.502   0.658 -0.3385 -0.1807  0.0563
  898MOL0     C21150   6.737   3.389   0.580 -0.1157 -0.3331 -0.0852
  898MOL0     C21151   6.639   3.364   0.480 -0.5531 -0.4122  0.9122
  898MOL0     C21152   6.550   3.461   0.446  0.6501  0.1090 -0.3315
  898MOL0     O21153   6.451   3.450   0.349 -0.8121  0.3296  0.5049
  898MOL0     C21154   6.352   3.342   0.374 -1.2726 -0.4307  0.0965
  898MOL0     C21155   6.265   3.374   0.499 -0.8215 -0.3535 -0.0824
  898MOL0     C21156   6.185   3.498   0.503  0.8495 -0.3108 -0.9781
  898MOL0     C21157   6.072   3.514   0.407  0.1249  0.3962  0.8212
  898MOL0     C21158   5.948   3.439   0.441  1.2345 -0.2728 -0.1230
  898MOL0     C21159   5.859   3.366   0.479  0.1925 -0.5598 -0.2651
  898MOL0     C21160   6.560   3.579   0.510 -0.8329  0.1386 -0.7892
  898MOL0     C21161   6.648   3.604   0.622  0.0583 -0.0057  0.7514
  898MOL0     C21162   6.628   3.734   0.690 -0.0560  0.3622  0.1537
  898MOL0     H21163   7.087   3.457   0.841  1.1360  0.4817 -0.0747
  898MOL0     H21164   7.297   3.503   0.958 -0.8621 -0.3432 -0.4582
  898MOL0     H21165   7.433   3.959   1.016 -3.8469  2.7748  1.2715
  898MOL0     H21166   7.322   3.911   1.139  0.2082  1.1111 -0.9464
  898MOL0     H21167   7.615   3.850   1.141 -0.1455  2.8179 -1.1835
  898MOL0     H21168   7.495   3.765   1.256 -1.1308  1.1637  0.7996
  898MOL0     H21169   7.447   3.942   1.370 -1.4548 -1.4789 -1.3651
  898MOL0     H21170   7.520   4.062   1.255  1.4684 -1.4347 -1.0305
  898MOL0     H21171   7.660   3.865   1.451 -1.1429 -0.1934 -0.2000
  898MOL0     H21172   7.745   3.952   1.317  1.7809  0.8508  0.8826
  898MOL0     H21173   7.686   4.168   1.427 -1.6728 -0.0614  0.4192
  898MOL0     H21174   7.590   4.069   1.554 -1.2703 -3.3419 -2.3976
  898MOL0     H21175   7.798   3.944   1.601  1.3948  0.0119  1.2510
  898MOL0     H21176   7.891   4.050   1.496  0.3679  1.4209  0.6921
  898MOL0     H21177   7.860   4.070   1.769  2.2638 -3.0536 -2.9826
  898MOL0     H21178   7.731   4.178   1.727  1.0777  0.6926 -0.2290
  898MOL0     H21179   7.942   4.316   1.767  1.8610 -0.4863  0.0820
  898MOL0     H21180   8.009   4.217   1.628  0.0836 -0.5419 -0.1223
  898MOL0     H21181   7.663   4.379   1.639 -0.1163 -0.2717 -1.1461
  898MOL0     H21182   7.578   4.617   1.518  1.0463 -2.3553  2.7475
  898MOL0     H21183   7.673   4.674   1.371  1.0680 -0.4308 -0.7639
  898MOL0     H21184   7.509   4.578   1.260  2.1622  0.2720 -0.1870
  898MOL0     H21185   7.601   4.425   1.281  1.6707  0.9608  0.7086
  898MOL0     H21186   7.339   4.513   1.408 -1.8101 -2.0277 -2.1239
  898MOL0     H21187   7.457   4.409   1.506  1.0652 -1.2249 -0.3196
  898MOL0     H21188   7.421   4.238   1.303 -0.1165 -0.5388  2.7310
  898MOL0     H21189   7.316   4.372   1.234 -1.7543 -1.2916  1.1002
  898MOL0     H21190   7.222   4.213   1.125 -0.8320  0.7227  0.6152
  898MOL0     H21191   7.048   4.077   1.044  0.6693  2.5877 -0.4830
  898MOL0     H21192   6.807   3.657   1.077  0.0344 -3.4452  0.9011
  898MOL0     H21193   6.608   3.548   0.973  0.5931  0.3435 -0.5605
  898MOL0     H21194   6.330   3.625   0.875  1.2877 -0.8062 -1.1304
  898MOL0     H21195   6.416   3.476   0.902 -1.3122 -1.8385 -1.6698
  898MOL0     H21196   6.192   3.414   0.819 -5.0501 -1.0533  0.9367
  898MOL0     H21197   6.233   3.353   0.984  1.4606  0.9563  1.8260
  898MOL0     H21198   6.094   3.512   1.091  0.3271  0.8831  0.1198
  898MOL0     H21199   6.074   3.596   0.931 -1.5269 -0.9229 -0.9787
  898MOL0     H21200   5.985   3.301   0.999  4.1330  0.8890 -0.6053
  898MOL0     H21201   5.945   3.389   0.848  0.1143  1.2629  0.0674
  898MOL0     H21202   5.802   3.549   0.998 -1.7025 -0.5735 -0.0212
  898MOL0     H21203   5.825   3.416   1.120 -0.0382  3.1494  1.6877
  898MOL0     H21204   5.612   3.400   0.990 -0.2137  3.6554 -2.8261
  898MOL0     H21205   5.705   3.415   0.846  1.0472 -0.6447 -0.0890
  898MOL0     H21206   5.752   3.174   1.035  1.2963  0.5004 -0.2099
  898MOL0     H21207   5.809   3.177   0.875  0.1406 -0.9152  1.0697
  898MOL0     H21208   5.609   3.035   0.865 -1.2968  0.2595 -1.3363
  898MOL0     H21209   5.511   3.157   0.950  0.5573 -0.7013  1.2130
  898MOL0     H21210   6.361   3.689   1.298 -0.0140  1.4489 -0.9522
  898MOL0     H21211   6.560   3.825   1.388 -0.6551  1.4747 -1.4259
  898MOL0     H21212   6.950   3.937   1.453  2.0234 -0.7985  0.2597
  898MOL0     H21213   7.114   4.111   1.536 -0.9200 -0.0348 -0.9413
  898MOL0     H21214   7.198   3.930   0.954  0.7826  1.3359  0.0357
  898MOL0     H21215   6.988   3.863   0.835 -0.0081 -1.2109 -1.8231
  898MOL0     H21216   6.814   3.316   0.602 -0.6237 -0.9051 -0.1784
  898MOL0     H21217   6.636   3.271   0.425 -2.5484 -1.3784  2.5535
  898MOL0     H21218   6.401   3.244   0.386  2.3051  1.1964 -0.0514
  898MOL0     H21219   6.287   3.336   0.286 -0.6494  1.0614 -0.4916
  898MOL0     H21220   6.331   3.382   0.585 -1.4348  0.0017  0.3603
  898MOL0     H21221   6.198   3.288   0.511 -1.8465  0.4946  0.3344
  898MOL0     H21222   6.253   3.578   0.472 -0.8978  1.8326  0.4102
  898MOL0     H21223   6.156   3.520   0.606  1.7777 -0.3251 -0.7022
  898MOL0     H21224   6.041   3.618   0.392  1.4803  0.5871 -0.9898
  898MOL0     H21225   6.112   3.482   0.310  3.5196 -1.7936  2.7469
  898MOL0     H21226   5.766   3.324   0.509 -1.2811  1.9701 -0.9650
  898MOL0     H21227   6.498   3.658   0.469  0.2230  2.0198  1.0245
  898MOL0     H21228   6.717   3.793   0.666  1.8857 -1.7928  1.5389
  898MOL0     H21229   6.547   3.795   0.650 -1.2754  0.1765  2.1939
  898MOL0     H21230   6.624   3.722   0.799  1.0564  0.1844  0.1849
  899MOL0     O21231   9.611   0.627   8.666 -0.1345  0.0982  0.5591
  899MOL0     C21232   9.513   0.574   8.621  0.0812  0.5137 -0.3131
  899MOL0     O21233   9.506   0.484   8.522 -0.2750  0.2559  0.9428
  899MOL0     C21234   9.619   0.445   8.455  0.4583  0.1296  1.0113
  899MOL0     C21235   9.696   0.530   8.381  0.1091  0.0961 -0.2636
  899MOL0     C21236   9.807   0.488   8.304  0.7264 -0.5401  0.6708
  899MOL0     C21237   9.832   0.351   8.291  0.1405 -0.3451  0.7893
  899MOL0     O21238   9.920   0.320   8.196  1.1255  0.2924 -0.1356
  899MOL0     C21239   9.960   0.178   8.185  1.0868 -0.8864  0.3450
  899MOL0     C21240  10.079   0.166   8.099 -0.4216 -0.7041 -0.1978
  899MOL0     C21241  10.196   0.252   8.141 -0.3056 -0.2421  0.1277
  899MOL0     C21242  10.332   0.182   8.116 -0.5316 -0.5689 -0.4036
  899MOL0     C21243  10.373   0.179   7.974 -0.5031 -0.0891  0.3556
  899MOL0     C21244  10.488   0.078   7.942 -0.3945  0.2562 -0.7071
  899MOL0     C21245  10.623   0.119   8.006 -0.4278  0.1501 -0.6235
  899MOL0     C21246  10.697   0.241   7.947 -0.1175  0.0136  0.0729
  899MOL0     N21247  10.835   0.264   7.997  0.4099  0.7765  0.0939
  899MOL0     C21248  10.945   0.217   7.931 -0.4916  0.6370  0.3445
  899MOL0     C21249  11.047   0.247   8.008  0.5406 -0.6847 -0.5304
  899MOL0     C21250  11.195   0.224   7.978 -0.3139 -0.3033 -0.0456
  899MOL0     C21251  11.280   0.252   8.101  0.8418 -0.1973  0.0503
  899MOL0     C21252  11.428   0.232   8.071  0.3488 -0.6616 -0.0536
  899MOL0     C21253  11.493   0.327   7.965  0.3849 -0.3651 -0.0149
  899MOL0     O21254  11.630   0.320   8.005  0.1380  0.2383 -0.5035
  899MOL0     C21255  11.721   0.396   7.933 -0.9051 -0.0473 -0.3031
  899MOL0     C21256  11.850   0.412   7.993  0.0953  0.2993 -0.0485
  899MOL0     C21257  11.953   0.493   7.941  0.0764  0.1095  0.0579
  899MOL0     C21258  11.924   0.574   7.823 -0.1134  0.3891 -0.1972
  899MOL0     C21259  12.026   0.664   7.767 -0.0503 -0.5131 -0.3036
  899MOL0     O21260  12.145   0.659   7.836  0.2960 -0.5979 -0.3314
  899MOL0     C21261  12.256   0.718   7.783  0.1290  0.1123  0.1999
  899MOL0     C21262  12.304   0.700   7.649  0.4488  0.5612 -0.3362
  899MOL0     C21263  12.432   0.756   7.612 -0.3144 -0.6670 -0.7785
  899MOL0     C21264  12.502   0.836   7.708  1.1485  0.5289  0.5420
  899MOL0     O21265  12.611   0.914   7.696 -0.5826  0.2560 -1.0895
  899MOL0     C21266  12.721   0.874   7.614 -0.1258 -0.1142  0.3475
  899MOL0     C21267  12.859   0.894   7.686 -0.0025 -0.4185  0.2782
  899MOL0     C21268  12.856   1.033   7.742 -0.6762  0.1768 -0.2188
  899MOL0     C21269  13.005   1.076   7.755  0.3836  0.2877  0.2589
  899MOL0     C21270  12.995   1.225   7.734 -0.0306  0.8803  0.9667
  899MOL0     C21271  13.127   1.294   7.764  0.5044  1.0269 -0.3297
  899MOL0     C21272  13.242   1.241   7.675  0.0118 -0.7770 -0.8112
  899MOL0     C21273  13.353   1.344   7.669  0.2096 -0.4022  0.2843
  899MOL0    Cl21274  13.504   1.273   7.606 -0.1661  0.0620 -0.1543
  899MOL0     C21275  12.452   0.850   7.835 -0.1133 -0.4256 -0.3864
  899MOL0     C21276  12.333   0.787   7.880  0.0084 -0.8022  0.5208
  899MOL0     O21277  12.003   0.733   7.665 -0.3418  0.0447  0.5098
  899MOL0     C21278  11.805   0.540   7.752 -0.3101 -0.9501 -0.3976
  899MOL0     C21279  11.706   0.456   7.808  0.6376 -1.1369 -0.0494
  899MOL0     N21280  11.001   0.333   8.112  0.2319  0.1350  0.0380
  899MOL0     N21281  10.874   0.353   8.097  0.8024  0.3556 -0.0326
  899MOL0     C21282   9.755   0.258   8.371  0.3018 -0.1096  0.1022
  899MOL0     C21283   9.650   0.308   8.453 -0.2822  0.2227 -0.3667
  899MOL0     C21284   9.380   0.597   8.693 -0.1466  0.2735 -0.0757
  899MOL0     C21285   9.267   0.563   8.616  0.5761  0.5174  0.0895
  899MOL0     C21286   9.140   0.588   8.679 -0.1067 -0.1665  0.1311
  899MOL0     C21287   9.130   0.632   8.818  0.5007  0.5083  0.4530
  899MOL0     O21288   9.015   0.662   8.879  0.4190  0.8516  0.5606
  899MOL0     C21289   8.893   0.661   8.809 -0.1414 -0.1370 -1.0921
  899MOL0     C21290   8.773   0.694   8.900 -0.0401  0.0946 -0.6846
  899MOL0     C21291   8.639   0.663   8.836 -0.1224  0.0573  0.7992
  899MOL0     C21292   8.523   0.732   8.896 -0.5789  0.2777 -0.6856
  899MOL0     C21293   8.507   0.672   9.033  0.5967 -0.3136  0.4754
  899MOL0     C21294   8.480   0.617   9.140  0.0437 -1.4709 -0.1124
  899MOL0     C21295   9.240   0.666   8.886  0.6485  0.9411  0.1205
  899MOL0     C21296   9.371   0.643   8.831  0.3992  0.1708 -0.3274
  899MOL0     C21297   9.488   0.658   8.924  1.0210  0.4205 -0.6475
  899MOL0     H21298   9.674   0.636   8.389  0.4145  0.0338  1.9029
  899MOL0     H21299   9.868   0.552   8.241 -0.4139  0.4530  0.5487
  899MOL0     H21300   9.987   0.143   8.285 -0.1239  2.5652  2.0621
  899MOL0     H21301   9.873   0.124   8.150  0.6291 -0.6757  1.1296
  899MOL0     H21302  10.058   0.184   7.993 -0.3488 -1.3575 -0.3260
  899MOL0     H21303  10.112   0.062   8.091  0.7076 -0.3313 -0.5482
  899MOL0     H21304  10.194   0.267   8.250  0.3710  0.4810  0.0521
  899MOL0     H21305  10.196   0.351   8.094 -1.2577 -1.2146 -2.0442
  899MOL0     H21306  10.404   0.244   8.170  0.4698 -0.1899 -2.1306
  899MOL0     H21307  10.330   0.087   8.171 -1.9285 -0.3222  0.0132
  899MOL0     H21308  10.286   0.137   7.924  0.1856  1.3498 -2.2691
  899MOL0     H21309  10.389   0.282   7.938  0.8341 -0.7889 -1.1961
  899MOL0     H21310  10.452  -0.014   7.989 -1.7532  0.6255 -0.9940
  899MOL0     H21311  10.485   0.065   7.834  0.6129  1.8699 -0.9514
  899MOL0     H21312  10.694   0.037   7.991  0.9014  0.7602  1.8359
  899MOL0     H21313  10.611   0.141   8.112  4.1926  2.8554 -0.4139
  899MOL0     H21314  10.708   0.225   7.840 -0.1878 -0.7005  0.1674
  899MOL0     H21315  10.624   0.321   7.963 -0.9254 -0.7370  0.2889
  899MOL0     H21316  10.936   0.155   7.842  2.0960 -0.6547  0.8822
  899MOL0     H21317  11.217   0.132   7.924  0.2558  0.3767 -1.0010
  899MOL0     H21318  11.211   0.307   7.908 -0.2878 -0.7192 -0.5363
  899MOL0     H21319  11.269   0.350   8.150  2.1056  0.1178 -0.2672
  899MOL0     H21320  11.253   0.185   8.183 -1.4857  3.0948  2.2768
  899MOL0     H21321  11.450   0.127   8.051 -2.3608 -2.3658  4.3998
  899MOL0     H21322  11.489   0.249   8.160 -1.0289 -1.1693  1.0208
  899MOL0     H21323  11.434   0.419   7.962  0.5926 -0.0394  2.8812
  899MOL0     H21324  11.486   0.302   7.859  1.0644  2.5521 -0.8415
  899MOL0     H21325  11.891   0.372   8.085  0.2555  0.5912  0.0060
  899MOL0     H21326  12.040   0.519   8.002  1.2208  1.0242 -1.8638
  899MOL0     H21327  12.245   0.639   7.582  1.2204 -0.8138  0.1945
  899MOL0     H21328  12.479   0.729   7.518  2.4622 -0.2666  0.3943
  899MOL0     H21329  12.696   0.775   7.575 -4.9124  1.3813 -1.1331
  899MOL0     H21330  12.717   0.940   7.527 -1.0208  0.3674  0.7418
  899MOL0     H21331  12.884   0.814   7.755  1.5095  0.5683  0.9153
  899MOL0     H21332  12.935   0.894   7.607 -1.5831 -0.4005 -1.3196
  899MOL0     H21333  12.808   1.101   7.671 -0.2354  3.3874  2.3274
  899MOL0     H21334  12.805   1.031   7.839 -1.0371 -0.9734 -0.4144
  899MOL0     H21335  13.073   1.030   7.683 -2.7050 -2.2214 -1.3465
  899MOL0     H21336  13.036   1.053   7.857 -1.0610 -2.2626  0.2259
  899MOL0     H21337  12.921   1.263   7.805 -0.9915 -0.0524  0.4961
  899MOL0     H21338  12.959   1.257   7.635  1.2985  0.7007  0.4042
  899MOL0     H21339  13.117   1.401   7.746  1.2136  1.3817  1.2645
  899MOL0     H21340  13.158   1.282   7.868 -0.1765  2.4766  0.0489
  899MOL0     H21341  13.201   1.206   7.580  0.1687  0.7846 -1.4885
  899MOL0     H21342  13.289   1.156   7.725 -0.6285 -0.9464 -0.4858
  899MOL0     H21343  13.333   1.432   7.606 -0.9308 -1.0175 -0.2518
  899MOL0     H21344  13.370   1.393   7.765 -0.1992  2.4521 -0.9834
  899MOL0     H21345  12.512   0.920   7.892 -0.0673 -0.2370 -0.6627
  899MOL0     H21346  12.281   0.807   7.973 -2.8367 -3.0263 -0.4296
  899MOL0     H21347  11.791   0.587   7.655  2.2735  0.1035 -0.3466
  899MOL0     H21348  11.615   0.442   7.750  1.3284  0.4760 -1.6417
  899MOL0     H21349   9.768   0.152   8.353  1.6281  0.0757 -0.1591
  899MOL0     H21350   9.588   0.245   8.515 -0.1279 -1.3675 -1.7540
  899MOL0     H21351   9.268   0.521   8.516 -1.8259 -0.5843  0.4348
  899MOL0     H21352   9.051   0.577   8.619 -1.5789  0.7484  2.0534
  899MOL0     H21353   8.865   0.560   8.781 -2.6482 -0.2050  1.2103
  899MOL0     H21354   8.889   0.725   8.721 -2.2402 -0.9468 -1.6354
  899MOL0     H21355   8.781   0.800   8.924 -2.7748  0.3680 -0.7179
  899MOL0     H21356   8.766   0.636   8.992 -3.2606 -0.2054 -1.0108
  899MOL0     H21357   8.636   0.554   8.846 -1.2393  0.0947  0.9631
  899MOL0     H21358   8.649   0.688   8.730 -0.0305 -0.4940  0.6733
  899MOL0     H21359   8.536   0.841   8.894 -0.0955  0.2230 -0.5501
  899MOL0     H21360   8.432   0.695   8.847  1.1299 -2.9194 -1.6845
  899MOL0     H21361   8.461   0.586   9.241 -0.1899  1.1912  0.7234
  899MOL0     H21362   9.218   0.697   8.988 -1.7432  1.8985 -0.6196
  899MOL0     H21363   9.530   0.758   8.907 -1.3282  1.6181  0.1865
  899MOL0     H21364   9.454   0.658   9.028  2.0124  1.3590 -0.3069
  899MOL0     H21365   9.565   0.583   8.905  0.1730 -0.2123 -1.7275
  900MOL0     O21366   3.691  10.863   0.678 -0.0109 -0.5710 -0.2079
  900MOL0     C21367   3.655  10.960   0.742 -0.7534 -0.3072 -0.6276
  900MOL0     O21368   3.738  11.038   0.821  0.2942  0.4877 -0.2386
  900MOL0     C21369   3.861  11.001   0.860 -0.5098  1.0862 -0.0875
  900MOL0     C21370   3.948  11.104   0.910 -0.4991  0.3397  0.7153
  900MOL0     C21371   4.091  11.082   0.928  0.3699 -0.7731  0.1823
  900MOL0     C21372   4.141  10.954   0.906  0.1779 -0.3439 -1.1058
  900MOL0     O21373   4.278  10.923   0.920 -0.3577 -0.3151 -0.3389
  900MOL0     C21374   4.370  11.024   0.969 -0.8370 -0.3453  0.1295
  900MOL0     C21375   4.510  10.956   0.986  0.5668 -0.8166  0.1627
  900MOL0     C21376   4.562  10.892   0.851 -0.9587  0.4597  0.1427
  900MOL0     C21377   4.710  10.843   0.855  0.2591  0.4303  0.6651
  900MOL0     C21378   4.755  10.823   0.712 -0.6471 -0.3955 -0.1029
  900MOL0     C21379   4.865  10.712   0.704  0.1791 -0.5794  0.1114
  900MOL0     C21380   5.006  10.749   0.771 -0.0449  0.3917  0.3127
  900MOL0     C21381   5.074  10.860   0.701  0.4117  0.0231 -0.0749
  900MOL0     N21382   5.205  10.880   0.763  1.4380  0.2446 -0.2679
  900MOL0     C21383   5.309  10.800   0.763  0.8897  0.2542  1.1431
  900MOL0     C21384   5.406  10.869   0.812  0.9948  0.4683  0.6833
  900MOL0     C21385   5.537  10.816   0.830 -0.7432 -0.4490  0.2478
  900MOL0     C21386   5.560  10.726   0.955 -0.8359 -0.0884  0.0397
  900MOL0     C21387   5.697  10.660   0.940  1.0617  0.5824  0.4795
  900MOL0     C21388   5.732  10.562   1.053 -0.2991  0.4499 -0.3044
  900MOL0     O21389   5.865  10.511   1.027 -0.0508 -0.2335  0.0495
  900MOL0     C21390   5.878  10.385   0.970 -0.4325 -0.0894  0.7292
  900MOL0     C21391   5.989  10.308   1.019 -0.0074 -0.5961  0.0430
  900MOL0     C21392   6.023  10.187   0.962  0.1174 -0.3465 -0.6786
  900MOL0     C21393   5.936  10.127   0.866 -0.2646  0.5715  0.1519
  900MOL0     C21394   5.971  10.003   0.806 -0.7347  0.2204  0.7634
  900MOL0     O21395   6.081   9.934   0.850 -0.3006  0.0513  0.2092
  900MOL0     C21396   6.082   9.801   0.824 -0.5639  0.2806  0.4122
  900MOL0     C21397   6.142   9.749   0.706  1.0113 -0.1375  0.9198
  900MOL0     C21398   6.152   9.617   0.684 -0.3959 -0.0076 -0.5923
  900MOL0     C21399   6.100   9.534   0.784 -0.1170 -0.0255  0.5616
  900MOL0     O21400   6.124   9.401   0.771  0.2454 -0.1677  0.1205
  900MOL0     C21401   6.018   9.310   0.810 -0.1012  0.7117  0.5628
  900MOL0     C21402   6.054   9.175   0.746 -0.1273 -0.0929  0.5114
  900MOL0     C21403   6.162   9.094   0.814  0.4091  0.4184 -0.3654
  900MOL0     C21404   6.303   9.102   0.740  0.2032 -0.2074  0.5028
  900MOL0     C21405   6.414   9.020   0.821 -0.6494  0.0497 -0.5315
  900MOL0     C21406   6.383   8.873   0.834  0.1318 -0.1486 -1.0330
  900MOL0     C21407   6.500   8.776   0.842 -0.0655 -0.4504 -0.5494
  900MOL0     C21408   6.462   8.627   0.820  0.1171 -0.2467  0.2469
  900MOL0    Cl21409   6.321   8.563   0.919 -0.0464  0.3179 -0.0726
  900MOL0     C21410   6.049   9.587   0.908 -0.2319 -0.3936 -0.1936
  900MOL0     C21411   6.043   9.721   0.925  0.3751  1.3946  0.2839
  900MOL0     O21412   5.888   9.959   0.721 -0.1763 -0.7019  0.5859
  900MOL0     C21413   5.814  10.194   0.838 -0.7495  0.4192  0.2063
  900MOL0     C21414   5.786  10.320   0.887  0.0132 -0.1660 -0.1880
  900MOL0     N21415   5.361  10.992   0.839 -0.4304 -0.6008 -0.9252
  900MOL0     N21416   5.240  11.006   0.808  0.3757  0.1328 -0.0855
  900MOL0     C21417   4.053  10.858   0.861 -0.4264  0.2830  0.1655
  900MOL0     C21418   3.922  10.878   0.840 -0.1049  0.1561  0.3041
  900MOL0     C21419   3.507  10.997   0.739 -0.2678 -0.5676 -0.3198
  900MOL0     C21420   3.417  10.899   0.688  0.7223  0.8749 -0.7739
  900MOL0     C21421   3.282  10.911   0.694  0.2365  0.0613  0.3771
  900MOL0     C21422   3.223  11.031   0.723  0.5758  0.0823  0.9153
  900MOL0     O21423   3.089  11.055   0.701 -0.3871  0.2162  0.5325
  900MOL0     C21424   2.994  10.964   0.754 -0.4300 -0.6201  0.7932
  900MOL0     C21425   2.862  11.045   0.791 -0.7271 -0.8470 -0.8645
  900MOL0     C21426   2.751  10.938   0.807 -0.3543 -0.5440  0.7034
  900MOL0     C21427   2.618  10.995   0.857 -0.3564 -1.2109 -0.2699
  900MOL0     C21428   2.577  11.100   0.765  0.2619 -0.2956  0.3038
  900MOL0     C21429   2.539  11.184   0.686 -0.6087 -0.3869 -0.5129
  900MOL0     C21430   3.304  11.133   0.765  0.0454 -0.0938 -0.2152
  900MOL0     C21431   3.441  11.114   0.780 -0.0179  0.1192  0.2568
  900MOL0     C21432   3.521  11.238   0.828  0.3101  0.2571  0.1874
  900MOL0     H21433   3.915  11.207   0.926  3.2085  1.9130 -0.7548
  900MOL0     H21434   4.153  11.161   0.967  1.3943 -1.2765 -0.3929
  900MOL0     H21435   4.377  11.095   0.886  1.9681 -2.5467 -1.7355
  900MOL0     H21436   4.353  11.069   1.067  3.5927  0.6385  0.6719
  900MOL0     H21437   4.488  10.876   1.057  0.6264 -1.8855 -0.9846
  900MOL0     H21438   4.579  11.030   1.027 -2.0437  0.8225  1.8799
  900MOL0     H21439   4.566  10.965   0.770 -1.3139 -0.6519 -0.8974
  900MOL0     H21440   4.494  10.818   0.808 -0.4110  0.2528 -0.3828
  900MOL0     H21441   4.770  10.916   0.912  2.2330 -1.2987  0.9218
  900MOL0     H21442   4.722  10.749   0.908  2.7074  0.9793  1.2092
  900MOL0     H21443   4.678  10.798   0.639 -0.3042 -1.3194 -0.1599
  900MOL0     H21444   4.792  10.918   0.671  1.3861 -0.4674  1.3941
  900MOL0     H21445   4.817  10.630   0.757 -0.7533  0.8791  1.6240
  900MOL0     H21446   4.864  10.695   0.596 -4.1555 -2.4586  0.2520
  900MOL0     H21447   5.059  10.654   0.763  0.1821  0.7024 -4.2170
  900MOL0     H21448   4.984  10.783   0.873 -1.5819  2.1317 -0.5609
  900MOL0     H21449   5.096  10.827   0.599  1.4892 -3.3194  1.1087
  900MOL0     H21450   5.033  10.962   0.700  0.1429 -0.0798 -1.0385
  900MOL0     H21451   5.315  10.699   0.724 -2.4655  0.8608 -1.4514
  900MOL0     H21452   5.558  10.764   0.736 -0.5006 -0.0232  0.0642
  900MOL0     H21453   5.611  10.897   0.829  0.1439 -1.2316  0.3840
  900MOL0     H21454   5.559  10.785   1.047 -2.2408 -0.6656  0.4296
  900MOL0     H21455   5.483  10.649   0.965 -1.9643  0.7753 -1.6424
  900MOL0     H21456   5.772  10.740   0.932 -0.3072  2.0284  1.5654
  900MOL0     H21457   5.712  10.601   0.849  1.9832 -0.2109  1.1241
  900MOL0     H21458   5.664  10.478   1.037  1.4746 -1.1004 -0.0482
  900MOL0     H21459   5.734  10.596   1.157  0.0610  2.0800 -0.8190
  900MOL0     H21460   6.046  10.361   1.094  0.3324 -0.4312 -0.3229
  900MOL0     H21461   6.108  10.137   1.008 -0.8690 -0.1434  1.5209
  900MOL0     H21462   6.167   9.823   0.631 -0.6676 -1.0934 -0.6749
  900MOL0     H21463   6.207   9.570   0.603 -0.5524 -1.9882  0.3920
  900MOL0     H21464   6.007   9.291   0.917 -3.2934 -2.8042 -0.1680
  900MOL0     H21465   5.920   9.345   0.778  0.0118  0.5957  0.0740
  900MOL0     H21466   5.965   9.113   0.734 -0.5374  0.9410 -2.4867
  900MOL0     H21467   6.078   9.202   0.643  1.6293  3.8004  1.7574
  900MOL0     H21468   6.178   9.140   0.912 -1.6649 -2.7326  1.6398
  900MOL0     H21469   6.131   8.993   0.840  0.8529 -0.0500 -1.5705
  900MOL0     H21470   6.331   9.207   0.734 -0.3746 -0.1242 -2.7942
  900MOL0     H21471   6.289   9.061   0.640  0.1572 -0.4184  0.5957
  900MOL0     H21472   6.442   9.067   0.915 -1.4175 -2.0146  0.7971
  900MOL0     H21473   6.498   9.034   0.753 -0.1740  0.3109  0.1109
  900MOL0     H21474   6.339   8.855   0.933  0.5766 -1.0717 -0.9896
  900MOL0     H21475   6.319   8.846   0.749 -0.4294  1.0211 -1.0039
  900MOL0     H21476   6.548   8.797   0.938  0.9286 -2.8268 -0.4623
  900MOL0     H21477   6.575   8.823   0.777  0.2144  5.2792  3.1880
  900MOL0     H21478   6.430   8.604   0.718 -2.5416 -0.7267  1.1121
  900MOL0     H21479   6.552   8.571   0.846  0.2057  0.1915  0.8938
  900MOL0     H21480   6.039   9.524   0.996  0.0492  0.9814  0.8406
  900MOL0     H21481   6.010   9.759   1.021 -0.7909  0.9531  0.0788
  900MOL0     H21482   5.741  10.152   0.769 -1.8741  1.6222  0.6095
  900MOL0     H21483   5.698  10.365   0.843 -2.4770 -3.7763  0.6529
  900MOL0     H21484   4.092  10.757   0.847 -0.0897  0.6929 -2.2707
  900MOL0     H21485   3.863  10.800   0.792 -0.2559  2.3543 -3.4283
  900MOL0     H21486   3.455  10.800   0.665 -0.7304 -0.0520  0.6686
  900MOL0     H21487   3.214  10.832   0.664  0.8591 -0.2105 -0.3633
  900MOL0     H21488   3.028  10.921   0.849  0.8725 -1.4445 -0.0232
  900MOL0     H21489   2.974  10.883   0.684 -0.6772  1.0082 -1.1286
  900MOL0     H21490   2.850  11.115   0.708 -0.3773  1.0491  0.6049
  900MOL0     H21491   2.863  11.105   0.883  0.1137  0.4394 -1.6749
  900MOL0     H21492   2.781  10.862   0.879  0.2733  0.1038  1.1431
  900MOL0     H21493   2.735  10.896   0.707 -0.2647  1.6116 -0.2861
  900MOL0     H21494   2.545  10.914   0.861 -0.3535 -1.4548 -2.9494
  900MOL0     H21495   2.644  11.039   0.954 -2.3011 -0.0956 -0.2047
  900MOL0     H21496   2.501  11.264   0.625  0.3160  0.4418 -0.0286
  900MOL0     H21497   3.261  11.229   0.793 -0.9824 -1.3509  3.0131
  900MOL0     H21498   3.552  11.236   0.933 -0.2875 -2.5225  0.3761
  900MOL0     H21499   3.607  11.247   0.761  1.0988 -1.2537  0.9621
  900MOL0     H21500   3.464  11.331   0.819 -3.8931 -2.0092  0.9446
  901MOL0     O21501   9.003   7.471  10.375  0.1202  0.4136  0.2581
  901MOL0     C21502   9.045   7.446  10.491 -0.7261 -0.2930  0.9903
  901MOL0     O21503   8.979   7.383  10.596  0.2229  0.3325 -0.1678
  901MOL0     C21504   8.858   7.324  10.584  0.8620  0.6512  0.6268
  901MOL0     C21505   8.765   7.338  10.684 -0.1698 -0.0898  0.1808
  901MOL0     C21506   8.627   7.289  10.681 -0.8742 -0.2959  0.4994
  901MOL0     C21507   8.585   7.215  10.577 -0.0047 -0.3363 -0.1716
  901MOL0     O21508   8.453   7.170  10.560 -0.0620 -0.9463  0.5329
  901MOL0     C21509   8.351   7.184  10.651  0.0510 -0.0404  1.0249
  901MOL0     C21510   8.250   7.070  10.634  1.0824 -0.9284 -0.1667
  901MOL0     C21511   8.288   6.933  10.669 -0.0216 -0.2650  0.1457
  901MOL0     C21512   8.434   6.906  10.717  0.0882 -0.2299 -0.4264
  901MOL0     C21513   8.450   6.761  10.763 -0.6093  0.3218 -0.0573
  901MOL0     C21514   8.543   6.773  10.878  0.6784  0.3210  0.3368
  901MOL0     C21515   8.573   6.637  10.942 -0.4443 -0.7304  0.6227
  901MOL0     C21516   8.452   6.593  11.031 -0.0837  0.3381  0.3652
  901MOL0     N21517   8.472   6.642  11.168 -0.0430  0.3999 -0.4576
  901MOL0     C21518   8.572   6.585  11.244 -0.2972 -0.0701 -0.2662
  901MOL0     C21519   8.551   6.633  11.363 -0.7132 -0.7603 -0.5861
  901MOL0     C21520   8.638   6.609  11.479  0.3605 -0.7167 -0.0786
  901MOL0     C21521   8.762   6.694  11.488 -0.5508 -0.1999 -0.1124
  901MOL0     C21522   8.888   6.613  11.449 -0.2637 -0.8541  0.8920
  901MOL0     C21523   9.009   6.719  11.446  0.0890  1.5384 -0.4250
  901MOL0     O21524   9.004   6.782  11.582  0.1355  0.4500 -0.0344
  901MOL0     C21525   9.120   6.772  11.643 -0.1577  0.0192  0.1879
  901MOL0     C21526   9.141   6.668  11.735 -0.2911 -0.6711  0.2545
  901MOL0     C21527   9.257   6.656  11.795 -0.6828 -0.2227  0.3944
  901MOL0     C21528   9.369   6.723  11.747 -1.8287 -0.8399 -0.2163
  901MOL0     C21529   9.502   6.691  11.798  0.3374  0.4984  1.2678
  901MOL0     O21530   9.615   6.730  11.719 -0.0484 -0.0772 -0.0382
  901MOL0     C21531   9.731   6.690  11.770 -0.5221  0.2534 -0.3872
  901MOL0     C21532   9.806   6.770  11.852  0.4193  0.1507  0.2724
  901MOL0     C21533   9.919   6.723  11.920 -0.0450 -0.4326 -0.5011
  901MOL0     C21534   9.964   6.587  11.896  1.0993  0.0912  0.4212
  901MOL0     O21535  10.071   6.522  11.957  0.8641 -0.5831 -0.5440
  901MOL0     C21536  10.117   6.573  12.089 -0.0557 -0.1235  0.3668
  901MOL0     C21537  10.165   6.458  12.179  0.2920 -0.3590 -0.5995
  901MOL0     C21538  10.308   6.418  12.133 -0.0909  0.7984 -0.1016
  901MOL0     C21539  10.369   6.313  12.236  0.1675  0.6923  0.7832
  901MOL0     C21540  10.522   6.303  12.241  0.5460  0.6707  0.4607
  901MOL0     C21541  10.580   6.227  12.121 -0.2387 -0.5266 -0.9494
  901MOL0     C21542  10.729   6.189  12.164  0.3601  0.2926  0.4772
  901MOL0     C21543  10.775   6.076  12.063 -0.0415 -0.0460  0.4019
  901MOL0    Cl21544  10.938   6.036  12.113  0.1380 -0.0511  0.2490
  901MOL0     C21545   9.892   6.512  11.803 -0.5631  0.0286 -0.5438
  901MOL0     C21546   9.774   6.557  11.740 -0.0327 -0.2919 -0.1428
  901MOL0     O21547   9.509   6.626  11.900  0.7435  0.2746 -0.1395
  901MOL0     C21548   9.352   6.821  11.650  0.8375 -0.2406  0.4413
  901MOL0     C21549   9.225   6.848  11.600  0.4731  0.2012  0.3031
  901MOL0     N21550   8.441   6.717  11.362 -0.0579 -0.9952 -0.4803
  901MOL0     N21551   8.391   6.718  11.245 -0.0454  0.4271  0.2662
  901MOL0     C21552   8.674   7.199  10.464  0.1870  0.4623  0.9328
  901MOL0     C21553   8.804   7.245  10.471 -0.2938 -0.3507 -0.8068
  901MOL0     C21554   9.187   7.483  10.515 -0.5586  0.5452  0.0112
  901MOL0     C21555   9.223   7.506  10.652  0.0328 -0.9130  0.0219
  901MOL0     C21556   9.351   7.541  10.679 -0.1228  0.1434  0.4950
  901MOL0     C21557   9.448   7.553  10.587 -0.1948  0.1313 -0.5746
  901MOL0     O21558   9.567   7.587  10.645  0.0417 -0.4097  0.0229
  901MOL0     C21559   9.681   7.585  10.558  0.2668 -0.1705 -0.1762
  901MOL0     C21560   9.728   7.437  10.534  0.5317  0.4328  0.2491
  901MOL0     C21561   9.812   7.443  10.402  0.2576  0.1434  0.4047
  901MOL0     C21562   9.811   7.312  10.319 -0.6765 -0.0669 -0.0603
  901MOL0     C21563   9.933   7.257  10.264 -0.4715  0.1802 -0.2909
  901MOL0     C21564  10.030   7.201  10.233 -0.7030 -0.7381  0.3223
  901MOL0     C21565   9.417   7.533  10.455  0.3456 -0.0755 -0.1587
  901MOL0     C21566   9.292   7.491  10.414 -0.2251  0.3751  0.0615
  901MOL0     C21567   9.271   7.470  10.270  1.1356  0.0055 -0.1763
  901MOL0     H21568   8.788   7.402  10.769  0.2170  2.5392 -1.7882
  901MOL0     H21569   8.562   7.328  10.760 -1.1039  0.7359 -0.1748
  901MOL0     H21570   8.395   7.174  10.751 -1.2315 -2.1385  1.4617
  901MOL0     H21571   8.294   7.276  10.643  1.1408  0.7746  2.3017
  901MOL0     H21572   8.213   7.081  10.531  0.0822  3.4660  0.4407
  901MOL0     H21573   8.157   7.097  10.683  0.6910 -0.8929 -0.9090
  901MOL0     H21574   8.285   6.870  10.580 -1.7793  1.2021 -0.9059
  901MOL0     H21575   8.216   6.889  10.739  0.1444  2.6987  2.4224
  901MOL0     H21576   8.514   6.921  10.644  1.7684  0.5511  1.4994
  901MOL0     H21577   8.449   6.977  10.798 -0.7422  1.0229 -1.3406
  901MOL0     H21578   8.366   6.706  10.807  0.4014 -0.8310  0.4683
  901MOL0     H21579   8.474   6.704  10.673  1.6552 -1.8254  1.7629
  901MOL0     H21580   8.633   6.824  10.842 -0.7998  2.8813  0.0249
  901MOL0     H21581   8.501   6.838  10.955  0.9711  0.0859  0.7000
  901MOL0     H21582   8.658   6.649  11.010 -0.9834  0.8553  1.0612
  901MOL0     H21583   8.612   6.558  10.878  1.5749  0.5583  0.1681
  901MOL0     H21584   8.359   6.630  10.986  1.2418  0.8763 -2.1406
  901MOL0     H21585   8.443   6.485  11.040  1.4066  0.1668  0.0835
  901MOL0     H21586   8.651   6.524  11.201 -1.1688 -1.8234  0.5378
  901MOL0     H21587   8.586   6.625  11.574  0.6187  3.7348 -0.4896
  901MOL0     H21588   8.667   6.504  11.470  0.6976 -0.7729  1.4478
  901MOL0     H21589   8.762   6.781  11.422 -1.4291 -1.3934 -1.7514
  901MOL0     H21590   8.785   6.719  11.592  3.7348 -0.8786 -0.7485
  901MOL0     H21591   8.882   6.582  11.344  0.0605  3.4955 -0.5935
  901MOL0     H21592   8.911   6.528  11.514  1.3770  0.7408  2.5285
  901MOL0     H21593   8.986   6.802  11.378  1.0791  3.0152  0.9475
  901MOL0     H21594   9.105   6.671  11.422 -2.1313 -3.0709 -1.1102
  901MOL0     H21595   9.047   6.623  11.765  0.0618 -1.0853  0.7351
  901MOL0     H21596   9.272   6.588  11.878  0.4908  1.5368  1.6999
  901MOL0     H21597   9.773   6.873  11.866  2.5089  0.8910  0.0509
  901MOL0     H21598   9.983   6.776  11.990 -1.3380 -0.3151  0.6516
  901MOL0     H21599  10.209   6.628  12.067 -0.0748 -0.5746 -0.9471
  901MOL0     H21600  10.038   6.625  12.143 -0.2614 -0.5106  0.4464
  901MOL0     H21601  10.170   6.498  12.281 -0.3238  1.1671 -1.1297
  901MOL0     H21602  10.098   6.372  12.184  2.6346 -2.3243 -0.9869
  901MOL0     H21603  10.299   6.367  12.037  2.1884 -1.7299  0.8962
  901MOL0     H21604  10.363   6.512  12.122  0.2393  0.5194 -0.8753
  901MOL0     H21605  10.323   6.215  12.221  0.1285  0.5990  1.5010
  901MOL0     H21606  10.335   6.342  12.336 -2.3499 -1.3679  0.6218
  901MOL0     H21607  10.549   6.262  12.339 -1.2380 -0.8621  0.3719
  901MOL0     H21608  10.554   6.407  12.232 -1.7581  1.2611 -2.2937
  901MOL0     H21609  10.514   6.141  12.108 -0.2821 -0.9276  1.3998
  901MOL0     H21610  10.571   6.293  12.035  0.4395  0.7647 -0.0629
  901MOL0     H21611  10.745   6.149  12.265  3.1248  2.4529  1.0102
  901MOL0     H21612  10.788   6.280  12.154  0.3544  0.3702  1.0973
  901MOL0     H21613  10.716   5.986  12.084  0.9361 -1.2727 -1.8101
  901MOL0     H21614  10.768   6.104  11.958  0.0582 -2.2780 -0.2382
  901MOL0     H21615   9.918   6.407  11.789 -1.8818 -0.2245 -1.2593
  901MOL0     H21616   9.716   6.492  11.676  0.9445 -0.5228 -0.8142
  901MOL0     H21617   9.434   6.868  11.596  0.5479 -0.8079 -0.5118
  901MOL0     H21618   9.222   6.936  11.536 -0.7263  0.4779  0.7028
  901MOL0     H21619   8.647   7.144  10.373  2.7589 -0.6797  0.7861
  901MOL0     H21620   8.871   7.238  10.386  0.9666  2.3759 -0.1505
  901MOL0     H21621   9.154   7.492  10.734 -0.1493 -0.7296 -0.0997
  901MOL0     H21622   9.378   7.557  10.783 -2.0125 -1.5061  1.3184
  901MOL0     H21623   9.769   7.629  10.608  3.3296 -4.8928 -0.8002
  901MOL0     H21624   9.664   7.642  10.466 -0.5565  1.2678  0.8201
  901MOL0     H21625   9.646   7.367  10.518 -0.0171  1.3714 -1.2119
  901MOL0     H21626   9.793   7.406  10.617 -1.1573  0.9625  1.8347
  901MOL0     H21627   9.916   7.455  10.435 -0.3874 -2.0932  3.7755
  901MOL0     H21628   9.763   7.512  10.333 -0.4544 -1.0568 -0.3187
  901MOL0     H21629   9.789   7.232  10.390  1.0246 -1.6573 -1.2312
  901MOL0     H21630   9.736   7.303  10.240 -1.6928 -0.6277  0.9397
  901MOL0     H21631  10.111   7.139  10.201  1.7116  2.3561 -0.1372
  901MOL0     H21632   9.497   7.544  10.383  0.1711  0.9190 -0.2189
  901MOL0     H21633   9.187   7.406  10.242 -1.3158  2.7327  0.4664
  901MOL0     H21634   9.249   7.569  10.229 -1.0016 -0.0894  0.5864
  901MOL0     H21635   9.360   7.433  10.220  0.9908  1.5930 -1.7104
  902MOL0     O21636   9.764   5.298  10.739 -0.5784  0.1729  0.0136
  902MOL0     C21637   9.867   5.300  10.669  0.4604 -0.1450  0.5484
  902MOL0     O21638   9.885   5.234  10.558  0.4307 -0.4470  1.0517
  902MOL0     C21639   9.776   5.153  10.515 -0.6057 -0.2370  0.1449
  902MOL0     C21640   9.670   5.216  10.450 -0.4379 -0.4763  0.0348
  902MOL0     C21641   9.557   5.144  10.416 -0.3554  0.0317 -0.0493
  902MOL0     C21642   9.551   5.003  10.431 -0.0002 -0.5907 -0.7446
  902MOL0     O21643   9.451   4.927  10.378  0.2672 -0.1068 -0.4288
  902MOL0     C21644   9.355   4.988  10.289  1.5339  0.5564  0.7431
  902MOL0     C21645   9.253   4.878  10.231 -0.0064  0.7999  0.2539
  902MOL0     C21646   9.324   4.798  10.125 -0.6302 -0.1981  0.6377
  902MOL0     C21647   9.377   4.664  10.173  0.9879 -0.7894  0.5226
  902MOL0     C21648   9.532   4.660  10.171 -0.4379 -0.2106  0.3239
  902MOL0     C21649   9.574   4.542  10.252  0.0155 -0.9170  0.6701
  902MOL0     C21650   9.724   4.520  10.229 -0.4621 -0.0280  0.3351
  902MOL0     C21651   9.741   4.437  10.097 -0.3691  0.2908 -0.5591
  902MOL0     N21652   9.885   4.428  10.062  0.2838  0.2305  1.0815
  902MOL0     C21653   9.937   4.493   9.956  0.4936  0.7259 -0.0955
  902MOL0     C21654  10.061   4.448   9.948 -1.0290  0.0474 -0.7341
  902MOL0     C21655  10.187   4.462   9.860 -0.5605 -0.8579 -0.6347
  902MOL0     C21656  10.145   4.433   9.715 -0.5215 -0.0252 -0.0660
  902MOL0     C21657  10.262   4.421   9.615  0.3537  0.1179  0.3997
  902MOL0     C21658  10.398   4.497   9.652 -0.5525  0.5906  0.1280
  902MOL0     O21659  10.386   4.640   9.627 -0.3601 -0.3319 -0.5387
  902MOL0     C21660  10.504   4.715   9.617  0.0859  0.1038 -0.4773
  902MOL0     C21661  10.492   4.844   9.564  0.7301 -1.3375  0.4336
  902MOL0     C21662  10.602   4.935   9.562 -0.8365  0.5192  1.1671
  902MOL0     C21663  10.721   4.895   9.621  0.3560 -0.2524 -0.0817
  902MOL0     C21664  10.835   4.984   9.632 -0.1038 -0.3119  0.3284
  902MOL0     O21665  10.826   5.100   9.559  0.8796 -0.1794  0.1283
  902MOL0     C21666  10.941   5.177   9.532 -0.2308 -1.0514 -0.2414
  902MOL0     C21667  10.964   5.282   9.619 -0.5675 -0.7616 -0.5418
  902MOL0     C21668  11.095   5.340   9.619  0.2178 -0.0123  0.4619
  902MOL0     C21669  11.186   5.307   9.521  0.0704  0.2739 -0.0034
  902MOL0     O21670  11.295   5.382   9.498  0.1650  0.0023  0.0325
  902MOL0     C21671  11.389   5.396   9.606  0.0527  0.5341 -0.4989
  902MOL0     C21672  11.531   5.396   9.552 -0.3703  0.1647  0.4693
  902MOL0     C21673  11.635   5.457   9.646 -0.4875 -0.1269  0.2790
  902MOL0     C21674  11.640   5.393   9.783 -0.6072 -0.1748  0.9090
  902MOL0     C21675  11.755   5.444   9.873  0.3486 -0.2460  0.8379
  902MOL0     C21676  11.747   5.393  10.012 -0.3587 -0.3986  0.8530
  902MOL0     C21677  11.784   5.244  10.026  0.1469  0.3730 -0.0808
  902MOL0     C21678  11.918   5.215  10.101  0.7542 -0.2058 -0.1739
  902MOL0    Cl21679  11.924   5.043  10.158 -0.5034 -0.1339 -0.1072
  902MOL0     C21680  11.159   5.215   9.419  0.6195  0.5043  0.2625
  902MOL0     C21681  11.039   5.138   9.437 -0.6998  0.6749 -0.1074
  902MOL0     O21682  10.932   4.943   9.689  0.1905 -0.4589 -0.1584
  902MOL0     C21683  10.729   4.769   9.678 -0.0529 -0.3526 -0.1453
  902MOL0     C21684  10.625   4.672   9.666 -0.3697 -0.7024 -0.6272
  902MOL0     N21685  10.074   4.360  10.058 -0.4801 -0.7184 -0.0683
  902MOL0     N21686   9.966   4.340  10.120  0.0293  0.1805 -0.1522
  902MOL0     C21687   9.660   4.941  10.493 -0.0791 -0.1048  0.4961
  902MOL0     C21688   9.774   5.015  10.532 -0.0132 -0.6884 -0.0957
  902MOL0     C21689   9.983   5.376  10.724  0.8102  0.1654  0.5201
  902MOL0     C21690  10.103   5.386  10.646 -0.0061  1.1232  0.0041
  902MOL0     C21691  10.212   5.450  10.692  0.2096 -0.1432 -0.5853
  902MOL0     C21692  10.205   5.522  10.812 -0.2618  0.7083  0.6250
  902MOL0     O21693  10.307   5.605  10.850  0.1777  0.6713 -0.2596
  902MOL0     C21694  10.314   5.679  10.976 -0.0289 -0.0821  0.8920
  902MOL0     C21695  10.437   5.750  10.983 -0.0422  0.2229 -0.2187
  902MOL0     C21696  10.554   5.656  10.990 -0.1528  0.1564 -0.0335
  902MOL0     C21697  10.685   5.724  10.963  0.2881 -0.2431 -0.2042
  902MOL0     C21698  10.723   5.818  11.072 -0.2386 -0.2780  0.2857
  902MOL0     C21699  10.741   5.899  11.163  0.0874  0.0661  0.5995
  902MOL0     C21700  10.084   5.521  10.879 -0.1869  0.7352 -0.0428
  902MOL0     C21701   9.967   5.463  10.833  0.5615  0.3577 -0.1812
  902MOL0     C21702   9.846   5.495  10.917  0.5657 -0.9840  0.5032
  902MOL0     H21703   9.684   5.319  10.420  1.9526 -0.7383  0.0817
  902MOL0     H21704   9.466   5.196  10.386 -0.8992 -1.9782 -2.2472
  902MOL0     H21705   9.295   5.059  10.347 -0.8585 -0.9953  0.3146
  902MOL0     H21706   9.407   5.042  10.209 -0.5560  1.2384 -0.2142
  902MOL0     H21707   9.171   4.935  10.186  0.6670  3.0698  1.7616
  902MOL0     H21708   9.221   4.808  10.309  0.2017  0.7273  0.2744
  902MOL0     H21709   9.400   4.859  10.076 -1.8959  1.3072  0.4620
  902MOL0     H21710   9.244   4.775  10.054 -0.2582  0.9394 -0.1800
  902MOL0     H21711   9.340   4.649  10.274  4.0356 -0.6093  1.7731
  902MOL0     H21712   9.341   4.587  10.104 -1.3298  0.0191  0.7550
  902MOL0     H21713   9.565   4.652  10.067  0.0235  0.3469  0.4280
  902MOL0     H21714   9.576   4.751  10.212 -0.5096 -0.9663  2.1491
  902MOL0     H21715   9.554   4.569  10.356 -0.5301  1.5503 -0.0113
  902MOL0     H21716   9.516   4.452  10.233 -2.0087  0.3597  0.4823
  902MOL0     H21717   9.762   4.466  10.316  1.8792  2.1809  0.7983
  902MOL0     H21718   9.776   4.615  10.223  1.0759 -0.7723  1.3974
  902MOL0     H21719   9.694   4.340  10.116 -1.2768  0.5932 -1.2035
  902MOL0     H21720   9.677   4.480  10.019  1.2370 -0.0096 -2.0995
  902MOL0     H21721   9.897   4.565   9.886  0.8483  1.3969  0.3813
  902MOL0     H21722  10.223   4.565   9.872  0.5099 -1.4293  1.4942
  902MOL0     H21723  10.268   4.393   9.884 -0.9805 -0.8425  0.9287
  902MOL0     H21724  10.102   4.332   9.708 -1.8816  0.4519  1.0527
  902MOL0     H21725  10.068   4.505   9.690  0.6135  0.4104 -2.7107
  902MOL0     H21726  10.218   4.448   9.519  2.4936 -1.5321 -1.1413
  902MOL0     H21727  10.283   4.313   9.620 -0.3403 -0.0182  0.5984
  902MOL0     H21728  10.483   4.460   9.594  0.0990 -0.1592  1.5145
  902MOL0     H21729  10.415   4.478   9.758 -3.4564  1.3966  0.8240
  902MOL0     H21730  10.393   4.870   9.529  1.0811 -1.7457 -0.9233
  902MOL0     H21731  10.575   5.032   9.521  1.3925 -0.0204 -1.9339
  902MOL0     H21732  10.888   5.300   9.694 -1.9109 -0.1621 -1.9850
  902MOL0     H21733  11.121   5.414   9.694 -1.5631  0.2108  0.9036
  902MOL0     H21734  11.365   5.483   9.666 -1.2179 -0.9315  1.2358
  902MOL0     H21735  11.382   5.310   9.673 -0.0185 -1.9353 -3.4461
  902MOL0     H21736  11.560   5.292   9.534  0.6904  0.9135 -2.9477
  902MOL0     H21737  11.533   5.432   9.449  3.4395  1.6773  0.9302
  902MOL0     H21738  11.737   5.449   9.605 -0.2568  1.1587  0.5527
  902MOL0     H21739  11.625   5.565   9.659  2.7587  0.4972 -1.2304
  902MOL0     H21740  11.653   5.287   9.761  0.7257  0.0245  0.6335
  902MOL0     H21741  11.546   5.402   9.839 -1.3188 -3.5221  0.4576
  902MOL0     H21742  11.757   5.553   9.881  2.0042 -0.2853  1.2680
  902MOL0     H21743  11.853   5.413   9.836  0.9728  1.0129  1.3793
  902MOL0     H21744  11.821   5.455  10.064  0.1865  0.5843 -0.9967
  902MOL0     H21745  11.645   5.409  10.049 -1.3947 -1.6193 -1.2945
  902MOL0     H21746  11.801   5.193   9.931  1.5925  0.0932  0.3145
  902MOL0     H21747  11.702   5.183  10.065  0.1951 -2.3415 -3.6765
  902MOL0     H21748  11.990   5.244  10.024 -1.8960  1.4973 -2.1867
  902MOL0     H21749  11.911   5.278  10.191 -1.5551  0.6385 -0.8755
  902MOL0     H21750  11.225   5.179   9.341  1.4262  1.0472  0.6920
  902MOL0     H21751  11.048   5.047   9.379  0.3467  1.0775 -0.6037
  902MOL0     H21752  10.816   4.739   9.737  0.1399  0.0572 -0.2209
  902MOL0     H21753  10.635   4.578   9.718 -2.0293 -1.0447 -0.8742
  902MOL0     H21754   9.654   4.836  10.520  0.6563 -0.3363 -0.2222
  902MOL0     H21755   9.856   4.973  10.590  0.1764  0.2005  0.2984
  902MOL0     H21756  10.140   5.333  10.559  0.6893  0.9368  0.4009
  902MOL0     H21757  10.302   5.440  10.632  0.2037 -0.8946 -0.4701
  902MOL0     H21758  10.294   5.614  11.061 -1.2634 -0.9694 -0.0362
  902MOL0     H21759  10.226   5.743  10.971 -0.8084 -1.1852 -0.7547
  902MOL0     H21760  10.449   5.806  11.076  2.6131 -1.1861  0.3735
  902MOL0     H21761  10.438   5.819  10.897  0.6203  1.2513  0.5943
  902MOL0     H21762  10.541   5.569  10.925 -0.0127 -0.1421  0.3335
  902MOL0     H21763  10.554   5.625  11.095  0.5670 -1.5746 -0.5242
  902MOL0     H21764  10.764   5.651  10.943  1.3416  1.0546 -0.9162
  902MOL0     H21765  10.664   5.788  10.878 -0.5746  1.2331  1.0655
  902MOL0     H21766  10.756   5.972  11.240  0.9955  1.0030 -0.4284
  902MOL0     H21767  10.076   5.563  10.979  1.5830  0.0760  0.4125
  902MOL0     H21768   9.816   5.407  10.973 -3.2423 -0.3448 -0.2484
  902MOL0     H21769   9.860   5.571  10.994 -1.4790  1.2675 -1.1765
  902MOL0     H21770   9.764   5.536  10.857  1.6774 -1.4877 -1.4471
  903MOL0     O21771   7.128  10.782   6.487 -0.2030 -0.6352  0.6056
  903MOL0     C21772   7.023  10.735   6.521 -0.4025 -0.1145  0.7551
  903MOL0     O21773   6.905  10.801   6.509  0.4225  0.6701 -1.0228
  903MOL0     C21774   6.901  10.927   6.461  0.1831  0.2812  0.6295
  903MOL0     C21775   6.781  10.960   6.399  0.3623 -0.6754  0.5782
  903MOL0     C21776   6.748  11.085   6.351  0.3691  0.8205  0.2635
  903MOL0     C21777   6.834  11.186   6.382 -0.5729  0.0264  0.4210
  903MOL0     O21778   6.787  11.314   6.356 -0.6355  0.3289  0.4189
  903MOL0     C21779   6.873  11.423   6.385 -0.2976 -0.7381  0.3978
  903MOL0     C21780   6.994  11.421   6.283  0.7322 -0.2784  0.2048
  903MOL0     C21781   7.112  11.489   6.338 -0.2840  0.1920  0.2022
  903MOL0     C21782   7.224  11.492   6.228 -0.3347 -0.2193  0.2048
  903MOL0     C21783   7.350  11.563   6.285  0.3799  0.2842  0.3523
  903MOL0     C21784   7.448  11.565   6.173 -0.2583 -0.2649 -0.2563
  903MOL0     C21785   7.582  11.613   6.221 -0.0810 -0.9985 -0.6044
  903MOL0     C21786   7.677  11.634   6.111  0.0072 -0.3394  0.3373
  903MOL0     N21787   7.816  11.659   6.141 -0.2043 -0.2748  0.3073
  903MOL0     C21788   7.873  11.756   6.233  0.5187  0.0376 -0.0203
  903MOL0     C21789   8.010  11.735   6.226  1.1739 -0.1000 -0.3389
  903MOL0     C21790   8.122  11.816   6.292 -0.4132  0.1233 -0.1973
  903MOL0     C21791   8.151  11.948   6.216  1.0708 -0.5883  0.2411
  903MOL0     C21792   8.205  11.942   6.077  0.8118  0.2600  0.3878
  903MOL0     C21793   8.358  11.938   6.073  0.0251  0.6391 -0.9108
  903MOL0     O21794   8.418  11.845   6.161  0.1586  0.0055 -0.9995
  903MOL0     C21795   8.538  11.888   6.213  0.5939 -0.0178  0.3160
  903MOL0     C21796   8.543  11.991   6.303  0.1217 -0.3486  0.2452
  903MOL0     C21797   8.659  12.043   6.340 -0.4648  0.3618  0.8222
  903MOL0     C21798   8.783  11.996   6.291  0.9908 -0.0381 -1.4872
  903MOL0     C21799   8.903  12.046   6.356  1.6557 -0.4978  1.1726
  903MOL0     O21800   9.018  12.011   6.291  0.5676 -0.0180 -0.3268
  903MOL0     C21801   9.135  12.058   6.350  0.9612 -0.1873  0.1126
  903MOL0     C21802   9.158  12.194   6.366 -0.3014  0.6791  0.1877
  903MOL0     C21803   9.281  12.240   6.406 -0.2677 -0.4242 -0.2331
  903MOL0     C21804   9.394  12.150   6.440  0.1065  0.4541  0.3265
  903MOL0     O21805   9.515  12.182   6.489 -0.1339 -0.5449  0.6696
  903MOL0     C21806   9.588  12.293   6.440  0.7163 -1.4301 -0.0202
  903MOL0     C21807   9.690  12.335   6.537 -0.8342  0.2455 -1.2530
  903MOL0     C21808   9.770  12.452   6.480 -0.4832  0.1137 -0.4935
  903MOL0     C21809   9.871  12.515   6.581 -0.4532 -0.2908 -0.6154
  903MOL0     C21810   9.924  12.654   6.568  0.7204  0.0102 -0.6627
  903MOL0     C21811  10.045  12.683   6.661  0.0208 -0.3881  0.1992
  903MOL0     C21812   9.999  12.709   6.805  0.6462  0.7246  0.2184
  903MOL0     C21813  10.106  12.745   6.899 -0.3886 -0.2194  0.3278
  903MOL0    Cl21814  10.067  12.910   6.967  0.2217 -0.4971  0.0578
  903MOL0     C21815   9.365  12.012   6.412  0.2719 -0.8234  0.0857
  903MOL0     C21816   9.235  11.968   6.373 -0.5137 -0.6397 -0.0689
  903MOL0     O21817   8.886  12.112   6.457 -0.0433  0.0247  0.2023
  903MOL0     C21818   8.783  11.893   6.206  0.3368 -0.0202 -0.1958
  903MOL0     C21819   8.659  11.831   6.166  1.0489  0.1969  0.3071
  903MOL0     N21820   8.022  11.631   6.136 -0.3256 -0.1460  0.0861
  903MOL0     N21821   7.915  11.588   6.082  0.5537 -0.6022 -0.3018
  903MOL0     C21822   6.955  11.159   6.457 -0.1152 -0.6431  0.3867
  903MOL0     C21823   6.986  11.027   6.494 -0.0415  0.0998 -1.0053
  903MOL0     C21824   7.018  10.608   6.589 -0.1671  0.7767 -0.0735
  903MOL0     C21825   6.890  10.543   6.583  0.3056  0.0724  0.6300
  903MOL0     C21826   6.874  10.424   6.657  0.2846 -0.9354  0.3794
  903MOL0     C21827   6.976  10.369   6.739 -0.4463  0.2620 -0.3786
  903MOL0     O21828   6.964  10.252   6.806  0.2829  0.0532  0.0255
  903MOL0     C21829   6.845  10.223   6.882 -0.2499 -0.4922 -0.7178
  903MOL0     C21830   6.753  10.115   6.829  0.6205  0.4964  0.1031
  903MOL0     C21831   6.814   9.968   6.831 -0.1376  0.9814 -0.8122
  903MOL0     C21832   6.725   9.876   6.750 -0.1142 -0.5249  0.9994
  903MOL0     C21833   6.780   9.741   6.752  0.2920  0.1883  0.4499
  903MOL0     C21834   6.820   9.629   6.772  0.3351  0.5949 -0.7105
  903MOL0     C21835   7.107  10.427   6.732  0.5044  0.9050  0.6303
  903MOL0     C21836   7.126  10.557   6.674  0.3972  0.6242 -0.1188
  903MOL0     C21837   7.258  10.636   6.697  0.3287  0.7645  0.6330
  903MOL0     H21838   6.710  10.881   6.379  2.7766 -2.5581 -1.2019
  903MOL0     H21839   6.658  11.109   6.295  1.2617  2.1245 -0.6647
  903MOL0     H21840   6.821  11.519   6.388 -2.3561 -1.7909  3.3201
  903MOL0     H21841   6.897  11.412   6.491 -0.1464 -0.8653  0.3504
  903MOL0     H21842   6.960  11.472   6.192  0.3889 -2.3981 -0.9067
  903MOL0     H21843   7.019  11.319   6.253  0.7233 -0.2769  0.1929
  903MOL0     H21844   7.138  11.428   6.426  0.3209 -0.0032 -0.1085
  903MOL0     H21845   7.085  11.591   6.367  1.1150  0.1135  1.9321
  903MOL0     H21846   7.252  11.389   6.206  1.5492 -0.2747  2.4506
  903MOL0     H21847   7.186  11.539   6.137 -0.4346 -2.5449 -1.0179
  903MOL0     H21848   7.321  11.664   6.314  1.5648  0.3959  1.2170
  903MOL0     H21849   7.400  11.510   6.367  0.9723 -4.7510 -2.8254
  903MOL0     H21850   7.477  11.464   6.143  2.7803  0.1956  0.7167
  903MOL0     H21851   7.409  11.614   6.084  3.9869 -0.6871 -2.6545
  903MOL0     H21852   7.632  11.540   6.285 -4.0020 -3.2062  0.2943
  903MOL0     H21853   7.578  11.709   6.274 -0.2144 -0.3543 -1.7564
  903MOL0     H21854   7.663  11.548   6.045 -2.6874  0.3260 -0.0872
  903MOL0     H21855   7.641  11.717   6.050 -2.9323 -0.7197  1.4085
  903MOL0     H21856   7.815  11.835   6.280  0.0391 -0.0609 -0.4336
  903MOL0     H21857   8.096  11.823   6.399 -1.1660 -1.9539 -0.1810
  903MOL0     H21858   8.216  11.761   6.285 -0.6868 -0.2280 -1.2800
  903MOL0     H21859   8.063  12.013   6.217 -0.4814 -2.6012  0.6627
  903MOL0     H21860   8.225  11.997   6.281 -0.7712  0.1617  1.8627
  903MOL0     H21861   8.166  12.026   6.017  1.5721 -1.0432 -2.0645
  903MOL0     H21862   8.166  11.853   6.028  0.8654  0.2241  0.4110
  903MOL0     H21863   8.391  12.036   6.108  0.5301 -0.3967  1.7502
  903MOL0     H21864   8.394  11.920   5.971  0.6853 -2.0663 -0.2575
  903MOL0     H21865   8.455  12.047   6.333 -2.8157 -5.4064  2.3540
  903MOL0     H21866   8.664  12.124   6.413 -1.6255  0.4194  0.8560
  903MOL0     H21867   9.088  12.273   6.343  1.2443  1.6422 -1.4442
  903MOL0     H21868   9.295  12.346   6.421  3.4155 -1.0605  1.9910
  903MOL0     H21869   9.622  12.266   6.340  3.0705  0.6977  0.0992
  903MOL0     H21870   9.530  12.383   6.423  0.7506 -1.3146  0.4682
  903MOL0     H21871   9.653  12.352   6.639 -1.8004 -1.8948 -1.2001
  903MOL0     H21872   9.758  12.249   6.544 -1.2683 -0.0176  0.3626
  903MOL0     H21873   9.820  12.425   6.387 -0.7573  0.9110 -0.8898
  903MOL0     H21874   9.707  12.537   6.450 -0.4932  1.4979  2.9345
  903MOL0     H21875   9.954  12.445   6.573  1.0789  1.5332 -1.2483
  903MOL0     H21876   9.826  12.511   6.681 -2.3500 -1.6715 -1.4607
  903MOL0     H21877   9.844  12.725   6.590  3.0323  2.1862  1.2468
  903MOL0     H21878   9.946  12.661   6.461  2.4185  0.5965 -0.2994
  903MOL0     H21879  10.126  12.610   6.649 -0.4479 -0.4479 -4.2968
  903MOL0     H21880  10.086  12.772   6.612 -0.1136 -2.6378 -4.6517
  903MOL0     H21881   9.948  12.621   6.845 -0.6888  2.3922  2.4736
  903MOL0     H21882   9.922  12.787   6.802 -1.9309 -1.3552  3.6286
  903MOL0     H21883  10.122  12.674   6.980 -2.0273 -0.7809  0.1835
  903MOL0     H21884  10.203  12.751   6.848 -0.1400 -0.3245  0.7790
  903MOL0     H21885   9.446  11.945   6.435  1.8013  0.4537 -1.2782
  903MOL0     H21886   9.204  11.864   6.375 -1.9272 -0.2312  0.2081
  903MOL0     H21887   8.870  11.836   6.174 -2.1811 -2.8480 -2.6600
  903MOL0     H21888   8.662  11.741   6.105 -0.7066 -0.5034  1.1822
  903MOL0     H21889   7.024  11.237   6.489 -0.4861 -0.4829  0.8023
  903MOL0     H21890   7.064  11.009   6.568 -2.1632 -0.3571  1.2364
  903MOL0     H21891   6.809  10.581   6.521  0.4912 -1.8628 -0.8985
  903MOL0     H21892   6.775  10.381   6.648 -2.1770  4.2574 -2.1462
  903MOL0     H21893   6.785  10.315   6.882 -2.8135 -2.0490  0.9289
  903MOL0     H21894   6.869  10.205   6.987 -2.1982 -1.3709 -0.3825
  903MOL0     H21895   6.718  10.145   6.729  1.1888 -0.2165 -0.3188
  903MOL0     H21896   6.666  10.109   6.896 -0.8812 -1.0620 -1.8524
  903MOL0     H21897   6.803   9.920   6.928 -0.7709  0.1810 -1.2650
  903MOL0     H21898   6.916   9.975   6.791  0.0693 -0.5589 -0.5946
  903MOL0     H21899   6.628   9.876   6.800  0.0709  0.1512  1.3781
  903MOL0     H21900   6.718   9.910   6.646  1.5830  0.4592  1.1556
  903MOL0     H21901   6.836   9.527   6.800 -0.1417  0.0287 -2.3550
  903MOL0     H21902   7.189  10.380   6.784 -1.0585  0.5124  2.9022
  903MOL0     H21903   7.324  10.635   6.609 -1.5721 -0.3920 -0.8531
  903MOL0     H21904   7.242  10.743   6.708 -0.1056  0.6218  1.4676
  903MOL0     H21905   7.305  10.594   6.786  0.8227 -1.6074 -0.6484
  904MOL0     O21906   0.177  11.184   1.619  0.0522 -0.1678 -0.1787
  904MOL0     C21907   0.227  11.098   1.553 -0.5470 -0.1091  0.8394
  904MOL0     O21908   0.183  10.976   1.538 -0.2966 -0.1964 -0.8525
  904MOL0     C21909   0.070  10.939   1.608  0.9650  0.4585 -0.3749
  904MOL0     C21910  -0.063  10.979   1.574  0.1785 -0.6346 -0.0667
  904MOL0     C21911  -0.173  10.915   1.635 -0.3898 -0.2246  0.2802
  904MOL0     C21912  -0.152  10.823   1.740  0.0059  1.2379 -0.1756
  904MOL0     O21913  -0.260  10.777   1.817  0.0956  0.1309  0.1728
  904MOL0     C21914  -0.249  10.653   1.887  0.7973 -0.2472 -0.2969
  904MOL0     C21915  -0.397  10.601   1.901 -0.4535  0.3064  0.9436
  904MOL0     C21916  -0.415  10.462   1.830 -0.2743 -0.3129 -0.1398
  904MOL0     C21917  -0.556  10.399   1.867 -0.3975 -0.8302  0.0853
  904MOL0     C21918  -0.618  10.315   1.754  0.9345 -1.1236  0.1076
  904MOL0     C21919  -0.594  10.166   1.773  0.3734 -0.4784 -0.1855
  904MOL0     C21920  -0.457  10.119   1.711 -0.1892  0.4834 -0.1894
  904MOL0     C21921  -0.454   9.959   1.721 -0.0537 -0.5119 -0.4721
  904MOL0     N21922  -0.343   9.897   1.656 -0.5594  0.3718 -0.2888
  904MOL0     C21923  -0.327   9.906   1.524 -0.4265  0.7636  0.5429
  904MOL0     C21924  -0.265   9.790   1.491 -0.3789 -0.3036 -0.3449
  904MOL0     C21925  -0.244   9.732   1.350  0.2244  0.8286 -0.2621
  904MOL0     C21926  -0.095   9.712   1.327  0.7119 -0.0530 -0.8399
  904MOL0     C21927  -0.068   9.717   1.176 -0.2268  0.6866 -0.6220
  904MOL0     C21928   0.074   9.664   1.160 -0.6982 -0.1943  0.7494
  904MOL0     O21929   0.145   9.752   1.078  0.9089 -0.1360  0.0993
  904MOL0     C21930   0.284   9.733   1.066  0.8972  0.2749 -0.4590
  904MOL0     C21931   0.364   9.616   1.107  0.7106  0.0434  0.6842
  904MOL0     C21932   0.507   9.617   1.087  0.7334  0.2717  0.1872
  904MOL0     C21933   0.569   9.723   1.033 -0.3345 -0.5816  0.2552
  904MOL0     C21934   0.714   9.735   1.020 -0.1251  0.3237  0.6608
  904MOL0     O21935   0.784   9.850   1.038  0.1689  0.2362 -0.5391
  904MOL0     C21936   0.918   9.849   1.086  0.6662 -0.4295  0.5556
  904MOL0     C21937   1.010   9.739   1.106  0.6411 -0.3850  0.5421
  904MOL0     C21938   1.143   9.766   1.149 -0.0920  0.3162 -1.1899
  904MOL0     C21939   1.193   9.894   1.172 -0.2915 -0.0795 -0.0438
  904MOL0     O21940   1.318   9.918   1.227  0.2272 -0.1144  0.3608
  904MOL0     C21941   1.393   9.811   1.287 -0.0512  0.8016 -0.3694
  904MOL0     C21942   1.485   9.874   1.386 -0.2806 -0.1861 -0.6012
  904MOL0     C21943   1.614   9.941   1.318  0.9150  0.3273 -0.2805
  904MOL0     C21944   1.696  10.016   1.413  0.0892  0.1005  0.1018
  904MOL0     C21945   1.828  10.057   1.355  0.2965  0.3204 -0.4296
  904MOL0     C21946   1.939  10.019   1.455  0.1287  0.9607 -0.7022
  904MOL0     C21947   2.073  10.075   1.401 -0.4458  0.0846  0.1435
  904MOL0     C21948   2.194  10.068   1.495  0.6473  0.5391  0.5119
  904MOL0    Cl21949   2.331  10.081   1.390  0.2017 -0.4247  0.1409
  904MOL0     C21950   1.100   9.997   1.149 -0.7536 -0.5712 -0.1572
  904MOL0     C21951   0.972   9.976   1.098 -0.0561  1.1558 -0.3032
  904MOL0     O21952   0.760   9.627   0.995  0.2544 -0.3402 -0.5542
  904MOL0     C21953   0.491   9.827   0.986  0.2784 -0.6352  0.5588
  904MOL0     C21954   0.353   9.839   1.006 -0.0618  0.1554 -0.5405
  904MOL0     N21955  -0.239   9.713   1.605  0.7711  1.0939 -0.0016
  904MOL0     N21956  -0.285   9.777   1.706  0.2996  0.2180 -0.0745
  904MOL0     C21957  -0.016  10.794   1.786  0.1610 -0.7582  0.0593
  904MOL0     C21958   0.094  10.853   1.718 -0.2049 -0.0646 -0.0015
  904MOL0     C21959   0.356  11.125   1.486 -0.3572  0.1998  0.5740
  904MOL0     C21960   0.412  11.257   1.504  0.3130 -0.1810 -0.1035
  904MOL0     C21961   0.537  11.292   1.448 -0.0194  0.8797 -0.1489
  904MOL0     C21962   0.609  11.198   1.372 -0.1083 -0.4141  0.2413
  904MOL0     O21963   0.735  11.222   1.307  0.3587 -0.7159 -0.1233
  904MOL0     C21964   0.817  11.337   1.345  0.2896  0.2572 -0.2615
  904MOL0     C21965   0.971  11.326   1.311  0.1959  0.2179 -0.0651
  904MOL0     C21966   1.038  11.462   1.312 -0.0794  0.2566 -0.0058
  904MOL0     C21967   1.181  11.475   1.269  0.3557  0.1169  0.5821
  904MOL0     C21968   1.275  11.399   1.355 -0.0080 -0.3172 -0.2298
  904MOL0     C21969   1.352  11.333   1.418 -0.1420 -0.8785 -0.4826
  904MOL0     C21970   0.554  11.070   1.359 -0.0318  0.1506  0.3746
  904MOL0     C21971   0.428  11.026   1.415 -0.4384 -0.5028  1.0113
  904MOL0     C21972   0.393  10.883   1.395  1.0567  0.5200  0.4344
  904MOL0     H21973  -0.069  11.053   1.494  1.3042  0.6328  0.9726
  904MOL0     H21974  -0.273  10.942   1.602  0.9555  3.4254 -1.2317
  904MOL0     H21975  -0.197  10.576   1.830  0.8301 -0.2443 -0.2705
  904MOL0     H21976  -0.210  10.673   1.988 -2.6215 -1.5787  1.4625
  904MOL0     H21977  -0.456  10.672   1.842  0.6535 -0.0914 -0.7201
  904MOL0     H21978  -0.427  10.603   2.006 -1.9009 -1.4750  0.6231
  904MOL0     H21979  -0.345  10.381   1.852 -0.3618 -0.5806 -0.8047
  904MOL0     H21980  -0.414  10.472   1.721 -1.8176 -2.5155 -0.4211
  904MOL0     H21981  -0.562  10.345   1.961 -2.0270 -2.5053 -0.9031
  904MOL0     H21982  -0.623  10.485   1.878  1.9713  1.1400  0.1477
  904MOL0     H21983  -0.726  10.323   1.770  0.9872  1.4721 -0.3226
  904MOL0     H21984  -0.614  10.352   1.651 -4.0847  1.2042  0.4754
  904MOL0     H21985  -0.593  10.140   1.879  0.6911  2.1208  0.5167
  904MOL0     H21986  -0.677  10.116   1.721  1.2327  1.0383 -3.2435
  904MOL0     H21987  -0.375  10.168   1.765  0.8639 -0.2480 -1.0772
  904MOL0     H21988  -0.449  10.144   1.604  0.8045 -0.8789 -0.4629
  904MOL0     H21989  -0.469   9.926   1.824 -0.1573 -0.5793 -0.5083
  904MOL0     H21990  -0.544   9.933   1.665 -1.4897  2.3461  0.3591
  904MOL0     H21991  -0.355   9.981   1.451  0.7534  2.9247  2.2086
  904MOL0     H21992  -0.297   9.636   1.348  2.3452 -0.4024 -0.3172
  904MOL0     H21993  -0.288   9.799   1.275 -0.3810 -1.3745 -2.0054
  904MOL0     H21994  -0.048   9.798   1.375 -2.4968  1.0399  0.6646
  904MOL0     H21995  -0.072   9.617   1.375 -0.1115  1.4362  2.8265
  904MOL0     H21996  -0.078   9.819   1.139 -1.6567  0.1123 -1.9703
  904MOL0     H21997  -0.150   9.661   1.128 -1.5323  2.3457 -0.4260
  904MOL0     H21998   0.067   9.562   1.123  2.4863  0.1644 -1.2780
  904MOL0     H21999   0.129   9.678   1.254  0.8340 -0.6299 -0.0450
  904MOL0     H22000   0.315   9.529   1.149 -1.8066  0.4240 -1.2426
  904MOL0     H22001   0.573   9.536   1.116 -2.3493 -1.6510  2.5120
  904MOL0     H22002   0.967   9.640   1.107 -1.6761  0.4975  3.2887
  904MOL0     H22003   1.210   9.684   1.169  0.5288  1.4539  2.1964
  904MOL0     H22004   1.323   9.745   1.339 -0.0941  2.1916  1.4763
  904MOL0     H22005   1.451   9.761   1.209  0.7682  0.0525  0.6954
  904MOL0     H22006   1.424   9.939   1.450 -1.5866 -1.1149 -0.8546
  904MOL0     H22007   1.518   9.793   1.451 -1.2753 -0.2520 -0.1651
  904MOL0     H22008   1.662   9.863   1.258  0.7483  0.1574 -0.1972
  904MOL0     H22009   1.570  10.012   1.247 -1.1384 -0.3258  0.2444
  904MOL0     H22010   1.707   9.963   1.508 -1.3575  0.0292  0.2400
  904MOL0     H22011   1.641  10.107   1.435 -0.6313 -0.0363 -1.0511
  904MOL0     H22012   1.828  10.162   1.321  0.7765  0.1101 -1.1094
  904MOL0     H22013   1.849   9.990   1.270  0.8578 -0.0716  0.0130
  904MOL0     H22014   1.909  10.069   1.548 -5.1857 -0.9084 -1.0803
  904MOL0     H22015   1.944   9.914   1.484 -1.2886  1.5256  1.8148
  904MOL0     H22016   2.061  10.181   1.374  0.0416 -0.1672 -1.1123
  904MOL0     H22017   2.104  10.025   1.309  2.2128  0.3872  0.8088
  904MOL0     H22018   2.187  10.150   1.567  0.3855  0.2461  0.8211
  904MOL0     H22019   2.197   9.966   1.534  0.3152 -0.5272 -2.0105
  904MOL0     H22020   1.134  10.099   1.165  2.2145 -1.5286  0.1680
  904MOL0     H22021   0.906  10.062   1.089 -0.4576  0.8591 -0.2067
  904MOL0     H22022   0.544   9.900   0.926 -0.1268  0.9118  1.9833
  904MOL0     H22023   0.300   9.931   0.982  0.4248 -0.0395 -2.5641
  904MOL0     H22024   0.015  10.744   1.877  3.3686  0.5677 -0.1538
  904MOL0     H22025   0.195  10.829   1.749  0.8152  0.7540 -2.4745
  904MOL0     H22026   0.361  11.340   1.550 -0.6622 -1.4519  1.1776
  904MOL0     H22027   0.561  11.397   1.462  2.6088  0.1150  1.6184
  904MOL0     H22028   0.810  11.353   1.453  2.3207  2.2654 -0.3346
  904MOL0     H22029   0.769  11.421   1.294  2.6032  2.3868  0.8348
  904MOL0     H22030   0.981  11.282   1.211  3.7705  0.0462  0.2607
  904MOL0     H22031   1.030  11.264   1.379  2.3690  2.4799  0.2315
  904MOL0     H22032   1.027  11.489   1.418 -1.1771 -2.0301  0.5355
  904MOL0     H22033   0.972  11.523   1.251 -0.0183  0.5320  0.2027
  904MOL0     H22034   1.189  11.434   1.168  0.5412 -0.7911  0.9531
  904MOL0     H22035   1.212  11.579   1.273  2.5045 -0.4464 -0.0367
  904MOL0     H22036   1.420  11.278   1.480 -0.6026 -0.6271  0.2539
  904MOL0     H22037   0.618  11.003   1.304  0.8049 -1.0608  2.6608
  904MOL0     H22038   0.291  10.874   1.357  1.0370  1.2037  0.3229
  904MOL0     H22039   0.448  10.828   1.318 -2.1249 -1.3431 -0.7018
  904MOL0     H22040   0.399  10.825   1.488  0.4391 -1.7738 -0.8651
  905MOL0     O22041   8.621  10.820   3.923 -0.1291 -0.4411 -0.6378
  905MOL0     C22042   8.588  10.769   3.808 -0.5085  0.0485  0.4010
  905MOL0     O22043   8.665  10.727   3.710  0.1355  0.0084 -0.3830
  905MOL0     C22044   8.803  10.711   3.728  0.4740 -0.4744 -0.2930
  905MOL0     C22045   8.858  10.634   3.824 -0.3197  0.8835  0.4948
  905MOL0     C22046   8.993  10.613   3.845 -0.1257  0.2104 -0.4344
  905MOL0     C22047   9.086  10.680   3.759 -0.0056  0.2176  0.7460
  905MOL0     O22048   9.222  10.659   3.743  0.0137 -0.0895 -0.1960
  905MOL0     C22049   9.294  10.596   3.845 -0.5569  0.2289  0.7007
  905MOL0     C22050   9.432  10.653   3.822  0.0401  0.2543 -0.2874
  905MOL0     C22051   9.531  10.589   3.917 -0.2701 -0.3665  0.1357
  905MOL0     C22052   9.671  10.642   3.869 -0.7728  0.2674 -0.5479
  905MOL0     C22053   9.770  10.595   3.970 -0.6380 -0.6794 -0.0555
  905MOL0     C22054   9.907  10.656   3.936 -0.6577  0.9776  0.6595
  905MOL0     C22055  10.013  10.632   4.045  0.2300  0.2309 -0.0122
  905MOL0     C22056  10.096  10.505   4.014 -0.4581 -0.2369  0.0912
  905MOL0     N22057  10.217  10.494   4.102 -0.5138 -0.1882 -0.2812
  905MOL0     C22058  10.332  10.568   4.100 -0.2632 -0.3360  0.0037
  905MOL0     C22059  10.425  10.493   4.172  0.5068 -0.1269  0.2739
  905MOL0     C22060  10.572  10.525   4.194 -0.6597 -0.5643  0.1851
  905MOL0     C22061  10.648  10.417   4.266  0.1276 -0.0048  0.0202
  905MOL0     C22062  10.795  10.456   4.278  0.0595  0.0758  0.8660
  905MOL0     C22063  10.862  10.351   4.360  0.2572  0.1024  0.4502
  905MOL0     O22064  10.975  10.411   4.410 -0.3451  0.0273 -0.0651
  905MOL0     C22065  11.091  10.338   4.402  0.7950 -0.2730 -0.3069
  905MOL0     C22066  11.211  10.406   4.431 -0.5132 -0.6265 -0.6771
  905MOL0     C22067  11.335  10.345   4.455 -0.8580  0.5983 -1.0797
  905MOL0     C22068  11.353  10.205   4.438 -0.2214  0.0786 -0.0444
  905MOL0     C22069  11.484  10.143   4.470 -0.2050  0.5191  0.6337
  905MOL0     O22070  11.574  10.211   4.547  0.5594 -0.3478  0.5360
  905MOL0     C22071  11.698  10.159   4.572  0.3266 -0.2632  0.7284
  905MOL0     C22072  11.816  10.236   4.559 -1.1505 -0.2079 -0.4759
  905MOL0     C22073  11.932  10.183   4.596  0.4488 -0.6936 -0.5871
  905MOL0     C22074  11.941  10.060   4.659 -0.3388 -0.9448 -0.3423
  905MOL0     O22075  12.069  10.037   4.711 -0.0966  0.1762  0.1638
  905MOL0     C22076  12.095   9.916   4.779 -0.9180 -0.0852  0.2915
  905MOL0     C22077  12.248   9.906   4.795 -0.9621  0.3051 -0.2854
  905MOL0     C22078  12.313   9.885   4.653 -0.2991 -0.0672 -0.3913
  905MOL0     C22079  12.464   9.868   4.669  0.5382  0.2479 -0.8475
  905MOL0     C22080  12.519   9.863   4.530  0.2584  0.0163  0.2961
  905MOL0     C22081  12.666   9.808   4.531  1.3496 -0.1743  0.3566
  905MOL0     C22082  12.665   9.656   4.563 -0.3373 -0.0094  0.3844
  905MOL0     C22083  12.806   9.604   4.537  0.6875  0.8534 -0.5812
  905MOL0    Cl22084  12.778   9.431   4.553  0.1238 -0.1377  0.4093
  905MOL0     C22085  11.823   9.987   4.682  0.2224  0.9267 -0.4453
  905MOL0     C22086  11.706  10.029   4.627 -0.3557  0.0543  0.3763
  905MOL0     O22087  11.503  10.033   4.414 -0.0033 -0.1612  0.2791
  905MOL0     C22088  11.234  10.138   4.400  0.5166  0.9767  0.1127
  905MOL0     C22089  11.107  10.199   4.383  0.0491  0.3330 -0.0259
  905MOL0     N22090  10.360  10.382   4.229 -0.1889 -1.1801  0.2092
  905MOL0     N22091  10.233  10.390   4.187  0.8556 -0.1747 -0.5502
  905MOL0     C22092   9.031  10.770   3.668 -1.4521  0.8572  1.0796
  905MOL0     C22093   8.895  10.783   3.652  0.4367  0.9176  0.6300
  905MOL0     C22094   8.449  10.755   3.776 -0.1912  0.3107  0.3338
  905MOL0     C22095   8.426  10.671   3.667  0.0651 -0.0280 -0.3640
  905MOL0     C22096   8.301  10.643   3.633 -0.2924 -0.5511 -0.4402
  905MOL0     C22097   8.193  10.704   3.698 -0.1307 -0.3852  0.0345
  905MOL0     O22098   8.070  10.665   3.643 -0.3420  0.1522 -0.3123
  905MOL0     C22099   7.945  10.710   3.695 -0.0522 -0.9759 -0.3121
  905MOL0     C22100   7.828  10.623   3.651 -0.1983 -0.8629 -0.5244
  905MOL0     C22101   7.704  10.678   3.724  0.3180 -0.2091 -0.8369
  905MOL0     C22102   7.574  10.601   3.710  0.6349  0.0346  0.3827
  905MOL0     C22103   7.511  10.642   3.582 -0.2714 -0.5050  0.0733
  905MOL0     C22104   7.487  10.685   3.468  0.3803 -0.6449 -0.2396
  905MOL0     C22105   8.209  10.793   3.803  0.4527  0.9153  0.3981
  905MOL0     C22106   8.339  10.822   3.835 -0.7041 -0.8348 -0.0489
  905MOL0     C22107   8.355  10.909   3.958  0.3586  0.6713  0.8576
  905MOL0     H22108   8.795  10.571   3.886 -0.8745 -0.0849 -1.0201
  905MOL0     H22109   9.030  10.543   3.918 -2.1505 -0.3230  0.1434
  905MOL0     H22110   9.266  10.626   3.947 -1.1241  3.1323 -0.2151
  905MOL0     H22111   9.285  10.488   3.834 -4.2004  0.5545 -0.8279
  905MOL0     H22112   9.429  10.762   3.836  0.3729  0.3112 -0.6365
  905MOL0     H22113   9.480  10.643   3.724  1.7134  1.5672  0.3363
  905MOL0     H22114   9.528  10.481   3.900  1.5997 -0.2830 -0.9601
  905MOL0     H22115   9.517  10.594   4.025  1.4535 -4.8951  0.7702
  905MOL0     H22116   9.707  10.603   3.774  2.1649  0.7506  0.2646
  905MOL0     H22117   9.657  10.751   3.865 -2.0334  0.1889  0.7369
  905MOL0     H22118   9.740  10.640   4.065  2.7436  1.9394 -0.0245
  905MOL0     H22119   9.766  10.486   3.981 -0.4535 -0.7653 -0.7574
  905MOL0     H22120   9.943  10.620   3.839 -1.8380 -1.1818  0.9699
  905MOL0     H22121   9.887  10.764   3.941 -1.6193  0.8076  0.7998
  905MOL0     H22122   9.969  10.644   4.145  0.2006  0.6203 -0.0727
  905MOL0     H22123  10.091  10.708   4.047  0.3939  0.0792 -0.5964
  905MOL0     H22124  10.040  10.413   4.030 -2.3700  0.6533 -1.1606
  905MOL0     H22125  10.129  10.500   3.910 -1.6407 -3.6737 -0.2505
  905MOL0     H22126  10.361  10.654   4.041  0.9918 -0.3609  0.5640
  905MOL0     H22127  10.629  10.561   4.108  2.0630 -0.7275  1.8050
  905MOL0     H22128  10.564  10.615   4.257 -1.8418 -1.0173  0.7050
  905MOL0     H22129  10.601  10.397   4.363 -2.0956  3.2964 -0.2133
  905MOL0     H22130  10.639  10.326   4.205 -0.3100 -1.3132  1.9407
  905MOL0     H22131  10.814  10.555   4.320  2.3732  1.0928 -2.2748
  905MOL0     H22132  10.850  10.466   4.185 -1.3669  1.5933  0.1310
  905MOL0     H22133  10.880  10.259   4.303  0.5199 -1.0662  2.3227
  905MOL0     H22134  10.804  10.326   4.449 -1.2084 -1.8325 -0.9544
  905MOL0     H22135  11.212  10.511   4.455  0.4258 -0.6876 -0.3775
  905MOL0     H22136  11.418  10.404   4.491  0.2852 -2.1203  1.1729
  905MOL0     H22137  11.806  10.337   4.520 -0.8000  0.2095  0.4926
  905MOL0     H22138  12.022  10.242   4.579  1.4858 -2.1999 -0.5938
  905MOL0     H22139  12.052   9.909   4.879  0.6735  2.3925  1.2436
  905MOL0     H22140  12.048   9.832   4.729 -0.5552 -1.9429  2.8786
  905MOL0     H22141  12.275   9.996   4.851  0.6725 -0.8537  0.9068
  905MOL0     H22142  12.267   9.814   4.852  0.5680 -1.0737 -2.7934
  905MOL0     H22143  12.272   9.792   4.613 -3.0852  0.2658  1.4466
  905MOL0     H22144  12.297   9.970   4.587  1.0043  0.4806 -0.0375
  905MOL0     H22145  12.480   9.781   4.732  0.0631  1.7670  1.4970
  905MOL0     H22146  12.511   9.951   4.723  0.2060 -0.8526  1.2475
  905MOL0     H22147  12.518   9.966   4.493  0.2671 -0.8143 -2.1498
  905MOL0     H22148  12.462   9.799   4.463  0.4862 -0.8411  0.9052
  905MOL0     H22149  12.711   9.828   4.433 -0.3302  1.2075 -0.1693
  905MOL0     H22150  12.724   9.861   4.608  0.9402  2.7898 -1.2297
  905MOL0     H22151  12.589   9.612   4.498  0.7382  1.1659 -1.7897
  905MOL0     H22152  12.639   9.648   4.669 -3.1475  1.2293 -0.1104
  905MOL0     H22153  12.844   9.619   4.436  0.2650 -0.0785 -0.8952
  905MOL0     H22154  12.885   9.629   4.608 -1.4242  2.1571  1.4733
  905MOL0     H22155  11.833   9.891   4.733  0.8135  0.6441 -1.0744
  905MOL0     H22156  11.616   9.971   4.640  1.2247 -3.0372 -1.2734
  905MOL0     H22157  11.235  10.030   4.403  1.7967  0.9709 -0.0131
  905MOL0     H22158  11.031  10.125   4.362  0.1675  0.0758  0.4259
  905MOL0     H22159   9.114  10.817   3.616 -1.3420 -0.2994  0.1750
  905MOL0     H22160   8.855  10.852   3.579  2.9434 -0.2026 -1.9840
  905MOL0     H22161   8.495  10.621   3.600 -1.9772 -0.0871 -2.5877
  905MOL0     H22162   8.283  10.572   3.553 -0.7507  0.2335 -1.0430
  905MOL0     H22163   7.927  10.815   3.671 -0.5898 -1.1159 -0.5340
  905MOL0     H22164   7.949  10.707   3.804 -2.8427  0.5421 -0.0574
  905MOL0     H22165   7.837  10.518   3.681 -2.2048 -0.9343 -0.0378
  905MOL0     H22166   7.815  10.635   3.543 -0.9670 -0.1082 -0.3519
  905MOL0     H22167   7.687  10.777   3.681  0.4211 -0.2492 -0.9719
  905MOL0     H22168   7.728  10.679   3.831  1.0202 -1.3269 -0.9639
  905MOL0     H22169   7.603  10.495   3.708  0.6546  0.0421 -1.8392
  905MOL0     H22170   7.503  10.617   3.791 -2.0462 -3.4263 -1.0334
  905MOL0     H22171   7.450  10.719   3.374 -0.0263 -0.2760  0.0541
  905MOL0     H22172   8.127  10.829   3.864 -0.4739 -0.2093 -0.1398
  905MOL0     H22173   8.441  10.977   3.952  0.9201 -0.0115  1.0631
  905MOL0     H22174   8.263  10.968   3.969 -1.7899 -1.5491 -2.9520
  905MOL0     H22175   8.369  10.846   4.046 -1.5574 -1.2874 -0.1404
  906MOL0     O22176   0.417   3.799  10.005 -0.1514 -0.3361  1.0090
  906MOL0     C22177   0.399   3.719  10.095  0.0968 -1.0671  1.0360
  906MOL0     O22178   0.505   3.672  10.166 -0.2592  0.2995  0.0730
  906MOL0     C22179   0.626   3.729  10.155 -0.1768  0.4056 -0.2727
  906MOL0     C22180   0.719   3.662  10.078  0.8382 -0.7389 -0.3694
  906MOL0     C22181   0.854   3.700  10.074  0.1578 -0.1319  0.3547
  906MOL0     C22182   0.894   3.819  10.137  0.2335  0.3568 -0.1159
  906MOL0     O22183   1.025   3.863  10.119  0.5670  0.0074 -0.0528
  906MOL0     C22184   1.020   3.994  10.060  0.0803 -0.2258  0.3308
  906MOL0     C22185   1.164   4.032  10.021  0.2160  0.6530  0.2890
  906MOL0     C22186   1.225   4.103  10.144  0.0057  0.7198 -0.1705
  906MOL0     C22187   1.372   4.142  10.128 -0.1185  0.3534 -0.0800
  906MOL0     C22188   1.417   4.213  10.249 -0.4672 -0.6054 -0.5732
  906MOL0     C22189   1.566   4.255  10.254 -0.0968  0.0808 -0.7107
  906MOL0     C22190   1.669   4.147  10.213 -0.1740 -0.6619 -0.2257
  906MOL0     C22191   1.818   4.204  10.214 -0.6012 -0.4662  0.7056
  906MOL0     N22192   1.848   4.242  10.079  0.0538  0.1224 -0.1479
  906MOL0     C22193   1.848   4.154   9.974  0.0497 -0.3429  0.4416
  906MOL0     C22194   1.862   4.239   9.871 -0.9690  0.0491  0.0712
  906MOL0     C22195   1.857   4.188   9.729  0.1968  0.0524 -0.1219
  906MOL0     C22196   1.984   4.103   9.698 -0.3558  0.4001  1.1231
  906MOL0     C22197   1.984   4.053   9.557  0.8475 -0.2113  0.3302
  906MOL0     C22198   2.089   3.956   9.520  0.3816  0.8393  0.5304
  906MOL0     O22199   2.216   4.001   9.573  0.6041  0.3385 -0.8202
  906MOL0     C22200   2.325   3.993   9.493 -0.3331  0.3440 -0.3199
  906MOL0     C22201   2.441   4.053   9.553 -0.4925  0.7585 -0.4264
  906MOL0     C22202   2.565   4.029   9.495 -0.4486 -0.0753  0.3555
  906MOL0     C22203   2.578   3.966   9.368  0.3899 -0.4547  0.5618
  906MOL0     C22204   2.717   3.935   9.312  0.4011 -0.2344  0.6250
  906MOL0     O22205   2.822   4.005   9.366  0.1589 -0.7252 -0.2379
  906MOL0     C22206   2.944   4.003   9.309 -0.6686  0.1693 -0.2566
  906MOL0     C22207   2.999   4.093   9.217 -0.3578  0.6898 -0.3573
  906MOL0     C22208   3.133   4.083   9.178 -0.2117 -0.0857  0.6783
  906MOL0     C22209   3.203   3.963   9.200 -0.1792 -0.5282  0.1321
  906MOL0     O22210   3.321   3.950   9.131 -0.5982  0.2648 -0.3016
  906MOL0     C22211   3.424   3.872   9.196  0.7666  0.2002 -0.4661
  906MOL0     C22212   3.536   3.872   9.086 -0.3558 -0.4389 -0.8981
  906MOL0     C22213   3.639   3.778   9.139 -0.5827 -0.0364  0.2909
  906MOL0     C22214   3.771   3.763   9.047 -0.1137 -0.6516  0.4244
  906MOL0     C22215   3.904   3.760   9.117 -0.0526  0.2259 -0.4879
  906MOL0     C22216   3.909   3.676   9.242  0.0515 -0.3969 -1.0326
  906MOL0     C22217   4.044   3.686   9.318  1.2320 -0.6088  0.1028
  906MOL0     C22218   4.161   3.661   9.222 -0.3600 -0.5409  0.3827
  906MOL0    Cl22219   4.322   3.667   9.311 -0.3623 -0.3815 -0.2484
  906MOL0     C22220   3.152   3.868   9.299 -0.1033  0.4518 -0.2628
  906MOL0     C22221   3.022   3.895   9.354 -0.0554  0.4514 -0.1235
  906MOL0     O22222   2.726   3.862   9.217  0.0157  0.4642  0.2358
  906MOL0     C22223   2.462   3.919   9.306  0.5233  0.9164  0.2821
  906MOL0     C22224   2.341   3.929   9.371  0.6579  0.4756  0.1054
  906MOL0     N22225   1.877   4.369   9.915 -0.0326  0.0171 -1.0742
  906MOL0     N22226   1.874   4.375  10.044 -0.2031 -0.0031  0.0859
  906MOL0     C22227   0.806   3.894  10.216 -0.3011  0.7844 -0.7458
  906MOL0     C22228   0.671   3.846  10.230 -1.0482  0.8474  1.1422
  906MOL0     C22229   0.265   3.658  10.116 -0.1726  0.3206  0.0072
  906MOL0     C22230   0.263   3.537  10.186 -0.2671 -0.2253 -0.2350
  906MOL0     C22231   0.139   3.487  10.225  0.1459 -0.2450 -0.5789
  906MOL0     C22232   0.018   3.550  10.195  0.1165  0.0341 -0.1352
  906MOL0     O22233  -0.098   3.487  10.228  0.8526 -0.9681  0.5208
  906MOL0     C22234  -0.202   3.556  10.309  0.5162 -0.7536  0.0135
  906MOL0     C22235  -0.336   3.483  10.313 -0.1816  0.3885 -0.2445
  906MOL0     C22236  -0.457   3.575  10.357 -0.3296  0.4651  0.4236
  906MOL0     C22237  -0.438   3.632  10.500  1.0116  0.0470  0.0501
  906MOL0     C22238  -0.428   3.544  10.609  0.1029 -0.1141  0.3321
  906MOL0     C22239  -0.426   3.469  10.696  0.1104  0.1606 -0.4461
  906MOL0     C22240   0.022   3.662  10.122  0.0959  0.3334  0.0627
  906MOL0     C22241   0.139   3.712  10.073  0.4421  0.4394  0.4442
  906MOL0     C22242   0.133   3.837   9.997 -0.0295  0.5785 -0.9477
  906MOL0     H22243   0.680   3.577  10.023 -1.4038 -1.0145  1.4653
  906MOL0     H22244   0.930   3.643  10.021  0.1530  0.1524  0.0371
  906MOL0     H22245   0.951   4.002   9.976 -1.3325  0.0375  1.4616
  906MOL0     H22246   0.984   4.056  10.143  2.0288 -0.5321  1.4615
  906MOL0     H22247   1.162   4.105   9.940 -0.4711  1.3693  0.9257
  906MOL0     H22248   1.234   3.949  10.011 -0.6363 -0.0834  0.2856
  906MOL0     H22249   1.206   4.039  10.230  1.5493  0.9064  0.3560
  906MOL0     H22250   1.172   4.198  10.151 -0.8863  0.1085  2.7467
  906MOL0     H22251   1.417   4.044  10.113 -2.2527 -0.2051 -4.7703
  906MOL0     H22252   1.399   4.207  10.044  3.1974  1.1910  1.4782
  906MOL0     H22253   1.355   4.303  10.262  2.7933  1.3954  3.0389
  906MOL0     H22254   1.395   4.149  10.334 -2.6394  1.9072  0.9303
  906MOL0     H22255   1.579   4.334  10.179 -0.0284  0.9647  0.2111
  906MOL0     H22256   1.598   4.309  10.344  0.8010  1.4228 -1.7827
  906MOL0     H22257   1.644   4.123  10.109 -0.7468  0.5210 -0.3733
  906MOL0     H22258   1.669   4.059  10.278  0.4647 -0.6806 -0.2438
  906MOL0     H22259   1.825   4.289  10.282  2.1830 -0.2184  0.2484
  906MOL0     H22260   1.886   4.124  10.244 -1.5033 -1.9380 -0.9399
  906MOL0     H22261   1.843   4.046   9.975 -0.2922 -0.3381  2.6156
  906MOL0     H22262   1.771   4.121   9.733  1.9158 -2.2358  0.5937
  906MOL0     H22263   1.830   4.263   9.653  0.5826 -0.1985 -0.5095
  906MOL0     H22264   2.071   4.167   9.715 -1.1682  1.5165  1.2003
  906MOL0     H22265   1.997   4.015   9.762 -1.7199 -1.0569 -0.5147
  906MOL0     H22266   1.981   4.141   9.492 -0.3300 -0.4147  0.0943
  906MOL0     H22267   1.880   4.024   9.542  0.0309  1.8141  1.5970
  906MOL0     H22268   2.087   3.942   9.411  2.9574  0.8350  0.4151
  906MOL0     H22269   2.065   3.863   9.574 -1.0657  1.5882  1.2388
  906MOL0     H22270   2.432   4.106   9.647  1.2234  0.0219  0.2043
  906MOL0     H22271   2.651   4.075   9.542  0.2006 -0.2168 -0.6701
  906MOL0     H22272   2.930   4.169   9.182 -0.1030  0.3584 -1.6203
  906MOL0     H22273   3.170   4.150   9.101  0.3371 -2.9593 -1.7465
  906MOL0     H22274   3.458   3.905   9.294  0.7348  1.7307 -0.9364
  906MOL0     H22275   3.387   3.771   9.214 -3.9214  1.4986 -1.2657
  906MOL0     H22276   3.489   3.833   8.995 -1.2437  0.4381 -0.8423
  906MOL0     H22277   3.574   3.970   9.055  2.9062 -1.3435 -0.1492
  906MOL0     H22278   3.676   3.804   9.239 -0.0376 -1.6833  0.5441
  906MOL0     H22279   3.597   3.678   9.152  0.7580 -0.9503 -1.8248
  906MOL0     H22280   3.779   3.831   8.962 -0.1274  0.2615  1.1402
  906MOL0     H22281   3.763   3.663   9.003  0.9189 -0.3485 -0.4802
  906MOL0     H22282   3.924   3.865   9.142  1.4467 -0.0096 -0.6141
  906MOL0     H22283   3.970   3.719   9.040 -0.4533 -2.1844  0.3729
  906MOL0     H22284   3.831   3.703   9.314 -0.8264 -2.1652 -1.2554
  906MOL0     H22285   3.895   3.568   9.229 -0.5406 -0.6804  1.4084
  906MOL0     H22286   4.034   3.604   9.390 -3.4285 -1.2436 -0.9500
  906MOL0     H22287   4.054   3.781   9.371 -2.9050 -0.3980  0.8187
  906MOL0     H22288   4.142   3.558   9.189  0.3260 -1.0555  1.5198
  906MOL0     H22289   4.162   3.729   9.137  1.6573 -3.3918 -2.0874
  906MOL0     H22290   3.205   3.785   9.345  0.1882  1.2087  0.8223
  906MOL0     H22291   2.979   3.831   9.430 -0.0539 -0.5586 -0.9490
  906MOL0     H22292   2.477   3.860   9.216  1.5493  0.9180  0.4398
  906MOL0     H22293   2.251   3.880   9.334 -2.5413  5.3570  0.4585
  906MOL0     H22294   0.845   3.981  10.267  1.0385 -1.6480  2.7365
  906MOL0     H22295   0.586   3.889  10.282 -2.3156  0.2066 -0.2941
  906MOL0     H22296   0.346   3.473  10.212  0.8531  1.9903  2.0749
  906MOL0     H22297   0.127   3.405  10.295  2.7172 -0.3690 -0.1741
  906MOL0     H22298  -0.216   3.653  10.260  0.0645 -0.6863  0.2676
  906MOL0     H22299  -0.186   3.559  10.417 -0.6829 -0.1452  0.1945
  906MOL0     H22300  -0.326   3.406  10.390 -0.6728 -0.3881 -0.9319
  906MOL0     H22301  -0.365   3.437  10.218  1.4471  0.4089 -0.7828
  906MOL0     H22302  -0.551   3.519  10.354 -1.0717  1.6957 -2.7669
  906MOL0     H22303  -0.451   3.653  10.280  3.2756 -1.2851 -1.3342
  906MOL0     H22304  -0.353   3.700  10.510 -0.5798  2.5262 -1.9349
  906MOL0     H22305  -0.524   3.697  10.523  0.2685  0.6104 -3.6665
  906MOL0     H22306  -0.411   3.403  10.779 -0.2513  0.8977  0.2115
  906MOL0     H22307  -0.073   3.709  10.097 -0.5494 -2.0130 -2.3398
  906MOL0     H22308   0.037   3.885  10.018  0.2178  0.2919  1.0178
  906MOL0     H22309   0.211   3.909  10.026 -0.6393  2.3331 -3.4092
  906MOL0     H22310   0.139   3.819   9.889  1.8924 -3.0904 -0.3881
  907MOL0     O22311   1.184   5.244   7.916 -0.1255  0.2374  0.0507
  907MOL0     C22312   1.181   5.340   7.993  0.3383 -0.1971 -0.2805
  907MOL0     O22313   1.263   5.450   7.980 -0.2159 -0.1543  0.4560
  907MOL0     C22314   1.378   5.440   7.901  0.7760 -0.8158  0.0634
  907MOL0     C22315   1.370   5.478   7.773 -0.5350  0.6476 -0.2740
  907MOL0     C22316   1.480   5.446   7.684  0.2408  0.0948  0.4189
  907MOL0     C22317   1.604   5.390   7.736 -0.2674  0.1256 -0.5370
  907MOL0     O22318   1.713   5.369   7.653 -0.2502  0.0777  0.5572
  907MOL0     C22319   1.833   5.347   7.708 -0.0760  0.0487  0.0734
  907MOL0     C22320   1.930   5.341   7.593  0.5189 -0.2971 -0.2149
  907MOL0     C22321   2.063   5.335   7.645 -0.6023  0.1195 -0.0383
  907MOL0     C22322   2.161   5.325   7.542  0.1806  0.2969 -0.5290
  907MOL0     C22323   2.290   5.314   7.615 -0.6524  0.3880 -1.0999
  907MOL0     C22324   2.412   5.295   7.511  0.5653  0.0635  0.3563
  907MOL0     C22325   2.531   5.270   7.588 -0.1495 -0.3840 -0.4742
  907MOL0     C22326   2.650   5.239   7.492 -0.0478 -0.4294  0.6533
  907MOL0     N22327   2.785   5.252   7.555 -0.1529  0.7008 -0.1643
  907MOL0     C22328   2.830   5.359   7.624  0.8910 -0.4143 -0.6820
  907MOL0     C22329   2.946   5.309   7.672 -0.7166 -0.0625  0.3408
  907MOL0     C22330   3.067   5.391   7.719 -0.3085  0.0898 -0.5668
  907MOL0     C22331   3.132   5.324   7.844 -0.6566 -0.2549  1.3851
  907MOL0     C22332   3.228   5.418   7.919 -0.2092  0.6794 -0.8264
  907MOL0     C22333   3.376   5.372   7.901 -0.1762 -0.0244  0.2614
  907MOL0     O22334   3.475   5.435   7.991 -0.4804 -0.2712 -0.5584
  907MOL0     C22335   3.601   5.380   8.003 -0.1512 -0.2802 -0.8236
  907MOL0     C22336   3.677   5.427   8.114  0.6250 -0.5629  0.4158
  907MOL0     C22337   3.799   5.387   8.143 -0.4447 -0.0854 -0.8396
  907MOL0     C22338   3.869   5.285   8.062 -0.0616 -0.5534 -0.7756
  907MOL0     C22339   4.000   5.237   8.099 -1.3141 -0.0359 -0.5988
  907MOL0     O22340   4.061   5.298   8.211  0.3406 -0.4744  0.6510
  907MOL0     C22341   4.173   5.234   8.261  0.7693 -0.1474  0.0737
  907MOL0     C22342   4.167   5.104   8.313  0.3358  0.2178  0.9572
  907MOL0     C22343   4.277   5.046   8.374  0.5822  0.6176 -0.3598
  907MOL0     C22344   4.397   5.113   8.382  0.3230  0.2262 -0.5022
  907MOL0     O22345   4.493   5.047   8.448  0.0830 -0.0782 -0.2730
  907MOL0     C22346   4.618   5.027   8.370  0.3404 -0.0681 -0.3113
  907MOL0     C22347   4.711   4.942   8.450 -0.0274  0.1827 -0.2868
  907MOL0     C22348   4.831   4.903   8.356  0.0380 -0.3111  0.5167
  907MOL0     C22349   4.937   4.823   8.431 -0.5119 -0.2726 -0.9698
  907MOL0     C22350   5.049   4.774   8.339 -0.4352 -0.3748  0.2814
  907MOL0     C22351   5.179   4.725   8.410 -0.1364  0.5414 -0.0091
  907MOL0     C22352   5.282   4.841   8.447  0.8108 -0.2940  0.6307
  907MOL0     C22353   5.408   4.800   8.513 -0.2784 -0.4446 -0.6181
  907MOL0    Cl22354   5.507   4.944   8.537 -0.5320 -0.3558  0.2496
  907MOL0     C22355   4.406   5.241   8.330 -0.6845  0.0727 -0.3815
  907MOL0     C22356   4.296   5.306   8.264 -0.2894  0.8502  0.1439
  907MOL0     O22357   4.049   5.148   8.027 -0.2050  0.4274 -1.0443
  907MOL0     C22358   3.797   5.243   7.947 -1.2793  0.7176 -0.3329
  907MOL0     C22359   3.665   5.292   7.922 -0.2362  0.1231 -0.5017
  907MOL0     N22360   2.974   5.181   7.626  0.4024 -0.8604 -0.3693
  907MOL0     N22361   2.873   5.149   7.555 -0.0776 -0.1978 -0.3583
  907MOL0     C22362   1.600   5.344   7.875 -0.7181 -0.2738  0.0700
  907MOL0     C22363   1.482   5.364   7.948  0.4425 -0.5348  1.1735
  907MOL0     C22364   1.081   5.328   8.103 -0.0994  1.0758  0.1359
  907MOL0     C22365   0.986   5.226   8.082  0.1161 -0.8376  0.0179
  907MOL0     C22366   0.877   5.217   8.169 -0.6070 -0.6768 -0.0078
  907MOL0     C22367   0.863   5.301   8.274  0.8693  0.1149  0.6792
  907MOL0     O22368   0.750   5.273   8.345 -0.3659  0.0771 -0.4506
  907MOL0     C22369   0.720   5.384   8.427  0.4879  0.1052 -0.4498
  907MOL0     C22370   0.581   5.348   8.497  0.3142 -0.2976  1.1323
  907MOL0     C22371   0.469   5.358   8.402 -0.7571  0.1396  0.0030
  907MOL0     C22372   0.330   5.375   8.457  0.1301  0.5759  0.9763
  907MOL0     C22373   0.332   5.479   8.555 -0.2632 -0.3888  0.7818
  907MOL0     C22374   0.338   5.582   8.626  0.4784 -0.5639  0.3211
  907MOL0     C22375   0.967   5.393   8.295 -0.3594  0.3903  0.1136
  907MOL0     C22376   1.075   5.415   8.211 -0.1353  0.3308  0.0535
  907MOL0     C22377   1.174   5.526   8.236 -0.6371 -0.3737 -1.0611
  907MOL0     H22378   1.275   5.522   7.743 -2.3031 -1.0331  2.4047
  907MOL0     H22379   1.474   5.466   7.577  0.0358  0.7658  0.5514
  907MOL0     H22380   1.872   5.425   7.774 -0.5817 -0.5481  1.0973
  907MOL0     H22381   1.841   5.249   7.756  1.5962 -0.7729 -1.7481
  907MOL0     H22382   1.927   5.433   7.534 -0.0397 -1.0001 -1.3227
  907MOL0     H22383   1.904   5.259   7.526 -4.1509  1.4641 -0.9454
  907MOL0     H22384   2.086   5.246   7.704  0.0600  0.0705 -0.3625
  907MOL0     H22385   2.092   5.414   7.716  1.0958 -2.6805  2.6150
  907MOL0     H22386   2.140   5.240   7.477 -2.2907  1.4549 -1.3622
  907MOL0     H22387   2.164   5.416   7.481 -1.6804  1.1696  0.5809
  907MOL0     H22388   2.310   5.403   7.676 -1.7331  0.3056 -0.6047
  907MOL0     H22389   2.287   5.236   7.691 -1.3303  2.1304  0.7360
  907MOL0     H22390   2.382   5.207   7.453 -3.7680  2.1444 -0.9891
  907MOL0     H22391   2.421   5.373   7.435  0.9670 -2.5170 -2.4516
  907MOL0     H22392   2.511   5.185   7.655  0.3024  1.5790  2.3006
  907MOL0     H22393   2.554   5.355   7.652  0.4975 -1.5967  0.9861
  907MOL0     H22394   2.636   5.136   7.459 -1.3479 -0.1737  0.3399
  907MOL0     H22395   2.642   5.311   7.410  0.6066 -0.2015  0.7891
  907MOL0     H22396   2.788   5.455   7.651  0.7198 -0.3057 -1.3073
  907MOL0     H22397   3.139   5.401   7.637  0.0190 -1.4259 -0.4973
  907MOL0     H22398   3.019   5.484   7.748 -1.7262 -0.8246  0.1629
  907MOL0     H22399   3.054   5.291   7.913 -2.2447 -0.4091 -0.4190
  907MOL0     H22400   3.183   5.239   7.799  0.3877  0.7281  0.6538
  907MOL0     H22401   3.207   5.414   8.027  1.9323 -0.8135 -0.4025
  907MOL0     H22402   3.227   5.525   7.897  4.8482  1.2072  0.3712
  907MOL0     H22403   3.401   5.385   7.796 -1.1980 -3.0824 -0.4588
  907MOL0     H22404   3.377   5.264   7.916  2.0363 -0.3183 -1.4928
  907MOL0     H22405   3.623   5.500   8.174  1.8107 -1.4286  2.6833
  907MOL0     H22406   3.849   5.407   8.237 -1.0720 -0.8661 -0.3341
  907MOL0     H22407   4.071   5.053   8.304  0.0446  0.8329  0.4991
  907MOL0     H22408   4.283   4.946   8.416  0.2301  0.0114 -1.6896
  907MOL0     H22409   4.604   4.983   8.271  1.0691  2.2487 -1.5259
  907MOL0     H22410   4.661   5.124   8.343 -1.0317  0.0915 -2.1380
  907MOL0     H22411   4.751   5.003   8.531 -1.6546  0.0409  0.6542
  907MOL0     H22412   4.663   4.851   8.486  2.0924 -1.4769 -1.3731
  907MOL0     H22413   4.786   4.849   8.273  1.4615 -0.8699  0.0858
  907MOL0     H22414   4.880   4.992   8.314  0.2580  0.3719  2.1584
  907MOL0     H22415   4.907   4.740   8.495  0.4170 -1.0849 -1.5647
  907MOL0     H22416   4.983   4.890   8.505  0.1565  0.0556 -1.6704
  907MOL0     H22417   5.074   4.844   8.259 -0.5889 -1.9951 -1.2279
  907MOL0     H22418   5.000   4.694   8.283 -2.3134 -1.7855  3.6391
  907MOL0     H22419   5.157   4.665   8.499 -0.4014 -0.9707 -1.0413
  907MOL0     H22420   5.221   4.653   8.339  0.3609  0.2448  0.5770
  907MOL0     H22421   5.239   4.916   8.514  1.3000  1.5552 -1.0335
  907MOL0     H22422   5.298   4.895   8.354 -0.6208 -0.6871  0.1248
  907MOL0     H22423   5.371   4.748   8.601 -2.7474 -1.1265 -1.9572
  907MOL0     H22424   5.463   4.727   8.453 -0.2882 -0.5326 -0.5192
  907MOL0     H22425   4.496   5.301   8.343 -0.8147  0.8975 -2.7526
  907MOL0     H22426   4.295   5.411   8.236  0.8837  0.7204 -0.4504
  907MOL0     H22427   3.847   5.175   7.879 -1.4112  1.5764 -1.2994
  907MOL0     H22428   3.621   5.259   7.828  1.1323 -1.3525 -0.6693
  907MOL0     H22429   1.678   5.290   7.927 -0.5025  0.3096  0.3471
  907MOL0     H22430   1.481   5.332   8.051  2.5881 -2.0763  0.7801
  907MOL0     H22431   0.978   5.160   7.996  1.5434 -1.8374  0.6228
  907MOL0     H22432   0.795   5.147   8.153 -1.1587  0.1618 -0.9967
  907MOL0     H22433   0.716   5.478   8.372  0.2705 -0.9557 -2.3034
  907MOL0     H22434   0.794   5.394   8.508 -1.2947  0.6598  1.1733
  907MOL0     H22435   0.557   5.411   8.584 -0.9017  1.5937 -0.4891
  907MOL0     H22436   0.583   5.248   8.543  0.6524 -0.5688  0.5349
  907MOL0     H22437   0.479   5.264   8.346 -2.1626 -0.0785  0.0903
  907MOL0     H22438   0.490   5.443   8.338  3.9740 -0.0104  0.9981
  907MOL0     H22439   0.264   5.404   8.375  1.2624 -0.4532 -0.3402
  907MOL0     H22440   0.292   5.283   8.503 -0.2814  1.5056  2.5714
  907MOL0     H22441   0.343   5.674   8.681  0.7938 -0.0219 -0.6031
  907MOL0     H22442   0.951   5.453   8.384  2.1871 -0.4615  1.2373
  907MOL0     H22443   1.274   5.485   8.225  0.6195  1.9030  0.8419
  907MOL0     H22444   1.167   5.614   8.170  2.9688  0.9472  0.1107
  907MOL0     H22445   1.177   5.570   8.336 -2.3636 -0.7383 -0.8102
  908MOL0     O22446   8.431   8.893   6.201 -0.0023  0.2536  0.2491
  908MOL0     C22447   8.466   8.858   6.094 -0.4335  0.1460  1.0014
  908MOL0     O22448   8.593   8.811   6.051 -0.5568 -0.2401 -0.6648
  908MOL0     C22449   8.703   8.829   6.133  0.1627 -0.3514  0.5447
  908MOL0     C22450   8.704   8.815   6.268  0.1504 -0.5748 -0.5034
  908MOL0     C22451   8.820   8.823   6.349  0.6208  0.9856  0.4750
  908MOL0     C22452   8.936   8.841   6.288  0.4373 -0.2051  0.6091
  908MOL0     O22453   9.054   8.855   6.352  0.0476 -0.1250 -0.2326
  908MOL0     C22454   9.154   8.768   6.307  0.1824 -0.6392 -0.2469
  908MOL0     C22455   9.262   8.735   6.416  0.1752  0.3954  0.3743
  908MOL0     C22456   9.378   8.659   6.351  0.3058 -0.0608  0.2048
  908MOL0     C22457   9.490   8.640   6.464 -0.0938 -1.0461 -0.0459
  908MOL0     C22458   9.613   8.563   6.398 -0.2372 -0.5436  0.1393
  908MOL0     C22459   9.727   8.536   6.509 -0.8106  0.5385 -0.2367
  908MOL0     C22460   9.841   8.457   6.449 -0.6677 -0.0840  0.2777
  908MOL0     C22461   9.953   8.413   6.548 -0.2568  0.2413 -0.2826
  908MOL0     N22462   9.931   8.268   6.580  0.3919 -0.3589 -0.3191
  908MOL0     C22463  10.030   8.176   6.560 -0.7431 -0.2082 -0.2564
  908MOL0     C22464   9.960   8.059   6.551 -0.9304 -0.3071 -0.8321
  908MOL0     C22465  10.027   7.930   6.521  0.3086  0.1636  0.0887
  908MOL0     C22466  10.053   7.841   6.641 -0.0226  0.8666 -1.3334
  908MOL0     C22467  10.103   7.909   6.778  0.7880  0.2242  0.2864
  908MOL0     C22468  10.241   7.980   6.762 -0.4480 -0.6318  1.0739
  908MOL0     O22469  10.337   7.878   6.725  0.7461 -0.3626 -0.0124
  908MOL0     C22470  10.467   7.920   6.708 -0.1010 -0.1390 -0.5195
  908MOL0     C22471  10.512   8.051   6.743 -0.1151  0.3864 -0.0879
  908MOL0     C22472  10.644   8.087   6.726 -0.1673 -0.6399  0.4610
  908MOL0     C22473  10.736   7.996   6.674 -0.7169  0.0894  0.4740
  908MOL0     C22474  10.878   8.029   6.649 -0.0594 -0.0784 -0.1444
  908MOL0     O22475  10.939   7.943   6.568 -0.6625 -0.2365 -0.2434
  908MOL0     C22476  11.076   7.977   6.559 -0.2091 -0.0073 -1.4764
  908MOL0     C22477  11.119   8.041   6.443  0.1146  0.3119  0.2450
  908MOL0     C22478  11.251   8.060   6.426 -0.6439 -0.8602 -0.3356
  908MOL0     C22479  11.349   8.028   6.527 -0.5976 -0.2233  0.0854
  908MOL0     O22480  11.486   8.053   6.518 -0.1319 -0.0272 -0.1611
  908MOL0     C22481  11.520   8.186   6.489 -0.1390 -0.9473  0.5595
  908MOL0     C22482  11.644   8.178   6.395  0.5946 -0.6846  0.1913
  908MOL0     C22483  11.588   8.139   6.259 -0.1202 -0.4688 -0.0014
  908MOL0     C22484  11.688   8.146   6.143 -0.6024  0.0183 -0.1141
  908MOL0     C22485  11.633   8.109   6.013  0.5372 -0.7908  1.0375
  908MOL0     C22486  11.703   8.191   5.895 -0.4793  0.1842 -0.3313
  908MOL0     C22487  11.852   8.143   5.873  1.0694 -0.0269 -0.3724
  908MOL0     C22488  11.921   8.258   5.804 -0.0695  0.4682  0.3761
  908MOL0    Cl22489  11.868   8.252   5.633  0.2529  0.5768  0.1054
  908MOL0     C22490  11.304   7.970   6.645  0.9856  0.3722  0.1924
  908MOL0     C22491  11.172   7.949   6.663  0.5328  0.5556 -0.3057
  908MOL0     O22492  10.930   8.126   6.700  0.1556  0.5174  0.8843
  908MOL0     C22493  10.688   7.868   6.635  0.1148 -0.7436 -0.1491
  908MOL0     C22494  10.551   7.829   6.649  0.0612 -0.4253 -0.1032
  908MOL0     N22495   9.822   8.085   6.572  0.1171 -0.1369  0.4584
  908MOL0     N22496   9.808   8.211   6.591  0.4702 -0.3677 -0.5810
  908MOL0     C22497   8.940   8.856   6.145 -0.0669  1.1685  0.7392
  908MOL0     C22498   8.827   8.833   6.067 -0.2324 -0.3061 -1.0432
  908MOL0     C22499   8.366   8.849   5.984 -0.3552  0.0239 -0.4961
  908MOL0     C22500   8.413   8.837   5.853  1.0088  0.0567 -0.2792
  908MOL0     C22501   8.329   8.837   5.742  0.2792 -0.0291 -0.3600
  908MOL0     C22502   8.195   8.864   5.766 -0.1874 -0.2298  0.8009
  908MOL0     O22503   8.119   8.873   5.652  0.1170 -0.1125 -0.4389
  908MOL0     C22504   8.066   9.004   5.620  0.2210  0.1561  0.3402
  908MOL0     C22505   7.920   8.991   5.593  0.1784 -0.5879 -0.3914
  908MOL0     C22506   7.861   9.124   5.533  0.3711  0.2981 -0.5980
  908MOL0     C22507   7.727   9.115   5.467 -0.0968 -0.2975  0.3245
  908MOL0     C22508   7.618   9.057   5.550 -0.2653  0.4318  0.0075
  908MOL0     C22509   7.534   9.006   5.623 -0.1344  0.5501  0.1486
  908MOL0     C22510   8.150   8.877   5.893 -0.2257 -0.0366  0.1908
  908MOL0     C22511   8.228   8.856   6.002  0.2735  0.1236 -0.1005
  908MOL0     C22512   8.166   8.887   6.134 -0.3098 -0.7048  0.0009
  908MOL0     H22513   8.610   8.787   6.316  0.3636  1.6444  1.4252
  908MOL0     H22514   8.791   8.800   6.452  0.8259 -1.1630  0.1064
  908MOL0     H22515   9.094   8.682   6.276 -1.6808  0.5997 -0.2442
  908MOL0     H22516   9.214   8.814   6.228  1.3182 -0.8025  0.4891
  908MOL0     H22517   9.210   8.668   6.484  0.4106 -0.8722 -0.6652
  908MOL0     H22518   9.287   8.826   6.472 -2.1446  1.7905 -0.6902
  908MOL0     H22519   9.411   8.726   6.271  0.2275 -0.1781  0.0746
  908MOL0     H22520   9.358   8.564   6.301  0.5386 -0.2486  0.4614
  908MOL0     H22521   9.518   8.734   6.512  1.6306 -1.6816  0.2527
  908MOL0     H22522   9.449   8.571   6.538  3.3539 -0.7962  2.2845
  908MOL0     H22523   9.581   8.462   6.372  1.4336 -1.5515  1.7398
  908MOL0     H22524   9.660   8.630   6.326 -2.0298 -0.6523 -1.1822
  908MOL0     H22525   9.769   8.626   6.554  4.3000 -1.7633  0.3348
  908MOL0     H22526   9.684   8.471   6.586 -1.9368 -0.9687 -2.0434
  908MOL0     H22527   9.900   8.528   6.390  2.5391 -1.9643  0.9488
  908MOL0     H22528   9.802   8.372   6.392 -1.0069 -1.7966  2.8733
  908MOL0     H22529  10.058   8.419   6.517 -0.2920  1.3006 -0.2284
  908MOL0     H22530   9.947   8.478   6.635  2.1247  2.1419 -1.4035
  908MOL0     H22531  10.133   8.187   6.527  0.5974 -4.3642  1.7721
  908MOL0     H22532   9.961   7.878   6.451  0.6068  1.5248 -1.2674
  908MOL0     H22533  10.116   7.957   6.463  0.5095 -0.3090  0.1691
  908MOL0     H22534   9.964   7.789   6.677 -0.9062  2.8436 -0.4719
  908MOL0     H22535  10.125   7.761   6.621  2.1697  1.3558  3.2503
  908MOL0     H22536  10.099   7.832   6.856 -3.5775 -2.6349 -2.3601
  908MOL0     H22537  10.032   7.988   6.807 -0.6612 -1.0198  0.2509
  908MOL0     H22538  10.270   8.022   6.859  1.1492 -1.4625  1.0032
  908MOL0     H22539  10.237   8.046   6.674  0.9633 -4.2049 -1.9457
  908MOL0     H22540  10.448   8.122   6.795 -1.2132 -1.3520  1.0416
  908MOL0     H22541  10.675   8.183   6.765 -0.0275 -1.8385  3.6070
  908MOL0     H22542  11.047   8.062   6.365  0.8436  1.8490 -0.0447
  908MOL0     H22543  11.277   8.116   6.336 -0.7490  0.1552  0.2505
  908MOL0     H22544  11.441   8.239   6.436 -1.2032 -0.7324  2.2824
  908MOL0     H22545  11.543   8.249   6.575  0.1466  0.2366 -0.3530
  908MOL0     H22546  11.695   8.275   6.387  0.8348 -0.8011  0.2943
  908MOL0     H22547  11.711   8.101   6.435  0.3207 -0.9919  0.0594
  908MOL0     H22548  11.528   8.048   6.251 -0.9235  0.0785 -0.3748
  908MOL0     H22549  11.509   8.212   6.239  0.2757  0.6287  2.2276
  908MOL0     H22550  11.755   8.062   6.162 -2.1980 -1.0785  1.0023
  908MOL0     H22551  11.748   8.236   6.132  1.6825 -1.5795 -1.5876
  908MOL0     H22552  11.524   8.126   6.011  0.8101  1.1576 -0.2211
  908MOL0     H22553  11.648   8.003   5.990  0.4215 -0.5169 -0.3940
  908MOL0     H22554  11.659   8.170   5.797 -0.8469  1.1764 -0.3842
  908MOL0     H22555  11.680   8.296   5.912  3.2918  1.1567 -0.4562
  908MOL0     H22556  11.843   8.053   5.812  1.4515  0.5115 -1.2425
  908MOL0     H22557  11.900   8.118   5.968 -1.6677  0.8771  1.3713
  908MOL0     H22558  11.900   8.359   5.840  0.5633  1.1692 -1.1083
  908MOL0     H22559  12.027   8.230   5.804 -0.2878 -0.5476 -1.3484
  908MOL0     H22560  11.378   7.934   6.716 -1.7909 -4.0065  1.2328
  908MOL0     H22561  11.136   7.903   6.754  2.4157 -0.0033  0.2125
  908MOL0     H22562  10.758   7.795   6.594 -0.0213  0.2903 -2.3726
  908MOL0     H22563  10.518   7.729   6.620  1.6156 -0.6474 -1.2492
  908MOL0     H22564   9.037   8.875   6.100 -1.4821  1.2056 -2.5670
  908MOL0     H22565   8.813   8.820   5.960  1.4079  1.5377 -1.5352
  908MOL0     H22566   8.515   8.829   5.817  0.4405  0.2603 -2.0261
  908MOL0     H22567   8.383   8.817   5.650 -0.2267  0.7646 -0.8441
  908MOL0     H22568   8.118   9.032   5.528  1.7907  0.6668  1.3424
  908MOL0     H22569   8.085   9.078   5.699  1.7072  0.5887 -0.3731
  908MOL0     H22570   7.863   8.973   5.684  0.8516 -0.3786  0.0771
  908MOL0     H22571   7.903   8.918   5.513  1.9170 -0.0284 -1.3164
  908MOL0     H22572   7.929   9.168   5.459  1.5638  0.7979  0.7433
  908MOL0     H22573   7.851   9.201   5.611 -1.1327  0.8880 -1.3373
  908MOL0     H22574   7.696   9.210   5.423  1.7956  1.0464  1.7538
  908MOL0     H22575   7.733   9.044   5.384 -0.5084  0.5253 -0.4211
  908MOL0     H22576   7.458   8.958   5.680  0.7211  0.6825  1.4524
  908MOL0     H22577   8.044   8.892   5.913 -0.1529 -1.3122  1.7884
  908MOL0     H22578   8.171   8.804   6.205 -0.0680 -0.8931 -0.2345
  908MOL0     H22579   8.204   8.979   6.180 -3.6371  0.6811  0.2856
  908MOL0     H22580   8.059   8.910   6.127  0.1350  1.1268 -1.1671
  909MOL0     O22581   1.386   9.409   5.529 -0.9501 -0.6049  0.4960
  909MOL0     C22582   1.359   9.354   5.414  0.4387  0.3590  0.2074
  909MOL0     O22583   1.443   9.350   5.300 -0.3004 -0.3670  0.2608
  909MOL0     C22584   1.570   9.396   5.317 -0.1961  0.1511  0.2671
  909MOL0     C22585   1.655   9.359   5.414 -0.4942  0.3518 -0.3713
  909MOL0     C22586   1.787   9.414   5.432  0.2240  0.9690 -0.3874
  909MOL0     C22587   1.823   9.519   5.354  0.3557 -0.0769 -0.0096
  909MOL0     O22588   1.951   9.573   5.366 -0.9290  0.4904 -0.7157
  909MOL0     C22589   2.030   9.567   5.250  0.8651 -0.3043  0.0226
  909MOL0     C22590   2.178   9.579   5.282  0.3497 -0.0036  0.1339
  909MOL0     C22591   2.274   9.568   5.168  0.6962 -0.0421  0.7663
  909MOL0     C22592   2.421   9.559   5.219  0.6591 -0.3858  0.1194
  909MOL0     C22593   2.516   9.546   5.093 -0.3252 -0.0777 -0.2342
  909MOL0     C22594   2.459   9.466   4.970 -0.1159 -0.0659 -0.7277
  909MOL0     C22595   2.567   9.464   4.874 -0.1726  0.6859  0.1644
  909MOL0     C22596   2.648   9.337   4.890  0.1744 -0.1357 -0.1356
  909MOL0     N22597   2.731   9.317   4.774  0.5116 -0.0687  0.1508
  909MOL0     C22598   2.755   9.203   4.703 -0.5961  0.6891 -0.3074
  909MOL0     C22599   2.855   9.227   4.615 -0.2493 -0.0881  0.2480
  909MOL0     C22600   2.907   9.123   4.518 -0.1320  0.4018  1.1644
  909MOL0     C22601   3.048   9.142   4.465  0.0272  1.1141  0.1944
  909MOL0     C22602   3.106   9.010   4.401  0.3471 -0.3512  0.4340
  909MOL0     C22603   3.261   9.013   4.404 -0.0127  0.2596  0.3370
  909MOL0     O22604   3.299   8.991   4.535  0.0013 -0.4336  0.0379
  909MOL0     C22605   3.411   9.044   4.592 -0.1948  0.4678  1.1485
  909MOL0     C22606   3.465   8.984   4.705 -0.5550 -0.5166 -0.0844
  909MOL0     C22607   3.590   9.024   4.758  0.2377 -0.5780  0.2993
  909MOL0     C22608   3.661   9.130   4.705  0.0487  0.0342  0.2546
  909MOL0     C22609   3.782   9.188   4.771  0.3675  0.6649 -0.5533
  909MOL0     O22610   3.793   9.321   4.761  0.4127 -0.4222 -0.2224
  909MOL0     C22611   3.914   9.374   4.797  0.1072 -0.9190 -0.1681
  909MOL0     C22612   3.903   9.467   4.905  0.2720 -0.1863 -0.0597
  909MOL0     C22613   4.016   9.526   4.960 -0.2918  0.5222  0.3577
  909MOL0     C22614   4.140   9.514   4.894  0.3803  0.6995 -0.4532
  909MOL0     O22615   4.245   9.582   4.946 -0.2856 -0.3314 -0.8353
  909MOL0     C22616   4.376   9.537   4.904 -0.2178 -0.3982 -0.2298
  909MOL0     C22617   4.492   9.610   4.974  0.1917  0.6187 -0.1855
  909MOL0     C22618   4.570   9.723   4.894 -0.6963  0.6763 -0.3392
  909MOL0     C22619   4.702   9.744   4.981 -0.4375 -0.1133  0.7507
  909MOL0     C22620   4.795   9.845   4.924 -0.7468  0.3552  0.7258
  909MOL0     C22621   4.730   9.990   4.930  0.3456  0.3965 -0.1323
  909MOL0     C22622   4.839  10.094   4.958 -0.6800  0.2105 -0.1357
  909MOL0     C22623   4.791  10.240   4.960 -0.1351  0.3473  0.0131
  909MOL0    Cl22624   4.640  10.270   5.042  0.2847 -0.0660 -0.0491
  909MOL0     C22625   4.151   9.428   4.781  0.3219 -0.1958 -0.1024
  909MOL0     C22626   4.037   9.364   4.728 -0.6160  1.5908  0.9569
  909MOL0     O22627   3.860   9.117   4.830 -0.3425  0.2350  0.4342
  909MOL0     C22628   3.611   9.188   4.585  0.2709 -0.9195 -0.0637
  909MOL0     C22629   3.485   9.150   4.534 -0.0897 -0.3692 -0.7107
  909MOL0     N22630   2.886   9.357   4.620  0.4076 -0.6055  0.0656
  909MOL0     N22631   2.814   9.410   4.713 -0.8286  0.0766 -0.5312
  909MOL0     C22632   1.732   9.565   5.259 -0.4462 -0.1962 -0.2065
  909MOL0     C22633   1.618   9.491   5.231  0.2209 -0.6333  0.2218
  909MOL0     C22634   1.213   9.311   5.404 -0.4757  0.0562  0.1521
  909MOL0     C22635   1.123   9.376   5.489 -0.1699 -0.4552 -0.0890
  909MOL0     C22636   0.979   9.346   5.480 -0.1634 -0.3728 -0.1279
  909MOL0     C22637   0.932   9.257   5.388  0.5388  0.8425 -0.1807
  909MOL0     O22638   0.802   9.225   5.353  0.4230 -0.5683 -0.4200
  909MOL0     C22639   0.693   9.307   5.399 -0.5342 -0.1307  0.3892
  909MOL0     C22640   0.561   9.256   5.329 -0.3094 -0.6098  0.4171
  909MOL0     C22641   0.523   9.112   5.357  0.0200 -0.2375 -0.6105
  909MOL0     C22642   0.512   9.083   5.502  0.4266  0.4204 -0.1630
  909MOL0     C22643   0.488   8.941   5.523 -0.2641 -0.0969 -0.1498
  909MOL0     C22644   0.458   8.828   5.525 -0.6252  0.5870  0.1998
  909MOL0     C22645   1.023   9.181   5.322  1.0034  0.9897  0.1326
  909MOL0     C22646   1.161   9.210   5.328 -0.2757 -0.0982  0.4269
  909MOL0     C22647   1.249   9.117   5.249 -0.4127 -0.5409 -0.2242
  909MOL0     H22648   1.609   9.292   5.486 -3.8201 -0.8730 -3.3298
  909MOL0     H22649   1.850   9.390   5.517 -1.0085  0.8972  0.5343
  909MOL0     H22650   2.013   9.479   5.186 -2.0904  1.1494 -1.4113
  909MOL0     H22651   2.011   9.655   5.188 -0.0485 -1.2418 -1.1140
  909MOL0     H22652   2.201   9.501   5.355  0.8526  2.3809  2.6712
  909MOL0     H22653   2.192   9.678   5.326 -0.3870  1.2219 -2.2190
  909MOL0     H22654   2.251   9.650   5.099  2.9253 -0.7214 -0.9275
  909MOL0     H22655   2.254   9.475   5.113  1.7712  1.2532 -1.9857
  909MOL0     H22656   2.443   9.651   5.274 -1.4164 -0.7002  1.5745
  909MOL0     H22657   2.447   9.473   5.281  2.3650  2.3823  3.5771
  909MOL0     H22658   2.541   9.648   5.064  0.4969 -0.4311 -0.7871
  909MOL0     H22659   2.605   9.489   5.121  2.0075  3.7105  0.7121
  909MOL0     H22660   2.428   9.366   5.004 -0.7063  0.4231  0.2190
  909MOL0     H22661   2.372   9.512   4.921  0.7440  1.2128 -1.1029
  909MOL0     H22662   2.635   9.550   4.870  0.5368  0.0979 -1.8663
  909MOL0     H22663   2.528   9.449   4.773  1.2340  1.7720 -0.5790
  909MOL0     H22664   2.710   9.354   4.979 -1.5830 -1.1433  1.3462
  909MOL0     H22665   2.577   9.257   4.912  0.5697 -1.0019 -1.9179
  909MOL0     H22666   2.707   9.106   4.703  0.7859 -0.0246 -0.1982
  909MOL0     H22667   2.905   9.024   4.564  0.3869 -0.0817  0.1960
  909MOL0     H22668   2.845   9.116   4.428  0.4466  3.2802  0.4299
  909MOL0     H22669   3.050   9.219   4.387 -0.1730  0.1867 -0.7422
  909MOL0     H22670   3.120   9.178   4.540  1.4187  1.4302 -1.2258
  909MOL0     H22671   3.070   9.003   4.297  3.7262 -3.1918 -0.7477
  909MOL0     H22672   3.077   8.917   4.450  0.1805 -1.4454 -1.6231
  909MOL0     H22673   3.297   9.107   4.359 -0.0878  0.5569  0.8927
  909MOL0     H22674   3.296   8.923   4.354  0.2638  1.0601 -0.9700
  909MOL0     H22675   3.411   8.918   4.773 -0.8278  0.4349  0.6401
  909MOL0     H22676   3.633   8.978   4.847  2.7532 -4.2180 -2.4801
  909MOL0     H22677   3.803   9.486   4.943  1.0864  1.2179  1.5057
  909MOL0     H22678   4.007   9.604   5.035  2.6834  0.3434  1.0169
  909MOL0     H22679   4.376   9.434   4.940  0.3997  0.6524  3.2130
  909MOL0     H22680   4.395   9.554   4.798  2.3768  2.2745  0.5219
  909MOL0     H22681   4.451   9.654   5.066 -1.8679 -0.5254 -0.4832
  909MOL0     H22682   4.559   9.530   5.005 -0.7939  0.1426  0.8242
  909MOL0     H22683   4.586   9.691   4.790 -0.5189  0.2956 -0.1979
  909MOL0     H22684   4.512   9.816   4.895  2.1052  2.5361 -0.0479
  909MOL0     H22685   4.753   9.647   4.989 -0.9092 -0.5032 -0.7723
  909MOL0     H22686   4.668   9.774   5.081 -3.5735  0.5392 -0.4004
  909MOL0     H22687   4.823   9.811   4.824  0.4420 -0.5435  1.3370
  909MOL0     H22688   4.894   9.854   4.970 -0.1600  0.2598 -0.4800
  909MOL0     H22689   4.668  10.022   4.846 -1.4882 -1.9993  0.1965
  909MOL0     H22690   4.672   9.987   5.023 -1.2966  0.1384 -1.1300
  909MOL0     H22691   4.908  10.084   4.874  2.1687 -1.2328  2.2121
  909MOL0     H22692   4.889  10.076   5.054  1.7375 -0.7209 -1.4941
  909MOL0     H22693   4.863  10.314   4.994  1.1611 -0.2251 -1.3767
  909MOL0     H22694   4.789  10.270   4.854  1.6725 -0.5407 -0.3133
  909MOL0     H22695   4.238   9.402   4.722  0.1919 -0.9521  0.0339
  909MOL0     H22696   4.038   9.303   4.639 -1.4676  0.5355  1.6372
  909MOL0     H22697   3.670   9.266   4.539 -0.9005 -1.3094 -2.3432
  909MOL0     H22698   3.465   9.195   4.437 -1.9102 -0.9764 -0.6444
  909MOL0     H22699   1.758   9.638   5.183 -0.2172  0.4263  0.4569
  909MOL0     H22700   1.550   9.527   5.154 -0.1736 -0.6786  0.5479
  909MOL0     H22701   1.154   9.455   5.558 -0.8224 -0.0598 -0.2449
  909MOL0     H22702   0.915   9.395   5.553 -0.0016  3.0671 -2.0895
  909MOL0     H22703   0.705   9.408   5.359 -0.0068  0.1828  1.3183
  909MOL0     H22704   0.667   9.303   5.505 -2.4786 -0.5544 -0.0661
  909MOL0     H22705   0.578   9.259   5.221 -0.3905 -0.3700  0.4102
  909MOL0     H22706   0.475   9.318   5.355 -0.6941 -1.0097  0.1157
  909MOL0     H22707   0.599   9.051   5.308  1.7406  1.2298  0.1172
  909MOL0     H22708   0.427   9.088   5.311 -0.0865 -0.0872 -0.4716
  909MOL0     H22709   0.601   9.112   5.560  1.4977  0.7208 -1.8894
  909MOL0     H22710   0.427   9.137   5.544  0.8858  0.5342  0.6437
  909MOL0     H22711   0.435   8.727   5.553  3.3612 -0.1021  1.6078
  909MOL0     H22712   0.994   9.103   5.253  3.9970 -0.1131 -0.0113
  909MOL0     H22713   1.332   9.072   5.304 -1.3277 -0.7053  1.0909
  909MOL0     H22714   1.189   9.035   5.208 -1.9465  0.8876 -0.9627
  909MOL0     H22715   1.295   9.170   5.166  0.4118  2.5894  2.0371
  910MOL0     O22716  10.037   5.233   3.083 -0.3848  0.0930  0.6576
  910MOL0     C22717  10.132   5.154   3.088 -0.2276 -0.0543  0.8505
  910MOL0     O22718  10.137   5.034   3.160 -0.0441  0.2376  0.2750
  910MOL0     C22719  10.035   4.977   3.232  0.9222  0.1384 -1.2117
  910MOL0     C22720  10.077   4.879   3.326 -0.0285  0.2919 -0.5501
  910MOL0     C22721   9.977   4.812   3.409  0.5226 -0.2500 -0.9511
  910MOL0     C22722   9.839   4.854   3.399 -0.3246  0.2850 -0.0809
  910MOL0     O22723   9.755   4.796   3.490 -0.2283 -0.2309  0.8098
  910MOL0     C22724   9.766   4.853   3.627  0.0378 -0.1778  0.3212
  910MOL0     C22725   9.632   4.897   3.664 -0.2075  0.1599 -0.6414
  910MOL0     C22726   9.543   4.774   3.694 -1.1125  0.1442 -0.1297
  910MOL0     C22727   9.435   4.802   3.795  0.2908 -0.0416 -0.7055
  910MOL0     C22728   9.307   4.869   3.734  0.0866  0.5960  0.2589
  910MOL0     C22729   9.202   4.915   3.837  0.6770  0.3580  0.4307
  910MOL0     C22730   9.073   4.965   3.771  1.1485 -0.5852  0.4628
  910MOL0     C22731   8.979   5.025   3.890  0.2591 -0.5587  0.0112
  910MOL0     N22732   9.022   5.153   3.950 -0.0768  0.4367 -0.1559
  910MOL0     C22733   8.979   5.188   4.075 -0.0261  0.5693 -0.1269
  910MOL0     C22734   8.981   5.320   4.079  0.1546 -0.1125  0.7651
  910MOL0     C22735   8.937   5.402   4.193 -0.2856 -0.7934 -0.4321
  910MOL0     C22736   9.054   5.447   4.286  0.1328  0.3253 -0.3602
  910MOL0     C22737   9.109   5.324   4.357 -0.7901  0.2994  0.3710
  910MOL0     C22738   9.215   5.362   4.465  0.3229 -0.3086  1.2315
  910MOL0     O22739   9.259   5.247   4.534 -0.7318  0.6686 -0.3026
  910MOL0     C22740   9.389   5.248   4.566  0.2857  1.0537  0.0741
  910MOL0     C22741   9.458   5.365   4.617  0.0284  0.1168 -0.2235
  910MOL0     C22742   9.598   5.360   4.631  0.3077  0.5215  0.6818
  910MOL0     C22743   9.666   5.232   4.608 -0.3051  0.4064 -0.0868
  910MOL0     C22744   9.819   5.230   4.615  0.2187  0.0876 -0.4538
  910MOL0     O22745   9.886   5.115   4.571 -0.1695  0.4764 -0.5946
  910MOL0     C22746  10.021   5.116   4.539  0.1331  0.3452  0.0499
  910MOL0     C22747  10.078   5.186   4.436  0.3468  0.7676  0.0411
  910MOL0     C22748  10.207   5.170   4.391  0.3162  0.1556  0.6261
  910MOL0     C22749  10.291   5.073   4.459 -0.2437 -0.6243 -0.1383
  910MOL0     O22750  10.412   5.042   4.403 -0.2762 -0.4745  0.7311
  910MOL0     C22751  10.492   5.157   4.396 -0.0929 -0.6652 -0.6425
  910MOL0     C22752  10.625   5.090   4.342 -1.1602 -0.8189  1.7639
  910MOL0     C22753  10.738   5.193   4.342 -0.2938  0.2725  0.2027
  910MOL0     C22754  10.853   5.149   4.253  0.5914  0.7736 -0.2450
  910MOL0     C22755  10.986   5.214   4.286 -1.0850  0.8880 -0.0703
  910MOL0     C22756  11.109   5.138   4.219  0.5402 -0.7452  0.2960
  910MOL0     C22757  11.238   5.211   4.210 -0.1828  0.1510 -0.3028
  910MOL0     C22758  11.329   5.166   4.093 -0.0950 -0.3745  0.0731
  910MOL0    Cl22759  11.408   5.008   4.117 -0.2515 -0.2076 -0.2906
  910MOL0     C22760  10.239   5.009   4.576 -0.3311 -0.5105 -0.1678
  910MOL0     C22761  10.106   5.024   4.606  0.2208  0.3472 -1.0024
  910MOL0     O22762   9.872   5.327   4.678  0.1881  0.2401  0.0840
  910MOL0     C22763   9.601   5.118   4.573  0.9539  0.8358 -0.0427
  910MOL0     C22764   9.464   5.121   4.551 -0.7200  1.2437  0.7545
  910MOL0     N22765   9.043   5.364   3.959 -0.2386  0.5502 -0.8753
  910MOL0     N22766   9.070   5.263   3.893  0.0215  0.1241  0.0852
  910MOL0     C22767   9.804   4.956   3.312 -0.3716 -0.5349 -0.0830
  910MOL0     C22768   9.903   5.010   3.220  0.6833 -0.2673 -0.4937
  910MOL0     C22769  10.261   5.187   3.011  0.3444 -0.4942  0.3479
  910MOL0     C22770  10.255   5.248   2.881 -0.5366  0.2233 -0.2069
  910MOL0     C22771  10.372   5.260   2.807 -1.4993  0.3080  0.4180
  910MOL0     C22772  10.502   5.241   2.859 -0.7349  0.3740 -0.1794
  910MOL0     O22773  10.606   5.256   2.767 -0.4840 -0.6704  0.0805
  910MOL0     C22774  10.737   5.233   2.819 -0.4254 -0.2033  0.3140
  910MOL0     C22775  10.851   5.262   2.724 -0.0758  0.5493  0.3283
  910MOL0     C22776  10.997   5.230   2.781 -0.0688  0.5442  0.6708
  910MOL0     C22777  11.109   5.282   2.706 -0.0613 -0.2319  0.2490
  910MOL0     C22778  11.108   5.266   2.557  0.2877  0.4057  0.6081
  910MOL0     C22779  11.109   5.238   2.439  0.5480  0.3866 -0.0206
  910MOL0     C22780  10.503   5.190   2.991  0.2799 -0.8453  0.1664
  910MOL0     C22781  10.390   5.159   3.065 -1.2857 -0.0842  0.6483
  910MOL0     C22782  10.414   5.079   3.192 -0.0144  0.1371 -1.0271
  910MOL0     H22783  10.180   4.851   3.348 -0.3167 -2.3503 -2.0563
  910MOL0     H22784  10.019   4.742   3.481  2.1961 -2.0545 -3.4994
  910MOL0     H22785   9.800   4.774   3.694 -1.6210 -0.8353  0.4341
  910MOL0     H22786   9.832   4.939   3.637  0.4216 -0.7175  3.5350
  910MOL0     H22787   9.597   4.951   3.575 -1.9480 -1.0099 -0.7054
  910MOL0     H22788   9.636   4.971   3.744 -0.7759 -0.5639  0.0687
  910MOL0     H22789   9.605   4.691   3.730  4.0491  3.5052 -0.1836
  910MOL0     H22790   9.496   4.755   3.597 -1.0427  4.1842 -1.1322
  910MOL0     H22791   9.412   4.706   3.842  0.9691  1.6633  3.4661
  910MOL0     H22792   9.475   4.852   3.883  2.6275  0.7491 -2.1062
  910MOL0     H22793   9.337   4.956   3.675  1.2009  0.4539  0.5901
  910MOL0     H22794   9.254   4.797   3.671  1.1792 -1.3258  1.4336
  910MOL0     H22795   9.182   4.827   3.898  0.4797 -0.1102 -0.2926
  910MOL0     H22796   9.255   4.996   3.888  2.8173 -0.2320 -0.7184
  910MOL0     H22797   9.024   4.883   3.718  0.7959 -1.1858  1.6797
  910MOL0     H22798   9.105   5.040   3.698  2.0609 -0.1688  1.2709
  910MOL0     H22799   8.878   5.047   3.855  1.2325  1.1503 -1.9510
  910MOL0     H22800   8.959   4.943   3.959 -0.6083 -1.7257 -1.5688
  910MOL0     H22801   8.935   5.124   4.151 -0.5340  0.3266 -0.6105
  910MOL0     H22802   8.891   5.488   4.143 -0.7690 -1.1533 -0.6149
  910MOL0     H22803   8.866   5.350   4.258  0.2341 -2.8145 -1.3954
  910MOL0     H22804   9.127   5.492   4.219  1.6364 -1.8323 -0.2825
  910MOL0     H22805   9.033   5.526   4.359  0.6972  0.1343  0.0108
  910MOL0     H22806   9.153   5.259   4.280  0.5518  2.8178 -1.1581
  910MOL0     H22807   9.014   5.290   4.398 -0.5863  0.2657  0.8207
  910MOL0     H22808   9.178   5.426   4.545  0.2835 -0.7716  1.5884
  910MOL0     H22809   9.308   5.400   4.421 -0.4086  0.4212  0.2824
  910MOL0     H22810   9.397   5.453   4.638 -0.7345  0.0600 -1.9788
  910MOL0     H22811   9.660   5.448   4.639 -0.1638  0.7974  1.4214
  910MOL0     H22812  10.017   5.252   4.375 -1.3970 -3.1845 -2.9725
  910MOL0     H22813  10.239   5.217   4.298  0.4985  3.9801  2.4431
  910MOL0     H22814  10.454   5.230   4.325 -1.3129 -0.1207  0.5305
  910MOL0     H22815  10.519   5.204   4.491  0.8992  1.0099 -1.7011
  910MOL0     H22816  10.649   5.003   4.405  0.3091 -1.8945 -0.1704
  910MOL0     H22817  10.619   5.058   4.238  3.5977  1.4609  0.5455
  910MOL0     H22818  10.711   5.296   4.317 -1.6128  0.4543  2.1822
  910MOL0     H22819  10.778   5.199   4.443  0.5264  3.6537 -0.2207
  910MOL0     H22820  10.826   5.171   4.149 -1.1207  0.6072  0.1296
  910MOL0     H22821  10.860   5.040   4.263  1.6697  1.0594  4.1793
  910MOL0     H22822  10.994   5.226   4.394  1.4042  2.3779 -0.3320
  910MOL0     H22823  10.987   5.315   4.242 -0.0291  0.6787 -0.5546
  910MOL0     H22824  11.125   5.038   4.260  0.8374 -1.3043 -1.1307
  910MOL0     H22825  11.078   5.115   4.117  1.8819 -0.7274 -0.1267
  910MOL0     H22826  11.294   5.187   4.301  0.0852 -1.2230 -0.8013
  910MOL0     H22827  11.222   5.318   4.191 -0.1701  0.0047 -1.1844
  910MOL0     H22828  11.272   5.151   4.001 -2.4662 -0.5954  1.4748
  910MOL0     H22829  11.408   5.242   4.090  0.4382 -0.8986  0.4917
  910MOL0     H22830  10.306   4.947   4.634  1.1457 -0.7336 -2.0116
  910MOL0     H22831  10.068   4.961   4.685  1.0872  0.2697 -0.6309
  910MOL0     H22832   9.657   5.030   4.546  1.4434  1.1789 -0.1649
  910MOL0     H22833   9.425   5.037   4.494  2.9051 -0.1925  0.1329
  910MOL0     H22834   9.700   4.988   3.309  0.5074  2.6727 -2.3079
  910MOL0     H22835   9.867   5.072   3.139 -3.2804 -0.8622  0.5898
  910MOL0     H22836  10.162   5.279   2.835  0.5182 -0.7018 -3.2088
  910MOL0     H22837  10.370   5.297   2.705  0.0713  3.2891  1.3337
  910MOL0     H22838  10.726   5.125   2.832 -0.4564 -0.3560 -0.8621
  910MOL0     H22839  10.755   5.295   2.908 -0.6622  1.1912 -0.5839
  910MOL0     H22840  10.845   5.369   2.700 -2.5983  0.3443 -0.1825
  910MOL0     H22841  10.841   5.195   2.638 -0.9419  3.2540 -1.8080
  910MOL0     H22842  11.007   5.121   2.768 -0.1806  0.4375  1.4165
  910MOL0     H22843  11.000   5.254   2.888 -1.6628 -2.9811  1.6810
  910MOL0     H22844  11.116   5.388   2.731 -0.8411 -0.2944  0.7826
  910MOL0     H22845  11.196   5.232   2.748  0.9413 -0.6285 -2.1325
  910MOL0     H22846  11.113   5.200   2.339 -0.2773 -3.2015  1.1650
  910MOL0     H22847  10.601   5.163   3.030 -0.8711 -2.8792  1.8513
  910MOL0     H22848  10.361   4.983   3.192  1.9728 -1.0480  0.5388
  910MOL0     H22849  10.517   5.043   3.205  0.0573  1.3867  3.0460
  910MOL0     H22850  10.393   5.142   3.279  0.3460  1.0266 -1.5720
  911MOL0     O22851   8.032   6.491   1.857  0.2074 -1.2192 -0.1544
  911MOL0     C22852   8.000   6.410   1.767  1.0030 -0.0364  0.5580
  911MOL0     O22853   8.065   6.286   1.749  0.0628  0.0891 -0.2374
  911MOL0     C22854   8.162   6.252   1.843 -0.1110  0.0672  0.2435
  911MOL0     C22855   8.280   6.321   1.873 -0.0987 -0.5494 -0.2189
  911MOL0     C22856   8.376   6.255   1.949  0.6653 -0.3318  0.2547
  911MOL0     C22857   8.347   6.135   2.016  1.1399  0.7021  1.5618
  911MOL0     O22858   8.426   6.073   2.112 -0.7661  0.5984  0.6178
  911MOL0     C22859   8.570   6.083   2.099 -0.1205 -0.6021  0.0150
  911MOL0     C22860   8.624   6.034   2.234  1.1999  0.0976 -0.0508
  911MOL0     C22861   8.774   5.998   2.231  0.1757 -0.6823 -0.2139
  911MOL0     C22862   8.833   5.987   2.372 -0.0009 -0.3012  0.5202
  911MOL0     C22863   8.986   5.981   2.377  0.0965  0.3370  0.5037
  911MOL0     C22864   9.043   5.860   2.299  0.2215 -0.4053 -1.1797
  911MOL0     C22865   9.004   5.725   2.366 -0.1802  0.0517 -0.5171
  911MOL0     C22866   9.095   5.694   2.484  0.0862  0.2393  0.2097
  911MOL0     N22867   9.181   5.576   2.455  0.0234  0.4115 -0.0591
  911MOL0     C22868   9.308   5.565   2.503  1.0368  0.4205 -0.7371
  911MOL0     C22869   9.351   5.449   2.458  0.0749  0.1619 -0.9289
  911MOL0     C22870   9.497   5.412   2.485  0.9239  0.9409  0.2447
  911MOL0     C22871   9.596   5.447   2.384  0.2282 -0.0284  0.3019
  911MOL0     C22872   9.637   5.595   2.370  0.7927 -0.9954 -0.4118
  911MOL0     C22873   9.756   5.617   2.461  0.3111  0.4360 -0.4159
  911MOL0     O22874   9.781   5.753   2.431 -0.9112 -0.3125 -0.3880
  911MOL0     C22875   9.907   5.780   2.390  0.0383  0.2445 -0.6419
  911MOL0     C22876   9.985   5.883   2.448  0.0923 -0.2072  0.4293
  911MOL0     C22877  10.104   5.921   2.394 -0.0279  0.1389 -0.6558
  911MOL0     C22878  10.152   5.869   2.270  0.0408 -0.3111 -0.1878
  911MOL0     C22879  10.290   5.920   2.215 -0.1802 -0.0776  0.0667
  911MOL0     O22880  10.338   5.854   2.104  0.1791 -0.1379  0.7599
  911MOL0     C22881  10.446   5.908   2.030 -0.0471  0.1378 -0.5494
  911MOL0     C22882  10.545   5.826   1.987 -0.2819  0.6384  1.1469
  911MOL0     C22883  10.646   5.865   1.902  0.1930 -0.0087 -0.4213
  911MOL0     C22884  10.670   5.997   1.873  0.7564 -0.2369  0.3404
  911MOL0     O22885  10.769   6.051   1.804  0.4701  0.2269 -0.4597
  911MOL0     C22886  10.844   5.967   1.723 -0.7910  0.4804 -0.1152
  911MOL0     C22887  10.964   5.926   1.805  0.0092  0.5019  0.0321
  911MOL0     C22888  11.067   5.860   1.713 -0.7097  0.3563  0.4075
  911MOL0     C22889  11.142   5.953   1.610 -0.0568 -0.7322 -0.2751
  911MOL0     C22890  11.260   6.025   1.667  0.1497  0.4959 -0.7221
  911MOL0     C22891  11.264   6.178   1.621 -0.6665  0.7693  0.0742
  911MOL0     C22892  11.282   6.198   1.468 -0.2837  0.3425 -0.1942
  911MOL0     C22893  11.267   6.344   1.427 -0.5854  0.4182 -0.3442
  911MOL0    Cl22894  11.100   6.408   1.417  0.5815 -0.2121  0.0584
  911MOL0     C22895  10.564   6.086   1.915 -0.4559 -0.0717  0.0686
  911MOL0     C22896  10.452   6.038   1.976  0.2277 -0.1698  0.4804
  911MOL0     O22897  10.347   6.011   2.275  0.7501 -0.7734  0.7421
  911MOL0     C22898  10.069   5.774   2.212 -0.5280  0.2037  0.0914
  911MOL0     C22899   9.945   5.732   2.262 -1.0314 -0.2758 -0.9152
  911MOL0     N22900   9.251   5.389   2.392  1.0381  0.1622  0.6669
  911MOL0     N22901   9.151   5.469   2.385 -0.3046  0.6618 -0.3490
  911MOL0     C22902   8.226   6.067   1.990  0.0973 -0.3663  0.8285
  911MOL0     C22903   8.136   6.124   1.904  0.3415 -0.5023  0.2263
  911MOL0     C22904   7.868   6.422   1.693 -0.3909 -0.0721  0.8934
  911MOL0     C22905   7.825   6.310   1.607  0.4630  0.1737 -0.1908
  911MOL0     C22906   7.696   6.307   1.547 -0.5060  0.2970 -0.0020
  911MOL0     C22907   7.614   6.421   1.566  0.0383 -0.5892 -0.5938
  911MOL0     O22908   7.490   6.422   1.505 -0.7252 -0.2900  0.0870
  911MOL0     C22909   7.385   6.371   1.588 -1.0803 -0.6165  0.6490
  911MOL0     C22910   7.256   6.447   1.562  0.1930 -0.0493 -0.5359
  911MOL0     C22911   7.266   6.597   1.583  0.0109 -0.4165 -0.1067
  911MOL0     C22912   7.164   6.671   1.501 -0.4253 -0.5128 -0.4197
  911MOL0     C22913   7.033   6.667   1.562 -0.5687 -0.2308 -0.1660
  911MOL0     C22914   6.921   6.638   1.597  0.2861  0.3099  0.4025
  911MOL0     C22915   7.656   6.526   1.641  0.8273 -0.9685  0.8405
  911MOL0     C22916   7.778   6.529   1.714  0.5406 -0.7320  0.0237
  911MOL0     C22917   7.804   6.648   1.811 -0.3286  0.5941  0.4504
  911MOL0     H22918   8.287   6.421   1.832 -4.6105 -0.8918 -2.4344
  911MOL0     H22919   8.462   6.320   1.962 -0.6470  1.8994 -1.3632
  911MOL0     H22920   8.593   6.003   2.028 -3.0489 -0.2880 -1.4411
  911MOL0     H22921   8.615   6.180   2.074 -1.9722  0.3440  0.2110
  911MOL0     H22922   8.562   5.948   2.259 -0.0871  0.7301 -0.9577
  911MOL0     H22923   8.602   6.108   2.313  2.8002 -0.3899  0.8903
  911MOL0     H22924   8.825   6.077   2.175  0.4468 -0.6267  0.1097
  911MOL0     H22925   8.785   5.907   2.171 -1.7955 -1.0641 -0.0606
  911MOL0     H22926   8.812   6.077   2.430 -0.9010  0.1980 -0.5700
  911MOL0     H22927   8.778   5.910   2.427  0.2654 -1.3490 -0.6481
  911MOL0     H22928   9.041   6.060   2.325 -0.5973 -1.4639 -3.4027
  911MOL0     H22929   9.015   5.971   2.482 -0.8531 -2.0202  0.6020
  911MOL0     H22930   9.002   5.851   2.197 -1.1110 -2.5932 -0.5285
  911MOL0     H22931   9.151   5.880   2.297  0.3689 -0.9798  0.3279
  911MOL0     H22932   9.004   5.644   2.293 -2.5544 -1.7669  1.2999
  911MOL0     H22933   8.902   5.743   2.403 -0.9747  1.0891 -3.0128
  911MOL0     H22934   9.146   5.788   2.510 -1.3220  1.1178 -0.0946
  911MOL0     H22935   9.029   5.666   2.566 -0.6065 -2.0539 -1.0511
  911MOL0     H22936   9.344   5.640   2.574 -2.5018  1.1368  0.5231
  911MOL0     H22937   9.520   5.454   2.583  0.3318 -1.3471  1.4333
  911MOL0     H22938   9.507   5.305   2.508  1.5627  0.9479  0.0214
  911MOL0     H22939   9.688   5.389   2.394 -0.0715 -1.1498 -2.5811
  911MOL0     H22940   9.559   5.416   2.286 -0.3954  3.5530 -0.7499
  911MOL0     H22941   9.555   5.666   2.378  0.0707 -1.6089 -1.8661
  911MOL0     H22942   9.684   5.607   2.272  3.5752 -2.9894  0.5539
  911MOL0     H22943   9.841   5.553   2.435 -0.6034 -2.1069  2.2591
  911MOL0     H22944   9.736   5.593   2.566  0.2999  0.5218 -0.3980
  911MOL0     H22945   9.955   5.929   2.542  2.8780  1.2385  0.6866
  911MOL0     H22946  10.164   5.997   2.444 -0.5827 -0.6381  1.3126
  911MOL0     H22947  10.554   5.721   2.013  0.7152 -0.7279 -3.6974
  911MOL0     H22948  10.716   5.789   1.869  0.4377  0.4276 -0.9256
  911MOL0     H22949  10.794   5.877   1.686  1.7307 -1.3102  0.5241
  911MOL0     H22950  10.871   6.021   1.632  0.5977 -0.1852 -0.1359
  911MOL0     H22951  11.000   6.017   1.855  1.3549  0.4558 -0.8006
  911MOL0     H22952  10.941   5.862   1.890 -1.2685  2.9578  1.6767
  911MOL0     H22953  11.132   5.799   1.776 -2.6523  0.1783  2.3562
  911MOL0     H22954  11.020   5.790   1.644 -1.6694 -0.1697  1.5790
  911MOL0     H22955  11.064   6.019   1.569 -2.4821 -2.1855  1.7174
  911MOL0     H22956  11.189   5.886   1.537  2.5922 -0.1117  0.7812
  911MOL0     H22957  11.354   5.973   1.647 -1.1988 -1.1787 -3.2107
  911MOL0     H22958  11.239   6.016   1.774  2.5296  0.7655 -0.1635
  911MOL0     H22959  11.177   6.223   1.669 -2.9401 -2.4853 -0.6502
  911MOL0     H22960  11.351   6.226   1.666 -0.3829  3.0952 -2.7030
  911MOL0     H22961  11.204   6.135   1.423 -0.5504 -1.1771  2.1713
  911MOL0     H22962  11.380   6.168   1.431 -0.2678  0.4735 -0.2547
  911MOL0     H22963  11.322   6.407   1.497 -0.6750  0.3905 -0.2488
  911MOL0     H22964  11.308   6.369   1.328 -1.0008 -1.2725 -0.9893
  911MOL0     H22965  10.573   6.187   1.876 -1.7649 -0.2719 -0.8246
  911MOL0     H22966  10.365   6.103   1.979 -0.9438 -1.7177  1.7124
  911MOL0     H22967  10.106   5.710   2.133 -0.4135  0.2528  0.1048
  911MOL0     H22968   9.883   5.671   2.197 -1.0803 -0.5851 -0.5800
  911MOL0     H22969   8.201   5.974   2.040 -0.5133  1.7670  4.8772
  911MOL0     H22970   8.049   6.068   1.871  1.0148 -0.8510 -1.0429
  911MOL0     H22971   7.883   6.220   1.591 -3.7507 -3.0535  0.8480
  911MOL0     H22972   7.680   6.217   1.489  2.3332  0.7935 -1.8112
  911MOL0     H22973   7.412   6.372   1.694 -0.2620  0.1535  0.4442
  911MOL0     H22974   7.358   6.271   1.553 -1.0675 -1.0403  1.7960
  911MOL0     H22975   7.180   6.407   1.630 -1.2022 -0.2314 -2.1081
  911MOL0     H22976   7.214   6.431   1.462  0.7520 -0.3677 -0.7193
  911MOL0     H22977   7.362   6.633   1.547 -0.1064  0.0668  0.0409
  911MOL0     H22978   7.255   6.623   1.689  1.9530 -1.7093  0.4518
  911MOL0     H22979   7.189   6.777   1.514 -0.6129 -0.7564  2.5361
  911MOL0     H22980   7.169   6.635   1.397 -0.0658 -2.3779  0.2087
  911MOL0     H22981   6.821   6.638   1.635 -0.4048 -0.9546 -1.2998
  911MOL0     H22982   7.588   6.610   1.650  0.5227 -0.9317 -1.4139
  911MOL0     H22983   7.717   6.709   1.838 -1.0926 -0.3982  0.3063
  911MOL0     H22984   7.835   6.612   1.910 -0.4599  2.2941  1.1306
  911MOL0     H22985   7.877   6.708   1.757 -0.4731 -0.2662 -0.7631
  912MOL0     O22986   1.993   7.740   3.558  0.1274 -0.9288  0.1563
  912MOL0     C22987   1.984   7.705   3.672 -0.3123  0.1343  0.7372
  912MOL0     O22988   2.086   7.646   3.747 -0.2281  1.2260 -0.0473
  912MOL0     C22989   2.211   7.688   3.712  0.0848  0.6362  0.4751
  912MOL0     C22990   2.282   7.624   3.600 -0.0486 -0.3581  0.1238
  912MOL0     C22991   2.409   7.664   3.559 -0.1028 -0.4854 -0.6348
  912MOL0     C22992   2.476   7.762   3.632 -0.7136 -0.3004 -0.8287
  912MOL0     O22993   2.605   7.772   3.594 -0.6108 -0.0996 -0.3433
  912MOL0     C22994   2.687   7.863   3.670  0.2661 -0.5799  0.8554
  912MOL0     C22995   2.831   7.822   3.634 -0.1492  0.7890 -0.5749
  912MOL0     C22996   2.871   7.798   3.488  0.0097 -0.1558  1.1267
  912MOL0     C22997   2.904   7.929   3.415  0.0066 -0.1292 -0.3331
  912MOL0     C22998   2.952   7.918   3.265 -0.3927 -0.2873  0.2435
  912MOL0     C22999   2.858   7.823   3.181 -0.0540  0.3300  1.2463
  912MOL0     C23000   2.839   7.881   3.039 -0.1326  0.0108  0.6333
  912MOL0     C23001   2.730   7.813   2.955  0.0365  0.2975 -0.0036
  912MOL0     N23002   2.740   7.838   2.814  0.7733  0.1074  0.8963
  912MOL0     C23003   2.839   7.780   2.746 -0.1307 -0.0660 -0.4524
  912MOL0     C23004   2.800   7.797   2.622 -0.2965  0.6350 -0.5893
  912MOL0     C23005   2.873   7.735   2.505  0.2165  0.1195 -0.3207
  912MOL0     C23006   2.926   7.833   2.406 -0.3708 -0.2445 -0.1590
  912MOL0     C23007   3.041   7.920   2.455  0.1474 -0.0633 -0.2240
  912MOL0     C23008   3.054   8.021   2.342 -0.6347  0.1016 -0.0362
  912MOL0     O23009   3.177   8.090   2.356  0.0005 -0.5870  0.1413
  912MOL0     C23010   3.288   8.021   2.316 -0.5465 -0.1124 -0.2429
  912MOL0     C23011   3.324   8.036   2.180  0.3143  0.9030  0.3226
  912MOL0     C23012   3.446   7.993   2.127  0.5392  0.3375 -0.7035
  912MOL0     C23013   3.540   7.924   2.209  0.3764 -0.4068  0.5443
  912MOL0     C23014   3.668   7.866   2.165 -0.2344  0.5383  1.0257
  912MOL0     O23015   3.715   7.765   2.249  0.5387 -0.4410  0.0887
  912MOL0     C23016   3.823   7.695   2.218  0.6323  0.0867 -0.0266
  912MOL0     C23017   3.839   7.580   2.292  0.0284  0.7104 -0.5274
  912MOL0     C23018   3.958   7.501   2.282  0.9763 -0.1760 -0.3364
  912MOL0     C23019   4.066   7.546   2.209 -0.2991  0.3973  0.2196
  912MOL0     O23020   4.179   7.468   2.219  0.4120 -0.3399 -0.1979
  912MOL0     C23021   4.303   7.536   2.241 -0.4823  0.5413  0.1192
  912MOL0     C23022   4.417   7.435   2.230  0.7110  0.0245  0.2949
  912MOL0     C23023   4.436   7.362   2.364  0.8968  0.0851  1.4447
  912MOL0     C23024   4.548   7.256   2.367 -0.2490  0.5429 -0.0429
  912MOL0     C23025   4.555   7.170   2.494  0.8213  0.4470 -0.3728
  912MOL0     C23026   4.588   7.248   2.625  0.7564 -0.1081 -0.2568
  912MOL0     C23027   4.726   7.310   2.619  0.7339 -1.0272 -0.3250
  912MOL0     C23028   4.725   7.447   2.685  0.1665 -0.0864  0.5853
  912MOL0    Cl23029   4.889   7.471   2.748 -0.6124  0.3589  0.2128
  912MOL0     C23030   4.059   7.663   2.143 -0.4815 -0.2920 -0.3224
  912MOL0     C23031   3.941   7.740   2.149 -0.2517  1.1634 -0.2690
  912MOL0     O23032   3.719   7.907   2.051  0.3196  0.1483  0.1881
  912MOL0     C23033   3.494   7.908   2.339  0.2173 -0.2542 -0.0502
  912MOL0     C23034   3.371   7.946   2.387 -0.0492 -0.2530 -0.6568
  912MOL0     N23035   2.687   7.880   2.614 -0.0033 -0.7820  0.0315
  912MOL0     N23036   2.655   7.911   2.732  0.7389 -0.3073  0.1686
  912MOL0     C23037   2.410   7.833   3.741 -0.6375 -0.1749  0.1795
  912MOL0     C23038   2.278   7.793   3.772 -0.2186  0.9719 -0.5775
  912MOL0     C23039   1.850   7.707   3.739 -0.0424 -0.3322  0.6682
  912MOL0     C23040   1.858   7.698   3.880 -0.5386  0.1258  0.2058
  912MOL0     C23041   1.742   7.711   3.956 -0.5520 -0.2113  0.4354
  912MOL0     C23042   1.623   7.726   3.900 -0.6103 -0.6796  0.5671
  912MOL0     O23043   1.523   7.745   3.996 -1.0151  0.0364  0.3950
  912MOL0     C23044   1.415   7.835   3.960  0.6150  0.7752 -0.4383
  912MOL0     C23045   1.363   7.914   4.079 -0.4246 -0.3707 -0.0781
  912MOL0     C23046   1.470   8.026   4.106  0.1994 -0.1029  0.3209
  912MOL0     C23047   1.448   8.135   4.009 -0.0669  0.0250  0.3094
  912MOL0     C23048   1.524   8.254   4.050  0.1313  0.3843  0.1117
  912MOL0     C23049   1.596   8.350   4.067 -0.4542  0.1851  0.8669
  912MOL0     C23050   1.605   7.730   3.761 -0.8465 -0.4156 -0.3164
  912MOL0     C23051   1.719   7.721   3.678 -0.0128 -0.2429 -0.2621
  912MOL0     C23052   1.703   7.751   3.529 -0.4749 -0.3996 -0.4577
  912MOL0     H23053   2.231   7.539   3.557 -0.0811 -0.2223 -0.1044
  912MOL0     H23054   2.465   7.612   3.483  1.8167 -0.5579  0.7611
  912MOL0     H23055   2.671   7.966   3.638  0.8893 -0.6626  0.2648
  912MOL0     H23056   2.679   7.850   3.778 -2.1685 -1.7056  0.5950
  912MOL0     H23057   2.828   7.722   3.677  0.3281  0.9635 -0.1361
  912MOL0     H23058   2.903   7.883   3.690 -0.5057 -1.2559  2.2988
  912MOL0     H23059   2.785   7.759   3.434 -1.5603  3.7985  0.4403
  912MOL0     H23060   2.958   7.733   3.480 -0.9609 -1.2260 -1.9180
  912MOL0     H23061   2.813   7.990   3.408 -0.4409 -0.9580 -2.8954
  912MOL0     H23062   2.982   7.983   3.469  0.3288  0.2510 -1.1537
  912MOL0     H23063   2.955   8.019   3.224  0.1322 -0.9471 -1.4522
  912MOL0     H23064   3.053   7.877   3.253  0.6458  2.4304 -1.2512
  912MOL0     H23065   2.892   7.719   3.186  2.9271  1.0481 -1.1749
  912MOL0     H23066   2.756   7.830   3.220 -0.0372  1.0939  1.1566
  912MOL0     H23067   2.930   7.870   2.979 -0.6612 -2.6337  0.1678
  912MOL0     H23068   2.803   7.983   3.057 -0.5923 -0.2092  0.9823
  912MOL0     H23069   2.715   7.708   2.983 -4.2769 -0.1853 -3.2094
  912MOL0     H23070   2.639   7.861   2.992 -0.0418  3.0322 -3.2608
  912MOL0     H23071   2.936   7.745   2.780 -0.4700 -2.7185 -1.9362
  912MOL0     H23072   2.958   7.678   2.544 -0.2617 -0.8410 -0.6584
  912MOL0     H23073   2.806   7.665   2.454 -0.7658 -1.2680  2.6915
  912MOL0     H23074   2.982   7.776   2.331  0.0792 -3.1381  2.1436
  912MOL0     H23075   2.848   7.896   2.364  0.9962  2.9257  1.6749
  912MOL0     H23076   3.122   7.851   2.480 -1.4690 -1.6567  0.8573
  912MOL0     H23077   3.022   7.973   2.549  1.1353 -4.6862  2.9183
  912MOL0     H23078   2.971   8.092   2.351 -0.0695  1.2509 -2.8386
  912MOL0     H23079   3.034   7.980   2.243 -2.0487 -0.5537  0.4940
  912MOL0     H23080   3.258   8.087   2.111 -1.3973 -2.9088 -1.1334
  912MOL0     H23081   3.453   8.013   2.020  2.9632  0.9217 -0.4851
  912MOL0     H23082   3.762   7.544   2.360 -3.4439  2.5804 -3.1663
  912MOL0     H23083   3.967   7.405   2.332 -1.4303 -0.3347 -0.0906
  912MOL0     H23084   4.323   7.599   2.153  0.3101 -1.6078 -1.3299
  912MOL0     H23085   4.326   7.583   2.337 -0.2404  0.1349  0.2625
  912MOL0     H23086   4.387   7.369   2.149 -1.0989 -0.6597  1.4539
  912MOL0     H23087   4.511   7.481   2.200  0.8481 -0.9951 -0.9015
  912MOL0     H23088   4.447   7.428   2.451 -0.4246  2.3602 -0.0111
  912MOL0     H23089   4.347   7.308   2.396  0.7015  0.0784  0.8849
  912MOL0     H23090   4.635   7.321   2.355  0.2425 -0.1562 -0.3455
  912MOL0     H23091   4.545   7.194   2.277 -0.6694  0.6408 -0.0953
  912MOL0     H23092   4.631   7.094   2.473 -0.6690 -1.1610 -0.1386
  912MOL0     H23093   4.463   7.117   2.519  0.7102 -0.3520 -2.3112
  912MOL0     H23094   4.515   7.327   2.644 -1.0343 -2.1255  1.7736
  912MOL0     H23095   4.591   7.186   2.714  3.8035 -0.6320 -0.6209
  912MOL0     H23096   4.778   7.319   2.523  2.3091 -0.0312  0.5761
  912MOL0     H23097   4.795   7.239   2.665  0.3048 -2.3853 -1.6765
  912MOL0     H23098   4.715   7.522   2.605 -0.7802 -1.1955 -0.3658
  912MOL0     H23099   4.645   7.463   2.757 -0.9000 -0.0714 -0.5638
  912MOL0     H23100   4.142   7.714   2.094 -2.6496  2.8780 -1.0202
  912MOL0     H23101   3.944   7.835   2.096  2.1065  1.4848  0.3346
  912MOL0     H23102   3.548   7.836   2.399 -1.0915 -0.0515  1.4382
  912MOL0     H23103   3.340   7.930   2.489 -0.9439 -2.9452 -1.2601
  912MOL0     H23104   2.469   7.905   3.797 -0.5041  1.0097 -1.3957
  912MOL0     H23105   2.229   7.835   3.860  1.4275 -0.9959  1.4181
  912MOL0     H23106   1.955   7.691   3.929  0.2150  1.9760 -0.9033
  912MOL0     H23107   1.757   7.711   4.063 -0.7599  0.1515  0.4675
  912MOL0     H23108   1.335   7.778   3.912  0.2078  2.2796 -1.6276
  912MOL0     H23109   1.434   7.906   3.879 -1.8164  0.8983 -0.9644
  912MOL0     H23110   1.352   7.852   4.169 -0.8538 -0.0551  0.0888
  912MOL0     H23111   1.273   7.970   4.057  0.6119  0.9582 -1.0616
  912MOL0     H23112   1.569   7.978   4.100  0.1875  0.1026 -2.8957
  912MOL0     H23113   1.446   8.060   4.207 -3.7412  0.0509 -0.5258
  912MOL0     H23114   1.475   8.103   3.908  0.8929 -0.0944  0.5868
  912MOL0     H23115   1.345   8.168   4.001 -0.3017 -0.4417  1.2665
  912MOL0     H23116   1.662   8.434   4.071  1.8417 -1.3435 -1.5967
  912MOL0     H23117   1.505   7.755   3.727 -1.0203 -0.2262  0.3230
  912MOL0     H23118   1.761   7.693   3.456 -0.7830 -1.4246  0.1002
  912MOL0     H23119   1.598   7.740   3.501 -0.2151  1.0847 -2.2096
  912MOL0     H23120   1.717   7.857   3.506  0.5467 -0.0719  1.4924
  913MOL0     O23121  10.453   2.786  10.545  0.8411  0.0558  0.1353
  913MOL0     C23122  10.380   2.862  10.613 -0.5685  0.8883  0.3560
  913MOL0     O23123  10.417   2.974  10.687 -0.3821 -0.1462  0.3077
  913MOL0     C23124  10.546   3.007  10.712 -1.2071  0.1087  0.0456
  913MOL0     C23125  10.567   3.126  10.777  1.4511  0.3806 -0.6246
  913MOL0     C23126  10.695   3.172  10.822  0.8269  0.9064  0.2051
  913MOL0     C23127  10.808   3.111  10.766  0.0644  0.2755  0.1426
  913MOL0     O23128  10.931   3.146  10.819 -0.3485 -0.8285 -0.1529
  913MOL0     C23129  11.035   3.046  10.849  0.2789  0.6389 -0.6966
  913MOL0     C23130  11.114   3.088  10.974 -0.4371 -0.3774 -0.4992
  913MOL0     C23131  11.159   3.232  10.979 -0.5598  0.0440 -0.2270
  913MOL0     C23132  11.246   3.278  10.859  0.2853 -0.0694 -0.9598
  913MOL0     C23133  11.270   3.431  10.876 -0.4912 -0.3839  0.7713
  913MOL0     C23134  11.349   3.469  10.761  0.0179  0.7105 -0.1873
  913MOL0     C23135  11.393   3.615  10.778  0.2472  0.7981 -0.1560
  913MOL0     C23136  11.485   3.656  10.660  0.2146  0.4733 -0.3365
  913MOL0     N23137  11.613   3.586  10.655 -0.0123  0.8191 -0.8777
  913MOL0     C23138  11.724   3.611  10.745  0.3562 -0.4253  0.2379
  913MOL0     C23139  11.818   3.517  10.710 -0.4597  1.2466  0.5576
  913MOL0     C23140  11.963   3.504  10.774  0.2572  0.3241  0.0768
  913MOL0     C23141  12.004   3.357  10.786  0.6041 -0.3581  0.6849
  913MOL0     C23142  12.148   3.341  10.836 -0.5218  0.1437  0.2066
  913MOL0     C23143  12.265   3.378  10.735  0.1916 -0.1321 -0.5956
  913MOL0     O23144  12.370   3.314  10.801  0.0101  0.1970 -0.4086
  913MOL0     C23145  12.491   3.348  10.760  0.4338 -0.5177  0.1116
  913MOL0     C23146  12.541   3.478  10.795 -0.7814  0.1620 -0.5109
  913MOL0     C23147  12.675   3.513  10.773 -1.1386  0.5305  0.7066
  913MOL0     C23148  12.756   3.416  10.705 -0.4459  0.0306 -0.4732
  913MOL0     C23149  12.892   3.449  10.664 -1.0606  0.0606  0.0412
  913MOL0     O23150  12.993   3.350  10.660  0.0328 -0.6352  0.4635
  913MOL0     C23151  13.123   3.387  10.640 -0.1131 -0.7027  0.2736
  913MOL0     C23152  13.201   3.301  10.574 -0.1145  0.5643 -0.2626
  913MOL0     C23153  13.333   3.325  10.559  0.3851  0.4477  0.0136
  913MOL0     C23154  13.393   3.445  10.592  1.4077  0.3393  0.0531
  913MOL0     O23155  13.522   3.458  10.560 -0.3071  0.2049  0.2283
  913MOL0     C23156  13.590   3.569  10.607 -0.0976  0.6637  0.2847
  913MOL0     C23157  13.730   3.561  10.540 -0.1482  0.1115  0.9948
  913MOL0     C23158  13.836   3.603  10.638 -0.3412 -0.4280  1.0149
  913MOL0     C23159  13.870   3.489  10.727 -0.3377  0.0918 -0.6437
  913MOL0     C23160  13.910   3.537  10.875 -0.1438 -0.1417  0.2124
  913MOL0     C23161  13.785   3.563  10.965 -0.4635  0.4181 -0.5582
  913MOL0     C23162  13.727   3.429  11.014 -0.8622 -0.6880  0.1879
  913MOL0     C23163  13.588   3.443  11.074  0.1015 -0.3306  0.3104
  913MOL0    Cl23164  13.460   3.542  10.984 -0.0925 -0.2561 -0.0300
  913MOL0     C23165  13.318   3.540  10.672 -0.3736 -0.5682  0.1422
  913MOL0     C23166  13.181   3.511  10.687 -0.4565 -0.2422 -0.6004
  913MOL0     O23167  12.907   3.564  10.634  0.0851 -0.3094  0.3846
  913MOL0     C23168  12.703   3.289  10.668 -0.0427 -1.0897  0.8463
  913MOL0     C23169  12.572   3.258  10.707  0.0581 -0.2312  0.2833
  913MOL0     N23170  11.766   3.441  10.604 -0.1380  0.1102  0.6995
  913MOL0     N23171  11.648   3.485  10.570 -1.1456 -0.6277 -0.3675
  913MOL0     C23172  10.793   3.000  10.683  0.8038  0.3595 -0.5444
  913MOL0     C23173  10.668   2.945  10.662  0.4809  0.1807  0.5476
  913MOL0     C23174  10.239   2.835  10.618  0.4836  1.6489 -1.3463
  913MOL0     C23175  10.187   2.729  10.698 -0.3264 -0.8352  0.0214
  913MOL0     C23176  10.048   2.710  10.698 -0.4098  1.0908  0.4311
  913MOL0     C23177   9.962   2.785  10.619  0.5857  0.1187 -0.0096
  913MOL0     O23178   9.827   2.767  10.629 -0.0110 -0.3593 -0.4694
  913MOL0     C23179   9.736   2.865  10.569 -0.0907  0.2291  0.3464
  913MOL0     C23180   9.596   2.825  10.610 -0.0821 -0.2307  0.5868
  913MOL0     C23181   9.564   2.677  10.581 -0.2300  0.5117  0.3994
  913MOL0     C23182   9.558   2.634  10.431 -0.4779 -0.1536 -0.2203
  913MOL0     C23183   9.445   2.686  10.369  0.9799 -0.1873 -0.4791
  913MOL0     C23184   9.336   2.735  10.337 -0.5766  0.2909 -0.1455
  913MOL0     C23185  10.022   2.887  10.540 -0.7488 -1.0444 -0.3861
  913MOL0     C23186  10.162   2.908  10.538 -0.0919  0.3424  0.5530
  913MOL0     C23187  10.207   3.028  10.446 -0.5198 -0.1009  0.0298
  913MOL0     H23188  10.488   3.187  10.820 -0.9231 -2.6955 -0.2197
  913MOL0     H23189  10.697   3.254  10.894  0.6902 -1.1344  2.6839
  913MOL0     H23190  10.985   2.952  10.874  1.6478  0.7936  3.3532
  913MOL0     H23191  11.093   3.026  10.759  0.6144 -0.1563 -0.3049
  913MOL0     H23192  11.192   3.014  10.991  0.1566  0.3637  0.0889
  913MOL0     H23193  11.054   3.078  11.065  1.9138  0.8922  1.3167
  913MOL0     H23194  11.200   3.249  11.080 -1.1853 -3.6644  0.8179
  913MOL0     H23195  11.074   3.300  10.989  0.7842  1.9143 -0.8349
  913MOL0     H23196  11.338   3.220  10.871 -1.5238 -3.1314 -0.8183
  913MOL0     H23197  11.205   3.261  10.759  2.3723  1.3457 -2.1088
  913MOL0     H23198  11.180   3.491  10.887 -0.9995 -0.9624 -0.1565
  913MOL0     H23199  11.329   3.449  10.966 -0.2908 -1.1247  0.7944
  913MOL0     H23200  11.425   3.391  10.763 -2.0728 -1.4962  2.5228
  913MOL0     H23201  11.280   3.455  10.677  0.7144 -1.1449 -0.4956
  913MOL0     H23202  11.438   3.620  10.878 -2.5900 -2.2980  1.5099
  913MOL0     H23203  11.309   3.686  10.782 -0.2821  0.1639  0.5013
  913MOL0     H23204  11.423   3.636  10.573 -0.5970  1.3825  0.0179
  913MOL0     H23205  11.512   3.762  10.668  1.8042  0.1066 -0.3912
  913MOL0     H23206  11.727   3.684  10.826 -4.2394 -0.2594  0.5259
  913MOL0     H23207  12.035   3.568  10.722 -0.6566 -0.9465 -2.9706
  913MOL0     H23208  11.960   3.532  10.880  2.8879  1.6223 -0.1046
  913MOL0     H23209  11.926   3.321  10.854 -0.5435  1.4545  0.3705
  913MOL0     H23210  11.982   3.310  10.690 -1.9032 -0.4498  1.2309
  913MOL0     H23211  12.162   3.237  10.866  1.5692  0.6676  1.2292
  913MOL0     H23212  12.168   3.408  10.920  0.1625  0.9045 -0.5416
  913MOL0     H23213  12.280   3.485  10.747  0.8058 -0.3690  0.9096
  913MOL0     H23214  12.233   3.352  10.633 -1.5812  0.0415 -0.1171
  913MOL0     H23215  12.477   3.542  10.854  0.9816  0.5313  1.0876
  913MOL0     H23216  12.722   3.604  10.809  0.6265 -0.8409  2.0958
  913MOL0     H23217  13.173   3.205  10.529 -0.7107 -0.2329  1.7027
  913MOL0     H23218  13.392   3.256  10.499  0.4798 -1.0651  1.7401
  913MOL0     H23219  13.537   3.658  10.571  0.8967  1.6587  1.1838
  913MOL0     H23220  13.587   3.565  10.717 -0.7824 -0.2380  0.2460
  913MOL0     H23221  13.757   3.464  10.498 -2.0498  0.8770 -2.3603
  913MOL0     H23222  13.726   3.633  10.457 -2.7519 -0.8348  0.1845
  913MOL0     H23223  13.925   3.606  10.574 -0.4268 -3.2228  0.6370
  913MOL0     H23224  13.815   3.704  10.673 -1.7143  0.9648 -3.2587
  913MOL0     H23225  13.963   3.442  10.692 -0.1984 -1.7738  1.8872
  913MOL0     H23226  13.793   3.412  10.737  1.5836 -1.8917 -0.3035
  913MOL0     H23227  13.972   3.626  10.870  1.2390 -0.9949  1.4538
  913MOL0     H23228  13.968   3.459  10.925 -0.2409 -0.4100 -0.0896
  913MOL0     H23229  13.813   3.625  11.051 -2.0147  2.8416 -1.6848
  913MOL0     H23230  13.712   3.630  10.918 -0.6150  2.7107  2.6114
  913MOL0     H23231  13.791   3.399  11.097 -2.5030  0.5049  1.9726
  913MOL0     H23232  13.729   3.350  10.938 -1.7699 -1.4709  0.9582
  913MOL0     H23233  13.550   3.344  11.101  2.0993 -0.8786  1.3112
  913MOL0     H23234  13.608   3.497  11.167 -1.8470  1.0176 -0.0019
  913MOL0     H23235  13.364   3.615  10.734  3.2809 -2.2084 -0.3519
  913MOL0     H23236  13.134   3.584  10.751  1.1357  0.4151 -0.1442
  913MOL0     H23237  12.774   3.215  10.630  0.8934 -2.2601  4.4547
  913MOL0     H23238  12.525   3.164  10.682  0.2992  0.3974 -2.9907
  913MOL0     H23239  10.887   2.955  10.650  1.3332  1.1954 -0.2231
  913MOL0     H23240  10.679   2.848  10.614  0.8689 -1.2389  3.3193
  913MOL0     H23241  10.247   2.678  10.772  0.3981  0.0666  0.0811
  913MOL0     H23242  10.014   2.625  10.757 -0.0057 -0.3036 -1.2422
  913MOL0     H23243   9.751   2.867  10.461  4.6063  0.6472  0.7693
  913MOL0     H23244   9.767   2.966  10.597 -0.4305  0.7402 -1.0598
  913MOL0     H23245   9.513   2.879  10.563 -2.3619 -3.4557  0.5776
  913MOL0     H23246   9.578   2.850  10.715 -1.0846 -0.0156  0.3756
  913MOL0     H23247   9.466   2.655  10.625 -1.2969 -0.0045 -2.0694
  913MOL0     H23248   9.643   2.612  10.620  0.6601 -0.2463 -2.4459
  913MOL0     H23249   9.653   2.651  10.379  0.9928 -1.4430  1.9056
  913MOL0     H23250   9.547   2.526  10.433  1.9538 -0.4911 -1.0089
  913MOL0     H23251   9.246   2.776  10.295 -1.1747  0.4547  1.2330
  913MOL0     H23252   9.962   2.951  10.475  0.5571  0.0362 -0.5961
  913MOL0     H23253  10.258   2.990  10.357 -0.5107  0.8044 -0.3661
  913MOL0     H23254  10.124   3.090  10.410 -0.5775 -0.8423 -1.1396
  913MOL0     H23255  10.274   3.086  10.511 -0.5234  0.0413 -0.0931
  914MOL0     O23256   1.675   1.024   1.481 -0.0300  0.3753 -0.1836
  914MOL0     C23257   1.593   0.933   1.507 -0.3158  1.6633 -0.0612
  914MOL0     O23258   1.625   0.813   1.553  0.2009  0.0307  0.2078
  914MOL0     C23259   1.753   0.768   1.542 -0.4621 -0.2357 -0.3153
  914MOL0     C23260   1.839   0.798   1.434 -0.2718  0.2663  0.0005
  914MOL0     C23261   1.975   0.756   1.448  0.1936  0.4920 -1.0279
  914MOL0     C23262   2.022   0.672   1.550 -0.5694 -0.2840  0.2250
  914MOL0     O23263   2.152   0.625   1.555 -0.2618  0.4535  0.0533
  914MOL0     C23264   2.252   0.652   1.455 -0.0718  0.0987  0.9319
  914MOL0     C23265   2.381   0.599   1.504 -0.2991  0.5177  0.6625
  914MOL0     C23266   2.488   0.596   1.392  0.2236 -0.1996 -0.2445
  914MOL0     C23267   2.640   0.590   1.433 -0.7320 -0.7036  0.0685
  914MOL0     C23268   2.673   0.464   1.499  0.1592 -0.1704 -0.7333
  914MOL0     C23269   2.824   0.432   1.483  0.1401  0.9083 -0.1360
  914MOL0     C23270   2.862   0.304   1.563  0.3865  0.2944 -0.0941
  914MOL0     C23271   2.995   0.263   1.497  0.1538  0.6731 -0.6733
  914MOL0     N23272   3.039   0.130   1.554 -0.6341 -0.0303 -0.4713
  914MOL0     C23273   3.043   0.106   1.688 -0.0891  0.1687  0.0130
  914MOL0     C23274   3.083  -0.022   1.699 -0.4136  0.1395  0.6491
  914MOL0     C23275   3.105  -0.102   1.826 -0.6998  0.7785 -0.4522
  914MOL0     C23276   3.242  -0.075   1.891  0.0540 -0.0845 -0.3141
  914MOL0     C23277   3.357  -0.148   1.810 -0.8882 -0.3896 -0.6174
  914MOL0     C23278   3.494  -0.131   1.877  0.4155  0.7374  0.1860
  914MOL0     O23279   3.578  -0.020   1.847 -0.3195  0.0879 -0.4707
  914MOL0     C23280   3.703  -0.014   1.906  0.0510  0.4033 -0.5776
  914MOL0     C23281   3.751  -0.126   1.989  0.5412 -0.5989  0.0426
  914MOL0     C23282   3.869  -0.118   2.070  0.2328 -0.2839  0.3741
  914MOL0     C23283   3.946  -0.006   2.062  0.0814  0.3436  0.3409
  914MOL0     C23284   4.069   0.010   2.134 -0.0687  0.6630  0.2600
  914MOL0     O23285   4.105  -0.097   2.221  0.6850 -0.0668  0.1040
  914MOL0     C23286   4.193  -0.061   2.323  0.8059  0.6061  0.1084
  914MOL0     C23287   4.206   0.069   2.376  0.3523  0.1571 -0.0503
  914MOL0     C23288   4.280   0.092   2.487 -0.4030  0.6992 -0.5048
  914MOL0     C23289   4.344  -0.011   2.557  0.1724  0.2380 -0.3991
  914MOL0     O23290   4.415   0.021   2.678  0.6184  0.2945 -0.5233
  914MOL0     C23291   4.514  -0.069   2.722  0.2210  0.1988 -0.4052
  914MOL0     C23292   4.639  -0.042   2.634  0.3965  1.2266  0.2242
  914MOL0     C23293   4.752  -0.112   2.703 -0.4730  0.5229  0.0570
  914MOL0     C23294   4.878  -0.127   2.607  0.8990 -0.0592  0.0057
  914MOL0     C23295   4.988  -0.201   2.674 -0.2352 -0.4192  1.3334
  914MOL0     C23296   5.101  -0.213   2.570  0.1480 -0.5891  0.6562
  914MOL0     C23297   5.188  -0.093   2.565  0.4752 -0.4901 -0.5804
  914MOL0     C23298   5.332  -0.146   2.539 -0.5887  0.0913  0.5157
  914MOL0    Cl23299   5.441  -0.004   2.522 -0.4784  0.1741 -0.0357
  914MOL0     C23300   4.348  -0.137   2.496  0.8199 -0.4734  0.8415
  914MOL0     C23301   4.268  -0.164   2.383  0.1569  0.8335  0.2378
  914MOL0     O23302   4.145   0.101   2.090  0.5604  0.3406 -0.0055
  914MOL0     C23303   3.906   0.101   1.982 -0.2432 -0.4069  0.6487
  914MOL0     C23304   3.783   0.100   1.911  0.4234 -0.1932  0.4613
  914MOL0     N23305   3.093  -0.078   1.569 -0.2031  0.1640 -0.2971
  914MOL0     N23306   3.073   0.022   1.486  0.9836  0.2686 -0.1541
  914MOL0     C23307   1.928   0.625   1.646  0.3197  0.5570 -0.0513
  914MOL0     C23308   1.795   0.672   1.643 -0.0491 -0.1477 -0.2620
  914MOL0     C23309   1.448   0.974   1.496 -0.1876  0.0505 -0.4171
  914MOL0     C23310   1.420   1.084   1.413  0.8488 -0.4791  0.2489
  914MOL0     C23311   1.289   1.125   1.394  0.8325 -0.1572  1.4327
  914MOL0     C23312   1.185   1.057   1.450  0.7270 -0.0161 -0.0628
  914MOL0     O23313   1.062   1.103   1.418 -0.6428 -0.3479 -0.3072
  914MOL0     C23314   0.963   1.102   1.516  0.0456  0.2751 -0.5491
  914MOL0     C23315   0.825   1.160   1.471 -0.9930  0.5110  0.0953
  914MOL0     C23316   0.786   1.089   1.345 -0.0933 -0.9514  0.0135
  914MOL0     C23317   0.640   1.114   1.304  0.0187  0.1697  0.1559
  914MOL0     C23318   0.588   1.029   1.193  0.4895 -0.8791  0.2802
  914MOL0     C23319   0.546   0.954   1.105  0.2171  0.0829  0.1924
  914MOL0     C23320   1.211   0.950   1.534  0.2625 -0.2129  0.1201
  914MOL0     C23321   1.342   0.910   1.567 -0.9144 -0.3787  0.2744
  914MOL0     C23322   1.372   0.797   1.665 -0.5892 -0.1230 -0.1152
  914MOL0     H23323   1.817   0.872   1.358 -0.2844  1.4120  1.0704
  914MOL0     H23324   2.045   0.803   1.380  0.9002 -0.5939 -1.0716
  914MOL0     H23325   2.222   0.606   1.360  3.4860  2.1537 -1.4359
  914MOL0     H23326   2.266   0.758   1.431  0.3841 -0.2491 -0.4142
  914MOL0     H23327   2.357   0.497   1.535 -3.4041  1.1252  0.5625
  914MOL0     H23328   2.413   0.649   1.596  2.1617 -2.1431  1.4361
  914MOL0     H23329   2.482   0.693   1.341  1.9496  0.3901  0.6157
  914MOL0     H23330   2.459   0.523   1.316 -1.5397 -0.6314  0.7830
  914MOL0     H23331   2.696   0.596   1.340 -0.5019 -0.9979  0.1872
  914MOL0     H23332   2.656   0.674   1.501 -2.5719  1.6708 -2.2336
  914MOL0     H23333   2.658   0.475   1.607  2.9387  0.6800 -0.3503
  914MOL0     H23334   2.616   0.380   1.458  0.2103 -0.3260 -0.4876
  914MOL0     H23335   2.848   0.414   1.378  0.8717 -1.6292  0.4108
  914MOL0     H23336   2.892   0.515   1.506 -0.8617  1.5932  0.4282
  914MOL0     H23337   2.791   0.222   1.553 -0.2585  1.0374 -2.1219
  914MOL0     H23338   2.870   0.342   1.665 -0.5347  1.4928 -0.4454
  914MOL0     H23339   2.989   0.260   1.388  2.3811 -1.1335 -0.8271
  914MOL0     H23340   3.069   0.333   1.537  0.0668  0.4975 -0.1969
  914MOL0     H23341   3.019   0.176   1.768 -0.2282  1.4781 -1.1379
  914MOL0     H23342   3.030  -0.073   1.900 -0.3126 -1.2377  0.8007
  914MOL0     H23343   3.099  -0.208   1.801 -3.5860  0.7421  0.1356
  914MOL0     H23344   3.268   0.031   1.906 -0.5133 -0.0121  0.2199
  914MOL0     H23345   3.230  -0.117   1.991  1.5043  1.4556  0.5486
  914MOL0     H23346   3.363  -0.092   1.716 -1.4183  2.3062  0.8668
  914MOL0     H23347   3.333  -0.251   1.783  2.3572 -0.5923 -3.3931
  914MOL0     H23348   3.560  -0.214   1.853  2.2335  2.9027 -3.1279
  914MOL0     H23349   3.473  -0.131   1.985  3.1071  0.0255  0.7877
  914MOL0     H23350   3.713  -0.227   1.994  1.8551 -1.0566  1.5076
  914MOL0     H23351   3.904  -0.206   2.124 -1.0274 -2.0283 -1.4814
  914MOL0     H23352   4.140   0.148   2.343  3.2633  1.8114 -2.4642
  914MOL0     H23353   4.298   0.191   2.528 -0.2904  0.4410  0.0798
  914MOL0     H23354   4.538  -0.047   2.827 -4.1846  0.5095  0.7550
  914MOL0     H23355   4.486  -0.175   2.719  2.7092 -0.4905 -1.0468
  914MOL0     H23356   4.634  -0.078   2.531  2.0752 -3.8085  1.6577
  914MOL0     H23357   4.657   0.066   2.626  0.5947  1.1833  0.0657
  914MOL0     H23358   4.775  -0.072   2.802  0.9155  1.7981 -0.7372
  914MOL0     H23359   4.709  -0.208   2.734 -2.9751  1.6152  0.1878
  914MOL0     H23360   4.912  -0.030   2.570 -1.6704  0.0769 -2.2837
  914MOL0     H23361   4.845  -0.166   2.510 -1.2896  2.0936 -0.2040
  914MOL0     H23362   4.954  -0.299   2.706 -0.2357 -1.0313 -0.4486
  914MOL0     H23363   5.026  -0.144   2.760 -0.2451  1.5586  0.0958
  914MOL0     H23364   5.162  -0.294   2.610  0.4015 -1.0648 -0.6371
  914MOL0     H23365   5.066  -0.237   2.469  1.2198 -0.1711  0.1679
  914MOL0     H23366   5.176  -0.042   2.661 -2.7440 -5.0362  1.8962
  914MOL0     H23367   5.156  -0.018   2.492  1.6542  0.5893 -0.0185
  914MOL0     H23368   5.365  -0.216   2.616  2.1352 -0.8112 -1.3232
  914MOL0     H23369   5.335  -0.199   2.443 -2.8461  4.0096 -1.9591
  914MOL0     H23370   4.407  -0.223   2.527 -1.4433 -2.5176 -0.1879
  914MOL0     H23371   4.257  -0.268   2.354  2.0302  0.4046  0.9576
  914MOL0     H23372   3.958   0.194   1.960 -2.6211  0.5163 -1.4971
  914MOL0     H23373   3.751   0.185   1.851 -0.3647 -0.8297 -0.0423
  914MOL0     H23374   1.961   0.563   1.728 -0.3068 -0.8261 -0.8201
  914MOL0     H23375   1.729   0.643   1.724 -0.7775 -0.0947 -0.8316
  914MOL0     H23376   1.504   1.130   1.362  3.4227 -4.3794  0.4912
  914MOL0     H23377   1.265   1.211   1.332  1.0963 -0.0733  1.4482
  914MOL0     H23378   0.993   1.177   1.591 -2.7368 -0.0594  1.0147
  914MOL0     H23379   0.959   1.003   1.562  2.4008 -0.2553 -1.3242
  914MOL0     H23380   0.842   1.267   1.458  2.1644  0.2265  0.8753
  914MOL0     H23381   0.760   1.150   1.559  0.3577  0.3573  1.1204
  914MOL0     H23382   0.806   0.982   1.356  0.0270 -0.7740  1.8416
  914MOL0     H23383   0.851   1.124   1.263 -0.7466 -0.9718 -0.5251
  914MOL0     H23384   0.570   1.105   1.387 -0.5767 -2.4807 -0.5368
  914MOL0     H23385   0.643   1.213   1.258 -2.3218  0.2898  0.1600
  914MOL0     H23386   0.524   0.884   1.027  1.1919 -1.1217  0.9489
  914MOL0     H23387   1.131   0.903   1.591  0.6280 -3.5908 -1.9218
  914MOL0     H23388   1.292   0.782   1.737 -2.3445  3.5842 -1.0379
  914MOL0     H23389   1.367   0.704   1.608 -3.4394  0.8280 -1.6277
  914MOL0     H23390   1.462   0.820   1.723 -0.5545  1.5707 -0.7643
  915MOL0     O23391  10.223   7.194   4.633 -0.0252  0.0067 -0.3275
  915MOL0     C23392  10.238   7.266   4.726 -0.3730 -0.0158 -0.4585
  915MOL0     O23393  10.359   7.326   4.758 -0.2771  0.8664 -0.6708
  915MOL0     C23394  10.462   7.291   4.679 -0.1103  0.8335  0.4004
  915MOL0     C23395  10.485   7.353   4.556 -0.5380 -0.7448  0.7098
  915MOL0     C23396  10.597   7.327   4.468 -0.4654  0.1493 -1.0256
  915MOL0     C23397  10.694   7.232   4.512  0.3901 -0.5051  0.5807
  915MOL0     O23398  10.794   7.212   4.427  0.4572 -0.4673  0.7621
  915MOL0     C23399  10.876   7.102   4.459  0.0198  0.5675  0.2004
  915MOL0     C23400  10.970   7.089   4.342 -0.3908 -0.8107  0.5306
  915MOL0     C23401  11.071   6.982   4.359 -0.8640  0.6373 -0.8542
  915MOL0     C23402  11.150   6.950   4.228 -0.1019  0.5742 -0.0934
  915MOL0     C23403  11.252   6.835   4.251  0.0680 -0.3346 -0.3955
  915MOL0     C23404  11.378   6.875   4.323 -0.7788  0.7206 -0.3686
  915MOL0     C23405  11.483   6.770   4.342  0.5715  0.6568  0.0744
  915MOL0     C23406  11.446   6.679   4.461 -0.7726 -0.7328  0.0009
  915MOL0     N23407  11.530   6.562   4.481  0.3860  0.2339  0.3652
  915MOL0     C23408  11.665   6.559   4.480 -1.1045  0.5124 -0.4558
  915MOL0     C23409  11.699   6.437   4.531  0.5643 -0.8048 -0.1907
  915MOL0     C23410  11.833   6.376   4.547  0.0871 -0.5112  0.2326
  915MOL0     C23411  11.895   6.322   4.419  0.2515 -0.2599 -0.2397
  915MOL0     C23412  11.926   6.429   4.321 -1.1301  0.5046  0.2611
  915MOL0     C23413  12.001   6.360   4.198  0.1022  0.6946 -0.4248
  915MOL0     O23414  12.131   6.325   4.254  0.1145 -0.4967  0.1018
  915MOL0     C23415  12.232   6.274   4.176  0.4185 -0.1842  0.1737
  915MOL0     C23416  12.208   6.215   4.054  0.4620 -0.1856  0.2024
  915MOL0     C23417  12.309   6.165   3.981  0.3297 -0.2763 -0.3198
  915MOL0     C23418  12.445   6.164   4.024 -0.1587  0.2613  0.6818
  915MOL0     C23419  12.546   6.093   3.947 -0.6520  0.4382 -0.3524
  915MOL0     O23420  12.503   6.060   3.823  0.3535 -0.0914  0.1995
  915MOL0     C23421  12.588   6.020   3.726 -0.0772  0.3909 -0.1128
  915MOL0     C23422  12.552   6.052   3.593 -0.1199 -0.2223 -0.4097
  915MOL0     C23423  12.614   6.001   3.480  0.8233 -0.7672  0.2139
  915MOL0     C23424  12.719   5.914   3.499  1.1522  0.4398 -0.2644
  915MOL0     O23425  12.789   5.858   3.395 -0.3720 -0.4195  0.1684
  915MOL0     C23426  12.756   5.888   3.256  0.5381 -0.4990  0.4389
  915MOL0     C23427  12.856   5.825   3.155 -0.2874  0.8461 -0.8342
  915MOL0     C23428  13.005   5.864   3.178 -0.4687  0.2512  0.5749
  915MOL0     C23429  13.017   6.018   3.201 -0.5736 -0.7000 -0.2385
  915MOL0     C23430  13.162   6.071   3.228  0.2760  0.4537 -0.0779
  915MOL0     C23431  13.156   6.216   3.216  0.1326  0.2428  0.3290
  915MOL0     C23432  13.293   6.281   3.263 -0.4529 -0.7356 -0.1290
  915MOL0     C23433  13.268   6.431   3.302  0.4404  0.0862  0.1711
  915MOL0    Cl23434  13.243   6.513   3.150 -0.1601  0.0330  0.1747
  915MOL0     C23435  12.766   5.878   3.628  1.2113  0.2307  0.2346
  915MOL0     C23436  12.693   5.925   3.736  0.2515 -0.9881 -0.0398
  915MOL0     O23437  12.662   6.092   3.980  0.8848  0.1878 -0.5923
  915MOL0     C23438  12.473   6.226   4.150  0.3455 -0.3998  0.2017
  915MOL0     C23439  12.365   6.282   4.225 -0.3693  0.0508  0.2684
  915MOL0     N23440  11.580   6.362   4.550  0.2176 -0.6991 -0.0917
  915MOL0     N23441  11.475   6.442   4.525  0.4791 -0.3779 -0.0763
  915MOL0     C23442  10.671   7.164   4.635  0.9346  0.0325 -0.3105
  915MOL0     C23443  10.565   7.211   4.723  0.3437 -0.0586 -0.2665
  915MOL0     C23444  10.122   7.308   4.814  0.0481 -0.2619  1.1833
  915MOL0     C23445  10.133   7.422   4.891  0.0939  0.3937 -0.3032
  915MOL0     C23446  10.031   7.472   4.967  0.6574  0.2698  0.3647
  915MOL0     C23447   9.913   7.403   4.971  0.0623  0.5978 -0.3885
  915MOL0     O23448   9.799   7.454   5.035  0.1871 -0.1072  0.1455
  915MOL0     C23449   9.793   7.578   5.102 -0.0639  0.1014  0.2329
  915MOL0     C23450   9.651   7.596   5.138 -0.0320  0.0367  0.0214
  915MOL0     C23451   9.610   7.477   5.223  0.6195 -0.4494  0.0958
  915MOL0     C23452   9.529   7.518   5.351  0.5319  0.0303  0.1488
  915MOL0     C23453   9.605   7.594   5.451 -0.1471 -0.3011 -1.0795
  915MOL0     C23454   9.670   7.653   5.539 -0.0082  0.3282 -0.2157
  915MOL0     C23455   9.896   7.289   4.894 -0.2184 -0.4771 -0.2625
  915MOL0     C23456  10.004   7.231   4.821 -0.1229  0.5708 -1.3480
  915MOL0     C23457   9.967   7.099   4.765  0.3635  0.7971  0.2351
  915MOL0     H23458  10.407   7.423   4.527  0.2545  0.0250  0.3768
  915MOL0     H23459  10.615   7.382   4.375  1.8965  0.1573 -0.6405
  915MOL0     H23460  10.933   7.102   4.553 -2.5323  0.5809  1.8323
  915MOL0     H23461  10.822   7.008   4.456 -1.3958  1.3010  1.4696
  915MOL0     H23462  11.025   7.182   4.332 -0.1884 -0.7736  1.8226
  915MOL0     H23463  10.920   7.071   4.246 -0.7779  1.2788  0.3121
  915MOL0     H23464  11.022   6.885   4.376  0.7379 -0.2958 -1.4053
  915MOL0     H23465  11.136   7.006   4.443 -0.2633 -2.1274 -0.4293
  915MOL0     H23466  11.069   6.916   4.162  0.7358 -1.3629 -0.2012
  915MOL0     H23467  11.183   7.045   4.187  3.1077 -0.2440  0.3345
  915MOL0     H23468  11.206   6.752   4.307  0.1971  0.7436  1.3828
  915MOL0     H23469  11.287   6.793   4.157 -0.4316 -1.8346  0.0484
  915MOL0     H23470  11.432   6.947   4.260  0.8133 -1.4612 -1.6296
  915MOL0     H23471  11.355   6.912   4.423 -0.6750 -2.4393  0.9558
  915MOL0     H23472  11.571   6.824   4.382  0.6602  0.2980  0.3675
  915MOL0     H23473  11.511   6.718   4.251  0.9622 -0.1787  0.6570
  915MOL0     H23474  11.448   6.733   4.556  1.8347  0.0668 -0.4225
  915MOL0     H23475  11.343   6.648   4.440 -1.1706  0.6755 -0.2871
  915MOL0     H23476  11.735   6.632   4.441 -2.9670  2.5372 -0.2709
  915MOL0     H23477  11.904   6.440   4.601 -2.1857  1.6112  0.9606
  915MOL0     H23478  11.814   6.291   4.613 -2.1622  0.9677  1.6702
  915MOL0     H23479  11.994   6.288   4.451  0.7498  0.4370 -1.0137
  915MOL0     H23480  11.834   6.241   4.376  0.1009 -1.1450  1.5382
  915MOL0     H23481  11.994   6.498   4.373  0.2872 -0.1929 -0.5953
  915MOL0     H23482  11.833   6.479   4.295 -1.3816 -0.2116 -0.2488
  915MOL0     H23483  12.008   6.430   4.115  0.6348  1.3956  0.1938
  915MOL0     H23484  11.949   6.267   4.171  0.1776  0.2456  0.8960
  915MOL0     H23485  12.114   6.223   4.000  0.3609 -0.8183  0.2721
  915MOL0     H23486  12.278   6.148   3.879  0.6814 -0.4340 -0.4032
  915MOL0     H23487  12.477   6.130   3.583 -0.3582 -0.6277 -2.0013
  915MOL0     H23488  12.593   6.032   3.378 -0.1601  0.1014  0.6539
  915MOL0     H23489  12.653   5.858   3.235  0.2166 -0.7079  2.1673
  915MOL0     H23490  12.762   5.996   3.239  0.7368 -0.2908  1.7477
  915MOL0     H23491  12.856   5.716   3.168  1.7667  0.9161  0.1186
  915MOL0     H23492  12.819   5.841   3.054  0.7687 -0.2748 -1.4288
  915MOL0     H23493  13.045   5.813   3.266  1.3872  3.1592  1.5841
  915MOL0     H23494  13.063   5.815   3.099 -0.2268 -3.0674  2.5845
  915MOL0     H23495  12.962   6.040   3.292 -1.4753 -0.6722 -0.7812
  915MOL0     H23496  12.973   6.068   3.114 -0.7904 -2.3889 -1.1440
  915MOL0     H23497  13.236   6.028   3.159 -1.0940  0.3323 -1.5122
  915MOL0     H23498  13.190   6.052   3.332 -1.6747  0.3665  0.4703
  915MOL0     H23499  13.113   6.238   3.117  0.3796 -0.9474 -0.0584
  915MOL0     H23500  13.082   6.262   3.282  2.8377  1.7200  2.5593
  915MOL0     H23501  13.367   6.274   3.182 -1.9399  0.1482 -1.6360
  915MOL0     H23502  13.331   6.238   3.356  2.3145 -0.6178 -1.1256
  915MOL0     H23503  13.177   6.449   3.360  0.5225 -1.0213  0.6598
  915MOL0     H23504  13.351   6.477   3.357 -0.1659 -0.7350  1.8247
  915MOL0     H23505  12.845   5.804   3.635  1.0012 -0.3498 -2.4390
  915MOL0     H23506  12.716   5.891   3.836  0.8389 -2.7497 -0.7257
  915MOL0     H23507  12.575   6.225   4.187  0.8419 -1.5106 -1.0988
  915MOL0     H23508  12.367   6.325   4.324  2.1142  0.4821  0.1025
  915MOL0     H23509  10.746   7.103   4.684 -0.7848  0.2621  2.8896
  915MOL0     H23510  10.566   7.150   4.812  1.5467 -1.7413 -1.3629
  915MOL0     H23511  10.220   7.485   4.876 -0.7417  1.5655 -0.3679
  915MOL0     H23512  10.033   7.569   5.016  0.8190  0.1400  0.6198
  915MOL0     H23513   9.819   7.664   5.040 -1.6222 -0.0845 -0.7372
  915MOL0     H23514   9.860   7.568   5.188 -0.0996 -0.5021  0.1999
  915MOL0     H23515   9.587   7.614   5.051 -0.9564  0.0142  0.6802
  915MOL0     H23516   9.649   7.686   5.200 -1.6124 -0.8000  1.2602
  915MOL0     H23517   9.693   7.419   5.265  0.6345 -0.1569  0.4715
  915MOL0     H23518   9.557   7.403   5.161 -1.9972 -0.1208  1.8131
  915MOL0     H23519   9.440   7.573   5.321  0.0064 -0.0608  1.4667
  915MOL0     H23520   9.510   7.432   5.416  1.2582  0.8753  1.5278
  915MOL0     H23521   9.737   7.708   5.602 -1.7443  1.2826  0.8917
  915MOL0     H23522   9.794   7.250   4.895  0.3048 -1.9339  0.3861
  915MOL0     H23523  10.036   7.016   4.784 -0.5194  0.5600  2.6715
  915MOL0     H23524   9.867   7.062   4.788  1.1137 -0.8211  1.0534
  915MOL0     H23525   9.956   7.116   4.657 -3.5062  0.9308  0.5273
  916MOL0     O23526   7.954   6.512   9.443 -0.0131 -0.3922 -0.3230
  916MOL0     C23527   7.916   6.411   9.397 -0.1132  1.1979 -0.7198
  916MOL0     O23528   7.975   6.284   9.414  0.2728  0.4719  0.5453
  916MOL0     C23529   8.096   6.284   9.482 -0.1159 -0.5830  0.2563
  916MOL0     C23530   8.115   6.229   9.617  0.2159  0.0876  1.0749
  916MOL0     C23531   8.240   6.235   9.682 -0.1789  0.1101  0.2132
  916MOL0     C23532   8.349   6.304   9.619 -1.4768 -0.8899 -0.4741
  916MOL0     O23533   8.477   6.312   9.665 -0.6469 -0.6333  0.3153
  916MOL0     C23534   8.517   6.208   9.756 -0.1116  0.7138  0.2061
  916MOL0     C23535   8.662   6.229   9.796  0.5749 -0.3358 -0.0133
  916MOL0     C23536   8.758   6.150   9.706  0.0128  0.0220 -0.7516
  916MOL0     C23537   8.737   6.145   9.554  0.0211  0.0398  0.4763
  916MOL0     C23538   8.838   6.060   9.480 -0.7024 -0.2590  0.2479
  916MOL0     C23539   8.810   6.039   9.337 -0.6022 -0.0432  0.8660
  916MOL0     C23540   8.907   5.938   9.267  0.5838  0.5455 -0.0807
  916MOL0     C23541   9.056   5.991   9.261  0.7919  0.5072 -0.0298
  916MOL0     N23542   9.137   5.913   9.157 -0.0961  0.2972 -0.0462
  916MOL0     C23543   9.185   5.972   9.048  0.0213 -0.3598 -0.5914
  916MOL0     C23544   9.299   5.893   9.022 -0.0278  0.4046 -0.1967
  916MOL0     C23545   9.394   5.897   8.901 -0.0688 -0.2382 -0.9932
  916MOL0     C23546   9.489   6.016   8.908  0.4868 -0.8783  0.4073
  916MOL0     C23547   9.557   6.055   8.777 -0.3931 -0.7954  0.9439
  916MOL0     C23548   9.657   5.953   8.732  0.2857  0.2100  0.1704
  916MOL0     O23549   9.727   5.991   8.616 -0.0085 -0.3658  0.1784
  916MOL0     C23550   9.661   5.987   8.498 -0.3540  0.0236 -0.4266
  916MOL0     C23551   9.529   5.956   8.464 -0.5927  0.5791 -0.8044
  916MOL0     C23552   9.481   5.933   8.331  0.8056 -0.3848  0.2055
  916MOL0     C23553   9.567   5.963   8.224 -0.3546 -0.6136 -0.4307
  916MOL0     C23554   9.541   5.953   8.081  0.2214  0.1945 -0.2386
  916MOL0     O23555   9.628   6.009   7.986  0.5623 -0.1270  0.5350
  916MOL0     C23556   9.627   5.963   7.850 -0.6825 -0.9245 -0.2574
  916MOL0     C23557   9.631   5.827   7.813  0.8193  0.2542 -0.4883
  916MOL0     C23558   9.627   5.802   7.678 -0.5315  0.4428  0.0900
  916MOL0     C23559   9.641   5.899   7.577  0.1460  0.7379 -0.3280
  916MOL0     O23560   9.642   5.860   7.450  0.5635 -0.2167  0.2117
  916MOL0     C23561   9.532   5.777   7.401  0.2572 -0.6158  0.3838
  916MOL0     C23562   9.526   5.780   7.251  0.3492  0.0683 -0.6836
  916MOL0     C23563   9.643   5.717   7.185  0.6623 -0.5219  1.0427
  916MOL0     C23564   9.662   5.770   7.051  0.7260  0.5188 -0.0489
  916MOL0     C23565   9.801   5.733   7.001  0.3640 -0.6422 -0.4429
  916MOL0     C23566   9.820   5.757   6.850 -0.5854 -0.0125 -0.4883
  916MOL0     C23567   9.924   5.663   6.799 -0.1405  0.1775 -0.4539
  916MOL0     C23568  10.059   5.675   6.858 -0.7717 -0.5546 -0.4921
  916MOL0    Cl23569  10.105   5.850   6.867 -0.1152 -0.0445  0.2065
  916MOL0     C23570   9.647   6.029   7.612 -0.7310  0.3608 -0.3894
  916MOL0     C23571   9.629   6.060   7.752 -0.1957  0.5766  0.1752
  916MOL0     O23572   9.434   5.898   8.055  0.0862 -0.7207  0.0432
  916MOL0     C23573   9.696   6.009   8.259  0.7704  0.6246 -0.1370
  916MOL0     C23574   9.743   6.019   8.391 -0.5163  0.0148 -0.4067
  916MOL0     N23575   9.308   5.793   9.113 -0.4265 -0.5172 -0.2089
  916MOL0     N23576   9.208   5.805   9.194  0.1443  0.2983 -0.6007
  916MOL0     C23577   8.331   6.348   9.484  0.7853  0.4005 -0.2965
  916MOL0     C23578   8.209   6.345   9.424  0.5764 -0.8056 -0.5986
  916MOL0     C23579   7.810   6.416   9.298  0.4971 -0.0651 -0.5192
  916MOL0     C23580   7.835   6.339   9.181 -0.1847 -0.1632  0.3336
  916MOL0     C23581   7.731   6.320   9.081  0.6972 -0.6405  0.1469
  916MOL0     C23582   7.611   6.383   9.098 -0.0600 -0.4047  1.0380
  916MOL0     O23583   7.512   6.397   8.997  0.2688 -0.3573 -0.3739
  916MOL0     C23584   7.535   6.352   8.863 -0.1346  0.5935 -0.6842
  916MOL0     C23585   7.482   6.456   8.759 -0.2925  0.6266 -1.0335
  916MOL0     C23586   7.556   6.587   8.748 -0.2260 -0.3397 -0.2710
  916MOL0     C23587   7.497   6.692   8.854 -0.7363 -0.0795  0.2157
  916MOL0     C23588   7.583   6.809   8.877  0.7168 -1.7666  0.4370
  916MOL0     C23589   7.655   6.912   8.887  0.1310 -0.4442  0.8712
  916MOL0     C23590   7.585   6.454   9.220  0.4261  1.0473  0.0451
  916MOL0     C23591   7.679   6.458   9.326  0.1414 -0.0303  0.4866
  916MOL0     C23592   7.635   6.495   9.463  0.8791 -0.2495  0.4705
  916MOL0     H23593   8.025   6.178   9.650 -0.4669 -0.4938 -1.4907
  916MOL0     H23594   8.249   6.182   9.776 -0.0385  1.3950  0.9472
  916MOL0     H23595   8.455   6.221   9.845  2.6487  1.3600  2.1698
  916MOL0     H23596   8.496   6.109   9.713  2.0210  0.1126  0.4162
  916MOL0     H23597   8.670   6.197   9.900 -1.2305  0.2225  0.3389
  916MOL0     H23598   8.692   6.334   9.790  3.3808 -1.0267  0.3772
  916MOL0     H23599   8.772   6.050   9.748 -0.7251  0.1241 -0.2337
  916MOL0     H23600   8.854   6.199   9.719  1.0275 -2.3753  1.6335
  916MOL0     H23601   8.638   6.097   9.553  0.2095 -0.3447 -0.5176
  916MOL0     H23602   8.733   6.249   9.520  2.0310 -0.6449 -2.1656
  916MOL0     H23603   8.940   6.098   9.494  0.4966 -2.6136 -1.4917
  916MOL0     H23604   8.856   5.968   9.537  1.6476 -0.0014  0.0154
  916MOL0     H23605   8.711   5.998   9.319 -0.3565 -1.0202  1.6944
  916MOL0     H23606   8.827   6.129   9.276  0.5734  0.5338  2.0034
  916MOL0     H23607   8.869   5.924   9.165 -2.1392 -2.5245  1.1633
  916MOL0     H23608   8.903   5.844   9.323 -1.9105  0.5748 -0.0858
  916MOL0     H23609   9.059   6.097   9.234  2.3005  1.0314  1.9368
  916MOL0     H23610   9.108   6.000   9.357 -1.3888  4.1836  0.9968
  916MOL0     H23611   9.158   6.056   8.985  0.7936 -0.6488 -1.3287
  916MOL0     H23612   9.462   5.812   8.898  1.6982  1.1288 -1.0391
  916MOL0     H23613   9.337   5.908   8.807  1.0752  2.6349 -1.4472
  916MOL0     H23614   9.431   6.106   8.931  0.1805 -1.0419  0.2795
  916MOL0     H23615   9.558   6.003   8.992 -1.4867 -1.1791  2.0709
  916MOL0     H23616   9.615   6.144   8.802 -1.3381 -0.3146  1.4527
  916MOL0     H23617   9.493   6.083   8.693  2.5021  0.2424 -1.0746
  916MOL0     H23618   9.609   5.855   8.726  0.0653  0.3693 -1.1309
  916MOL0     H23619   9.729   5.937   8.813  2.2946  0.0211 -1.5522
  916MOL0     H23620   9.455   5.932   8.538  1.2955 -0.8457  0.7181
  916MOL0     H23621   9.379   5.904   8.310  1.6152 -3.2632 -0.1812
  916MOL0     H23622   9.633   5.752   7.891 -1.9756 -0.7757 -1.2967
  916MOL0     H23623   9.639   5.696   7.661  1.1166  0.6017  0.0316
  916MOL0     H23624   9.538   5.671   7.426 -0.4331 -0.1584  2.7247
  916MOL0     H23625   9.433   5.799   7.442  0.9028 -0.7097  2.0800
  916MOL0     H23626   9.437   5.732   7.209  0.7993 -1.9253  0.4980
  916MOL0     H23627   9.525   5.886   7.225 -0.7267 -0.1967 -1.8424
  916MOL0     H23628   9.735   5.750   7.235  2.0527  0.0581 -1.6952
  916MOL0     H23629   9.639   5.608   7.188  0.9762 -0.5469  0.7107
  916MOL0     H23630   9.648   5.878   7.057 -1.6728  0.1747  3.5539
  916MOL0     H23631   9.581   5.735   6.987 -0.1767 -1.5004  2.0388
  916MOL0     H23632   9.803   5.632   7.042 -0.8726 -0.9663 -1.1374
  916MOL0     H23633   9.874   5.793   7.056 -0.3205 -1.4440  1.4008
  916MOL0     H23634   9.730   5.740   6.789 -2.6545  0.2176  2.2756
  916MOL0     H23635   9.833   5.863   6.831  1.0558  0.0592  0.8161
  916MOL0     H23636   9.932   5.676   6.691 -0.7902  1.6766 -0.3534
  916MOL0     H23637   9.889   5.561   6.820 -1.2415  0.4532 -0.8647
  916MOL0     H23638  10.075   5.630   6.957 -1.3833 -2.9416 -1.4095
  916MOL0     H23639  10.126   5.612   6.799  0.6357 -0.1257  0.5800
  916MOL0     H23640   9.651   6.104   7.534  1.0572  0.1684 -0.5194
  916MOL0     H23641   9.624   6.167   7.772  0.7924  0.4788  0.9904
  916MOL0     H23642   9.765   6.055   8.189  0.4475  2.6348  0.8150
  916MOL0     H23643   9.837   6.068   8.410 -0.8046  0.5021 -0.2282
  916MOL0     H23644   8.413   6.391   9.427  1.9541 -3.3918 -1.7814
  916MOL0     H23645   8.205   6.384   9.323  2.4938 -0.4391 -0.5598
  916MOL0     H23646   7.925   6.280   9.166  1.3430  2.1172 -0.1271
  916MOL0     H23647   7.750   6.251   9.000 -1.8592 -0.8208 -0.3888
  916MOL0     H23648   7.490   6.254   8.849 -1.4086  1.0751 -0.1315
  916MOL0     H23649   7.643   6.342   8.848  0.2932  1.4174  1.4350
  916MOL0     H23650   7.377   6.471   8.783 -0.8185 -1.6898 -1.6808
  916MOL0     H23651   7.493   6.399   8.666  0.6235 -3.7102  1.4622
  916MOL0     H23652   7.567   6.629   8.647  1.2907  3.1066  1.1790
  916MOL0     H23653   7.660   6.573   8.778  1.1169  0.9438 -3.7132
  916MOL0     H23654   7.397   6.721   8.821 -1.6114 -0.3113  2.4980
  916MOL0     H23655   7.493   6.652   8.955  0.2581 -0.6219  0.0526
  916MOL0     H23656   7.739   6.975   8.870 -0.9614  0.1549 -3.7538
  916MOL0     H23657   7.480   6.475   9.240 -0.0625 -0.5817 -0.6375
  916MOL0     H23658   7.696   6.579   9.497  0.5376 -1.1072  3.5107
  916MOL0     H23659   7.530   6.522   9.460  0.5654 -1.4674 -1.7821
  916MOL0     H23660   7.634   6.404   9.526 -5.7974  0.9286  2.9061
  917MOL0     O23661   6.588   2.212   5.402  0.1607  0.3643 -0.0131
  917MOL0     C23662   6.578   2.118   5.318 -0.8236 -0.5638  0.8149
  917MOL0     O23663   6.634   1.995   5.333 -0.3447 -0.1155 -0.2226
  917MOL0     C23664   6.708   1.978   5.446 -1.0161 -1.0371  0.7888
  917MOL0     C23665   6.824   2.052   5.462 -0.1774 -0.7987 -0.0157
  917MOL0     C23666   6.892   2.044   5.589  0.1680  0.0682  0.1885
  917MOL0     C23667   6.846   1.969   5.695 -0.0763 -0.2945 -0.7218
  917MOL0     O23668   6.907   1.964   5.820  0.1415  0.3511  0.1294
  917MOL0     C23669   7.043   1.990   5.834  0.9307 -0.3684  1.3602
  917MOL0     C23670   7.078   1.990   5.985  0.0335  0.1947 -0.1103
  917MOL0     C23671   7.026   2.105   6.069  0.6152  0.3659 -1.2625
  917MOL0     C23672   7.081   2.092   6.219  0.5716  0.9405  0.0074
  917MOL0     C23673   7.036   2.208   6.311  0.3664  0.8231  0.7349
  917MOL0     C23674   7.083   2.347   6.263 -0.3518 -0.9037  0.1834
  917MOL0     C23675   7.039   2.460   6.359 -0.9972 -0.5432 -0.5194
  917MOL0     C23676   7.082   2.600   6.310 -0.0519  0.1154  0.6641
  917MOL0     N23677   7.225   2.619   6.283 -1.3981 -0.2636  0.1570
  917MOL0     C23678   7.336   2.641   6.367  0.2639  0.8724  0.3198
  917MOL0     C23679   7.439   2.674   6.284  0.2830  0.1638 -0.7278
  917MOL0     C23680   7.584   2.702   6.320 -0.0245 -0.0013 -0.0471
  917MOL0     C23681   7.662   2.580   6.383  0.8158 -0.5415  0.3391
  917MOL0     C23682   7.808   2.592   6.378  0.1279  0.1261 -1.2191
  917MOL0     C23683   7.879   2.698   6.460 -0.3954  0.1095 -1.2318
  917MOL0     O23684   7.882   2.674   6.603 -0.4528  0.1697  0.2623
  917MOL0     C23685   7.867   2.776   6.692  0.6059  0.8046 -0.1500
  917MOL0     C23686   7.979   2.805   6.767 -0.1619 -0.6273 -0.3708
  917MOL0     C23687   7.979   2.921   6.856 -0.4787 -0.3803  0.1921
  917MOL0     C23688   7.860   2.996   6.868  0.0094  1.3770 -0.2297
  917MOL0     C23689   7.855   3.113   6.970 -0.0895 -0.9720  0.5534
  917MOL0     O23690   7.963   3.131   7.047 -0.0768  0.0511  0.1836
  917MOL0     C23691   7.976   3.228   7.139  0.3014  0.0932 -0.3299
  917MOL0     C23692   8.067   3.331   7.107  0.0670 -0.5369  0.0600
  917MOL0     C23693   8.099   3.436   7.205 -0.0687 -0.0650  0.5355
  917MOL0     C23694   8.041   3.439   7.333 -0.1764 -0.1779 -0.4203
  917MOL0     O23695   8.088   3.526   7.439 -0.1628  0.4024 -0.0587
  917MOL0     C23696   8.225   3.535   7.462  0.2997 -0.5672 -0.2159
  917MOL0     C23697   8.269   3.618   7.583 -0.1150 -0.5480 -0.1228
  917MOL0     C23698   8.427   3.620   7.600 -0.3433 -1.1017 -0.0054
  917MOL0     C23699   8.453   3.698   7.735 -1.1518  0.6365 -0.2327
  917MOL0     C23700   8.598   3.740   7.739  0.0533  0.2404 -0.5418
  917MOL0     C23701   8.634   3.837   7.858 -0.0013 -0.5546  0.3878
  917MOL0     C23702   8.777   3.890   7.855 -0.6513  0.0073  0.3312
  917MOL0     C23703   8.799   3.992   7.965 -0.3810 -0.3249 -0.1991
  917MOL0    Cl23704   8.664   4.107   7.995  0.1829  0.6415  0.4148
  917MOL0     C23705   7.945   3.338   7.356  0.2475 -0.4233  0.5641
  917MOL0     C23706   7.911   3.234   7.262 -0.2689 -0.8057 -0.1617
  917MOL0     O23707   7.749   3.175   6.986  0.1396  0.2894 -0.1668
  917MOL0     C23708   7.743   2.962   6.797 -0.0491 -0.2717  1.0356
  917MOL0     C23709   7.751   2.853   6.705  0.0400 -1.0522  1.3072
  917MOL0     N23710   7.405   2.650   6.151 -0.0450 -0.3652 -0.4345
  917MOL0     N23711   7.280   2.616   6.154  0.8184 -0.3983 -0.1863
  917MOL0     C23712   6.733   1.885   5.676 -0.5653  0.0488 -0.3543
  917MOL0     C23713   6.663   1.894   5.552  0.2864 -0.1147 -1.3483
  917MOL0     C23714   6.521   2.141   5.186  0.0842 -0.5039 -0.6262
  917MOL0     C23715   6.509   2.270   5.139  1.1425  0.1699 -0.4974
  917MOL0     C23716   6.446   2.307   5.022  0.7761 -0.7709  0.0911
  917MOL0     C23717   6.388   2.208   4.946 -0.5472 -0.5928  0.2263
  917MOL0     O23718   6.327   2.238   4.830 -0.2973 -0.3211 -0.1450
  917MOL0     C23719   6.328   2.152   4.715 -0.2925  0.5213  0.5646
  917MOL0     C23720   6.238   2.207   4.611  0.4513  1.2069  0.7064
  917MOL0     C23721   6.102   2.245   4.671  0.4348 -0.4393 -0.3165
  917MOL0     C23722   5.999   2.279   4.566  0.4537  0.0873 -0.2047
  917MOL0     C23723   5.871   2.329   4.628 -0.3871  0.2084  0.2595
  917MOL0     C23724   5.762   2.369   4.657  0.4467 -0.3339 -0.2198
  917MOL0     C23725   6.406   2.072   4.990  0.0483  0.4451  0.0777
  917MOL0     C23726   6.473   2.038   5.107 -0.1611 -0.7369  0.1846
  917MOL0     C23727   6.482   1.896   5.141  0.1966 -0.3498 -0.6316
  917MOL0     H23728   6.876   2.123   5.398 -1.2026  2.2314  2.2498
  917MOL0     H23729   6.980   2.107   5.590  1.0771 -1.1296 -1.1839
  917MOL0     H23730   7.086   1.916   5.766  1.8286  1.4172 -0.0857
  917MOL0     H23731   7.067   2.088   5.793 -1.9826 -0.6870 -1.4785
  917MOL0     H23732   7.185   1.982   6.003 -0.1214 -1.1095  0.3679
  917MOL0     H23733   7.048   1.890   6.019  0.5157 -0.6428 -2.0102
  917MOL0     H23734   6.917   2.101   6.081  0.7225  0.0185 -0.3625
  917MOL0     H23735   7.036   2.206   6.030 -1.1377  1.0339 -0.0857
  917MOL0     H23736   7.054   1.997   6.266  4.3091 -0.7282 -0.8045
  917MOL0     H23737   7.191   2.088   6.219  0.5779  0.7446  1.1172
  917MOL0     H23738   6.928   2.214   6.332  0.6159  4.8063  1.7494
  917MOL0     H23739   7.084   2.193   6.408 -0.2621  1.9600  1.2454
  917MOL0     H23740   7.190   2.339   6.244 -0.0251  4.6897 -1.9932
  917MOL0     H23741   7.030   2.372   6.171  0.2622  1.3880  0.3975
  917MOL0     H23742   7.088   2.453   6.456 -0.5132  2.1755 -0.4937
  917MOL0     H23743   6.932   2.448   6.372 -0.9167 -1.5504 -0.7320
  917MOL0     H23744   7.026   2.626   6.220  2.6414  1.7371 -0.6631
  917MOL0     H23745   7.053   2.669   6.389 -0.1191 -0.5828  1.2583
  917MOL0     H23746   7.324   2.649   6.474 -1.4162  0.9886  0.1563
  917MOL0     H23747   7.637   2.729   6.228  1.0657 -1.6646  0.0582
  917MOL0     H23748   7.582   2.795   6.379  1.1920 -0.1600  0.2579
  917MOL0     H23749   7.612   2.560   6.478 -3.2941 -2.0212 -1.8884
  917MOL0     H23750   7.641   2.498   6.314  1.0077  0.6047 -1.1442
  917MOL0     H23751   7.827   2.592   6.270 -1.9245 -0.6227 -1.6105
  917MOL0     H23752   7.842   2.499   6.425  0.3785  0.8082 -0.0043
  917MOL0     H23753   7.827   2.794   6.450 -1.0647 -0.0304  0.5190
  917MOL0     H23754   7.972   2.725   6.408 -0.4635 -0.8298 -1.8528
  917MOL0     H23755   8.072   2.749   6.759  0.1129 -0.2457  0.1116
  917MOL0     H23756   8.067   2.927   6.918  0.6327  2.4297 -1.4441
  917MOL0     H23757   8.113   3.315   7.010 -0.9695 -1.4645 -0.2980
  917MOL0     H23758   8.173   3.511   7.178 -1.7442  1.1728 -0.8768
  917MOL0     H23759   8.257   3.431   7.474 -1.8017 -1.4769 -1.8769
  917MOL0     H23760   8.275   3.572   7.372 -2.1254 -0.4930 -1.6095
  917MOL0     H23761   8.227   3.718   7.571  1.6871  0.3589  0.7550
  917MOL0     H23762   8.229   3.589   7.680  2.4052  0.4109  1.3135
  917MOL0     H23763   8.474   3.523   7.620  0.4606 -0.1744  2.9920
  917MOL0     H23764   8.465   3.670   7.511 -0.7920 -0.1173  0.3454
  917MOL0     H23765   8.431   3.639   7.825  1.1255 -1.8916 -1.1940
  917MOL0     H23766   8.403   3.795   7.738  2.1944  2.4915  0.4266
  917MOL0     H23767   8.620   3.801   7.651  0.5648  1.3242  0.3147
  917MOL0     H23768   8.666   3.654   7.740  3.0631  2.4744 -0.7265
  917MOL0     H23769   8.557   3.915   7.856 -1.9389 -2.3705  1.1018
  917MOL0     H23770   8.621   3.787   7.954  0.0846  1.2068  1.3542
  917MOL0     H23771   8.800   3.941   7.761 -1.5655  0.1749  0.1805
  917MOL0     H23772   8.854   3.813   7.863 -1.6155 -1.1373 -0.9709
  917MOL0     H23773   8.845   3.943   8.051  2.2238  3.2830  0.6775
  917MOL0     H23774   8.887   4.050   7.936 -0.4952 -0.1352 -0.1600
  917MOL0     H23775   7.892   3.333   7.451 -1.7472 -0.2286 -0.5074
  917MOL0     H23776   7.832   3.169   7.299 -0.7919  1.1050  2.4096
  917MOL0     H23777   7.652   3.019   6.813  0.4518  1.2779 -1.1157
  917MOL0     H23778   7.671   2.814   6.642 -0.6224  2.3768 -0.2268
  917MOL0     H23779   6.700   1.813   5.749  0.8759  1.4096  1.7410
  917MOL0     H23780   6.565   1.849   5.535 -0.6763  1.4773 -0.2774
  917MOL0     H23781   6.553   2.353   5.193 -0.1747  1.2150 -0.9882
  917MOL0     H23782   6.448   2.407   4.981 -1.2361  0.4815  2.7173
  917MOL0     H23783   6.288   2.053   4.739 -1.1221  0.9102  0.8451
  917MOL0     H23784   6.426   2.135   4.670 -0.4043 -0.3634  0.6285
  917MOL0     H23785   6.217   2.131   4.535  0.3077  1.6739  0.2727
  917MOL0     H23786   6.279   2.298   4.566  1.2611 -0.2769 -1.7010
  917MOL0     H23787   6.129   2.322   4.744 -0.7544 -2.1059  1.9913
  917MOL0     H23788   6.069   2.162   4.734  0.2062  0.0716  0.2463
  917MOL0     H23789   6.030   2.359   4.498 -1.0357  2.8373  2.1004
  917MOL0     H23790   5.978   2.190   4.506  0.2541  0.1956 -0.2987
  917MOL0     H23791   5.661   2.394   4.681 -0.2756 -0.9465 -2.3908
  917MOL0     H23792   6.356   1.996   4.931 -1.3426  1.6544 -0.3789
  917MOL0     H23793   6.447   1.880   5.243 -0.5702 -1.5844 -1.0590
  917MOL0     H23794   6.424   1.828   5.078  1.1786 -3.6840  1.7805
  917MOL0     H23795   6.582   1.853   5.130  0.6558  0.5090  0.0425
  918MOL0     O23796  10.935   3.235   2.543 -0.1485  0.6929  0.1041
  918MOL0     C23797  10.916   3.345   2.494  0.5068 -0.6477 -0.7203
  918MOL0     O23798  11.012   3.428   2.431 -0.0868  0.0651  0.0862
  918MOL0     C23799  11.133   3.371   2.405  0.5562  0.0167  0.2755
  918MOL0     C23800  11.240   3.390   2.489  0.4439 -0.8726 -0.2350
  918MOL0     C23801  11.366   3.327   2.490  0.4331  0.2084 -0.6866
  918MOL0     C23802  11.385   3.246   2.381 -0.0689  0.5059 -0.2254
  918MOL0     O23803  11.499   3.172   2.361  0.0974 -0.5438 -0.7636
  918MOL0     C23804  11.586   3.143   2.468  0.1526 -0.8129 -0.5970
  918MOL0     C23805  11.670   3.027   2.432  0.3078  0.4295 -0.9887
  918MOL0     C23806  11.732   2.954   2.548 -0.1679  0.5905  1.2049
  918MOL0     C23807  11.773   2.807   2.515  0.8862 -0.2231  0.0150
  918MOL0     C23808  11.902   2.768   2.586 -0.6893 -0.6518  0.3022
  918MOL0     C23809  11.904   2.759   2.736 -0.6152 -0.0973 -0.2637
  918MOL0     C23810  12.031   2.710   2.807  0.5520 -0.6465 -0.1389
  918MOL0     C23811  12.155   2.787   2.773 -0.0925 -0.6807  0.6889
  918MOL0     N23812  12.146   2.926   2.829  0.0813  0.1409 -0.1363
  918MOL0     C23813  12.148   2.949   2.969  0.7107  0.7642  0.6947
  918MOL0     C23814  12.165   3.080   2.971 -0.1604  0.2475 -0.3230
  918MOL0     C23815  12.165   3.155   3.101 -0.4036 -0.0637  0.4523
  918MOL0     C23816  12.276   3.257   3.107 -0.6150 -0.3694  0.1290
  918MOL0     C23817  12.328   3.291   3.256  0.7081 -0.3696 -0.3803
  918MOL0     C23818  12.462   3.370   3.265 -0.0768  0.1190  0.1125
  918MOL0     O23819  12.571   3.307   3.201 -0.6245 -0.6976 -0.5730
  918MOL0     C23820  12.694   3.355   3.240  0.0916  0.9838  0.4982
  918MOL0     C23821  12.728   3.371   3.376 -1.1086 -0.3225  0.3923
  918MOL0     C23822  12.853   3.422   3.404  0.2962  0.4969 -0.3895
  918MOL0     C23823  12.952   3.445   3.309  0.4458 -1.0681  0.6594
  918MOL0     C23824  13.090   3.492   3.341  0.1886  0.3462  0.3653
  918MOL0     O23825  13.164   3.532   3.234  0.0161  0.0276 -0.3720
  918MOL0     C23826  13.299   3.543   3.242 -1.2205 -1.2027 -0.6108
  918MOL0     C23827  13.371   3.616   3.145  0.2178 -0.3133 -0.1651
  918MOL0     C23828  13.508   3.656   3.154  0.2858 -0.4714 -0.1441
  918MOL0     C23829  13.583   3.638   3.271  1.0888 -0.6281  0.4929
  918MOL0     O23830  13.712   3.675   3.288 -0.2926 -0.3481 -0.5347
  918MOL0     C23831  13.790   3.699   3.165 -0.0164 -0.1637  0.3377
  918MOL0     C23832  13.929   3.763   3.201 -0.0177 -1.2947  1.0886
  918MOL0     C23833  14.033   3.789   3.085 -0.3539 -0.7093  0.6001
  918MOL0     C23834  14.178   3.821   3.140  0.3711 -0.3961 -0.3454
  918MOL0     C23835  14.251   3.900   3.031 -0.5595 -0.0992 -0.4515
  918MOL0     C23836  14.398   3.917   3.072 -0.3039 -0.3467  0.4165
  918MOL0     C23837  14.479   3.959   2.951  0.1953 -0.1671 -0.1634
  918MOL0     C23838  14.621   3.928   2.963  0.3179  0.2887 -0.0723
  918MOL0    Cl23839  14.710   3.972   2.815 -0.2086  0.0349  0.0069
  918MOL0     C23840  13.512   3.566   3.370  0.1015  0.2718  0.4992
  918MOL0     C23841  13.385   3.517   3.357 -0.0551 -0.6779  0.4374
  918MOL0     O23842  13.124   3.497   3.461 -0.0917 -0.4256 -0.1215
  918MOL0     C23843  12.915   3.440   3.176 -0.0035  0.2552  0.9514
  918MOL0     C23844  12.790   3.382   3.140  0.2995 -0.6200  0.9391
  918MOL0     N23845  12.125   3.126   2.847 -0.7584 -0.5410  0.1997
  918MOL0     N23846  12.111   3.039   2.750 -0.4836 -0.0650  0.0763
  918MOL0     C23847  11.287   3.220   2.288 -0.0207  0.3995 -0.7238
  918MOL0     C23848  11.159   3.283   2.296  0.1524  0.6466 -0.2661
  918MOL0     C23849  10.790   3.415   2.528  0.0421 -0.8470 -0.6648
  918MOL0     C23850  10.789   3.559   2.536 -0.5039  0.3048  0.0308
  918MOL0     C23851  10.664   3.623   2.549 -0.4748 -0.4482  0.7320
  918MOL0     C23852  10.547   3.543   2.564  0.4626  0.0293  0.0837
  918MOL0     O23853  10.430   3.616   2.570  0.3850 -0.3210  0.4566
  918MOL0     C23854  10.303   3.565   2.581 -0.8663 -0.7872  0.0732
  918MOL0     C23855  10.223   3.667   2.656  0.0091  0.1570 -0.1469
  918MOL0     C23856  10.229   3.636   2.804 -0.2828  0.2681 -0.4453
  918MOL0     C23857  10.172   3.745   2.891  0.4184 -0.0930  0.5368
  918MOL0     C23858  10.043   3.794   2.844  0.4049  0.2471  0.4979
  918MOL0     C23859   9.927   3.817   2.798  0.8065  0.7036  0.6381
  918MOL0     C23860  10.548   3.407   2.554  0.5823  0.4886  0.1158
  918MOL0     C23861  10.674   3.343   2.546  0.3325 -0.0875 -0.8556
  918MOL0     C23862  10.659   3.192   2.543  0.2438  0.7048  0.2591
  918MOL0     H23863  11.213   3.451   2.575  0.0093 -0.8205 -0.4065
  918MOL0     H23864  11.441   3.347   2.567  0.1683 -0.9943 -0.0852
  918MOL0     H23865  11.647   3.230   2.494 -0.6659 -0.8102  1.5144
  918MOL0     H23866  11.525   3.113   2.554 -1.0400  1.0123 -0.7606
  918MOL0     H23867  11.743   3.059   2.357  0.7980  0.2381 -0.6029
  918MOL0     H23868  11.605   2.950   2.389  1.7032 -1.1774 -0.3563
  918MOL0     H23869  11.665   2.955   2.634 -1.4051 -3.3420  0.5170
  918MOL0     H23870  11.825   3.006   2.572  0.0957  2.9881 -3.7449
  918MOL0     H23871  11.700   2.730   2.542  3.2666 -2.1334  1.3026
  918MOL0     H23872  11.774   2.795   2.406 -1.3115  0.9544 -0.1954
  918MOL0     H23873  11.925   2.666   2.555 -0.3331  0.2987 -2.8594
  918MOL0     H23874  11.983   2.833   2.553  0.4149 -0.4170  3.2152
  918MOL0     H23875  11.882   2.860   2.771 -1.9446 -0.9513  1.4886
  918MOL0     H23876  11.829   2.688   2.774  0.9387 -1.9575 -0.5000
  918MOL0     H23877  12.049   2.605   2.781  2.7709 -0.4798  0.5497
  918MOL0     H23878  11.996   2.716   2.911  0.7894 -0.6781 -0.0576
  918MOL0     H23879  12.244   2.734   2.808  1.1540 -0.3230 -1.6922
  918MOL0     H23880  12.155   2.798   2.664 -5.4128 -1.1669  0.3867
  918MOL0     H23881  12.140   2.868   3.040 -1.6034 -1.3092 -1.7177
  918MOL0     H23882  12.071   3.209   3.120  1.0567  2.2787  1.5825
  918MOL0     H23883  12.175   3.094   3.192 -2.6741  0.7490  1.3130
  918MOL0     H23884  12.360   3.225   3.044 -0.7152 -0.5945  0.1116
  918MOL0     H23885  12.239   3.353   3.069  0.9548 -0.2829 -1.3232
  918MOL0     H23886  12.348   3.199   3.312 -0.5093 -0.3988  0.0357
  918MOL0     H23887  12.251   3.354   3.301 -0.1452 -2.0264  0.5898
  918MOL0     H23888  12.484   3.396   3.369 -1.3769 -2.1517  1.0201
  918MOL0     H23889  12.453   3.465   3.212  0.3517  0.0168 -0.1462
  918MOL0     H23890  12.658   3.351   3.457 -0.4961 -1.1933  0.7275
  918MOL0     H23891  12.874   3.447   3.507 -1.4135  0.0890  0.0843
  918MOL0     H23892  13.330   3.647   3.049 -2.6987  0.0047  1.0740
  918MOL0     H23893  13.549   3.693   3.060 -1.2191  0.2063 -0.5785
  918MOL0     H23894  13.811   3.600   3.122  0.8581  0.2155 -0.1335
  918MOL0     H23895  13.732   3.752   3.090 -0.2340 -1.7169 -0.6537
  918MOL0     H23896  13.909   3.855   3.256 -1.8950 -1.7905  1.3056
  918MOL0     H23897  13.973   3.689   3.268  1.2194 -0.3671  1.3146
  918MOL0     H23898  14.046   3.706   3.014  1.9879 -0.6021  0.8297
  918MOL0     H23899  13.990   3.874   3.033  0.2285 -1.6212 -1.5131
  918MOL0     H23900  14.236   3.732   3.167  0.1015  0.1296  2.1961
  918MOL0     H23901  14.175   3.887   3.227  2.3058 -0.2796 -0.3302
  918MOL0     H23902  14.208   4.000   3.016  1.6705  0.6888 -2.0107
  918MOL0     H23903  14.248   3.846   2.936  3.3089 -2.2414  0.4486
  918MOL0     H23904  14.401   3.996   3.147  3.4208  0.0964 -0.0122
  918MOL0     H23905  14.439   3.825   3.115  2.3131  1.0402  1.1302
  918MOL0     H23906  14.466   4.068   2.956  1.2647 -0.0343 -0.0542
  918MOL0     H23907  14.448   3.916   2.855 -0.5196 -2.0788  0.8619
  918MOL0     H23908  14.665   3.962   3.057 -0.6092 -1.3926  1.0142
  918MOL0     H23909  14.641   3.820   2.968  4.8971  0.9766  1.5542
  918MOL0     H23910  13.571   3.561   3.461  1.4958 -0.3458 -0.4030
  918MOL0     H23911  13.344   3.455   3.436  0.2178 -3.0981 -1.2293
  918MOL0     H23912  12.968   3.478   3.089 -3.0296  0.0764 -1.1355
  918MOL0     H23913  12.755   3.369   3.038  1.3502 -1.6434  0.6939
  918MOL0     H23914  11.328   3.161   2.207  3.4384  0.6960  0.6298
  918MOL0     H23915  11.075   3.266   2.229  0.5427  1.0541 -0.8700
  918MOL0     H23916  10.886   3.609   2.533  0.1412 -0.9275 -1.0008
  918MOL0     H23917  10.655   3.731   2.559  0.0287 -0.4390  1.1100
  918MOL0     H23918  10.307   3.468   2.632  1.8605 -0.5570  0.4442
  918MOL0     H23919  10.256   3.552   2.483 -0.7518  0.3869 -0.1571
  918MOL0     H23920  10.119   3.650   2.627  0.0328 -0.4184  0.0759
  918MOL0     H23921  10.250   3.767   2.621 -1.4697 -0.1123 -2.2646
  918MOL0     H23922  10.337   3.635   2.822  0.0160  2.8396 -1.6338
  918MOL0     H23923  10.180   3.541   2.828  0.7294 -0.2921 -0.5312
  918MOL0     H23924  10.173   3.701   2.991 -3.7366  0.9228  1.2249
  918MOL0     H23925  10.235   3.833   2.909 -2.6032  2.3236  0.1954
  918MOL0     H23926   9.839   3.863   2.757  1.6509  2.0468  0.2568
  918MOL0     H23927  10.459   3.345   2.552  0.8778 -0.0743  2.1519
  918MOL0     H23928  10.700   3.151   2.450 -0.5053  0.2531  0.1225
  918MOL0     H23929  10.711   3.150   2.631 -0.0179  0.4429  0.2907
  918MOL0     H23930  10.557   3.156   2.557  1.1801 -1.8475  1.2277
  919MOL0     O23931   6.621   8.950   8.713 -0.0208  0.7182  0.1514
  919MOL0     C23932   6.559   9.056   8.689  0.6089  0.4490 -0.0655
  919MOL0     O23933   6.615   9.179   8.668 -0.2699 -0.6585  0.0451
  919MOL0     C23934   6.750   9.183   8.708 -0.0653 -0.4875  0.6949
  919MOL0     C23935   6.787   9.174   8.846 -0.0147 -0.1045  1.4616
  919MOL0     C23936   6.923   9.170   8.872 -0.6883 -0.5379 -0.0994
  919MOL0     C23937   7.020   9.212   8.773 -0.2061 -0.1321 -0.9768
  919MOL0     O23938   7.158   9.219   8.796 -0.3631 -0.6316 -0.2298
  919MOL0     C23939   7.218   9.102   8.860  0.1205 -0.4829 -0.2568
  919MOL0     C23940   7.211   8.977   8.780  0.0079  0.0020 -0.1921
  919MOL0     C23941   7.303   8.867   8.847 -0.6200  0.3036 -1.1478
  919MOL0     C23942   7.286   8.735   8.773  0.5940  0.0350  0.5017
  919MOL0     C23943   7.372   8.629   8.840 -0.6802  0.3900  0.1749
  919MOL0     C23944   7.511   8.605   8.770  0.1941 -0.5361 -0.1215
  919MOL0     C23945   7.618   8.703   8.833 -0.3690  0.7924  0.1936
  919MOL0     C23946   7.761   8.652   8.793 -0.1875  0.4619  0.0436
  919MOL0     N23947   7.829   8.706   8.672  0.0013  0.3576 -0.9348
  919MOL0     C23948   7.762   8.725   8.553  0.0244 -0.8485  0.4711
  919MOL0     C23949   7.863   8.761   8.465 -0.1100 -0.1237 -0.0126
  919MOL0     C23950   7.836   8.818   8.323  0.0845  0.1469 -0.8187
  919MOL0     C23951   7.836   8.702   8.227 -0.3216  0.3432 -0.0860
  919MOL0     C23952   7.980   8.639   8.219 -1.6564  0.5571  0.3000
  919MOL0     C23953   7.982   8.546   8.100 -0.0815  0.5798  0.6559
  919MOL0     O23954   8.104   8.473   8.082  0.5526  0.9641  0.0244
  919MOL0     C23955   8.224   8.538   8.066  0.4641 -0.3224  0.1931
  919MOL0     C23956   8.241   8.671   8.015  0.3276 -0.4799  0.4747
  919MOL0     C23957   8.370   8.729   8.006 -0.3307  0.0791  0.0005
  919MOL0     C23958   8.483   8.668   8.054  1.2845  0.4343 -0.8203
  919MOL0     C23959   8.603   8.744   8.066  0.5226 -0.6371  0.7917
  919MOL0     O23960   8.693   8.704   8.163  0.1845  0.3275  0.4864
  919MOL0     C23961   8.816   8.774   8.165  0.6582 -1.2752 -0.5784
  919MOL0     C23962   8.848   8.856   8.278 -0.0005 -0.2231 -0.1758
  919MOL0     C23963   8.977   8.913   8.280 -0.2223 -0.2511  0.6353
  919MOL0     C23964   9.076   8.890   8.183 -0.3780 -0.6486 -0.1579
  919MOL0     O23965   9.198   8.948   8.202  1.0699 -0.3463  0.0678
  919MOL0     C23966   9.299   8.860   8.248 -0.0891 -0.4251 -0.6570
  919MOL0     C23967   9.424   8.938   8.252  0.0199  0.1132  0.3286
  919MOL0     C23968   9.476   8.967   8.123  0.7618 -0.1472 -0.0548
  919MOL0     C23969   9.624   9.022   8.133  0.2470 -0.3618  0.1235
  919MOL0     C23970   9.681   9.037   7.996 -0.2182 -0.3848 -0.2491
  919MOL0     C23971   9.803   9.121   7.989  0.6489 -0.3402  0.2496
  919MOL0     C23972   9.854   9.148   7.850  1.0581 -0.6888  0.4232
  919MOL0     C23973   9.948   9.048   7.795 -0.5778 -0.6904 -0.9142
  919MOL0    Cl23974  10.103   9.048   7.890  0.4881 -0.2548  0.2677
  919MOL0     C23975   9.041   8.807   8.077  0.3568  0.6812  0.5809
  919MOL0     C23976   8.917   8.750   8.074 -0.3487  0.1311 -0.5034
  919MOL0     O23977   8.620   8.836   7.986  0.9274 -0.9737 -0.5449
  919MOL0     C23978   8.468   8.540   8.104 -0.1605  0.4021 -0.5448
  919MOL0     C23979   8.340   8.475   8.097  0.1358 -0.4894 -0.8458
  919MOL0     N23980   7.986   8.761   8.534 -0.2239  0.9849  0.1299
  919MOL0     N23981   7.966   8.736   8.660  0.1757  0.4182  0.5789
  919MOL0     C23982   6.977   9.230   8.646  0.0401 -0.3692  0.9957
  919MOL0     C23983   6.842   9.213   8.611 -0.9728 -1.4467  0.4353
  919MOL0     C23984   6.418   9.039   8.677  0.0199  0.5723 -0.2064
  919MOL0     C23985   6.344   9.105   8.772 -0.1103 -0.4157  0.3789
  919MOL0     C23986   6.209   9.088   8.778 -0.2162 -0.6939  0.8785
  919MOL0     C23987   6.140   9.005   8.696  0.7187  0.4614  0.5290
  919MOL0     O23988   6.006   8.991   8.704  0.0724  0.4052 -0.1185
  919MOL0     C23989   5.964   8.862   8.672  0.5263 -0.5207  0.6962
  919MOL0     C23990   5.864   8.827   8.782  0.8069  0.8976  0.5679
  919MOL0     C23991   5.752   8.932   8.795  0.5233 -0.2578 -0.4386
  919MOL0     C23992   5.637   8.894   8.889  0.9072  0.1180 -0.1165
  919MOL0     C23993   5.515   8.988   8.904 -0.0615  0.2547 -0.8377
  919MOL0     C23994   5.430   9.053   8.957  0.5545  0.2349 -0.8819
  919MOL0     C23995   6.214   8.939   8.594 -0.1923 -0.3162  0.0624
  919MOL0     C23996   6.352   8.961   8.576 -0.2381 -0.7507 -0.3376
  919MOL0     C23997   6.425   8.915   8.453  0.5878  0.7679 -0.8141
  919MOL0     H23998   6.704   9.154   8.913 -2.1728 -0.5864 -1.1462
  919MOL0     H23999   6.963   9.159   8.972 -0.1392 -0.7104 -0.3327
  919MOL0     H24000   7.326   9.120   8.871  0.6874 -1.7307 -2.8940
  919MOL0     H24001   7.185   9.094   8.964  4.0284  0.8489  1.2680
  919MOL0     H24002   7.227   8.992   8.673 -2.8112  0.0355 -0.6777
  919MOL0     H24003   7.111   8.933   8.778 -0.2338  0.5577 -0.4519
  919MOL0     H24004   7.293   8.846   8.954  0.3727 -0.9322 -1.2766
  919MOL0     H24005   7.404   8.906   8.834 -0.6234  0.3484 -1.0405
  919MOL0     H24006   7.181   8.707   8.770  1.6746 -4.7719 -1.1457
  919MOL0     H24007   7.319   8.742   8.668 -0.0292 -2.0401  0.1290
  919MOL0     H24008   7.388   8.652   8.945 -0.7397  0.1318  0.2408
  919MOL0     H24009   7.325   8.530   8.842 -0.2898  0.2159  2.0563
  919MOL0     H24010   7.544   8.503   8.788  0.7431 -0.0411  1.9723
  919MOL0     H24011   7.493   8.620   8.663  0.1089  1.7420  0.1609
  919MOL0     H24012   7.604   8.683   8.940  0.2943 -1.5660 -0.1086
  919MOL0     H24013   7.607   8.809   8.806  1.7925  1.0916  0.2884
  919MOL0     H24014   7.819   8.688   8.878 -0.0291  2.6523 -0.9441
  919MOL0     H24015   7.763   8.543   8.784  2.0797  0.5119 -0.7748
  919MOL0     H24016   7.655   8.720   8.535  0.4962 -1.4743 -2.6231
  919MOL0     H24017   7.737   8.863   8.337  0.2712  0.1488  0.7455
  919MOL0     H24018   7.902   8.901   8.300  0.1150  0.2929 -0.2148
  919MOL0     H24019   7.748   8.641   8.249 -1.7063  0.7634 -3.7951
  919MOL0     H24020   7.804   8.744   8.132 -2.3390  0.3409  0.5349
  919MOL0     H24021   7.992   8.585   8.313 -1.1833 -1.1370 -0.6750
  919MOL0     H24022   8.060   8.713   8.207 -0.2771 -1.2487 -3.6455
  919MOL0     H24023   7.960   8.592   8.004  2.3331  1.1882  0.3311
  919MOL0     H24024   7.908   8.467   8.117  0.1145  0.4092  0.7290
  919MOL0     H24025   8.158   8.720   7.966  0.9363 -1.0059 -1.1403
  919MOL0     H24026   8.379   8.828   7.963  0.4147 -0.1478 -0.3849
  919MOL0     H24027   8.774   8.870   8.355 -0.7467 -3.3484 -0.1612
  919MOL0     H24028   9.019   8.979   8.355  4.1383 -2.1273  0.1972
  919MOL0     H24029   9.295   8.824   8.351 -1.2078 -0.1075 -0.5796
  919MOL0     H24030   9.305   8.777   8.176 -2.3847  0.0809 -1.5066
  919MOL0     H24031   9.414   9.028   8.314 -2.2677 -1.1471  1.9189
  919MOL0     H24032   9.503   8.886   8.308  0.0095 -0.7817 -0.4541
  919MOL0     H24033   9.475   8.875   8.064 -1.5044  0.3724 -0.9190
  919MOL0     H24034   9.409   9.037   8.072 -1.2161  0.6540  3.2821
  919MOL0     H24035   9.684   8.952   8.192 -0.3451  0.1585  1.3718
  919MOL0     H24036   9.630   9.119   8.184  1.5169  0.0652 -0.7682
  919MOL0     H24037   9.605   9.076   7.928  1.7694  2.8166 -0.8305
  919MOL0     H24038   9.711   8.938   7.962 -0.8650 -0.7705  0.2696
  919MOL0     H24039   9.777   9.219   8.030 -0.5696  0.5819 -2.4485
  919MOL0     H24040   9.882   9.081   8.052 -0.6107 -1.7451  1.0209
  919MOL0     H24041   9.903   9.245   7.859  1.0747 -0.8441  2.3769
  919MOL0     H24042   9.774   9.168   7.779  0.7940  1.9068  1.3643
  919MOL0     H24043   9.895   8.952   7.800 -2.3968  0.2784 -0.6510
  919MOL0     H24044   9.978   9.085   7.697  2.0496  0.1956  0.1309
  919MOL0     H24045   9.119   8.775   8.008  0.2004 -1.6254  1.3973
  919MOL0     H24046   8.889   8.683   7.994 -1.7038  0.8172 -0.6317
  919MOL0     H24047   8.558   8.488   8.137 -0.3654 -0.4039 -1.2304
  919MOL0     H24048   8.349   8.371   8.125  0.9009 -0.3869 -0.6771
  919MOL0     H24049   7.051   9.234   8.567  0.0745 -0.1024  1.0395
  919MOL0     H24050   6.807   9.218   8.508 -1.3251 -0.3717  0.6023
  919MOL0     H24051   6.396   9.162   8.849  1.2018  1.5023 -1.8093
  919MOL0     H24052   6.158   9.134   8.862 -0.4378 -3.6832  2.5089
  919MOL0     H24053   6.051   8.798   8.688  0.3968 -1.2592 -1.2636
  919MOL0     H24054   5.941   8.851   8.566 -0.5422 -0.9369  0.9574
  919MOL0     H24055   5.914   8.808   8.878 -1.1154  0.3661  1.5095
  919MOL0     H24056   5.817   8.732   8.754 -1.7588  2.1731  0.2849
  919MOL0     H24057   5.714   8.953   8.695 -1.3627  1.3579  0.5443
  919MOL0     H24058   5.791   9.029   8.829 -2.2892  0.3571  1.4354
  919MOL0     H24059   5.601   8.803   8.840  1.6311 -0.6209  0.6957
  919MOL0     H24060   5.680   8.863   8.984 -0.3800 -1.3351  0.0429
  919MOL0     H24061   5.366   9.123   9.008  0.2246 -1.3872  1.0289
  919MOL0     H24062   6.177   8.880   8.511 -2.7340 -0.2947  1.1040
  919MOL0     H24063   6.515   8.976   8.444 -0.7230  2.7459 -1.2642
  919MOL0     H24064   6.455   8.815   8.485 -0.4984 -0.0252 -2.1427
  919MOL0     H24065   6.362   8.913   8.363 -2.6443 -2.7065  1.2591
  920MOL0     O24066   2.379   0.107   2.942  0.1016 -0.7311  0.5528
  920MOL0     C24067   2.382   0.008   3.008 -0.9407  0.2466  0.0292
  920MOL0     O24068   2.501  -0.074   3.011 -0.1695 -0.1119  0.1054
  920MOL0     C24069   2.611  -0.044   2.931  0.3366 -0.1702  0.4769
  920MOL0     C24070   2.635  -0.136   2.826 -0.5617  0.5185  0.9138
  920MOL0     C24071   2.740  -0.118   2.736 -0.8235 -0.5301  0.2484
  920MOL0     C24072   2.824  -0.009   2.758  0.2932 -0.0034  0.8519
  920MOL0     O24073   2.933   0.004   2.675  0.2751  0.0302  1.0577
  920MOL0     C24074   3.048   0.073   2.733 -0.6021  0.2930 -0.1082
  920MOL0     C24075   3.163   0.071   2.631 -0.4817  0.7155  1.0405
  920MOL0     C24076   3.295   0.117   2.691  1.1337  0.1628 -0.6161
  920MOL0     C24077   3.388   0.164   2.584 -0.1018 -0.2711 -0.6817
  920MOL0     C24078   3.512   0.214   2.654 -0.1976 -0.4024 -0.0353
  920MOL0     C24079   3.599   0.096   2.696  0.2234 -0.5668 -0.6204
  920MOL0     C24080   3.757   0.135   2.702 -0.2769  0.2801  0.8656
  920MOL0     C24081   3.840   0.059   2.595  0.4004  0.2173 -0.2976
  920MOL0     N24082   3.765   0.070   2.469  0.2138 -0.1131 -0.1870
  920MOL0     C24083   3.741   0.179   2.381  0.0415  0.4313  0.3611
  920MOL0     C24084   3.640   0.136   2.303  1.0988  0.4678  0.4412
  920MOL0     C24085   3.572   0.205   2.191 -0.8042  0.4937 -0.8610
  920MOL0     C24086   3.420   0.190   2.201  1.0250 -1.0440 -1.0540
  920MOL0     C24087   3.348   0.269   2.096 -0.4436 -0.0055  0.7854
  920MOL0     C24088   3.194   0.258   2.107 -0.0028 -0.6791  0.8534
  920MOL0     O24089   3.131   0.350   2.021  0.1553 -0.2218 -0.6827
  920MOL0     C24090   2.992   0.362   2.018  0.4137  0.3528 -0.0993
  920MOL0     C24091   2.899   0.259   2.053 -0.3071  0.8413  0.6948
  920MOL0     C24092   2.762   0.276   2.021 -0.2566  0.2710 -0.7327
  920MOL0     C24093   2.716   0.396   1.971  0.4412 -0.7484 -0.3191
  920MOL0     C24094   2.568   0.418   1.957  0.6052  0.0304 -0.6305
  920MOL0     O24095   2.474   0.326   2.013  0.4217 -0.0833  0.0019
  920MOL0     C24096   2.338   0.333   2.011 -0.1158  0.1295 -0.1100
  920MOL0     C24097   2.266   0.390   1.908  0.0282 -0.5374 -0.1069
  920MOL0     C24098   2.124   0.383   1.909  0.1667 -0.8892  0.3183
  920MOL0     C24099   2.064   0.322   2.020 -0.7144  0.1036  0.4642
  920MOL0     O24100   1.931   0.338   2.021  0.0992 -0.1240  0.4181
  920MOL0     C24101   1.846   0.210   2.039 -1.3333 -0.3748  0.5382
  920MOL0     C24102   1.815   0.162   1.900  0.5060  1.1098  0.3359
  920MOL0     C24103   1.768   0.265   1.792 -0.0931 -0.0697  0.0866
  920MOL0     C24104   1.755   0.188   1.656  0.4665  0.2143 -0.1387
  920MOL0     C24105   1.747   0.285   1.541 -0.0372 -0.9547  0.4447
  920MOL0     C24106   1.696   0.208   1.416  0.7010  0.2847 -0.9390
  920MOL0     C24107   1.690   0.309   1.294 -0.4668  0.9430  0.6249
  920MOL0     C24108   1.591   0.247   1.184 -0.1598 -1.0362 -0.5044
  920MOL0    Cl24109   1.640   0.074   1.144  0.4614  0.7431 -0.0594
  920MOL0     C24110   2.140   0.265   2.122 -0.7083 -0.6073 -0.0161
  920MOL0     C24111   2.276   0.275   2.119  0.4358  0.3329  0.5978
  920MOL0     O24112   2.541   0.519   1.891 -0.7185 -0.1497 -0.5037
  920MOL0     C24113   2.804   0.490   1.915 -0.2720 -0.2392  0.3131
  920MOL0     C24114   2.941   0.472   1.938  0.7173  0.2158 -1.2379
  920MOL0     N24115   3.628  -0.004   2.324 -0.1869  0.1749 -0.1786
  920MOL0     N24116   3.704  -0.047   2.420  0.9609 -0.4362  0.9246
  920MOL0     C24117   2.787   0.093   2.856 -1.0331  1.7197  0.2084
  920MOL0     C24118   2.683   0.070   2.943  0.5715 -0.0806 -1.2639
  920MOL0     C24119   2.270  -0.037   3.090 -0.5881 -0.3198 -0.8388
  920MOL0     C24120   2.291  -0.127   3.194  0.1129 -0.1602  0.0599
  920MOL0     C24121   2.183  -0.159   3.283  0.6065  0.9498  0.3657
  920MOL0     C24122   2.048  -0.114   3.271 -0.6045 -1.0724 -0.2116
  920MOL0     O24123   1.959  -0.151   3.362 -0.3263  0.5003  0.1531
  920MOL0     C24124   1.818  -0.119   3.347  0.3848 -0.8608 -0.4482
  920MOL0     C24125   1.751  -0.135   3.487  0.4574  0.2330  0.3705
  920MOL0     C24126   1.820  -0.044   3.587 -0.3796 -0.2636 -0.4139
  920MOL0     C24127   1.765  -0.035   3.729  0.6761  0.6827 -0.6106
  920MOL0     C24128   1.619   0.014   3.739 -0.3413 -0.2310  0.4836
  920MOL0     C24129   1.511   0.065   3.735  0.7072  0.8365  0.2984
  920MOL0     C24130   2.029  -0.018   3.168  1.1377 -0.5383  0.1928
  920MOL0     C24131   2.136   0.012   3.073 -0.4264  0.0754 -0.4018
  920MOL0     C24132   2.102   0.111   2.967  0.3374 -0.8508  0.2445
  920MOL0     H24133   2.562  -0.215   2.812  0.7366 -0.9328  1.9749
  920MOL0     H24134   2.760  -0.187   2.654  0.3113  0.7006 -0.5666
  920MOL0     H24135   3.016   0.175   2.760 -3.0233 -0.5334  0.3853
  920MOL0     H24136   3.074   0.029   2.830 -2.0832  1.2259  0.7573
  920MOL0     H24137   3.146   0.141   2.548 -0.8614 -1.1708 -0.5342
  920MOL0     H24138   3.182  -0.025   2.583  2.9371  0.7981  1.9394
  920MOL0     H24139   3.341   0.035   2.746  1.0325  1.3690  1.3287
  920MOL0     H24140   3.279   0.185   2.775  0.7450 -0.1472 -0.4381
  920MOL0     H24141   3.411   0.078   2.520 -0.8259 -2.6323  2.0333
  920MOL0     H24142   3.352   0.244   2.518 -0.1860 -0.4958 -0.9099
  920MOL0     H24143   3.578   0.274   2.591  1.5328 -2.7867 -0.6639
  920MOL0     H24144   3.490   0.266   2.747  0.7468  1.5254 -0.8349
  920MOL0     H24145   3.564   0.067   2.796  0.2786  0.1025 -0.4027
  920MOL0     H24146   3.582   0.018   2.621  1.0873 -0.8099 -0.5796
  920MOL0     H24147   3.796   0.118   2.802 -2.3888  2.1068  2.1011
  920MOL0     H24148   3.758   0.244   2.685 -4.1570  0.5020  1.1332
  920MOL0     H24149   3.945   0.086   2.588  0.8253 -1.2590 -0.0781
  920MOL0     H24150   3.853  -0.045   2.629 -0.7833 -0.3248 -1.4396
  920MOL0     H24151   3.765   0.285   2.386  2.6047  0.0481 -1.6092
  920MOL0     H24152   3.618   0.304   2.188 -0.0006  0.2810  1.8729
  920MOL0     H24153   3.601   0.141   2.107 -2.8525 -2.0090  0.1972
  920MOL0     H24154   3.389   0.085   2.194  0.2465 -0.7611 -2.0637
  920MOL0     H24155   3.383   0.226   2.297 -1.9917 -1.8375 -1.8080
  920MOL0     H24156   3.379   0.240   1.995  0.8041  1.1626  0.7998
  920MOL0     H24157   3.383   0.373   2.098 -0.4015  0.0167 -0.3877
  920MOL0     H24158   3.167   0.273   2.212  2.8601 -0.4998  1.6507
  920MOL0     H24159   3.173   0.160   2.062  1.1041 -1.2665  1.5673
  920MOL0     H24160   2.945   0.174   2.103  2.2388  0.4959 -1.9002
  920MOL0     H24161   2.700   0.191   2.043  0.7724 -0.5747 -1.0212
  920MOL0     H24162   2.311   0.434   1.820 -0.7607 -1.7248 -1.1397
  920MOL0     H24163   2.070   0.412   1.820 -1.1432 -2.0547  0.6999
  920MOL0     H24164   1.902   0.131   2.091  0.4489  0.9204  0.6933
  920MOL0     H24165   1.756   0.235   2.096 -0.0086 -0.3303  2.7227
  920MOL0     H24166   1.907   0.120   1.859 -1.3126 -1.6012 -1.2619
  920MOL0     H24167   1.749   0.076   1.906  1.3957  0.3012 -0.8647
  920MOL0     H24168   1.672   0.304   1.824 -1.3228 -4.2658  2.3347
  920MOL0     H24169   1.837   0.349   1.783 -2.3691  1.7764 -1.1933
  920MOL0     H24170   1.668   0.121   1.654  1.4795 -1.1569 -0.0026
  920MOL0     H24171   1.850   0.135   1.646  1.5080  2.2172 -1.5892
  920MOL0     H24172   1.846   0.327   1.518  0.1839 -1.9168 -0.3947
  920MOL0     H24173   1.678   0.369   1.557  1.1129 -0.1991  1.6691
  920MOL0     H24174   1.765   0.124   1.406 -0.7215 -1.4601  2.1954
  920MOL0     H24175   1.593   0.173   1.430  1.8080 -2.5622  0.9613
  920MOL0     H24176   1.789   0.315   1.249  0.6301  0.0097  2.8122
  920MOL0     H24177   1.661   0.406   1.334  0.2161  0.2740  2.8553
  920MOL0     H24178   1.490   0.255   1.224  0.3318  1.5602  0.4244
  920MOL0     H24179   1.586   0.299   1.088  1.7325  0.8701  0.3717
  920MOL0     H24180   2.099   0.221   2.213 -0.8641 -1.5465 -0.5326
  920MOL0     H24181   2.335   0.222   2.194 -2.6274 -1.0117  2.2274
  920MOL0     H24182   2.777   0.575   1.853  4.5724  0.2482 -1.5665
  920MOL0     H24183   3.010   0.545   1.896  0.9371  1.9164  1.8431
  920MOL0     H24184   2.823   0.195   2.870 -1.6394  2.0423 -0.5268
  920MOL0     H24185   2.652   0.149   3.011  1.0609  0.5292 -1.7411
  920MOL0     H24186   2.386  -0.179   3.202 -0.3264 -0.6965  3.0143
  920MOL0     H24187   2.193  -0.227   3.368  2.6171 -0.7140 -1.1107
  920MOL0     H24188   1.768  -0.191   3.283 -0.2381 -2.0934  1.3416
  920MOL0     H24189   1.802  -0.017   3.311 -1.9270 -0.8464  0.4436
  920MOL0     H24190   1.752  -0.239   3.520  2.5021  0.5033  1.3153
  920MOL0     H24191   1.645  -0.108   3.477 -0.2220 -1.6589  1.7905
  920MOL0     H24192   1.808   0.056   3.543 -2.0116  0.4056  1.4042
  920MOL0     H24193   1.927  -0.068   3.585 -0.6661 -1.7392 -2.8792
  920MOL0     H24194   1.758  -0.140   3.758  2.1741 -0.5694 -4.1736
  920MOL0     H24195   1.826   0.021   3.800 -0.3466  0.3203  0.5903
  920MOL0     H24196   1.411   0.103   3.735 -0.2643 -1.5520  0.8356
  920MOL0     H24197   1.929   0.015   3.143  0.3700 -1.0576  2.3589
  920MOL0     H24198   1.995   0.132   2.957  0.7946  0.9418 -1.4761
  920MOL0     H24199   2.149   0.208   2.985  1.5701 -1.4346  0.2815
  920MOL0     H24200   2.134   0.080   2.867 -0.3370  1.7465 -0.8602
  921MOL0     O24201   7.124  10.526   9.105  0.7599 -0.2858  0.0302
  921MOL0     C24202   7.076  10.625   9.061 -0.1689 -0.0184 -0.5615
  921MOL0     O24203   7.151  10.740   9.034 -0.3634  0.6942 -0.5279
  921MOL0     C24204   7.292  10.736   9.067  0.3726 -0.2992 -0.8459
  921MOL0     C24205   7.349  10.815   9.166  0.0203  0.4527 -0.5096
  921MOL0     C24206   7.487  10.808   9.200  0.1671  0.9341  0.4265
  921MOL0     C24207   7.579  10.724   9.134  0.0539 -0.3203  0.7765
  921MOL0     O24208   7.709  10.735   9.159 -0.7126 -0.2457 -0.2800
  921MOL0     C24209   7.789  10.699   9.048  0.3679  0.6534  0.5555
  921MOL0     C24210   7.933  10.729   9.064  0.9011 -0.8355 -0.3455
  921MOL0     C24211   8.017  10.690   8.940 -0.1413  0.2752 -0.9587
  921MOL0     C24212   8.175  10.682   8.981 -0.0826  0.5613 -0.0274
  921MOL0     C24213   8.256  10.683   8.857 -0.0742 -0.5555  0.1868
  921MOL0     C24214   8.401  10.723   8.884 -1.0947  0.4481  0.0479
  921MOL0     C24215   8.465  10.627   8.976  0.5695  0.0062  0.8055
  921MOL0     C24216   8.610  10.653   8.987  0.4320  0.4930 -0.8874
  921MOL0     N24217   8.676  10.543   9.063  0.1129 -0.0937  0.6030
  921MOL0     C24218   8.703  10.426   9.007 -0.2957  0.1287 -0.5075
  921MOL0     C24219   8.774  10.357   9.107  0.4515  0.2120 -0.2156
  921MOL0     C24220   8.822  10.216   9.080  0.1869  0.1579  0.2174
  921MOL0     C24221   8.968  10.225   9.039  0.0672  0.5710  0.2066
  921MOL0     C24222   9.065  10.225   9.160  0.1698 -0.0070  0.2893
  921MOL0     C24223   9.209  10.206   9.117  0.2209  0.0642 -0.6922
  921MOL0     O24224   9.277  10.268   9.225  0.1442 -0.1341 -0.1293
  921MOL0     C24225   9.409  10.232   9.245 -0.1479 -0.1545 -0.1680
  921MOL0     C24226   9.472  10.277   9.360 -1.0308  0.1539  0.4913
  921MOL0     C24227   9.609  10.243   9.387 -0.2760 -0.0392  0.3227
  921MOL0     C24228   9.690  10.170   9.291  0.2489  0.3499 -1.0347
  921MOL0     C24229   9.830  10.133   9.324  0.0853  0.3205  0.5920
  921MOL0     O24230   9.892  10.047   9.244 -0.0909  0.5725 -0.5219
  921MOL0     C24231  10.028  10.019   9.249  0.7590  0.6245  0.3156
  921MOL0     C24232  10.071   9.981   9.122  0.4462  0.7321 -0.0640
  921MOL0     C24233  10.202   9.962   9.099  0.6439  0.2422 -0.0418
  921MOL0     C24234  10.303   9.967   9.203  0.9072 -0.1911 -0.1789
  921MOL0     O24235  10.427   9.918   9.166  0.0687 -0.8805 -0.4259
  921MOL0     C24236  10.534   9.926   9.256 -0.2697 -0.5596  0.1041
  921MOL0     C24237  10.644   9.848   9.186 -0.2668  0.7587  0.0009
  921MOL0     C24238  10.778   9.868   9.260  0.3241 -1.0551 -1.3198
  921MOL0     C24239  10.899   9.854   9.167  0.2058 -0.1133  0.4441
  921MOL0     C24240  11.027   9.927   9.205 -0.0724 -0.0175  0.1566
  921MOL0     C24241  11.121   9.912   9.099 -1.0231  0.8523  0.0262
  921MOL0     C24242  11.250   9.999   9.137  0.6868  1.2279  0.7200
  921MOL0     C24243  11.361   9.961   9.041 -0.6282  0.1031  0.4721
  921MOL0    Cl24244  11.424   9.798   9.102 -0.4646 -0.0130 -0.0365
  921MOL0     C24245  10.255  10.002   9.337 -0.2376 -0.0604  0.2023
  921MOL0     C24246  10.112  10.024   9.361  0.7407  0.4564 -0.0263
  921MOL0     O24247   9.883  10.192   9.418  0.1051 -0.1970 -0.7364
  921MOL0     C24248   9.622  10.136   9.175  0.5957  0.4232  0.1122
  921MOL0     C24249   9.486  10.152   9.160 -0.1816  0.0753 -0.3716
  921MOL0     N24250   8.793  10.448   9.210 -0.0535  0.5190 -0.0691
  921MOL0     N24251   8.731  10.558   9.182  0.4893 -0.6926 -0.4365
  921MOL0     C24252   7.517  10.639   9.040  0.2800 -0.2986  0.4309
  921MOL0     C24253   7.382  10.645   9.012  1.0823 -0.0918 -0.0839
  921MOL0     C24254   6.929  10.632   9.052 -0.3357  0.2195  0.5853
  921MOL0     C24255   6.847  10.519   9.052 -0.0044  0.2620  0.4899
  921MOL0     C24256   6.709  10.526   9.049 -0.9399 -0.0577  0.7644
  921MOL0     C24257   6.641  10.645   9.065 -0.4658 -0.4524  0.2070
  921MOL0     O24258   6.505  10.664   9.060 -0.2616  0.1107 -0.6016
  921MOL0     C24259   6.420  10.553   9.084 -0.2441 -0.0952 -0.5850
  921MOL0     C24260   6.402  10.553   9.236  0.1691  0.0790 -0.1624
  921MOL0     C24261   6.296  10.667   9.280  0.0942 -0.5873 -0.0527
  921MOL0     C24262   6.151  10.624   9.259  0.1903  0.1835  0.1162
  921MOL0     C24263   6.059  10.724   9.310 -0.1390 -1.2318 -0.0193
  921MOL0     C24264   5.971  10.801   9.343 -0.3574 -1.2170  0.5703
  921MOL0     C24265   6.719  10.764   9.079 -0.5812 -0.0431  0.5524
  921MOL0     C24266   6.868  10.756   9.074  1.0671  0.0785 -0.2528
  921MOL0     C24267   6.933  10.897   9.087 -0.1794  0.2083  0.1175
  921MOL0     H24268   7.280  10.884   9.214  0.4437  0.5540 -0.0376
  921MOL0     H24269   7.535  10.875   9.271  4.0810  0.6798 -1.7049
  921MOL0     H24270   7.781  10.592   9.029  2.3464  0.3880  0.9767
  921MOL0     H24271   7.747  10.764   8.971 -1.5491  1.3440  2.0957
  921MOL0     H24272   7.960  10.671   9.153 -1.1389  0.8856  1.5124
  921MOL0     H24273   7.939  10.835   9.090 -2.3806 -0.3267 -1.2017
  921MOL0     H24274   8.003  10.768   8.864 -0.1890  1.7483  0.4929
  921MOL0     H24275   7.995  10.594   8.892  2.2100  0.1514 -1.8969
  921MOL0     H24276   8.198  10.765   9.048  0.4492  1.6463 -1.5047
  921MOL0     H24277   8.202  10.595   9.042 -0.1204  0.9528  0.5537
  921MOL0     H24278   8.244  10.587   8.805 -2.6655  0.2385 -0.8649
  921MOL0     H24279   8.228  10.764   8.789  2.3899  0.0285 -0.2554
  921MOL0     H24280   8.466  10.725   8.796  0.9987  2.3476  1.5244
  921MOL0     H24281   8.418  10.816   8.938  0.9158 -0.4670  1.0975
  921MOL0     H24282   8.444  10.525   8.940 -0.9212  0.3613  0.6168
  921MOL0     H24283   8.428  10.639   9.078  2.1767 -0.6211  1.4994
  921MOL0     H24284   8.654  10.644   8.888  0.1489  1.1999 -1.0825
  921MOL0     H24285   8.635  10.750   9.031  1.8243 -0.0526 -0.4120
  921MOL0     H24286   8.660  10.390   8.914 -2.1281 -1.6236  0.9334
  921MOL0     H24287   8.813  10.159   9.173  0.9850 -1.5391 -0.6955
  921MOL0     H24288   8.760  10.185   8.996 -0.2326  1.0091  0.2074
  921MOL0     H24289   8.987  10.127   8.994  0.9751  0.4632  0.7947
  921MOL0     H24290   8.983  10.309   8.971 -1.0407  2.2523  1.9464
  921MOL0     H24291   9.028  10.150   9.231 -1.8875  1.1290  0.5156
  921MOL0     H24292   9.053  10.326   9.201  0.4488 -0.2465  0.9621
  921MOL0     H24293   9.230  10.250   9.019  0.2224  2.1473  0.1848
  921MOL0     H24294   9.221  10.097   9.121 -1.9122 -0.2219 -0.8395
  921MOL0     H24295   9.413  10.337   9.429 -0.2028  0.4176  0.9856
  921MOL0     H24296   9.652  10.280   9.479  1.1934 -0.1818 -0.2724
  921MOL0     H24297  10.007   9.970   9.035 -0.6089 -2.3811  0.9790
  921MOL0     H24298  10.233   9.939   8.997 -0.8744  0.1067 -0.5097
  921MOL0     H24299  10.559  10.031   9.270  3.0545 -1.3318  0.7736
  921MOL0     H24300  10.527   9.868   9.349  1.4540 -1.5667 -0.3481
  921MOL0     H24301  10.621   9.741   9.183  1.5861  0.3049  1.0389
  921MOL0     H24302  10.655   9.880   9.082  2.2024  0.4380  0.1068
  921MOL0     H24303  10.786   9.966   9.308  0.6043 -1.9233  0.5053
  921MOL0     H24304  10.794   9.795   9.340  4.6020  0.9596 -0.0222
  921MOL0     H24305  10.871   9.878   9.064  1.5649 -1.5876 -0.3097
  921MOL0     H24306  10.920   9.747   9.163 -2.6219 -0.7114 -1.1855
  921MOL0     H24307  11.069   9.892   9.300  1.0533 -4.0240 -1.5558
  921MOL0     H24308  11.000  10.032   9.212  1.1477  0.2806  0.6374
  921MOL0     H24309  11.144   9.806   9.081  0.0566  1.2462 -1.0958
  921MOL0     H24310  11.079   9.951   9.006 -0.9653  1.7863  0.3807
  921MOL0     H24311  11.285   9.990   9.240  1.0679 -2.7998  0.4097
  921MOL0     H24312  11.227  10.102   9.109 -0.6610  0.0961 -2.9151
  921MOL0     H24313  11.308   9.943   8.947 -1.9606 -1.6155  1.4973
  921MOL0     H24314  11.439  10.038   9.038  0.3470 -0.8606 -2.3065
  921MOL0     H24315  10.330  10.005   9.415  0.0972 -1.1163 -0.0636
  921MOL0     H24316  10.072  10.063   9.454 -0.6681 -1.3497  0.1662
  921MOL0     H24317   9.678  10.108   9.086 -0.3367  1.0273 -0.6778
  921MOL0     H24318   9.460  10.121   9.059  2.4802  2.1227 -1.8339
  921MOL0     H24319   7.567  10.573   8.970 -0.7453  0.2666 -0.8846
  921MOL0     H24320   7.332  10.578   8.942 -1.0440  0.1113  1.1641
  921MOL0     H24321   6.904  10.426   9.054  1.8609  1.1242 -3.2055
  921MOL0     H24322   6.667  10.428   9.027 -2.4810  1.0699 -1.7149
  921MOL0     H24323   6.458  10.457   9.049  1.2178  0.2495 -0.0409
  921MOL0     H24324   6.329  10.587   9.034 -0.2679  1.3648  0.3831
  921MOL0     H24325   6.498  10.575   9.284  1.0713 -2.3847 -0.7123
  921MOL0     H24326   6.368  10.453   9.263  1.7916 -0.6169 -0.5789
  921MOL0     H24327   6.301  10.752   9.211 -0.0548 -1.2120 -0.8623
  921MOL0     H24328   6.317  10.703   9.381  0.8740  2.4962 -1.2017
  921MOL0     H24329   6.130  10.603   9.154  0.3463  0.6534 -0.0104
  921MOL0     H24330   6.133  10.527   9.308 -0.5130 -0.2706 -0.9911
  921MOL0     H24331   5.896  10.872   9.372 -0.8483 -0.7577 -1.6514
  921MOL0     H24332   6.683  10.865   9.095  1.3616  0.6709  0.6496
  921MOL0     H24333   6.988  10.916   8.994  0.6106 -1.8429  0.1310
  921MOL0     H24334   6.865  10.982   9.101  0.5692  0.7140  0.7549
  921MOL0     H24335   7.003  10.899   9.171  1.4829 -0.0723 -1.1991
  922MOL0     O24336   4.264  11.003  10.173 -0.7646 -0.5138 -0.3068
  922MOL0     C24337   4.202  11.098  10.218 -0.7344 -0.7397  0.4215
  922MOL0     O24338   4.063  11.112  10.214  0.2090  0.0366 -0.2744
  922MOL0     C24339   3.998  11.009  10.158  0.2340  0.5881  1.2277
  922MOL0     C24340   3.947  11.027  10.029 -0.3177  0.4018  0.9459
  922MOL0     C24341   3.878  10.917   9.966 -0.4664 -0.1892  0.6487
  922MOL0     C24342   3.862  10.797  10.029  0.0441  1.1896 -0.3085
  922MOL0     O24343   3.804  10.683   9.978  0.3145 -0.0853  0.3934
  922MOL0     C24344   3.732  10.689   9.854  0.3417  1.2375 -0.5454
  922MOL0     C24345   3.592  10.744   9.890  0.3023 -0.1961 -0.3590
  922MOL0     C24346   3.475  10.738   9.786 -0.0344 -0.6641  0.4153
  922MOL0     C24347   3.372  10.623   9.806  0.2432 -0.7754  0.2080
  922MOL0     C24348   3.269  10.639   9.695  0.2350 -0.3282 -0.1425
  922MOL0     C24349   3.167  10.755   9.721  0.0658  0.3923  0.1461
  922MOL0     C24350   3.057  10.733   9.624  0.3178  0.4461  0.8255
  922MOL0     C24351   3.086  10.748   9.476  0.7927  0.8372  0.9219
  922MOL0     N24352   2.970  10.704   9.403  0.1338 -0.6006  0.1101
  922MOL0     C24353   2.869  10.779   9.346 -0.3081  0.9003 -1.2955
  922MOL0     C24354   2.798  10.697   9.266  0.1344  0.8206  0.3129
  922MOL0     C24355   2.687  10.757   9.186 -0.3003 -0.6139 -0.0989
  922MOL0     C24356   2.663  10.689   9.051  0.3871 -0.6261  0.5775
  922MOL0     C24357   2.768  10.747   8.952 -0.4145  0.6562  0.5607
  922MOL0     C24358   2.783  10.669   8.820  0.2469 -0.7919  0.0811
  922MOL0     O24359   2.893  10.708   8.730  0.3083  0.3734 -0.3068
  922MOL0     C24360   3.023  10.699   8.780 -0.7109 -0.4614  1.7622
  922MOL0     C24361   3.068  10.611   8.884  0.6167  0.1813  0.0790
  922MOL0     C24362   3.205  10.599   8.924 -0.2625 -1.2090 -0.1912
  922MOL0     C24363   3.298  10.669   8.855  0.1564 -0.7413 -0.7174
  922MOL0     C24364   3.431  10.644   8.908  0.3952 -0.4346  0.4225
  922MOL0     O24365   3.525  10.718   8.849 -0.2489 -0.5657 -0.6737
  922MOL0     C24366   3.659  10.713   8.876  0.7321  0.0299 -0.7778
  922MOL0     C24367   3.724  10.626   8.970  0.1183  0.4652  0.9996
  922MOL0     C24368   3.864  10.635   8.992  0.2650  0.2690 -0.1174
  922MOL0     C24369   3.942  10.725   8.925  0.3855 -0.2365 -0.3409
  922MOL0     O24370   4.068  10.745   8.964 -0.9282  0.8988 -0.2787
  922MOL0     C24371   4.093  10.747   9.108 -0.9801  0.5447  0.0597
  922MOL0     C24372   4.250  10.741   9.107  0.1371 -0.8043 -0.3456
  922MOL0     C24373   4.311  10.877   9.052 -0.9341  0.1873  0.4214
  922MOL0     C24374   4.456  10.852   9.017 -0.3683  0.2198 -0.5875
  922MOL0     C24375   4.510  10.982   8.948  0.5890  0.3913 -0.3110
  922MOL0     C24376   4.477  11.005   8.805  0.6855 -0.0444 -0.2345
  922MOL0     C24377   4.557  11.115   8.748 -0.2462 -0.0636 -0.3210
  922MOL0     C24378   4.509  11.163   8.603  0.6203 -0.2072 -0.1306
  922MOL0    Cl24379   4.594  11.311   8.566  0.2237  0.4624 -0.0139
  922MOL0     C24380   3.885  10.806   8.831  0.9927 -0.6049  0.6984
  922MOL0     C24381   3.742  10.805   8.809 -0.2536  0.2503  0.9608
  922MOL0     O24382   3.453  10.557   8.991  0.2116  0.3081  0.5290
  922MOL0     C24383   3.265  10.754   8.755  0.0822  0.4165  0.3835
  922MOL0     C24384   3.128  10.775   8.724 -0.1255  0.3793  0.1240
  922MOL0     N24385   2.855  10.571   9.283 -0.0534 -0.0359  0.1604
  922MOL0     N24386   2.963  10.576   9.351 -0.6295 -0.8411 -0.3111
  922MOL0     C24387   3.937  10.772  10.149 -0.1143 -0.0105 -0.0444
  922MOL0     C24388   3.999  10.879  10.208 -0.2426 -0.0182 -0.8142
  922MOL0     C24389   4.275  11.198  10.287  0.2163 -0.3102 -0.4487
  922MOL0     C24390   4.264  11.327  10.232  0.4106  0.1934 -0.1296
  922MOL0     C24391   4.333  11.434  10.293  0.1783  0.0205  0.6190
  922MOL0     C24392   4.414  11.413  10.403  0.1056  0.4759  0.1006
  922MOL0     O24393   4.481  11.510  10.467 -0.0568  0.0901  0.7663
  922MOL0     C24394   4.561  11.596  10.387  1.3912 -0.4916 -0.3322
  922MOL0     C24395   4.512  11.739  10.383 -0.6053 -0.4789 -0.6807
  922MOL0     C24396   4.593  11.835  10.308  0.7803 -0.5523 -0.0931
  922MOL0     C24397   4.522  11.972  10.321  0.3931  0.2234 -0.1278
  922MOL0     C24398   4.596  12.067  10.235 -0.4426  0.0177  0.2080
  922MOL0     C24399   4.660  12.148  10.173  0.5235  0.2792  0.1125
  922MOL0     C24400   4.429  11.284  10.455  0.2080 -0.1240  0.1013
  922MOL0     C24401   4.359  11.185  10.403  0.1779  0.5649  0.6135
  922MOL0     C24402   4.370  11.040  10.458 -0.3577 -0.8408  0.4158
  922MOL0     H24403   3.975  11.118   9.977 -0.1229 -0.7418 -1.0529
  922MOL0     H24404   3.845  10.917   9.862  1.5222 -1.7704 -0.0433
  922MOL0     H24405   3.786  10.734   9.771  0.5365  0.3279 -0.9280
  922MOL0     H24406   3.720  10.583   9.827 -2.2332  0.5641  2.6595
  922MOL0     H24407   3.618  10.848   9.910 -1.8795  0.2865  0.2975
  922MOL0     H24408   3.562  10.699   9.985  1.4092 -1.8019 -0.7242
  922MOL0     H24409   3.524  10.719   9.690  2.5985 -0.1892  1.5650
  922MOL0     H24410   3.419  10.832   9.786  3.3564  1.5265  1.0093
  922MOL0     H24411   3.425  10.529   9.783  0.8953 -0.6842  1.2696
  922MOL0     H24412   3.326  10.627   9.905 -1.2250  0.7433 -0.4916
  922MOL0     H24413   3.327  10.654   9.604  0.2392 -0.4443 -0.1585
  922MOL0     H24414   3.227  10.539   9.686  4.8408 -2.4902 -0.4506
  922MOL0     H24415   3.143  10.768   9.827 -0.5082  0.6262 -0.0106
  922MOL0     H24416   3.213  10.853   9.702 -2.8334  1.8006 -0.0997
  922MOL0     H24417   2.972  10.796   9.652  0.6484  0.2467  2.3753
  922MOL0     H24418   3.032  10.627   9.633 -1.0225  0.6907  0.2237
  922MOL0     H24419   3.101  10.854   9.451 -0.6061  0.9930  0.6665
  922MOL0     H24420   3.171  10.687   9.443 -2.2002 -2.1814 -1.8718
  922MOL0     H24421   2.860  10.887   9.345 -2.5947  0.7777 -0.8547
  922MOL0     H24422   2.601  10.757   9.254  0.3929 -0.7927  0.7912
  922MOL0     H24423   2.708  10.862   9.169  2.3376 -1.3334 -1.8442
  922MOL0     H24424   2.676  10.581   9.049 -1.1574 -1.0412 -5.8041
  922MOL0     H24425   2.561  10.709   9.016  1.1116  0.8485 -0.8084
  922MOL0     H24426   2.860  10.756   9.011 -0.7724  3.9041  0.8101
  922MOL0     H24427   2.744  10.851   8.927  0.6855  1.9581  4.2112
  922MOL0     H24428   2.687  10.672   8.767  0.1229 -0.0419  0.3277
  922MOL0     H24429   2.790  10.563   8.847  0.0768 -0.5230  1.2309
  922MOL0     H24430   2.997  10.544   8.932  1.0717  0.8294  1.6883
  922MOL0     H24431   3.229  10.529   9.003 -2.5378 -0.1830  1.5132
  922MOL0     H24432   3.675  10.545   9.024 -1.2439  0.5785 -0.0410
  922MOL0     H24433   3.908  10.561   9.057  1.3730 -0.1193 -1.2612
  922MOL0     H24434   4.054  10.840   9.150 -1.8824  1.0404 -1.7866
  922MOL0     H24435   4.050  10.662   9.163 -1.4449 -0.1040 -1.2683
  922MOL0     H24436   4.283  10.726   9.210 -0.3538  1.7266  0.2312
  922MOL0     H24437   4.288  10.657   9.048 -1.2518 -1.4497 -0.3417
  922MOL0     H24438   4.258  10.908   8.962  1.9228  0.4441 -1.2864
  922MOL0     H24439   4.305  10.952   9.131  1.0931 -0.4505  1.2541
  922MOL0     H24440   4.461  10.766   8.950 -0.9614 -0.1956 -0.1133
  922MOL0     H24441   4.507  10.840   9.114 -0.2868 -1.4975 -0.8173
  922MOL0     H24442   4.619  10.987   8.954  0.7182 -1.0946 -0.9516
  922MOL0     H24443   4.483  11.067   9.011  2.0902  0.5455  0.1762
  922MOL0     H24444   4.494  10.915   8.745  1.0038 -0.1643  0.0295
  922MOL0     H24445   4.370  11.021   8.796  0.1805 -3.3704 -1.7162
  922MOL0     H24446   4.661  11.079   8.743  0.2353  1.0117  1.2904
  922MOL0     H24447   4.559  11.198   8.819 -1.9118 -0.1924 -0.1054
  922MOL0     H24448   4.533  11.088   8.527 -0.4296 -0.2575 -0.4216
  922MOL0     H24449   4.400  11.171   8.605  0.6031 -0.5472  1.8799
  922MOL0     H24450   3.954  10.870   8.775  0.3002  0.2946  0.8537
  922MOL0     H24451   3.693  10.852   8.724 -0.2690 -1.6471 -0.1469
  922MOL0     H24452   3.334  10.806   8.689  0.3119  0.0461  0.3265
  922MOL0     H24453   3.096  10.837   8.642 -3.4319  0.6673  1.4451
  922MOL0     H24454   3.934  10.673  10.193  1.1650 -0.0014  0.0950
  922MOL0     H24455   4.058  10.863  10.297  1.7399  1.3383 -1.8131
  922MOL0     H24456   4.205  11.339  10.141  1.9885  0.7141 -1.1233
  922MOL0     H24457   4.316  11.533  10.251  2.4386  1.2994  2.4771
  922MOL0     H24458   4.572  11.563  10.283  1.6558  0.4688 -0.6172
  922MOL0     H24459   4.661  11.604  10.431  2.1281  0.3562 -2.0576
  922MOL0     H24460   4.501  11.774  10.486  0.5425  1.1841 -1.0727
  922MOL0     H24461   4.415  11.744  10.333 -1.7427 -1.0176  1.3460
  922MOL0     H24462   4.605  11.815  10.201 -0.3003  2.2544 -0.8186
  922MOL0     H24463   4.693  11.842  10.352  0.4377  1.1261  0.4926
  922MOL0     H24464   4.417  11.976  10.291  0.5221  2.5552 -0.4827
  922MOL0     H24465   4.512  12.019  10.419  2.2454  5.6939 -2.1639
  922MOL0     H24466   4.716  12.211  10.106  0.2835 -1.6091 -1.9674
  922MOL0     H24467   4.493  11.268  10.541 -3.2558 -0.1614  2.8528
  922MOL0     H24468   4.398  10.974  10.376  3.0611  0.9256 -0.0489
  922MOL0     H24469   4.437  11.030  10.545 -0.6396  0.5521  0.8330
  922MOL0     H24470   4.275  10.999  10.493 -1.1557 -1.5433 -2.4102
  923MOL0     O24471   8.410   0.882   9.432  0.3095 -0.9247 -0.5838
  923MOL0     C24472   8.339   0.822   9.518 -0.1109  0.0525 -0.4518
  923MOL0     O24473   8.387   0.731   9.617  0.2477  0.3319  0.5056
  923MOL0     C24474   8.516   0.746   9.664  0.9306  0.8551  0.6196
  923MOL0     C24475   8.612   0.647   9.617  0.4054 -0.7753 -0.0509
  923MOL0     C24476   8.743   0.652   9.659 -0.0671  0.2835 -0.4076
  923MOL0     C24477   8.786   0.751   9.748  0.2479 -0.0005 -0.0926
  923MOL0     O24478   8.913   0.770   9.796 -0.4385 -0.1189 -0.6155
  923MOL0     C24479   9.013   0.665   9.784 -0.3328 -0.3270  0.2898
  923MOL0     C24480   9.116   0.698   9.899  0.5521 -0.1575 -0.2797
  923MOL0     C24481   9.233   0.606   9.889  0.3818 -0.4100  1.3019
  923MOL0     C24482   9.336   0.651   9.781 -0.4498  0.0004  0.2293
  923MOL0     C24483   9.465   0.571   9.795 -0.0418 -0.4124 -0.6556
  923MOL0     C24484   9.564   0.596   9.679 -0.1698  0.1662 -0.2125
  923MOL0     C24485   9.672   0.484   9.676  0.2178 -0.0681 -0.1753
  923MOL0     C24486   9.781   0.530   9.585  0.5803 -0.4263  0.1327
  923MOL0     N24487   9.898   0.442   9.590 -0.0519 -1.3341  0.1119
  923MOL0     C24488   9.915   0.319   9.538 -0.0924  0.1799 -0.3581
  923MOL0     C24489  10.037   0.277   9.574  0.0563 -0.0785  0.3791
  923MOL0     C24490  10.091   0.141   9.540 -1.0666 -0.0836 -1.0182
  923MOL0     C24491  10.241   0.134   9.534  0.1110  0.4593  0.0710
  923MOL0     C24492  10.315   0.144   9.664  0.1674 -0.0358 -0.2135
  923MOL0     C24493  10.458   0.089   9.653  0.7243 -0.1852 -0.4458
  923MOL0     O24494  10.522   0.197   9.586  0.8166  0.0365 -0.3715
  923MOL0     C24495  10.658   0.184   9.575 -0.2069  0.8995 -0.1744
  923MOL0     C24496  10.718   0.054   9.563 -0.0428 -0.2463  0.4097
  923MOL0     C24497  10.863   0.043   9.559 -0.2458  0.3393 -0.3199
  923MOL0     C24498  10.945   0.162   9.565 -0.5297 -0.2003  0.3199
  923MOL0     C24499  11.095   0.152   9.573 -0.6121 -0.4168 -0.4553
  923MOL0     O24500  11.148   0.040   9.527 -0.2592  0.4600 -0.2196
  923MOL0     C24501  11.292   0.029   9.520 -0.0256  0.4159 -0.5151
  923MOL0     C24502  11.356  -0.001   9.400 -0.4495 -0.1877  0.2499
  923MOL0     C24503  11.499  -0.011   9.395  0.2968  0.7672  0.7665
  923MOL0     C24504  11.575  -0.009   9.510 -0.4831  0.2654 -0.1337
  923MOL0     O24505  11.717  -0.016   9.508 -0.0573 -0.3885  0.5174
  923MOL0     C24506  11.788   0.024   9.385 -0.4418  0.5098 -0.3280
  923MOL0     C24507  11.937  -0.007   9.405 -0.6341 -0.0179  0.1755
  923MOL0     C24508  11.981  -0.153   9.417  0.2557  0.5936 -0.7532
  923MOL0     C24509  11.949  -0.237   9.293  0.5132  0.1101  0.5083
  923MOL0     C24510  12.034  -0.200   9.170 -0.2476  0.0634 -0.7028
  923MOL0     C24511  11.989  -0.295   9.066 -0.8063  0.4878  0.4879
  923MOL0     C24512  12.098  -0.296   8.955 -1.0924 -0.2745  0.6651
  923MOL0     C24513  12.069  -0.406   8.853 -0.1754  0.2382 -0.2868
  923MOL0    Cl24514  12.172  -0.380   8.709 -0.1032  0.6552  0.3828
  923MOL0     C24515  11.509   0.015   9.634 -0.0911  1.6955 -0.2977
  923MOL0     C24516  11.367   0.023   9.638 -1.0512 -0.1655  0.0064
  923MOL0     O24517  11.155   0.244   9.630 -0.2495  1.0125  0.4284
  923MOL0     C24518  10.881   0.286   9.556 -0.9241 -0.8601 -0.7223
  923MOL0     C24519  10.739   0.294   9.567 -0.0680  0.1920  0.4057
  923MOL0     N24520  10.100   0.374   9.647 -0.3501 -0.4894  1.0462
  923MOL0     N24521  10.012   0.462   9.665 -0.4122  0.3528 -0.2083
  923MOL0     C24522   8.687   0.847   9.778 -0.0729  0.2760 -0.5601
  923MOL0     C24523   8.553   0.844   9.750 -0.9577 -0.0345  0.2382
  923MOL0     C24524   8.189   0.842   9.520 -0.2104  0.0592  0.5404
  923MOL0     C24525   8.131   0.897   9.636  0.1714  0.7896 -0.0507
  923MOL0     C24526   7.994   0.903   9.648  0.4065 -0.6565 -0.4127
  923MOL0     C24527   7.913   0.874   9.542  0.2687  0.2447  0.8296
  923MOL0     O24528   7.784   0.858   9.533 -0.1057  0.6199 -0.0252
  923MOL0     C24529   7.703   0.971   9.571 -0.0473 -1.0662  0.5314
  923MOL0     C24530   7.641   0.949   9.702  1.2539 -0.3201 -0.0630
  923MOL0     C24531   7.517   1.033   9.714 -0.3948 -0.5956  0.1524
  923MOL0     C24532   7.545   1.185   9.744 -0.0358 -0.4138  0.0975
  923MOL0     C24533   7.604   1.252   9.636 -0.0330  0.1717 -0.1293
  923MOL0     C24534   7.631   1.316   9.537  0.0114  0.1540 -0.0376
  923MOL0     C24535   7.969   0.831   9.422 -1.1459 -0.0929 -0.1395
  923MOL0     C24536   8.112   0.824   9.407  0.0903  0.9975 -0.2235
  923MOL0     C24537   8.183   0.767   9.278  0.6407  0.3563 -0.1138
  923MOL0     H24538   8.602   0.579   9.533  0.7107  1.9444 -2.4450
  923MOL0     H24539   8.816   0.592   9.605  1.3500  2.2999 -0.8389
  923MOL0     H24540   8.981   0.563   9.807  0.3500 -0.1668  2.1191
  923MOL0     H24541   9.052   0.663   9.682 -0.6794 -2.1561  0.1585
  923MOL0     H24542   9.065   0.682   9.994 -4.5722  1.1250 -2.4796
  923MOL0     H24543   9.156   0.800   9.888 -1.5104  0.5659 -1.6089
  923MOL0     H24544   9.201   0.508   9.852  1.5479  0.3436 -2.0126
  923MOL0     H24545   9.287   0.599   9.985  2.2848 -1.0545  0.2513
  923MOL0     H24546   9.296   0.649   9.679  1.2813 -0.0867 -0.4898
  923MOL0     H24547   9.368   0.755   9.796 -0.1829 -0.2036  1.1645
  923MOL0     H24548   9.500   0.596   9.896 -4.0584 -0.3423  0.9118
  923MOL0     H24549   9.447   0.463   9.792 -1.7056 -0.2360  0.8960
  923MOL0     H24550   9.513   0.590   9.583  1.2200  3.9811 -1.3850
  923MOL0     H24551   9.606   0.696   9.691  0.1325 -0.0056  0.1752
  923MOL0     H24552   9.624   0.393   9.639 -0.2263 -0.4256  1.2333
  923MOL0     H24553   9.701   0.462   9.779  0.2079  0.5250 -0.0398
  923MOL0     H24554   9.761   0.539   9.478  3.4939 -1.7226 -0.6233
  923MOL0     H24555   9.812   0.629   9.620  1.1474 -0.3383 -0.5882
  923MOL0     H24556   9.836   0.260   9.493 -2.9965  3.8914 -0.5785
  923MOL0     H24557  10.053   0.065   9.608  0.3385 -0.4699 -0.6371
  923MOL0     H24558  10.072   0.111   9.436 -0.6612 -0.7735 -0.8948
  923MOL0     H24559  10.247   0.027   9.513  2.7399  0.2535  1.4131
  923MOL0     H24560  10.280   0.203   9.459  0.4430  1.6918  1.3350
  923MOL0     H24561  10.257   0.095   9.742 -0.4142 -2.3494 -1.9701
  923MOL0     H24562  10.322   0.249   9.694 -1.0297  0.1293 -0.4641
  923MOL0     H24563  10.444  -0.010   9.610 -1.8133 -0.5585  1.0115
  923MOL0     H24564  10.507   0.062   9.747 -3.2554 -3.2496  1.0255
  923MOL0     H24565  10.671  -0.044   9.559  0.9061 -0.6860 -1.4378
  923MOL0     H24566  10.918  -0.050   9.575  0.2246  0.9485  1.9633
  923MOL0     H24567  11.304   0.003   9.305 -0.4936  3.0191  0.3211
  923MOL0     H24568  11.541  -0.012   9.295 -1.8507 -0.3867 -0.2105
  923MOL0     H24569  11.755  -0.033   9.298 -1.5436  0.8566 -0.1430
  923MOL0     H24570  11.792   0.132   9.370  1.5604  0.8252  1.8252
  923MOL0     H24571  11.992   0.028   9.317  1.0042  1.3141  1.6558
  923MOL0     H24572  11.959   0.051   9.495 -0.7087  0.0594  0.1447
  923MOL0     H24573  12.087  -0.151   9.444 -0.3165  0.1794  1.7525
  923MOL0     H24574  11.934  -0.186   9.509  1.0246  1.9945  0.1829
  923MOL0     H24575  11.841  -0.244   9.273  1.1801 -2.2082 -3.5314
  923MOL0     H24576  11.985  -0.335   9.326  1.9185 -0.1664 -1.6418
  923MOL0     H24577  12.140  -0.201   9.195 -0.4447 -0.3529  0.1945
  923MOL0     H24578  12.007  -0.098   9.141  3.5299  0.6991 -2.6087
  923MOL0     H24579  11.975  -0.399   9.098  2.2660  0.2895  1.5155
  923MOL0     H24580  11.896  -0.256   9.023 -0.1648  1.1036 -0.3676
  923MOL0     H24581  12.193  -0.325   8.999 -1.5844 -1.5193  0.9300
  923MOL0     H24582  12.115  -0.194   8.920 -1.8707 -0.3096  0.1654
  923MOL0     H24583  12.081  -0.505   8.899 -2.0562 -0.5233 -1.3015
  923MOL0     H24584  11.965  -0.403   8.820  0.2112 -0.4067 -1.6660
  923MOL0     H24585  11.565   0.020   9.727 -0.0679 -0.6346 -0.1249
  923MOL0     H24586  11.320   0.024   9.736 -2.4941  0.3281 -0.6784
  923MOL0     H24587  10.922   0.386   9.556  0.1054 -1.2013  1.7717
  923MOL0     H24588  10.700   0.396   9.568  0.2983  0.3385  1.1992
  923MOL0     H24589   8.720   0.932   9.837 -0.8656  0.0759  0.2039
  923MOL0     H24590   8.479   0.921   9.772 -0.6845  0.3492 -0.1630
  923MOL0     H24591   8.193   0.903   9.724 -2.7887 -1.2007  2.4019
  923MOL0     H24592   7.948   0.910   9.746 -1.3486 -1.6230 -1.1313
  923MOL0     H24593   7.632   0.982   9.489  1.1782  3.3243 -0.2125
  923MOL0     H24594   7.766   1.061   9.575 -2.1745  0.4511  2.3217
  923MOL0     H24595   7.715   0.949   9.783  0.2401  0.3836  0.8906
  923MOL0     H24596   7.592   0.852   9.703 -1.0468  0.7150 -2.1573
  923MOL0     H24597   7.456   0.987   9.792  0.6004 -1.6643  0.3311
  923MOL0     H24598   7.456   1.036   9.623  1.7616  2.0247 -1.3650
  923MOL0     H24599   7.451   1.237   9.768 -1.0595 -2.5225  0.8974
  923MOL0     H24600   7.603   1.174   9.836  0.2625  0.6777  0.0498
  923MOL0     H24601   7.656   1.377   9.452  1.0280 -3.0601 -2.2483
  923MOL0     H24602   7.911   0.801   9.335  0.7774  0.9470 -1.8710
  923MOL0     H24603   8.233   0.673   9.305  1.2947  0.0089 -2.3670
  923MOL0     H24604   8.117   0.764   9.191  1.3161 -2.5722 -0.6238
  923MOL0     H24605   8.254   0.844   9.247  0.9628  0.9323  1.9134
  924MOL0     O24606   4.173   8.370  11.313  0.0700  0.0992  0.3398
  924MOL0     C24607   4.147   8.420  11.209  0.6188  0.0325  1.0253
  924MOL0     O24608   4.223   8.516  11.153  0.7412 -0.5382 -0.1813
  924MOL0     C24609   4.355   8.524  11.182 -0.2301 -0.9325 -0.0932
  924MOL0     C24610   4.407   8.632  11.248  0.2227 -1.0590 -0.2406
  924MOL0     C24611   4.543   8.648  11.276  0.5032  0.2181  0.3231
  924MOL0     C24612   4.626   8.539  11.246  0.0976 -0.3085 -0.1760
  924MOL0     O24613   4.764   8.552  11.262  0.5188  0.1404  0.1869
  924MOL0     C24614   4.845   8.578  11.143  0.2386  0.4137 -0.4761
  924MOL0     C24615   4.909   8.715  11.151  0.8575  0.4864  0.5139
  924MOL0     C24616   4.973   8.739  11.289  0.2517  0.2669 -0.3177
  924MOL0     C24617   5.083   8.630  11.314  0.0321 -0.2162 -0.5423
  924MOL0     C24618   5.169   8.681  11.429 -0.2136  0.0459  1.0710
  924MOL0     C24619   5.282   8.580  11.458 -0.0842 -0.3936 -0.0394
  924MOL0     C24620   5.383   8.644  11.559  0.3127  0.7314 -0.7049
  924MOL0     C24621   5.464   8.538  11.641  0.1568  0.2326 -0.1931
  924MOL0     N24622   5.565   8.477  11.551 -0.1578 -0.0198 -1.2536
  924MOL0     C24623   5.552   8.363  11.482  0.6760  0.3287 -0.8493
  924MOL0     C24624   5.657   8.365  11.392  0.9610  0.4738 -0.0942
  924MOL0     C24625   5.682   8.264  11.281  0.2504  0.1121  0.2102
  924MOL0     C24626   5.569   8.281  11.179 -0.0890  0.0121  0.1385
  924MOL0     C24627   5.581   8.206  11.048  0.9521 -0.5094 -0.1101
  924MOL0     C24628   5.697   8.257  10.958  0.2384  0.5158  0.3560
  924MOL0     O24629   5.723   8.391  10.976  0.5773 -0.1458  0.0720
  924MOL0     C24630   5.840   8.447  10.950 -0.1573  0.2377 -0.2867
  924MOL0     C24631   5.930   8.409  10.856  0.2943 -0.8967  0.5626
  924MOL0     C24632   6.041   8.484  10.818  0.7335  0.3397 -0.6443
  924MOL0     C24633   6.072   8.596  10.901 -0.2956 -0.2184  0.4984
  924MOL0     C24634   6.205   8.668  10.884  0.2021  0.4490  0.7222
  924MOL0     O24635   6.284   8.630  10.768  0.0825 -0.5871  0.0599
  924MOL0     C24636   6.395   8.706  10.733 -0.1921 -0.0239 -0.2646
  924MOL0     C24637   6.472   8.777  10.824 -0.4683  0.0508  1.1612
  924MOL0     C24638   6.581   8.847  10.772  0.0773 -0.0073 -0.3613
  924MOL0     C24639   6.593   8.871  10.635  0.6405  1.0675  0.0556
  924MOL0     O24640   6.673   8.967  10.591  0.2484 -0.4410  0.0045
  924MOL0     C24641   6.778   9.020  10.680 -0.1403  0.1834  0.9210
  924MOL0     C24642   6.878   9.109  10.606 -1.2329 -0.7913  0.2771
  924MOL0     C24643   6.956   9.191  10.717  0.2175 -0.5099 -0.2779
  924MOL0     C24644   7.035   9.308  10.661 -0.1626 -0.8650 -0.2667
  924MOL0     C24645   7.111   9.391  10.758 -0.8640 -0.8552  0.7220
  924MOL0     C24646   7.220   9.466  10.688  0.4055 -0.0670  0.3210
  924MOL0     C24647   7.346   9.384  10.683 -0.4512  0.0323 -0.2948
  924MOL0     C24648   7.465   9.478  10.664 -0.1031  0.0631  0.1751
  924MOL0    Cl24649   7.613   9.377  10.699  0.0786  0.0898  0.7463
  924MOL0     C24650   6.505   8.800  10.548  0.4104 -0.7734  0.0349
  924MOL0     C24651   6.418   8.713  10.601 -0.5373 -0.2617  0.5229
  924MOL0     O24652   6.238   8.762  10.958  0.0051 -0.3199 -0.4134
  924MOL0     C24653   5.989   8.633  11.006 -0.1948 -0.0899  0.8214
  924MOL0     C24654   5.872   8.564  11.025  0.7705  0.2103  0.4422
  924MOL0     N24655   5.739   8.473  11.432 -0.3398 -0.4310  0.4846
  924MOL0     N24656   5.692   8.527  11.534  0.2141 -0.3343  0.7183
  924MOL0     C24657   4.577   8.421  11.191 -0.6847  0.0224  0.1981
  924MOL0     C24658   4.445   8.420  11.149  0.3015  0.5028 -0.2525
  924MOL0     C24659   4.024   8.387  11.133 -0.4026  0.8442 -1.0608
  924MOL0     C24660   4.003   8.423  11.000  0.1679  0.6548  0.7651
  924MOL0     C24661   3.897   8.380  10.927 -1.1996  0.8333  0.6314
  924MOL0     C24662   3.795   8.319  10.984  0.3944  0.7769 -0.7191
  924MOL0     O24663   3.683   8.296  10.908  0.3223 -0.3800  0.0429
  924MOL0     C24664   3.541   8.301  10.961 -0.0057  0.5470  0.2959
  924MOL0     C24665   3.483   8.163  10.988  0.3686 -0.2017 -0.4611
  924MOL0     C24666   3.331   8.176  11.014 -0.1991 -0.3958  0.3137
  924MOL0     C24667   3.269   8.038  11.039 -0.0088 -0.2790 -0.2129
  924MOL0     C24668   3.123   8.039  11.057 -0.2476 -1.3980 -0.3154
  924MOL0     C24669   3.002   8.046  11.063 -0.0960 -0.1979 -0.2179
  924MOL0     C24670   3.800   8.295  11.123 -0.3791 -1.0127 -0.4148
  924MOL0     C24671   3.911   8.329  11.198  0.3425 -0.4907  0.0310
  924MOL0     C24672   3.903   8.296  11.350  0.1705  0.0666 -0.4472
  924MOL0     H24673   4.348   8.709  11.297  1.8626  0.2610 -0.2740
  924MOL0     H24674   4.583   8.743  11.310 -1.6832  1.3243 -0.0524
  924MOL0     H24675   4.929   8.509  11.142  0.1478  0.0631  2.8186
  924MOL0     H24676   4.787   8.567  11.051 -2.4342  0.6560  1.0557
  924MOL0     H24677   4.835   8.792  11.126  0.9248  0.7118  0.9950
  924MOL0     H24678   4.984   8.721  11.072  1.7410  1.4798  1.3997
  924MOL0     H24679   4.901   8.750  11.370  2.2204 -2.4143  1.9658
  924MOL0     H24680   5.020   8.837  11.282  2.0509 -0.5327 -0.0493
  924MOL0     H24681   5.038   8.535  11.345  1.5717 -1.8500 -2.9608
  924MOL0     H24682   5.139   8.593  11.228 -2.8178 -0.2239 -2.5287
  924MOL0     H24683   5.212   8.776  11.398  1.3247 -0.9114  0.1237
  924MOL0     H24684   5.099   8.705  11.509 -2.1661  2.4466 -1.1774
  924MOL0     H24685   5.240   8.484  11.490  0.8290 -1.9511 -3.1059
  924MOL0     H24686   5.330   8.555  11.363 -1.4170 -3.1110 -0.0918
  924MOL0     H24687   5.322   8.699  11.632 -1.9495 -1.2336 -0.9830
  924MOL0     H24688   5.458   8.705  11.509  1.5039  0.8616  1.1388
  924MOL0     H24689   5.503   8.583  11.733 -0.4261  1.4215 -0.5043
  924MOL0     H24690   5.395   8.456  11.665 -2.1464  1.4868 -2.1501
  924MOL0     H24691   5.470   8.292  11.490  0.1081  1.1551  1.3893
  924MOL0     H24692   5.775   8.291  11.231 -1.0379  1.5787 -1.5092
  924MOL0     H24693   5.679   8.162  11.320 -1.2696  0.0806  0.0581
  924MOL0     H24694   5.485   8.223  11.219  0.4380 -0.7851  0.1012
  924MOL0     H24695   5.528   8.382  11.166  0.7940  0.2564 -0.9376
  924MOL0     H24696   5.482   8.223  11.005  1.7200  3.9028 -0.5776
  924MOL0     H24697   5.589   8.100  11.072  0.5674 -0.3178  0.9525
  924MOL0     H24698   5.662   8.242  10.856 -0.4079 -1.2421  0.8020
  924MOL0     H24699   5.794   8.209  10.976  0.1554 -0.3252 -1.2986
  924MOL0     H24700   5.904   8.321  10.798 -0.1705  0.5892 -1.5879
  924MOL0     H24701   6.106   8.435  10.747 -1.4844 -4.9731  0.4563
  924MOL0     H24702   6.458   8.755  10.930 -0.2072  0.1728  1.2214
  924MOL0     H24703   6.645   8.889  10.849 -1.9956  0.3772  1.2552
  924MOL0     H24704   6.726   9.092  10.744  1.4262  2.2923 -0.0579
  924MOL0     H24705   6.837   8.954  10.745  1.5268  0.9647  0.2696
  924MOL0     H24706   6.947   9.043  10.553 -2.2411 -1.6416 -0.0225
  924MOL0     H24707   6.846   9.177  10.527 -0.6962 -1.9133 -0.9569
  924MOL0     H24708   6.891   9.239  10.791  3.0585  3.3355  0.0555
  924MOL0     H24709   7.024   9.123  10.770  0.5358  1.2727  1.7219
  924MOL0     H24710   6.958   9.371  10.615 -0.6982 -2.0464 -1.0207
  924MOL0     H24711   7.101   9.287  10.577  1.0804  0.2326  0.3940
  924MOL0     H24712   7.166   9.334  10.833  3.2223  1.2701 -0.3706
  924MOL0     H24713   7.045   9.456  10.817 -0.1350  0.6786 -0.1093
  924MOL0     H24714   7.184   9.489  10.587  0.0808  1.8597  0.8240
  924MOL0     H24715   7.246   9.561  10.737  4.1579 -0.4621 -0.5468
  924MOL0     H24716   7.349   9.312  10.601  3.9003 -0.3696  0.0012
  924MOL0     H24717   7.358   9.332  10.779 -0.8937  0.0386 -0.2321
  924MOL0     H24718   7.463   9.513  10.560 -2.4609 -1.2277 -0.2903
  924MOL0     H24719   7.470   9.567  10.728 -0.3765  0.6415 -0.5935
  924MOL0     H24720   6.501   8.801  10.439 -0.8720 -1.8495  0.0436
  924MOL0     H24721   6.354   8.654  10.536  1.1734  0.6028 -2.0945
  924MOL0     H24722   6.019   8.714  11.071  2.4489 -3.5203  4.4212
  924MOL0     H24723   5.808   8.582  11.111  0.7084 -1.7759  0.8625
  924MOL0     H24724   4.649   8.344  11.166  0.2041  1.0561 -0.4606
  924MOL0     H24725   4.405   8.333  11.098  0.0427 -0.8825  2.1897
  924MOL0     H24726   4.079   8.489  10.957  0.5114 -0.1385  0.1323
  924MOL0     H24727   3.894   8.400  10.820  2.9748  0.8450  0.3659
  924MOL0     H24728   3.475   8.343  10.886 -1.2602 -2.3940 -0.3859
  924MOL0     H24729   3.527   8.349  11.058  2.8648  0.3326  0.9227
  924MOL0     H24730   3.531   8.129  11.081 -0.4129 -2.1083 -0.7167
  924MOL0     H24731   3.509   8.092  10.909 -0.3003  1.7991 -2.5601
  924MOL0     H24732   3.282   8.225  10.930  0.0114 -1.6507 -0.5558
  924MOL0     H24733   3.320   8.234  11.107 -2.6715  0.4776 -0.4561
  924MOL0     H24734   3.303   7.964  10.966 -0.1541 -0.6248  0.0671
  924MOL0     H24735   3.324   8.016  11.131  0.6423  3.4063  0.4330
  924MOL0     H24736   2.896   8.054  11.073 -0.2455 -0.8132 -1.2557
  924MOL0     H24737   3.725   8.243  11.181 -0.8710 -1.3635 -1.3449
  924MOL0     H24738   3.891   8.389  11.407  0.1911 -0.6235  0.7264
  924MOL0     H24739   3.817   8.232  11.373  0.7443 -0.8232 -0.6878
  924MOL0     H24740   3.989   8.242  11.390 -1.4435 -1.2157  1.5215
  925MOL0     O24741  10.543   8.882   7.436 -0.4311 -0.0203 -0.6157
  925MOL0     C24742  10.479   8.808   7.360  0.2138 -0.4186 -0.1197
  925MOL0     O24743  10.528   8.691   7.301  0.3213  0.4773  0.9864
  925MOL0     C24744  10.663   8.678   7.293 -0.8722  0.0882 -0.9815
  925MOL0     C24745  10.713   8.550   7.328 -1.2807  0.0248  0.3578
  925MOL0     C24746  10.847   8.523   7.333  0.2126  0.3387  0.5444
  925MOL0     C24747  10.939   8.621   7.298 -0.1543 -0.1973 -0.4574
  925MOL0     O24748  11.068   8.584   7.298 -0.3830 -0.1197 -0.5597
  925MOL0     C24749  11.162   8.681   7.330  0.5330 -0.6994 -0.0016
  925MOL0     C24750  11.289   8.610   7.350 -0.4839  0.7781 -0.1536
  925MOL0     C24751  11.413   8.695   7.367  0.5242 -0.8723  0.1441
  925MOL0     C24752  11.415   8.791   7.481 -0.4989  0.2721 -0.7271
  925MOL0     C24753  11.566   8.827   7.510  0.8237 -0.4686  0.4691
  925MOL0     C24754  11.569   8.922   7.635  0.5898 -0.1370  0.3080
  925MOL0     C24755  11.704   8.962   7.695 -0.2506  0.3193  0.2003
  925MOL0     C24756  11.702   8.987   7.845  0.4527  0.1699 -0.6409
  925MOL0     N24757  11.840   9.001   7.889  0.2447  1.0852 -0.4423
  925MOL0     C24758  11.912   9.114   7.882 -0.4187 -0.4674 -0.3746
  925MOL0     C24759  12.029   9.074   7.935  0.1849 -0.5815 -0.2241
  925MOL0     C24760  12.149   9.165   7.931 -0.2965 -0.1625  0.4569
  925MOL0     C24761  12.248   9.112   7.828 -0.4040 -0.3053 -0.0131
  925MOL0     C24762  12.353   9.218   7.797  0.6019  0.8863  0.1778
  925MOL0     C24763  12.433   9.171   7.674  0.1801  0.0846  0.4089
  925MOL0     O24764  12.525   9.080   7.719  0.1620 -0.7524  0.2065
  925MOL0     C24765  12.626   9.057   7.629 -0.4098  0.2144  0.1768
  925MOL0     C24766  12.621   9.022   7.496  0.6383 -0.1989  0.0131
  925MOL0     C24767  12.723   8.986   7.410 -0.2348 -0.0037 -0.2024
  925MOL0     C24768  12.840   8.957   7.473  0.7334 -0.2981  0.8021
  925MOL0     C24769  12.959   8.912   7.398  0.5268  0.1498 -0.1474
  925MOL0     O24770  13.087   8.949   7.442  0.0934 -0.3488 -0.4775
  925MOL0     C24771  13.209   8.928   7.381  0.2537 -0.4749 -0.9708
  925MOL0     C24772  13.331   8.955   7.452  0.3595  0.2334 -0.2703
  925MOL0     C24773  13.462   8.934   7.400  0.8628  0.2226  0.2836
  925MOL0     C24774  13.474   8.900   7.264 -0.5256  0.8277 -1.3029
  925MOL0     O24775  13.594   8.877   7.200 -0.4293  0.1196 -0.2377
  925MOL0     C24776  13.713   8.947   7.249 -0.1585  0.3411  0.0246
  925MOL0     C24777  13.714   9.099   7.223  0.8525 -0.4194  0.0416
  925MOL0     C24778  13.808   9.179   7.312 -0.2075  0.2522  0.5016
  925MOL0     C24779  13.946   9.153   7.266 -0.1399 -0.5061 -0.4627
  925MOL0     C24780  14.017   9.244   7.368 -0.2867  0.7663  0.0145
  925MOL0     C24781  14.165   9.258   7.326  0.1951  0.3566 -0.1113
  925MOL0     C24782  14.264   9.247   7.444  0.0902  0.2989  0.5486
  925MOL0     C24783  14.403   9.287   7.391 -0.2952 -0.5183  0.4990
  925MOL0    Cl24784  14.513   9.276   7.528  0.3244 -0.0027 -0.3935
  925MOL0     C24785  13.360   8.883   7.190  1.2664  0.6600 -0.4434
  925MOL0     C24786  13.232   8.889   7.250  1.1879 -0.2844  0.6203
  925MOL0     O24787  12.942   8.834   7.302 -0.3285 -0.3026 -0.5724
  925MOL0     C24788  12.857   8.992   7.611 -0.3825  0.5791  0.1741
  925MOL0     C24789  12.753   9.050   7.678  0.0348  1.1841  0.1844
  925MOL0     N24790  12.033   8.940   7.980 -0.3346  0.9235 -0.3308
  925MOL0     N24791  11.921   8.894   7.935 -0.4094 -0.7222  0.4579
  925MOL0     C24792  10.894   8.741   7.246 -0.1276 -0.3569  1.5151
  925MOL0     C24793  10.755   8.774   7.248  0.1224 -0.4187 -0.2944
  925MOL0     C24794  10.329   8.838   7.347  0.6798  0.7218 -0.6967
  925MOL0     C24795  10.264   8.776   7.242  0.7884 -0.1649 -0.2379
  925MOL0     C24796  10.124   8.792   7.215  0.4940 -0.5873 -0.3776
  925MOL0     C24797  10.048   8.867   7.306 -0.8712  0.2894  0.0911
  925MOL0     O24798   9.918   8.890   7.274  0.3766 -0.2804 -0.3646
  925MOL0     C24799   9.817   8.879   7.373  0.3350  0.3929  0.2075
  925MOL0     C24800   9.731   8.751   7.356  0.1551  0.6319  0.6255
  925MOL0     C24801   9.797   8.625   7.403  0.4229  0.6869 -0.2938
  925MOL0     C24802   9.717   8.499   7.364  0.6215 -0.4050 -0.4531
  925MOL0     C24803   9.769   8.369   7.417  0.4870  0.0110  1.0859
  925MOL0     C24804   9.808   8.260   7.457 -0.2574 -0.2003  0.6010
  925MOL0     C24805  10.107   8.928   7.413 -0.3889 -0.0231  0.6266
  925MOL0     C24806  10.247   8.917   7.432  0.9602 -0.5459 -1.3214
  925MOL0     C24807  10.304   8.992   7.548 -0.5843  0.6338  0.0952
  925MOL0     H24808  10.639   8.471   7.337 -1.1184 -0.3392 -1.3046
  925MOL0     H24809  10.876   8.420   7.351 -1.3235 -0.1182  0.5337
  925MOL0     H24810  11.160   8.746   7.242 -3.1232  0.4332  0.7279
  925MOL0     H24811  11.126   8.746   7.411 -1.1070 -0.3567 -0.9665
  925MOL0     H24812  11.297   8.549   7.260 -1.9045 -2.0860  1.5041
  925MOL0     H24813  11.283   8.543   7.436  2.4433  1.2165  0.5169
  925MOL0     H24814  11.417   8.774   7.291 -2.9245  0.7135  1.4242
  925MOL0     H24815  11.499   8.632   7.340  0.8795  0.1689 -1.2834
  925MOL0     H24816  11.360   8.882   7.454 -0.1058  0.1308 -2.0842
  925MOL0     H24817  11.367   8.745   7.568  0.1260  2.1071  0.6443
  925MOL0     H24818  11.626   8.736   7.521 -1.6736 -2.4467 -0.8625
  925MOL0     H24819  11.601   8.865   7.414 -1.3402  0.2576 -0.1024
  925MOL0     H24820  11.519   9.019   7.622 -1.0153 -1.0371 -0.6021
  925MOL0     H24821  11.517   8.874   7.718  0.9512  0.3027  0.7937
  925MOL0     H24822  11.725   9.058   7.649  1.8025  0.6130  1.5863
  925MOL0     H24823  11.778   8.891   7.657 -0.7238 -0.9438  1.5371
  925MOL0     H24824  11.640   9.070   7.879  0.5391  0.3733 -0.9761
  925MOL0     H24825  11.656   8.901   7.895  0.4706  0.8757  0.6231
  925MOL0     H24826  11.894   9.209   7.832 -1.4256 -0.7103 -0.4875
  925MOL0     H24827  12.113   9.266   7.906 -3.1830 -0.7086  1.9263
  925MOL0     H24828  12.196   9.168   8.030  0.2544 -2.8073  0.3579
  925MOL0     H24829  12.307   9.026   7.862  0.9293 -0.0135 -1.4621
  925MOL0     H24830  12.199   9.077   7.737  1.8936 -1.4395 -0.9021
  925MOL0     H24831  12.417   9.239   7.883  0.2659 -0.8499  0.8840
  925MOL0     H24832  12.301   9.309   7.767  0.6711  1.5441  1.9145
  925MOL0     H24833  12.484   9.259   7.634  0.8418  0.7417  2.5773
  925MOL0     H24834  12.365   9.139   7.594  1.1835  1.1718 -0.9296
  925MOL0     H24835  12.521   9.046   7.462  0.3602  2.1267  2.2150
  925MOL0     H24836  12.710   8.982   7.302  0.5732 -0.5573 -0.2885
  925MOL0     H24837  13.333   8.995   7.553 -0.0734 -1.8388  0.5994
  925MOL0     H24838  13.549   8.957   7.462  0.6931  0.3685  0.4700
  925MOL0     H24839  13.724   8.919   7.354  0.7722 -0.9606 -0.3943
  925MOL0     H24840  13.800   8.914   7.192 -0.4143 -0.8802  0.3088
  925MOL0     H24841  13.736   9.111   7.117  1.0043 -1.6465 -0.0870
  925MOL0     H24842  13.614   9.133   7.254  1.3038  0.2772  0.7588
  925MOL0     H24843  13.782   9.285   7.309 -3.0860 -0.3737  0.1070
  925MOL0     H24844  13.797   9.157   7.419 -1.6221  1.6608  0.6922
  925MOL0     H24845  13.955   9.198   7.167  1.6735  1.4016  0.4855
  925MOL0     H24846  13.969   9.047   7.267 -3.4666 -1.3512 -0.7583
  925MOL0     H24847  14.000   9.193   7.464 -3.1807  1.2929 -0.1089
  925MOL0     H24848  13.975   9.338   7.404 -2.7764 -0.9199  1.9395
  925MOL0     H24849  14.184   9.184   7.248  0.7041  1.7574 -1.3719
  925MOL0     H24850  14.178   9.359   7.286  2.1568  0.1758 -0.0135
  925MOL0     H24851  14.265   9.148   7.491  1.8821 -1.1323 -2.2394
  925MOL0     H24852  14.251   9.311   7.532 -0.0834 -2.4595  2.6745
  925MOL0     H24853  14.430   9.221   7.308  0.1661  0.1482  0.1009
  925MOL0     H24854  14.401   9.389   7.350 -1.1893 -0.8418 -0.2972
  925MOL0     H24855  13.362   8.849   7.087 -2.5625 -2.0058  0.1431
  925MOL0     H24856  13.150   8.865   7.183  0.7277  1.0238  0.6883
  925MOL0     H24857  12.947   8.982   7.669 -1.4717 -0.1773  1.7920
  925MOL0     H24858  12.759   9.081   7.782 -2.5793  0.3491  0.6536
  925MOL0     H24859  10.957   8.822   7.213 -0.0971 -0.3219  1.6605
  925MOL0     H24860  10.729   8.874   7.215  0.3243  0.1729  1.2445
  925MOL0     H24861  10.325   8.706   7.185  2.7178  0.0395  1.4649
  925MOL0     H24862  10.083   8.734   7.133 -2.2146  1.4603 -0.6093
  925MOL0     H24863   9.746   8.960   7.357 -2.4422 -1.7633  0.7839
  925MOL0     H24864   9.844   8.886   7.479 -0.2024  2.1652  0.2647
  925MOL0     H24865   9.710   8.741   7.249 -0.7358  0.6292  0.7876
  925MOL0     H24866   9.643   8.756   7.421 -0.0587 -3.7963  0.9567
  925MOL0     H24867   9.810   8.611   7.510 -2.0099 -1.6539 -0.1674
  925MOL0     H24868   9.897   8.611   7.361  0.3821 -3.4126  0.5479
  925MOL0     H24869   9.612   8.511   7.391  1.0070  0.8774  0.5792
  925MOL0     H24870   9.730   8.478   7.258  1.0744 -0.6879 -0.3448
  925MOL0     H24871   9.839   8.160   7.481  2.1130  0.3864  0.2430
  925MOL0     H24872  10.048   8.991   7.478 -3.4852 -0.8780 -1.1416
  925MOL0     H24873  10.350   8.911   7.604 -2.0660 -0.6010 -0.4133
  925MOL0     H24874  10.382   9.064   7.523 -0.1575 -0.2578 -1.2007
  925MOL0     H24875  10.231   9.047   7.608 -1.8804 -1.2306  0.3167
  926MOL0     O24876   4.513   6.114   4.425  0.2351  0.3444 -0.0695
  926MOL0     C24877   4.495   6.234   4.416 -0.0159 -0.4361  0.7226
  926MOL0     O24878   4.596   6.326   4.426 -0.2440  0.8967 -0.5106
  926MOL0     C24879   4.721   6.282   4.469 -0.6525 -0.0682 -0.3965
  926MOL0     C24880   4.832   6.340   4.404  0.7027 -0.6284 -0.1749
  926MOL0     C24881   4.956   6.329   4.456 -0.1717  0.3126 -0.4028
  926MOL0     C24882   4.990   6.247   4.569 -1.1643 -0.1084 -0.5007
  926MOL0     O24883   5.117   6.236   4.624 -0.6069 -0.0262  0.0975
  926MOL0     C24884   5.204   6.146   4.560 -1.3036  0.7664 -0.0358
  926MOL0     C24885   5.331   6.150   4.641 -0.0224  0.1821 -0.0286
  926MOL0     C24886   5.451   6.084   4.566 -0.8360  0.3229 -0.6283
  926MOL0     C24887   5.581   6.063   4.649 -0.6712  0.0968  0.3607
  926MOL0     C24888   5.702   6.080   4.551  0.6152 -0.1239 -0.6481
  926MOL0     C24889   5.831   6.035   4.626 -0.6019 -0.1171 -0.3400
  926MOL0     C24890   5.861   6.133   4.742 -0.5871 -0.4997  0.1963
  926MOL0     C24891   5.980   6.079   4.823 -0.8473  0.5956 -0.6775
  926MOL0     N24892   6.000   6.160   4.945  0.2831 -0.4457  0.3660
  926MOL0     C24893   5.912   6.158   5.047  0.2893 -0.0900 -0.8415
  926MOL0     C24894   5.983   6.197   5.162 -0.4406 -0.4137  0.7818
  926MOL0     C24895   5.907   6.185   5.291 -0.3282 -0.0151  0.1301
  926MOL0     C24896   5.991   6.169   5.417 -0.0992 -0.3926 -0.0116
  926MOL0     C24897   5.918   6.084   5.528  0.2828  0.6896  0.2946
  926MOL0     C24898   6.005   6.060   5.656 -0.5203 -0.0867  0.0209
  926MOL0     O24899   6.132   6.002   5.624  0.2653  0.0753  0.2225
  926MOL0     C24900   6.218   6.020   5.732 -0.1833  0.1107  0.9535
  926MOL0     C24901   6.209   5.947   5.853  0.8013  0.6813  0.7314
  926MOL0     C24902   6.271   5.984   5.966 -0.2127  0.0480 -0.5955
  926MOL0     C24903   6.387   6.065   5.959 -0.1485  0.7373  1.1496
  926MOL0     C24904   6.490   6.102   6.066 -0.1505 -0.5722  1.1224
  926MOL0     O24905   6.488   6.026   6.178  0.2098 -0.2498 -0.0158
  926MOL0     C24906   6.579   6.017   6.273 -0.4098  0.4919 -0.6147
  926MOL0     C24907   6.714   6.038   6.251 -0.2283 -0.6745  0.1494
  926MOL0     C24908   6.805   6.032   6.355 -0.2003 -0.5967 -0.6571
  926MOL0     C24909   6.763   5.991   6.485  0.6280  0.7746  0.2109
  926MOL0     O24910   6.849   5.982   6.586 -0.4442 -1.8278 -0.3926
  926MOL0     C24911   6.986   5.947   6.556  0.0999 -0.1644  0.1211
  926MOL0     C24912   7.048   5.919   6.690  0.6166 -0.4921  0.5746
  926MOL0     C24913   7.200   5.917   6.674  0.4271 -0.5098 -0.2334
  926MOL0     C24914   7.276   5.931   6.806 -0.6794  0.1075 -0.3033
  926MOL0     C24915   7.434   5.962   6.789 -0.2120 -0.1084 -0.6199
  926MOL0     C24916   7.503   5.837   6.728 -0.4984  0.1189  0.6737
  926MOL0     C24917   7.659   5.858   6.735 -0.1282  0.2863  0.4552
  926MOL0     C24918   7.738   5.740   6.678  0.2705  0.1452  0.6058
  926MOL0    Cl24919   7.900   5.757   6.756 -0.0594 -0.0727 -0.2068
  926MOL0     C24920   6.627   5.953   6.498 -0.6887  0.0076 -0.4436
  926MOL0     C24921   6.538   5.958   6.396 -0.7722 -0.5416 -0.0348
  926MOL0     O24922   6.567   6.192   6.030 -0.1043 -0.8710 -1.1396
  926MOL0     C24923   6.406   6.132   5.832 -0.3823 -0.3338  0.6875
  926MOL0     C24924   6.317   6.117   5.724  0.0763 -1.4042  0.1812
  926MOL0     N24925   6.113   6.233   5.121 -0.0607  0.0249 -0.6736
  926MOL0     N24926   6.117   6.211   4.989 -0.4114  0.1279 -0.0823
  926MOL0     C24927   4.883   6.169   4.619  0.0466 -0.3508 -0.3952
  926MOL0     C24928   4.750   6.193   4.578 -0.2329 -0.8329  0.0221
  926MOL0     C24929   4.369   6.284   4.369  0.1981  0.9739 -0.7278
  926MOL0     C24930   4.348   6.260   4.235  1.5184 -0.1224  0.6895
  926MOL0     C24931   4.233   6.306   4.162 -0.5145 -0.1154 -0.1951
  926MOL0     C24932   4.120   6.359   4.234 -0.0308 -0.3021 -0.2934
  926MOL0     O24933   3.994   6.382   4.185  0.0109 -0.6148 -0.3455
  926MOL0     C24934   3.966   6.338   4.050 -0.0392 -0.1423  1.2427
  926MOL0     C24935   3.816   6.376   4.027  0.2152 -0.3654 -0.0553
  926MOL0     C24936   3.757   6.316   3.896 -0.0760  0.3941  0.0095
  926MOL0     C24937   3.629   6.386   3.857 -0.0884  0.4781 -0.1637
  926MOL0     C24938   3.528   6.313   3.932  1.2259  0.2853 -1.0697
  926MOL0     C24939   3.448   6.238   3.986  0.3916 -0.2626 -0.3222
  926MOL0     C24940   4.135   6.369   4.374  0.0736  0.5103  0.3106
  926MOL0     C24941   4.253   6.328   4.441  0.0459  0.4135  0.0679
  926MOL0     C24942   4.257   6.328   4.592 -0.7212 -0.2301 -0.7247
  926MOL0     H24943   4.806   6.412   4.327 -0.9243 -0.4911  0.4681
  926MOL0     H24944   5.031   6.387   4.404  2.5287 -0.9784  1.7743
  926MOL0     H24945   5.173   6.041   4.563  1.2428 -0.0213  1.0625
  926MOL0     H24946   5.232   6.186   4.462 -0.0724  2.7895  1.0845
  926MOL0     H24947   5.318   6.096   4.735  0.7001 -1.0373 -0.5927
  926MOL0     H24948   5.357   6.253   4.666  1.8946 -0.2399 -0.1406
  926MOL0     H24949   5.480   6.137   4.475  1.0935  1.7441  0.7359
  926MOL0     H24950   5.421   5.984   4.533 -3.7127  0.9086 -0.0756
  926MOL0     H24951   5.592   6.144   4.722  2.2271  1.5018 -1.4462
  926MOL0     H24952   5.574   5.967   4.701  1.1551 -0.1883  0.1200
  926MOL0     H24953   5.697   6.017   4.461 -0.9036 -1.5581  0.3932
  926MOL0     H24954   5.711   6.184   4.518  1.7357 -0.5565 -1.8232
  926MOL0     H24955   5.824   5.931   4.659  0.4217  0.4302  1.7835
  926MOL0     H24956   5.913   6.036   4.554  0.6659  2.4250  0.9998
  926MOL0     H24957   5.775   6.151   4.807  1.3482 -0.0058  2.7736
  926MOL0     H24958   5.880   6.233   4.703 -2.1172 -0.4119 -0.3794
  926MOL0     H24959   5.960   5.974   4.848  2.6651 -0.4063 -1.5103
  926MOL0     H24960   6.071   6.081   4.762 -1.8046 -2.2895 -2.4019
  926MOL0     H24961   5.815   6.110   5.044  0.4471 -0.5255  0.5398
  926MOL0     H24962   5.843   6.273   5.292  2.6687  2.3127  0.6865
  926MOL0     H24963   5.835   6.103   5.296 -1.1439  0.4487 -2.5812
  926MOL0     H24964   6.086   6.123   5.391  0.9099  1.2652  0.6034
  926MOL0     H24965   6.004   6.268   5.462 -0.4364 -1.2703  2.1449
  926MOL0     H24966   5.892   5.984   5.491  0.4170  0.2034  1.4561
  926MOL0     H24967   5.834   6.145   5.563  1.3564  2.6800 -0.4378
  926MOL0     H24968   5.948   5.991   5.720 -1.1663  0.0197 -0.4308
  926MOL0     H24969   6.015   6.156   5.706 -3.0670  1.6544 -2.5043
  926MOL0     H24970   6.138   5.865   5.857  2.4266 -0.7689  2.8728
  926MOL0     H24971   6.244   5.937   6.060 -0.1298 -0.0546 -0.6227
  926MOL0     H24972   6.753   6.052   6.150  1.5132  0.5911  0.9368
  926MOL0     H24973   6.907   6.062   6.334 -0.1968 -0.6116 -0.6615
  926MOL0     H24974   7.004   5.858   6.495  0.3829  0.1804 -0.3057
  926MOL0     H24975   7.028   6.036   6.508 -1.8427 -0.1680 -1.7234
  926MOL0     H24976   7.009   5.988   6.765 -1.6144 -1.3082  0.2411
  926MOL0     H24977   7.012   5.818   6.713 -0.6018 -0.1885  0.0849
  926MOL0     H24978   7.230   5.823   6.626  0.6277  0.0580 -1.2455
  926MOL0     H24979   7.243   5.989   6.604  0.9203  0.1422  0.7173
  926MOL0     H24980   7.257   5.841   6.866  0.5936  0.5576  0.8152
  926MOL0     H24981   7.225   6.014   6.857 -1.4654  0.1691 -1.1603
  926MOL0     H24982   7.467   6.002   6.885 -1.3256  1.4619 -0.8469
  926MOL0     H24983   7.452   6.046   6.720 -0.1326 -1.2367 -2.0349
  926MOL0     H24984   7.473   5.749   6.786  0.7853  0.6729  2.2855
  926MOL0     H24985   7.469   5.827   6.625 -0.5265 -0.5203  0.7406
  926MOL0     H24986   7.695   5.860   6.839  1.0092 -0.4283  0.0920
  926MOL0     H24987   7.690   5.942   6.672 -0.1025 -0.0306  0.0418
  926MOL0     H24988   7.699   5.650   6.726  0.4969 -0.0893  0.3549
  926MOL0     H24989   7.745   5.740   6.569 -0.7361  2.8821  0.4655
  926MOL0     H24990   6.585   5.924   6.594 -2.1092 -1.6090 -1.4871
  926MOL0     H24991   6.436   5.922   6.411 -0.5080 -0.5169  2.1027
  926MOL0     H24992   6.493   6.193   5.812 -0.2069 -1.1718 -1.3130
  926MOL0     H24993   6.328   6.164   5.627 -0.1925  0.4984  1.0273
  926MOL0     H24994   4.900   6.102   4.702 -0.6921  0.1217  0.1415
  926MOL0     H24995   4.663   6.141   4.616 -2.3129  0.4971 -2.5546
  926MOL0     H24996   4.428   6.237   4.165 -1.1652 -0.3798 -2.5157
  926MOL0     H24997   4.231   6.302   4.053 -3.0180  1.9898 -0.3207
  926MOL0     H24998   3.989   6.231   4.038  0.5873  0.3247 -3.9899
  926MOL0     H24999   4.024   6.403   3.983 -3.1713  0.8162 -0.7589
  926MOL0     H25000   3.820   6.485   4.036 -0.8423 -0.4905  3.7224
  926MOL0     H25001   3.748   6.343   4.106  1.5312  0.1193  1.3105
  926MOL0     H25002   3.732   6.210   3.908 -2.6378  1.0428  1.2479
  926MOL0     H25003   3.827   6.318   3.812 -0.9271 -0.6994 -0.7588
  926MOL0     H25004   3.637   6.492   3.879  0.1240  0.6299 -0.9216
  926MOL0     H25005   3.600   6.370   3.752 -2.3397 -2.8800  0.8121
  926MOL0     H25006   3.382   6.171   4.037 -1.3593  2.0037  0.5887
  926MOL0     H25007   4.063   6.418   4.439 -0.2158  0.3608  0.1051
  926MOL0     H25008   4.155   6.346   4.627 -0.7842  2.2677 -1.9612
  926MOL0     H25009   4.302   6.240   4.637  0.0592  1.1266  1.2703
  926MOL0     H25010   4.307   6.415   4.636 -0.5081  0.5292 -2.3760
  927MOL0     O25011   2.252   0.429   8.521 -0.1628  0.2341 -0.7656
  927MOL0     C25012   2.237   0.542   8.478  0.3239  0.0624 -0.2312
  927MOL0     O25013   2.337   0.615   8.423  0.4563  0.1087  0.0014
  927MOL0     C25014   2.462   0.572   8.451  0.0673 -0.2415 -1.0377
  927MOL0     C25015   2.518   0.480   8.372  0.2189  0.3093 -0.0986
  927MOL0     C25016   2.657   0.451   8.388 -0.2737  0.8556 -0.0798
  927MOL0     C25017   2.733   0.511   8.492 -0.3815 -0.3429 -0.0528
  927MOL0     O25018   2.861   0.496   8.483 -0.4660  0.1276 -0.5541
  927MOL0     C25019   2.944   0.515   8.601 -0.8900  0.3121 -0.0483
  927MOL0     C25020   3.088   0.513   8.550  0.0351  0.0558  0.3262
  927MOL0     C25021   3.189   0.574   8.649 -0.3604 -0.5557  0.6785
  927MOL0     C25022   3.291   0.645   8.565 -0.2428  0.0789 -0.1607
  927MOL0     C25023   3.391   0.719   8.653 -0.0223 -0.0572  0.3615
  927MOL0     C25024   3.510   0.763   8.562 -0.1471 -0.8583 -0.2777
  927MOL0     C25025   3.594   0.850   8.651 -0.2966  0.0108  0.3085
  927MOL0     C25026   3.725   0.890   8.581 -0.3051  0.2175 -0.3814
  927MOL0     N25027   3.705   0.987   8.475 -0.6157  0.5039 -0.2948
  927MOL0     C25028   3.691   0.957   8.345  0.5070  0.3689 -0.3381
  927MOL0     C25029   3.706   1.082   8.284  0.0679  0.3322  0.2613
  927MOL0     C25030   3.685   1.111   8.135  0.2239 -0.1141 -0.6722
  927MOL0     C25031   3.794   1.045   8.053 -0.5675 -0.5637 -0.5641
  927MOL0     C25032   3.928   1.119   8.064  0.5270  0.1300  0.4254
  927MOL0     C25033   4.045   1.041   7.997 -0.2406  0.3918 -0.6142
  927MOL0     O25034   4.035   1.033   7.859  0.5675 -0.0496  0.1463
  927MOL0     C25035   4.094   0.928   7.802 -0.4869 -0.6208 -0.5584
  927MOL0     C25036   4.232   0.912   7.810  0.0377 -0.3770  0.0282
  927MOL0     C25037   4.304   0.813   7.750  0.1530  0.5387  0.7270
  927MOL0     C25038   4.240   0.710   7.685 -0.8257  0.5854  0.7168
  927MOL0     C25039   4.320   0.602   7.616  0.2071  0.5637 -0.0990
  927MOL0     O25040   4.257   0.489   7.580  0.1771 -0.2408  0.6987
  927MOL0     C25041   4.320   0.418   7.484 -0.2053  0.3742  0.4016
  927MOL0     C25042   4.429   0.323   7.506  0.2272  0.2675  0.2339
  927MOL0     C25043   4.475   0.240   7.402 -0.3214  0.6524 -0.0229
  927MOL0     C25044   4.423   0.244   7.274 -0.3027  0.0731  1.1160
  927MOL0     O25045   4.452   0.156   7.179  0.7975  0.2479  0.7546
  927MOL0     C25046   4.588   0.125   7.145  0.3107 -0.6529  1.1468
  927MOL0     C25047   4.645   0.203   7.029  0.1338 -0.1906  1.0838
  927MOL0     C25048   4.793   0.168   7.004  0.7607 -0.4752 -0.2227
  927MOL0     C25049   4.882   0.237   7.118 -0.2286  0.1380  0.9290
  927MOL0     C25050   5.034   0.225   7.080  0.0354  0.1486  1.0353
  927MOL0     C25051   5.123   0.308   7.166 -0.0942 -0.4852  0.2761
  927MOL0     C25052   5.274   0.253   7.165  0.2459 -0.6283 -0.5050
  927MOL0     C25053   5.339   0.300   7.286 -0.3105 -0.1538  0.5472
  927MOL0    Cl25054   5.313   0.186   7.424  0.2725 -0.3111 -0.1519
  927MOL0     C25055   4.316   0.332   7.251 -0.0052 -0.8527  0.3855
  927MOL0     C25056   4.260   0.404   7.364  0.2466 -0.7519  1.3326
  927MOL0     O25057   4.440   0.619   7.600 -0.4748 -0.8871 -0.2283
  927MOL0     C25058   4.101   0.719   7.679 -0.0087 -0.3079  0.1878
  927MOL0     C25059   4.030   0.828   7.730  0.4285 -0.5285  0.1420
  927MOL0     N25060   3.724   1.181   8.384  0.0384 -0.3991 -0.5841
  927MOL0     N25061   3.717   1.125   8.493  0.3148  0.1985  0.5905
  927MOL0     C25062   2.661   0.593   8.578 -0.2132  0.4253 -0.4531
  927MOL0     C25063   2.526   0.625   8.564  0.7989 -0.1643 -0.0019
  927MOL0     C25064   2.096   0.583   8.450  0.0401 -0.0918 -0.3137
  927MOL0     C25065   2.072   0.672   8.339 -0.6101 -0.3182 -0.3448
  927MOL0     C25066   1.949   0.735   8.328 -0.0328 -0.3199  1.2091
  927MOL0     C25067   1.845   0.711   8.411  0.4432 -0.1856  0.1210
  927MOL0     O25068   1.724   0.779   8.396 -0.2475 -0.1856 -0.3801
  927MOL0     C25069   1.603   0.747   8.466 -0.0915 -0.7116  0.5086
  927MOL0     C25070   1.476   0.809   8.399 -0.2406 -0.0835  0.6816
  927MOL0     C25071   1.356   0.755   8.461  0.4320  0.0986 -0.0739
  927MOL0     C25072   1.229   0.833   8.427 -0.8693  0.3755  0.0050
  927MOL0     C25073   1.175   0.792   8.297  0.0189  0.0643 -0.8640
  927MOL0     C25074   1.140   0.753   8.189 -0.1083 -0.3756  0.0526
  927MOL0     C25075   1.869   0.627   8.522 -0.1127  0.3906  0.5324
  927MOL0     C25076   1.991   0.568   8.549  0.6430  0.0742 -0.5331
  927MOL0     C25077   2.012   0.503   8.688 -0.0557  0.3824 -0.3445
  927MOL0     H25078   2.457   0.443   8.290  0.2656  0.7283 -0.3276
  927MOL0     H25079   2.706   0.385   8.317  0.3996  1.4314 -0.1625
  927MOL0     H25080   2.927   0.603   8.663 -4.4940  0.4676 -1.0682
  927MOL0     H25081   2.932   0.426   8.664 -0.9351  0.6664  0.4436
  927MOL0     H25082   3.092   0.567   8.456  1.6464  1.2306  1.0352
  927MOL0     H25083   3.127   0.415   8.521  2.6298  1.0065  0.3902
  927MOL0     H25084   3.220   0.495   8.718 -0.9833  1.3652  3.3191
  927MOL0     H25085   3.149   0.659   8.705 -1.4036 -1.4598  1.3723
  927MOL0     H25086   3.337   0.564   8.507 -2.3192 -0.0364 -1.7616
  927MOL0     H25087   3.252   0.723   8.500  1.4815  0.3235 -0.9558
  927MOL0     H25088   3.343   0.811   8.689  1.2062  0.3033  1.1275
  927MOL0     H25089   3.428   0.663   8.740 -0.0412  1.0542  1.1012
  927MOL0     H25090   3.567   0.679   8.521  2.1875  1.1252 -1.3618
  927MOL0     H25091   3.473   0.825   8.480 -0.1435 -2.1917 -1.3381
  927MOL0     H25092   3.619   0.797   8.743  1.1039 -0.3765 -0.2646
  927MOL0     H25093   3.548   0.949   8.659 -2.5529 -0.8002 -1.4833
  927MOL0     H25094   3.781   0.942   8.658  0.0414  0.0895 -0.5465
  927MOL0     H25095   3.785   0.807   8.543 -1.3314 -0.9564  0.4633
  927MOL0     H25096   3.666   0.860   8.302 -0.8295  0.2268  0.6951
  927MOL0     H25097   3.584   1.076   8.116  1.1333 -1.1862 -4.3099
  927MOL0     H25098   3.677   1.219   8.118 -1.2662 -0.3279 -1.4624
  927MOL0     H25099   3.808   0.938   8.073  0.8017 -0.0797  1.2866
  927MOL0     H25100   3.760   1.049   7.949 -2.9058 -0.8953  0.1409
  927MOL0     H25101   3.940   1.132   8.172  0.5300 -0.8724  0.5583
  927MOL0     H25102   3.932   1.222   8.028  3.7951 -0.1484 -0.3823
  927MOL0     H25103   4.034   0.941   8.037 -2.0170  1.2091  1.0660
  927MOL0     H25104   4.142   1.083   8.027  1.0268 -0.8501 -2.7149
  927MOL0     H25105   4.286   0.994   7.858 -1.3439  0.4561  0.2200
  927MOL0     H25106   4.412   0.825   7.755  0.1253  1.0883  0.0846
  927MOL0     H25107   4.476   0.315   7.603  2.4501  3.0007 -0.4972
  927MOL0     H25108   4.561   0.175   7.416  0.5085  2.1853  2.5727
  927MOL0     H25109   4.651   0.156   7.229 -1.3313  7.2147  0.2708
  927MOL0     H25110   4.603   0.019   7.122  2.6482 -0.5683  2.0334
  927MOL0     H25111   4.592   0.189   6.934  1.2097  2.1194  0.0607
  927MOL0     H25112   4.644   0.311   7.049  2.4612  0.0568  0.2167
  927MOL0     H25113   4.803   0.059   7.001 -0.6181 -0.6614  0.8596
  927MOL0     H25114   4.829   0.204   6.907  0.6594  0.2171 -0.0128
  927MOL0     H25115   4.867   0.196   7.219  1.0417  0.3694  1.2261
  927MOL0     H25116   4.861   0.344   7.120  0.6644  0.3154  1.2833
  927MOL0     H25117   5.059   0.245   6.975  3.8462 -0.3394  1.7216
  927MOL0     H25118   5.061   0.120   7.096 -1.0928 -0.4055 -0.4997
  927MOL0     H25119   5.126   0.409   7.124  1.7209 -0.2226  0.9705
  927MOL0     H25120   5.075   0.310   7.265 -1.9106  0.7877 -0.5639
  927MOL0     H25121   5.321   0.288   7.073  2.4528  0.8922  1.0768
  927MOL0     H25122   5.266   0.144   7.164 -0.3246 -0.7053  2.1718
  927MOL0     H25123   5.448   0.297   7.274 -0.2698  2.9471 -0.8799
  927MOL0     H25124   5.306   0.402   7.307  1.0654 -0.1681  3.3341
  927MOL0     H25125   4.269   0.342   7.154 -0.6826  0.0087  0.7918
  927MOL0     H25126   4.171   0.465   7.355  1.3548  0.9296  1.2034
  927MOL0     H25127   4.037   0.644   7.634 -0.9550  0.8367 -0.3967
  927MOL0     H25128   3.922   0.836   7.725  0.1049 -3.3213  0.9823
  927MOL0     H25129   2.719   0.639   8.658  2.2104 -2.7271 -0.2091
  927MOL0     H25130   2.474   0.699   8.624 -0.8637 -1.1721 -0.1398
  927MOL0     H25131   2.159   0.697   8.280  0.7668 -1.3968  1.1452
  927MOL0     H25132   1.932   0.814   8.256  1.8280 -0.9193  0.0432
  927MOL0     H25133   1.622   0.782   8.568  1.8592  0.6471 -0.2483
  927MOL0     H25134   1.607   0.638   8.460  2.7367 -0.6756  0.3184
  927MOL0     H25135   1.473   0.805   8.290  0.3658  1.1187  0.6046
  927MOL0     H25136   1.479   0.916   8.421 -1.2916 -0.3329  2.1957
  927MOL0     H25137   1.373   0.780   8.566  1.8201  5.0917 -1.2254
  927MOL0     H25138   1.348   0.647   8.444 -1.8323  0.2244 -0.1107
  927MOL0     H25139   1.158   0.830   8.510  1.4943  1.5512  2.2333
  927MOL0     H25140   1.235   0.942   8.425  0.8715  0.4894  3.4107
  927MOL0     H25141   1.110   0.722   8.091 -2.8780  0.4190  0.5702
  927MOL0     H25142   1.796   0.593   8.595 -0.3871 -1.8987 -0.7157
  927MOL0     H25143   1.936   0.539   8.758  1.5446  4.9390 -0.6095
  927MOL0     H25144   1.996   0.395   8.683  0.9853  0.2652 -1.8042
  927MOL0     H25145   2.110   0.528   8.728  0.7621 -0.3466 -1.8177
  928MOL0     O25146  10.795   4.521   0.568  0.9613  0.0743 -0.4739
  928MOL0     C25147  10.728   4.605   0.507  0.0120 -0.9420 -0.5707
  928MOL0     O25148  10.773   4.722   0.467 -0.1330 -0.5628 -0.2254
  928MOL0     C25149  10.901   4.752   0.506 -0.5339  0.2500 -0.4038
  928MOL0     C25150  10.936   4.792   0.643 -0.5374 -0.8025  0.0314
  928MOL0     C25151  11.075   4.809   0.670 -0.4371 -0.6179  0.5454
  928MOL0     C25152  11.177   4.770   0.585 -0.5392 -0.7802 -0.8496
  928MOL0     O25153  11.306   4.758   0.651 -0.2012  0.1113  0.7394
  928MOL0     C25154  11.424   4.789   0.571 -0.3026 -0.3622  0.3023
  928MOL0     C25155  11.560   4.740   0.633  0.0553  0.3956 -0.2826
  928MOL0     C25156  11.681   4.765   0.538 -0.1983 -0.5663  0.4097
  928MOL0     C25157  11.792   4.678   0.586 -0.1108  0.2747 -0.1313
  928MOL0     C25158  11.899   4.686   0.475  0.3655  0.1275 -0.4705
  928MOL0     C25159  12.012   4.585   0.497 -0.5814 -0.2933 -0.4617
  928MOL0     C25160  12.087   4.600   0.634 -0.4045  1.1085 -0.2752
  928MOL0     C25161  12.148   4.737   0.668 -0.8604 -0.3874 -0.4635
  928MOL0     N25162  12.247   4.770   0.558  0.7813 -0.5915 -0.4284
  928MOL0     C25163  12.216   4.858   0.450 -0.0244  0.1656 -0.5134
  928MOL0     C25164  12.323   4.838   0.363  0.1162  0.0879  0.5385
  928MOL0     C25165  12.354   4.898   0.229 -0.4085  0.2484  0.0006
  928MOL0     C25166  12.297   4.810   0.121 -0.6404 -0.3056  0.0178
  928MOL0     C25167  12.143   4.814   0.094 -0.1255 -0.4752 -1.0857
  928MOL0     C25168  12.109   4.941   0.017 -0.2939  0.0685 -0.0680
  928MOL0     O25169  12.015   5.022   0.085  0.4173 -0.0589 -0.4260
  928MOL0     C25170  11.887   4.973   0.102  0.7877  0.0935  0.5088
  928MOL0     C25171  11.823   5.011   0.217 -0.1222 -0.4842 -0.1584
  928MOL0     C25172  11.689   4.980   0.233 -0.1960 -0.3223 -0.2181
  928MOL0     C25173  11.612   4.918   0.127 -0.0346  0.0734 -0.0900
  928MOL0     C25174  11.464   4.880   0.139  0.7225 -0.3646 -1.1880
  928MOL0     O25175  11.411   4.844   0.022  0.1362 -0.3995 -0.1743
  928MOL0     C25176  11.274   4.842   0.020  0.8741  0.9355  0.3463
  928MOL0     C25177  11.184   4.944   0.075 -0.3137  0.3957  0.2522
  928MOL0     C25178  11.047   4.930   0.083  0.0899  0.4811  0.3643
  928MOL0     C25179  10.989   4.826  -0.001 -0.5674 -0.1505 -0.8539
  928MOL0     O25180  10.853   4.824  -0.021 -0.4017 -1.0502 -0.5217
  928MOL0     C25181  10.780   4.727  -0.103 -0.3889  0.3705 -0.0648
  928MOL0     C25182  10.743   4.802  -0.235  0.1951 -0.0930 -0.1193
  928MOL0     C25183  10.665   4.719  -0.348 -0.5995 -0.5795  1.1214
  928MOL0     C25184  10.660   4.819  -0.469 -0.0221  0.8947 -0.1644
  928MOL0     C25185  10.622   4.738  -0.600 -0.4206 -0.2234 -0.2522
  928MOL0     C25186  10.545   4.821  -0.703 -0.3668  0.5258 -0.9682
  928MOL0     C25187  10.414   4.873  -0.658 -0.5104 -0.8875 -0.7599
  928MOL0     C25188  10.328   4.900  -0.778 -0.1840 -0.3753  0.9205
  928MOL0    Cl25189  10.180   4.985  -0.730 -0.0591 -0.0626  0.1026
  928MOL0     C25190  11.075   4.745  -0.077  0.0558 -0.0827 -0.6703
  928MOL0     C25191  11.210   4.750  -0.057 -0.5081  1.0418  1.0381
  928MOL0     O25192  11.411   4.875   0.251  0.6857 -0.1447  0.2562
  928MOL0     C25193  11.682   4.878   0.011  0.1242  0.6574  0.6901
  928MOL0     C25194  11.819   4.912  -0.009  0.4836 -0.1400  0.3716
  928MOL0     N25195  12.411   4.754   0.420  0.1758  0.6258  0.3531
  928MOL0     N25196  12.364   4.710   0.532 -0.1145  0.2937 -0.7601
  928MOL0     C25197  11.144   4.734   0.450  0.3551  0.4446 -0.2642
  928MOL0     C25198  11.010   4.726   0.416 -0.2447 -0.0205 -0.3309
  928MOL0     C25199  10.587   4.561   0.471 -0.0138  0.4607  0.9529
  928MOL0     C25200  10.520   4.477   0.563  0.6483  1.0884 -0.2541
  928MOL0     C25201  10.391   4.429   0.534  0.2860  0.1817 -0.4958
  928MOL0     C25202  10.321   4.469   0.420 -0.0758 -0.2891 -0.4231
  928MOL0     O25203  10.196   4.427   0.407 -0.0514  0.7273  0.6368
  928MOL0     C25204  10.113   4.478   0.299  0.2692 -0.6649 -1.1573
  928MOL0     C25205  10.015   4.377   0.255  0.6537 -0.3526  0.0555
  928MOL0     C25206  10.081   4.247   0.207 -0.6851 -0.2725  0.0973
  928MOL0     C25207   9.981   4.126   0.185 -0.2629 -0.3478 -0.4720
  928MOL0     C25208   9.878   4.148   0.084 -0.4599 -0.2045  0.2523
  928MOL0     C25209   9.784   4.169   0.014  0.5891  0.1883 -0.2907
  928MOL0     C25210  10.386   4.560   0.333  0.2149 -0.3613 -0.3422
  928MOL0     C25211  10.525   4.607   0.352 -0.4778 -0.9928 -0.0527
  928MOL0     C25212  10.586   4.706   0.245  0.1223  0.2554 -0.1649
  928MOL0     H25213  10.859   4.819   0.714 -0.5342 -1.6640  0.3716
  928MOL0     H25214  11.116   4.842   0.766  1.5172  2.3681 -1.1365
  928MOL0     H25215  11.412   4.749   0.470 -1.0465  1.0860 -0.2166
  928MOL0     H25216  11.422   4.898   0.561  0.5875 -0.4485 -1.0990
  928MOL0     H25217  11.552   4.634   0.659  0.0638  0.6646  0.8903
  928MOL0     H25218  11.575   4.799   0.724 -0.3264 -0.1177  0.1251
  928MOL0     H25219  11.713   4.869   0.544 -0.2167 -0.5387  0.0033
  928MOL0     H25220  11.657   4.739   0.435  0.8525  0.5929 -0.1449
  928MOL0     H25221  11.824   4.717   0.683  1.9943  0.3008 -0.7976
  928MOL0     H25222  11.760   4.577   0.613 -2.6361  1.3763  1.4050
  928MOL0     H25223  11.853   4.663   0.379 -1.5879 -1.9045  0.8408
  928MOL0     H25224  11.941   4.786   0.468  0.8215 -0.0919 -0.8957
  928MOL0     H25225  11.959   4.489   0.500  1.1474 -1.2724 -0.0829
  928MOL0     H25226  12.082   4.590   0.413 -1.1627  3.7068 -0.9111
  928MOL0     H25227  12.166   4.524   0.632 -2.4030 -1.0884  0.0992
  928MOL0     H25228  12.023   4.563   0.714 -0.0765  1.5894  0.2242
  928MOL0     H25229  12.077   4.821   0.675 -0.0883  0.6273 -3.2247
  928MOL0     H25230  12.212   4.730   0.757 -0.8546  0.3136 -0.4007
  928MOL0     H25231  12.130   4.924   0.439 -2.0490 -2.1682  0.3152
  928MOL0     H25232  12.311   4.998   0.217 -1.3381 -0.0017  1.0118
  928MOL0     H25233  12.462   4.892   0.218 -0.0109 -1.7221  3.4750
  928MOL0     H25234  12.346   4.826   0.024  0.3386 -2.1949  0.1509
  928MOL0     H25235  12.328   4.710   0.154  2.6268  0.3077 -0.8221
  928MOL0     H25236  12.095   4.795   0.190  4.7139 -0.0984  1.7524
  928MOL0     H25237  12.120   4.726   0.034 -1.0560 -0.2907 -1.0178
  928MOL0     H25238  12.069   4.915  -0.081 -3.1149 -0.2794  1.0965
  928MOL0     H25239  12.201   4.997  -0.005 -0.8851  0.5108 -1.5539
  928MOL0     H25240  11.878   5.056   0.299 -1.1062 -3.6494  2.4710
  928MOL0     H25241  11.640   5.011   0.325 -4.6820 -1.9911 -1.8121
  928MOL0     H25242  11.220   5.027   0.135  1.0130 -0.3924  0.5828
  928MOL0     H25243  10.983   5.003   0.132 -2.6779 -0.2875 -1.8817
  928MOL0     H25244  10.841   4.636  -0.105  2.4283  2.0412  2.2030
  928MOL0     H25245  10.685   4.702  -0.054  0.0139  0.4119  0.7486
  928MOL0     H25246  10.688   4.890  -0.202  0.7002  0.7395 -1.4403
  928MOL0     H25247  10.835   4.850  -0.270 -1.0085  2.1223 -0.3953
  928MOL0     H25248  10.714   4.625  -0.375 -2.0366 -0.4411 -2.4872
  928MOL0     H25249  10.562   4.691  -0.328  0.1482 -1.9199  3.4626
  928MOL0     H25250  10.756   4.870  -0.481  2.5740 -2.0024  4.8983
  928MOL0     H25251  10.584   4.898  -0.462  0.3697  1.6488 -3.0714
  928MOL0     H25252  10.568   4.647  -0.572 -1.6853  0.0399 -1.7248
  928MOL0     H25253  10.712   4.702  -0.650  0.4104  1.4522 -0.0286
  928MOL0     H25254  10.601   4.908  -0.740 -0.2920 -0.8932 -4.6927
  928MOL0     H25255  10.522   4.761  -0.792  0.0926 -0.6569 -0.3083
  928MOL0     H25256  10.427   4.972  -0.613  1.7668 -0.3616 -2.3820
  928MOL0     H25257  10.371   4.794  -0.596  3.3762 -2.7576 -0.1351
  928MOL0     H25258  10.380   4.958  -0.854  0.1630 -0.1964  1.2944
  928MOL0     H25259  10.299   4.806  -0.827  0.2667 -0.0215 -0.0524
  928MOL0     H25260  11.032   4.699  -0.166 -2.9969  0.4287  0.4256
  928MOL0     H25261  11.272   4.689  -0.122 -3.1425 -1.7021  0.8948
  928MOL0     H25262  11.626   4.823  -0.064 -0.2578 -1.1913  2.2349
  928MOL0     H25263  11.864   4.890  -0.105 -2.0914  2.5412 -1.6252
  928MOL0     H25264  11.220   4.703   0.379 -0.0449  2.3319 -1.5790
  928MOL0     H25265  10.993   4.681   0.319 -1.4971  0.2742 -0.2604
  928MOL0     H25266  10.571   4.449   0.655 -3.2325 -0.4295  1.6480
  928MOL0     H25267  10.335   4.374   0.609 -0.5014  1.5658 -0.0385
  928MOL0     H25268  10.169   4.506   0.209 -1.8532  2.9216 -1.5865
  928MOL0     H25269  10.063   4.569   0.334 -1.8451 -2.4515  0.8039
  928MOL0     H25270   9.954   4.413   0.172 -2.8906 -2.7476  1.3755
  928MOL0     H25271   9.944   4.354   0.335 -0.6362 -0.2859 -1.0262
  928MOL0     H25272  10.146   4.215   0.289  1.5610  1.7073 -0.7935
  928MOL0     H25273  10.140   4.268   0.117  2.7163  1.4786  2.5184
  928MOL0     H25274  10.034   4.031   0.178  0.0839 -0.3915  1.8222
  928MOL0     H25275   9.922   4.122   0.278  0.5730  0.3999  0.1090
  928MOL0     H25276   9.705   4.204  -0.049  0.3936 -0.7839 -0.6047
  928MOL0     H25277  10.333   4.599   0.247  0.1281 -2.6225 -1.3776
  928MOL0     H25278  10.692   4.681   0.228 -0.3698 -0.6311 -2.2179
  928MOL0     H25279  10.530   4.700   0.151 -1.4630  0.2181  0.7561
  928MOL0     H25280  10.591   4.811   0.275 -0.4836  0.2284  0.0379
  929MOL0     O25281   6.473   5.672   8.712  0.2092  0.1041 -0.0778
  929MOL0     C25282   6.419   5.649   8.820  0.5428 -0.3394  0.0198
  929MOL0     O25283   6.477   5.653   8.938  0.2128 -0.7142  0.4837
  929MOL0     C25284   6.611   5.688   8.955  0.3998 -0.5258 -0.3366
  929MOL0     C25285   6.708   5.584   8.976  0.5634  0.3582 -0.0462
  929MOL0     C25286   6.843   5.609   9.004 -1.3786 -0.7851  0.8153
  929MOL0     C25287   6.890   5.745   9.000  0.2458  0.4615  0.2881
  929MOL0     O25288   7.014   5.790   9.034  0.3158  0.1103  0.5662
  929MOL0     C25289   7.132   5.713   9.006  0.2327 -0.5196  0.1504
  929MOL0     C25290   7.177   5.724   8.859 -0.3438  0.3372 -0.0181
  929MOL0     C25291   7.290   5.619   8.840 -0.9909  0.0400 -1.2142
  929MOL0     C25292   7.347   5.661   8.708  0.0987 -0.2656 -0.4720
  929MOL0     C25293   7.504   5.631   8.672 -0.4105 -0.2876  0.5730
  929MOL0     C25294   7.541   5.637   8.522  0.2723 -0.5250  0.2398
  929MOL0     C25295   7.686   5.666   8.502  0.1987  0.3142 -0.3074
  929MOL0     C25296   7.726   5.629   8.361 -0.8886 -0.5528  0.9244
  929MOL0     N25297   7.853   5.695   8.324 -0.8216 -0.2070  0.0124
  929MOL0     C25298   7.860   5.793   8.227  0.0195 -0.1014 -0.5228
  929MOL0     C25299   7.979   5.848   8.224  0.1395 -0.0304 -0.0055
  929MOL0     C25300   8.039   5.963   8.134  0.0030 -0.1239 -0.7945
  929MOL0     C25301   8.088   5.909   8.003 -0.0318  0.7932  0.0019
  929MOL0     C25302   8.143   6.024   7.906  0.5033 -0.3791 -0.1444
  929MOL0     C25303   8.190   5.962   7.773  0.4882 -0.9584 -0.2407
  929MOL0     O25304   8.254   5.837   7.793 -0.2331 -0.0503  0.2701
  929MOL0     C25305   8.332   5.770   7.705 -0.0628 -0.5412 -0.9989
  929MOL0     C25306   8.385   5.821   7.582 -0.0283 -0.6370 -0.5826
  929MOL0     C25307   8.455   5.736   7.493 -0.6839 -0.9268  0.4033
  929MOL0     C25308   8.488   5.605   7.528  0.7142 -0.4341 -0.0338
  929MOL0     C25309   8.573   5.520   7.446  0.2415 -0.6051  0.2856
  929MOL0     O25310   8.613   5.400   7.492  0.2365  0.5982  1.0990
  929MOL0     C25311   8.708   5.319   7.427 -0.1066  0.4602 -0.5592
  929MOL0     C25312   8.720   5.294   7.289  0.8997 -0.6264 -0.9156
  929MOL0     C25313   8.790   5.193   7.245  0.3822  0.6867 -0.3765
  929MOL0     C25314   8.874   5.116   7.319  0.4381  0.3761 -0.3923
  929MOL0     O25315   8.946   5.029   7.240 -0.2941 -0.0861  0.1698
  929MOL0     C25316   9.088   5.027   7.262  0.5665  0.4152  0.3772
  929MOL0     C25317   9.165   5.011   7.127  0.2768 -0.2774  0.2121
  929MOL0     C25318   9.181   4.871   7.071 -0.2978 -0.5557  0.0883
  929MOL0     C25319   9.249   4.778   7.173  0.1428 -0.2132 -0.8174
  929MOL0     C25320   9.298   4.656   7.105 -0.5004  0.7702 -0.1135
  929MOL0     C25321   9.393   4.567   7.180  0.5086  0.3664 -0.2702
  929MOL0     C25322   9.439   4.454   7.103 -0.5067  0.4991 -0.1378
  929MOL0     C25323   9.575   4.392   7.151 -0.0707 -0.1415 -0.2532
  929MOL0    Cl25324   9.583   4.422   7.332  0.2336  0.3375  0.3562
  929MOL0     C25325   8.863   5.120   7.460 -0.4676 -0.1265  0.1677
  929MOL0     C25326   8.777   5.222   7.514 -0.2085 -0.3800 -0.2463
  929MOL0     O25327   8.608   5.574   7.336 -0.5927  0.1996 -0.1695
  929MOL0     C25328   8.441   5.555   7.654 -0.0094 -0.2127  0.3314
  929MOL0     C25329   8.361   5.642   7.742  0.1518 -0.2599  0.8197
  929MOL0     N25330   8.039   5.788   8.330 -0.1699  0.2101 -0.3690
  929MOL0     N25331   7.966   5.712   8.406 -0.8532  0.4862  0.2719
  929MOL0     C25332   6.802   5.847   8.968  0.4624 -0.1953 -0.1689
  929MOL0     C25333   6.658   5.821   8.959 -0.2874  0.2773  0.2766
  929MOL0     C25334   6.270   5.633   8.812  0.2345  0.1872 -0.8099
  929MOL0     C25335   6.210   5.587   8.935  0.6648  0.6263  0.0320
  929MOL0     C25336   6.074   5.560   8.948  0.4780  1.1636  0.6075
  929MOL0     C25337   5.995   5.553   8.825  0.4588 -0.2933 -0.5801
  929MOL0     O25338   5.862   5.519   8.844  0.1866 -0.2956 -0.2583
  929MOL0     C25339   5.770   5.528   8.735  0.0421  0.3858  0.2035
  929MOL0     C25340   5.637   5.495   8.796 -0.0343  0.1179 -0.1357
  929MOL0     C25341   5.520   5.560   8.714  0.4487  0.3950  0.1443
  929MOL0     C25342   5.387   5.486   8.748  0.3504 -0.1683  0.6252
  929MOL0     C25343   5.368   5.362   8.667  0.1966 -0.6521 -1.3920
  929MOL0     C25344   5.348   5.252   8.615  0.5452 -0.0957  0.4671
  929MOL0     C25345   6.052   5.592   8.704 -0.5741  0.1119 -0.5453
  929MOL0     C25346   6.184   5.634   8.695  0.6766  0.0865 -0.3033
  929MOL0     C25347   6.229   5.677   8.558 -0.3050  0.5370 -0.6596
  929MOL0     H25348   6.661   5.486   8.972 -2.4655  1.6606  0.6836
  929MOL0     H25349   6.909   5.523   9.014 -1.5483 -1.2952 -1.7408
  929MOL0     H25350   7.205   5.770   9.065 -0.5770  3.7358 -2.5023
  929MOL0     H25351   7.129   5.610   9.042  2.7709 -0.1953  1.5170
  929MOL0     H25352   7.214   5.826   8.845  1.8455 -0.4483 -0.3987
  929MOL0     H25353   7.095   5.693   8.795  0.2589 -1.4147  0.0012
  929MOL0     H25354   7.247   5.519   8.840 -0.5495 -0.2382  1.8059
  929MOL0     H25355   7.361   5.613   8.923 -2.9862 -2.2122  0.4657
  929MOL0     H25356   7.291   5.599   8.637  2.1424 -3.3947  0.4583
  929MOL0     H25357   7.339   5.769   8.693 -0.7496 -0.4198 -1.2181
  929MOL0     H25358   7.544   5.721   8.718 -3.0704  2.1349 -1.4628
  929MOL0     H25359   7.547   5.536   8.705  1.8305  0.9385  1.3341
  929MOL0     H25360   7.517   5.537   8.483  1.4570 -0.8721  0.3559
  929MOL0     H25361   7.480   5.720   8.485 -2.1745 -1.5461  1.7206
  929MOL0     H25362   7.745   5.610   8.576 -0.8706  0.9491  1.0679
  929MOL0     H25363   7.700   5.771   8.527  0.5979 -0.4938  3.4922
  929MOL0     H25364   7.746   5.522   8.345  0.5108  0.1828 -3.7485
  929MOL0     H25365   7.649   5.665   8.293  1.5487  2.0155 -0.6741
  929MOL0     H25366   7.781   5.828   8.162 -2.9412 -0.6766  2.5033
  929MOL0     H25367   7.958   6.036   8.121  0.3793  0.1789 -1.4818
  929MOL0     H25368   8.127   6.019   8.166  1.1677 -0.9086 -2.5302
  929MOL0     H25369   8.168   5.835   8.011 -0.8821 -0.2510 -0.7971
  929MOL0     H25370   8.002   5.856   7.962 -0.0483 -0.8890  2.0183
  929MOL0     H25371   8.235   6.049   7.960 -0.7526 -0.8208  2.3427
  929MOL0     H25372   8.080   6.113   7.893  3.7232  2.0545 -0.3230
  929MOL0     H25373   8.258   6.031   7.723  2.1125  1.2533  4.4218
  929MOL0     H25374   8.108   5.949   7.703 -2.9864 -0.1969  3.2977
  929MOL0     H25375   8.372   5.925   7.555  2.4101 -0.1770 -0.2327
  929MOL0     H25376   8.483   5.774   7.396 -3.3339 -1.1900 -0.5506
  929MOL0     H25377   8.655   5.341   7.215  0.0061 -0.7179 -0.2059
  929MOL0     H25378   8.785   5.185   7.137 -0.7896 -0.6039 -0.2664
  929MOL0     H25379   9.120   5.120   7.310 -0.9042  0.6325  0.9826
  929MOL0     H25380   9.119   4.945   7.328 -0.4426 -0.1828  0.1184
  929MOL0     H25381   9.116   5.073   7.051  1.1833  0.8110  0.4968
  929MOL0     H25382   9.268   5.043   7.142  0.6088 -1.5027  0.6410
  929MOL0     H25383   9.083   4.827   7.049 -0.2704 -1.3070  1.3518
  929MOL0     H25384   9.237   4.866   6.977 -0.1994 -2.6915  0.2133
  929MOL0     H25385   9.184   4.756   7.258 -1.4948 -0.1683 -2.0086
  929MOL0     H25386   9.336   4.829   7.216 -0.2801 -0.0762 -0.1007
  929MOL0     H25387   9.350   4.701   7.020 -1.5637 -1.2805 -1.9593
  929MOL0     H25388   9.210   4.599   7.073  1.0540 -1.4227 -0.6873
  929MOL0     H25389   9.479   4.631   7.200 -0.8842  2.0743  0.4701
  929MOL0     H25390   9.348   4.545   7.277 -2.2303 -0.8799 -1.6830
  929MOL0     H25391   9.460   4.488   7.001  0.2623 -1.6843 -0.7585
  929MOL0     H25392   9.360   4.379   7.086  1.1206 -0.9018 -1.9247
  929MOL0     H25393   9.596   4.287   7.129  4.4869  0.3189  0.9006
  929MOL0     H25394   9.650   4.447   7.092 -0.1813 -2.2268 -2.5095
  929MOL0     H25395   8.924   5.055   7.522  0.6453 -1.8379 -2.5352
  929MOL0     H25396   8.773   5.232   7.622 -1.7650  0.6135 -0.3730
  929MOL0     H25397   8.471   5.455   7.685  1.3023  0.0751  0.0548
  929MOL0     H25398   8.319   5.593   7.829 -0.7120 -0.6689  0.1814
  929MOL0     H25399   6.830   5.952   8.977  0.4791 -0.1710 -0.5114
  929MOL0     H25400   6.596   5.909   8.952  0.4093  0.9106  1.6756
  929MOL0     H25401   6.267   5.570   9.026  2.2817 -2.1804 -1.3835
  929MOL0     H25402   6.026   5.526   9.040  0.8006 -1.6574 -0.1663
  929MOL0     H25403   5.800   5.453   8.662  0.6085  1.5332 -0.7815
  929MOL0     H25404   5.771   5.632   8.703  1.0968  0.6823  1.1474
  929MOL0     H25405   5.631   5.535   8.897 -2.9754  1.7739 -0.8463
  929MOL0     H25406   5.625   5.387   8.790 -1.5977 -0.0478  3.4572
  929MOL0     H25407   5.551   5.543   8.611  1.6286 -2.1623  0.8319
  929MOL0     H25408   5.504   5.666   8.737  1.7578  0.1810  2.3723
  929MOL0     H25409   5.366   5.463   8.852 -2.3166  1.3856  0.5225
  929MOL0     H25410   5.306   5.556   8.728  3.0830  3.3917  0.9210
  929MOL0     H25411   5.331   5.156   8.570  1.0842  0.2877 -0.5672
  929MOL0     H25412   5.986   5.590   8.618 -0.4179  1.9254 -0.7375
  929MOL0     H25413   6.299   5.601   8.523 -3.0043 -1.6222 -1.7333
  929MOL0     H25414   6.151   5.671   8.482 -0.2356  1.6433 -0.8342
  929MOL0     H25415   6.285   5.770   8.575  0.3460 -0.0913  0.8827
  930MOL0     O25416  10.255   8.274   0.730  0.3071 -0.1548  0.3245
  930MOL0     C25417  10.196   8.340   0.639  0.3089 -0.5811  0.1344
  930MOL0     O25418  10.207   8.478   0.625 -0.9216 -0.1718 -0.0346
  930MOL0     C25419  10.291   8.550   0.710  0.3632  0.5281  0.4724
  930MOL0     C25420  10.257   8.661   0.785  0.4222 -0.2174 -0.1072
  930MOL0     C25421  10.365   8.719   0.859  0.2692  0.6993 -0.2335
  930MOL0     C25422  10.493   8.667   0.858  0.6174 -0.4040 -0.0007
  930MOL0     O25423  10.573   8.730   0.944 -0.3571  0.1059  0.9336
  930MOL0     C25424  10.708   8.689   0.981  0.1593  0.2235 -0.0798
  930MOL0     C25425  10.715   8.577   1.083 -0.9892 -0.2466  1.3636
  930MOL0     C25426  10.851   8.513   1.093  0.1899 -0.0355  0.1000
  930MOL0     C25427  10.851   8.400   1.199 -0.7047 -0.8758  0.0426
  930MOL0     C25428  10.977   8.317   1.193  1.0119 -0.6826 -0.5041
  930MOL0     C25429  10.988   8.189   1.283 -0.4030 -0.1090 -0.0047
  930MOL0     C25430  11.022   8.218   1.430  0.9004  0.5688 -0.6003
  930MOL0     C25431  10.987   8.094   1.517 -0.1813 -0.4961  0.8546
  930MOL0     N25432  11.089   7.991   1.511  0.3921  0.0539  0.5090
  930MOL0     C25433  11.214   7.993   1.573  0.1155  1.0165  0.2871
  930MOL0     C25434  11.290   7.909   1.494  0.1771 -0.3458  0.3299
  930MOL0     C25435  11.439   7.882   1.502  0.1772  1.1997  0.1194
  930MOL0     C25436  11.547   7.998   1.483 -0.3048 -0.1815 -0.6392
  930MOL0     C25437  11.694   7.954   1.481 -0.1299  0.5484  1.2902
  930MOL0     C25438  11.759   7.986   1.341  0.1330  0.1087  0.0014
  930MOL0     O25439  11.691   7.907   1.244  0.3103 -0.1697 -0.3386
  930MOL0     C25440  11.713   7.933   1.112 -0.1890 -0.8064 -0.8273
  930MOL0     C25441  11.638   7.857   1.023  0.0838  0.2842 -1.0301
  930MOL0     C25442  11.658   7.876   0.887  0.2393  0.3512  0.5638
  930MOL0     C25443  11.745   7.971   0.834  0.2555 -0.0087  0.3155
  930MOL0     C25444  11.747   8.008   0.693  0.1340  0.1604  0.6446
  930MOL0     O25445  11.810   8.124   0.649 -0.3351 -0.4992  0.2791
  930MOL0     C25446  11.832   8.138   0.512  0.0980 -0.4064  0.3597
  930MOL0     C25447  11.823   8.264   0.447 -0.3857  0.2875 -0.1241
  930MOL0     C25448  11.832   8.278   0.306 -0.1256 -0.4172 -0.3603
  930MOL0     C25449  11.860   8.168   0.224  0.9170  0.8050  0.9855
  930MOL0     O25450  11.868   8.193   0.088 -0.1335 -0.0521 -0.1576
  930MOL0     C25451  11.980   8.133   0.021  0.3209 -0.5735  0.1637
  930MOL0     C25452  11.925   8.062  -0.106 -0.2676 -0.3251 -0.4005
  930MOL0     C25453  11.866   7.931  -0.082  1.2326  0.0560  0.2836
  930MOL0     C25454  11.764   7.902  -0.191 -0.2041 -0.0407  0.3816
  930MOL0     C25455  11.816   7.906  -0.335  0.0654  0.3403  0.3649
  930MOL0     C25456  11.910   7.801  -0.366  0.0671 -0.0692  0.0415
  930MOL0     C25457  11.971   7.812  -0.508  0.2422 -0.1554 -0.4158
  930MOL0     C25458  11.985   7.671  -0.562  0.6180  0.5016  1.3866
  930MOL0    Cl25459  12.084   7.559  -0.468 -0.0928  0.0854 -0.2969
  930MOL0     C25460  11.875   8.045   0.286 -0.6521  0.1384  0.3556
  930MOL0     C25461  11.874   8.033   0.426 -0.2232  0.9100 -0.5327
  930MOL0     O25462  11.705   7.913   0.620 -0.7135  0.3227 -0.2296
  930MOL0     C25463  11.818   8.046   0.931 -0.1184  0.2591 -0.4156
  930MOL0     C25464  11.806   8.025   1.065 -0.6963  0.2028  0.0071
  930MOL0     N25465  11.208   7.860   1.396 -0.4363 -0.4663 -0.3380
  930MOL0     N25466  11.088   7.903   1.406 -0.7108 -0.4253 -0.8374
  930MOL0     C25467  10.523   8.557   0.785  0.3340  0.8295  0.0526
  930MOL0     C25468  10.426   8.500   0.708 -0.2185  0.0870 -0.0948
  930MOL0     C25469  10.103   8.279   0.533 -0.0061 -0.4921 -0.0624
  930MOL0     C25470   9.997   8.363   0.484 -0.3146 -0.2906  0.3979
  930MOL0     C25471   9.899   8.315   0.398 -0.0134  0.4019 -0.3584
  930MOL0     C25472   9.903   8.183   0.354 -0.1647 -0.4912 -0.1567
  930MOL0     O25473   9.802   8.139   0.276  0.2591 -0.2060  0.5083
  930MOL0     C25474   9.783   7.994   0.268  1.1211  0.1013 -0.1513
  930MOL0     C25475   9.646   7.964   0.191 -0.1684  0.0443  0.5582
  930MOL0     C25476   9.637   8.032   0.054  0.3107 -0.2631 -0.7865
  930MOL0     C25477   9.498   8.030  -0.011  0.1676  0.1668 -0.8664
  930MOL0     C25478   9.398   8.084   0.069 -0.2990 -0.4637  0.9689
  930MOL0     C25479   9.309   8.113   0.149  0.8323  0.4852 -0.7455
  930MOL0     C25480   9.999   8.100   0.408 -0.1942 -0.2297 -0.5034
  930MOL0     C25481  10.100   8.143   0.494 -0.3665 -0.2624 -0.2731
  930MOL0     C25482  10.193   8.034   0.551  0.2331  0.6713  0.1889
  930MOL0     H25483  10.158   8.702   0.798  0.8855  0.2485  2.5722
  930MOL0     H25484  10.345   8.802   0.926  1.9700  2.0259 -1.2605
  930MOL0     H25485  10.773   8.689   0.893  0.9211  0.7319  0.4603
  930MOL0     H25486  10.759   8.772   1.032  1.8721  0.4841 -2.1037
  930MOL0     H25487  10.643   8.497   1.063 -0.2170 -1.1916  2.1950
  930MOL0     H25488  10.692   8.631   1.175  1.4753 -0.8167  2.4153
  930MOL0     H25489  10.922   8.593   1.116  0.4002 -0.0035 -0.6252
  930MOL0     H25490  10.878   8.468   0.997  1.9570 -4.4372  2.3474
  930MOL0     H25491  10.846   8.454   1.294  0.3992 -2.0929  0.8215
  930MOL0     H25492  10.760   8.340   1.190 -1.1323 -0.5120  1.6946
  930MOL0     H25493  10.987   8.281   1.090 -1.9536 -1.1831 -0.7225
  930MOL0     H25494  11.060   8.386   1.210 -0.4487  1.0777 -0.1992
  930MOL0     H25495  10.893   8.134   1.290 -0.8034  0.1384 -2.5189
  930MOL0     H25496  11.061   8.122   1.238  1.2177 -0.9745  3.5391
  930MOL0     H25497  10.961   8.302   1.464 -0.6143 -1.3851  1.8691
  930MOL0     H25498  11.126   8.249   1.437  0.7786  1.4051 -2.0978
  930MOL0     H25499  10.968   8.127   1.619 -1.7322 -1.0596  0.7856
  930MOL0     H25500  10.891   8.056   1.479 -0.8970  0.3421  1.7909
  930MOL0     H25501  11.246   8.048   1.661  1.3276 -3.8931  3.3290
  930MOL0     H25502  11.470   7.822   1.589 -1.2995  1.8205  1.1072
  930MOL0     H25503  11.459   7.814   1.419 -0.7371  2.6756 -1.3641
  930MOL0     H25504  11.518   8.063   1.400 -0.5904 -0.6634 -0.9169
  930MOL0     H25505  11.542   8.052   1.579  3.1430 -0.8010  0.0027
  930MOL0     H25506  11.716   7.848   1.498 -1.1758 -0.1659 -1.2774
  930MOL0     H25507  11.746   8.019   1.552 -0.2202 -0.9591  2.7872
  930MOL0     H25508  11.866   7.965   1.349  0.2959  1.4883  2.5360
  930MOL0     H25509  11.748   8.092   1.316 -1.7589  0.0066  0.2144
  930MOL0     H25510  11.570   7.788   1.071 -1.2538  1.8198 -0.6104
  930MOL0     H25511  11.592   7.824   0.818  0.3650 -2.0778  2.1380
  930MOL0     H25512  11.790   8.354   0.497  1.9850  1.7778 -1.1032
  930MOL0     H25513  11.825   8.370   0.250 -3.6763  0.2838  0.9902
  930MOL0     H25514  12.054   8.209  -0.002 -1.3956  0.7539 -1.1818
  930MOL0     H25515  12.037   8.059   0.079  3.1580  2.9517  2.3247
  930MOL0     H25516  11.860   8.130  -0.161  0.8862  0.4074 -0.8993
  930MOL0     H25517  12.013   8.056  -0.171  1.1905  2.0921  1.1610
  930MOL0     H25518  11.943   7.854  -0.074  0.4337 -0.7513  0.3503
  930MOL0     H25519  11.810   7.925   0.012  0.0218 -1.3843 -0.4981
  930MOL0     H25520  11.681   7.974  -0.194 -0.6395 -0.4861  1.3390
  930MOL0     H25521  11.728   7.801  -0.173  3.4918 -2.0235 -2.0980
  930MOL0     H25522  11.849   8.008  -0.358 -1.7684  0.8007 -0.3387
  930MOL0     H25523  11.729   7.889  -0.398 -0.1936 -1.6275  1.2064
  930MOL0     H25524  11.993   7.773  -0.300  1.9311 -0.4800 -2.3544
  930MOL0     H25525  11.854   7.708  -0.358  0.6927 -0.3155  3.0673
  930MOL0     H25526  12.071   7.855  -0.495  0.5867 -0.7018 -1.1312
  930MOL0     H25527  11.896   7.868  -0.564 -0.3150  0.7145  1.1285
  930MOL0     H25528  11.887   7.623  -0.571  0.3802  1.3371 -1.8000
  930MOL0     H25529  12.022   7.672  -0.665  0.0283  1.4815  1.1622
  930MOL0     H25530  11.897   7.962   0.220  2.1688 -1.3543  2.9412
  930MOL0     H25531  11.899   7.933   0.460 -0.3165 -0.2037 -3.4259
  930MOL0     H25532  11.886   8.127   0.905  0.3960 -0.8169 -2.6865
  930MOL0     H25533  11.866   8.091   1.128 -3.0057  2.7653 -0.2987
  930MOL0     H25534  10.623   8.514   0.793  0.8514  0.7956 -4.0644
  930MOL0     H25535  10.452   8.411   0.652 -0.3836  1.4228 -2.4323
  930MOL0     H25536   9.987   8.467   0.515  0.6919 -0.8965  3.1118
  930MOL0     H25537   9.822   8.383   0.364 -3.1409 -2.7454 -0.1486
  930MOL0     H25538   9.778   7.960   0.372 -2.1454 -0.0858 -0.2478
  930MOL0     H25539   9.863   7.942   0.215 -0.1719 -1.9333 -0.2195
  930MOL0     H25540   9.560   7.984   0.254 -0.3906 -0.2201  0.3425
  930MOL0     H25541   9.656   7.857   0.169 -0.4581  0.7018 -3.8510
  930MOL0     H25542   9.703   7.984  -0.018 -2.4537 -1.3131 -2.8140
  930MOL0     H25543   9.657   8.140   0.060  4.5217 -0.8450 -1.4031
  930MOL0     H25544   9.508   8.078  -0.109 -0.7289  0.3158 -0.8950
  930MOL0     H25545   9.471   7.924  -0.014  0.1801 -0.0391  2.5623
  930MOL0     H25546   9.229   8.144   0.214  1.5531  2.9492 -0.9321
  930MOL0     H25547  10.007   7.994   0.387  0.5694 -0.5386  1.2269
  930MOL0     H25548  10.196   8.045   0.660  0.9742 -0.8606  0.3523
  930MOL0     H25549  10.152   7.934   0.532 -0.0979  0.5116  1.6289
  930MOL0     H25550  10.293   8.034   0.507 -1.2894 -4.0069 -4.2836
  931MOL0     O25551   2.190   2.468   3.684 -0.3047 -0.7352 -0.2721
  931MOL0     C25552   2.153   2.565   3.632 -0.2645 -0.5268 -0.1763
  931MOL0     O25553   2.204   2.691   3.644  0.0461 -0.3610 -0.6215
  931MOL0     C25554   2.321   2.714   3.704 -1.2192  0.1541  0.5138
  931MOL0     C25555   2.443   2.696   3.635  0.2987 -0.3651 -0.1778
  931MOL0     C25556   2.569   2.724   3.698 -0.2938  0.0514  0.5908
  931MOL0     C25557   2.574   2.794   3.815 -0.9732 -0.4869 -0.9284
  931MOL0     O25558   2.710   2.825   3.862  0.4291 -0.0713  0.3688
  931MOL0     C25559   2.746   2.760   3.985 -0.0539 -0.0480  0.4146
  931MOL0     C25560   2.884   2.691   3.955 -0.5883 -0.6716  0.5221
  931MOL0     C25561   2.996   2.797   3.927  0.3334 -0.1133  0.9298
  931MOL0     C25562   3.130   2.740   3.872  0.3934 -0.0141 -0.2613
  931MOL0     C25563   3.239   2.848   3.892 -0.2472 -0.5443 -0.1526
  931MOL0     C25564   3.380   2.799   3.839  0.6649  0.1186 -0.1380
  931MOL0     C25565   3.469   2.925   3.840 -0.2072  0.1118 -0.0531
  931MOL0     C25566   3.612   2.876   3.838  0.5804 -0.8860  0.4857
  931MOL0     N25567   3.700   2.992   3.827 -0.0901  0.8738 -0.2175
  931MOL0     C25568   3.833   2.993   3.859 -0.3169  0.2103 -0.6337
  931MOL0     C25569   3.880   3.109   3.806  0.4974  0.6215  0.2453
  931MOL0     C25570   4.025   3.167   3.802 -0.1815  0.2484 -0.7399
  931MOL0     C25571   4.044   3.264   3.689  0.3686 -0.3113  0.6913
  931MOL0     C25572   4.141   3.195   3.604 -0.8253  0.0915  0.5340
  931MOL0     C25573   4.186   3.271   3.468  0.5408 -0.1072 -0.3826
  931MOL0     O25574   4.295   3.197   3.406 -0.1536 -0.4826  0.7337
  931MOL0     C25575   4.428   3.238   3.425  0.7325  0.4138  0.2033
  931MOL0     C25576   4.521   3.153   3.357  0.2711 -0.3380 -0.2012
  931MOL0     C25577   4.651   3.182   3.355 -0.5994 -0.4361 -0.2042
  931MOL0     C25578   4.698   3.298   3.420 -0.1678  0.6749 -0.9023
  931MOL0     C25579   4.842   3.341   3.419  0.0255 -0.5197 -0.0649
  931MOL0     O25580   4.917   3.298   3.318  0.1951 -0.2671  0.3563
  931MOL0     C25581   5.054   3.308   3.323  0.6273 -0.0853  0.0638
  931MOL0     C25582   5.145   3.339   3.435  0.6730  0.1432 -0.0086
  931MOL0     C25583   5.282   3.364   3.405  0.1227  0.4601 -0.6669
  931MOL0     C25584   5.338   3.353   3.286  0.3107  0.4244  0.3729
  931MOL0     O25585   5.473   3.362   3.259 -0.0566 -0.5636 -0.0218
  931MOL0     C25586   5.551   3.430   3.368  0.2488 -0.0541 -0.0792
  931MOL0     C25587   5.698   3.423   3.338 -0.4860 -0.1183 -0.3415
  931MOL0     C25588   5.781   3.511   3.436  0.4847 -0.3095 -0.5804
  931MOL0     C25589   5.938   3.504   3.413 -0.4270  0.2705  0.5551
  931MOL0     C25590   6.013   3.568   3.526  0.4836  0.3472  0.5558
  931MOL0     C25591   6.028   3.476   3.646  0.0567 -0.6780 -0.6783
  931MOL0     C25592   6.113   3.544   3.747  0.5852  0.0194  0.0342
  931MOL0     C25593   6.129   3.452   3.872  0.0419 -1.2814  0.4635
  931MOL0    Cl25594   6.256   3.331   3.840 -0.0003 -0.3876 -0.3342
  931MOL0     C25595   5.264   3.309   3.180  0.9085  0.8392 -0.2508
  931MOL0     C25596   5.122   3.289   3.200 -1.2107  0.0155  0.0495
  931MOL0     O25597   4.877   3.406   3.518 -1.1238 -0.2108  0.0800
  931MOL0     C25598   4.605   3.384   3.492  0.1370 -0.3125 -0.5040
  931MOL0     C25599   4.467   3.359   3.483  0.6364 -0.1914 -0.0663
  931MOL0     N25600   3.766   3.175   3.751 -0.4205 -0.6480  0.2858
  931MOL0     N25601   3.667   3.100   3.759  0.8609 -0.4817  0.1127
  931MOL0     C25602   2.462   2.834   3.877 -0.2490 -0.0409 -0.0634
  931MOL0     C25603   2.335   2.795   3.822 -1.0573 -0.5451 -0.5387
  931MOL0     C25604   2.023   2.553   3.552  0.7118 -0.2926  0.5463
  931MOL0     C25605   1.928   2.463   3.600  0.5427  1.0023 -0.6965
  931MOL0     C25606   1.807   2.449   3.532 -0.0387  0.8499  0.5567
  931MOL0     C25607   1.783   2.517   3.415 -0.1698 -1.1512  0.1569
  931MOL0     O25608   1.679   2.487   3.328  0.3831  0.4565  0.4101
  931MOL0     C25609   1.577   2.580   3.346 -0.0666 -0.2801  0.4978
  931MOL0     C25610   1.478   2.578   3.228 -0.1412  0.2961  0.5047
  931MOL0     C25611   1.414   2.437   3.209  0.5088  0.9335  0.8762
  931MOL0     C25612   1.338   2.389   3.333  0.2055 -0.8610  0.5199
  931MOL0     C25613   1.218   2.306   3.300 -0.3626 -1.4306  0.5018
  931MOL0     C25614   1.123   2.241   3.273  0.6994 -0.0185  0.4243
  931MOL0     C25615   1.873   2.612   3.373  0.1283 -0.6180 -0.6034
  931MOL0     C25616   2.000   2.625   3.433 -0.2141  0.6064  0.1144
  931MOL0     C25617   2.107   2.712   3.369 -0.7925 -0.3631  0.9331
  931MOL0     H25618   2.446   2.643   3.540 -0.3883  0.9247 -0.9591
  931MOL0     H25619   2.661   2.686   3.654  1.8035 -0.6636  4.9726
  931MOL0     H25620   2.756   2.830   4.068 -3.9042  0.2783  0.7757
  931MOL0     H25621   2.673   2.685   4.016  0.7878 -0.7887  0.6380
  931MOL0     H25622   2.879   2.630   3.864 -1.3171  1.4815 -0.9812
  931MOL0     H25623   2.910   2.630   4.042 -2.8205  0.9887  2.4896
  931MOL0     H25624   3.026   2.852   4.017  1.5323  3.2646 -1.3269
  931MOL0     H25625   2.964   2.874   3.856  0.9003  2.0711  2.8945
  931MOL0     H25626   3.169   2.658   3.934 -1.3726 -0.7748 -0.0801
  931MOL0     H25627   3.128   2.702   3.770 -0.3611 -2.0528  0.4589
  931MOL0     H25628   3.218   2.941   3.837 -0.8908 -0.1854  0.6760
  931MOL0     H25629   3.238   2.876   3.997  0.2275  1.3095 -0.6034
  931MOL0     H25630   3.419   2.731   3.915  0.6670 -0.5543 -0.7257
  931MOL0     H25631   3.381   2.742   3.745  0.0011  0.2901 -0.2539
  931MOL0     H25632   3.460   2.989   3.928  3.2653  2.8892 -1.4646
  931MOL0     H25633   3.448   2.976   3.745  0.4032  0.7978  0.1646
  931MOL0     H25634   3.631   2.820   3.930 -0.1773 -1.0953  0.5278
  931MOL0     H25635   3.614   2.816   3.747 -1.0950 -3.8432  2.2297
  931MOL0     H25636   3.901   2.933   3.918  0.0276  0.8897 -0.3227
  931MOL0     H25637   4.028   3.221   3.897 -0.4962 -1.8745  0.5358
  931MOL0     H25638   4.108   3.096   3.801  0.1833  0.6055  1.0018
  931MOL0     H25639   3.959   3.264   3.620  1.0430 -1.2209 -0.1732
  931MOL0     H25640   4.071   3.365   3.721  0.5849  0.7078 -2.3194
  931MOL0     H25641   4.102   3.096   3.579 -2.4969  0.9300 -0.3481
  931MOL0     H25642   4.237   3.178   3.653 -0.8413  2.6078  1.5505
  931MOL0     H25643   4.214   3.375   3.488  2.6627 -0.8855  1.0592
  931MOL0     H25644   4.102   3.261   3.398 -0.3535 -0.6374  0.7445
  931MOL0     H25645   4.486   3.058   3.317 -2.7258 -0.7110  2.8529
  931MOL0     H25646   4.725   3.124   3.300  0.9063  1.3818 -0.2047
  931MOL0     H25647   5.110   3.346   3.538  1.7206 -0.0016  0.3658
  931MOL0     H25648   5.328   3.399   3.497  0.8784 -0.4660 -0.6740
  931MOL0     H25649   5.520   3.534   3.376 -1.5998 -0.3496 -2.3558
  931MOL0     H25650   5.531   3.383   3.465 -0.9274  1.2257  0.3396
  931MOL0     H25651   5.738   3.322   3.352  1.4241  0.9087  2.5174
  931MOL0     H25652   5.715   3.455   3.235  1.4667  0.9057  0.2529
  931MOL0     H25653   5.751   3.616   3.447  0.8306 -0.3903  1.6131
  931MOL0     H25654   5.765   3.458   3.530 -1.7043 -2.2742 -1.9680
  931MOL0     H25655   5.957   3.567   3.326  3.0302 -3.2508 -1.6016
  931MOL0     H25656   5.987   3.408   3.393 -2.4209 -0.6807  0.0602
  931MOL0     H25657   5.957   3.655   3.559 -0.4572  0.3620 -0.9887
  931MOL0     H25658   6.118   3.582   3.498  1.2101  0.1423  2.8846
  931MOL0     H25659   5.931   3.463   3.697  0.8884  1.9503  1.8494
  931MOL0     H25660   6.069   3.381   3.609 -0.2507 -0.4337 -1.6729
  931MOL0     H25661   6.068   3.640   3.774  2.1128  0.7093  0.2344
  931MOL0     H25662   6.213   3.559   3.706  1.3869 -1.8005  1.2011
  931MOL0     H25663   6.170   3.524   3.944 -0.7674 -0.5596  0.2311
  931MOL0     H25664   6.039   3.416   3.923  0.3247  1.0887  2.8631
  931MOL0     H25665   5.308   3.281   3.085  0.8182 -3.0237  0.6626
  931MOL0     H25666   5.071   3.247   3.114 -1.1333  0.3918 -0.1819
  931MOL0     H25667   4.634   3.471   3.549 -2.6228  0.8440 -0.7154
  931MOL0     H25668   4.398   3.430   3.529  1.9133  1.6066 -0.8426
  931MOL0     H25669   2.467   2.894   3.967  0.8282 -0.4245  0.1445
  931MOL0     H25670   2.239   2.822   3.866 -0.1960  1.0334  0.4565
  931MOL0     H25671   1.936   2.406   3.692  1.9457 -2.0022 -2.4883
  931MOL0     H25672   1.727   2.385   3.568  0.7726  1.2951  3.3324
  931MOL0     H25673   1.613   2.683   3.350 -1.7519  0.3101  1.6931
  931MOL0     H25674   1.536   2.569   3.446  3.5658 -1.8830  1.9811
  931MOL0     H25675   1.529   2.610   3.136  1.0265 -0.5077  0.8517
  931MOL0     H25676   1.409   2.658   3.255  3.3121  3.3931  0.9559
  931MOL0     H25677   1.495   2.368   3.183 -1.0718 -1.5459  2.1139
  931MOL0     H25678   1.349   2.451   3.122  1.6486 -0.0291 -0.1632
  931MOL0     H25679   1.409   2.322   3.382  1.4459 -2.2684 -2.8854
  931MOL0     H25680   1.305   2.473   3.395 -0.4699 -1.6658  1.2892
  931MOL0     H25681   1.037   2.177   3.274 -0.8368  1.9565  0.5690
  931MOL0     H25682   1.863   2.665   3.279  2.2030  0.9440 -0.0091
  931MOL0     H25683   2.085   2.734   3.264 -0.4673 -0.5862  0.8173
  931MOL0     H25684   2.120   2.807   3.422  2.7540 -0.0722 -0.1783
  931MOL0     H25685   2.211   2.678   3.364  0.2352  2.3440  2.0211
  932MOL0     O25686  11.113  11.315   8.708 -0.0768  0.5807  0.6595
  932MOL0     C25687  11.114  11.418   8.646 -0.8137  0.4354  0.6206
  932MOL0     O25688  11.222  11.477   8.595  0.0184  0.4758  0.3625
  932MOL0     C25689  11.331  11.399   8.594 -0.4020  0.1353  0.2390
  932MOL0     C25690  11.380  11.351   8.465 -0.8318 -0.7950 -1.1808
  932MOL0     C25691  11.506  11.285   8.462 -0.2656 -0.9061  0.4440
  932MOL0     C25692  11.575  11.241   8.575 -0.4954 -0.6318 -0.1396
  932MOL0     O25693  11.680  11.151   8.552  0.5429 -0.1233 -0.5363
  932MOL0     C25694  11.659  11.019   8.608 -0.7796  0.0544  0.2523
  932MOL0     C25695  11.794  10.942   8.615  0.1335 -0.2699  0.3360
  932MOL0     C25696  11.832  10.869   8.487 -0.0678  0.7544 -0.5463
  932MOL0     C25697  11.805  10.717   8.503  0.5302  0.4377 -0.3727
  932MOL0     C25698  11.829  10.632   8.380 -1.1284  0.5347 -0.1381
  932MOL0     C25699  11.810  10.485   8.418 -0.0048  0.0655  0.4549
  932MOL0     C25700  11.810  10.373   8.312  0.7641 -0.4208  0.0830
  932MOL0     C25701  11.926  10.383   8.211  0.4892 -0.3601 -0.1939
  932MOL0     N25702  11.967  10.247   8.176 -0.8756 -0.1782 -0.1309
  932MOL0     C25703  12.089  10.197   8.210 -0.1905  0.2158  0.2599
  932MOL0     C25704  12.099  10.093   8.130  0.3234  0.0897  1.0637
  932MOL0     C25705  12.221   9.996   8.131  0.2227 -0.0190 -0.1497
  932MOL0     C25706  12.282   9.956   8.000 -0.3815 -0.5703 -1.0934
  932MOL0     C25707  12.353  10.077   7.932  0.7096 -0.6090 -0.0298
  932MOL0     C25708  12.434  10.039   7.809  0.1943 -0.0305  0.2168
  932MOL0     O25709  12.528   9.938   7.832  0.4581 -1.0415 -0.0606
  932MOL0     C25710  12.628   9.958   7.927  0.5829 -0.0074 -0.2862
  932MOL0     C25711  12.699   9.845   7.976 -0.0197  0.2224 -0.0581
  932MOL0     C25712  12.797   9.848   8.075  0.0123 -0.3431 -0.3507
  932MOL0     C25713  12.841   9.967   8.118 -0.5081 -0.1975 -0.4200
  932MOL0     C25714  12.949   9.974   8.219 -0.6954  0.0395  0.6559
  932MOL0     O25715  13.021  10.096   8.222  0.0954  0.6195 -0.5627
  932MOL0     C25716  13.145  10.111   8.283 -0.5030  1.3965 -0.5478
  932MOL0     C25717  13.152  10.143   8.418 -1.0691  0.6557 -0.1994
  932MOL0     C25718  13.266  10.112   8.495  0.0202 -0.2767 -0.6073
  932MOL0     C25719  13.382  10.051   8.440  0.7322  0.0100 -0.9364
  932MOL0     O25720  13.480  10.007   8.522  0.2640  0.1850  0.8736
  932MOL0     C25721  13.567   9.900   8.481 -0.3578 -0.3604  0.5940
  932MOL0     C25722  13.638   9.829   8.606  0.9045 -0.2600  0.9087
  932MOL0     C25723  13.745   9.909   8.683 -0.3271 -0.0600  0.0463
  932MOL0     C25724  13.782   9.864   8.815  1.4156  0.2633 -0.8156
  932MOL0     C25725  13.683   9.930   8.914  0.0163 -0.4975  0.2239
  932MOL0     C25726  13.683   9.889   9.063 -0.1783 -0.5090  0.1613
  932MOL0     C25727  13.555   9.952   9.136 -0.5665  0.4591  1.0384
  932MOL0     C25728  13.535   9.920   9.288 -0.4095  0.5046  0.3934
  932MOL0    Cl25729  13.696   9.937   9.379  0.0726 -0.0170  0.0013
  932MOL0     C25730  13.378  10.029   8.299 -0.1062 -0.2874  0.8255
  932MOL0     C25731  13.265  10.058   8.218 -0.3057 -0.7815 -0.1462
  932MOL0     O25732  12.986   9.871   8.270 -0.3366  0.1463  0.1723
  932MOL0     C25733  12.777  10.081   8.067  0.0468 -0.2774  0.2465
  932MOL0     C25734  12.676  10.082   7.973  0.8596 -0.7868  0.1496
  932MOL0     N25735  11.987  10.074   8.046  0.4144  0.1764  0.1839
  932MOL0     N25736  11.912  10.178   8.075 -0.9846 -0.2151  0.5527
  932MOL0     C25737  11.524  11.282   8.701  0.2116  0.3958  0.2962
  932MOL0     C25738  11.404  11.362   8.708  0.5009 -0.6766 -0.6638
  932MOL0     C25739  10.992  11.493   8.611 -0.9472  0.1551  0.2418
  932MOL0     C25740  10.872  11.456   8.686  0.3588 -0.2586 -0.1977
  932MOL0     C25741  10.755  11.538   8.681  0.5085 -0.7474 -0.0727
  932MOL0     C25742  10.745  11.632   8.587  0.2842 -0.5201  1.0240
  932MOL0     O25743  10.621  11.684   8.576  0.3401 -0.5915 -0.0670
  932MOL0     C25744  10.602  11.808   8.512 -0.0955  0.3165  0.0369
  932MOL0     C25745  10.464  11.849   8.549 -0.9867  1.3169 -0.5996
  932MOL0     C25746  10.366  11.765   8.472  0.3049  0.1860 -1.4495
  932MOL0     C25747  10.229  11.831   8.493 -0.5251 -0.3801  0.6829
  932MOL0     C25748  10.170  11.820   8.625  0.2580 -0.6146 -0.7045
  932MOL0     C25749  10.125  11.801   8.734 -0.2944  0.0508 -0.3265
  932MOL0     C25750  10.856  11.664   8.504  0.3311 -0.1035  0.4434
  932MOL0     C25751  10.979  11.600   8.521 -0.2825  0.6100  1.2007
  932MOL0     C25752  11.089  11.658   8.429  0.1360  0.2704 -0.1027
  932MOL0     H25753  11.335  11.383   8.371 -0.6738  0.4233 -0.8522
  932MOL0     H25754  11.559  11.264   8.370  1.1631  0.9495  0.7861
  932MOL0     H25755  11.611  11.014   8.707 -2.4585  1.6148 -0.4385
  932MOL0     H25756  11.595  10.956   8.546 -0.4638 -1.6588  1.5696
  932MOL0     H25757  11.793  10.872   8.699 -0.1879  0.3239  0.8435
  932MOL0     H25758  11.875  11.012   8.637  0.6983 -1.1550  1.1356
  932MOL0     H25759  11.939  10.883   8.468  0.8711 -1.6727  2.2324
  932MOL0     H25760  11.787  10.914   8.397 -0.6984 -0.7661 -1.0294
  932MOL0     H25761  11.851  10.674   8.593 -2.6609 -1.1571  0.6321
  932MOL0     H25762  11.697  10.716   8.520  0.5944  0.4725  0.0260
  932MOL0     H25763  11.771  10.663   8.292 -0.2618 -2.1492 -1.7808
  932MOL0     H25764  11.935  10.643   8.353 -0.9263  0.9539  0.7939
  932MOL0     H25765  11.885  10.461   8.493  0.9641  3.3894  0.6900
  932MOL0     H25766  11.716  10.482   8.474  0.5654  1.5184  1.5690
  932MOL0     H25767  11.718  10.352   8.257  1.8896 -0.3295 -1.9501
  932MOL0     H25768  11.831  10.289   8.378 -0.0568 -0.8261 -0.1569
  932MOL0     H25769  11.902  10.453   8.131  1.9532 -2.4486 -2.5725
  932MOL0     H25770  12.010  10.424   8.268 -0.7934  1.8150  0.2603
  932MOL0     H25771  12.158  10.229   8.288 -2.2620  2.6589  1.2143
  932MOL0     H25772  12.301  10.041   8.190 -0.7795 -0.8721  1.9491
  932MOL0     H25773  12.201   9.897   8.173  2.1345 -1.0659 -1.5554
  932MOL0     H25774  12.351   9.874   8.021 -0.8542 -0.9376 -0.9473
  932MOL0     H25775  12.195   9.921   7.943 -1.0123 -1.5707  0.4342
  932MOL0     H25776  12.414  10.142   7.996  3.0675 -1.3178 -1.4165
  932MOL0     H25777  12.269  10.144   7.907 -1.2102 -1.9493  2.4460
  932MOL0     H25778  12.485  10.127   7.771  0.9252  0.8378  2.9532
  932MOL0     H25779  12.363  10.002   7.734 -0.3689  1.5131 -0.0408
  932MOL0     H25780  12.659   9.759   7.923  0.0811 -0.3336  0.7494
  932MOL0     H25781  12.840   9.753   8.107  1.6471  0.4204 -0.1750
  932MOL0     H25782  13.067  10.192   8.465 -2.4416 -0.3874 -1.4514
  932MOL0     H25783  13.273  10.155   8.595  0.6046 -2.1859  0.2232
  932MOL0     H25784  13.511   9.827   8.421 -0.5921  1.7814 -2.0122
  932MOL0     H25785  13.641   9.944   8.414 -0.5174 -1.7142 -0.5120
  932MOL0     H25786  13.556   9.807   8.675 -1.6527  0.0475 -1.7919
  932MOL0     H25787  13.669   9.729   8.576 -1.5742 -2.2658  4.4219
  932MOL0     H25788  13.832   9.906   8.617 -1.4907 -0.0972 -1.5601
  932MOL0     H25789  13.723  10.016   8.682  3.1409  0.7701 -1.0562
  932MOL0     H25790  13.887   9.871   8.842  0.4630  0.2966  3.5659
  932MOL0     H25791  13.758   9.757   8.816  0.4908  0.4690 -0.1110
  932MOL0     H25792  13.579   9.927   8.879 -0.5803  1.1959  1.6847
  932MOL0     H25793  13.707  10.037   8.919  1.3421 -0.6912 -1.3148
  932MOL0     H25794  13.692   9.781   9.080  0.8879 -0.1991  1.8542
  932MOL0     H25795  13.774   9.929   9.110 -0.4553 -0.7759  0.9486
  932MOL0     H25796  13.476   9.916   9.068  1.7420 -0.9384 -1.0682
  932MOL0     H25797  13.548  10.061   9.124 -7.5801  0.2044 -2.6700
  932MOL0     H25798  13.460   9.987   9.332  0.3547  1.1830  0.6808
  932MOL0     H25799  13.513   9.813   9.299 -0.9549  0.5574 -0.1507
  932MOL0     H25800  13.465   9.983   8.254 -0.1383 -2.1097  2.4598
  932MOL0     H25801  13.254  10.047   8.111  1.0294  1.2314 -0.5363
  932MOL0     H25802  12.820  10.175   8.101  2.0721 -1.1421  0.2517
  932MOL0     H25803  12.638  10.173   7.928 -0.1799 -1.5744 -0.6287
  932MOL0     H25804  11.578  11.251   8.790  1.0243 -0.6833 -0.5454
  932MOL0     H25805  11.368  11.406   8.800  1.8624  0.6338 -0.7175
  932MOL0     H25806  10.877  11.373   8.757 -0.4325  0.0469  0.2150
  932MOL0     H25807  10.670  11.516   8.745  0.2851  1.4857  0.4645
  932MOL0     H25808  10.612  11.805   8.403 -1.1719  3.8312 -0.2930
  932MOL0     H25809  10.680  11.872   8.556  0.0871 -0.8350  1.4579
  932MOL0     H25810  10.457  11.954   8.518 -1.6352  1.6915  0.7467
  932MOL0     H25811  10.449  11.838   8.656 -0.4980  1.5794 -0.4977
  932MOL0     H25812  10.355  11.667   8.521 -1.7698  1.5435  1.0490
  932MOL0     H25813  10.396  11.751   8.368  2.9880  1.5667 -0.9563
  932MOL0     H25814  10.237  11.933   8.454 -0.8171 -0.1696  1.1616
  932MOL0     H25815  10.161  11.791   8.417 -0.6903  2.7622 -1.0176
  932MOL0     H25816  10.104  11.787   8.838 -0.4605  0.4465 -0.3064
  932MOL0     H25817  10.855  11.746   8.433  3.3934 -0.8198 -0.5608
  932MOL0     H25818  11.174  11.696   8.487  1.0399 -1.0598 -0.5143
  932MOL0     H25819  11.130  11.596   8.349 -0.1546  0.0557 -0.0881
  932MOL0     H25820  11.049  11.748   8.381  1.4941  1.5358  1.0451
  933MOL0     O25821   0.454  10.774   9.556  0.1234  0.6037 -0.3646
  933MOL0     C25822   0.361  10.709   9.582  0.2787 -0.8548 -0.1817
  933MOL0     O25823   0.369  10.582   9.631 -1.0344  0.1774  0.5944
  933MOL0     C25824   0.477  10.504   9.630  0.5844  0.1990  0.6770
  933MOL0     C25825   0.478  10.375   9.574 -0.0457 -0.2862  0.7148
  933MOL0     C25826   0.590  10.291   9.558 -0.7585 -0.5963 -0.1582
  933MOL0     C25827   0.713  10.337   9.621 -0.8699 -0.0406  0.2238
  933MOL0     O25828   0.825  10.254   9.635 -0.2794  0.0984 -0.7413
  933MOL0     C25829   0.905  10.250   9.513 -0.6762  0.4899  0.4456
  933MOL0     C25830   0.996  10.371   9.485 -0.1462 -0.2618 -0.8562
  933MOL0     C25831   1.119  10.393   9.587 -0.2753  0.7276  0.5103
  933MOL0     C25832   1.197  10.518   9.549  0.8296 -0.4357 -0.1889
  933MOL0     C25833   1.288  10.549   9.669  1.0817  0.0970 -0.0400
  933MOL0     C25834   1.359  10.681   9.648 -0.0501 -0.3779  0.0462
  933MOL0     C25835   1.450  10.735   9.763  0.3544 -0.2450  0.5857
  933MOL0     C25836   1.495  10.877   9.724 -0.6182  0.3714  0.0837
  933MOL0     N25837   1.625  10.889   9.657 -0.2460  0.3275  0.3986
  933MOL0     C25838   1.701  11.002   9.629  0.4226  0.2826 -0.2324
  933MOL0     C25839   1.811  10.955   9.571 -0.1264 -0.4485  0.1490
  933MOL0     C25840   1.936  11.033   9.525  0.5305  0.8131 -0.6562
  933MOL0     C25841   2.066  10.956   9.522 -0.1740 -0.3408 -0.0555
  933MOL0     C25842   2.119  10.893   9.654  0.1918 -0.1376  0.1395
  933MOL0     C25843   2.265  10.868   9.649 -0.8499 -0.0163 -0.0018
  933MOL0     O25844   2.343  10.988   9.635 -0.0921  0.8769 -0.0623
  933MOL0     C25845   2.475  10.981   9.664 -0.1011  0.1025 -0.6453
  933MOL0     C25846   2.572  10.972   9.564 -0.7141 -1.0442  0.9584
  933MOL0     C25847   2.705  11.004   9.582 -0.2541 -0.0017  0.0360
  933MOL0     C25848   2.753  11.023   9.715 -0.4113 -0.1355 -0.1885
  933MOL0     C25849   2.894  11.048   9.749 -1.0532  0.2551 -0.6047
  933MOL0     O25850   2.929  11.052   9.880  0.3911 -1.2384 -0.1423
  933MOL0     C25851   3.057  11.093   9.906 -0.0530 -0.4533 -0.2606
  933MOL0     C25852   3.130  11.019   9.987 -0.5698  0.6672  0.2767
  933MOL0     C25853   3.259  11.047  10.017 -0.8969 -0.1009  0.1628
  933MOL0     C25854   3.325  11.163   9.964  0.4731 -0.4126  0.7596
  933MOL0     O25855   3.458  11.188  10.004  0.0072  0.3368 -0.1312
  933MOL0     C25856   3.470  11.300  10.089 -0.6347 -0.3683  0.3659
  933MOL0     C25857   3.618  11.348  10.096 -0.6981 -0.0457  0.7972
  933MOL0     C25858   3.669  11.442   9.987  0.6380 -0.3090  0.1730
  933MOL0     C25859   3.784  11.527  10.034  0.0428 -0.7405 -0.1680
  933MOL0     C25860   3.836  11.628   9.927  0.3390  0.2112 -0.4208
  933MOL0     C25861   3.969  11.695   9.972 -0.1661  0.0438  0.6067
  933MOL0     C25862   4.027  11.798   9.869 -0.9490 -0.1033  0.0089
  933MOL0     C25863   4.146  11.881   9.912 -0.2283 -0.7139  0.7537
  933MOL0    Cl25864   4.289  11.775   9.957 -0.2057  0.1611 -0.0132
  933MOL0     C25865   3.252  11.242   9.875 -0.0251 -0.0396 -0.1296
  933MOL0     C25866   3.123  11.206   9.844  0.5325  0.5227  0.2416
  933MOL0     O25867   2.972  11.054   9.652 -0.6087 -0.0719  0.0753
  933MOL0     C25868   2.656  11.030   9.822 -0.1311 -0.1623  1.1036
  933MOL0     C25869   2.515  11.013   9.794 -0.5802 -0.8387  0.8251
  933MOL0     N25870   1.788  10.820   9.543 -0.0715  0.2851  0.5352
  933MOL0     N25871   1.677  10.783   9.580  0.0506  0.4367  0.4173
  933MOL0     C25872   0.723  10.470   9.675  1.0171  0.4956 -0.8651
  933MOL0     C25873   0.602  10.549   9.689 -0.9984  0.4536 -0.5492
  933MOL0     C25874   0.223  10.771   9.564 -0.0638  0.1862  0.1958
  933MOL0     C25875   0.118  10.707   9.622  0.3618  0.4039  0.0357
  933MOL0     C25876  -0.018  10.752   9.613  0.2045  0.7225 -0.0185
  933MOL0     C25877  -0.041  10.865   9.538  0.4340 -0.0974  0.3961
  933MOL0     O25878  -0.159  10.923   9.516  0.1823 -0.1033 -0.0412
  933MOL0     C25879  -0.282  10.874   9.561 -0.8003 -0.0827 -0.7811
  933MOL0     C25880  -0.316  10.760   9.463 -0.3104  0.4308 -0.0039
  933MOL0     C25881  -0.348  10.822   9.325 -0.2720  0.4782 -0.7109
  933MOL0     C25882  -0.381  10.697   9.233 -0.0976 -1.5129  0.3212
  933MOL0     C25883  -0.439  10.732   9.105 -0.5709 -0.0710 -0.4398
  933MOL0     C25884  -0.504  10.759   9.001  0.2891  0.1914 -0.1904
  933MOL0     C25885   0.069  10.935   9.487 -0.2027  0.2589 -0.1573
  933MOL0     C25886   0.201  10.889   9.486 -0.2432  0.1295  0.1036
  933MOL0     C25887   0.302  10.969   9.415  0.7234  0.4217  0.1053
  933MOL0     H25888   0.392  10.349   9.513 -0.8708  2.1687  0.7400
  933MOL0     H25889   0.577  10.190   9.521 -0.8601 -1.2666  1.6006
  933MOL0     H25890   0.971  10.162   9.516 -3.3965 -1.7813 -1.1237
  933MOL0     H25891   0.835  10.226   9.432 -0.2135 -0.6552  0.3601
  933MOL0     H25892   0.943  10.466   9.490  0.9482  0.3789 -1.1273
  933MOL0     H25893   1.041  10.355   9.386 -1.1433  1.9363 -1.7271
  933MOL0     H25894   1.180  10.302   9.579 -0.9600  0.3751 -1.2824
  933MOL0     H25895   1.095  10.392   9.693  1.2653 -1.0226  0.9015
  933MOL0     H25896   1.243  10.515   9.449 -0.8706  3.0028 -1.2496
  933MOL0     H25897   1.122  10.596   9.535  1.0667  0.0003  0.8716
  933MOL0     H25898   1.222  10.566   9.755  0.4854 -1.3005 -0.1970
  933MOL0     H25899   1.365  10.471   9.678  3.1194  1.7335 -2.1281
  933MOL0     H25900   1.423  10.664   9.561 -0.4163  0.8123 -0.4759
  933MOL0     H25901   1.284  10.753   9.616 -0.2157 -0.0235  1.2052
  933MOL0     H25902   1.531  10.664   9.778 -0.6991 -1.1124  2.5562
  933MOL0     H25903   1.404  10.743   9.862  2.3094 -0.0020  1.5217
  933MOL0     H25904   1.422  10.929   9.661 -0.9258 -0.4239 -0.2302
  933MOL0     H25905   1.487  10.930   9.818  2.7761 -0.0981  0.7500
  933MOL0     H25906   1.686  11.105   9.659  2.0572  0.5238 -0.1644
  933MOL0     H25907   1.918  11.072   9.424 -0.9558 -2.3724 -1.7625
  933MOL0     H25908   1.937  11.114   9.598 -2.5818  0.5812 -0.2342
  933MOL0     H25909   2.067  10.874   9.449  1.9014 -0.4383  0.0263
  933MOL0     H25910   2.145  11.024   9.491  0.5562 -0.6184  1.1362
  933MOL0     H25911   2.072  10.797   9.677  0.3822 -0.0196  1.0525
  933MOL0     H25912   2.098  10.957   9.740 -3.2209 -1.0661  0.1573
  933MOL0     H25913   2.291  10.802   9.566  0.1376 -0.4105  0.6017
  933MOL0     H25914   2.296  10.820   9.743  2.3003  0.1810 -0.8234
  933MOL0     H25915   2.536  10.957   9.463 -0.7637 -0.4780  0.8915
  933MOL0     H25916   2.777  11.012   9.502  3.5124 -0.3281  3.1159
  933MOL0     H25917   3.088  10.930  10.032  0.9647  1.1107  2.7528
  933MOL0     H25918   3.320  10.997  10.091 -2.9579  0.4136  2.3445
  933MOL0     H25919   3.410  11.378  10.044  0.6152 -0.4458 -1.5423
  933MOL0     H25920   3.430  11.280  10.189 -1.9836  0.8593  0.0907
  933MOL0     H25921   3.631  11.411  10.185  1.9947  1.6195 -0.6403
  933MOL0     H25922   3.684  11.261  10.104  1.2821  0.6473 -4.3725
  933MOL0     H25923   3.688  11.391   9.892 -1.0718  1.1712 -1.0026
  933MOL0     H25924   3.589  11.514   9.967  0.1140 -0.0259  2.9422
  933MOL0     H25925   3.865  11.459  10.061  2.6151  1.2767 -2.3085
  933MOL0     H25926   3.760  11.572  10.131  0.6364 -1.6979  0.4383
  933MOL0     H25927   3.768  11.708   9.898  0.5887  0.4097 -0.4628
  933MOL0     H25928   3.844  11.578   9.830 -1.9369  1.8937 -1.5655
  933MOL0     H25929   3.951  11.740  10.070 -1.8705  2.0783 -0.5464
  933MOL0     H25930   4.042  11.614   9.977  0.8232  0.4966 -3.3088
  933MOL0     H25931   3.939  11.860   9.846 -0.5251  0.5181  0.0400
  933MOL0     H25932   4.056  11.741   9.780  1.3959 -0.5276  0.9705
  933MOL0     H25933   4.161  11.953   9.831 -0.1044 -1.9155 -0.3026
  933MOL0     H25934   4.120  11.937  10.003  1.0583  0.2184  0.5756
  933MOL0     H25935   3.310  11.318   9.823  0.7651  1.3740  2.6297
  933MOL0     H25936   3.068  11.254   9.764 -1.6581 -1.6236  0.3434
  933MOL0     H25937   2.689  11.054   9.922 -0.2896  1.8755  0.6934
  933MOL0     H25938   2.437  11.027   9.868 -2.9048 -0.4110 -1.5512
  933MOL0     H25939   0.806  10.511   9.731 -1.3675  2.3097  1.6817
  933MOL0     H25940   0.600  10.651   9.725 -0.4569  0.5093 -0.6731
  933MOL0     H25941   0.140  10.616   9.678  1.2329 -0.2639 -1.3404
  933MOL0     H25942  -0.099  10.699   9.662  1.8005 -0.2020  1.7155
  933MOL0     H25943  -0.361  10.949   9.546  0.3832  1.8888  2.0600
  933MOL0     H25944  -0.289  10.839   9.665 -1.7852 -2.4395 -1.5638
  933MOL0     H25945  -0.403  10.709   9.506  1.4002 -1.9448  0.8973
  933MOL0     H25946  -0.237  10.685   9.450  1.2831  1.9322  0.6018
  933MOL0     H25947  -0.264  10.872   9.276  0.1199  0.5547  0.0326
  933MOL0     H25948  -0.416  10.906   9.337  0.4678  0.6719  3.8397
  933MOL0     H25949  -0.303  10.624   9.213 -1.6497 -3.0767 -0.2295
  933MOL0     H25950  -0.460  10.639   9.281  1.9855 -3.3365  1.7468
  933MOL0     H25951  -0.559  10.771   8.910  2.9132  0.0869 -1.8715
  933MOL0     H25952   0.052  11.029   9.436 -2.0894  0.4727  0.7992
  933MOL0     H25953   0.378  10.911   9.363  1.6513  1.4018  0.3519
  933MOL0     H25954   0.256  11.023   9.332  1.3905  0.9233  0.0572
  933MOL0     H25955   0.359  11.027   9.487 -0.6105 -0.5603  2.0677
  934MOL0     O25956   8.855   3.968   6.994  0.1006 -0.3414 -0.2985
  934MOL0     C25957   8.800   4.021   6.895 -0.3613 -0.5949 -0.0113
  934MOL0     O25958   8.707   4.115   6.906 -0.2651  0.0335  0.1441
  934MOL0     C25959   8.665   4.155   7.031  0.6060 -0.1358  0.0192
  934MOL0     C25960   8.750   4.233   7.112 -0.9002  0.0970  0.7995
  934MOL0     C25961   8.711   4.276   7.234  0.2843 -0.0045 -0.4748
  934MOL0     C25962   8.592   4.209   7.288 -0.1623  0.3950  0.1148
  934MOL0     O25963   8.566   4.215   7.419  0.2074 -0.8547 -0.0168
  934MOL0     C25964   8.620   4.104   7.493 -0.0863  0.3402  0.8048
  934MOL0     C25965   8.764   4.128   7.540 -0.2826 -0.5263  0.1911
  934MOL0     C25966   8.771   4.239   7.648 -0.4029 -0.1730  0.6294
  934MOL0     C25967   8.907   4.247   7.724 -0.6459  0.2192 -0.3942
  934MOL0     C25968   8.913   4.330   7.853 -0.1044 -0.5235  0.1492
  934MOL0     C25969   8.868   4.477   7.827  0.3827 -0.9372  0.4236
  934MOL0     C25970   8.912   4.570   7.933  0.2651 -0.2299 -0.1501
  934MOL0     C25971   9.048   4.628   7.908 -0.6535  0.0078  0.3387
  934MOL0     N25972   9.112   4.694   8.027  0.2042 -0.1788 -0.1054
  934MOL0     C25973   9.130   4.613   8.140  0.0146  0.0362 -0.3693
  934MOL0     C25974   9.165   4.695   8.240 -0.3303  0.3692  1.2248
  934MOL0     C25975   9.210   4.652   8.376  0.0591  0.6537 -0.1576
  934MOL0     C25976   9.094   4.678   8.475  0.6803  0.4595 -0.3926
  934MOL0     C25977   9.058   4.827   8.496  0.2269  0.3514 -0.3019
  934MOL0     C25978   8.995   4.859   8.637  0.4020 -0.1889 -1.1127
  934MOL0     O25979   9.083   4.839   8.750  0.1326 -0.7703  0.6984
  934MOL0     C25980   9.186   4.928   8.774  0.0144 -0.3509 -0.2696
  934MOL0     C25981   9.195   5.061   8.723  0.1364  0.9523 -0.1634
  934MOL0     C25982   9.297   5.151   8.763 -0.9361 -0.1862  0.5240
  934MOL0     C25983   9.386   5.104   8.863 -0.3146  0.4731 -0.0573
  934MOL0     C25984   9.495   5.200   8.924  0.0674 -0.9595  0.1292
  934MOL0     O25985   9.476   5.338   8.901  0.7738  0.1602  0.1311
  934MOL0     C25986   9.574   5.430   8.926  0.3515 -0.0755  0.9056
  934MOL0     C25987   9.542   5.553   8.979 -0.5156 -1.3999 -0.3624
  934MOL0     C25988   9.641   5.655   8.981  0.6444  0.8712  0.8273
  934MOL0     C25989   9.764   5.640   8.915 -0.1256  0.9118  0.0303
  934MOL0     O25990   9.860   5.731   8.930  0.0228 -1.0931  0.3925
  934MOL0     C25991   9.987   5.722   8.862  0.2500  0.0798 -0.4655
  934MOL0     C25992  10.047   5.863   8.868 -0.0413 -0.8582  0.0119
  934MOL0     C25993  10.184   5.864   8.801 -0.4659  0.2893  0.0757
  934MOL0     C25994  10.220   6.009   8.766 -0.7119  0.4060 -0.3881
  934MOL0     C25995  10.365   6.042   8.747  0.1543  0.4444 -0.4867
  934MOL0     C25996  10.466   6.012   8.854  0.1187  0.5072 -0.2460
  934MOL0     C25997  10.617   6.026   8.820 -0.4514  0.4307 -0.1259
  934MOL0     C25998  10.703   6.048   8.956  0.1396  0.2914 -0.5248
  934MOL0    Cl25999  10.786   6.206   8.956 -0.0903  0.8296 -0.4534
  934MOL0     C26000   9.796   5.511   8.856  0.6498  0.4193 -0.7396
  934MOL0     C26001   9.694   5.402   8.863  0.8747 -0.3104  0.2534
  934MOL0     O26002   9.593   5.149   8.978 -0.0992 -0.7895  0.3941
  934MOL0     C26003   9.394   4.964   8.884  0.5694 -0.5411  0.5089
  934MOL0     C26004   9.292   4.876   8.849 -0.8927 -0.4967 -1.0753
  934MOL0     N26005   9.155   4.824   8.191 -0.2254 -0.3840 -0.3089
  934MOL0     N26006   9.119   4.826   8.065  0.5471  0.2966  0.0472
  934MOL0     C26007   8.516   4.113   7.216 -0.3676 -0.5723  0.7056
  934MOL0     C26008   8.547   4.097   7.077  0.0052 -0.3863 -0.1809
  934MOL0     C26009   8.822   3.948   6.766  0.3499 -0.3046  0.2779
  934MOL0     C26010   8.718   3.945   6.673  0.3081 -0.4942  0.3522
  934MOL0     C26011   8.728   3.871   6.556 -0.0857  0.5515 -0.2417
  934MOL0     C26012   8.841   3.795   6.524  0.2491 -0.4568 -0.0449
  934MOL0     O26013   8.864   3.723   6.408 -0.8171 -0.9237 -0.1441
  934MOL0     C26014   8.792   3.601   6.402  1.0890 -0.6757 -0.6126
  934MOL0     C26015   8.854   3.490   6.317  0.0583 -0.6664 -0.4206
  934MOL0     C26016   8.858   3.530   6.176  0.0857 -0.4761 -0.9576
  934MOL0     C26017   8.888   3.401   6.099  0.0959  0.1261  0.1238
  934MOL0     C26018   9.031   3.364   6.114  0.5060  0.1356  1.1758
  934MOL0     C26019   9.151   3.345   6.131 -0.3527 -0.3092  0.5578
  934MOL0     C26020   8.938   3.791   6.617  0.0603 -0.1001  0.6988
  934MOL0     C26021   8.931   3.862   6.735 -0.2184  0.0904 -0.2090
  934MOL0     C26022   9.057   3.880   6.811 -0.5703  0.4216  0.2611
  934MOL0     H26023   8.835   4.272   7.057 -2.2102  1.6518 -0.2174
  934MOL0     H26024   8.771   4.349   7.287 -0.3430 -0.6390  1.2125
  934MOL0     H26025   8.556   4.092   7.581 -2.2877  0.3491 -0.7131
  934MOL0     H26026   8.610   4.015   7.429 -0.2941  0.7077  0.3260
  934MOL0     H26027   8.820   4.153   7.449  0.4274  2.6261  1.3562
  934MOL0     H26028   8.801   4.033   7.580 -3.7879 -1.7745  0.8216
  934MOL0     H26029   8.689   4.236   7.720 -0.3464 -0.0146  0.7043
  934MOL0     H26030   8.763   4.337   7.599 -0.7196 -0.5898 -0.1653
  934MOL0     H26031   8.941   4.146   7.750  0.9816  0.6239 -0.8907
  934MOL0     H26032   8.984   4.280   7.654 -2.7152 -0.5747 -3.2217
  934MOL0     H26033   8.855   4.286   7.934  0.6935 -1.4723  0.2306
  934MOL0     H26034   9.013   4.337   7.897 -0.9695  0.4454  2.0253
  934MOL0     H26035   8.917   4.499   7.732  1.0170 -2.9285  0.2635
  934MOL0     H26036   8.760   4.495   7.830  0.5553  0.1581  2.4964
  934MOL0     H26037   8.908   4.520   8.030  2.0608 -2.8198 -1.3058
  934MOL0     H26038   8.841   4.654   7.931 -1.5502 -1.6952 -0.6199
  934MOL0     H26039   9.118   4.549   7.883 -0.1114 -0.1643  2.2574
  934MOL0     H26040   9.027   4.700   7.828 -2.3697  0.2478  0.9493
  934MOL0     H26041   9.113   4.506   8.138  3.1958 -0.6471  2.0215
  934MOL0     H26042   9.233   4.545   8.382  0.2696  0.5775 -1.9153
  934MOL0     H26043   9.300   4.709   8.398  0.0739  0.6406 -0.1864
  934MOL0     H26044   9.014   4.614   8.438  0.2148 -0.6563  2.3171
  934MOL0     H26045   9.122   4.644   8.576  1.1452  1.5815 -0.1374
  934MOL0     H26046   8.982   4.855   8.422  0.2198 -1.5390 -1.0669
  934MOL0     H26047   9.138   4.897   8.471 -0.9192  2.2002  0.9277
  934MOL0     H26048   8.906   4.799   8.658  2.6830 -2.8219  2.2876
  934MOL0     H26049   8.945   4.956   8.638 -2.0194 -1.2820  2.8187
  934MOL0     H26050   9.115   5.115   8.674 -1.8251 -0.7798  0.9629
  934MOL0     H26051   9.305   5.257   8.741 -0.9284 -0.3697 -0.3658
  934MOL0     H26052   9.443   5.587   9.011 -0.1833  2.1668 -2.5061
  934MOL0     H26053   9.638   5.737   9.052 -1.7607 -2.7301  5.3857
  934MOL0     H26054  10.046   5.656   8.925 -0.6730  1.5197  2.0394
  934MOL0     H26055   9.980   5.682   8.760 -1.5901 -0.3097 -0.2148
  934MOL0     H26056   9.985   5.938   8.817  3.8497  2.2112 -0.6870
  934MOL0     H26057  10.046   5.902   8.970 -3.3800 -1.3483  0.2914
  934MOL0     H26058  10.260   5.830   8.872 -0.1413  0.0453 -0.3839
  934MOL0     H26059  10.201   5.798   8.716 -1.1008 -1.5973  1.3406
  934MOL0     H26060  10.179   6.088   8.829  2.8265  1.1036  1.2916
  934MOL0     H26061  10.192   6.038   8.665  2.1731  0.9364 -1.1270
  934MOL0     H26062  10.382   6.149   8.731  0.2255  0.6039  0.5992
  934MOL0     H26063  10.402   6.002   8.652  0.3387 -2.0205  0.5418
  934MOL0     H26064  10.431   6.069   8.941  1.0605 -1.1736  1.3315
  934MOL0     H26065  10.459   5.904   8.875 -0.5344  0.9092  1.8905
  934MOL0     H26066  10.611   6.115   8.756 -3.6115  0.4006 -0.0437
  934MOL0     H26067  10.652   5.950   8.751  2.4566  2.2063 -0.7970
  934MOL0     H26068  10.632   6.045   9.039  0.2905 -1.5161 -0.4122
  934MOL0     H26069  10.772   5.963   8.951 -1.8334 -1.3760 -0.8217
  934MOL0     H26070   9.894   5.501   8.810  1.2584 -1.8216  0.8438
  934MOL0     H26071   9.716   5.308   8.814  0.1879 -1.6557  2.4110
  934MOL0     H26072   9.480   4.919   8.932  1.3454  0.0894 -0.2529
  934MOL0     H26073   9.299   4.773   8.881  0.9927  0.7134  3.0370
  934MOL0     H26074   8.440   4.059   7.271 -1.1527 -0.4489 -0.2257
  934MOL0     H26075   8.491   4.035   7.008 -1.5865 -0.5665  1.2032
  934MOL0     H26076   8.626   3.999   6.697  0.8198  0.9465 -0.7856
  934MOL0     H26077   8.647   3.869   6.483 -0.4775 -0.0953  0.2082
  934MOL0     H26078   8.689   3.628   6.376  1.4357 -0.2781 -1.6555
  934MOL0     H26079   8.794   3.565   6.505 -1.5035 -2.9829 -1.2566
  934MOL0     H26080   8.792   3.402   6.332 -0.1059 -0.3935  0.5505
  934MOL0     H26081   8.956   3.461   6.342 -1.0993 -3.6185  1.2580
  934MOL0     H26082   8.934   3.602   6.145  0.4292 -0.7500 -0.7502
  934MOL0     H26083   8.761   3.575   6.153 -0.4169 -1.2706 -0.4518
  934MOL0     H26084   8.817   3.327   6.136  0.1570 -0.0940 -0.1918
  934MOL0     H26085   8.879   3.416   5.991  3.1230 -4.2248 -1.0127
  934MOL0     H26086   9.255   3.329   6.152 -0.6241  1.7096  4.5745
  934MOL0     H26087   9.034   3.747   6.593 -0.2447 -0.5450  0.2913
  934MOL0     H26088   9.088   3.984   6.816  0.5708  0.1313 -0.2804
  934MOL0     H26089   9.044   3.847   6.914 -2.4508 -0.6180 -0.2501
  934MOL0     H26090   9.137   3.824   6.761  1.2932  1.3518  2.0573
  935MOL0     O26091   2.555   9.830   8.334 -0.3280  0.8853  0.1992
  935MOL0     C26092   2.662   9.817   8.275  0.0141 -0.3285 -0.6894
  935MOL0     O26093   2.729   9.693   8.255 -0.2644 -0.8506 -0.4577
  935MOL0     C26094   2.703   9.583   8.333  0.9062 -0.2671  0.2894
  935MOL0     C26095   2.775   9.466   8.288  0.6105 -0.2793 -0.5464
  935MOL0     C26096   2.765   9.344   8.358  0.1595 -0.4196 -0.1322
  935MOL0     C26097   2.694   9.326   8.476  0.0677 -0.5534 -0.3978
  935MOL0     O26098   2.713   9.206   8.543 -0.3303 -0.4826 -0.1571
  935MOL0     C26099   2.618   9.178   8.657 -0.3173  0.8111 -0.3595
  935MOL0     C26100   2.627   9.034   8.708  0.3915 -0.2541 -0.0541
  935MOL0     C26101   2.769   9.015   8.776 -0.3511  0.3220 -0.3222
  935MOL0     C26102   2.777   8.889   8.861 -0.3688  0.1034 -0.0009
  935MOL0     C26103   2.718   8.758   8.807 -0.2136 -0.3864  0.3027
  935MOL0     C26104   2.793   8.693   8.694 -0.2556  0.8425 -0.1098
  935MOL0     C26105   2.888   8.589   8.759  0.2182  1.1197 -0.0281
  935MOL0     C26106   3.009   8.548   8.679 -0.3021  0.5980  0.5898
  935MOL0     N26107   3.130   8.634   8.679  0.3110  0.3294  0.8729
  935MOL0     C26108   3.170   8.706   8.796 -0.9879  0.0489 -0.1520
  935MOL0     C26109   3.282   8.773   8.753 -0.2724  0.1000  0.4322
  935MOL0     C26110   3.365   8.868   8.838  0.1329  0.8053 -0.3344
  935MOL0     C26111   3.496   8.908   8.777 -0.1776  0.0309 -0.2445
  935MOL0     C26112   3.588   8.975   8.873  0.6269  0.0946  0.5541
  935MOL0     C26113   3.679   9.063   8.800  0.1489 -0.2114  0.0029
  935MOL0     O26114   3.602   9.171   8.746 -0.3875 -0.1490  0.1295
  935MOL0     C26115   3.686   9.261   8.691 -0.2672 -0.6257 -0.3136
  935MOL0     C26116   3.734   9.244   8.562 -0.6916  0.0521 -0.4734
  935MOL0     C26117   3.821   9.339   8.511  0.0557 -0.3094  0.2340
  935MOL0     C26118   3.872   9.452   8.580  0.4953  0.5103 -0.2425
  935MOL0     C26119   3.980   9.530   8.519  0.7756  0.2033 -0.0042
  935MOL0     O26120   4.011   9.511   8.383 -0.3002 -0.2129 -0.1542
  935MOL0     C26121   4.134   9.546   8.329  0.1073  0.0243  0.2043
  935MOL0     C26122   4.193   9.677   8.348 -0.2705 -0.2986 -0.6627
  935MOL0     C26123   4.302   9.724   8.274  0.3811 -0.1857 -0.6946
  935MOL0     C26124   4.357   9.642   8.174 -0.0458  0.1772 -0.3508
  935MOL0     O26125   4.460   9.679   8.092  0.0171  0.2812 -0.8133
  935MOL0     C26126   4.503   9.823   8.083  0.0315 -0.9443 -0.2328
  935MOL0     C26127   4.651   9.826   8.040 -0.9013 -0.2887 -0.4758
  935MOL0     C26128   4.734   9.800   8.165  0.0311  0.0646 -0.5287
  935MOL0     C26129   4.870   9.866   8.145 -0.2623  0.0484 -0.0899
  935MOL0     C26130   4.969   9.835   8.268  0.9379 -0.1100  0.8498
  935MOL0     C26131   5.097   9.903   8.254  0.0885  0.2735 -0.4660
  935MOL0     C26132   5.175   9.825   8.147  0.4678 -0.4147 -0.4705
  935MOL0     C26133   5.314   9.883   8.147 -1.1898  1.0889 -0.4028
  935MOL0    Cl26134   5.334  10.036   8.051  0.5929  0.2686  0.0471
  935MOL0     C26135   4.308   9.508   8.158  0.3391  0.3153 -0.7019
  935MOL0     C26136   4.201   9.458   8.236 -0.4053 -0.5278  0.4733
  935MOL0     O26137   4.037   9.610   8.598 -0.5931 -0.4953 -0.1425
  935MOL0     C26138   3.819   9.471   8.708 -0.0632 -0.3184  0.0569
  935MOL0     C26139   3.727   9.383   8.757 -0.4902  0.3422 -0.2205
  935MOL0     N26140   3.295   8.752   8.620  0.3262 -0.0375 -1.1473
  935MOL0     N26141   3.208   8.665   8.573  1.0283 -0.2961 -0.4701
  935MOL0     C26142   2.619   9.442   8.517  0.3179  0.3872 -0.6406
  935MOL0     C26143   2.624   9.569   8.450 -0.2420  0.1295 -0.0782
  935MOL0     C26144   2.709   9.941   8.201  0.3409  0.5062  0.4201
  935MOL0     C26145   2.635  10.063   8.210 -0.4570  0.1730 -0.0099
  935MOL0     C26146   2.682  10.169   8.135  0.5563  0.9730 -0.2102
  935MOL0     C26147   2.785  10.167   8.044 -0.8233  0.2023  0.1474
  935MOL0     O26148   2.833  10.275   7.978  0.5081 -0.2436  0.5773
  935MOL0     C26149   2.752  10.392   7.988  0.4813 -0.9405  0.1333
  935MOL0     C26150   2.831  10.497   7.918  0.2522 -0.6457  0.1432
  935MOL0     C26151   2.930  10.571   8.005 -0.5696  0.1549  0.4476
  935MOL0     C26152   3.018  10.675   7.930  0.1378  0.4344 -0.0323
  935MOL0     C26153   2.945  10.799   7.911 -0.0522 -0.6690  0.4596
  935MOL0     C26154   2.877  10.900   7.890  0.5501 -0.2739  0.1350
  935MOL0     C26155   2.855  10.046   8.038 -0.4958 -0.4079  1.9666
  935MOL0     C26156   2.818   9.928   8.110  0.1182  0.2495  0.3674
  935MOL0     C26157   2.925   9.814   8.096  0.0904  0.2257 -0.5808
  935MOL0     H26158   2.827   9.477   8.193  0.7385  0.6699 -0.3783
  935MOL0     H26159   2.819   9.263   8.309 -1.1395 -1.2202 -0.3100
  935MOL0     H26160   2.645   9.244   8.740  0.8180  0.8946 -0.7684
  935MOL0     H26161   2.516   9.203   8.627 -0.4573  1.3893  0.5441
  935MOL0     H26162   2.622   8.964   8.624 -0.7914 -1.2842  0.8569
  935MOL0     H26163   2.544   9.021   8.777 -0.8478  0.0620 -1.4495
  935MOL0     H26164   2.801   9.101   8.837 -0.0507 -0.6994  0.9955
  935MOL0     H26165   2.844   9.016   8.697  0.4003 -1.1088  0.3240
  935MOL0     H26166   2.882   8.873   8.890 -0.2352  3.2015  1.6749
  935MOL0     H26167   2.736   8.909   8.961  2.5953 -1.9757  1.7935
  935MOL0     H26168   2.702   8.687   8.889  0.9197 -1.5009 -0.3965
  935MOL0     H26169   2.627   8.799   8.764  1.0841  2.8494  0.3491
  935MOL0     H26170   2.727   8.644   8.622 -1.1521  1.4431  0.2895
  935MOL0     H26171   2.852   8.765   8.637 -0.8390 -0.4600 -2.4713
  935MOL0     H26172   2.837   8.496   8.782 -1.9186  1.6448 -2.2167
  935MOL0     H26173   2.919   8.621   8.859 -2.2296  3.5669  0.0698
  935MOL0     H26174   3.049   8.459   8.729 -1.0128 -0.5384 -0.7876
  935MOL0     H26175   2.983   8.524   8.575 -2.3627 -2.0424  1.5815
  935MOL0     H26176   3.133   8.712   8.898  1.6139 -2.6275  1.1372
  935MOL0     H26177   3.309   8.961   8.850 -3.3033 -0.8266 -2.1701
  935MOL0     H26178   3.382   8.819   8.934 -1.2920  1.8745  0.5049
  935MOL0     H26179   3.540   8.814   8.745 -1.0714 -0.4831  0.0088
  935MOL0     H26180   3.491   8.966   8.684 -3.0008  1.6239  0.7618
  935MOL0     H26181   3.642   8.901   8.932  0.9009  0.9951  1.4590
  935MOL0     H26182   3.533   9.036   8.946 -0.4505  0.7354 -0.7425
  935MOL0     H26183   3.735   9.001   8.729 -1.4497 -2.4528  0.5999
  935MOL0     H26184   3.742   9.094   8.884 -1.3744 -1.0262  1.5076
  935MOL0     H26185   3.711   9.154   8.505 -0.7813 -1.8865  2.3627
  935MOL0     H26186   3.860   9.308   8.414 -0.5980 -4.6015  1.1113
  935MOL0     H26187   4.152   9.747   8.420  1.6879  0.1410  0.0859
  935MOL0     H26188   4.331   9.828   8.286 -2.6725  0.8601 -1.5629
  935MOL0     H26189   4.451   9.889   8.013  2.5428  0.2517 -1.0789
  935MOL0     H26190   4.496   9.872   8.181 -2.5666 -1.8915  0.1412
  935MOL0     H26191   4.664   9.740   7.974 -0.6182 -2.7318  2.5251
  935MOL0     H26192   4.673   9.919   7.987  3.2679 -0.7610  0.1099
  935MOL0     H26193   4.694   9.852   8.253  2.4525  0.7882  0.2243
  935MOL0     H26194   4.732   9.694   8.191 -2.4967  0.2476  0.2795
  935MOL0     H26195   4.866   9.973   8.126  0.8068  0.1665  0.2844
  935MOL0     H26196   4.898   9.821   8.049  0.0329  0.1073 -0.0316
  935MOL0     H26197   4.994   9.731   8.291  3.6465  1.0143  3.5997
  935MOL0     H26198   4.925   9.878   8.358 -1.3714 -0.0637 -0.2235
  935MOL0     H26199   5.090  10.008   8.227 -0.2664  0.2007 -0.6610
  935MOL0     H26200   5.150   9.891   8.349 -0.3705  0.9746 -0.1158
  935MOL0     H26201   5.122   9.853   8.055 -2.1980 -0.3335  0.9874
  935MOL0     H26202   5.173   9.718   8.167 -2.4599 -0.0315  2.0377
  935MOL0     H26203   5.352   9.892   8.249 -0.7806  0.6953 -0.5149
  935MOL0     H26204   5.377   9.806   8.100 -1.2468  0.6852  0.1698
  935MOL0     H26205   4.367   9.447   8.090  3.0362  1.0332  0.8207
  935MOL0     H26206   4.153   9.362   8.221 -0.8445 -0.2652  0.2032
  935MOL0     H26207   3.849   9.547   8.780  0.0792 -1.3466  1.1143
  935MOL0     H26208   3.682   9.394   8.855  3.0107 -1.7248  1.8014
  935MOL0     H26209   2.556   9.440   8.606 -0.5386 -2.5299 -1.2108
  935MOL0     H26210   2.565   9.652   8.487 -1.4518  0.4446 -2.4960
  935MOL0     H26211   2.552  10.076   8.278  0.2569  1.6281  0.6307
  935MOL0     H26212   2.618  10.256   8.153 -1.6702 -0.5977 -0.1061
  935MOL0     H26213   2.746  10.420   8.093  1.4613  1.0007 -0.2824
  935MOL0     H26214   2.650  10.376   7.953 -0.2313  1.6707  0.8280
  935MOL0     H26215   2.758  10.570   7.882 -1.6064 -1.9015  1.2382
  935MOL0     H26216   2.886  10.447   7.837  1.0404  0.8510 -0.2996
  935MOL0     H26217   2.992  10.496   8.054 -2.5388 -2.7541 -1.2359
  935MOL0     H26218   2.871  10.631   8.074 -2.4328 -0.1320 -0.8152
  935MOL0     H26219   3.106  10.701   7.991 -0.3368 -0.0941  0.8933
  935MOL0     H26220   3.050  10.635   7.833 -0.9613 -1.5048  0.3606
  935MOL0     H26221   2.824  10.990   7.868 -2.2856 -1.5545  1.2179
  935MOL0     H26222   2.941  10.039   7.973 -2.3430 -2.9788 -0.4425
  935MOL0     H26223   2.965   9.779   8.192  1.0963 -1.4671 -1.5663
  935MOL0     H26224   2.879   9.726   8.049 -0.9687  0.3728  0.1352
  935MOL0     H26225   3.010   9.847   8.036  2.5049 -1.1818  1.8407
  936MOL0     O26226   7.031  11.039   5.627 -0.5196 -0.0330  0.6011
  936MOL0     C26227   7.010  10.993   5.743 -0.1160  0.3055 -0.1550
  936MOL0     O26228   7.096  10.997   5.844 -0.5952  0.1516 -0.1624
  936MOL0     C26229   7.217  11.057   5.835 -0.0756  0.8198  0.5509
  936MOL0     C26230   7.311  11.039   5.738  0.0843 -0.1057  1.1586
  936MOL0     C26231   7.440  11.099   5.744  0.7435  0.5604 -0.1879
  936MOL0     C26232   7.462  11.190   5.843  0.0039 -0.2498  0.6816
  936MOL0     O26233   7.579  11.258   5.859 -0.3524  0.1242 -0.8384
  936MOL0     C26234   7.695  11.243   5.781 -0.0960  0.5856  0.0788
  936MOL0     C26235   7.807  11.296   5.865 -0.8455 -0.2326  0.3615
  936MOL0     C26236   7.952  11.305   5.806 -0.3901  0.4917  0.0840
  936MOL0     C26237   8.062  11.303   5.912  0.4101 -0.1338  0.6354
  936MOL0     C26238   8.205  11.337   5.865  0.7083 -0.4395 -0.3442
  936MOL0     C26239   8.204  11.480   5.796  0.4536 -0.2145 -0.2726
  936MOL0     C26240   8.345  11.528   5.774 -0.4451 -0.6026 -0.3440
  936MOL0     C26241   8.398  11.575   5.908 -0.1829  0.9495  0.1206
  936MOL0     N26242   8.539  11.615   5.887  0.0601  0.2503 -0.4739
  936MOL0     C26243   8.579  11.728   5.829  0.2827 -0.7672  0.0785
  936MOL0     C26244   8.706  11.704   5.785 -0.1336 -0.2425 -0.3501
  936MOL0     C26245   8.788  11.788   5.688 -0.5637 -0.2371  0.2294
  936MOL0     C26246   8.878  11.879   5.769 -0.2438  0.2034 -0.3379
  936MOL0     C26247   8.918  11.995   5.673  0.0135  0.1649 -0.5420
  936MOL0     C26248   9.008  11.951   5.561  0.1316  0.2438 -0.3216
  936MOL0     O26249   9.132  11.882   5.618 -1.2726 -0.1949  0.4975
  936MOL0     C26250   9.237  11.834   5.537 -0.3255 -0.4497 -0.6180
  936MOL0     C26251   9.233  11.842   5.403  0.7216  0.5484  0.7328
  936MOL0     C26252   9.337  11.790   5.333  0.2384  0.8614 -0.1828
  936MOL0     C26253   9.460  11.744   5.390 -0.2916 -0.5487 -0.6594
  936MOL0     C26254   9.560  11.688   5.310  0.1157 -0.0276  0.7282
  936MOL0     O26255   9.667  11.649   5.376 -0.5903  0.2292  0.2822
  936MOL0     C26256   9.764  11.590   5.299  0.1062  1.0404  0.1493
  936MOL0     C26257   9.901  11.617   5.336 -0.1987  0.2033 -0.1561
  936MOL0     C26258  10.002  11.562   5.254 -0.2913  0.2174  0.1679
  936MOL0     C26259   9.981  11.480   5.144  0.7260 -0.2422  0.0331
  936MOL0     O26260  10.076  11.429   5.076 -0.8461  0.0123 -0.4558
  936MOL0     C26261  10.076  11.497   4.947  0.2817 -0.3460  0.8532
  936MOL0     C26262  10.203  11.450   4.880  0.3395 -0.8385  0.4088
  936MOL0     C26263  10.192  11.493   4.728 -0.3061 -1.1621  0.3023
  936MOL0     C26264  10.330  11.461   4.666 -0.4445 -0.2534 -0.4322
  936MOL0     C26265  10.351  11.497   4.521 -0.5048  0.5525 -0.0593
  936MOL0     C26266  10.364  11.644   4.489  0.1979  0.3411 -0.2991
  936MOL0     C26267  10.354  11.650   4.340 -0.2874 -0.0146  0.4633
  936MOL0     C26268  10.370  11.795   4.292  0.7746 -0.6342 -0.0744
  936MOL0    Cl26269  10.449  11.802   4.129 -0.0896 -0.4020  0.2055
  936MOL0     C26270   9.851  11.442   5.129 -0.6257  0.2550 -0.8831
  936MOL0     C26271   9.742  11.492   5.195  0.4252  0.2393  0.0625
  936MOL0     O26272   9.548  11.703   5.188 -0.2591 -0.3755  1.2043
  936MOL0     C26273   9.460  11.730   5.530 -0.2800  0.0900 -0.7778
  936MOL0     C26274   9.349  11.764   5.601  0.4747 -0.1851  0.3092
  936MOL0     N26275   8.742  11.570   5.824 -0.0819 -0.5592  0.0131
  936MOL0     N26276   8.643  11.521   5.884  0.8261 -0.1114  0.6526
  936MOL0     C26277   7.365  11.204   5.939  0.3249  0.1619 -0.5236
  936MOL0     C26278   7.244  11.143   5.935 -0.5098  0.4694 -0.4798
  936MOL0     C26279   6.901  10.900   5.755  1.2330 -0.5172  0.3901
  936MOL0     C26280   6.869  10.801   5.659  0.2126  0.1290 -0.0251
  936MOL0     C26281   6.760  10.711   5.674 -0.5098 -0.2991  1.0807
  936MOL0     C26282   6.681  10.718   5.792 -0.1919  0.2719 -0.7296
  936MOL0     O26283   6.563  10.644   5.789  0.4612  0.6943 -0.2607
  936MOL0     C26284   6.461  10.717   5.720  0.7942 -0.3791  0.8121
  936MOL0     C26285   6.335  10.624   5.735 -0.6075  0.2375 -0.7813
  936MOL0     C26286   6.350  10.485   5.670 -0.3129  0.6207 -0.2397
  936MOL0     C26287   6.251  10.384   5.727 -0.8738  0.9019 -0.1603
  936MOL0     C26288   6.112  10.417   5.693 -0.4219  1.1395  0.1277
  936MOL0     C26289   6.000  10.444   5.652  0.3354 -0.3672 -0.9951
  936MOL0     C26290   6.713  10.805   5.891 -0.1990 -0.5051 -0.7518
  936MOL0     C26291   6.823  10.894   5.874 -0.2080 -0.2403 -1.0950
  936MOL0     C26292   6.837  11.009   5.975  0.5579  0.6191 -0.0672
  936MOL0     H26293   7.287  10.964   5.663  0.6049  0.1855  0.6955
  936MOL0     H26294   7.514  11.080   5.667 -1.0040 -1.4588 -1.5140
  936MOL0     H26295   7.723  11.142   5.751 -0.9904 -0.3994  2.3395
  936MOL0     H26296   7.674  11.309   5.696  0.6881  1.0099  0.2060
  936MOL0     H26297   7.806  11.237   5.958 -2.4481  1.7056  1.6783
  936MOL0     H26298   7.782  11.400   5.891  1.3409  0.0672  1.5019
  936MOL0     H26299   7.952  11.398   5.748 -1.1682  0.8619  0.6596
  936MOL0     H26300   7.977  11.219   5.744 -1.8636  0.3805 -0.3785
  936MOL0     H26301   8.023  11.378   5.981 -2.5362 -0.1221 -0.8812
  936MOL0     H26302   8.050  11.206   5.960  1.2515 -0.2053  0.7155
  936MOL0     H26303   8.270  11.346   5.952  2.6200 -0.0022 -1.7594
  936MOL0     H26304   8.250  11.265   5.797  1.0746  0.4502 -1.0622
  936MOL0     H26305   8.146  11.476   5.703 -0.2901  1.0644  0.0981
  936MOL0     H26306   8.146  11.556   5.850 -2.1572  0.0659 -3.1806
  936MOL0     H26307   8.345  11.604   5.695 -1.3693 -3.3406 -3.1843
  936MOL0     H26308   8.403  11.447   5.727 -1.7385 -2.0516  0.4812
  936MOL0     H26309   8.327  11.651   5.941 -3.0178  0.1132 -3.5243
  936MOL0     H26310   8.406  11.497   5.985  1.5813  1.3523  0.4010
  936MOL0     H26311   8.520  11.817   5.812 -0.6452 -0.8263  2.5525
  936MOL0     H26312   8.855  11.722   5.631  1.3997  0.9761  1.0289
  936MOL0     H26313   8.724  11.847   5.623  0.9723  1.0282 -0.1939
  936MOL0     H26314   8.820  11.926   5.849 -1.3784 -0.2690 -0.8703
  936MOL0     H26315   8.953  11.826   5.828 -3.4570 -0.6949  3.3501
  936MOL0     H26316   8.977  12.067   5.730 -1.1760  2.4553 -2.0343
  936MOL0     H26317   8.826  12.047   5.643  0.1539  1.2382  0.7709
  936MOL0     H26318   9.021  12.040   5.499 -4.7302  1.1195 -0.4845
  936MOL0     H26319   8.952  11.886   5.493  0.0043  1.1026 -1.0488
  936MOL0     H26320   9.145  11.885   5.355  2.0977  0.4510 -2.0916
  936MOL0     H26321   9.333  11.794   5.225  0.1883  0.0025 -0.2159
  936MOL0     H26322   9.934  11.681   5.417 -2.0135  1.4349 -0.3290
  936MOL0     H26323  10.107  11.582   5.272  0.1044 -2.5934  1.4241
  936MOL0     H26324   9.999  11.465   4.875  0.1780  2.2449 -0.2918
  936MOL0     H26325  10.069  11.606   4.946 -1.1457 -0.3795 -1.5294
  936MOL0     H26326  10.289  11.502   4.923  0.3239 -1.6722  1.4833
  936MOL0     H26327  10.219  11.344   4.902 -0.0837 -1.1175 -0.5419
  936MOL0     H26328  10.113  11.442   4.672 -0.5125  0.1795 -0.6580
  936MOL0     H26329  10.170  11.600   4.722 -0.5270 -1.0985  1.8805
  936MOL0     H26330  10.350  11.354   4.681  3.3556  0.8023  5.0750
  936MOL0     H26331  10.400  11.518   4.728 -0.6140  2.1045 -2.2500
  936MOL0     H26332  10.261  11.470   4.463  1.0951 -0.2694 -2.3182
  936MOL0     H26333  10.436  11.442   4.482 -0.1785  1.4317 -0.6368
  936MOL0     H26334  10.277  11.695   4.532 -0.8347 -0.8257 -0.9404
  936MOL0     H26335  10.450  11.701   4.526 -0.9324  1.7442  0.2776
  936MOL0     H26336  10.265  11.603   4.298  2.1071 -3.6294 -1.1581
  936MOL0     H26337  10.443  11.599   4.301  1.0757  1.7019  1.1774
  936MOL0     H26338  10.269  11.835   4.288  0.6521 -0.9761 -0.5063
  936MOL0     H26339  10.439  11.851   4.356 -0.2876 -0.5073  1.0017
  936MOL0     H26340   9.837  11.361   5.059  4.4694 -3.0597  1.3269
  936MOL0     H26341   9.637  11.475   5.171  0.4206  0.4551 -0.0698
  936MOL0     H26342   9.534  11.678   5.591 -0.5813 -0.4407 -0.8614
  936MOL0     H26343   9.352  11.735   5.705  2.8983  0.1884  0.3851
  936MOL0     H26344   7.377  11.272   6.023  0.3649  0.8336 -1.0599
  936MOL0     H26345   7.183  11.144   6.025  3.0573  0.6869  2.1430
  936MOL0     H26346   6.926  10.796   5.567  1.0060  1.9130  0.3159
  936MOL0     H26347   6.754  10.635   5.596  2.1967  0.0271  0.4365
  936MOL0     H26348   6.490  10.724   5.615 -0.5785 -0.8962  0.3641
  936MOL0     H26349   6.444  10.816   5.763 -0.1470 -0.3721  0.4548
  936MOL0     H26350   6.246  10.669   5.691 -0.8967 -0.3812 -0.8332
  936MOL0     H26351   6.318  10.605   5.842  0.3031 -2.4296 -1.0154
  936MOL0     H26352   6.451  10.448   5.688 -0.8799 -1.4424 -1.0395
  936MOL0     H26353   6.337  10.492   5.562  0.0017 -2.6095 -0.5797
  936MOL0     H26354   6.272  10.284   5.687 -3.4234 -0.6547  2.0922
  936MOL0     H26355   6.264  10.385   5.835 -1.0961 -2.8685  0.0447
  936MOL0     H26356   5.909  10.479   5.607 -1.5837 -2.5367  0.9208
  936MOL0     H26357   6.657  10.807   5.983  1.6871  2.1723  0.4733
  936MOL0     H26358   6.867  11.095   5.915 -2.8381  2.2519  0.3498
  936MOL0     H26359   6.740  11.043   6.013  1.9234  2.8954  1.5981
  936MOL0     H26360   6.898  10.979   6.060 -1.4569 -1.2183  0.8149
  937MOL0     O26361   7.881   7.196   6.085 -0.2311 -0.1796  0.4614
  937MOL0     C26362   7.922   7.289   6.016 -0.3639  0.0156  0.5910
  937MOL0     O26363   8.053   7.334   6.007 -0.2004 -0.1552 -0.3117
  937MOL0     C26364   8.147   7.242   6.054  1.2302 -0.4568 -0.7323
  937MOL0     C26365   8.196   7.279   6.187 -0.8540 -0.4753  0.2352
  937MOL0     C26366   8.297   7.197   6.246  0.7468 -0.2582  0.0125
  937MOL0     C26367   8.335   7.083   6.185 -0.2166  0.6183  0.2969
  937MOL0     O26368   8.411   6.994   6.255 -0.6276 -0.4295  0.7129
  937MOL0     C26369   8.545   7.032   6.246 -0.2866 -0.4534 -0.6433
  937MOL0     C26370   8.641   6.913   6.279  0.0797 -0.7554  0.0630
  937MOL0     C26371   8.797   6.920   6.270 -0.2020 -0.5149 -0.6592
  937MOL0     C26372   8.849   7.062   6.304  0.7187 -0.2715  0.4922
  937MOL0     C26373   8.994   7.086   6.337 -0.1643 -0.3817 -0.7215
  937MOL0     C26374   9.031   7.043   6.485  0.2465  0.1072  0.5643
  937MOL0     C26375   9.171   7.107   6.523  0.0580 -0.1850  0.4660
  937MOL0     C26376   9.203   7.050   6.665  0.7676 -0.4068  0.1228
  937MOL0     N26377   9.345   7.047   6.687  0.3470 -0.0922 -0.2678
  937MOL0     C26378   9.432   6.944   6.672  0.3329 -0.0796 -0.3116
  937MOL0     C26379   9.555   6.993   6.718  0.6114 -0.1724 -0.8650
  937MOL0     C26380   9.692   6.923   6.709 -0.2048  0.3679 -0.1018
  937MOL0     C26381   9.795   6.975   6.816 -0.2895  0.8819 -0.2823
  937MOL0     C26382   9.940   6.922   6.792  0.5357 -0.5499 -0.5594
  937MOL0     C26383  10.021   6.926   6.926  0.7192  0.2195 -0.6812
  937MOL0     O26384  10.143   6.855   6.906 -0.0725 -0.6923  0.2331
  937MOL0     C26385  10.259   6.920   6.862  0.2754  0.5333  0.2266
  937MOL0     C26386  10.381   6.849   6.885  0.1208 -0.3186  0.9028
  937MOL0     C26387  10.500   6.896   6.821  0.4218 -0.7403 -0.7059
  937MOL0     C26388  10.499   7.019   6.759 -0.2490 -0.0981 -1.2585
  937MOL0     C26389  10.628   7.077   6.700 -0.3338  0.4071 -0.2616
  937MOL0     O26390  10.733   6.988   6.673  0.9329  0.2600  0.5000
  937MOL0     C26391  10.837   7.034   6.602 -0.6129  0.4362 -0.1700
  937MOL0     C26392  10.819   7.036   6.462 -0.0547  0.5669  1.1418
  937MOL0     C26393  10.920   7.089   6.376  0.4533  0.5973 -0.2728
  937MOL0     C26394  11.047   7.126   6.426 -1.0552 -0.2064 -0.6637
  937MOL0     O26395  11.145   7.174   6.339 -0.5127  0.1291  0.2503
  937MOL0     C26396  11.279   7.158   6.377 -0.0516  0.5036 -0.6617
  937MOL0     C26397  11.363   7.223   6.267  0.1962  0.3636 -0.0625
  937MOL0     C26398  11.501   7.150   6.273  0.5943  0.3215  0.3981
  937MOL0     C26399  11.599   7.210   6.171 -0.2004 -0.2564 -0.0927
  937MOL0     C26400  11.721   7.114   6.148 -0.1145  0.2430 -0.1968
  937MOL0     C26401  11.838   7.174   6.075  0.0447 -0.2999 -0.2912
  937MOL0     C26402  11.812   7.197   5.920  0.4559 -0.0742  0.1818
  937MOL0     C26403  11.945   7.177   5.837  0.4154  0.4289 -0.0092
  937MOL0    Cl26404  12.083   7.292   5.871  0.1804 -0.3366 -0.0617
  937MOL0     C26405  11.071   7.108   6.564 -0.3264 -0.5134  0.4120
  937MOL0     C26406  10.967   7.063   6.649 -0.2829 -0.3033 -0.1858
  937MOL0     O26407  10.623   7.191   6.652  0.0597 -0.8941 -0.2898
  937MOL0     C26408  10.382   7.092   6.762  0.8581  0.2901 -0.3231
  937MOL0     C26409  10.263   7.041   6.809 -0.0364  0.0060  0.4513
  937MOL0     N26410   9.543   7.127   6.736 -0.7972  0.6349 -0.4147
  937MOL0     N26411   9.422   7.159   6.710  0.3827 -0.4178  0.0765
  937MOL0     C26412   8.286   7.041   6.058 -0.1867  0.0729 -0.1831
  937MOL0     C26413   8.190   7.121   5.994 -0.4125 -0.5414  0.2435
  937MOL0     C26414   7.817   7.350   5.930 -0.2015  0.1728 -0.3057
  937MOL0     C26415   7.820   7.488   5.930 -0.1444 -0.4004  0.2506
  937MOL0     C26416   7.719   7.564   5.858  0.2762 -0.9454  0.0960
  937MOL0     C26417   7.621   7.505   5.780  0.1214  0.7403 -0.0411
  937MOL0     O26418   7.531   7.582   5.710 -0.4915 -0.1516 -1.2789
  937MOL0     C26419   7.422   7.523   5.642 -0.0201 -0.3645 -0.4722
  937MOL0     C26420   7.316   7.630   5.614  0.1298  0.1756  0.3075
  937MOL0     C26421   7.187   7.585   5.548 -0.4989 -0.5261 -0.6623
  937MOL0     C26422   7.195   7.490   5.432  0.7206 -0.3255  0.0137
  937MOL0     C26423   7.250   7.558   5.312 -0.9141  0.5874  0.2239
  937MOL0     C26424   7.288   7.608   5.206  0.1975  0.4014  0.8842
  937MOL0     C26425   7.618   7.364   5.788 -0.2420 -0.3405  0.6281
  937MOL0     C26426   7.706   7.288   5.867 -0.2859 -0.0260 -0.0337
  937MOL0     C26427   7.689   7.134   5.878 -0.1088 -0.3800 -0.1639
  937MOL0     H26428   8.177   7.380   6.221 -0.0563  0.5581 -2.1511
  937MOL0     H26429   8.347   7.237   6.333 -0.8050  1.3779  0.2046
  937MOL0     H26430   8.577   7.077   6.151  0.6981 -1.6488 -0.9032
  937MOL0     H26431   8.550   7.112   6.320 -2.0149 -2.4023  1.7823
  937MOL0     H26432   8.606   6.835   6.212 -2.3429  0.5308 -0.2688
  937MOL0     H26433   8.625   6.880   6.382 -2.1958 -1.5931 -0.5075
  937MOL0     H26434   8.815   6.903   6.164  0.3894  0.0398 -0.6577
  937MOL0     H26435   8.848   6.837   6.320  0.3520 -1.2094 -2.3290
  937MOL0     H26436   8.824   7.123   6.218  0.7513 -0.4472  0.3579
  937MOL0     H26437   8.788   7.100   6.386  1.3675 -2.3942  2.0768
  937MOL0     H26438   9.053   7.031   6.263  3.1586  0.7626  0.8532
  937MOL0     H26439   9.008   7.193   6.319  2.7324 -0.4809  0.3714
  937MOL0     H26440   8.959   7.094   6.549  0.5793  3.1954 -1.3236
  937MOL0     H26441   9.021   6.935   6.499 -2.3563 -0.1027 -1.8790
  937MOL0     H26442   9.180   7.215   6.517  2.2885 -0.2675  1.3862
  937MOL0     H26443   9.249   7.065   6.459 -0.3279 -1.7303  0.9643
  937MOL0     H26444   9.147   7.098   6.746 -1.1946 -1.8727 -0.2827
  937MOL0     H26445   9.156   6.951   6.668 -2.4209  0.9788  0.1994
  937MOL0     H26446   9.414   6.841   6.642 -1.6232 -0.2785  1.2929
  937MOL0     H26447   9.677   6.814   6.710 -1.6532  0.5447  0.1578
  937MOL0     H26448   9.731   6.946   6.609  0.8027 -3.8552 -0.8777
  937MOL0     H26449   9.790   7.084   6.803 -1.1549  0.7745 -1.0107
  937MOL0     H26450   9.753   6.958   6.915 -3.5283  1.5105 -1.4052
  937MOL0     H26451   9.993   6.969   6.708  0.2396 -0.5597 -0.7557
  937MOL0     H26452   9.923   6.821   6.755 -1.0503  0.6481 -3.4502
  937MOL0     H26453   9.957   6.891   7.008 -0.2113  2.3198 -0.4641
  937MOL0     H26454  10.050   7.026   6.960  0.7201  0.0660 -0.2185
  937MOL0     H26455  10.381   6.751   6.934  2.6672 -1.3519 -0.9446
  937MOL0     H26456  10.594   6.842   6.828  1.4321  0.7533 -2.0534
  937MOL0     H26457  10.726   7.005   6.415 -0.3715  0.4879  1.8057
  937MOL0     H26458  10.905   7.110   6.271 -0.4758  1.4243  0.0097
  937MOL0     H26459  11.300   7.212   6.470 -0.3016 -0.2461 -0.1536
  937MOL0     H26460  11.298   7.050   6.382 -1.2737  0.2776 -0.5822
  937MOL0     H26461  11.311   7.209   6.172  1.9445 -0.8430 -0.8686
  937MOL0     H26462  11.367   7.331   6.288 -2.1317  0.9369 -2.0520
  937MOL0     H26463  11.549   7.155   6.371  1.7814 -3.2323  0.1078
  937MOL0     H26464  11.494   7.044   6.247  1.2908  0.5366 -0.7310
  937MOL0     H26465  11.632   7.307   6.209  1.9206 -1.2773  0.8427
  937MOL0     H26466  11.555   7.231   6.073  0.7034  1.5089 -0.1730
  937MOL0     H26467  11.691   7.024   6.094 -0.5486 -0.3879  1.0633
  937MOL0     H26468  11.762   7.084   6.245 -3.0560  1.1879  1.4853
  937MOL0     H26469  11.867   7.264   6.129 -1.7989 -1.2477  2.4623
  937MOL0     H26470  11.917   7.099   6.085  2.5801  2.3278  0.6589
  937MOL0     H26471  11.768   7.297   5.919 -3.2347 -1.4704  1.9748
  937MOL0     H26472  11.728   7.133   5.889  0.1836  0.5784 -0.4308
  937MOL0     H26473  11.982   7.076   5.858  1.3154  1.0248  1.3569
  937MOL0     H26474  11.921   7.174   5.730 -1.3158  0.2492  0.3531
  937MOL0     H26475  11.162   7.147   6.610  0.6943 -1.7188 -0.5070
  937MOL0     H26476  10.988   7.051   6.754  0.2586 -1.1840 -0.3879
  937MOL0     H26477  10.394   7.194   6.725  0.0876  0.1396 -1.0039
  937MOL0     H26478  10.172   7.099   6.798 -0.1540 -0.1365  0.6666
  937MOL0     H26479   8.329   6.952   6.014  1.6257  0.7524  0.1074
  937MOL0     H26480   8.162   7.101   5.891  2.6024  1.0313 -1.0002
  937MOL0     H26481   7.897   7.551   5.973 -0.8031  3.0366 -3.0656
  937MOL0     H26482   7.721   7.672   5.856 -1.7877 -0.8717 -0.3158
  937MOL0     H26483   7.369   7.452   5.706  0.1379 -1.6153 -1.6968
  937MOL0     H26484   7.454   7.481   5.546 -0.6507  0.0376 -0.8646
  937MOL0     H26485   7.359   7.704   5.545  1.5613 -2.7707 -2.2206
  937MOL0     H26486   7.290   7.680   5.708 -0.5136  1.2908 -0.4467
  937MOL0     H26487   7.141   7.678   5.512 -0.9294  0.0032  1.1680
  937MOL0     H26488   7.118   7.549   5.624  1.6448 -0.6163  1.3791
  937MOL0     H26489   7.253   7.403   5.466  2.4127  1.5392  2.3087
  937MOL0     H26490   7.096   7.453   5.406 -0.0122  2.7170 -1.9044
  937MOL0     H26491   7.322   7.641   5.110 -1.4042  0.5739  0.3419
  937MOL0     H26492   7.533   7.320   5.737 -0.1280  1.2528 -1.0367
  937MOL0     H26493   7.766   7.077   5.825  0.3013  0.1390 -0.1328
  937MOL0     H26494   7.688   7.107   5.984  0.4636  0.2809  0.0209
  937MOL0     H26495   7.598   7.106   5.824  0.7612 -0.0418 -1.8833
  938MOL0     O26496  10.408   7.580   5.496  0.1700 -0.1439  0.4770
  938MOL0     C26497  10.430   7.656   5.589 -0.7562 -0.5521 -0.5056
  938MOL0     O26498  10.556   7.696   5.615 -0.5710 -0.1648 -0.1110
  938MOL0     C26499  10.653   7.669   5.527 -0.7454  0.6928 -0.4759
  938MOL0     C26500  10.733   7.557   5.555 -1.2376 -0.5269  0.3813
  938MOL0     C26501  10.857   7.529   5.484  0.8383 -0.3342 -0.6993
  938MOL0     C26502  10.896   7.627   5.388  0.0798 -0.1507  0.1080
  938MOL0     O26503  11.008   7.628   5.318  0.5243 -0.6256  0.6474
  938MOL0     C26504  11.120   7.679   5.389  0.4002  0.5581 -0.5254
  938MOL0     C26505  11.250   7.604   5.362  0.2699  0.2034  0.3128
  938MOL0     C26506  11.287   7.606   5.213 -1.0029 -0.9232  0.4978
  938MOL0     C26507  11.435   7.590   5.175  0.2243  0.0977  0.3526
  938MOL0     C26508  11.433   7.582   5.015 -0.0789 -0.1164  0.4118
  938MOL0     C26509  11.393   7.702   4.935 -0.5756 -0.3338  0.3235
  938MOL0     C26510  11.448   7.706   4.794  0.7821  0.5714  0.0660
  938MOL0     C26511  11.358   7.626   4.696  0.6261 -0.2256 -0.7382
  938MOL0     N26512  11.449   7.582   4.595 -0.0836  0.7661 -0.2737
  938MOL0     C26513  11.441   7.599   4.459  0.1957  0.7464 -0.6420
  938MOL0     C26514  11.528   7.509   4.400  0.0852 -0.1355  0.6770
  938MOL0     C26515  11.557   7.481   4.254 -0.7818  0.2619 -0.3376
  938MOL0     C26516  11.456   7.374   4.198  0.4829 -0.6476 -0.0019
  938MOL0     C26517  11.464   7.243   4.274  1.0723  0.7791 -0.6482
  938MOL0     C26518  11.602   7.178   4.282 -0.0758 -1.1630 -0.6745
  938MOL0     O26519  11.643   7.149   4.153 -0.6629 -0.3368 -0.3663
  938MOL0     C26520  11.779   7.130   4.127 -0.1218 -1.2522 -0.5622
  938MOL0     C26521  11.821   7.167   3.993 -0.3947  0.2358 -0.2308
  938MOL0     C26522  11.948   7.138   3.948  0.2684  0.8360  0.6228
  938MOL0     C26523  12.042   7.097   4.041 -0.0511 -0.5344  0.1804
  938MOL0     C26524  12.180   7.070   3.996  0.7566 -0.6244 -0.1485
  938MOL0     O26525  12.259   6.994   4.071 -0.1379 -0.0345 -0.0414
  938MOL0     C26526  12.390   6.992   4.034  0.0638 -0.5309 -0.8303
  938MOL0     C26527  12.430   6.914   3.927  0.3727 -0.7386 -0.4144
  938MOL0     C26528  12.565   6.906   3.883  0.4317  0.1996  0.0620
  938MOL0     C26529  12.664   6.971   3.964 -0.2464 -0.7405  0.4607
  938MOL0     O26530  12.788   6.987   3.924  0.0034 -0.4321  0.8868
  938MOL0     C26531  12.849   6.876   3.865  0.0337 -0.8796 -0.7151
  938MOL0     C26532  13.002   6.889   3.863  0.1715  0.0296  0.0058
  938MOL0     C26533  13.071   6.785   3.770  0.6095 -0.0539 -0.0003
  938MOL0     C26534  13.216   6.814   3.745 -0.8168 -0.6518  0.0193
  938MOL0     C26535  13.307   6.701   3.680  0.1417 -0.2183  0.5200
  938MOL0     C26536  13.424   6.766   3.603 -0.5281 -0.0883 -0.1534
  938MOL0     C26537  13.521   6.836   3.697 -0.0978 -0.6993 -0.2285
  938MOL0     C26538  13.654   6.755   3.703  0.0176 -1.3366  0.0314
  938MOL0    Cl26539  13.777   6.827   3.814 -0.0961 -0.2327  0.3090
  938MOL0     C26540  12.624   7.030   4.080  0.0476 -1.3847 -1.0986
  938MOL0     C26541  12.493   7.042   4.120  0.1655 -0.2798  0.5499
  938MOL0     O26542  12.212   7.132   3.896  0.0145  0.2649  0.5327
  938MOL0     C26543  12.006   7.087   4.179 -1.2749 -0.2159  0.4618
  938MOL0     C26544  11.876   7.093   4.221 -0.6981 -0.7224 -0.3164
  938MOL0     N26545  11.580   7.445   4.510 -0.2703  0.2260  0.4249
  938MOL0     N26546  11.537   7.490   4.618 -0.1597 -0.2260 -0.3628
  938MOL0     C26547  10.822   7.735   5.367  0.4982  0.3429 -0.1582
  938MOL0     C26548  10.699   7.755   5.424  0.6867 -0.2082 -0.0389
  938MOL0     C26549  10.320   7.709   5.674  0.0164  0.5050  0.2028
  938MOL0     C26550  10.349   7.754   5.803 -0.6010  0.1080  0.4548
  938MOL0     C26551  10.253   7.789   5.894  0.8129 -0.5348  0.7706
  938MOL0     C26552  10.117   7.789   5.850  0.1643 -0.1213  0.4973
  938MOL0     O26553  10.031   7.826   5.952  0.0241 -0.0296 -0.0814
  938MOL0     C26554   9.905   7.883   5.910 -0.0678  0.4583 -0.0616
  938MOL0     C26555   9.809   7.765   5.899 -0.6894 -0.7522 -0.7868
  938MOL0     C26556   9.673   7.817   5.856 -0.9335 -0.5060  0.7355
  938MOL0     C26557   9.572   7.707   5.845  0.0865  0.1602 -0.0172
  938MOL0     C26558   9.525   7.670   5.979 -0.4959 -0.2508 -0.0494
  938MOL0     C26559   9.469   7.633   6.078 -0.3481 -0.1629  0.3541
  938MOL0     C26560  10.083   7.757   5.720  0.6291 -0.3454 -0.4879
  938MOL0     C26561  10.191   7.715   5.630 -0.0336  0.2268  1.2414
  938MOL0     C26562  10.155   7.687   5.479  0.2853 -0.0815  1.0769
  938MOL0     H26563  10.711   7.492   5.639 -3.3626  0.3305  0.5474
  938MOL0     H26564  10.925   7.446   5.500  3.8381  1.7072 -1.9494
  938MOL0     H26565  11.140   7.786   5.376  1.4623  0.5176  0.5712
  938MOL0     H26566  11.101   7.668   5.497 -0.3109  3.1642 -0.3214
  938MOL0     H26567  11.230   7.499   5.386 -0.7727  0.2296 -0.3546
  938MOL0     H26568  11.327   7.635   5.432 -0.1032 -0.9375  1.2521
  938MOL0     H26569  11.245   7.693   5.162  0.5411 -1.4192 -1.7619
  938MOL0     H26570  11.235   7.523   5.163 -1.2225 -0.5187  0.0456
  938MOL0     H26571  11.488   7.674   5.221  0.1205 -0.6934  1.9765
  938MOL0     H26572  11.483   7.500   5.215  2.4676  0.5990 -1.0166
  938MOL0     H26573  11.530   7.546   4.982 -0.5013 -0.0568 -0.9231
  938MOL0     H26574  11.362   7.503   4.989  0.9384 -1.3254  1.1714
  938MOL0     H26575  11.286   7.724   4.938 -0.4577  0.9201 -2.2335
  938MOL0     H26576  11.452   7.783   4.980  0.2842 -0.7951  0.0519
  938MOL0     H26577  11.552   7.673   4.801 -0.2355 -2.7414  1.1451
  938MOL0     H26578  11.452   7.807   4.752 -1.4674 -0.6375 -3.5557
  938MOL0     H26579  11.301   7.547   4.745 -0.8666  1.9352  1.2048
  938MOL0     H26580  11.278   7.688   4.654 -1.8893 -2.8725 -0.1809
  938MOL0     H26581  11.371   7.648   4.392 -1.5934 -2.2699 -1.1535
  938MOL0     H26582  11.559   7.573   4.194  4.0573 -0.1337 -1.2413
  938MOL0     H26583  11.658   7.439   4.259 -0.9093  0.0650  0.7201
  938MOL0     H26584  11.353   7.409   4.185  0.2361 -1.7161 -1.0157
  938MOL0     H26585  11.493   7.352   4.098  2.0030  0.8486  0.1866
  938MOL0     H26586  11.398   7.177   4.216  0.0308  0.2488  1.0668
  938MOL0     H26587  11.421   7.254   4.374  2.3373 -0.1923  0.0220
  938MOL0     H26588  11.588   7.085   4.339  0.4379 -0.7361  0.1728
  938MOL0     H26589  11.667   7.246   4.338  0.4478 -0.5208 -2.0204
  938MOL0     H26590  11.753   7.221   3.928  0.8921  0.6839 -1.2767
  938MOL0     H26591  11.964   7.139   3.841  1.3202 -0.5267  0.7526
  938MOL0     H26592  12.355   6.855   3.875  1.2379 -2.4043  0.1450
  938MOL0     H26593  12.594   6.849   3.796 -1.2896  2.3806 -2.1144
  938MOL0     H26594  12.820   6.783   3.916  0.1467 -0.4388  0.1703
  938MOL0     H26595  12.823   6.879   3.759  5.1925  1.9297 -2.2475
  938MOL0     H26596  13.025   6.988   3.824 -2.5305  1.4635  1.7323
  938MOL0     H26597  13.042   6.869   3.963 -1.0371  0.5284  0.6084
  938MOL0     H26598  13.061   6.690   3.824  0.6850 -0.9225 -1.4816
  938MOL0     H26599  13.011   6.771   3.680  0.2174 -0.2387  0.2875
  938MOL0     H26600  13.267   6.844   3.837  0.2537  0.7948 -0.9872
  938MOL0     H26601  13.232   6.899   3.677  1.2834 -0.8012  0.2478
  938MOL0     H26602  13.235   6.646   3.620  0.4756 -0.4202  0.3001
  938MOL0     H26603  13.337   6.630   3.757  0.7378 -0.7764 -0.2108
  938MOL0     H26604  13.467   6.691   3.535 -2.2526 -0.7329 -0.5751
  938MOL0     H26605  13.383   6.838   3.531  0.2666 -1.0130 -1.5874
  938MOL0     H26606  13.483   6.858   3.797 -1.0715 -1.3159 -0.4484
  938MOL0     H26607  13.555   6.932   3.659  2.4674  0.0280  3.3336
  938MOL0     H26608  13.640   6.649   3.726  2.9839 -1.2787  2.8386
  938MOL0     H26609  13.692   6.761   3.601  0.1979  2.3783  0.1822
  938MOL0     H26610  12.696   7.072   4.150 -3.6198  0.9821  1.6462
  938MOL0     H26611  12.476   7.085   4.218  0.9160 -1.8695  1.4223
  938MOL0     H26612  12.084   7.051   4.246  1.6860 -1.5567 -3.3508
  938MOL0     H26613  11.863   7.089   4.329  3.8545  1.3696  0.5703
  938MOL0     H26614  10.864   7.813   5.304  2.4940 -1.2479 -0.9451
  938MOL0     H26615  10.645   7.845   5.396  0.4881 -0.9985 -2.4032
  938MOL0     H26616  10.455   7.744   5.825  0.5860 -3.4641 -4.8960
  938MOL0     H26617  10.269   7.838   5.990 -0.5958  1.2564  0.1657
  938MOL0     H26618   9.911   7.934   5.813  1.1549  1.6534  0.6148
  938MOL0     H26619   9.868   7.958   5.980 -1.5944 -0.8249  0.5806
  938MOL0     H26620   9.797   7.721   5.998 -1.9849 -1.1048 -1.0833
  938MOL0     H26621   9.840   7.679   5.838 -2.3221  1.1925 -4.6738
  938MOL0     H26622   9.681   7.865   5.758 -1.1366  1.3960  1.6024
  938MOL0     H26623   9.628   7.895   5.918 -3.5001 -1.6582  0.4569
  938MOL0     H26624   9.484   7.741   5.789 -0.9890  1.7127  2.4539
  938MOL0     H26625   9.609   7.616   5.795 -4.1930 -1.8000 -0.1108
  938MOL0     H26626   9.414   7.609   6.166 -0.0388  1.0361  0.9024
  938MOL0     H26627   9.979   7.748   5.693  0.1443 -1.5005  1.5855
  938MOL0     H26628  10.056   7.720   5.446 -0.5209 -0.7455  2.6935
  938MOL0     H26629  10.233   7.733   5.418  1.4341 -2.3348  0.7469
  938MOL0     H26630  10.151   7.579   5.460 -0.4017  0.2881 -1.2420
  939MOL0     O26631   9.515   8.550   7.149 -0.1239  0.2852  1.0340
  939MOL0     C26632   9.461   8.523   7.041 -0.8005 -0.6614 -0.2511
  939MOL0     O26633   9.513   8.437   6.953  0.6011  0.2549  0.3257
  939MOL0     C26634   9.581   8.327   6.985 -0.5782 -0.6175  0.1833
  939MOL0     C26635   9.683   8.295   6.886 -0.0970 -0.5621 -0.5999
  939MOL0     C26636   9.778   8.205   6.915 -0.0563  1.4659  0.2510
  939MOL0     C26637   9.783   8.152   7.048 -0.5661 -0.1866  0.4923
  939MOL0     O26638   9.881   8.055   7.063 -0.0325  0.1720  0.6919
  939MOL0     C26639   9.902   7.992   7.187 -0.0957 -0.5507  0.4901
  939MOL0     C26640  10.017   7.892   7.177  0.6111  0.2815 -0.4943
  939MOL0     C26641  10.017   7.803   7.305  0.3321 -0.0840 -0.0202
  939MOL0     C26642  10.030   7.881   7.438 -0.7787  0.1537 -0.7655
  939MOL0     C26643  10.013   7.793   7.562  0.1128  0.4758  0.1929
  939MOL0     C26644  10.103   7.666   7.572 -0.7602 -0.2162  0.0817
  939MOL0     C26645  10.247   7.708   7.596 -0.6667  0.3967  0.1514
  939MOL0     C26646  10.340   7.582   7.600 -0.6256 -0.2593  0.4809
  939MOL0     N26647  10.360   7.511   7.477  0.0630  0.0638 -0.2273
  939MOL0     C26648  10.321   7.384   7.451  0.5739 -0.5275  0.1063
  939MOL0     C26649  10.385   7.350   7.329  0.2287 -0.6712  0.3487
  939MOL0     C26650  10.405   7.228   7.250  0.0096  0.6215 -0.2549
  939MOL0     C26651  10.548   7.174   7.259  0.5293  0.3718  0.7252
  939MOL0     C26652  10.579   7.060   7.157  0.1935  0.0290 -0.4154
  939MOL0     C26653  10.728   7.037   7.145  0.1422 -0.1603 -0.1051
  939MOL0     O26654  10.746   6.925   7.057  0.3225  0.0207 -0.0008
  939MOL0     C26655  10.869   6.906   7.004  0.1683  0.0148 -0.6264
  939MOL0     C26656  10.878   6.806   6.898  0.7592  0.0834 -0.0520
  939MOL0     C26657  11.000   6.769   6.847 -0.5412  0.1828 -0.3915
  939MOL0     C26658  11.116   6.836   6.878 -0.1996  0.0572  0.2745
  939MOL0     C26659  11.235   6.812   6.801 -0.3915 -0.2142 -0.1206
  939MOL0     O26660  11.340   6.890   6.825  0.1481 -0.2286  0.0770
  939MOL0     C26661  11.446   6.877   6.746  0.3130 -0.1892  0.8269
  939MOL0     C26662  11.434   6.885   6.605  0.0642 -0.4104  0.1656
  939MOL0     C26663  11.554   6.894   6.529  0.0913 -0.2467 -0.7591
  939MOL0     C26664  11.680   6.911   6.581 -0.5296 -0.2021 -0.3399
  939MOL0     O26665  11.786   6.916   6.499 -1.1818  0.3479  0.1796
  939MOL0     C26666  11.909   6.966   6.537  0.4260  0.3607 -0.6171
  939MOL0     C26667  11.993   6.987   6.416  0.7053  0.6647  0.9371
  939MOL0     C26668  12.082   7.110   6.442  0.7222 -0.4527  0.8121
  939MOL0     C26669  12.185   7.116   6.328 -0.4421  0.9554  0.5379
  939MOL0     C26670  12.288   7.226   6.357  0.4641  0.9079 -0.2180
  939MOL0     C26671  12.388   7.237   6.237  0.3510 -0.8539  0.0818
  939MOL0     C26672  12.329   7.304   6.112 -0.5567 -0.5188  0.0485
  939MOL0     C26673  12.424   7.324   5.993 -0.2043 -1.0355  0.0499
  939MOL0    Cl26674  12.557   7.449   6.023  0.1300 -0.1306 -0.3773
  939MOL0     C26675  11.689   6.915   6.718 -0.0450  0.4776 -0.3892
  939MOL0     C26676  11.574   6.901   6.795  0.1034  0.0611  0.2267
  939MOL0     O26677  11.230   6.720   6.712 -0.4393 -0.7708 -0.7619
  939MOL0     C26678  11.107   6.934   6.974 -0.1422 -0.6670  0.0085
  939MOL0     C26679  10.986   6.964   7.037 -0.8227 -0.4604  0.1662
  939MOL0     N26680  10.461   7.462   7.295  0.9138 -0.1773 -0.7368
  939MOL0     N26681  10.447   7.551   7.385  0.8884  0.7586  0.3251
  939MOL0     C26682   9.686   8.185   7.139 -0.2881 -0.3435 -0.8222
  939MOL0     C26683   9.581   8.262   7.106 -0.5599 -0.7385 -0.1529
  939MOL0     C26684   9.354   8.611   6.998 -0.2965  0.9911  0.2063
  939MOL0     C26685   9.326   8.614   6.859 -0.4223  0.2129  0.5262
  939MOL0     C26686   9.239   8.697   6.804  0.0776 -0.2588 -0.7368
  939MOL0     C26687   9.168   8.791   6.886  1.2786  0.2818 -0.0355
  939MOL0     O26688   9.072   8.880   6.834  0.3870  0.2787  0.0658
  939MOL0     C26689   9.093   8.916   6.691 -0.6493  0.4303  1.0680
  939MOL0     C26690   9.051   9.063   6.671  0.9299 -0.2291 -0.4786
  939MOL0     C26691   8.908   9.084   6.698 -0.0934 -0.1810  0.0056
  939MOL0     C26692   8.888   9.234   6.705  0.8322 -0.1460 -0.1381
  939MOL0     C26693   8.746   9.248   6.735  1.1445  0.4463 -0.7766
  939MOL0     C26694   8.639   9.287   6.779 -0.4262 -0.1149 -0.0531
  939MOL0     C26695   9.189   8.792   7.023  0.3493 -0.2173 -0.2624
  939MOL0     C26696   9.277   8.702   7.087 -0.2875 -0.6726 -0.3561
  939MOL0     C26697   9.282   8.700   7.232  0.2332  0.6670 -0.2310
  939MOL0     H26698   9.682   8.345   6.789  0.7570  0.9685  0.1408
  939MOL0     H26699   9.845   8.164   6.840  0.1415  1.3298  0.5013
  939MOL0     H26700   9.927   8.074   7.255  0.1992 -0.0689 -0.1985
  939MOL0     H26701   9.804   7.953   7.217 -0.0705 -0.5708  0.5484
  939MOL0     H26702  10.119   7.931   7.171  0.4642  0.6621 -0.5436
  939MOL0     H26703   9.998   7.830   7.089  0.0518  3.0124 -2.4155
  939MOL0     H26704  10.098   7.730   7.293 -1.2401 -2.3774  2.2492
  939MOL0     H26705   9.917   7.759   7.297 -0.7141  2.5208 -2.9189
  939MOL0     H26706  10.127   7.931   7.447 -0.2809 -1.1288  2.2260
  939MOL0     H26707   9.956   7.962   7.432  1.6189  2.5714  0.3373
  939MOL0     H26708  10.046   7.853   7.648  2.9092 -0.0828 -0.3780
  939MOL0     H26709   9.907   7.770   7.569 -0.5869  2.9890 -0.7855
  939MOL0     H26710  10.078   7.612   7.664 -0.5975 -0.7833 -0.2063
  939MOL0     H26711  10.081   7.604   7.485 -0.4642 -1.1016  0.6219
  939MOL0     H26712  10.243   7.766   7.689 -0.2464 -0.7648  0.9054
  939MOL0     H26713  10.276   7.772   7.512  0.0041 -2.6171 -2.0550
  939MOL0     H26714  10.432   7.618   7.647  0.3848 -0.4887 -1.2813
  939MOL0     H26715  10.296   7.500   7.658 -2.0167 -0.2573 -0.5340
  939MOL0     H26716  10.254   7.322   7.509  0.8988 -1.8511 -0.8494
  939MOL0     H26717  10.337   7.154   7.291 -0.5384  0.3038 -1.6648
  939MOL0     H26718  10.375   7.249   7.147 -0.6430  0.6638 -0.0565
  939MOL0     H26719  10.611   7.258   7.227  0.3026 -0.8079 -3.5343
  939MOL0     H26720  10.578   7.151   7.361 -2.5574 -0.1402  1.5912
  939MOL0     H26721  10.533   7.085   7.061 -0.8564 -1.7648 -0.4236
  939MOL0     H26722  10.533   6.968   7.194  0.9584  0.3067  1.3093
  939MOL0     H26723  10.766   7.003   7.243 -0.2039 -0.7286 -0.1667
  939MOL0     H26724  10.780   7.126   7.106 -1.6750  0.8176 -0.3854
  939MOL0     H26725  10.780   6.771   6.867  0.8498  1.3167 -1.8910
  939MOL0     H26726  10.994   6.703   6.761 -0.1591 -0.6140  0.1683
  939MOL0     H26727  11.336   6.890   6.558 -0.3234  4.6516  1.0105
  939MOL0     H26728  11.540   6.892   6.421 -1.9657 -4.2207 -0.5990
  939MOL0     H26729  11.892   7.065   6.581  0.3093  1.1476 -2.3486
  939MOL0     H26730  11.956   6.901   6.611  0.6148  1.4583  0.2639
  939MOL0     H26731  12.045   6.891   6.406 -0.5504 -0.3029  2.9225
  939MOL0     H26732  11.920   7.003   6.336 -0.4906  1.9177  2.2219
  939MOL0     H26733  12.030   7.202   6.469  3.5034  1.1467  1.0645
  939MOL0     H26734  12.150   7.093   6.526  1.8816 -2.2181 -0.4010
  939MOL0     H26735  12.138   7.135   6.231  2.0769  1.9152 -0.5888
  939MOL0     H26736  12.230   7.017   6.317  1.9764  1.9396  1.0737
  939MOL0     H26737  12.339   7.206   6.452 -0.3592 -1.4763 -0.1918
  939MOL0     H26738  12.242   7.324   6.364 -0.3084  0.4709  1.1684
  939MOL0     H26739  12.483   7.279   6.271  0.8345 -2.2119  0.4801
  939MOL0     H26740  12.418   7.138   6.202 -1.8024 -1.5333  0.0355
  939MOL0     H26741  12.303   7.408   6.133  0.1717  0.8961 -4.7108
  939MOL0     H26742  12.244   7.248   6.072 -1.6269  1.6305 -0.8783
  939MOL0     H26743  12.476   7.230   5.970  0.7673 -0.6259  0.5459
  939MOL0     H26744  12.367   7.358   5.906 -0.3801  1.4510  1.0526
  939MOL0     H26745  11.778   6.927   6.779 -0.4194 -2.6993  1.0132
  939MOL0     H26746  11.581   6.920   6.902  2.1727 -2.3316  0.6147
  939MOL0     H26747  11.199   6.986   7.001  0.1359 -1.7794  1.2926
  939MOL0     H26748  10.986   7.040   7.114  1.1198  0.5644 -0.7714
  939MOL0     H26749   9.700   8.144   7.239  0.5390  0.2295 -0.6923
  939MOL0     H26750   9.511   8.273   7.188  1.2292 -3.8891  2.0118
  939MOL0     H26751   9.390   8.562   6.789 -1.5255  1.5061 -1.5823
  939MOL0     H26752   9.233   8.691   6.696  2.0704  0.6001 -0.9440
  939MOL0     H26753   9.025   8.848   6.639 -0.4449 -0.0267  1.3854
  939MOL0     H26754   9.190   8.899   6.645 -1.0888 -0.3747  0.3973
  939MOL0     H26755   9.074   9.088   6.567 -1.8828  0.3420 -1.0370
  939MOL0     H26756   9.119   9.116   6.739 -0.0273 -0.0118  0.3226
  939MOL0     H26757   8.881   9.039   6.794  2.6497 -1.6896  0.1791
  939MOL0     H26758   8.845   9.032   6.625 -1.5882 -0.1587  1.2363
  939MOL0     H26759   8.949   9.270   6.788 -0.0655  0.5290  0.2421
  939MOL0     H26760   8.911   9.287   6.612  0.1600 -2.0031 -1.4210
  939MOL0     H26761   8.551   9.321   6.829  0.3237 -0.0725  1.3078
  939MOL0     H26762   9.131   8.852   7.093  1.3366 -2.1073  2.3790
  939MOL0     H26763   9.295   8.598   7.269 -3.5772  0.7084  1.7091
  939MOL0     H26764   9.363   8.762   7.270  1.5022 -1.6646  1.0593
  939MOL0     H26765   9.192   8.740   7.280 -0.9889 -2.6536  0.4710
  940MOL0     O26766   4.967   7.795   4.463 -0.1907  0.1753  0.0365
  940MOL0     C26767   4.921   7.736   4.370  0.2634 -0.6263  0.8112
  940MOL0     O26768   4.982   7.699   4.248 -0.0378  0.2622  0.1252
  940MOL0     C26769   5.108   7.737   4.219 -0.7666 -0.3001 -1.0347
  940MOL0     C26770   5.205   7.632   4.187  0.5173  0.2981 -0.1832
  940MOL0     C26771   5.344   7.663   4.173  0.2963  0.2887  0.2765
  940MOL0     C26772   5.378   7.802   4.177 -0.1046 -0.0771  0.0607
  940MOL0     O26773   5.509   7.823   4.172  0.4746 -0.0991 -0.4180
  940MOL0     C26774   5.564   7.947   4.124 -0.1107  1.0106  0.4356
  940MOL0     C26775   5.698   7.951   4.186 -0.6878  0.2121 -0.9186
  940MOL0     C26776   5.789   8.052   4.115 -0.3569  0.2329 -0.1991
  940MOL0     C26777   5.933   8.039   4.168  0.6046 -0.1451  0.5687
  940MOL0     C26778   5.961   8.131   4.301  1.2015 -0.4178  0.1348
  940MOL0     C26779   6.111   8.143   4.309  0.7901  0.3220 -0.1022
  940MOL0     C26780   6.146   8.243   4.408 -0.5974 -0.3418  0.5352
  940MOL0     C26781   6.285   8.234   4.462  0.1947 -0.0540 -0.0954
  940MOL0     N26782   6.393   8.225   4.364 -0.0426  0.5349 -0.4586
  940MOL0     C26783   6.453   8.328   4.291  0.1287  0.4218 -0.4054
  940MOL0     C26784   6.548   8.272   4.220  0.6197 -0.8138  0.5992
  940MOL0     C26785   6.646   8.355   4.147  0.0506  0.2274 -0.1587
  940MOL0     C26786   6.766   8.419   4.234 -0.1074  0.3777 -0.0483
  940MOL0     C26787   6.845   8.313   4.314  0.0837  0.0457  0.0198
  940MOL0     C26788   6.965   8.381   4.382 -0.7400 -0.1712  0.6848
  940MOL0     O26789   7.077   8.352   4.300 -0.9084 -0.0942  0.3571
  940MOL0     C26790   7.203   8.397   4.335 -0.5549  0.1975  0.1646
  940MOL0     C26791   7.310   8.333   4.274 -0.0048 -0.0405 -0.6153
  940MOL0     C26792   7.437   8.353   4.326 -0.2425  0.2265  0.3005
  940MOL0     C26793   7.464   8.450   4.423 -0.1901 -0.8696 -0.3679
  940MOL0     C26794   7.603   8.481   4.477 -0.3886  0.0133  0.8287
  940MOL0     O26795   7.690   8.381   4.458 -0.5771 -0.5464 -0.1016
  940MOL0     C26796   7.805   8.387   4.535  0.1089  0.3962  0.0410
  940MOL0     C26797   7.936   8.382   4.477  0.4352 -0.3696  0.7604
  940MOL0     C26798   8.050   8.376   4.550  0.4069  0.0127  0.0742
  940MOL0     C26799   8.041   8.363   4.690 -0.0754 -0.5732 -0.2048
  940MOL0     O26800   8.166   8.363   4.744 -0.3662  0.4997 -0.1023
  940MOL0     C26801   8.192   8.436   4.873  0.5667  0.0535 -0.2232
  940MOL0     C26802   8.344   8.426   4.903  0.2903 -0.1336 -0.3648
  940MOL0     C26803   8.427   8.484   4.794 -0.1012  0.3033  1.4347
  940MOL0     C26804   8.578   8.496   4.829  1.0805  0.9365  0.2660
  940MOL0     C26805   8.664   8.545   4.711  0.2288 -0.0981 -0.1318
  940MOL0     C26806   8.812   8.570   4.749  0.1455 -0.0630 -0.4245
  940MOL0     C26807   8.898   8.609   4.628  0.4658 -0.1083 -0.4772
  940MOL0     C26808   9.043   8.638   4.673  0.6716 -1.0210  0.7466
  940MOL0    Cl26809   9.142   8.488   4.714  0.2408  0.0764  0.3339
  940MOL0     C26810   7.913   8.356   4.750  0.3566 -0.7720  0.1724
  940MOL0     C26811   7.798   8.377   4.674 -0.5273 -0.6994  0.0787
  940MOL0     O26812   7.629   8.592   4.521  0.2287  0.4797 -0.0739
  940MOL0     C26813   7.361   8.526   4.471  0.2238 -0.0749 -0.1139
  940MOL0     C26814   7.230   8.492   4.440 -0.0053  1.1672  0.9568
  940MOL0     N26815   6.530   8.133   4.238 -1.1498  0.1967  0.3391
  940MOL0     N26816   6.451   8.107   4.334 -0.0354  0.5260 -0.1132
  940MOL0     C26817   5.283   7.908   4.198  0.3300 -0.3386 -0.2557
  940MOL0     C26818   5.152   7.872   4.228  0.2510 -0.1508  0.3530
  940MOL0     C26819   4.768   7.721   4.364 -0.2756  0.1679 -0.5830
  940MOL0     C26820   4.700   7.725   4.243  0.3496  0.9027  0.0582
  940MOL0     C26821   4.563   7.709   4.231 -0.1800 -0.6115 -0.7674
  940MOL0     C26822   4.483   7.696   4.346  0.3524  0.4853 -0.3245
  940MOL0     O26823   4.347   7.649   4.348 -0.1087 -0.3882  0.4707
  940MOL0     C26824   4.291   7.626   4.220 -0.0026 -0.6016 -1.1041
  940MOL0     C26825   4.147   7.578   4.238 -0.2136  0.2835 -0.2768
  940MOL0     C26826   4.074   7.695   4.318 -0.2300 -0.4747  0.3704
  940MOL0     C26827   3.923   7.664   4.319  0.0479 -0.3785 -0.2831
  940MOL0     C26828   3.868   7.712   4.192  0.6046 -0.5146  0.3010
  940MOL0     C26829   3.825   7.774   4.093  0.0893 -0.1993  0.5127
  940MOL0     C26830   4.552   7.709   4.471 -0.2229  0.2619  0.0269
  940MOL0     C26831   4.690   7.725   4.480 -0.0063  0.0564 -0.2601
  940MOL0     C26832   4.755   7.723   4.618  0.3165 -0.4622 -0.0065
  940MOL0     H26833   5.176   7.529   4.173 -0.3891  0.6998 -1.4313
  940MOL0     H26834   5.411   7.577   4.169 -0.5289 -0.5273  2.4518
  940MOL0     H26835   5.576   7.935   4.016  0.1443  2.2481  0.3128
  940MOL0     H26836   5.501   8.034   4.145 -0.4706  1.0503 -0.7458
  940MOL0     H26837   5.737   7.849   4.191 -0.3594  0.3928  0.7482
  940MOL0     H26838   5.687   7.985   4.290  0.1653 -1.1015 -0.3681
  940MOL0     H26839   5.748   8.154   4.125  3.2867  1.7493  0.8583
  940MOL0     H26840   5.792   8.030   4.008 -2.0306 -3.2273  0.3286
  940MOL0     H26841   5.959   7.933   4.172  2.2275  0.1004 -1.7456
  940MOL0     H26842   5.989   8.082   4.085  0.6849 -1.4293 -0.0487
  940MOL0     H26843   5.901   8.222   4.290 -3.3327 -3.1840 -0.1995
  940MOL0     H26844   5.932   8.079   4.393  1.4547  1.0166  1.0620
  940MOL0     H26845   6.144   8.045   4.344  2.1910 -0.5827 -3.5199
  940MOL0     H26846   6.163   8.160   4.214 -1.1425  0.2507 -1.2147
  940MOL0     H26847   6.076   8.244   4.492  0.6993 -1.9468  1.7014
  940MOL0     H26848   6.146   8.344   4.365  2.2205  0.7578  2.7831
  940MOL0     H26849   6.314   8.317   4.527  1.9741 -1.1790  0.6363
  940MOL0     H26850   6.296   8.141   4.520  3.3345 -1.1701 -2.1858
  940MOL0     H26851   6.428   8.433   4.302  1.4102  0.6252  0.8270
  940MOL0     H26852   6.687   8.298   4.063  0.6056  1.2613 -0.6185
  940MOL0     H26853   6.596   8.445   4.109  2.4082  1.8482  0.3244
  940MOL0     H26854   6.827   8.480   4.166 -0.5827  0.6133 -0.2695
  940MOL0     H26855   6.718   8.494   4.297  0.3633  1.6199 -1.1079
  940MOL0     H26856   6.867   8.230   4.247  2.8523 -0.1341  1.0427
  940MOL0     H26857   6.787   8.277   4.400 -0.4673  0.5822 -0.1174
  940MOL0     H26858   6.977   8.359   4.488 -2.6811  1.6465  1.3566
  940MOL0     H26859   6.955   8.490   4.378 -0.8803 -0.1921  0.4456
  940MOL0     H26860   7.288   8.259   4.198  2.2315 -0.4167 -0.9821
  940MOL0     H26861   7.521   8.301   4.282  0.2713  0.8628  0.5136
  940MOL0     H26862   7.943   8.385   4.369  1.8473 -1.0036  0.8030
  940MOL0     H26863   8.144   8.386   4.497  0.5240  0.8143  0.4059
  940MOL0     H26864   8.152   8.538   4.877 -0.7261 -0.3315 -1.9507
  940MOL0     H26865   8.129   8.390   4.949  1.7151 -1.1538  0.0426
  940MOL0     H26866   8.364   8.467   5.002  1.0195 -2.2789  0.4416
  940MOL0     H26867   8.368   8.320   4.917 -0.0942  0.0826  2.8570
  940MOL0     H26868   8.413   8.423   4.704 -0.8793  0.5184  1.4004
  940MOL0     H26869   8.394   8.586   4.771 -1.0195 -0.2245  0.3052
  940MOL0     H26870   8.615   8.401   4.868  0.3936  0.0149 -1.2592
  940MOL0     H26871   8.592   8.564   4.914  4.1165  0.4815  0.2548
  940MOL0     H26872   8.622   8.637   4.670  1.5111  0.2804 -0.6389
  940MOL0     H26873   8.665   8.467   4.635 -0.9915  1.1863 -1.5168
  940MOL0     H26874   8.806   8.645   4.828 -2.2088 -0.2173 -0.3597
  940MOL0     H26875   8.856   8.479   4.791  0.0783 -0.3957 -1.0499
  940MOL0     H26876   8.866   8.704   4.585 -0.4746 -0.1564  0.1087
  940MOL0     H26877   8.894   8.522   4.561 -1.9426 -1.5936  1.4488
  940MOL0     H26878   9.094   8.686   4.589  0.7193 -2.0059  0.1986
  940MOL0     H26879   9.048   8.697   4.766  1.1900  0.4692 -0.1872
  940MOL0     H26880   7.895   8.358   4.857 -0.5781  2.2965  0.0481
  940MOL0     H26881   7.701   8.382   4.723 -0.5422 -1.1805  0.1024
  940MOL0     H26882   7.380   8.615   4.529  3.2958 -0.1977 -0.7507
  940MOL0     H26883   7.158   8.549   4.499  1.2035  3.4423  0.3527
  940MOL0     H26884   5.319   8.008   4.177  1.3078 -0.7934 -0.7944
  940MOL0     H26885   5.081   7.949   4.258  0.8322  2.3589 -3.9141
  940MOL0     H26886   4.748   7.737   4.146  0.2028  1.1085  0.0112
  940MOL0     H26887   4.512   7.705   4.135  0.2252 -1.5939 -0.9524
  940MOL0     H26888   4.350   7.560   4.156  2.1027 -0.3834  0.5092
  940MOL0     H26889   4.283   7.720   4.164  0.0902  0.8330  1.1529
  940MOL0     H26890   4.149   7.478   4.282 -1.6642 -1.6767 -4.1444
  940MOL0     H26891   4.108   7.572   4.136 -0.1926  3.0507 -0.5129
  940MOL0     H26892   4.091   7.792   4.272 -1.2793 -0.3336  0.2614
  940MOL0     H26893   4.102   7.704   4.423 -1.5647  0.1234  0.7044
  940MOL0     H26894   3.901   7.558   4.330  1.1154 -0.9432 -2.9420
  940MOL0     H26895   3.882   7.726   4.400  1.5734  0.5657 -0.2022
  940MOL0     H26896   3.799   7.827   4.003  1.1623 -1.6468 -0.7106
  940MOL0     H26897   4.493   7.689   4.560 -1.2066 -1.1030 -0.8861
  940MOL0     H26898   4.833   7.646   4.619 -1.2744 -2.1708 -1.3623
  940MOL0     H26899   4.800   7.818   4.646  0.1805 -0.6501  0.8917
  940MOL0     H26900   4.688   7.701   4.702  1.6674 -2.3285  0.6667
  941MOL0     O26901   0.569   7.810   1.823 -0.2399  0.7253 -0.3299
  941MOL0     C26902   0.603   7.738   1.730 -0.5418  0.3940  0.4034
  941MOL0     O26903   0.735   7.707   1.697 -0.6195  0.3224  0.7992
  941MOL0     C26904   0.840   7.783   1.753 -0.0951 -0.1109 -0.3613
  941MOL0     C26905   0.894   7.892   1.679 -0.2749  0.0827  0.0848
  941MOL0     C26906   0.992   7.974   1.742 -1.2337  0.3240  0.5824
  941MOL0     C26907   1.049   7.931   1.866 -0.0002 -0.1365  0.0753
  941MOL0     O26908   1.135   8.004   1.944  0.0033 -0.3944 -0.2035
  941MOL0     C26909   1.267   7.965   1.927  0.0149  0.1842  1.4032
  941MOL0     C26910   1.349   8.006   2.036 -0.2356 -0.8082  1.0001
  941MOL0     C26911   1.330   8.148   2.096 -0.0236  0.1652 -1.0660
  941MOL0     C26912   1.409   8.258   2.002  0.6548 -0.8932 -0.2397
  941MOL0     C26913   1.384   8.391   2.072 -0.5234 -0.2326 -0.6626
  941MOL0     C26914   1.406   8.511   1.976  0.7104 -0.2377 -0.0305
  941MOL0     C26915   1.373   8.645   2.040 -0.6143  0.1752 -0.4245
  941MOL0     C26916   1.461   8.696   2.155 -0.4241  0.3581 -0.2611
  941MOL0     N26917   1.587   8.747   2.098 -0.4862  0.2361  0.1873
  941MOL0     C26918   1.696   8.669   2.076 -0.0424  0.7138 -1.0766
  941MOL0     C26919   1.793   8.756   2.040  0.3265  0.7716  0.6172
  941MOL0     C26920   1.928   8.712   2.007 -0.0045  0.2244  0.5844
  941MOL0     C26921   2.017   8.810   1.931  0.8120  0.5832 -0.4531
  941MOL0     C26922   2.156   8.750   1.914 -0.0101  0.1065  1.5229
  941MOL0     C26923   2.267   8.842   1.882 -0.0076  0.0885  0.5744
  941MOL0     O26924   2.391   8.760   1.867  0.8179 -0.3723 -0.4645
  941MOL0     C26925   2.513   8.832   1.874 -0.6647  0.7885  0.7653
  941MOL0     C26926   2.524   8.970   1.860 -0.8291  0.4125 -1.2478
  941MOL0     C26927   2.639   9.037   1.881 -0.9435  0.1006 -0.1797
  941MOL0     C26928   2.753   8.965   1.928  0.5441  0.3143  0.8564
  941MOL0     C26929   2.891   9.029   1.924  0.0691  0.1353 -1.3024
  941MOL0     O26930   2.987   8.964   1.976  0.1997  0.3039  0.5170
  941MOL0     C26931   3.103   9.028   2.021 -0.4646 -0.1681  0.3658
  941MOL0     C26932   3.184   8.932   2.086 -0.2294  0.0937  0.4006
  941MOL0     C26933   3.319   8.963   2.127  0.0306 -0.3128 -0.4156
  941MOL0     C26934   3.363   9.093   2.097 -0.5697 -0.7104 -0.3708
  941MOL0     O26935   3.485   9.135   2.128 -0.8862  0.0247  0.5224
  941MOL0     C26936   3.585   9.032   2.134  0.6348 -1.0038 -0.0130
  941MOL0     C26937   3.730   9.087   2.116  0.1928 -0.7344 -0.2918
  941MOL0     C26938   3.819   8.970   2.138  0.1324  0.4523  0.4527
  941MOL0     C26939   3.973   9.021   2.149  0.8242 -0.1520  0.1798
  941MOL0     C26940   4.064   8.903   2.187 -0.0688  0.2001  0.1163
  941MOL0     C26941   4.211   8.945   2.193 -1.2333  0.7217  0.1329
  941MOL0     C26942   4.292   8.850   2.290 -0.1668 -0.7141 -0.0114
  941MOL0     C26943   4.436   8.834   2.246 -0.3004  0.2174 -0.2937
  941MOL0    Cl26944   4.526   8.742   2.361 -0.4406  0.1402 -0.0077
  941MOL0     C26945   3.287   9.177   2.027  0.0389 -0.2618 -0.2214
  941MOL0     C26946   3.159   9.150   1.996 -0.0241  0.5985  1.1708
  941MOL0     O26947   2.897   9.139   1.870 -0.8107  0.0235  0.6487
  941MOL0     C26948   2.743   8.825   1.951 -0.8928 -1.3667  0.4472
  941MOL0     C26949   2.624   8.762   1.916  1.1053 -0.6590 -0.0179
  941MOL0     N26950   1.743   8.878   2.035  0.7572 -0.0595  0.9853
  941MOL0     N26951   1.614   8.877   2.069 -0.3027  0.9540 -0.9617
  941MOL0     C26952   0.996   7.816   1.925 -0.4268 -0.0280  0.1824
  941MOL0     C26953   0.886   7.748   1.872 -0.3632 -0.9532 -0.4298
  941MOL0     C26954   0.493   7.682   1.638  0.0819  0.3294  0.5626
  941MOL0     C26955   0.534   7.629   1.507  0.0335 -0.0528 -0.8271
  941MOL0     C26956   0.431   7.579   1.420 -0.5538  0.0141  0.0665
  941MOL0     C26957   0.301   7.566   1.463  0.1051 -0.1955  0.1649
  941MOL0     O26958   0.221   7.493   1.384  0.0465  0.0529  0.6276
  941MOL0     C26959   0.177   7.562   1.267  0.1351  0.2668 -0.5606
  941MOL0     C26960   0.141   7.471   1.144  0.5349 -0.3239 -0.1733
  941MOL0     C26961   0.265   7.444   1.059 -0.2871  0.4217  0.8296
  941MOL0     C26962   0.280   7.306   0.984 -0.2912  0.2363 -0.8077
  941MOL0     C26963   0.187   7.300   0.874  0.9469  0.0477 -0.3975
  941MOL0     C26964   0.098   7.287   0.791  1.5173 -0.5135  0.1104
  941MOL0     C26965   0.255   7.608   1.592  0.0546 -0.6227 -0.1443
  941MOL0     C26966   0.353   7.666   1.679 -0.6790  0.3128 -1.4360
  941MOL0     C26967   0.304   7.710   1.809 -0.3120 -0.4543  0.6435
  941MOL0     H26968   0.842   7.933   1.593 -1.3839  1.1195  1.2097
  941MOL0     H26969   1.018   8.066   1.691  2.1278  0.5238  2.3230
  941MOL0     H26970   1.278   7.857   1.921 -1.2514  0.0506  1.2282
  941MOL0     H26971   1.308   8.009   1.835  0.7506 -0.9293  1.1827
  941MOL0     H26972   1.453   7.984   2.010  0.1912  1.0431  0.9643
  941MOL0     H26973   1.319   7.940   2.118  0.8020 -2.7810 -0.1555
  941MOL0     H26974   1.370   8.162   2.197 -0.4321 -0.0848 -0.8685
  941MOL0     H26975   1.223   8.169   2.100 -0.4064 -1.7562 -0.4659
  941MOL0     H26976   1.518   8.247   1.996  0.9155  0.6326  0.8806
  941MOL0     H26977   1.378   8.266   1.897  2.9009  3.0582 -0.8151
  941MOL0     H26978   1.286   8.400   2.119  1.2777  1.4192  3.1770
  941MOL0     H26979   1.457   8.395   2.153 -1.0627  0.6458 -0.2037
  941MOL0     H26980   1.506   8.506   1.933  0.5722 -2.3480 -0.1730
  941MOL0     H26981   1.325   8.502   1.902  0.1593 -3.4818  0.8228
  941MOL0     H26982   1.268   8.654   2.068 -1.1874  3.4890 -2.8937
  941MOL0     H26983   1.392   8.719   1.961  2.9134 -0.5702 -0.4511
  941MOL0     H26984   1.405   8.773   2.209 -1.6294 -2.1281  2.2927
  941MOL0     H26985   1.470   8.619   2.233 -2.9626  2.1029  1.9007
  941MOL0     H26986   1.702   8.564   2.101 -2.2236  0.3148 -2.0485
  941MOL0     H26987   1.978   8.673   2.096  1.4388 -1.7415 -0.9958
  941MOL0     H26988   1.913   8.625   1.942  1.1420  1.3632 -1.2884
  941MOL0     H26989   1.967   8.840   1.838 -0.3960 -1.3364 -0.4745
  941MOL0     H26990   2.028   8.900   1.992  2.2805  0.5700 -0.6749
  941MOL0     H26991   2.160   8.669   1.840  1.4475 -1.1673  2.9234
  941MOL0     H26992   2.181   8.701   2.009 -2.0247 -1.6472  1.2270
  941MOL0     H26993   2.264   8.921   1.958 -3.3584  0.1194  0.5459
  941MOL0     H26994   2.234   8.874   1.783 -2.5248 -2.1810  0.5549
  941MOL0     H26995   2.435   9.018   1.821 -1.1076 -0.3471 -1.5651
  941MOL0     H26996   2.630   9.145   1.885 -0.2923  0.1482  0.2235
  941MOL0     H26997   3.137   8.834   2.095  0.3540 -0.6506 -3.1256
  941MOL0     H26998   3.368   8.889   2.190 -2.0359 -0.2689  1.3720
  941MOL0     H26999   3.584   8.971   2.225  0.9347  0.7055  1.1758
  941MOL0     H27000   3.571   8.967   2.046  1.1643  0.9453 -1.6105
  941MOL0     H27001   3.741   9.144   2.024  0.4347  0.0906  0.2362
  941MOL0     H27002   3.754   9.161   2.193  1.0476  1.1845 -2.3061
  941MOL0     H27003   3.794   8.922   2.233 -2.1890  2.1179  0.7536
  941MOL0     H27004   3.818   8.901   2.053  1.0093  1.4301 -0.3826
  941MOL0     H27005   3.982   9.095   2.229 -0.3870 -1.2650  1.3901
  941MOL0     H27006   4.008   9.075   2.061 -1.3705 -0.5037 -0.9843
  941MOL0     H27007   4.050   8.814   2.125 -3.2410  0.7520 -0.1410
  941MOL0     H27008   4.034   8.866   2.285 -1.5357 -2.2035 -1.1251
  941MOL0     H27009   4.255   8.942   2.093  3.2734  0.3294  1.9207
  941MOL0     H27010   4.224   9.047   2.232 -0.6066  0.3691  0.8777
  941MOL0     H27011   4.248   8.750   2.298  0.6600 -1.2600 -1.7537
  941MOL0     H27012   4.287   8.897   2.388  0.7574 -2.1441  0.7560
  941MOL0     H27013   4.454   8.796   2.146 -0.5870  2.8230 -1.4226
  941MOL0     H27014   4.480   8.935   2.254 -1.5292  0.7949 -0.6907
  941MOL0     H27015   3.323   9.278   2.013 -1.2288  0.0292 -1.6848
  941MOL0     H27016   3.103   9.223   1.938 -0.6503 -1.2540 -0.6463
  941MOL0     H27017   2.833   8.776   1.986 -0.1982 -0.0626  0.5726
  941MOL0     H27018   2.592   8.658   1.921 -1.5438 -0.4736 -5.5766
  941MOL0     H27019   1.027   7.784   2.024 -0.7332 -4.4498 -0.9529
  941MOL0     H27020   0.842   7.674   1.937  0.2313 -1.4321 -0.5655
  941MOL0     H27021   0.637   7.630   1.473  0.0122 -1.1453 -0.9624
  941MOL0     H27022   0.456   7.552   1.317 -1.2154  0.7571 -0.3038
  941MOL0     H27023   0.241   7.648   1.248  0.0103  1.0179  1.9564
  941MOL0     H27024   0.081   7.605   1.296  0.2764 -1.2915  2.7450
  941MOL0     H27025   0.075   7.525   1.076 -0.3787 -1.9595 -0.6512
  941MOL0     H27026   0.089   7.377   1.162 -1.0486  0.4495 -0.5461
  941MOL0     H27027   0.341   7.451   1.137 -0.6255  2.3329  1.0333
  941MOL0     H27028   0.281   7.520   0.983 -2.7294  0.3350  0.1582
  941MOL0     H27029   0.380   7.298   0.941 -0.5439 -1.0640 -1.2034
  941MOL0     H27030   0.265   7.223   1.053  0.1917  1.2109  0.5165
  941MOL0     H27031   0.009   7.262   0.737  1.1140 -0.2492  0.6440
  941MOL0     H27032   0.150   7.593   1.613 -0.3972  1.8443 -0.4018
  941MOL0     H27033   0.209   7.667   1.840 -0.6875  2.1005  3.6097
  941MOL0     H27034   0.374   7.699   1.893  0.2671  0.3242  0.2868
  941MOL0     H27035   0.278   7.817   1.810 -0.3905 -0.4445 -0.5546
  942MOL0     O27036   7.904   8.212  10.330  0.7402 -0.2578 -0.3954
  942MOL0     C27037   7.822   8.134  10.287  0.0678  0.4419  0.1789
  942MOL0     O27038   7.762   8.043  10.361 -0.9990  0.4039 -0.7769
  942MOL0     C27039   7.803   8.015  10.493  0.1191 -0.1883 -0.6604
  942MOL0     C27040   7.915   7.932  10.509  0.8665 -0.5965 -0.5655
  942MOL0     C27041   7.960   7.882  10.631  0.4056 -0.5373  0.5458
  942MOL0     C27042   7.891   7.922  10.742 -0.3545  0.3245 -0.5578
  942MOL0     O27043   7.917   7.850  10.862  0.9268 -0.8226  0.9070
  942MOL0     C27044   7.854   7.901  10.985 -0.0308 -0.3477 -0.0242
  942MOL0     C27045   7.839   7.792  11.091  0.1300  0.4165 -0.3837
  942MOL0     C27046   7.970   7.764  11.166  0.0212 -0.4426  0.8924
  942MOL0     C27047   7.958   7.638  11.240 -0.0676 -0.5382 -0.3745
  942MOL0     C27048   8.060   7.624  11.360 -0.1392 -0.0355  0.1479
  942MOL0     C27049   8.199   7.600  11.308 -0.2963 -0.9495 -0.0465
  942MOL0     C27050   8.300   7.574  11.430 -0.4898  0.7207  0.2242
  942MOL0     C27051   8.308   7.681  11.536  0.7957  0.3699  0.5949
  942MOL0     N27052   8.386   7.798  11.493 -0.0933  0.3854 -1.0072
  942MOL0     C27053   8.514   7.795  11.469 -0.0418  0.5168  0.5534
  942MOL0     C27054   8.558   7.925  11.450 -0.2618  0.2359 -0.3653
  942MOL0     C27055   8.700   7.967  11.424 -0.1331  0.1428  1.1212
  942MOL0     C27056   8.804   7.883  11.507  0.2421 -0.1106  0.7581
  942MOL0     C27057   8.939   7.921  11.457 -1.0830  0.6759 -0.0376
  942MOL0     C27058   9.062   7.844  11.521  0.2362  0.5297 -0.4566
  942MOL0     O27059   9.089   7.910  11.642 -0.3397  0.4330 -0.4153
  942MOL0     C27060   9.200   7.866  11.710  0.1703 -0.9825  0.0466
  942MOL0     C27061   9.289   7.759  11.675  1.0752  0.4914  0.7139
  942MOL0     C27062   9.403   7.730  11.750 -1.0684 -0.3888 -0.5253
  942MOL0     C27063   9.446   7.819  11.856 -0.4325 -0.2928 -0.3771
  942MOL0     C27064   9.577   7.797  11.932 -0.2578 -0.0437  0.2130
  942MOL0     O27065   9.603   7.874  12.052  0.0481  0.1620 -0.2753
  942MOL0     C27066   9.717   7.878  12.131 -0.4670  0.3169  0.4313
  942MOL0     C27067   9.755   7.997  12.188  0.1661 -0.2620 -0.4610
  942MOL0     C27068   9.864   7.995  12.273 -0.2069 -0.2854 -0.7338
  942MOL0     C27069   9.945   7.876  12.288 -0.3125 -0.4463 -0.3675
  942MOL0     O27070  10.067   7.877  12.363 -0.1127  0.0120 -0.4061
  942MOL0     C27071  10.062   7.943  12.487 -0.3543  0.1494  0.1227
  942MOL0     C27072  10.179   7.889  12.567 -0.8397  0.5595 -0.6144
  942MOL0     C27073  10.166   7.934  12.711 -0.0017 -0.7660 -0.0900
  942MOL0     C27074  10.244   8.071  12.745 -0.3053  1.5359  0.5916
  942MOL0     C27075  10.206   8.128  12.883  0.0902  0.7000  0.1501
  942MOL0     C27076  10.269   8.060  13.012 -0.1885  0.2542  0.2897
  942MOL0     C27077  10.416   8.108  13.033 -0.4878  0.5423  0.1079
  942MOL0     C27078  10.493   8.029  13.129 -0.0281  0.4993 -0.2962
  942MOL0    Cl27079  10.662   8.081  13.151 -0.2644  0.1508  0.0966
  942MOL0     C27080   9.919   7.763  12.218 -1.1126  0.3634  0.0448
  942MOL0     C27081   9.803   7.764  12.137 -1.0539 -0.8340 -0.7960
  942MOL0     O27082   9.648   7.711  11.886 -0.3208  0.1044  0.5567
  942MOL0     C27083   9.365   7.924  11.892 -0.5897 -0.1217 -0.0544
  942MOL0     C27084   9.244   7.935  11.828  1.2268  0.2888  0.1614
  942MOL0     N27085   8.435   8.002  11.470 -0.4362  0.5571 -0.0423
  942MOL0     N27086   8.340   7.926  11.503  0.8641  0.0289 -0.6627
  942MOL0     C27087   7.799   8.037  10.733  0.8343  0.3665  0.2680
  942MOL0     C27088   7.744   8.069  10.605 -1.0946  0.2943 -0.0428
  942MOL0     C27089   7.768   8.144  10.142 -0.2681 -0.0319 -0.4573
  942MOL0     C27090   7.636   8.102  10.120  0.0304 -0.0761  0.0939
  942MOL0     C27091   7.584   8.110   9.995  0.1504  1.0576  0.0330
  942MOL0     C27092   7.658   8.167   9.892 -0.0473  0.0160 -0.1782
  942MOL0     O27093   7.614   8.166   9.762  0.5181  0.4849 -0.5131
  942MOL0     C27094   7.480   8.116   9.736 -0.0450  0.2419  0.8231
  942MOL0     C27095   7.456   8.123   9.585 -0.3544 -0.1229  1.1043
  942MOL0     C27096   7.543   8.028   9.510  0.3173  0.6558 -0.1313
  942MOL0     C27097   7.500   8.022   9.361  0.4722  0.4573  0.3555
  942MOL0     C27098   7.629   7.970   9.294  0.3391 -0.8067  0.5676
  942MOL0     C27099   7.739   7.928   9.242 -0.2616 -0.2434 -0.0634
  942MOL0     C27100   7.790   8.215   9.918  0.7889  0.0851  0.8618
  942MOL0     C27101   7.845   8.207  10.042  0.1901 -0.2777 -0.5251
  942MOL0     C27102   7.992   8.239  10.061 -0.2289  0.7159 -0.5981
  942MOL0     H27103   7.976   7.911  10.422  3.8484 -1.6378  1.5728
  942MOL0     H27104   8.033   7.802  10.626 -0.7115 -1.5042 -1.7714
  942MOL0     H27105   7.897   7.988  11.035 -0.5873 -0.4929  0.7228
  942MOL0     H27106   7.753   7.928  10.953 -0.1560 -0.7489  0.0204
  942MOL0     H27107   7.800   7.701  11.043 -1.6597  0.7165  0.4421
  942MOL0     H27108   7.776   7.825  11.173  1.4819 -1.6769  1.6140
  942MOL0     H27109   7.999   7.850  11.227 -0.0665 -0.8518  1.5216
  942MOL0     H27110   8.042   7.746  11.086 -1.4011 -3.8351  0.2012
  942MOL0     H27111   7.857   7.635  11.282  0.6004 -0.5958  1.2840
  942MOL0     H27112   7.978   7.552  11.174 -0.5226 -1.6033  0.8374
  942MOL0     H27113   8.060   7.715  11.421  2.5542 -0.0138  0.2495
  942MOL0     H27114   8.023   7.540  11.419 -0.4801  1.2460  1.8284
  942MOL0     H27115   8.199   7.531  11.224 -0.6296  0.8476 -1.5763
  942MOL0     H27116   8.242   7.686  11.255 -1.2882  0.1413  0.8536
  942MOL0     H27117   8.398   7.546  11.391 -0.7667 -0.5410  0.3991
  942MOL0     H27118   8.270   7.482  11.481 -2.7454  2.0149  1.3801
  942MOL0     H27119   8.212   7.698  11.584  0.4805 -0.2808  0.2077
  942MOL0     H27120   8.359   7.628  11.617 -3.0394 -4.1101  0.4877
  942MOL0     H27121   8.571   7.703  11.460 -0.1858  0.4872 -0.0986
  942MOL0     H27122   8.719   7.946  11.318 -0.0078 -1.6954  1.4608
  942MOL0     H27123   8.713   8.074  11.439 -0.8059  0.3967 -0.0189
  942MOL0     H27124   8.795   7.919  11.610 -0.8385  3.1417 -0.3508
  942MOL0     H27125   8.775   7.778  11.503 -1.4805  0.3439  0.5804
  942MOL0     H27126   8.966   8.026  11.472  3.6013 -0.4070  0.4612
  942MOL0     H27127   8.937   7.911  11.348 -2.4202  0.2845  0.0013
  942MOL0     H27128   9.149   7.833  11.456  1.8904 -2.2079  1.9708
  942MOL0     H27129   9.037   7.740  11.543  1.6419  0.1545 -0.5074
  942MOL0     H27130   9.277   7.700  11.585  0.5959 -1.2637  1.8486
  942MOL0     H27131   9.472   7.649  11.728 -0.9116 -0.0065 -1.4708
  942MOL0     H27132   9.701   8.088  12.165  1.9928  0.4568 -2.1686
  942MOL0     H27133   9.903   8.086  12.316 -2.8866 -0.2562  1.9368
  942MOL0     H27134  10.072   8.051  12.475 -0.3518  0.2964  1.3271
  942MOL0     H27135   9.974   7.908  12.541 -1.0622  2.6173  0.6682
  942MOL0     H27136  10.180   7.780  12.573 -1.6755  0.3368 -3.2853
  942MOL0     H27137  10.277   7.923  12.531  0.1280  0.8191  2.0295
  942MOL0     H27138  10.060   7.959  12.712  0.7615  3.2015  0.1140
  942MOL0     H27139  10.197   7.865  12.790 -1.3583  1.0190  2.1222
  942MOL0     H27140  10.221   8.149  12.672  0.7769  0.7983 -0.5639
  942MOL0     H27141  10.351   8.054  12.731  0.1030  0.2686  4.2162
  942MOL0     H27142  10.096   8.122  12.884  0.1258 -1.7471 -1.8869
  942MOL0     H27143  10.230   8.235  12.890 -1.0595  0.9977 -0.2327
  942MOL0     H27144  10.214   8.099  13.098 -1.2394 -0.7037  0.0920
  942MOL0     H27145  10.247   7.953  13.019  1.4433 -0.2401 -1.2926
  942MOL0     H27146  10.419   8.215  13.057  1.6371  1.6747 -4.1572
  942MOL0     H27147  10.479   8.092  12.945  0.0452 -3.6837  1.0621
  942MOL0     H27148  10.457   8.027  13.233  1.0782  0.0958  0.0994
  942MOL0     H27149  10.500   7.931  13.082 -1.2479  1.1399 -1.8619
  942MOL0     H27150   9.976   7.672  12.231 -1.8955 -0.1192  0.1786
  942MOL0     H27151   9.773   7.675  12.082 -0.7372 -0.4697 -1.5833
  942MOL0     H27152   9.391   7.985  11.979 -0.6399  1.1562 -0.9063
  942MOL0     H27153   9.178   8.009  11.873  0.8786 -1.7434  3.2477
  942MOL0     H27154   7.778   8.092  10.825  2.7782  1.3879  0.1629
  942MOL0     H27155   7.673   8.150  10.592 -0.9419  0.3999 -0.2487
  942MOL0     H27156   7.587   8.058  10.206  3.8375 -3.6156  0.7783
  942MOL0     H27157   7.486   8.068   9.974  1.0088 -2.0815  1.6720
  942MOL0     H27158   7.406   8.183   9.779  0.0741  2.9646 -2.7655
  942MOL0     H27159   7.467   8.011   9.764 -0.1530  0.3228  1.0755
  942MOL0     H27160   7.471   8.224   9.544  0.4394  0.6089  3.0573
  942MOL0     H27161   7.351   8.094   9.573 -1.4988  2.6688  3.1777
  942MOL0     H27162   7.538   7.931   9.560 -1.0676  1.2972  1.0391
  942MOL0     H27163   7.644   8.069   9.523  0.2039  0.9156 -0.0551
  942MOL0     H27164   7.416   7.952   9.352 -0.4237  1.7274 -1.8238
  942MOL0     H27165   7.456   8.113   9.318 -2.2837 -1.4360 -1.1225
  942MOL0     H27166   7.834   7.896   9.207 -0.8180 -2.6121  0.4501
  942MOL0     H27167   7.845   8.255   9.834 -1.1220 -0.9471 -0.9832
  942MOL0     H27168   8.040   8.151  10.106 -1.0480 -0.6040 -2.1690
  942MOL0     H27169   8.041   8.245   9.964 -2.4427 -1.7917 -2.0351
  942MOL0     H27170   8.013   8.323  10.127 -0.7539 -1.0711  2.0166
  943MOL0     O27171   5.698  10.819   6.220 -0.0934 -0.1485 -0.2082
  943MOL0     C27172   5.669  10.937   6.191  0.3201 -0.7507  1.1740
  943MOL0     O27173   5.762  11.035   6.192 -0.2008 -0.2470  0.3903
  943MOL0     C27174   5.880  11.011   6.256 -0.3461  0.9108 -0.2017
  943MOL0     C27175   5.887  11.042   6.391  0.5729  0.3491  0.2590
  943MOL0     C27176   5.999  11.009   6.472 -0.2295  0.3227  0.2800
  943MOL0     C27177   6.115  10.946   6.410  0.4965  0.0507 -0.1595
  943MOL0     O27178   6.235  10.931   6.479  0.3811 -0.2693  0.3377
  943MOL0     C27179   6.234  10.953   6.627  0.3986 -0.0162  0.2105
  943MOL0     C27180   6.279  11.091   6.673  0.3316  0.2248  0.1781
  943MOL0     C27181   6.418  11.127   6.613 -0.5281  0.6305  0.1733
  943MOL0     C27182   6.455  11.264   6.662  0.0429  0.1153  0.2204
  943MOL0     C27183   6.428  11.380   6.562 -0.2578 -0.4002 -0.2859
  943MOL0     C27184   6.452  11.517   6.621 -0.0013 -0.8086 -0.9558
  943MOL0     C27185   6.609  11.556   6.607  0.5967  1.0024  0.6062
  943MOL0     C27186   6.638  11.687   6.664 -0.4599 -0.1025  0.0180
  943MOL0     N27187   6.783  11.722   6.646  0.8571 -0.3611 -0.5408
  943MOL0     C27188   6.889  11.695   6.727 -0.2895  0.1088  0.1190
  943MOL0     C27189   6.989  11.729   6.643 -0.5500 -0.1209  0.3975
  943MOL0     C27190   7.135  11.691   6.667  0.4964 -0.1101  0.3243
  943MOL0     C27191   7.227  11.793   6.611 -0.0113  0.1197  1.0915
  943MOL0     C27192   7.374  11.778   6.656 -0.2134  0.2774 -0.0028
  943MOL0     C27193   7.470  11.848   6.560  0.3731 -0.1832  0.4340
  943MOL0     O27194   7.604  11.839   6.612  0.3440 -0.3730  0.2999
  943MOL0     C27195   7.690  11.937   6.566  0.0765  0.7385 -0.3701
  943MOL0     C27196   7.674  12.019   6.467 -0.4887  0.2082  1.0233
  943MOL0     C27197   7.769  12.113   6.432 -0.6660  0.6291  0.5765
  943MOL0     C27198   7.900  12.109   6.485  0.5842 -0.6104 -0.1556
  943MOL0     C27199   8.009  12.204   6.439 -0.6081  0.6349 -0.7647
  943MOL0     O27200   8.120  12.223   6.523  0.5924 -0.0047  0.9757
  943MOL0     C27201   8.234  12.275   6.483  0.5062  0.0572  0.8537
  943MOL0     C27202   8.264  12.356   6.376  0.2791 -0.4331  0.1925
  943MOL0     C27203   8.386  12.415   6.349 -0.7230 -0.2424  0.2356
  943MOL0     C27204   8.494  12.380   6.427  0.1111 -0.4912 -0.2541
  943MOL0     O27205   8.620  12.427   6.394  0.2539 -0.0932 -0.3391
  943MOL0     C27206   8.671  12.534   6.472  0.6326  0.1748  1.1832
  943MOL0     C27207   8.792  12.594   6.404 -0.1290  0.8383 -0.4798
  943MOL0     C27208   8.760  12.660   6.266 -0.1263 -0.1047 -0.9825
  943MOL0     C27209   8.877  12.738   6.208 -0.9144 -0.1691 -0.0468
  943MOL0     C27210   8.848  12.809   6.075 -0.3248 -0.9396 -0.7316
  943MOL0     C27211   8.856  12.710   5.959  0.4764  0.5099  0.0836
  943MOL0     C27212   8.829  12.778   5.820  0.6581 -0.5916 -0.8829
  943MOL0     C27213   8.849  12.673   5.720  0.1830 -0.8718 -0.2533
  943MOL0    Cl27214   8.708  12.559   5.724  0.1357 -0.1926  0.1326
  943MOL0     C27215   8.475  12.284   6.527  0.3659 -0.2216 -0.4613
  943MOL0     C27216   8.341  12.234   6.551 -0.2682  0.5066 -0.7051
  943MOL0     O27217   7.998  12.239   6.324 -0.3701 -0.6645 -0.3959
  943MOL0     C27218   7.923  12.019   6.586 -0.1154 -0.4189 -0.5500
  943MOL0     C27219   7.822  11.937   6.630  0.4536 -0.5442 -0.3197
  943MOL0     N27220   6.945  11.769   6.521  0.3869 -0.1602 -0.1076
  943MOL0     N27221   6.817  11.769   6.519  0.5437 -0.3979  0.3649
  943MOL0     C27222   6.105  10.918   6.274 -0.3753 -0.8239 -0.2779
  943MOL0     C27223   5.994  10.948   6.201  0.5029  0.2198  0.4299
  943MOL0     C27224   5.538  10.985   6.145  0.3678 -0.0837  0.8660
  943MOL0     C27225   5.520  11.123   6.111 -0.6466 -0.4215 -0.6403
  943MOL0     C27226   5.399  11.180   6.073 -0.2135  0.1021 -0.6304
  943MOL0     C27227   5.280  11.103   6.079  0.0707  0.2958  0.2237
  943MOL0     O27228   5.162  11.163   6.055 -0.1385  0.0456  0.1462
  943MOL0     C27229   5.074  11.106   5.952 -0.3458  1.0009  0.8548
  943MOL0     C27230   4.929  11.112   5.986 -0.3445  0.5211 -0.1558
  943MOL0     C27231   4.839  11.078   5.866  0.7128  0.4446 -0.6099
  943MOL0     C27232   4.700  11.026   5.913 -0.5566 -0.5424 -0.2079
  943MOL0     C27233   4.616  11.133   5.965  0.2152  0.4837 -0.7688
  943MOL0     C27234   4.543  11.213   6.012  0.7791  0.3777  0.3090
  943MOL0     C27235   5.293  10.961   6.117  0.4225 -0.7092 -0.0171
  943MOL0     C27236   5.422  10.908   6.147  0.1557 -0.0259  0.2656
  943MOL0     C27237   5.429  10.762   6.173 -0.2644  0.4427  0.1220
  943MOL0     H27238   5.806  11.097   6.438  0.3077  0.7216 -0.6269
  943MOL0     H27239   6.000  11.047   6.574  0.3524  2.7050 -0.5608
  943MOL0     H27240   6.143  10.918   6.677  0.1273  0.0505 -0.2336
  943MOL0     H27241   6.302  10.874   6.662 -0.7450  0.3003  3.5064
  943MOL0     H27242   6.290  11.084   6.781  0.2118  0.6440  0.2204
  943MOL0     H27243   6.205  11.167   6.646 -1.7271 -1.6361  0.3293
  943MOL0     H27244   6.424  11.128   6.504  0.8886  2.5458  0.2163
  943MOL0     H27245   6.494  11.057   6.648 -0.0161  1.2261  0.2772
  943MOL0     H27246   6.397  11.278   6.753 -2.6172 -0.8513 -1.2395
  943MOL0     H27247   6.562  11.267   6.687 -0.2908 -1.9068  2.1973
  943MOL0     H27248   6.501  11.359   6.483  0.5069 -3.4822  1.0668
  943MOL0     H27249   6.327  11.370   6.522  0.6511 -1.7431 -2.4105
  943MOL0     H27250   6.394  11.589   6.563 -2.2921 -1.1093  0.8482
  943MOL0     H27251   6.410  11.524   6.721 -0.0099 -0.8039 -0.9598
  943MOL0     H27252   6.636  11.567   6.502 -1.4236  0.2607 -0.0328
  943MOL0     H27253   6.672  11.473   6.641  0.9295  0.2425 -1.6722
  943MOL0     H27254   6.584  11.757   6.600 -1.9912 -2.1579 -1.0859
  943MOL0     H27255   6.610  11.688   6.770 -1.4999 -1.8681 -0.1863
  943MOL0     H27256   6.897  11.667   6.832 -0.8795  0.0084  0.1437
  943MOL0     H27257   7.157  11.678   6.773  1.5212 -0.4929  0.0793
  943MOL0     H27258   7.163  11.596   6.621  1.7421 -0.1915  1.2073
  943MOL0     H27259   7.223  11.778   6.503 -5.0486 -0.0353  1.0990
  943MOL0     H27260   7.175  11.886   6.635 -1.9530 -0.2764 -1.2384
  943MOL0     H27261   7.409  11.675   6.668 -1.7669 -0.0196  2.5564
  943MOL0     H27262   7.384  11.818   6.757 -0.1316  0.3952 -0.0570
  943MOL0     H27263   7.436  11.952   6.557  3.2246  0.8003 -1.2252
  943MOL0     H27264   7.479  11.804   6.460  2.8115  2.5200 -0.7002
  943MOL0     H27265   7.587  12.018   6.402 -0.8936 -0.4568  1.5560
  943MOL0     H27266   7.751  12.183   6.351  1.7093 -0.5992 -1.1292
  943MOL0     H27267   8.186  12.388   6.308  1.7594  3.5308  0.0986
  943MOL0     H27268   8.403  12.477   6.261  1.0965 -0.5174  0.3436
  943MOL0     H27269   8.593  12.608   6.491 -1.4202 -1.5921 -0.0256
  943MOL0     H27270   8.700  12.491   6.568 -2.5074 -2.2331  1.2228
  943MOL0     H27271   8.838  12.666   6.473  0.1585 -0.1958  0.4302
  943MOL0     H27272   8.855  12.506   6.386 -1.7491 -0.2406 -1.0635
  943MOL0     H27273   8.730  12.579   6.198 -1.2770  0.1217 -0.7524
  943MOL0     H27274   8.677  12.728   6.286 -0.1037 -0.1506 -0.7277
  943MOL0     H27275   8.970  12.682   6.195 -0.1999  1.0294 -0.3361
  943MOL0     H27276   8.912  12.815   6.278 -0.5279  1.2685 -1.7261
  943MOL0     H27277   8.917  12.894   6.076 -2.4802  0.9061  0.8511
  943MOL0     H27278   8.752  12.858   6.090  1.0892  2.9945 -3.0710
  943MOL0     H27279   8.951  12.657   5.950  0.8002  1.2668 -1.2948
  943MOL0     H27280   8.791  12.623   5.970 -1.6828  2.1525  1.1626
  943MOL0     H27281   8.904  12.856   5.806  1.4771 -1.1998 -0.0572
  943MOL0     H27282   8.733  12.828   5.810  1.0839  0.9720  1.8888
  943MOL0     H27283   8.863  12.715   5.620 -1.3319 -3.7116 -1.7989
  943MOL0     H27284   8.939  12.616   5.747 -0.0516 -1.3597 -0.4884
  943MOL0     H27285   8.556  12.247   6.588 -1.0577  0.8746  2.2591
  943MOL0     H27286   8.321  12.154   6.623 -0.5248 -0.2807 -1.6363
  943MOL0     H27287   8.022  12.015   6.631  1.2755 -5.4505 -3.2497
  943MOL0     H27288   7.850  11.862   6.703 -1.2047 -0.3966  0.5203
  943MOL0     H27289   6.193  10.874   6.228 -0.2559 -0.8847  0.0067
  943MOL0     H27290   5.980  10.923   6.097 -2.1977 -0.0242  0.7902
  943MOL0     H27291   5.606  11.189   6.099 -0.7515 -0.2260 -0.3234
  943MOL0     H27292   5.406  11.281   6.033  3.1714  0.2988  0.1000
  943MOL0     H27293   5.107  11.003   5.931  2.2097  2.2400 -2.0155
  943MOL0     H27294   5.091  11.162   5.860  2.6705  1.8059  1.7780
  943MOL0     H27295   4.905  11.214   6.017 -1.8022 -0.5940  2.8564
  943MOL0     H27296   4.917  11.048   6.074 -1.0174 -0.8378 -1.1804
  943MOL0     H27297   4.870  10.988   5.813 -2.3490 -1.5940  0.7722
  943MOL0     H27298   4.837  11.166   5.801 -3.2038  1.2602  0.3721
  943MOL0     H27299   4.646  10.981   5.830 -1.0217 -3.1946  1.4005
  943MOL0     H27300   4.716  10.950   5.991 -0.1542 -0.6576 -0.3969
  943MOL0     H27301   4.475  11.287   6.052  1.8730  0.2576  2.5246
  943MOL0     H27302   5.200  10.906   6.112 -0.7901  1.3518 -1.6319
  943MOL0     H27303   5.468  10.752   6.275  0.8159  1.3317 -0.1880
  943MOL0     H27304   5.333  10.714   6.153  0.2712  0.4689 -2.9572
  943MOL0     H27305   5.498  10.713   6.103 -0.0330  0.9621 -0.0149
  944MOL0     O27306   8.661   9.143   0.087 -0.2675  1.0358 -0.0639
  944MOL0     C27307   8.606   9.043   0.131 -0.1549  0.6080 -0.2723
  944MOL0     O27308   8.664   8.929   0.173  0.1773 -0.2893 -0.2129
  944MOL0     C27309   8.799   8.911   0.199 -0.0187 -0.7500  0.3729
  944MOL0     C27310   8.898   9.015   0.199  0.1349  0.7204  0.1112
  944MOL0     C27311   9.033   8.995   0.208  0.5017  0.3892 -0.4788
  944MOL0     C27312   9.072   8.865   0.239 -0.6814  1.5367 -0.2672
  944MOL0     O27313   9.208   8.845   0.272  1.3240 -0.3161  0.1554
  944MOL0     C27314   9.292   8.802   0.169 -0.2057  0.4119 -0.3954
  944MOL0     C27315   9.433   8.851   0.192  0.1652 -0.1949 -0.2200
  944MOL0     C27316   9.436   8.997   0.188  0.1125 -0.6933  0.0220
  944MOL0     C27317   9.582   9.051   0.167 -0.4516 -0.1609  0.2698
  944MOL0     C27318   9.584   9.205   0.175  0.9088  0.2596 -0.5816
  944MOL0     C27319   9.714   9.272   0.227 -1.0279 -0.1097 -0.0062
  944MOL0     C27320   9.849   9.230   0.161  0.6379  0.4152 -0.3347
  944MOL0     C27321   9.860   9.286   0.014  0.9559  0.0486 -0.8579
  944MOL0     N27322  10.001   9.293  -0.023 -0.1677  0.0576  0.3223
  944MOL0     C27323  10.087   9.396   0.007  0.3811 -0.1652  0.4487
  944MOL0     C27324  10.203   9.352  -0.038 -0.3918  0.0324  0.0943
  944MOL0     C27325  10.327   9.439  -0.046 -0.1793 -0.1018 -0.4582
  944MOL0     C27326  10.456   9.373  -0.102  0.0969  0.8700 -0.0849
  944MOL0     C27327  10.553   9.478  -0.129  0.1282 -0.3944  0.4995
  944MOL0     C27328  10.678   9.421  -0.198 -0.2242  0.2455  0.4229
  944MOL0     O27329  10.757   9.542  -0.230  0.7611  0.2889 -0.1543
  944MOL0     C27330  10.888   9.533  -0.255  0.8875  0.4758  0.1794
  944MOL0     C27331  10.969   9.421  -0.256  0.7287  0.6040 -0.0756
  944MOL0     C27332  11.101   9.428  -0.275 -0.2105  0.2421  0.0536
  944MOL0     C27333  11.170   9.547  -0.287 -0.9745  0.2830 -0.4879
  944MOL0     C27334  11.307   9.548  -0.318 -1.1902  0.1563 -0.2420
  944MOL0     O27335  11.357   9.674  -0.333  0.1772  0.3274 -0.3791
  944MOL0     C27336  11.492   9.683  -0.315  0.4080 -0.4521 -0.1525
  944MOL0     C27337  11.577   9.609  -0.233  0.4772 -0.1714  0.8233
  944MOL0     C27338  11.711   9.643  -0.225 -0.2412  0.2220  0.4502
  944MOL0     C27339  11.773   9.741  -0.312 -0.4418  0.2572  0.0257
  944MOL0     O27340  11.905   9.753  -0.308 -0.3875  1.1898 -0.8345
  944MOL0     C27341  11.961   9.888  -0.336  1.2431 -0.4354  0.5109
  944MOL0     C27342  12.011   9.881  -0.487 -0.3855  0.2767 -0.1168
  944MOL0     C27343  12.169   9.841  -0.498  0.0139 -0.0156  0.1200
  944MOL0     C27344  12.195   9.718  -0.410 -0.1064 -0.3223  0.2113
  944MOL0     C27345  12.334   9.658  -0.442 -0.4869 -0.4335  1.4303
  944MOL0     C27346  12.387   9.559  -0.338  0.0368  0.7986 -0.6039
  944MOL0     C27347  12.532   9.506  -0.366 -0.3468 -0.5276 -0.6465
  944MOL0     C27348  12.574   9.407  -0.261  0.1832  0.1180  0.7917
  944MOL0    Cl27349  12.758   9.423  -0.254  0.2188  0.3124  0.0747
  944MOL0     C27350  11.689   9.813  -0.392  0.7235 -1.6415  0.2668
  944MOL0     C27351  11.549   9.793  -0.393 -0.1112  0.3829  0.4874
  944MOL0     O27352  11.371   9.438  -0.318 -0.4678 -0.0661  0.9432
  944MOL0     C27353  11.086   9.664  -0.276 -0.5244  0.6116 -0.0303
  944MOL0     C27354  10.950   9.657  -0.268  0.6914  0.1783 -0.0918
  944MOL0     N27355  10.195   9.226  -0.093 -0.1334 -0.4784  0.4705
  944MOL0     N27356  10.072   9.191  -0.082  0.4274  0.0016  0.6627
  944MOL0     C27357   8.980   8.756   0.234 -0.2368  0.3659  0.0748
  944MOL0     C27358   8.843   8.784   0.220  0.7740  0.6516  0.5077
  944MOL0     C27359   8.453   9.052   0.130 -0.1500  0.5681  0.0690
  944MOL0     C27360   8.394   9.151   0.043  0.4478 -0.6539 -0.2234
  944MOL0     C27361   8.257   9.163   0.034  0.0045  0.2347  0.7727
  944MOL0     C27362   8.162   9.087   0.106 -0.1508 -0.2182 -0.0367
  944MOL0     O27363   8.026   9.109   0.103  0.0880 -0.0515 -0.1611
  944MOL0     C27364   7.957   9.050  -0.015 -0.3105  0.0863  0.0841
  944MOL0     C27365   7.895   8.915   0.026 -0.4669  0.1074 -0.3177
  944MOL0     C27366   7.776   8.961   0.111  0.5137  0.5035 -0.2518
  944MOL0     C27367   7.644   8.965   0.041 -0.0346  0.0491  0.4413
  944MOL0     C27368   7.580   8.839   0.009 -1.1161 -0.0039  0.3537
  944MOL0     C27369   7.515   8.740  -0.016  0.3234  0.7669  0.2834
  944MOL0     C27370   8.217   8.988   0.187  0.5015 -0.0082 -0.1269
  944MOL0     C27371   8.362   8.968   0.195  0.7613  0.4354  0.1234
  944MOL0     C27372   8.404   8.845   0.273 -0.2758  0.5921 -0.5027
  944MOL0     H27373   8.868   9.117   0.177  0.8175  0.8188 -0.4054
  944MOL0     H27374   9.108   9.074   0.215  1.3066 -0.4016  0.1774
  944MOL0     H27375   9.284   8.693   0.161  0.0049  0.4823 -1.7956
  944MOL0     H27376   9.248   8.858   0.086 -0.6056 -2.1119 -1.9967
  944MOL0     H27377   9.492   8.808   0.111 -0.9090 -2.5953  0.2009
  944MOL0     H27378   9.461   8.810   0.289  0.7558 -1.3139 -0.8520
  944MOL0     H27379   9.396   9.038   0.281 -3.2236 -1.3845 -0.9562
  944MOL0     H27380   9.365   9.035   0.113 -0.7778 -3.2922 -0.5504
  944MOL0     H27381   9.656   9.011   0.237 -1.0107  1.2594  1.7152
  944MOL0     H27382   9.626   9.011   0.075  1.7129  0.9264  0.7623
  944MOL0     H27383   9.573   9.238   0.071  1.9265  0.9422 -0.4852
  944MOL0     H27384   9.503   9.228   0.245  1.8651 -0.0942  0.6698
  944MOL0     H27385   9.698   9.380   0.219 -1.0147 -0.0902  0.2245
  944MOL0     H27386   9.730   9.248   0.332  1.5470 -0.5626 -0.4268
  944MOL0     H27387   9.860   9.122   0.174 -1.6524  0.1927  0.1790
  944MOL0     H27388   9.935   9.279   0.207 -0.7897  1.6351  1.1276
  944MOL0     H27389   9.808   9.216  -0.053  3.3715 -0.7385 -2.0056
  944MOL0     H27390   9.810   9.383   0.011 -0.1024 -0.3483  1.6090
  944MOL0     H27391  10.066   9.494   0.047 -0.2418  0.0435 -0.3580
  944MOL0     H27392  10.294   9.512  -0.121  0.8427 -0.5132 -1.3458
  944MOL0     H27393  10.354   9.488   0.047 -0.0563  0.6065 -0.8582
  944MOL0     H27394  10.490   9.299  -0.028 -0.0517  1.6760  0.8143
  944MOL0     H27395  10.434   9.320  -0.195 -2.5282  0.5767  0.6248
  944MOL0     H27396  10.594   9.534  -0.044  1.1871 -0.1197 -0.1748
  944MOL0     H27397  10.511   9.559  -0.189 -1.7331 -1.9107 -0.3558
  944MOL0     H27398  10.658   9.377  -0.296  0.2302 -0.2841  0.5600
  944MOL0     H27399  10.723   9.350  -0.128 -1.6476 -0.4369  0.6768
  944MOL0     H27400  10.923   9.323  -0.246  0.8919  0.5012 -0.3099
  944MOL0     H27401  11.151   9.333  -0.258 -3.6720 -1.5025  1.3523
  944MOL0     H27402  11.535   9.532  -0.169 -0.1625  0.9557  1.8151
  944MOL0     H27403  11.752   9.580  -0.147 -2.2869  0.2271  1.6095
  944MOL0     H27404  11.885   9.959  -0.301  2.5583 -1.1153  5.4791
  944MOL0     H27405  12.047   9.915  -0.274  0.8730  1.1704  0.3657
  944MOL0     H27406  11.948   9.803  -0.530  0.2226  0.2712 -1.0343
  944MOL0     H27407  12.003   9.978  -0.536  0.3657  0.5832  0.3406
  944MOL0     H27408  12.204   9.820  -0.599 -0.4878 -1.8561  0.2911
  944MOL0     H27409  12.230   9.930  -0.480  0.4885  0.7597 -4.2462
  944MOL0     H27410  12.126   9.640  -0.443  0.2419 -0.6749  0.3207
  944MOL0     H27411  12.199   9.732  -0.302 -0.7275 -4.3434  0.9046
  944MOL0     H27412  12.412   9.735  -0.450  0.8802 -1.9659 -2.4060
  944MOL0     H27413  12.336   9.607  -0.539 -1.4456  2.4573 -0.2569
  944MOL0     H27414  12.395   9.622  -0.249  2.2065  0.8183 -0.7659
  944MOL0     H27415  12.310   9.483  -0.322 -0.2919  1.4880  1.4077
  944MOL0     H27416  12.599   9.592  -0.355  0.8963 -1.7340  2.2310
  944MOL0     H27417  12.543   9.467  -0.467  1.1536  2.8446 -1.9391
  944MOL0     H27418  12.526   9.430  -0.165 -0.4607 -3.0653  1.3465
  944MOL0     H27419  12.547   9.306  -0.296 -2.9667  0.9894  0.3818
  944MOL0     H27420  11.729   9.888  -0.459  0.3783 -2.8731 -1.3801
  944MOL0     H27421  11.494   9.862  -0.456 -1.4275 -1.9100 -1.0172
  944MOL0     H27422  11.123   9.766  -0.281 -2.1250  1.1398 -3.2349
  944MOL0     H27423  10.904   9.754  -0.254  0.3301 -0.1184  0.8884
  944MOL0     H27424   9.010   8.652   0.242 -0.2279  0.1825 -1.9158
  944MOL0     H27425   8.775   8.700   0.211  2.9297 -1.3908  2.3129
  944MOL0     H27426   8.452   9.227  -0.008 -1.5308  2.8549  2.3861
  944MOL0     H27427   8.227   9.247  -0.028  1.6225 -1.1273 -2.0764
  944MOL0     H27428   8.029   9.037  -0.097 -0.2349  3.6608 -0.5731
  944MOL0     H27429   7.888   9.129  -0.047 -0.4621 -0.2159 -0.3432
  944MOL0     H27430   7.976   8.863   0.078  0.5828  2.3913  0.5168
  944MOL0     H27431   7.868   8.856  -0.061 -0.5269 -4.1862  2.3386
  944MOL0     H27432   7.790   9.063   0.148 -0.2572  0.3556  0.4712
  944MOL0     H27433   7.762   8.891   0.194  0.6180 -1.4172 -1.8026
  944MOL0     H27434   7.566   9.025   0.089 -2.2159 -0.4391 -2.2911
  944MOL0     H27435   7.671   9.017  -0.051  0.7865  1.8976  1.6650
  944MOL0     H27436   7.441   8.665  -0.037 -0.0893  1.3526 -0.3979
  944MOL0     H27437   8.146   8.934   0.249  1.5855 -0.9418  0.3393
  944MOL0     H27438   8.477   8.865   0.352  2.0009  1.6663 -2.7511
  944MOL0     H27439   8.316   8.797   0.317  0.3987  1.0700  1.4543
  944MOL0     H27440   8.445   8.778   0.198 -1.6574  0.7722 -1.4636
  945MOL0     O27441   0.944   7.362   9.834  0.3874 -0.3278 -0.1065
  945MOL0     C27442   0.850   7.387   9.905  0.5892  0.2035 -0.2813
  945MOL0     O27443   0.858   7.446  10.029 -0.6190 -0.5149  0.0791
  945MOL0     C27444   0.968   7.432  10.109 -0.2187 -1.1326  0.6011
  945MOL0     C27445   1.034   7.311  10.126 -0.0762 -0.1452  1.4000
  945MOL0     C27446   1.144   7.300  10.201 -1.0077  1.3833 -0.3997
  945MOL0     C27447   1.200   7.409  10.259 -1.0743  0.3492 -0.4596
  945MOL0     O27448   1.309   7.406  10.341 -0.3365 -0.0234 -0.2920
  945MOL0     C27449   1.341   7.279  10.411 -0.1725 -0.1130 -0.7617
  945MOL0     C27450   1.457   7.292  10.515  0.0768  0.4847  0.2151
  945MOL0     C27451   1.587   7.355  10.454  0.7410  0.2736 -0.0007
  945MOL0     C27452   1.698   7.336  10.555  0.3958  0.5682 -0.3185
  945MOL0     C27453   1.813   7.437  10.527 -0.1175 -0.2919 -0.1722
  945MOL0     C27454   1.860   7.499  10.668  0.0922  0.5192  0.2824
  945MOL0     C27455   1.950   7.615  10.644 -0.5459  0.1635  0.2955
  945MOL0     C27456   2.069   7.633  10.745  1.2535  0.1708 -0.6053
  945MOL0     N27457   2.145   7.507  10.755  0.1804  0.5478  0.7016
  945MOL0     C27458   2.236   7.469  10.655 -1.4253 -0.5737 -0.0699
  945MOL0     C27459   2.311   7.371  10.705  0.7005 -0.0143  0.1251
  945MOL0     C27460   2.415   7.285  10.637  0.5712  0.4406 -0.2849
  945MOL0     C27461   2.332   7.198  10.546  0.1171 -0.4101 -0.0037
  945MOL0     C27462   2.434   7.112  10.472 -0.0695  0.4958  0.3300
  945MOL0     C27463   2.522   7.172  10.362  0.4826  0.3691 -1.3818
  945MOL0     O27464   2.636   7.226  10.429 -0.8792 -0.5542  0.2554
  945MOL0     C27465   2.742   7.267  10.354  0.0604  0.4671 -0.1057
  945MOL0     C27466   2.746   7.296  10.221  0.0190  0.1381 -0.1099
  945MOL0     C27467   2.850   7.350  10.158 -0.1804 -1.4094 -0.2028
  945MOL0     C27468   2.956   7.388  10.233 -0.1532 -0.9250 -0.7922
  945MOL0     C27469   3.062   7.468  10.163 -0.7683  0.0763  0.4400
  945MOL0     O27470   3.192   7.440  10.212 -0.1750 -0.2043  0.4974
  945MOL0     C27471   3.297   7.491  10.145 -0.2138 -0.3060  0.0184
  945MOL0     C27472   3.327   7.431  10.024 -0.7767 -0.1714 -0.8694
  945MOL0     C27473   3.440   7.465   9.951 -0.0686  1.2704 -0.8787
  945MOL0     C27474   3.524   7.570  10.000 -0.8461 -0.1991 -0.7530
  945MOL0     O27475   3.640   7.609   9.938 -0.7565  0.2573  0.4528
  945MOL0     C27476   3.684   7.538   9.818 -0.0043  0.1475 -0.2983
  945MOL0     C27477   3.796   7.617   9.754 -0.6755  0.5950  0.6861
  945MOL0     C27478   3.909   7.518   9.713  0.6177 -0.1023 -0.9389
  945MOL0     C27479   3.877   7.445   9.584  0.6866 -0.2161 -0.0977
  945MOL0     C27480   3.981   7.348   9.535 -0.2107 -0.1228 -0.9020
  945MOL0     C27481   4.088   7.405   9.434 -0.0621 -0.0553 -0.2273
  945MOL0     C27482   4.198   7.300   9.396 -0.2325  0.4602  0.1545
  945MOL0     C27483   4.281   7.361   9.282 -0.3210  0.9885  0.0605
  945MOL0    Cl27484   4.391   7.492   9.344  0.6866 -0.8318 -0.3164
  945MOL0     C27485   3.495   7.636  10.122 -0.3240  1.1194 -0.1623
  945MOL0     C27486   3.373   7.603  10.186  0.5711 -0.4632  0.1636
  945MOL0     O27487   3.034   7.543  10.069 -0.5684  0.2742 -0.4238
  945MOL0     C27488   2.968   7.357  10.361  0.1178  0.0819 -0.8146
  945MOL0     C27489   2.853   7.297  10.427 -0.3307  0.2701 -0.4567
  945MOL0     N27490   2.258   7.341  10.837 -0.2804 -0.2237 -0.5652
  945MOL0     N27491   2.161   7.425  10.864  0.5363 -0.2132 -0.9410
  945MOL0     C27492   1.136   7.530  10.247  0.5593  1.0569 -0.3081
  945MOL0     C27493   1.025   7.546  10.169 -0.3167  0.4216  0.8418
  945MOL0     C27494   0.723   7.370   9.823  0.8715 -0.4129 -0.7084
  945MOL0     C27495   0.722   7.352   9.682  1.2195  0.2276 -0.0341
  945MOL0     C27496   0.611   7.320   9.601  0.1942 -0.4815 -0.1784
  945MOL0     C27497   0.485   7.320   9.662  0.7196  0.3181 -0.2153
  945MOL0     O27498   0.368   7.310   9.589  0.2398  0.3167 -0.3571
  945MOL0     C27499   0.242   7.319   9.652  0.6902  0.7526 -0.4251
  945MOL0     C27500   0.126   7.293   9.554 -0.7143  0.0823  0.3584
  945MOL0     C27501   0.136   7.393   9.438  0.0915  0.0130 -0.1181
  945MOL0     C27502  -0.001   7.449   9.399  0.1967  0.1646  0.4054
  945MOL0     C27503   0.017   7.554   9.297 -0.6390 -0.2620  0.3136
  945MOL0     C27504   0.032   7.649   9.223  0.4121 -0.0633  0.6246
  945MOL0     C27505   0.477   7.358   9.801 -0.2045  0.0748  0.4844
  945MOL0     C27506   0.595   7.374   9.882  0.5076 -0.5183 -0.4891
  945MOL0     C27507   0.575   7.400  10.032 -0.4576 -0.5775 -0.9671
  945MOL0     H27508   0.987   7.232  10.068  0.0398  2.0022 -1.9532
  945MOL0     H27509   1.184   7.199  10.196  0.0348  1.8210 -1.4644
  945MOL0     H27510   1.256   7.252  10.474  0.8224  0.4558  0.8878
  945MOL0     H27511   1.360   7.202  10.335  0.1936  1.0398 -1.8752
  945MOL0     H27512   1.480   7.188  10.540 -1.2821 -0.7300 -3.1162
  945MOL0     H27513   1.416   7.346  10.601 -1.4281  1.8307 -1.2792
  945MOL0     H27514   1.579   7.460  10.423  1.7834  0.2664 -0.3421
  945MOL0     H27515   1.596   7.296  10.362  0.6914 -1.9885  1.3895
  945MOL0     H27516   1.639   7.355  10.645 -1.0462 -1.3547 -0.7853
  945MOL0     H27517   1.742   7.235  10.554 -0.2628  0.2677 -1.7217
  945MOL0     H27518   1.896   7.388  10.475 -1.2510  1.1561 -3.7154
  945MOL0     H27519   1.782   7.517  10.459 -1.1339  1.3594  2.0986
  945MOL0     H27520   1.777   7.519  10.736 -0.6117  0.5727 -0.5696
  945MOL0     H27521   1.910   7.418  10.722 -2.1024 -1.1899 -0.0910
  945MOL0     H27522   1.890   7.707  10.637 -3.2741 -1.5188 -0.1456
  945MOL0     H27523   1.995   7.598  10.546  0.0540  0.1479  0.5705
  945MOL0     H27524   2.140   7.710  10.713  1.5175  0.0430 -0.3421
  945MOL0     H27525   2.035   7.656  10.846  0.0066  0.0266 -0.9810
  945MOL0     H27526   2.243   7.516  10.557 -4.3010 -0.1470 -0.1595
  945MOL0     H27527   2.487   7.349  10.585 -0.6993  3.4754  1.4306
  945MOL0     H27528   2.461   7.229  10.720 -0.4433  1.3656  0.9341
  945MOL0     H27529   2.259   7.134  10.597 -0.2099 -1.7324 -2.0074
  945MOL0     H27530   2.290   7.266  10.471 -2.6602 -2.4994 -0.5064
  945MOL0     H27531   2.377   7.031  10.426 -1.0199  0.9411  0.6759
  945MOL0     H27532   2.499   7.061  10.543 -1.7751 -0.1215  1.5277
  945MOL0     H27533   2.464   7.246  10.306  0.6226 -0.3425 -2.5038
  945MOL0     H27534   2.559   7.087  10.305  3.7984  1.0166 -0.3974
  945MOL0     H27535   2.667   7.265  10.154 -0.4176 -0.8070  0.8221
  945MOL0     H27536   2.842   7.360  10.050 -0.4218  4.1966  0.0312
  945MOL0     H27537   3.274   7.338  10.005  2.2217 -1.9567 -1.1703
  945MOL0     H27538   3.459   7.412   9.858 -2.2939 -2.1561  0.4215
  945MOL0     H27539   3.710   7.433   9.836 -2.3112 -0.7730 -1.7699
  945MOL0     H27540   3.601   7.549   9.747  1.6879  1.0744 -2.2022
  945MOL0     H27541   3.763   7.675   9.668  1.4940 -0.5477 -1.0055
  945MOL0     H27542   3.840   7.694   9.819  2.7329  0.4818 -1.2309
  945MOL0     H27543   4.000   7.578   9.704  1.7487 -1.1210  2.3972
  945MOL0     H27544   3.936   7.447   9.791  1.0676 -1.6373 -2.4311
  945MOL0     H27545   3.847   7.513   9.505  0.8444  0.4207  0.3817
  945MOL0     H27546   3.786   7.390   9.607  1.2199 -0.9206  0.3709
  945MOL0     H27547   3.924   7.272   9.481 -1.4838  0.5451 -0.5478
  945MOL0     H27548   4.028   7.303   9.623 -1.0206  1.6060  0.4749
  945MOL0     H27549   4.044   7.441   9.340 -0.0206  1.0154  0.1537
  945MOL0     H27550   4.133   7.487   9.489 -3.2233  0.4893  1.8093
  945MOL0     H27551   4.160   7.203   9.365 -1.4147  1.5732 -2.0984
  945MOL0     H27552   4.259   7.275   9.484  0.1432  0.4943 -0.0949
  945MOL0     H27553   4.356   7.288   9.253 -1.4200 -1.7330  3.3958
  945MOL0     H27554   4.218   7.403   9.203  0.2151  1.9220  0.1068
  945MOL0     H27555   3.573   7.700  10.162  0.0680  1.2101 -1.0541
  945MOL0     H27556   3.333   7.651  10.275 -0.4375  1.5546 -1.2773
  945MOL0     H27557   3.055   7.378  10.422 -1.3827 -1.7975  2.2236
  945MOL0     H27558   2.853   7.276  10.533 -1.8290  0.3672 -0.4104
  945MOL0     H27559   1.172   7.614  10.305  0.9530  0.5573  0.1872
  945MOL0     H27560   0.974   7.641  10.156 -0.7033  0.1019 -0.0437
  945MOL0     H27561   0.819   7.369   9.636  0.4438  1.8944 -1.1720
  945MOL0     H27562   0.632   7.307   9.496 -2.0814 -1.7494 -0.5287
  945MOL0     H27563   0.226   7.416   9.700  0.2139  1.3281 -1.7239
  945MOL0     H27564   0.247   7.248   9.735  0.6028  0.4786 -0.6542
  945MOL0     H27565   0.034   7.311   9.611 -0.3984 -2.3739  1.8029
  945MOL0     H27566   0.122   7.190   9.517 -1.1675 -1.0543  3.2760
  945MOL0     H27567   0.175   7.347   9.347  0.5840  1.8214 -0.8756
  945MOL0     H27568   0.205   7.474   9.466  0.6066 -1.3136  2.8008
  945MOL0     H27569  -0.057   7.366   9.352  0.3356  2.1028 -3.6606
  945MOL0     H27570  -0.057   7.489   9.483 -1.5700  0.1464 -0.6937
  945MOL0     H27571   0.020   7.727   9.151  1.0064  0.9215  1.5589
  945MOL0     H27572   0.384   7.372   9.855 -0.7847 -1.2747 -0.1091
  945MOL0     H27573   0.607   7.314  10.093  0.9847  0.7858  0.2837
  945MOL0     H27574   0.631   7.485  10.071 -0.0541 -0.2997 -2.1223
  945MOL0     H27575   0.472   7.420  10.061 -0.7399 -2.7829 -0.2496
  946MOL0     O27576   4.023   1.057   5.176  0.3054  0.1428  0.4597
  946MOL0     C27577   4.005   0.987   5.074  0.2779  0.1927  0.2382
  946MOL0     O27578   4.107   0.920   5.016  0.2665 -0.0427  0.2614
  946MOL0     C27579   4.237   0.943   5.061  0.1238  0.6055 -0.3746
  946MOL0     C27580   4.324   0.959   4.957 -0.1551  0.0359 -0.6554
  946MOL0     C27581   4.459   0.974   4.980 -0.2224 -0.7486 -0.3751
  946MOL0     C27582   4.504   0.981   5.116 -0.0273  0.6450  0.9062
  946MOL0     O27583   4.638   1.007   5.141 -0.3547 -0.9080  0.3317
  946MOL0     C27584   4.707   1.093   5.037 -1.1539  1.0821 -0.1513
  946MOL0     C27585   4.644   1.234   5.033  0.1717 -0.0391 -0.3154
  946MOL0     C27586   4.757   1.338   4.994  1.2128  0.3738 -0.2241
  946MOL0     C27587   4.708   1.439   4.882 -0.8137  0.8264  0.2679
  946MOL0     C27588   4.820   1.546   4.861  1.0358 -0.3977 -0.7253
  946MOL0     C27589   4.757   1.679   4.831  0.0784  0.1736  0.7137
  946MOL0     C27590   4.860   1.766   4.760 -0.3654  0.0936  0.6334
  946MOL0     C27591   4.780   1.886   4.711 -0.5616 -0.1927 -0.7550
  946MOL0     N27592   4.865   2.005   4.669 -0.2320  0.2526  0.0630
  946MOL0     C27593   4.952   2.061   4.763 -0.7766 -1.8377  0.4819
  946MOL0     C27594   5.026   2.141   4.671 -0.2721  0.3091  0.2107
  946MOL0     C27595   5.140   2.232   4.711  0.2310  0.3984  0.8276
  946MOL0     C27596   5.262   2.204   4.632 -0.2570  0.0138 -0.0088
  946MOL0     C27597   5.334   2.078   4.683  0.3859 -0.0733 -0.6062
  946MOL0     C27598   5.393   1.993   4.574 -0.4760  0.8300 -0.9271
  946MOL0     O27599   5.428   1.864   4.632  0.8803  0.5289  0.5432
  946MOL0     C27600   5.558   1.842   4.653 -0.4873  0.0852 -0.7371
  946MOL0     C27601   5.609   1.793   4.771 -0.1598 -0.1555 -0.0439
  946MOL0     C27602   5.742   1.768   4.799 -0.3566 -0.0122 -0.1923
  946MOL0     C27603   5.839   1.780   4.692 -0.3418  0.8493  0.4089
  946MOL0     C27604   5.976   1.749   4.723 -0.4509 -0.0346  0.0791
  946MOL0     O27605   6.065   1.799   4.648  0.0315 -0.4292  0.6254
  946MOL0     C27606   6.189   1.736   4.647 -0.7086 -0.1053 -0.1057
  946MOL0     C27607   6.281   1.739   4.761 -0.8871  0.0854 -0.3864
  946MOL0     C27608   6.416   1.702   4.734  0.5892 -0.2653 -0.3598
  946MOL0     C27609   6.459   1.659   4.607  0.0128  0.3342 -0.2262
  946MOL0     O27610   6.586   1.661   4.582  0.1986  0.0497  0.4869
  946MOL0     C27611   6.648   1.538   4.616  0.1452 -0.1146 -0.3619
  946MOL0     C27612   6.652   1.437   4.505  0.4543  0.4405  0.6464
  946MOL0     C27613   6.747   1.317   4.521 -0.3323  0.0302 -0.0636
  946MOL0     C27614   6.744   1.208   4.421 -0.0826  0.2319  0.2305
  946MOL0     C27615   6.888   1.138   4.425  1.1516  0.4496 -1.0297
  946MOL0     C27616   6.894   0.995   4.375 -0.2090 -0.3557  0.4448
  946MOL0     C27617   6.836   0.993   4.231  0.1779 -0.2022  0.0720
  946MOL0     C27618   6.836   0.860   4.160  0.3409  0.7714 -0.4425
  946MOL0    Cl27619   6.706   0.741   4.210 -0.1491  0.0117  0.0173
  946MOL0     C27620   6.366   1.645   4.509  0.6419  0.0596 -0.0739
  946MOL0     C27621   6.232   1.681   4.525  0.3934 -0.3325 -1.0378
  946MOL0     O27622   5.999   1.673   4.816  0.9000 -0.5575 -0.7487
  946MOL0     C27623   5.795   1.818   4.569  0.0276  0.6281 -1.1142
  946MOL0     C27624   5.655   1.844   4.554 -0.3842  0.7526 -0.0482
  946MOL0     N27625   4.974   2.119   4.546  0.6849  0.4163 -0.1581
  946MOL0     N27626   4.876   2.042   4.542 -0.4042 -0.1003  0.0713
  946MOL0     C27627   4.412   0.964   5.219 -0.3882  0.6138  0.1796
  946MOL0     C27628   4.279   0.942   5.194 -0.3463  0.0963 -0.4038
  946MOL0     C27629   3.876   0.981   5.001 -0.2744 -0.1715 -0.2799
  946MOL0     C27630   3.879   0.917   4.871  0.2567  0.0612 -0.0096
  946MOL0     C27631   3.761   0.882   4.804 -0.1484 -0.8301 -0.0366
  946MOL0     C27632   3.637   0.920   4.870 -0.0982 -0.4250 -0.0879
  946MOL0     O27633   3.517   0.867   4.841  0.2554 -0.1711 -0.2663
  946MOL0     C27634   3.515   0.761   4.738 -0.2229  0.1454  0.9541
  946MOL0     C27635   3.372   0.737   4.686  0.7939 -0.5544  0.7453
  946MOL0     C27636   3.296   0.859   4.631 -0.8823  0.0078 -0.1034
  946MOL0     C27637   3.152   0.823   4.589 -0.2561  1.0566  0.0279
  946MOL0     C27638   3.081   0.911   4.499 -0.0356 -0.3117 -0.1389
  946MOL0     C27639   3.004   0.979   4.434 -0.4182  0.1886 -0.2626
  946MOL0     C27640   3.635   1.005   4.987 -0.2179 -1.0954 -0.0651
  946MOL0     C27641   3.753   1.036   5.056 -0.6613  0.4904 -0.2582
  946MOL0     C27642   3.738   1.127   5.177 -0.0897 -0.2410  0.0860
  946MOL0     H27643   4.290   0.950   4.854  1.6979 -1.6488 -1.1732
  946MOL0     H27644   4.522   0.980   4.892  1.5938 -3.0949  0.6590
  946MOL0     H27645   4.808   1.096   5.080 -0.1601 -0.6659 -2.1366
  946MOL0     H27646   4.721   1.048   4.938 -1.0461  1.3131 -0.2419
  946MOL0     H27647   4.623   1.249   5.139  3.1773  4.8666 -0.1263
  946MOL0     H27648   4.554   1.241   4.971  0.1390 -2.4160 -0.6411
  946MOL0     H27649   4.847   1.288   4.955  0.6912 -2.5856  1.9502
  946MOL0     H27650   4.779   1.392   5.087 -0.6340 -1.9118  1.7016
  946MOL0     H27651   4.678   1.403   4.783  0.9681 -1.4193  0.4765
  946MOL0     H27652   4.624   1.500   4.916 -0.1753  0.5284  2.5025
  946MOL0     H27653   4.867   1.552   4.959 -0.4728 -2.6576  0.2198
  946MOL0     H27654   4.897   1.506   4.795  4.8962 -1.3743  3.7938
  946MOL0     H27655   4.664   1.661   4.776  0.5636  0.5202 -0.2469
  946MOL0     H27656   4.719   1.716   4.926 -2.3634 -1.5567  0.4970
  946MOL0     H27657   4.923   1.716   4.685  1.0426  1.1455  1.0654
  946MOL0     H27658   4.929   1.783   4.843  1.3899 -1.6422 -0.3659
  946MOL0     H27659   4.690   1.873   4.651 -0.7631 -1.4555 -0.2067
  946MOL0     H27660   4.739   1.919   4.807 -1.4864  0.0315 -1.2241
  946MOL0     H27661   4.969   2.059   4.870  2.5817 -1.7242  0.0598
  946MOL0     H27662   5.113   2.338   4.703  1.7615  1.0269  3.1917
  946MOL0     H27663   5.153   2.209   4.817  0.2981  0.2588  0.7882
  946MOL0     H27664   5.233   2.184   4.529 -1.2404  1.4510 -0.0500
  946MOL0     H27665   5.337   2.284   4.637 -0.5084  0.2076  0.9295
  946MOL0     H27666   5.266   2.016   4.743 -0.2187 -1.9772 -3.0644
  946MOL0     H27667   5.411   2.099   4.757 -1.3632 -0.5055  1.4343
  946MOL0     H27668   5.479   2.042   4.528  0.1926  1.2721  0.6873
  946MOL0     H27669   5.310   1.989   4.504 -0.0235  1.2108 -1.4942
  946MOL0     H27670   5.532   1.786   4.847  0.8209  1.9709  1.2311
  946MOL0     H27671   5.764   1.739   4.901 -0.4856  0.9944  0.1314
  946MOL0     H27672   6.252   1.786   4.854  1.7298  3.1088 -0.9503
  946MOL0     H27673   6.495   1.725   4.804  1.0528 -0.3872 -0.8288
  946MOL0     H27674   6.752   1.559   4.645  0.5475 -1.6596 -0.5938
  946MOL0     H27675   6.595   1.492   4.700  0.6752 -0.4984 -0.2345
  946MOL0     H27676   6.554   1.402   4.471 -0.2997  0.2155  2.8904
  946MOL0     H27677   6.675   1.489   4.411  0.5298  1.0769  1.0114
  946MOL0     H27678   6.850   1.352   4.523  0.0826 -1.0122 -1.3380
  946MOL0     H27679   6.715   1.280   4.619 -2.8148 -0.0786 -0.8497
  946MOL0     H27680   6.726   1.252   4.323  0.0691 -1.3102 -0.5162
  946MOL0     H27681   6.656   1.147   4.438 -0.1685  0.3148  0.0806
  946MOL0     H27682   6.912   1.139   4.531 -1.8321  0.7975 -0.2843
  946MOL0     H27683   6.958   1.210   4.381  0.7936 -0.6549 -3.5714
  946MOL0     H27684   6.995   0.954   4.375  0.1365  0.4870  0.2459
  946MOL0     H27685   6.830   0.934   4.441  1.6665 -1.1437  1.6105
  946MOL0     H27686   6.908   1.057   4.178  1.4268 -0.4406  1.3944
  946MOL0     H27687   6.732   1.025   4.230 -0.4429 -2.1297 -1.0298
  946MOL0     H27688   6.816   0.876   4.054  1.6697  1.9020 -0.5494
  946MOL0     H27689   6.935   0.813   4.161  0.8071  1.7232  0.5518
  946MOL0     H27690   6.389   1.595   4.416  1.1819  0.2948 -0.0688
  946MOL0     H27691   6.162   1.658   4.446 -0.3523 -0.2126 -0.4184
  946MOL0     H27692   5.869   1.830   4.491  3.0371 -3.0711  0.8371
  946MOL0     H27693   5.619   1.871   4.456  0.7682 -0.8060 -0.9438
  946MOL0     H27694   4.451   0.970   5.320  1.0657 -1.5821 -0.1877
  946MOL0     H27695   4.207   0.921   5.273  1.9282 -2.3404  1.2209
  946MOL0     H27696   3.969   0.873   4.828 -1.0028 -1.4613 -1.1921
  946MOL0     H27697   3.777   0.827   4.711  2.0282 -0.2404 -0.0531
  946MOL0     H27698   3.549   0.667   4.783  1.3421 -0.2564 -0.9289
  946MOL0     H27699   3.583   0.774   4.653 -3.0867 -2.3591 -1.9768
  946MOL0     H27700   3.315   0.687   4.764  0.6944  3.1201  3.3024
  946MOL0     H27701   3.379   0.671   4.599 -0.6846 -0.2423  0.3557
  946MOL0     H27702   3.346   0.905   4.545 -0.5844  0.5264  0.3447
  946MOL0     H27703   3.292   0.926   4.717  0.5561  0.6140 -0.4778
  946MOL0     H27704   3.172   0.731   4.533 -3.4678  0.9079 -1.0681
  946MOL0     H27705   3.091   0.802   4.677 -0.1551  2.1241  0.3702
  946MOL0     H27706   2.931   1.046   4.392 -0.7621 -0.9371 -1.5561
  946MOL0     H27707   3.544   1.045   5.031  1.2865  2.6085 -0.0388
  946MOL0     H27708   3.799   1.088   5.259 -0.9666 -0.3841  0.6812
  946MOL0     H27709   3.768   1.230   5.152 -2.7757 -0.0419 -3.0568
  946MOL0     H27710   3.639   1.121   5.222 -0.5717 -0.9318 -1.0291
  947MOL0     O27711  11.215   0.151  10.802  0.4111  0.4763  0.0662
  947MOL0     C27712  11.168   0.212  10.901 -0.4180 -0.2037 -0.3057
  947MOL0     O27713  11.244   0.300  10.985 -0.4765 -0.2076  0.6061
  947MOL0     C27714  11.380   0.313  10.970  0.3454  0.1452  0.4462
  947MOL0     C27715  11.472   0.233  11.034  0.0311  0.3704  0.8666
  947MOL0     C27716  11.612   0.263  11.029 -0.5462 -0.8078 -0.6853
  947MOL0     C27717  11.659   0.359  10.939 -0.7724 -0.1485  1.0455
  947MOL0     O27718  11.793   0.388  10.908 -0.4664  0.6798 -0.3917
  947MOL0     C27719  11.884   0.270  10.878 -0.0804  0.3499 -0.2403
  947MOL0     C27720  12.032   0.320  10.870  0.2247 -0.2710 -0.3207
  947MOL0     C27721  12.140   0.205  10.854 -0.5293 -0.0755  0.1665
  947MOL0     C27722  12.292   0.236  10.877 -0.0678  0.1807 -0.6800
  947MOL0     C27723  12.375   0.114  10.849  0.0941  0.7825 -0.2396
  947MOL0     C27724  12.380   0.068  10.703 -0.1328  0.1976 -0.1250
  947MOL0     C27725  12.489  -0.042  10.692  0.2646 -0.1079 -0.4920
  947MOL0     C27726  12.462  -0.179  10.752  0.0608 -0.0199 -0.2096
  947MOL0     N27727  12.522  -0.276  10.660  1.8786 -0.2356  0.6924
  947MOL0     C27728  12.647  -0.308  10.631 -0.3290  0.8128 -1.2857
  947MOL0     C27729  12.647  -0.400  10.528 -0.4156  0.2742  0.1636
  947MOL0     C27730  12.774  -0.460  10.470 -0.3472  0.6333  0.1600
  947MOL0     C27731  12.808  -0.599  10.528 -0.5518 -0.3300 -0.1668
  947MOL0     C27732  12.915  -0.602  10.647  0.3814 -0.1188 -0.3957
  947MOL0     C27733  13.050  -0.576  10.599  0.4269  0.3821  0.3275
  947MOL0     O27734  13.141  -0.645  10.694  0.1998 -0.3526 -0.0135
  947MOL0     C27735  13.276  -0.641  10.665 -0.3760 -0.5229  0.2893
  947MOL0     C27736  13.331  -0.563  10.562 -0.9889 -1.5162  0.4492
  947MOL0     C27737  13.471  -0.565  10.543  0.1864  0.5207  0.4679
  947MOL0     C27738  13.556  -0.627  10.632 -1.3460 -0.4124  0.8700
  947MOL0     C27739  13.698  -0.631  10.606 -0.1431 -0.1094 -0.0580
  947MOL0     O27740  13.773  -0.690  10.704 -0.7319  0.6858  0.2611
  947MOL0     C27741  13.911  -0.666  10.689  0.4777  0.1279  0.4371
  947MOL0     C27742  13.964  -0.543  10.663 -0.6983 -0.0791 -0.5887
  947MOL0     C27743  14.104  -0.523  10.669  0.3773  0.2569  0.1414
  947MOL0     C27744  14.178  -0.620  10.718 -0.6224 -0.2438  0.5338
  947MOL0     O27745  14.312  -0.594  10.737 -0.4114 -0.2084 -0.6394
  947MOL0     C27746  14.353  -0.472  10.793  0.9453  0.5086 -0.0331
  947MOL0     C27747  14.484  -0.505  10.863 -0.1613 -0.4091  0.3496
  947MOL0     C27748  14.593  -0.576  10.778 -0.2741 -0.6331  0.6285
  947MOL0     C27749  14.736  -0.524  10.809 -0.3270  0.2780 -0.6316
  947MOL0     C27750  14.844  -0.595  10.722  0.0500  0.2436 -0.5919
  947MOL0     C27751  14.831  -0.567  10.577  0.4881 -0.1259  0.2387
  947MOL0     C27752  14.817  -0.418  10.535  0.0615  0.0342 -0.0608
  947MOL0     C27753  14.795  -0.403  10.379  0.7361  0.5956 -1.1481
  947MOL0    Cl27754  14.652  -0.498  10.319 -0.1626 -0.3093  0.0070
  947MOL0     C27755  14.125  -0.747  10.741 -0.5251  0.4111  0.1887
  947MOL0     C27756  13.989  -0.773  10.738  0.6606  0.5039 -0.1118
  947MOL0     O27757  13.730  -0.613  10.490 -0.0648  0.0003  0.2961
  947MOL0     C27758  13.500  -0.687  10.748  0.1758  0.1549  0.1244
  947MOL0     C27759  13.361  -0.693  10.763  0.6216 -0.0309  0.9530
  947MOL0     N27760  12.510  -0.415  10.495  0.4302  0.0615 -0.6676
  947MOL0     N27761  12.438  -0.337  10.569  0.3497 -0.6529  0.1212
  947MOL0     C27762  11.570   0.426  10.862  0.3184 -0.1055  0.2771
  947MOL0     C27763  11.427   0.412  10.883 -0.6071 -0.7024  0.5574
  947MOL0     C27764  11.025   0.180  10.937 -0.5209 -0.4376  0.4900
  947MOL0     C27765  10.990   0.207  11.069  0.5655  0.4699 -0.8209
  947MOL0     C27766  10.865   0.182  11.119  0.0907 -0.3402 -0.1052
  947MOL0     C27767  10.759   0.151  11.036  0.7455 -0.1387  0.0930
  947MOL0     O27768  10.631   0.149  11.094 -0.4427 -0.1596  0.7701
  947MOL0     C27769  10.524   0.188  11.008  0.0122  0.2488 -0.5396
  947MOL0     C27770  10.387   0.175  11.070 -0.0728  0.4695  1.3244
  947MOL0     C27771  10.347   0.296  11.143 -0.3098 -0.5661  0.2252
  947MOL0     C27772  10.200   0.313  11.189  0.2086  0.7275  0.4484
  947MOL0     C27773  10.119   0.212  11.125  0.4587  0.3774 -0.6098
  947MOL0     C27774  10.044   0.124  11.090 -0.0195  0.5403  0.3449
  947MOL0     C27775  10.787   0.120  10.902  0.8823 -0.3126  0.1414
  947MOL0     C27776  10.920   0.137  10.851  0.1069 -0.1779  0.3285
  947MOL0     C27777  10.926   0.094  10.707  0.2024 -0.2752  0.1902
  947MOL0     H27778  11.424   0.165  11.105  1.0164 -0.3301  0.8803
  947MOL0     H27779  11.690   0.206  11.078  1.0239  1.6683 -0.0878
  947MOL0     H27780  11.875   0.199  10.961 -1.4471 -1.1624 -1.6222
  947MOL0     H27781  11.846   0.223  10.788 -3.0495  0.6180  0.7650
  947MOL0     H27782  12.062   0.374  10.960  0.4653 -1.8019  0.5592
  947MOL0     H27783  12.045   0.380  10.779  1.5350 -0.2012 -0.1009
  947MOL0     H27784  12.126   0.164  10.753 -1.4120  1.7107 -0.4942
  947MOL0     H27785  12.109   0.126  10.922 -4.2171  1.0010 -0.0025
  947MOL0     H27786  12.323   0.320  10.814 -0.8365  2.3092  1.6222
  947MOL0     H27787  12.313   0.274  10.977  2.0381 -2.5928  0.0298
  947MOL0     H27788  12.476   0.136  10.885  0.7670 -0.6294 -1.1511
  947MOL0     H27789  12.338   0.028  10.906  1.2422  0.1922 -0.3525
  947MOL0     H27790  12.282   0.026  10.681 -0.9311  0.0564  3.1702
  947MOL0     H27791  12.409   0.145  10.631  0.6286  0.2433  0.2228
  947MOL0     H27792  12.588  -0.007  10.723  0.1511 -3.1703  4.2860
  947MOL0     H27793  12.488  -0.060  10.584 -1.5809 -0.9621 -0.3680
  947MOL0     H27794  12.505  -0.201  10.850 -1.1451 -0.1593  0.3093
  947MOL0     H27795  12.355  -0.187  10.775  0.1512  0.0826  0.2605
  947MOL0     H27796  12.740  -0.270  10.672 -2.1005  3.2198  0.7784
  947MOL0     H27797  12.750  -0.478  10.365  0.5316 -1.6328  0.2703
  947MOL0     H27798  12.855  -0.387  10.483 -0.9762  1.1770  1.1060
  947MOL0     H27799  12.718  -0.656  10.553 -0.7387  0.4557  1.0266
  947MOL0     H27800  12.847  -0.647  10.438 -0.6315 -3.1385  1.1804
  947MOL0     H27801  12.908  -0.704  10.686 -1.7656  0.1952  0.2123
  947MOL0     H27802  12.884  -0.537  10.729  0.6632 -1.6588  0.9843
  947MOL0     H27803  13.064  -0.468  10.599 -2.5301  0.8525 -0.7348
  947MOL0     H27804  13.067  -0.608  10.495 -2.7780 -2.7454  0.5574
  947MOL0     H27805  13.271  -0.495  10.502 -0.2953 -0.7735  0.5742
  947MOL0     H27806  13.513  -0.520  10.454  1.7934  0.9444  1.4033
  947MOL0     H27807  13.904  -0.458  10.631 -0.7766  1.1041  2.3766
  947MOL0     H27808  14.149  -0.427  10.645  1.3461 -0.8648 -3.0177
  947MOL0     H27809  14.369  -0.396  10.717  1.6859  1.2083  0.8003
  947MOL0     H27810  14.274  -0.448  10.865  0.5010 -1.9210  0.3932
  947MOL0     H27811  14.526  -0.408  10.891 -0.7973  0.6812 -2.1786
  947MOL0     H27812  14.463  -0.571  10.948 -2.4554 -0.7927 -0.4536
  947MOL0     H27813  14.590  -0.684  10.795 -1.6340 -0.4462  1.7828
  947MOL0     H27814  14.571  -0.559  10.673 -3.2418 -0.3118  1.2248
  947MOL0     H27815  14.753  -0.541  10.915  1.0335 -3.9205 -1.3308
  947MOL0     H27816  14.732  -0.416  10.796  2.2411  0.5213  0.1313
  947MOL0     H27817  14.834  -0.701  10.746  2.9553  0.2224  1.0709
  947MOL0     H27818  14.946  -0.568  10.751  0.3579 -1.5745  0.1015
  947MOL0     H27819  14.920  -0.612  10.533 -0.3806 -1.9996  0.3049
  947MOL0     H27820  14.742  -0.618  10.539  1.4335 -0.5680 -1.4762
  947MOL0     H27821  14.908  -0.359  10.545 -2.1215  3.3561  2.5102
  947MOL0     H27822  14.738  -0.357  10.580 -1.3790 -0.8275 -1.3035
  947MOL0     H27823  14.769  -0.301  10.349  0.8055  0.4533 -1.7020
  947MOL0     H27824  14.883  -0.437  10.323  0.6549  1.0910 -1.5856
  947MOL0     H27825  14.200  -0.819  10.770  3.0234  3.2548 -1.0527
  947MOL0     H27826  13.952  -0.867  10.778  0.5083  0.8470  0.5849
  947MOL0     H27827  13.563  -0.739  10.819 -0.4935 -1.9249 -0.7147
  947MOL0     H27828  13.329  -0.743  10.853 -0.7081 -0.4628  0.2598
  947MOL0     H27829  11.604   0.492  10.783 -0.1388  1.1206  1.0859
  947MOL0     H27830  11.345   0.452  10.824 -0.6290 -0.5155  0.7148
  947MOL0     H27831  11.072   0.225  11.138  0.2636 -1.1246  0.0096
  947MOL0     H27832  10.847   0.186  11.226  1.3494 -4.7566  0.4832
  947MOL0     H27833  10.532   0.116  10.926  6.4419 -0.2265 -0.0191
  947MOL0     H27834  10.547   0.288  10.970 -0.5758  0.4985 -0.2367
  947MOL0     H27835  10.392   0.089  11.138 -2.3808 -0.8571 -0.0198
  947MOL0     H27836  10.318   0.153  10.988  2.6242  0.2099 -1.0007
  947MOL0     H27837  10.359   0.387  11.082 -1.7287 -0.2175  0.4420
  947MOL0     H27838  10.412   0.305  11.230 -1.3452  0.3783  0.9184
  947MOL0     H27839  10.195   0.289  11.296 -0.5813 -0.9738  0.0466
  947MOL0     H27840  10.160   0.414  11.177  1.1635  0.9579 -1.1015
  947MOL0     H27841   9.969   0.051  11.069 -0.8470  1.3992  0.2645
  947MOL0     H27842  10.710   0.094  10.830  1.4547  0.2654 -0.7092
  947MOL0     H27843  11.014   0.136  10.657 -2.3874  3.1043 -1.9829
  947MOL0     H27844  10.917  -0.015  10.713  3.0157 -0.5623  5.8664
  947MOL0     H27845  10.851   0.135  10.639 -2.7052 -1.0430  2.7258
  948MOL0     O27846   0.875   0.944   2.646 -0.7559  0.4269 -0.3786
  948MOL0     C27847   0.981   0.899   2.681  0.4028 -0.4986  0.3437
  948MOL0     O27848   1.024   0.775   2.676  0.0526 -0.0358  0.4359
  948MOL0     C27849   0.940   0.680   2.631  0.3990 -0.3425 -0.2140
  948MOL0     C27850   0.908   0.662   2.498  0.0396 -0.3265  0.3774
  948MOL0     C27851   0.826   0.556   2.455 -0.0294 -1.0001 -0.0196
  948MOL0     C27852   0.758   0.474   2.548 -0.2486 -0.6805 -1.0552
  948MOL0     O27853   0.660   0.392   2.499  0.0191  0.4362 -0.3497
  948MOL0     C27854   0.536   0.390   2.586 -0.1769  0.4768 -0.7492
  948MOL0     C27855   0.431   0.326   2.488  0.0636  0.2028 -0.3416
  948MOL0     C27856   0.293   0.390   2.524 -0.3952  0.2940  0.0674
  948MOL0     C27857   0.178   0.320   2.445  0.1212  0.2313  1.1263
  948MOL0     C27858   0.060   0.413   2.429  0.1162 -0.1183 -0.3117
  948MOL0     C27859  -0.055   0.350   2.347 -0.5946 -0.6968  0.2421
  948MOL0     C27860  -0.011   0.340   2.198  0.6062 -0.5013  0.2564
  948MOL0     C27861  -0.132   0.326   2.108 -0.2351 -0.6960 -0.8013
  948MOL0     N27862  -0.082   0.310   1.971 -0.3353  0.6613  0.3696
  948MOL0     C27863  -0.066   0.199   1.889  0.9311 -0.5788 -1.0501
  948MOL0     C27864  -0.011   0.245   1.775 -0.9227  0.2883  0.0957
  948MOL0     C27865   0.024   0.171   1.646 -1.0285  0.6341 -0.4109
  948MOL0     C27866  -0.106   0.139   1.573 -0.0661  0.5505  0.2819
  948MOL0     C27867  -0.074   0.019   1.490 -0.0732 -0.7175 -0.2455
  948MOL0     C27868   0.020   0.058   1.369  0.3441  0.3663  0.3400
  948MOL0     O27869   0.005  -0.053   1.275  0.0153 -0.3584  0.2864
  948MOL0     C27870   0.120  -0.116   1.235 -0.6045  0.0579 -0.6812
  948MOL0     C27871   0.108  -0.251   1.200 -0.4091  0.3158 -0.9209
  948MOL0     C27872   0.214  -0.319   1.147 -0.1944 -0.4218  0.2889
  948MOL0     C27873   0.339  -0.257   1.111  0.0299  0.0270  0.7322
  948MOL0     C27874   0.447  -0.332   1.060 -0.2309  0.4595  0.3215
  948MOL0     O27875   0.553  -0.260   1.018 -0.0914  0.1996  0.0238
  948MOL0     C27876   0.648  -0.321   0.946  0.0427  0.6571 -0.6485
  948MOL0     C27877   0.618  -0.370   0.814  0.0082 -0.8402 -0.4669
  948MOL0     C27878   0.712  -0.441   0.746 -0.8374  0.4436 -0.7124
  948MOL0     C27879   0.843  -0.465   0.808  0.0762 -0.4038  0.8637
  948MOL0     O27880   0.933  -0.535   0.725 -0.7993 -0.1916  0.2050
  948MOL0     C27881   1.061  -0.576   0.771 -0.2455  0.1300  0.1762
  948MOL0     C27882   1.148  -0.622   0.659 -0.3076  0.2042 -0.2942
  948MOL0     C27883   1.165  -0.514   0.546  0.9461  1.1626 -0.0740
  948MOL0     C27884   1.199  -0.578   0.407 -0.8356  0.2651  0.1789
  948MOL0     C27885   1.261  -0.478   0.311  0.6009  0.1818 -0.7840
  948MOL0     C27886   1.287  -0.534   0.170 -0.2767  0.3912 -0.1094
  948MOL0     C27887   1.367  -0.444   0.076 -0.2166  0.2246 -0.3880
  948MOL0     C27888   1.507  -0.472   0.084 -0.4083 -0.5115  0.1951
  948MOL0    Cl27889   1.588  -0.347  -0.009 -0.1524  0.1060  0.5381
  948MOL0     C27890   0.871  -0.396   0.927  0.5232 -0.0619 -0.4423
  948MOL0     C27891   0.775  -0.326   0.993 -1.1400  0.0052  0.1260
  948MOL0     O27892   0.443  -0.454   1.052  0.5084  0.0006 -0.3090
  948MOL0     C27893   0.345  -0.122   1.148  0.1918  0.0181  0.5345
  948MOL0     C27894   0.243  -0.053   1.214 -0.0927  0.1307 -0.3375
  948MOL0     N27895   0.020   0.383   1.792 -0.5391  0.0367 -0.6106
  948MOL0     N27896  -0.030   0.418   1.906  0.0941  0.3119 -0.3002
  948MOL0     C27897   0.777   0.503   2.684  0.3744 -0.4714 -0.5298
  948MOL0     C27898   0.863   0.605   2.723 -0.2604  0.2714  0.7783
  948MOL0     C27899   1.070   1.012   2.706  0.8866  0.2977  0.7945
  948MOL0     C27900   1.054   1.085   2.817  0.9605  0.7023  0.8075
  948MOL0     C27901   1.142   1.183   2.849  0.5455 -0.0944 -0.2078
  948MOL0     C27902   1.256   1.211   2.769  1.2514 -0.5591  0.4775
  948MOL0     O27903   1.354   1.304   2.810 -0.4054  0.6336 -0.0531
  948MOL0     C27904   1.485   1.292   2.767 -0.0356  0.8249  0.1831
  948MOL0     C27905   1.581   1.403   2.827  0.0508  0.1254  0.2350
  948MOL0     C27906   1.574   1.412   2.975 -0.3947 -0.2930  0.1140
  948MOL0     C27907   1.693   1.495   3.025 -0.1484 -0.1849  0.4245
  948MOL0     C27908   1.813   1.414   3.034 -0.4190 -0.5817 -0.9763
  948MOL0     C27909   1.905   1.343   3.042 -0.0013  0.9891  0.5285
  948MOL0     C27910   1.270   1.144   2.647  0.3738 -0.6119 -0.2012
  948MOL0     C27911   1.176   1.044   2.615 -0.5473 -0.2508 -0.0423
  948MOL0     C27912   1.188   0.969   2.485  0.7543  0.6401  0.5430
  948MOL0     H27913   0.957   0.704   2.412 -1.2678 -5.4442 -3.3911
  948MOL0     H27914   0.810   0.535   2.349 -4.6622  2.9592 -0.4905
  948MOL0     H27915   0.553   0.333   2.677 -1.5314  1.1464 -0.0399
  948MOL0     H27916   0.490   0.485   2.614 -2.3032 -0.6729 -0.1083
  948MOL0     H27917   0.435   0.216   2.492 -0.5230  0.1535 -1.0047
  948MOL0     H27918   0.455   0.352   2.385  1.9432  0.4308  0.1213
  948MOL0     H27919   0.283   0.496   2.500 -3.4625  0.2319  0.6380
  948MOL0     H27920   0.270   0.387   2.630 -2.3183  2.1389 -0.2312
  948MOL0     H27921   0.209   0.270   2.353 -0.3310 -0.9637  1.5967
  948MOL0     H27922   0.157   0.231   2.505  0.8443 -2.7571 -2.6321
  948MOL0     H27923   0.016   0.438   2.526 -0.5547  4.9196 -1.6700
  948MOL0     H27924   0.086   0.509   2.383  1.2034 -0.8331 -1.2420
  948MOL0     H27925  -0.073   0.248   2.383 -1.0676 -0.9519 -0.6676
  948MOL0     H27926  -0.151   0.398   2.370 -0.6632 -1.1460  0.9245
  948MOL0     H27927   0.054   0.253   2.183  0.6262 -0.4712  0.1712
  948MOL0     H27928   0.041   0.427   2.159  1.2139 -1.0405 -0.1477
  948MOL0     H27929  -0.197   0.240   2.126 -2.4458  0.5244 -2.5087
  948MOL0     H27930  -0.198   0.411   2.122  0.8809  0.2777 -1.2775
  948MOL0     H27931  -0.099   0.096   1.897 -0.4493 -0.3114 -2.8190
  948MOL0     H27932   0.088   0.236   1.585 -0.7037  0.0486 -0.7003
  948MOL0     H27933   0.071   0.077   1.677  0.6317  1.4632 -0.3327
  948MOL0     H27934  -0.170   0.091   1.647 -2.3375  3.0455  0.0799
  948MOL0     H27935  -0.152   0.219   1.514  0.0668 -0.6240 -1.5123
  948MOL0     H27936  -0.166  -0.021   1.447  0.3341 -1.6479 -0.2846
  948MOL0     H27937  -0.028  -0.062   1.546  1.5524  1.1093  1.1863
  948MOL0     H27938   0.119   0.067   1.413  0.0676  4.0178  0.5108
  948MOL0     H27939  -0.006   0.147   1.312 -0.0710 -2.5298 -4.5564
  948MOL0     H27940   0.013  -0.298   1.227 -0.4025 -0.2945 -1.9304
  948MOL0     H27941   0.195  -0.425   1.132  1.4333 -0.5541 -1.1739
  948MOL0     H27942   0.518  -0.354   0.774 -0.3942  1.0765  1.1443
  948MOL0     H27943   0.697  -0.476   0.645  2.3016  0.8334 -1.3993
  948MOL0     H27944   1.115  -0.490   0.810  1.2108 -1.2400  1.3216
  948MOL0     H27945   1.046  -0.655   0.846  0.2609 -0.0461  0.0934
  948MOL0     H27946   1.246  -0.643   0.702 -1.2805  0.3458  2.1201
  948MOL0     H27947   1.107  -0.711   0.611 -0.9001  1.4874 -2.3200
  948MOL0     H27948   1.074  -0.454   0.538  2.3153  3.4888  0.6541
  948MOL0     H27949   1.246  -0.449   0.581 -0.3182  0.5196  4.7854
  948MOL0     H27950   1.105  -0.622   0.373 -0.3227 -0.9274  0.2699
  948MOL0     H27951   1.264  -0.665   0.416 -0.6520 -0.2607 -4.1380
  948MOL0     H27952   1.352  -0.437   0.354  0.4126 -1.6822  1.6076
  948MOL0     H27953   1.189  -0.397   0.297  0.9523  0.5156 -0.6644
  948MOL0     H27954   1.328  -0.634   0.185 -2.4995 -0.9234 -2.0411
  948MOL0     H27955   1.187  -0.551   0.128 -1.6492  1.0299  2.6905
  948MOL0     H27956   1.328  -0.343   0.094  1.7669  1.1953 -1.2497
  948MOL0     H27957   1.335  -0.461  -0.027  1.9359 -1.4813 -0.8241
  948MOL0     H27958   1.554  -0.476   0.182  0.0190 -0.5127 -0.0097
  948MOL0     H27959   1.536  -0.562   0.030 -1.0038  0.3741 -1.7147
  948MOL0     H27960   0.968  -0.421   0.969  1.2542  0.0976 -1.9663
  948MOL0     H27961   0.805  -0.276   1.085 -0.6193 -0.0608 -0.0076
  948MOL0     H27962   0.438  -0.071   1.123 -2.1854  3.3043 -2.4087
  948MOL0     H27963   0.271   0.050   1.234  0.5165  0.1381 -1.1972
  948MOL0     H27964   0.713   0.450   2.754  0.0041 -0.9990 -1.2586
  948MOL0     H27965   0.864   0.635   2.828 -2.6576  0.7014  0.7220
  948MOL0     H27966   0.968   1.061   2.878  1.1914 -3.9701 -0.3088
  948MOL0     H27967   1.131   1.247   2.936 -2.3919  0.7975 -1.1241
  948MOL0     H27968   1.489   1.314   2.660  0.1472  0.8694  0.1987
  948MOL0     H27969   1.532   1.196   2.788  0.6238  1.1767  0.3469
  948MOL0     H27970   1.542   1.495   2.784 -1.5883 -1.8320 -2.8355
  948MOL0     H27971   1.684   1.385   2.793  0.2881  0.0288  0.9789
  948MOL0     H27972   1.592   1.308   3.004  1.9063 -0.3285 -1.1533
  948MOL0     H27973   1.481   1.454   3.013 -1.1076 -0.1000 -1.7183
  948MOL0     H27974   1.707   1.586   2.965 -0.0591 -1.1417 -1.0445
  948MOL0     H27975   1.675   1.522   3.130  5.0641  1.4110  1.1904
  948MOL0     H27976   1.992   1.282   3.057  0.5951  1.2526 -1.5412
  948MOL0     H27977   1.357   1.159   2.584  0.8772  0.4403  0.6907
  948MOL0     H27978   1.246   0.877   2.487 -1.2367 -0.6539  0.9526
  948MOL0     H27979   1.091   0.944   2.441  0.7627  1.0761  0.2658
  948MOL0     H27980   1.238   1.035   2.414 -0.9362  0.9975 -0.3747
  949MOL0     O27981   4.507   4.332   0.462  1.2600 -0.3436  0.0299
  949MOL0     C27982   4.539   4.212   0.461  0.9427 -0.2139 -0.0355
  949MOL0     O27983   4.661   4.161   0.483 -0.7228  0.3201  0.6009
  949MOL0     C27984   4.757   4.248   0.525 -1.0975  0.2519  0.1796
  949MOL0     C27985   4.831   4.210   0.641  0.4431  0.0229 -0.3329
  949MOL0     C27986   4.946   4.280   0.681  0.1254 -0.1331 -0.2856
  949MOL0     C27987   4.992   4.392   0.613  0.1105 -0.1563 -0.5157
  949MOL0     O27988   5.113   4.462   0.645  1.6441  1.0159  0.8545
  949MOL0     C27989   5.209   4.376   0.697 -0.5801 -0.6378 -0.3963
  949MOL0     C27990   5.327   4.470   0.690 -0.3481 -0.0951  0.1526
  949MOL0     C27991   5.447   4.442   0.785  0.3096  0.3004  0.3938
  949MOL0     C27992   5.559   4.524   0.757 -0.1090 -0.5114 -0.5559
  949MOL0     C27993   5.679   4.489   0.850  0.2679 -0.4139 -0.4731
  949MOL0     C27994   5.793   4.590   0.834 -0.7874  1.0605 -0.3575
  949MOL0     C27995   5.912   4.554   0.929  0.0618 -0.0138  0.4514
  949MOL0     C27996   5.999   4.428   0.898  1.4085 -0.0172 -0.0172
  949MOL0     N27997   6.081   4.444   0.782  0.0330  0.2922  0.3150
  949MOL0     C27998   6.177   4.549   0.768 -0.1968  0.5863 -0.1232
  949MOL0     C27999   6.231   4.527   0.647  0.2618 -0.6883  0.5285
  949MOL0     C28000   6.345   4.603   0.586  0.0233 -0.3144  0.6690
  949MOL0     C28001   6.468   4.515   0.585  0.2032  0.3535 -0.5134
  949MOL0     C28002   6.588   4.568   0.510  0.4393  0.7940 -0.1172
  949MOL0     C28003   6.709   4.476   0.526  0.1573  0.1199 -0.0309
  949MOL0     O28004   6.823   4.531   0.459 -0.1110 -0.9557  0.2334
  949MOL0     C28005   6.915   4.600   0.534 -0.4766 -0.3297 -0.2259
  949MOL0     C28006   7.050   4.581   0.513 -0.0443  0.0403  1.0028
  949MOL0     C28007   7.149   4.647   0.583  0.5645 -1.1915  0.2371
  949MOL0     C28008   7.112   4.745   0.680  0.0693 -0.6595  0.3970
  949MOL0     C28009   7.216   4.840   0.724 -0.3126  0.6759 -0.0978
  949MOL0     O28010   7.347   4.802   0.701 -0.0624 -0.3408 -0.1742
  949MOL0     C28011   7.457   4.878   0.730  0.4169 -0.7254  0.6242
  949MOL0     C28012   7.560   4.867   0.635  0.3569 -0.6404 -0.1179
  949MOL0     C28013   7.678   4.943   0.652  0.6916 -0.2374  0.7220
  949MOL0     C28014   7.698   5.026   0.765 -0.3729  0.5711  0.0889
  949MOL0     O28015   7.808   5.096   0.793 -0.7231 -0.2749 -0.3803
  949MOL0     C28016   7.852   5.166   0.676  0.0041 -0.1484  0.8059
  949MOL0     C28017   7.955   5.274   0.715  0.6684 -0.5030 -0.0563
  949MOL0     C28018   8.075   5.217   0.781  0.0757 -0.1057  0.1802
  949MOL0     C28019   8.162   5.122   0.696 -0.0291 -0.0566  0.0518
  949MOL0     C28020   8.287   5.060   0.761  0.1464 -0.3368 -1.0896
  949MOL0     C28021   8.258   4.985   0.887  0.9278  0.0142 -0.1155
  949MOL0     C28022   8.390   4.962   0.965  0.1757 -0.3523  0.6102
  949MOL0     C28023   8.361   4.910   1.108  0.0927  1.1758 -0.2538
  949MOL0    Cl28024   8.300   5.039   1.201  0.4127 -0.1384 -0.7264
  949MOL0     C28025   7.589   5.035   0.858 -0.6387 -0.1160 -0.1279
  949MOL0     C28026   7.470   4.966   0.837  0.4544  0.5022 -0.5152
  949MOL0     O28027   7.174   4.937   0.787 -0.9684 -0.2338 -0.3805
  949MOL0     C28028   6.978   4.768   0.701 -1.0297 -0.6767  0.2475
  949MOL0     C28029   6.880   4.698   0.630  0.4129 -0.7139  0.2484
  949MOL0     N28030   6.163   4.417   0.588 -0.3448 -0.0047 -0.0211
  949MOL0     N28031   6.069   4.381   0.667 -0.5294  0.0110 -0.3660
  949MOL0     C28032   4.926   4.426   0.496  0.2918 -0.0086  0.6743
  949MOL0     C28033   4.815   4.353   0.451  0.5450 -0.1800  0.3880
  949MOL0     C28034   4.447   4.110   0.410 -0.1429 -0.8121  0.3043
  949MOL0     C28035   4.494   3.975   0.404  0.5824 -0.3994  0.2515
  949MOL0     C28036   4.408   3.873   0.357 -0.1582 -0.1659  0.2847
  949MOL0     C28037   4.278   3.903   0.319 -0.8110 -0.3451  1.0468
  949MOL0     O28038   4.211   3.794   0.275  0.6481 -0.9139 -0.5887
  949MOL0     C28039   4.076   3.801   0.230  0.3915 -0.2304  0.8729
  949MOL0     C28040   4.053   3.865   0.090  0.2678  0.3141 -1.1858
  949MOL0     C28041   3.911   3.866   0.055  0.5158  0.3501  0.4759
  949MOL0     C28042   3.807   3.938   0.148  0.8993 -0.2594  0.0945
  949MOL0     C28043   3.851   4.074   0.175 -0.7525 -0.2169  0.5986
  949MOL0     C28044   3.875   4.195   0.177  0.5068 -0.0546 -0.1024
  949MOL0     C28045   4.238   4.037   0.319 -0.2470 -0.2278  0.4924
  949MOL0     C28046   4.318   4.142   0.360 -0.3051 -0.8705 -0.8014
  949MOL0     C28047   4.255   4.276   0.339 -0.2862 -0.5934  1.0711
  949MOL0     H28048   4.800   4.123   0.697  0.6135 -1.2269 -2.0722
  949MOL0     H28049   5.000   4.246   0.768  0.3157  0.8831  0.0079
  949MOL0     H28050   5.190   4.348   0.801  1.5066  1.1951  0.5420
  949MOL0     H28051   5.220   4.284   0.638 -2.5680 -2.4391  1.7943
  949MOL0     H28052   5.298   4.574   0.707  3.1327  0.9547  0.4282
  949MOL0     H28053   5.365   4.461   0.588  0.8739 -2.5782  0.7406
  949MOL0     H28054   5.474   4.336   0.785 -0.3708  0.0024 -2.7562
  949MOL0     H28055   5.414   4.474   0.884 -2.1435 -1.0311  0.1067
  949MOL0     H28056   5.592   4.496   0.656  1.4500  1.2831 -0.6129
  949MOL0     H28057   5.535   4.631   0.764  3.5429  0.3747  0.7905
  949MOL0     H28058   5.652   4.491   0.956  0.2082  0.6105 -0.4926
  949MOL0     H28059   5.719   4.391   0.822  0.7763 -0.0833 -0.9205
  949MOL0     H28060   5.830   4.597   0.731 -0.2453 -0.6636 -0.3163
  949MOL0     H28061   5.760   4.690   0.863  0.4303  0.8840  1.8593
  949MOL0     H28062   5.880   4.536   1.032  1.1578 -0.4602  0.7299
  949MOL0     H28063   5.984   4.635   0.921 -0.4104  0.5517  1.7057
  949MOL0     H28064   6.061   4.397   0.982 -0.3593  1.5716  1.9884
  949MOL0     H28065   5.942   4.337   0.876  0.8805  0.4773 -0.7450
  949MOL0     H28066   6.205   4.626   0.840  3.1507  0.6156 -1.3059
  949MOL0     H28067   6.314   4.628   0.484 -2.6257 -1.5000  1.1205
  949MOL0     H28068   6.365   4.694   0.645 -2.4147  1.7270 -1.3969
  949MOL0     H28069   6.506   4.501   0.687 -0.2397 -0.6854 -0.4775
  949MOL0     H28070   6.441   4.423   0.531 -1.3204  0.8979 -0.7275
  949MOL0     H28071   6.611   4.672   0.533  3.6157  0.0048  0.8272
  949MOL0     H28072   6.564   4.580   0.404 -1.2802  1.4923  0.3254
  949MOL0     H28073   6.698   4.376   0.483 -1.7093  0.8755 -1.4933
  949MOL0     H28074   6.726   4.466   0.634  1.1224 -0.0662 -0.1926
  949MOL0     H28075   7.092   4.505   0.448 -0.4189 -0.9602  1.8970
  949MOL0     H28076   7.253   4.625   0.560  1.2626  1.9924 -0.1869
  949MOL0     H28077   7.556   4.797   0.552 -1.5577 -1.3207  0.4826
  949MOL0     H28078   7.760   4.916   0.586 -1.4745 -1.7612 -1.4788
  949MOL0     H28079   7.902   5.096   0.608 -2.1885  0.4503 -1.5696
  949MOL0     H28080   7.767   5.206   0.620  1.2210 -0.6288 -1.5153
  949MOL0     H28081   7.993   5.341   0.638 -4.3016  4.0212  0.8419
  949MOL0     H28082   7.902   5.347   0.777  0.8496 -1.2408  1.0147
  949MOL0     H28083   8.142   5.301   0.798  1.2783 -1.4854  2.8465
  949MOL0     H28084   8.044   5.169   0.875 -1.8199 -0.8976 -0.7834
  949MOL0     H28085   8.198   5.179   0.610 -1.7066  0.8901 -0.0866
  949MOL0     H28086   8.098   5.039   0.665  1.3224 -2.0029  2.1973
  949MOL0     H28087   8.351   5.145   0.787 -0.3624 -0.9498  2.8395
  949MOL0     H28088   8.340   4.991   0.695  0.8124 -1.8999  0.9971
  949MOL0     H28089   8.187   5.034   0.954  2.8371 -2.3787  4.0825
  949MOL0     H28090   8.216   4.888   0.859 -2.8430  1.9217 -1.7832
  949MOL0     H28091   8.435   5.061   0.980 -0.4707  0.2328 -1.0263
  949MOL0     H28092   8.453   4.887   0.917 -0.1649 -0.4414  0.2959
  949MOL0     H28093   8.280   4.837   1.115 -0.0585  1.2763 -0.9304
  949MOL0     H28094   8.454   4.864   1.143  0.0054  0.2718 -1.1236
  949MOL0     H28095   7.600   5.085   0.953 -0.7937  1.6897 -1.0313
  949MOL0     H28096   7.394   4.974   0.914 -0.6292  1.1711 -1.6315
  949MOL0     H28097   6.946   4.850   0.764 -1.5907 -0.5068 -0.2444
  949MOL0     H28098   6.778   4.729   0.650  1.1093  2.3709 -0.5909
  949MOL0     H28099   4.960   4.501   0.426 -1.7799  1.1907  0.8474
  949MOL0     H28100   4.775   4.394   0.359 -0.4075 -0.9332  0.4520
  949MOL0     H28101   4.590   3.940   0.440  0.0278 -0.8610  1.3231
  949MOL0     H28102   4.451   3.774   0.344  1.6718  0.7169 -0.7025
  949MOL0     H28103   4.019   3.860   0.302 -1.4791  1.1383 -1.5496
  949MOL0     H28104   4.026   3.704   0.231 -1.9999  0.9269  1.1317
  949MOL0     H28105   4.102   3.796   0.021 -2.5618 -2.7339 -0.4233
  949MOL0     H28106   4.097   3.965   0.087 -1.2806  1.0204 -3.3768
  949MOL0     H28107   3.878   3.763   0.042 -0.5514  0.6859  0.3525
  949MOL0     H28108   3.892   3.911  -0.043  0.2765 -0.8304 -0.0369
  949MOL0     H28109   3.709   3.951   0.102  0.1882 -2.9586  0.6937
  949MOL0     H28110   3.802   3.881   0.241  0.1382  1.3778  1.1134
  949MOL0     H28111   3.888   4.300   0.192  2.1333 -0.3806  1.0691
  949MOL0     H28112   4.134   4.054   0.290 -0.2499 -1.5024 -0.3337
  949MOL0     H28113   4.331   4.342   0.298  0.0292 -2.0200 -0.7601
  949MOL0     H28114   4.173   4.272   0.266 -0.1187 -1.7838  0.9277
  949MOL0     H28115   4.220   4.320   0.433  2.2744 -0.1029  1.8702
  950MOL0     O28116  10.446   4.590   8.618  0.4744  0.3591 -0.9790
  950MOL0     C28117  10.434   4.668   8.716 -0.0728  0.2161 -0.6905
  950MOL0     O28118  10.320   4.664   8.797 -0.0402 -0.1854  0.1268
  950MOL0     C28119  10.247   4.550   8.782 -0.3569 -0.4678 -0.1866
  950MOL0     C28120  10.116   4.564   8.762  0.8610  0.6502  0.3670
  950MOL0     C28121  10.038   4.445   8.769  0.0453 -0.2763 -0.8595
  950MOL0     C28122  10.101   4.322   8.800 -0.0940  0.5799  0.6168
  950MOL0     O28123  10.029   4.205   8.793 -0.0119  0.0767  0.2680
  950MOL0     C28124   9.937   4.190   8.895  0.2638 -0.4480  0.1878
  950MOL0     C28125   9.925   4.053   8.948  0.7979 -0.0894  0.0591
  950MOL0     C28126  10.057   4.007   9.008  0.0737  0.3241  0.2062
  950MOL0     C28127  10.052   3.852   9.036  0.0721  0.4699 -0.1393
  950MOL0     C28128  10.177   3.788   9.085 -0.1565 -0.0484 -0.4917
  950MOL0     C28129  10.218   3.820   9.220 -0.6545 -0.0280 -0.2519
  950MOL0     C28130  10.364   3.787   9.244 -0.5298  0.3587  0.0138
  950MOL0     C28131  10.370   3.775   9.402  0.0741  0.5025  0.4779
  950MOL0     N28132  10.510   3.766   9.441 -0.6005 -1.2649  0.3295
  950MOL0     C28133  10.578   3.866   9.511  0.6272  0.7980  0.2873
  950MOL0     C28134  10.711   3.825   9.510 -0.8072 -0.3720 -0.0653
  950MOL0     C28135  10.825   3.913   9.552 -0.5846 -0.0852  0.7007
  950MOL0     C28136  10.818   3.923   9.704  0.2456 -0.2510 -0.0519
  950MOL0     C28137  10.919   4.028   9.751  1.1643  1.1354  0.0906
  950MOL0     C28138  10.924   4.025   9.903  0.1923 -0.9843  0.3853
  950MOL0     O28139  11.025   4.110   9.952 -0.6758  0.2681 -0.3780
  950MOL0     C28140  11.112   4.073  10.048 -0.0394  0.1158  0.2615
  950MOL0     C28141  11.069   3.980  10.145 -0.2857  0.1607  0.5221
  950MOL0     C28142  11.148   3.946  10.254  0.0091  0.6794  0.4601
  950MOL0     C28143  11.277   4.009  10.256  0.7724  0.3322  0.0738
  950MOL0     C28144  11.384   3.965  10.351  0.1075  0.0655  0.3161
  950MOL0     O28145  11.507   4.016  10.323 -0.7482 -0.5244 -0.5863
  950MOL0     C28146  11.616   3.966  10.383 -0.2721  0.0021  0.1283
  950MOL0     C28147  11.642   3.830  10.415 -0.4583 -0.2967  0.3066
  950MOL0     C28148  11.766   3.790  10.468 -0.4513  0.3001 -0.2549
  950MOL0     C28149  11.859   3.885  10.510 -0.1926 -0.0092  1.3156
  950MOL0     O28150  11.975   3.847  10.571 -0.1816  1.0201 -0.4611
  950MOL0     C28151  12.075   3.949  10.590  0.8069 -0.4886  0.0243
  950MOL0     C28152  12.206   3.886  10.621 -1.2323  0.1685  0.3049
  950MOL0     C28153  12.331   3.976  10.603  0.0633  0.3500 -0.5531
  950MOL0     C28154  12.463   3.898  10.616  0.6524 -0.7409  0.6569
  950MOL0     C28155  12.577   3.995  10.585  0.1572  0.0209  0.5422
  950MOL0     C28156  12.714   3.934  10.627 -0.9076 -0.0122 -0.0318
  950MOL0     C28157  12.838   4.006  10.590 -0.5989 -0.4008 -0.2262
  950MOL0     C28158  12.954   3.901  10.589  0.1492 -0.2501  0.2585
  950MOL0    Cl28159  13.115   3.985  10.563  0.2656 -0.0535  0.7396
  950MOL0     C28160  11.831   4.020  10.471 -0.1725 -0.0156  0.4287
  950MOL0     C28161  11.707   4.057  10.415 -0.2351 -0.1069  0.0174
  950MOL0     O28162  11.357   3.875  10.430 -0.1666  0.5887 -0.1381
  950MOL0     C28163  11.308   4.117  10.165  0.1434  1.3661  0.1004
  950MOL0     C28164  11.222   4.139  10.067 -0.0601 -0.8661 -0.5318
  950MOL0     N28165  10.722   3.703   9.449 -0.5810 -0.8498 -0.8375
  950MOL0     N28166  10.597   3.665   9.426 -1.2654 -0.0470 -0.0306
  950MOL0     C28167  10.237   4.310   8.823 -0.1442 -0.3536 -1.2707
  950MOL0     C28168  10.307   4.431   8.817 -0.0812  0.2559  0.4978
  950MOL0     C28169  10.517   4.780   8.731 -0.4337  0.6024  0.1391
  950MOL0     C28170  10.469   4.895   8.791 -0.1466 -0.0742 -1.0053
  950MOL0     C28171  10.549   5.011   8.808 -0.3972  0.4659  0.1999
  950MOL0     C28172  10.678   5.018   8.764 -0.0635  0.2009  0.0224
  950MOL0     O28173  10.766   5.127   8.783  0.0323 -0.7054  0.9121
  950MOL0     C28174  10.733   5.243   8.853 -0.5445 -0.2663 -0.3392
  950MOL0     C28175  10.747   5.214   9.002 -0.0043 -0.2182  0.7471
  950MOL0     C28176  10.886   5.163   9.037  0.4822  0.3842 -0.0027
  950MOL0     C28177  11.013   5.236   9.000  0.6411  0.1344  0.2684
  950MOL0     C28178  11.128   5.145   8.988  0.6413 -0.3233  0.0533
  950MOL0     C28179  11.221   5.071   8.995 -0.5611  0.1071 -0.1726
  950MOL0     C28180  10.728   4.905   8.686  0.8950 -0.0424 -0.7788
  950MOL0     C28181  10.649   4.791   8.658  0.1405  0.5062 -0.7017
  950MOL0     C28182  10.712   4.692   8.570  0.4948  0.5218  0.3821
  950MOL0     H28183  10.071   4.658   8.735 -1.0114  0.8478  3.6266
  950MOL0     H28184   9.931   4.449   8.751 -0.0448 -2.5560 -1.0664
  950MOL0     H28185   9.964   4.256   8.978 -2.1404 -2.2069  2.5076
  950MOL0     H28186   9.832   4.210   8.871  0.7743  2.4500 -0.0428
  950MOL0     H28187   9.888   3.991   8.866  0.4483  0.2378 -0.0349
  950MOL0     H28188   9.860   4.046   9.036 -0.3577 -0.4503 -0.7927
  950MOL0     H28189  10.072   4.058   9.103 -0.9579  0.6660  0.1990
  950MOL0     H28190  10.144   4.038   8.949  0.0414 -1.4810 -0.8789
  950MOL0     H28191   9.965   3.835   9.101  0.8628  0.9376  1.0933
  950MOL0     H28192  10.039   3.812   8.936  0.9325 -0.9949  0.3131
  950MOL0     H28193  10.172   3.680   9.066  0.4738  0.0145 -1.0526
  950MOL0     H28194  10.255   3.827   9.020  2.3183 -0.7809  1.8378
  950MOL0     H28195  10.211   3.928   9.236  2.3070 -0.0741  2.5039
  950MOL0     H28196  10.154   3.765   9.291  0.3329 -2.2909 -0.9984
  950MOL0     H28197  10.427   3.874   9.222  0.5165 -0.6163 -0.9556
  950MOL0     H28198  10.413   3.698   9.203 -2.3900 -1.1046  0.8537
  950MOL0     H28199  10.331   3.856   9.465  1.9241 -1.4222  4.4596
  950MOL0     H28200  10.324   3.680   9.431 -0.5968  0.3035 -1.0974
  950MOL0     H28201  10.542   3.962   9.547  2.0766  1.2019  0.6864
  950MOL0     H28202  10.917   3.864   9.519 -0.2642 -0.1070  1.6103
  950MOL0     H28203  10.814   4.008   9.499 -1.4196 -0.9202 -0.6758
  950MOL0     H28204  10.719   3.939   9.746  1.4002 -0.7901  3.1844
  950MOL0     H28205  10.844   3.828   9.752 -0.1987 -0.6251 -0.5452
  950MOL0     H28206  10.905   4.128   9.707 -2.0644  0.7252 -0.0557
  950MOL0     H28207  11.018   3.993   9.719 -0.1209 -2.8024 -0.0459
  950MOL0     H28208  10.934   3.919   9.928  1.4788 -1.7320 -2.7900
  950MOL0     H28209  10.829   4.072   9.930  1.1946  2.4320 -1.3882
  950MOL0     H28210  10.967   3.944  10.144 -0.1186 -0.3999  1.6547
  950MOL0     H28211  11.119   3.872  10.328 -0.7660  1.6637  1.1581
  950MOL0     H28212  11.563   3.757  10.399 -1.3070  0.1947  2.0916
  950MOL0     H28213  11.791   3.685  10.487  1.9752  0.3916 -2.3308
  950MOL0     H28214  12.086   4.008  10.499 -1.0288  0.8134  0.5885
  950MOL0     H28215  12.035   4.016  10.667 -0.1324  0.3208 -1.1220
  950MOL0     H28216  12.199   3.864  10.728  3.2754 -2.0617  0.3681
  950MOL0     H28217  12.214   3.796  10.560 -2.5145 -0.0935  0.4893
  950MOL0     H28218  12.327   4.027  10.506 -0.9283 -0.5230 -0.9850
  950MOL0     H28219  12.339   4.051  10.682 -1.2225 -2.0414  2.0002
  950MOL0     H28220  12.454   3.809  10.553 -4.7313 -1.1804  1.5334
  950MOL0     H28221  12.473   3.857  10.717  0.7328 -2.3724  0.0188
  950MOL0     H28222  12.565   4.090  10.638 -0.0957  0.8256 -0.9046
  950MOL0     H28223  12.578   4.018  10.478  2.2465 -0.3157  0.4383
  950MOL0     H28224  12.720   3.920  10.735 -1.2358  2.2392  0.3138
  950MOL0     H28225  12.699   3.838  10.576  0.3226  1.1437 -2.7812
  950MOL0     H28226  12.859   4.098  10.645 -2.3191 -1.2592  2.0224
  950MOL0     H28227  12.833   4.035  10.484  1.1528  1.7956  0.2310
  950MOL0     H28228  12.964   3.846  10.682  1.0019 -0.4266  0.0733
  950MOL0     H28229  12.934   3.826  10.511  2.1354 -0.8137  0.2218
  950MOL0     H28230  11.902   4.098  10.497  0.8281 -0.5115 -0.7212
  950MOL0     H28231  11.697   4.156  10.373  1.0813 -1.4465 -3.8917
  950MOL0     H28232  11.407   4.161  10.169  2.1267 -2.7065  1.4832
  950MOL0     H28233  11.237   4.231  10.011 -1.8114  1.9756  3.1637
  950MOL0     H28234  10.298   4.221   8.840  1.5779  0.7219 -1.6186
  950MOL0     H28235  10.414   4.414   8.829 -0.2014  0.5324  2.2104
  950MOL0     H28236  10.366   4.899   8.825 -0.4402  3.0281 -1.9895
  950MOL0     H28237  10.506   5.094   8.863 -1.4258  0.1831 -0.1440
  950MOL0     H28238  10.632   5.275   8.825 -1.8409 -3.1491  0.6779
  950MOL0     H28239  10.804   5.318   8.817  0.3724 -1.2562 -0.6358
  950MOL0     H28240  10.673   5.142   9.039  1.2540  0.0401  4.0412
  950MOL0     H28241  10.725   5.303   9.062  3.7937 -0.5763  2.9516
  950MOL0     H28242  10.882   5.068   8.982 -1.5892 -0.4048  1.3888
  950MOL0     H28243  10.881   5.147   9.145 -1.5898  1.7184  0.1362
  950MOL0     H28244  11.010   5.287   8.904 -1.3586  0.6816  0.5688
  950MOL0     H28245  11.036   5.318   9.069  0.0040  0.4421  0.1221
  950MOL0     H28246  11.290   4.991   9.012  0.6614  1.5725  2.2238
  950MOL0     H28247  10.828   4.916   8.646  1.9867 -1.8860  1.2539
  950MOL0     H28248  10.653   4.675   8.479  1.0671  0.2811  0.0509
  950MOL0     H28249  10.810   4.724   8.534  2.6521 -1.2618  4.0437
  950MOL0     H28250  10.735   4.593   8.611  2.8982  0.6653 -0.4474
  951MOL0     O28251   7.261   3.980   3.530 -0.0738 -0.3310 -0.1808
  951MOL0     C28252   7.352   4.066   3.519 -0.3771  0.3742  0.0079
  951MOL0     O28253   7.485   4.029   3.502  0.5455  0.3976  0.1212
  951MOL0     C28254   7.524   3.899   3.547  1.3200  0.0599  0.4292
  951MOL0     C28255   7.488   3.794   3.455 -0.6501 -0.6664 -0.1784
  951MOL0     C28256   7.502   3.663   3.495  0.2885  0.5676 -0.9304
  951MOL0     C28257   7.566   3.628   3.616 -0.0347  0.3180  0.0844
  951MOL0     O28258   7.596   3.494   3.638  0.6863  0.4994 -0.3766
  951MOL0     C28259   7.694   3.467   3.742  0.6320  0.5051  0.0191
  951MOL0     C28260   7.791   3.360   3.697  0.3701  0.8381  0.4012
  951MOL0     C28261   7.886   3.427   3.597 -0.1822  0.3138 -0.1629
  951MOL0     C28262   7.996   3.338   3.541  0.0200 -0.1425 -0.3738
  951MOL0     C28263   8.106   3.422   3.474  0.8645  0.3133  0.3843
  951MOL0     C28264   8.221   3.325   3.436  1.1856 -0.7606  1.4825
  951MOL0     C28265   8.315   3.277   3.538  0.2914  0.1752  0.0070
  951MOL0     C28266   8.423   3.174   3.469 -0.3722  0.0803 -0.3208
  951MOL0     N28267   8.516   3.249   3.394  0.0779  0.2927  0.0301
  951MOL0     C28268   8.630   3.314   3.440 -0.2102  0.4319 -0.0493
  951MOL0     C28269   8.685   3.369   3.327 -0.8780  1.4890  1.3612
  951MOL0     C28270   8.798   3.463   3.329  0.4379  0.0785  0.2968
  951MOL0     C28271   8.910   3.443   3.427  0.3399  0.7006  0.1504
  951MOL0     C28272   8.989   3.309   3.412 -0.0407 -0.5048  0.2420
  951MOL0     C28273   9.034   3.259   3.264  0.6831  0.5191  0.0171
  951MOL0     O28274   9.114   3.367   3.206  0.2921 -0.0689 -0.4517
  951MOL0     C28275   9.246   3.365   3.240 -0.1835  0.3728 -0.5354
  951MOL0     C28276   9.313   3.296   3.344  0.6843  0.5733  0.1579
  951MOL0     C28277   9.450   3.310   3.362 -0.2389 -0.2615  0.0085
  951MOL0     C28278   9.530   3.370   3.264 -0.1938 -0.3386  0.7254
  951MOL0     C28279   9.671   3.377   3.264  0.3161  0.1755  0.5818
  951MOL0     O28280   9.742   3.384   3.146  0.4201 -0.1785  0.3010
  951MOL0     C28281   9.876   3.411   3.165 -0.3845 -0.0079  0.0147
  951MOL0     C28282   9.922   3.544   3.177  1.5666 -0.4328 -0.5177
  951MOL0     C28283  10.059   3.568   3.194  0.5154 -0.9438  0.0454
  951MOL0     C28284  10.147   3.462   3.188 -0.3000  0.3619 -0.1716
  951MOL0     O28285  10.282   3.484   3.209  0.0533  0.7192  0.1566
  951MOL0     C28286  10.384   3.398   3.145  0.6258 -0.7145  0.0265
  951MOL0     C28287  10.515   3.467   3.174  0.4331  0.6372 -0.1280
  951MOL0     C28288  10.545   3.574   3.067  0.5678 -0.0412  0.0412
  951MOL0     C28289  10.694   3.604   3.048 -0.1155  0.4727 -0.6213
  951MOL0     C28290  10.727   3.676   2.915 -0.2650  0.9461 -0.3638
  951MOL0     C28291  10.866   3.747   2.928  0.3298  0.0763 -0.5141
  951MOL0     C28292  10.928   3.790   2.800 -0.2925 -0.2226  0.4245
  951MOL0     C28293  11.069   3.857   2.824  0.4015  0.0601 -0.0891
  951MOL0    Cl28294  11.166   3.849   2.675  0.0412 -0.1058  0.0485
  951MOL0     C28295  10.107   3.329   3.177  0.0934 -0.1879 -0.4886
  951MOL0     C28296   9.972   3.309   3.158  0.0701  0.7768  0.8248
  951MOL0     O28297   9.720   3.358   3.374  0.2666 -0.1363  0.0962
  951MOL0     C28298   9.455   3.442   3.162 -0.2116 -0.5004 -0.5905
  951MOL0     C28299   9.317   3.447   3.159 -0.0443 -0.3265  0.4622
  951MOL0     N28300   8.620   3.327   3.213 -0.2899 -0.4566 -0.2929
  951MOL0     N28301   8.518   3.252   3.253  0.5636 -0.3487  0.5872
  951MOL0     C28302   7.592   3.730   3.710  0.0132 -0.0920  0.6021
  951MOL0     C28303   7.560   3.867   3.678 -0.3491 -1.1959  0.6011
  951MOL0     C28304   7.309   4.199   3.500  0.0302 -0.0848  0.5137
  951MOL0     C28305   7.212   4.245   3.582 -0.7284 -0.2571 -0.2921
  951MOL0     C28306   7.172   4.370   3.579 -0.1792  0.0825  0.7243
  951MOL0     C28307   7.210   4.461   3.480  0.6419  0.4317 -0.0952
  951MOL0     O28308   7.159   4.593   3.501 -0.4925 -0.6370 -0.1381
  951MOL0     C28309   7.221   4.696   3.428  0.4149 -0.3152 -0.6160
  951MOL0     C28310   7.151   4.836   3.443  0.2295  0.8920  0.3727
  951MOL0     C28311   7.000   4.826   3.405  0.1183  0.3499  0.0514
  951MOL0     C28312   6.941   4.974   3.406 -0.5615 -0.1819  0.0644
  951MOL0     C28313   6.803   4.958   3.448 -0.3000  0.3556 -0.5186
  951MOL0     C28314   6.688   4.943   3.499 -0.3381 -0.6534  1.3082
  951MOL0     C28315   7.319   4.427   3.397 -0.1831 -0.2365 -0.1026
  951MOL0     C28316   7.364   4.295   3.405 -0.6702 -0.9126 -0.7692
  951MOL0     C28317   7.495   4.271   3.327 -0.7161  0.4598  0.5120
  951MOL0     H28318   7.441   3.819   3.361  0.4139  1.4479 -0.2087
  951MOL0     H28319   7.475   3.578   3.434  0.0722  0.2429 -0.3943
  951MOL0     H28320   7.756   3.551   3.776  1.9728 -1.1815  1.9793
  951MOL0     H28321   7.636   3.434   3.828 -1.6886 -1.4897 -2.1727
  951MOL0     H28322   7.742   3.273   3.651  1.4201  0.3703  0.1208
  951MOL0     H28323   7.855   3.322   3.777 -1.4692  2.7920  2.9309
  951MOL0     H28324   7.941   3.507   3.648 -2.2490 -0.5078  3.7427
  951MOL0     H28325   7.829   3.480   3.521 -2.2786 -2.5030 -0.7151
  951MOL0     H28326   8.056   3.297   3.623 -0.3210 -0.1423 -0.1208
  951MOL0     H28327   7.942   3.259   3.487 -1.4627 -0.5657  1.6024
  951MOL0     H28328   8.068   3.477   3.387  1.6789  1.9900  1.0462
  951MOL0     H28329   8.142   3.500   3.541 -1.0308  0.1822  1.6184
  951MOL0     H28330   8.181   3.240   3.380  0.6365 -0.8974  2.0800
  951MOL0     H28331   8.271   3.388   3.361  0.5671 -0.5954  1.2011
  951MOL0     H28332   8.263   3.212   3.609  2.0708 -1.9553 -0.5163
  951MOL0     H28333   8.362   3.360   3.591 -0.7876 -0.0405  1.3411
  951MOL0     H28334   8.482   3.119   3.542 -2.0699 -1.4530 -0.0178
  951MOL0     H28335   8.375   3.105   3.399  0.7327  0.0713 -1.0919
  951MOL0     H28336   8.668   3.334   3.540 -0.3923  1.5884 -0.1908
  951MOL0     H28337   8.849   3.463   3.232 -0.9886  1.5577 -0.5091
  951MOL0     H28338   8.763   3.567   3.331  1.4552  0.4350  0.3413
  951MOL0     H28339   8.979   3.525   3.408  1.0040 -0.4158 -2.8809
  951MOL0     H28340   8.869   3.452   3.528  0.7679 -1.5126  0.5633
  951MOL0     H28341   8.928   3.231   3.458 -1.8454  0.4578 -0.4424
  951MOL0     H28342   9.079   3.312   3.473  0.7887  1.8800 -0.9590
  951MOL0     H28343   8.946   3.234   3.204 -1.1911  5.0124  0.4432
  951MOL0     H28344   9.099   3.173   3.281  2.3065  1.8006  0.6470
  951MOL0     H28345   9.263   3.223   3.406  1.8507 -0.6769 -0.3217
  951MOL0     H28346   9.487   3.238   3.435 -2.7849 -1.6991  0.0211
  951MOL0     H28347   9.857   3.630   3.178  0.7577 -0.9659  2.3577
  951MOL0     H28348  10.098   3.669   3.200 -0.7687 -0.4790  4.4184
  951MOL0     H28349  10.387   3.296   3.184  1.2258 -0.1143  1.6663
  951MOL0     H28350  10.364   3.402   3.038  1.7504  3.0685 -0.2025
  951MOL0     H28351  10.525   3.508   3.275  2.7446 -0.7139  0.2563
  951MOL0     H28352  10.592   3.390   3.167  4.8433  4.6346 -0.7719
  951MOL0     H28353  10.502   3.538   2.973  0.0525  1.1550 -0.2086
  951MOL0     H28354  10.495   3.665   3.102  1.7275 -0.7789  4.0940
  951MOL0     H28355  10.751   3.511   3.059  2.5038  2.1976  1.5405
  951MOL0     H28356  10.731   3.667   3.129 -0.4462 -0.5425  0.3506
  951MOL0     H28357  10.656   3.754   2.885  0.3232  1.7119  0.2126
  951MOL0     H28358  10.732   3.604   2.832 -0.6799 -0.1296  0.5098
  951MOL0     H28359  10.863   3.837   2.989  1.6370  1.2471 -2.0751
  951MOL0     H28360  10.941   3.679   2.970  2.9935  3.2900  0.4177
  951MOL0     H28361  10.866   3.861   2.743  1.7946  2.4246  1.2541
  951MOL0     H28362  10.934   3.699   2.740  0.7413  0.1529 -0.0582
  951MOL0     H28363  11.069   3.960   2.861  2.2808  0.2910 -0.6171
  951MOL0     H28364  11.121   3.788   2.892 -1.2307 -1.8678 -0.6893
  951MOL0     H28365  10.182   3.252   3.185  1.2536  1.0725  1.9185
  951MOL0     H28366   9.932   3.207   3.157 -1.4512  1.1936  4.2342
  951MOL0     H28367   9.510   3.490   3.082 -2.0280  0.1651 -1.4974
  951MOL0     H28368   9.267   3.495   3.076  0.0540 -2.6294 -1.0276
  951MOL0     H28369   7.612   3.709   3.815  0.6640 -1.4597  0.2311
  951MOL0     H28370   7.559   3.946   3.752 -1.9712 -0.2759 -0.3574
  951MOL0     H28371   7.159   4.176   3.646  0.2088 -0.3331  0.4257
  951MOL0     H28372   7.103   4.402   3.657 -0.2192  1.0084  0.3225
  951MOL0     H28373   7.210   4.681   3.320  0.6682  2.3301 -1.0736
  951MOL0     H28374   7.325   4.703   3.460  0.3703  1.2189 -0.7313
  951MOL0     H28375   7.188   4.923   3.388 -3.1363  2.2003 -0.0893
  951MOL0     H28376   7.157   4.869   3.547  2.0394  1.8167  0.0103
  951MOL0     H28377   6.957   4.765   3.485  0.3223  0.8729  0.5699
  951MOL0     H28378   6.984   4.786   3.304 -1.7306  0.6769  0.1793
  951MOL0     H28379   6.984   5.053   3.468 -0.3974  1.2240 -1.7569
  951MOL0     H28380   6.953   5.012   3.304 -0.4551  0.6671  0.3859
  951MOL0     H28381   6.593   4.931   3.547  0.0555 -0.6794  2.1008
  951MOL0     H28382   7.380   4.498   3.341  0.4779  2.3236  3.5389
  951MOL0     H28383   7.548   4.183   3.366  0.1905  0.7932  0.0624
  951MOL0     H28384   7.475   4.251   3.222 -1.1465 -0.6658  0.7903
  951MOL0     H28385   7.567   4.353   3.341 -0.1320 -0.1281  1.0322
  952MOL0     O28386   1.978   2.877   1.536  0.5225  0.4864 -0.4624
  952MOL0     C28387   1.946   2.904   1.422 -0.4446  0.0262 -1.0069
  952MOL0     O28388   2.029   2.932   1.322  0.0147  0.2145  0.2729
  952MOL0     C28389   2.171   2.930   1.339  1.7367  0.0158 -0.0715
  952MOL0     C28390   2.234   3.024   1.419  0.0589 -0.7811 -0.0560
  952MOL0     C28391   2.367   3.010   1.446  0.0654 -0.0871  0.1057
  952MOL0     C28392   2.448   2.919   1.384 -0.8589 -0.0412  0.6543
  952MOL0     O28393   2.586   2.919   1.414 -0.6415 -0.0160  0.1148
  952MOL0     C28394   2.655   2.802   1.380 -0.6032  0.4415  0.8877
  952MOL0     C28395   2.790   2.829   1.444  1.2509  0.6186  0.2308
  952MOL0     C28396   2.891   2.727   1.394 -0.3787  0.2914 -0.2264
  952MOL0     C28397   2.889   2.579   1.437  0.1832 -0.0914 -0.0974
  952MOL0     C28398   2.997   2.502   1.369 -0.7229  0.3605 -0.0169
  952MOL0     C28399   3.129   2.511   1.448  0.1393 -0.0570  0.6243
  952MOL0     C28400   3.256   2.475   1.377 -0.0383 -0.6326  0.3934
  952MOL0     C28401   3.296   2.570   1.264 -0.4785 -0.4424  0.3472
  952MOL0     N28402   3.444   2.571   1.235 -1.0780 -0.2514  0.2384
  952MOL0     C28403   3.500   2.466   1.182 -0.1340  0.3574  0.4433
  952MOL0     C28404   3.634   2.485   1.174 -0.2800  0.9369  0.3688
  952MOL0     C28405   3.729   2.401   1.093 -0.8302 -0.1764  0.0504
  952MOL0     C28406   3.880   2.428   1.103 -0.0411  1.0594  0.7837
  952MOL0     C28407   3.938   2.558   1.055  0.6447 -0.4271 -0.0166
  952MOL0     C28408   4.086   2.558   1.093 -0.8944 -0.3486 -0.2438
  952MOL0     O28409   4.148   2.622   0.976 -0.5818  0.3712  0.5016
  952MOL0     C28410   4.285   2.596   0.989 -0.5025 -0.2346  0.4938
  952MOL0     C28411   4.336   2.482   0.939 -0.4065 -0.0144  0.4623
  952MOL0     C28412   4.470   2.450   0.936  0.2087 -0.0786  0.0340
  952MOL0     C28413   4.557   2.552   0.984 -0.2363 -0.8865  0.7794
  952MOL0     C28414   4.708   2.539   0.985  0.2848 -0.3164 -0.2147
  952MOL0     O28415   4.744   2.412   0.974 -0.2627 -0.0835  0.2887
  952MOL0     C28416   4.879   2.396   0.951  0.5822  0.4044  0.6837
  952MOL0     C28417   4.922   2.353   0.827  0.1278  0.1982 -0.0843
  952MOL0     C28418   5.057   2.326   0.810 -0.0094 -0.2616 -0.5957
  952MOL0     C28419   5.149   2.347   0.915  0.4188 -0.6012 -0.1639
  952MOL0     O28420   5.286   2.337   0.905  0.2394  0.5161  0.4541
  952MOL0     C28421   5.334   2.327   0.769  0.9133 -0.1848 -1.2100
  952MOL0     C28422   5.484   2.288   0.782  0.3348  0.1826 -0.6179
  952MOL0     C28423   5.570   2.407   0.831 -0.6314  0.1123  0.4253
  952MOL0     C28424   5.590   2.511   0.710 -0.5381 -0.0945 -0.2447
  952MOL0     C28425   5.668   2.632   0.752 -0.7846  0.7355  0.9451
  952MOL0     C28426   5.816   2.598   0.753  0.0058 -0.3980 -0.5675
  952MOL0     C28427   5.905   2.688   0.834 -0.5809  0.1356 -0.8402
  952MOL0     C28428   6.059   2.656   0.834 -0.0139 -0.0677  0.4269
  952MOL0    Cl28429   6.092   2.480   0.866 -0.3713 -0.0256  0.1645
  952MOL0     C28430   5.103   2.399   1.031  0.1617  0.2825 -0.3739
  952MOL0     C28431   4.966   2.418   1.050  0.2369 -0.0681  0.3740
  952MOL0     O28432   4.786   2.635   0.989 -0.5282  0.5477  0.3217
  952MOL0     C28433   4.503   2.673   1.057  0.3145  0.4670 -0.2139
  952MOL0     C28434   4.368   2.696   1.046 -0.2499 -0.0224 -0.4420
  952MOL0     N28435   3.658   2.605   1.239  0.4051  0.0413 -0.2723
  952MOL0     N28436   3.549   2.651   1.286 -0.0124 -0.9186  0.8548
  952MOL0     C28437   2.387   2.834   1.289  0.4318  0.3020 -0.0832
  952MOL0     C28438   2.247   2.845   1.260 -0.3646  1.2187 -0.2605
  952MOL0     C28439   1.807   2.921   1.393  0.1544 -0.6121 -0.0320
  952MOL0     C28440   1.774   2.968   1.261 -0.2839 -0.7218 -0.5012
  952MOL0     C28441   1.635   3.004   1.244 -1.5213 -0.1690  0.1471
  952MOL0     C28442   1.541   2.990   1.341  0.0395  0.0854 -0.2934
  952MOL0     O28443   1.410   3.016   1.308 -0.6695  0.0073  0.0775
  952MOL0     C28444   1.301   3.022   1.392  0.1870  0.5480  0.4682
  952MOL0     C28445   1.171   3.039   1.308  0.6775  0.0248 -0.2411
  952MOL0     C28446   1.042   3.004   1.380  0.0207 -0.5931 -1.0726
  952MOL0     C28447   1.001   3.117   1.482 -0.2866 -0.0913 -0.1187
  952MOL0     C28448   1.059   3.077   1.620  0.5412 -0.2677 -0.1273
  952MOL0     C28449   1.104   3.062   1.725 -0.1226  0.4253 -0.6845
  952MOL0     C28450   1.579   2.951   1.471  0.1891  1.5980  0.3229
  952MOL0     C28451   1.706   2.914   1.495  0.5438  0.6656 -0.6654
  952MOL0     C28452   1.732   2.887   1.639  0.3242 -0.0275 -0.3295
  952MOL0     H28453   2.168   3.092   1.472  0.3063 -2.3056  2.3705
  952MOL0     H28454   2.414   3.072   1.523  1.5260 -3.9577  2.6437
  952MOL0     H28455   2.616   2.709   1.424 -2.9080  0.3508 -1.1187
  952MOL0     H28456   2.660   2.794   1.271 -3.0956  0.4099  0.7036
  952MOL0     H28457   2.789   2.835   1.554  3.3918  0.4447  0.3016
  952MOL0     H28458   2.824   2.931   1.420 -0.7584  1.9297  2.5363
  952MOL0     H28459   2.986   2.774   1.423 -1.4673  2.6930 -0.2867
  952MOL0     H28460   2.882   2.733   1.285  1.0435 -0.8172 -0.4382
  952MOL0     H28461   2.906   2.591   1.545 -0.5196  1.1263 -0.1026
  952MOL0     H28462   2.789   2.539   1.417  0.5739 -1.8031  1.0898
  952MOL0     H28463   2.966   2.398   1.354 -5.2597  1.5130 -0.2370
  952MOL0     H28464   3.007   2.540   1.267  0.1631 -1.7099 -0.7576
  952MOL0     H28465   3.136   2.614   1.484 -1.4735  0.0611  0.6788
  952MOL0     H28466   3.131   2.445   1.535  2.9324 -1.4390 -0.3636
  952MOL0     H28467   3.253   2.369   1.348  0.7948 -0.5991  0.1495
  952MOL0     H28468   3.327   2.482   1.460 -2.0848  2.3352  2.0514
  952MOL0     H28469   3.232   2.558   1.176  3.7500 -0.9853 -2.9377
  952MOL0     H28470   3.289   2.672   1.305 -3.0653 -0.9722  1.4261
  952MOL0     H28471   3.431   2.388   1.151 -0.9405  0.0959  2.6883
  952MOL0     H28472   3.704   2.298   1.118  2.0924 -1.1304 -0.4975
  952MOL0     H28473   3.705   2.414   0.987  3.0265 -2.7676 -1.3865
  952MOL0     H28474   3.901   2.411   1.210  0.7597 -0.0415  0.4741
  952MOL0     H28475   3.940   2.350   1.055 -1.4817  1.1269 -1.2652
  952MOL0     H28476   3.871   2.630   1.103 -2.5107 -2.0763 -1.6081
  952MOL0     H28477   3.929   2.562   0.946  0.6314 -0.2091 -0.0084
  952MOL0     H28478   4.126   2.460   1.121  0.2620  0.7291  2.1041
  952MOL0     H28479   4.104   2.620   1.181 -2.4574 -2.2210  1.4679
  952MOL0     H28480   4.264   2.404   0.914 -0.4341  0.0082  0.4715
  952MOL0     H28481   4.507   2.354   0.902 -0.1379  0.0437 -0.7225
  952MOL0     H28482   4.856   2.344   0.741 -0.2437  0.6209  0.1507
  952MOL0     H28483   5.091   2.288   0.715 -0.3534 -1.7035 -0.1637
  952MOL0     H28484   5.280   2.245   0.721  0.0453 -1.2156  1.3489
  952MOL0     H28485   5.316   2.423   0.719 -1.7320  0.1534  0.2432
  952MOL0     H28486   5.478   2.197   0.842 -0.7554 -0.7668 -2.0973
  952MOL0     H28487   5.534   2.277   0.685  2.2883  1.9681  0.1045
  952MOL0     H28488   5.516   2.454   0.914  0.3186 -1.8524  2.2269
  952MOL0     H28489   5.669   2.382   0.868 -0.6185 -1.4962 -0.6181
  952MOL0     H28490   5.497   2.545   0.664 -0.2635 -1.9309 -2.3441
  952MOL0     H28491   5.647   2.454   0.635  0.0361 -1.1372  0.9303
  952MOL0     H28492   5.631   2.679   0.844 -1.2427  2.2666  0.0173
  952MOL0     H28493   5.654   2.697   0.665  1.7918  0.5274  0.3009
  952MOL0     H28494   5.833   2.497   0.790  3.3806  0.8211  1.7148
  952MOL0     H28495   5.847   2.595   0.648 -2.0148  0.1786 -1.2186
  952MOL0     H28496   5.871   2.691   0.937  0.6328  0.5967 -0.4292
  952MOL0     H28497   5.892   2.789   0.794 -0.6493  0.9038  1.0318
  952MOL0     H28498   6.115   2.693   0.748  0.2437  0.7757  0.9495
  952MOL0     H28499   6.109   2.713   0.913 -0.0639 -2.2711  2.1593
  952MOL0     H28500   5.178   2.406   1.110  2.8285  1.2107 -2.8240
  952MOL0     H28501   4.919   2.459   1.139 -0.5449 -0.2574  0.0566
  952MOL0     H28502   4.566   2.738   1.117  0.5295 -1.0187  1.2335
  952MOL0     H28503   4.338   2.783   1.103  0.7654 -0.7676  1.2930
  952MOL0     H28504   2.447   2.760   1.236 -0.5779  1.6943 -3.4927
  952MOL0     H28505   2.209   2.770   1.192  1.9574  0.0646 -0.3699
  952MOL0     H28506   1.842   2.967   1.176 -1.2832 -1.5166 -1.3090
  952MOL0     H28507   1.602   3.036   1.145 -1.9151  1.4764  0.7764
  952MOL0     H28508   1.306   3.097   1.471  0.3862  0.4655  0.5333
  952MOL0     H28509   1.289   2.923   1.437  0.6487  0.8162  1.1938
  952MOL0     H28510   1.177   2.977   1.219 -2.5373  0.2089 -0.7258
  952MOL0     H28511   1.166   3.142   1.270 -0.4161  0.0726 -0.0053
  952MOL0     H28512   1.039   2.906   1.431  0.6015 -0.4358 -0.7180
  952MOL0     H28513   0.954   2.994   1.316 -1.0948 -0.2103  0.3444
  952MOL0     H28514   1.034   3.218   1.453 -2.5805  0.3041 -1.6385
  952MOL0     H28515   0.895   3.145   1.490 -0.0435  0.4515  1.9072
  952MOL0     H28516   1.162   3.023   1.806  0.9754 -0.4958 -1.8706
  952MOL0     H28517   1.505   2.939   1.549 -1.4346  4.3146 -0.6547
  952MOL0     H28518   1.651   2.923   1.704 -0.6055 -1.3672 -0.6805
  952MOL0     H28519   1.760   2.786   1.673 -3.3542 -0.9626  0.4250
  952MOL0     H28520   1.816   2.943   1.681 -0.3820 -1.4252  3.3684
  953MOL0     O28521   2.327   6.785   4.768  0.1822 -0.1449  0.6714
  953MOL0     C28522   2.232   6.802   4.701 -0.1836  1.4881 -0.7541
  953MOL0     O28523   2.145   6.696   4.670 -0.2477 -0.4949  0.3335
  953MOL0     C28524   2.195   6.568   4.652 -0.5343  0.2494 -0.5640
  953MOL0     C28525   2.331   6.530   4.631  0.0624 -0.2314 -0.1584
  953MOL0     C28526   2.364   6.397   4.603  0.6363 -1.0078  1.3713
  953MOL0     C28527   2.266   6.295   4.597 -0.0863 -0.7412 -0.0159
  953MOL0     O28528   2.315   6.167   4.576 -0.4539  0.0646 -0.2655
  953MOL0     C28529   2.235   6.064   4.516 -0.4371 -0.1074 -0.0655
  953MOL0     C28530   2.308   5.928   4.504  0.0052 -0.0861 -1.2491
  953MOL0     C28531   2.440   5.954   4.423 -0.0866  0.1556 -0.3160
  953MOL0     C28532   2.568   5.986   4.505 -0.0590 -0.1014  0.1753
  953MOL0     C28533   2.678   6.070   4.427  0.4998 -0.0686  1.0332
  953MOL0     C28534   2.795   6.118   4.514 -0.1238  0.2492 -0.1610
  953MOL0     C28535   2.924   6.162   4.437  0.2146 -0.1950  0.6378
  953MOL0     C28536   3.031   6.050   4.458  0.5312  0.0253  1.0411
  953MOL0     N28537   3.164   6.094   4.413 -0.5857  0.2250  0.2558
  953MOL0     C28538   3.268   6.163   4.486  0.8354  0.3432  1.0840
  953MOL0     C28539   3.364   6.195   4.390 -0.2320 -0.9935  0.1381
  953MOL0     C28540   3.494   6.265   4.419  0.5622  0.5237 -0.7806
  953MOL0     C28541   3.624   6.173   4.434 -0.2640 -0.3628 -0.5007
  953MOL0     C28542   3.656   6.095   4.304 -0.5679  0.3047 -0.3173
  953MOL0     C28543   3.799   6.033   4.318 -0.0464  0.2043  0.5712
  953MOL0     O28544   3.811   5.963   4.439 -0.4559 -0.1481 -0.4730
  953MOL0     C28545   3.931   5.905   4.478  0.0436 -0.2871 -0.1906
  953MOL0     C28546   3.930   5.813   4.580 -0.2382  0.0938 -0.4632
  953MOL0     C28547   4.046   5.761   4.635  0.4999  0.5025  0.0013
  953MOL0     C28548   4.168   5.805   4.591 -0.2418  0.3977 -0.6574
  953MOL0     C28549   4.291   5.757   4.661  0.2704 -0.2985  1.0421
  953MOL0     O28550   4.395   5.849   4.648  0.2429 -0.6108 -0.6317
  953MOL0     C28551   4.517   5.817   4.694 -0.0191 -1.1924  0.5849
  953MOL0     C28552   4.628   5.840   4.617  0.3369 -0.4501 -0.6975
  953MOL0     C28553   4.759   5.843   4.668  0.0689  0.1102  0.4292
  953MOL0     C28554   4.778   5.825   4.807  0.0188  0.7361  0.2486
  953MOL0     O28555   4.908   5.836   4.864  0.5830  0.7573 -0.1522
  953MOL0     C28556   5.020   5.798   4.785 -0.1060 -0.7121 -0.3209
  953MOL0     C28557   5.135   5.796   4.882  0.4365 -0.0699  1.0916
  953MOL0     C28558   5.154   5.936   4.947 -0.8548  0.3077 -0.2687
  953MOL0     C28559   5.297   5.945   4.998  1.1985 -0.3348  0.2253
  953MOL0     C28560   5.346   6.084   5.041 -1.0044  0.1100 -0.6218
  953MOL0     C28561   5.488   6.079   5.087 -0.5489 -0.1399  0.0258
  953MOL0     C28562   5.525   6.009   5.219 -0.2824 -0.8345  0.0982
  953MOL0     C28563   5.465   6.085   5.342 -0.0022 -0.1705  0.1203
  953MOL0    Cl28564   5.555   6.230   5.333  0.6590 -0.3588  0.5144
  953MOL0     C28565   4.669   5.796   4.886  0.1704  0.1097  0.2953
  953MOL0     C28566   4.536   5.794   4.827 -0.3069 -0.4376  0.0765
  953MOL0     O28567   4.298   5.654   4.718  0.4589 -0.2439  0.4155
  953MOL0     C28568   4.176   5.900   4.491 -1.5508  0.0491  0.6637
  953MOL0     C28569   4.059   5.948   4.429  0.2506 -0.2975 -0.2625
  953MOL0     N28570   3.330   6.125   4.275  0.2617 -0.2144  1.0639
  953MOL0     N28571   3.218   6.063   4.290 -0.9991  0.5571  0.6849
  953MOL0     C28572   2.131   6.330   4.621  0.0900 -0.6079 -0.3332
  953MOL0     C28573   2.102   6.460   4.652  0.2635  0.1115 -0.5781
  953MOL0     C28574   2.192   6.933   4.656  0.0564  0.1802 -0.7585
  953MOL0     C28575   2.061   6.960   4.610 -0.3029  0.1378  0.8005
  953MOL0     C28576   2.022   7.081   4.550  0.0581 -0.4232  0.2598
  953MOL0     C28577   2.117   7.183   4.551 -0.6728  0.8854  0.6395
  953MOL0     O28578   2.083   7.304   4.499  0.8322  0.1470 -0.0818
  953MOL0     C28579   2.099   7.407   4.590 -0.3181  0.8957  1.0350
  953MOL0     C28580   1.971   7.420   4.662 -0.1313 -0.3967 -0.4169
  953MOL0     C28581   1.981   7.510   4.784  0.2467 -0.4545  0.4636
  953MOL0     C28582   2.029   7.445   4.915 -0.5004 -0.2645 -0.2303
  953MOL0     C28583   1.917   7.366   4.967 -0.0939  0.6508  0.0271
  953MOL0     C28584   1.820   7.314   5.002 -0.0906  0.8545 -0.4219
  953MOL0     C28585   2.241   7.161   4.598 -0.1194  0.5165  0.6384
  953MOL0     C28586   2.279   7.040   4.661  0.5647 -0.9201  0.6277
  953MOL0     C28587   2.419   7.048   4.741 -0.2079  0.2026 -0.7550
  953MOL0     H28588   2.407   6.606   4.641 -0.3273 -0.0423  1.8317
  953MOL0     H28589   2.463   6.359   4.579  0.3006 -0.6811 -0.7827
  953MOL0     H28590   2.139   6.050   4.567  0.5263  2.7990  2.8866
  953MOL0     H28591   2.220   6.099   4.414  0.5664  0.9659  0.1376
  953MOL0     H28592   2.243   5.867   4.441  0.3512  0.6844 -2.3910
  953MOL0     H28593   2.327   5.885   4.603  0.0070  1.9614 -0.2857
  953MOL0     H28594   2.417   6.037   4.355 -0.2121  1.7013  1.5418
  953MOL0     H28595   2.459   5.872   4.353 -0.4141  0.2013 -0.4624
  953MOL0     H28596   2.538   6.046   4.591  3.2196  0.1326  1.2896
  953MOL0     H28597   2.623   5.901   4.546  2.9079  2.5351  2.0918
  953MOL0     H28598   2.728   6.009   4.352 -0.3692 -0.5886  0.8626
  953MOL0     H28599   2.625   6.150   4.375  0.2883 -0.8160  0.0770
  953MOL0     H28600   2.768   6.204   4.576  0.3830 -0.2417  0.7611
  953MOL0     H28601   2.807   6.035   4.584  0.9656  0.4607 -0.0932
  953MOL0     H28602   2.956   6.250   4.493  1.7331 -2.0258  2.8818
  953MOL0     H28603   2.904   6.178   4.331  2.2265 -2.0412 -0.1037
  953MOL0     H28604   3.040   6.018   4.562 -0.8162  2.6449  2.0633
  953MOL0     H28605   2.994   5.960   4.409  0.8333 -0.7222  2.1411
  953MOL0     H28606   3.258   6.189   4.591 -2.0357 -1.8487  1.5022
  953MOL0     H28607   3.503   6.337   4.337  1.9061 -0.0152 -1.1296
  953MOL0     H28608   3.487   6.333   4.505  0.4491  1.7045 -1.7087
  953MOL0     H28609   3.709   6.236   4.464  0.3524 -1.9156  1.2444
  953MOL0     H28610   3.615   6.111   4.523  2.7760 -1.9537 -1.1784
  953MOL0     H28611   3.663   6.155   4.213 -0.1452 -0.0462 -0.5255
  953MOL0     H28612   3.577   6.023   4.285 -0.4645  0.5311 -1.7332
  953MOL0     H28613   3.871   6.111   4.295 -1.3543  0.3469 -4.2402
  953MOL0     H28614   3.810   5.959   4.238  2.0171  2.6248 -1.5324
  953MOL0     H28615   3.838   5.778   4.625  0.0243  0.4866  0.4161
  953MOL0     H28616   4.043   5.699   4.723  0.0536 -1.4920 -1.3567
  953MOL0     H28617   4.627   5.869   4.512  3.0198  0.6983 -0.4901
  953MOL0     H28618   4.846   5.860   4.604  1.5994 -3.4796  1.3205
  953MOL0     H28619   5.017   5.705   4.728  0.7783 -0.1462 -1.3366
  953MOL0     H28620   5.050   5.880   4.718  0.2298  0.3200  1.0405
  953MOL0     H28621   5.125   5.721   4.962  0.1798 -3.5164 -1.8948
  953MOL0     H28622   5.223   5.756   4.831 -0.7212 -0.6938 -0.4897
  953MOL0     H28623   5.137   6.009   4.867  0.0686 -0.0532 -0.7985
  953MOL0     H28624   5.085   5.945   5.032 -0.1678 -1.7198  0.5564
  953MOL0     H28625   5.366   5.907   4.922  2.9406 -0.1473  1.6595
  953MOL0     H28626   5.304   5.888   5.091  0.0110  0.7053  0.9742
  953MOL0     H28627   5.278   6.131   5.113  0.9463 -1.4218  2.4521
  953MOL0     H28628   5.344   6.137   4.946  1.8593 -2.5549 -2.3666
  953MOL0     H28629   5.533   6.014   5.011 -2.3707  0.7994 -1.9884
  953MOL0     H28630   5.533   6.177   5.069  1.4311 -1.0617 -0.3150
  953MOL0     H28631   5.634   6.014   5.226 -0.0108  3.4695 -2.9537
  953MOL0     H28632   5.499   5.903   5.223  0.1697 -0.9922 -0.8285
  953MOL0     H28633   5.360   6.115   5.339 -0.2068 -0.9495 -0.9818
  953MOL0     H28634   5.471   6.025   5.433 -1.8589  1.2344  1.2632
  953MOL0     H28635   4.677   5.787   4.994 -1.6055  1.7981  0.6362
  953MOL0     H28636   4.449   5.781   4.890 -1.0162 -0.0550 -0.8027
  953MOL0     H28637   4.278   5.917   4.459 -0.7771 -1.3895  2.1753
  953MOL0     H28638   4.063   6.024   4.352 -0.8486 -0.1955 -0.2336
  953MOL0     H28639   2.049   6.260   4.613 -1.6521  1.4646 -1.7458
  953MOL0     H28640   1.998   6.482   4.675 -0.0035 -3.4553  2.4606
  953MOL0     H28641   1.983   6.883   4.608  2.1801 -2.5442 -0.4974
  953MOL0     H28642   1.925   7.101   4.505 -0.1063  0.2186  0.8892
  953MOL0     H28643   2.136   7.493   4.532  0.5915  0.2660  0.6521
  953MOL0     H28644   2.181   7.397   4.662  1.2263 -2.6142 -0.9361
  953MOL0     H28645   1.917   7.329   4.688 -2.5461  1.1597  0.3226
  953MOL0     H28646   1.900   7.470   4.596 -0.2792  0.0029  0.0395
  953MOL0     H28647   1.882   7.555   4.796  0.3128  1.8985 -5.0060
  953MOL0     H28648   2.045   7.594   4.759 -1.4076  1.3885  2.1050
  953MOL0     H28649   2.115   7.379   4.898 -0.0630 -0.5440  2.5667
  953MOL0     H28650   2.058   7.532   4.974  1.5065  0.2128 -1.8220
  953MOL0     H28651   1.729   7.262   5.026 -1.3475  3.8167  1.8524
  953MOL0     H28652   2.300   7.252   4.593 -0.4519  0.6554 -3.5259
  953MOL0     H28653   2.484   6.975   4.692 -1.0098  0.3439 -2.0714
  953MOL0     H28654   2.467   7.146   4.754  1.0618 -0.7293  2.9076
  953MOL0     H28655   2.412   7.025   4.847 -0.0423  4.2666  0.3189
  954MOL0     O28656   1.136   7.772   9.787  0.8001 -0.0753  0.3949
  954MOL0     C28657   1.114   7.663   9.728 -0.7811  0.0287 -0.9428
  954MOL0     O28658   1.193   7.554   9.737 -0.4723  1.0044 -0.6317
  954MOL0     C28659   1.316   7.570   9.796 -0.5262 -0.0560 -0.0700
  954MOL0     C28660   1.326   7.553   9.929  0.0512  0.0935  0.4025
  954MOL0     C28661   1.446   7.557   9.984 -0.0801  0.0234 -0.1846
  954MOL0     C28662   1.559   7.585   9.911 -1.0585 -0.1871  0.3756
  954MOL0     O28663   1.666   7.600   9.989  0.4490  0.3412  0.0991
  954MOL0     C28664   1.798   7.595   9.935 -0.4801 -0.2517 -0.5600
  954MOL0     C28665   1.889   7.586  10.059  0.9348  0.7137  0.2631
  954MOL0     C28666   1.892   7.726  10.127  0.8680  0.1278  0.7978
  954MOL0     C28667   1.887   7.718  10.279  0.3804 -0.6553 -0.0844
  954MOL0     C28668   1.888   7.860  10.339  0.3552  0.3320 -0.1524
  954MOL0     C28669   2.025   7.939  10.339  0.7542  0.5382 -0.0975
  954MOL0     C28670   2.155   7.855  10.361  0.2005  0.4638 -0.2966
  954MOL0     C28671   2.287   7.938  10.376 -0.0755 -0.1404  0.8977
  954MOL0     N28672   2.399   7.849  10.407  1.0665 -0.5667 -0.3835
  954MOL0     C28673   2.494   7.789  10.326  0.6400 -0.1583  0.1706
  954MOL0     C28674   2.566   7.716  10.413  0.3597  0.2296 -1.0259
  954MOL0     C28675   2.687   7.635  10.377  0.2390 -0.1203 -0.7366
  954MOL0     C28676   2.802   7.666  10.467  0.2660 -0.6668 -0.7030
  954MOL0     C28677   2.913   7.746  10.400  0.8557 -0.3371  1.1108
  954MOL0     C28678   3.041   7.753  10.478  0.6572  0.7598 -0.2878
  954MOL0     O28679   3.132   7.825  10.385 -0.3700  0.0680  0.0096
  954MOL0     C28680   3.247   7.870  10.445 -0.9595  0.7349  0.5467
  954MOL0     C28681   3.261   7.894  10.585  0.2550 -0.0081 -0.5242
  954MOL0     C28682   3.385   7.927  10.633  0.8235  0.6283 -1.2444
  954MOL0     C28683   3.503   7.929  10.552  1.2796 -0.6876 -1.5760
  954MOL0     C28684   3.634   7.953  10.604 -0.8128 -0.7336  0.1528
  954MOL0     O28685   3.739   7.949  10.514  0.0095  0.3625  0.6424
  954MOL0     C28686   3.854   8.003  10.547 -0.2809  0.7914  0.0436
  954MOL0     C28687   3.871   8.113  10.629 -0.5565  0.0445  0.2698
  954MOL0     C28688   3.999   8.167  10.650  0.9141  0.1812 -0.2888
  954MOL0     C28689   4.113   8.113  10.573 -0.4608 -0.2698  0.5239
  954MOL0     O28690   4.241   8.160  10.601  1.0954  0.1839 -0.0575
  954MOL0     C28691   4.251   8.304  10.610  0.2195 -0.5208  0.0141
  954MOL0     C28692   4.401   8.349  10.582 -0.6631  0.3531 -0.7588
  954MOL0     C28693   4.487   8.326  10.709 -0.4360  0.0856  0.3826
  954MOL0     C28694   4.631   8.357  10.690  0.0640  0.2790 -0.3807
  954MOL0     C28695   4.729   8.316  10.801  0.1506  0.6753  0.0381
  954MOL0     C28696   4.868   8.398  10.803  0.0676  0.5217  0.3421
  954MOL0     C28697   4.960   8.348  10.690 -0.0471 -0.0616 -0.2540
  954MOL0     C28698   5.082   8.426  10.655 -0.3004  0.8030 -0.0350
  954MOL0    Cl28699   5.182   8.353  10.529  0.0831 -0.2262  0.1886
  954MOL0     C28700   4.095   7.999  10.498  0.6389 -0.4989 -1.4175
  954MOL0     C28701   3.963   7.946  10.489 -0.4282  0.0855  0.0115
  954MOL0     O28702   3.648   7.978  10.726  0.2676  0.2338 -0.2623
  954MOL0     C28703   3.485   7.909  10.410 -0.1789  0.6329 -0.7259
  954MOL0     C28704   3.359   7.894  10.358 -0.1208 -0.5275 -0.6955
  954MOL0     N28705   2.511   7.719  10.540  0.2866 -0.3504  0.3658
  954MOL0     N28706   2.421   7.809  10.540 -0.4497  0.2752  0.0129
  954MOL0     C28707   1.550   7.623   9.776 -0.4451 -0.0169 -0.1164
  954MOL0     C28708   1.424   7.607   9.714  0.1588  0.3575 -0.1865
  954MOL0     C28709   0.997   7.658   9.640 -0.8685  1.0750 -1.1229
  954MOL0     C28710   1.001   7.573   9.527  0.0641 -0.1860  0.2277
  954MOL0     C28711   0.881   7.561   9.442 -0.0334 -0.0177 -0.7137
  954MOL0     C28712   0.772   7.646   9.469  0.3208  1.1053 -0.4129
  954MOL0     O28713   0.652   7.647   9.405 -0.2035 -0.1992  0.3996
  954MOL0     C28714   0.653   7.566   9.282 -0.1207  0.6645 -1.1374
  954MOL0     C28715   0.502   7.541   9.230 -0.2158 -0.9695  0.2381
  954MOL0     C28716   0.490   7.490   9.089 -0.8904  0.7587  0.5566
  954MOL0     C28717   0.377   7.377   9.073  0.5190 -0.5925 -0.1175
  954MOL0     C28718   0.393   7.286   8.958 -0.4294 -0.6797 -0.2403
  954MOL0     C28719   0.416   7.207   8.868  0.3166  0.2496 -0.6518
  954MOL0     C28720   0.784   7.736   9.572 -0.8418 -0.5968 -0.5358
  954MOL0     C28721   0.884   7.733   9.667  0.3479  0.4675  0.1617
  954MOL0     C28722   0.861   7.814   9.785 -0.1306 -0.0362 -0.4609
  954MOL0     H28723   1.230   7.554   9.980  1.7300  3.3337  4.0373
  954MOL0     H28724   1.459   7.555  10.092  2.1159 -0.7091 -0.4216
  954MOL0     H28725   1.804   7.505   9.873 -0.3007  0.1533 -1.1385
  954MOL0     H28726   1.815   7.687   9.878 -0.6979 -0.1278 -0.4238
  954MOL0     H28727   1.984   7.555  10.017  0.1264 -0.5012 -0.7379
  954MOL0     H28728   1.850   7.504  10.120 -1.7693  1.4923 -0.2443
  954MOL0     H28729   1.811   7.792  10.096  0.3138  0.9114  3.6783
  954MOL0     H28730   1.988   7.774  10.109  1.1781 -0.5664  0.5523
  954MOL0     H28731   1.794   7.669  10.311  0.2203  0.2172  0.8256
  954MOL0     H28732   1.977   7.663  10.309 -0.1703 -2.9139 -2.1974
  954MOL0     H28733   1.814   7.920  10.286  0.8398  1.0378 -0.0478
  954MOL0     H28734   1.848   7.856  10.441 -0.8900 -1.4337 -0.6493
  954MOL0     H28735   2.026   7.977  10.236 -3.4557 -0.1012 -0.5343
  954MOL0     H28736   2.025   8.016  10.416  2.0767  0.9300 -0.4533
  954MOL0     H28737   2.164   7.791  10.273  2.3274 -0.4830  0.5606
  954MOL0     H28738   2.142   7.796  10.452 -4.8336 -1.0041 -1.6063
  954MOL0     H28739   2.306   7.994  10.285  4.3353 -0.0091  1.6873
  954MOL0     H28740   2.273   8.014  10.454  3.0206  1.2393  0.2633
  954MOL0     H28741   2.504   7.806  10.219  3.3265  0.0848  0.4124
  954MOL0     H28742   2.667   7.528  10.382 -1.5910  0.2280  0.1072
  954MOL0     H28743   2.707   7.632  10.269  2.4065 -0.3405 -0.3662
  954MOL0     H28744   2.761   7.721  10.552 -0.6455  1.2133 -2.2825
  954MOL0     H28745   2.840   7.568  10.499 -2.0276 -1.0345  1.1441
  954MOL0     H28746   2.870   7.844  10.378 -0.7035 -1.4981 -1.6042
  954MOL0     H28747   2.923   7.703  10.300 -1.3998  0.1068  0.6544
  954MOL0     H28748   3.072   7.650  10.495 -0.3030  0.6962  1.2671
  954MOL0     H28749   3.019   7.806  10.572  1.4837  2.5520 -1.0542
  954MOL0     H28750   3.180   7.895  10.658  1.4440  0.6670  0.8304
  954MOL0     H28751   3.396   7.933  10.741  0.9121  2.4890 -1.3259
  954MOL0     H28752   3.785   8.162  10.672 -1.9830 -1.6876 -0.4883
  954MOL0     H28753   4.009   8.254  10.714 -1.7743  0.5622 -0.2773
  954MOL0     H28754   4.187   8.357  10.539  0.6156 -0.3091 -0.1842
  954MOL0     H28755   4.228   8.347  10.708  1.3808  0.8588 -0.2801
  954MOL0     H28756   4.436   8.292  10.495 -0.3186 -0.7754  0.0979
  954MOL0     H28757   4.405   8.456  10.560 -2.4157  0.0169 -3.1254
  954MOL0     H28758   4.456   8.390  10.791  2.9983  0.9365  1.1808
  954MOL0     H28759   4.486   8.219  10.731  0.1282 -0.6242 -2.5218
  954MOL0     H28760   4.650   8.463  10.672  2.0047  0.0634  0.1578
  954MOL0     H28761   4.661   8.302  10.600 -2.9831 -1.5811 -0.4121
  954MOL0     H28762   4.736   8.208  10.786  3.7304  1.1082 -2.7925
  954MOL0     H28763   4.670   8.333  10.892 -0.2014  4.7192 -0.7775
  954MOL0     H28764   4.844   8.505  10.801  2.6674  1.1533 -1.5808
  954MOL0     H28765   4.914   8.368  10.898  0.3516 -1.2291 -0.3137
  954MOL0     H28766   4.903   8.343  10.597 -0.2402 -2.2605 -0.0579
  954MOL0     H28767   4.994   8.249  10.721 -1.2815 -0.0650  1.2144
  954MOL0     H28768   5.059   8.528  10.623  1.6648  0.8880 -1.3461
  954MOL0     H28769   5.127   8.425  10.754 -0.2049 -1.1126 -0.0508
  954MOL0     H28770   4.179   7.940  10.461 -1.1047 -5.0513  0.9845
  954MOL0     H28771   3.950   7.853  10.434 -2.4773  0.1673  0.2590
  954MOL0     H28772   3.565   7.911  10.337 -0.3164  0.8303 -0.8746
  954MOL0     H28773   3.354   7.876  10.251  1.4025 -2.7432 -0.4505
  954MOL0     H28774   1.641   7.641   9.720  0.5896  0.0117  1.4763
  954MOL0     H28775   1.408   7.633   9.610 -3.7235  0.9923  0.4300
  954MOL0     H28776   1.089   7.514   9.505  0.2709  0.1810  0.0566
  954MOL0     H28777   0.885   7.482   9.368  1.0856  0.1697 -0.8774
  954MOL0     H28778   0.694   7.470   9.314  0.0022  1.5007  1.5064
  954MOL0     H28779   0.715   7.601   9.199  1.5717 -3.0682 -1.6174
  954MOL0     H28780   0.450   7.637   9.239  2.5297  0.9314 -2.3097
  954MOL0     H28781   0.471   7.474   9.311 -0.1562  0.7688  1.7789
  954MOL0     H28782   0.585   7.448   9.056 -2.1129 -1.3811 -0.4655
  954MOL0     H28783   0.457   7.573   9.025 -0.7665  1.8585  1.8793
  954MOL0     H28784   0.366   7.323   9.167 -0.3808  0.1039  0.1859
  954MOL0     H28785   0.279   7.424   9.071  1.0984  0.7239  0.9984
  954MOL0     H28786   0.440   7.127   8.802  1.2203  0.1994 -0.2716
  954MOL0     H28787   0.699   7.799   9.598 -1.4994 -1.6155 -0.1566
  954MOL0     H28788   0.897   7.917   9.773 -1.4587  0.9785  3.0605
  954MOL0     H28789   0.757   7.818   9.820 -0.0070  0.5829 -0.1516
  954MOL0     H28790   0.923   7.778   9.867 -0.8890  2.3809  1.2770
  955MOL0     O28791  10.664   2.809   3.113 -0.0873  0.1502 -0.1833
  955MOL0     C28792  10.579   2.742   3.051 -0.6520 -0.9735 -0.1878
  955MOL0     O28793  10.603   2.682   2.933  0.1075 -0.2847  0.5356
  955MOL0     C28794  10.715   2.716   2.872 -0.5261  0.5885 -0.6647
  955MOL0     C28795  10.726   2.843   2.827  0.2249 -0.8495 -0.4810
  955MOL0     C28796  10.845   2.894   2.774  0.3358  0.5375  0.9063
  955MOL0     C28797  10.950   2.805   2.752 -0.5491 -0.3573 -0.3118
  955MOL0     O28798  11.068   2.828   2.686 -0.1080 -0.1190  0.5712
  955MOL0     C28799  11.120   2.964   2.684 -0.9772  0.4763 -0.1494
  955MOL0     C28800  11.249   2.970   2.592  0.1256 -0.9005 -0.3608
  955MOL0     C28801  11.347   2.855   2.623 -0.1076  0.3955 -0.9327
  955MOL0     C28802  11.400   2.859   2.763  0.2403  0.4461  0.4910
  955MOL0     C28803  11.501   2.750   2.801 -0.3856 -0.2216  0.9956
  955MOL0     C28804  11.505   2.733   2.950  0.5438  0.3356  1.1120
  955MOL0     C28805  11.619   2.653   2.993 -0.2430 -0.1078 -0.9639
  955MOL0     C28806  11.613   2.510   2.953  1.3501  0.2344  0.7030
  955MOL0     N28807  11.692   2.425   3.042  0.7725  0.4461  0.7505
  955MOL0     C28808  11.824   2.461   3.055 -0.1998  0.0867  0.1654
  955MOL0     C28809  11.876   2.362   3.135  0.2854  0.6101 -0.4661
  955MOL0     C28810  12.012   2.350   3.200 -0.4255 -0.0797  0.2069
  955MOL0     C28811  12.024   2.472   3.296  0.3633  0.5198 -0.9956
  955MOL0     C28812  12.150   2.462   3.392 -0.2356  0.6352  0.1078
  955MOL0     C28813  12.185   2.599   3.455 -0.7317  0.3344  0.6453
  955MOL0     O28814  12.241   2.671   3.347  0.3340 -0.3032  0.3311
  955MOL0     C28815  12.364   2.736   3.357  0.5651 -0.2991 -0.3686
  955MOL0     C28816  12.445   2.734   3.469 -0.3778  0.1160  0.7695
  955MOL0     C28817  12.563   2.806   3.464 -1.0574  0.4951  0.3542
  955MOL0     C28818  12.610   2.864   3.345 -0.0459 -0.2153 -0.9367
  955MOL0     C28819  12.754   2.913   3.350  0.2035 -0.1361  0.6625
  955MOL0     O28820  12.829   2.905   3.237 -0.2282 -0.2349 -0.4112
  955MOL0     C28821  12.957   2.953   3.234 -0.6354  0.2349  0.6356
  955MOL0     C28822  13.049   2.868   3.172  0.3025  0.1199  0.9977
  955MOL0     C28823  13.186   2.905   3.182  0.6537  0.5870 -0.2336
  955MOL0     C28824  13.237   3.019   3.250 -0.1291  0.6385  0.2845
  955MOL0     O28825  13.374   3.028   3.228 -0.5394 -0.3171  0.2986
  955MOL0     C28826  13.423   3.163   3.240 -0.3299  0.3325 -0.0188
  955MOL0     C28827  13.569   3.149   3.190  1.1640  0.1808  0.3456
  955MOL0     C28828  13.661   3.258   3.249 -0.0236  0.1820 -1.0471
  955MOL0     C28829  13.798   3.225   3.239 -0.5012 -0.4187 -0.1211
  955MOL0     C28830  13.896   3.338   3.280  0.7872  0.1512 -0.4867
  955MOL0     C28831  14.038   3.304   3.321 -1.1056  0.5147  0.8666
  955MOL0     C28832  14.120   3.422   3.347 -0.2349  0.0359  0.3700
  955MOL0     C28833  14.258   3.387   3.393  0.8919  0.1766  0.8171
  955MOL0    Cl28834  14.357   3.317   3.257  0.0228 -0.3404 -0.3711
  955MOL0     C28835  13.144   3.106   3.310 -0.8173 -0.1919  0.2239
  955MOL0     C28836  13.003   3.065   3.305 -1.0484 -0.7470  0.5507
  955MOL0     O28837  12.788   2.970   3.459 -0.3388  0.1398 -0.1573
  955MOL0     C28838  12.520   2.888   3.242  0.0820  0.5215 -0.3212
  955MOL0     C28839  12.396   2.822   3.250  0.7182  0.4070  0.0203
  955MOL0     N28840  11.767   2.266   3.154  0.0561 -1.3258 -0.6342
  955MOL0     N28841  11.657   2.310   3.101  0.6561 -0.4263  0.4413
  955MOL0     C28842  10.931   2.673   2.790 -0.6088  1.3932 -0.0960
  955MOL0     C28843  10.828   2.630   2.867 -0.2418 -0.0178 -0.3799
  955MOL0     C28844  10.451   2.713   3.126  0.6268 -0.0029  0.0960
  955MOL0     C28845  10.363   2.626   3.061 -0.2222 -0.1670 -0.8386
  955MOL0     C28846  10.240   2.603   3.122 -0.2370 -0.0488  0.0549
  955MOL0     C28847  10.197   2.657   3.246  0.0805 -0.2608  0.4157
  955MOL0     O28848  10.069   2.636   3.294 -0.0247  0.1212 -0.2879
  955MOL0     C28849  10.017   2.689   3.416  0.5853  0.2000 -0.3386
  955MOL0     C28850   9.861   2.672   3.420  0.3287 -0.6751 -0.7357
  955MOL0     C28851   9.808   2.532   3.435 -0.6626 -0.4112 -0.3567
  955MOL0     C28852   9.648   2.522   3.412 -0.4817 -0.2437  0.6563
  955MOL0     C28853   9.576   2.583   3.519 -0.4736 -0.6601 -0.5194
  955MOL0     C28854   9.520   2.606   3.623 -0.2691 -0.1071 -0.2975
  955MOL0     C28855  10.293   2.730   3.307 -0.1656 -0.3526 -0.2366
  955MOL0     C28856  10.412   2.767   3.256 -0.5580  0.9235  0.2195
  955MOL0     C28857  10.489   2.871   3.330 -0.0460  0.4346 -0.7018
  955MOL0     H28858  10.641   2.910   2.818 -1.2243 -2.6853 -0.9835
  955MOL0     H28859  10.847   2.991   2.727 -2.3208 -0.5896 -1.9391
  955MOL0     H28860  11.050   3.024   2.625 -1.4114  0.1746  0.0541
  955MOL0     H28861  11.139   3.010   2.781 -1.1986  1.9572 -0.7809
  955MOL0     H28862  11.298   3.068   2.594  0.4435 -1.0431 -1.1237
  955MOL0     H28863  11.217   2.959   2.489  2.6669 -0.6090 -1.2608
  955MOL0     H28864  11.438   2.852   2.562  0.0458 -0.9002 -0.6491
  955MOL0     H28865  11.295   2.763   2.594  0.5433 -0.1028 -0.5423
  955MOL0     H28866  11.445   2.957   2.782  1.8603 -0.3237  0.7425
  955MOL0     H28867  11.315   2.848   2.831  0.9571 -2.1159  1.0793
  955MOL0     H28868  11.481   2.650   2.761  1.5800 -0.4712  0.5535
  955MOL0     H28869  11.597   2.786   2.765 -1.0032  0.2771 -0.1997
  955MOL0     H28870  11.502   2.832   2.996 -1.6001  1.1046 -0.4740
  955MOL0     H28871  11.414   2.679   2.979  0.8665 -0.7547  0.1308
  955MOL0     H28872  11.610   2.654   3.102  0.7227 -1.1993 -0.8613
  955MOL0     H28873  11.708   2.707   2.958  3.0526 -1.2100  4.6096
  955MOL0     H28874  11.508   2.477   2.947  1.3860  0.3498 -1.1163
  955MOL0     H28875  11.653   2.493   2.853  1.3965 -4.6862  1.3276
  955MOL0     H28876  11.885   2.542   3.016  2.7897 -0.9645  2.2294
  955MOL0     H28877  12.010   2.256   3.256 -1.5541 -0.2349 -0.0577
  955MOL0     H28878  12.099   2.354   3.134  0.3237  3.3972  1.1693
  955MOL0     H28879  12.036   2.559   3.230  2.7264 -1.4770 -3.4040
  955MOL0     H28880  11.934   2.482   3.357 -0.1193  1.4208 -1.8181
  955MOL0     H28881  12.234   2.407   3.346 -2.0934 -2.8494  0.5270
  955MOL0     H28882  12.118   2.396   3.473 -1.0498  0.6407 -0.1984
  955MOL0     H28883  12.250   2.584   3.542  1.1295  1.0955 -0.5518
  955MOL0     H28884  12.101   2.653   3.499 -0.6907  0.0580  1.0742
  955MOL0     H28885  12.421   2.663   3.548  2.8775 -3.2615 -0.9590
  955MOL0     H28886  12.635   2.798   3.545  0.6313  1.0643 -0.9992
  955MOL0     H28887  13.022   2.778   3.117  1.8915  0.3777 -0.2881
  955MOL0     H28888  13.249   2.844   3.118  0.4434 -0.4351  0.5171
  955MOL0     H28889  13.372   3.235   3.176  2.3231 -0.1200 -2.8378
  955MOL0     H28890  13.416   3.186   3.347  2.1036  0.4784  0.1518
  955MOL0     H28891  13.604   3.049   3.217 -0.8588 -0.3839  1.1167
  955MOL0     H28892  13.561   3.168   3.083  4.2517  1.3420  0.2445
  955MOL0     H28893  13.643   3.360   3.214 -0.1210  0.5867  0.1139
  955MOL0     H28894  13.637   3.279   3.354  0.2762  2.8541 -1.4458
  955MOL0     H28895  13.824   3.203   3.135  0.4290 -0.4218  0.1003
  955MOL0     H28896  13.820   3.132   3.293  2.1941  1.6230  2.6545
  955MOL0     H28897  13.864   3.391   3.370 -1.8386  0.1620 -1.3383
  955MOL0     H28898  13.884   3.418   3.206  1.7986  0.3770 -0.4179
  955MOL0     H28899  14.043   3.235   3.406 -0.2927 -2.7109 -1.5779
  955MOL0     H28900  14.084   3.241   3.243  0.2273 -0.7535  2.5849
  955MOL0     H28901  14.077   3.469   3.436  1.3156 -3.3814  3.1702
  955MOL0     H28902  14.127   3.479   3.254  5.2956 -0.2336  0.2847
  955MOL0     H28903  14.312   3.475   3.430 -0.5341  1.3831  0.1166
  955MOL0     H28904  14.256   3.313   3.474 -0.3130  1.4769  2.0341
  955MOL0     H28905  13.168   3.204   3.348  0.5818 -0.1113 -0.8125
  955MOL0     H28906  12.941   3.134   3.361 -1.6417  1.0075 -2.1005
  955MOL0     H28907  12.541   2.946   3.152 -2.2579  2.8404  0.5054
  955MOL0     H28908  12.326   2.826   3.167  3.4501 -1.5973 -2.6061
  955MOL0     H28909  11.014   2.608   2.767  0.2725  2.1124  0.9491
  955MOL0     H28910  10.826   2.527   2.902  0.2725 -0.4455 -1.5618
  955MOL0     H28911  10.391   2.576   2.969  0.6777  0.2805 -0.8273
  955MOL0     H28912  10.169   2.543   3.066  2.0976  0.8297 -4.2632
  955MOL0     H28913  10.050   2.790   3.442  0.1164 -0.2604  2.3874
  955MOL0     H28914  10.050   2.628   3.501 -3.7560  0.3838  1.8014
  955MOL0     H28915   9.816   2.713   3.329 -1.9420 -1.4152 -0.0309
  955MOL0     H28916   9.820   2.735   3.499  0.7494  0.0531 -1.0900
  955MOL0     H28917   9.827   2.487   3.533 -3.6109 -2.2523 -0.5069
  955MOL0     H28918   9.860   2.480   3.355  2.3882  0.0563  1.1576
  955MOL0     H28919   9.634   2.569   3.314  2.7088 -0.9426 -0.2755
  955MOL0     H28920   9.622   2.416   3.400  0.5631 -0.4219 -0.2656
  955MOL0     H28921   9.473   2.632   3.716  1.7479  2.3869  0.1183
  955MOL0     H28922  10.258   2.774   3.399 -1.5086  2.3613 -1.9366
  955MOL0     H28923  10.516   2.969   3.288  1.6847 -0.4492 -1.7579
  955MOL0     H28924  10.436   2.898   3.422 -1.8786 -1.4588 -1.1252
  955MOL0     H28925  10.582   2.822   3.357 -0.2680 -0.4788 -1.5507
  956MOL0     O28926  10.931  10.523   5.043  0.2727 -0.0676 -0.7667
  956MOL0     C28927  10.889  10.450   4.950 -0.1390  0.3416 -0.7625
  956MOL0     O28928  10.954  10.343   4.890 -0.4664 -0.2456  0.3540
  956MOL0     C28929  11.081  10.303   4.920 -0.1833 -0.4137  0.3958
  956MOL0     C28930  11.164  10.278   4.809 -0.6913  0.5451 -1.2039
  956MOL0     C28931  11.284  10.204   4.836 -0.4903  0.5305  0.6161
  956MOL0     C28932  11.319  10.158   4.973  0.4416  0.3450  0.9452
  956MOL0     O28933  11.443  10.095   4.990 -0.6947 -0.3189 -0.1659
  956MOL0     C28934  11.557  10.171   4.970 -0.5832  0.3322  0.7664
  956MOL0     C28935  11.626  10.201   5.106  0.1137  0.0617 -0.0406
  956MOL0     C28936  11.756  10.123   5.106  0.0272  0.0817  0.2139
  956MOL0     C28937  11.834  10.157   5.237 -0.2500  0.0981  0.0379
  956MOL0     C28938  11.937  10.044   5.268 -0.4073 -0.3739  0.3847
  956MOL0     C28939  12.051  10.025   5.165 -0.0293  0.0183  0.0940
  956MOL0     C28940  12.159   9.928   5.206  0.9144 -0.3550 -0.1736
  956MOL0     C28941  12.253   9.985   5.318  0.4181 -0.4475 -0.2494
  956MOL0     N28942  12.331   9.887   5.385 -0.0138  0.1954 -0.3364
  956MOL0     C28943  12.414   9.913   5.493  0.1066 -0.1655  0.4198
  956MOL0     C28944  12.474   9.791   5.518 -0.1021 -0.4720 -0.2462
  956MOL0     C28945  12.570   9.770   5.637 -0.2781 -0.2242  0.2280
  956MOL0     C28946  12.712   9.766   5.585  1.0621  0.3867 -0.6461
  956MOL0     C28947  12.806   9.711   5.691 -0.0211  0.2514  0.3268
  956MOL0     C28948  12.953   9.694   5.640 -0.3438 -1.8661  0.1197
  956MOL0     O28949  13.007   9.819   5.591 -0.3019 -0.4818 -0.1467
  956MOL0     C28950  13.145   9.847   5.616 -0.1885 -0.6136  0.5534
  956MOL0     C28951  13.178   9.976   5.637  0.2157 -0.1914 -0.8344
  956MOL0     C28952  13.316  10.019   5.645 -0.5570  0.5513  0.9275
  956MOL0     C28953  13.419   9.922   5.635 -0.0205 -0.3358 -0.6012
  956MOL0     C28954  13.559   9.955   5.636 -1.0414 -0.6519  0.8016
  956MOL0     O28955  13.649   9.855   5.630  0.0336  0.4574  0.2297
  956MOL0     C28956  13.783   9.874   5.631  0.0047  0.3029  0.8952
  956MOL0     C28957  13.869   9.885   5.516 -0.6451  0.4626  0.1829
  956MOL0     C28958  14.015   9.885   5.542 -0.4506  0.7017  0.5098
  956MOL0     C28959  14.063   9.882   5.674 -0.2544 -0.7809  0.1348
  956MOL0     O28960  14.197   9.878   5.689 -0.0815 -0.0746 -0.5168
  956MOL0     C28961  14.260   9.860   5.820 -0.5820 -0.0980 -0.6340
  956MOL0     C28962  14.289   9.715   5.853 -0.2817 -0.0210 -0.0542
  956MOL0     C28963  14.414   9.688   5.946  0.3073 -0.8839  0.2647
  956MOL0     C28964  14.378   9.555   6.013 -0.5774 -0.3486  0.1012
  956MOL0     C28965  14.475   9.517   6.132  0.4019  0.2542  0.5440
  956MOL0     C28966  14.625   9.533   6.101  0.1566  0.2717  0.2739
  956MOL0     C28967  14.672   9.419   6.005 -0.5830  0.4844 -0.0374
  956MOL0     C28968  14.821   9.414   6.004 -0.2220 -0.0150  0.2939
  956MOL0    Cl28969  14.883   9.265   5.913  0.1799 -0.1238  0.3218
  956MOL0     C28970  13.969   9.872   5.778 -0.4074  1.4072  0.2537
  956MOL0     C28971  13.839   9.864   5.758 -0.1887 -0.3153 -0.6464
  956MOL0     O28972  13.595  10.071   5.642  0.6252  0.3070 -0.1469
  956MOL0     C28973  13.384   9.782   5.617  0.0389  0.2570 -1.1069
  956MOL0     C28974  13.247   9.755   5.616 -1.2879  0.5303 -0.6152
  956MOL0     N28975  12.425   9.699   5.438  0.0318 -0.6991  0.1325
  956MOL0     N28976  12.339   9.755   5.352 -0.0716  0.4647 -0.8805
  956MOL0     C28977  11.225  10.192   5.071 -0.1342  0.8124 -0.1730
  956MOL0     C28978  11.107  10.263   5.049  0.3414 -0.9462  0.0061
  956MOL0     C28979  10.747  10.473   4.912  0.0283  0.9520 -0.3813
  956MOL0     C28980  10.696  10.607   4.902 -0.9829  0.3505 -0.3936
  956MOL0     C28981  10.569  10.627   4.853 -0.9997 -0.1224  0.2694
  956MOL0     C28982  10.490  10.521   4.798 -0.6507  0.4101 -0.4309
  956MOL0     O28983  10.374  10.545   4.730  0.2350 -0.1383 -0.1849
  956MOL0     C28984  10.297  10.667   4.759 -1.0303  0.3986 -0.1557
  956MOL0     C28985  10.160  10.660   4.703  0.0248 -0.5120 -0.8751
  956MOL0     C28986  10.165  10.704   4.556  0.1354 -0.9557  0.6856
  956MOL0     C28987  10.048  10.699   4.453 -0.7354  0.1526 -0.3804
  956MOL0     C28988   9.930  10.781   4.472 -0.2455 -0.6607 -0.3087
  956MOL0     C28989   9.832  10.855   4.483  0.0035  1.3193 -0.2770
  956MOL0     C28990  10.539  10.389   4.816 -1.0260  0.1001  0.3813
  956MOL0     C28991  10.665  10.365   4.874  0.5176 -0.4564  1.1574
  956MOL0     C28992  10.693  10.223   4.907 -0.6627 -0.1750  0.2965
  956MOL0     H28993  11.133  10.305   4.708 -1.1404  3.5369 -0.3432
  956MOL0     H28994  11.355  10.166   4.764  0.5746 -3.0853  3.2748
  956MOL0     H28995  11.623  10.107   4.911  0.9434  1.0687  1.6003
  956MOL0     H28996  11.536  10.262   4.913 -1.7253 -0.2624  0.2109
  956MOL0     H28997  11.568  10.160   5.189  3.2230 -0.7984  1.8610
  956MOL0     H28998  11.662  10.303   5.120  1.9014 -0.2429 -1.9358
  956MOL0     H28999  11.807  10.157   5.015  0.2566 -2.2819 -0.5924
  956MOL0     H29000  11.744  10.015   5.101  0.1518 -0.1995  3.4969
  956MOL0     H29001  11.879  10.257   5.234 -0.7215  0.4455  2.2932
  956MOL0     H29002  11.761  10.169   5.318  0.4527  0.1932  0.6680
  956MOL0     H29003  11.979  10.057   5.368  0.2787  0.4662 -0.0008
  956MOL0     H29004  11.890   9.947   5.287  1.1049 -1.6300 -1.8356
  956MOL0     H29005  12.014   9.999   5.065  1.0797 -0.1440 -0.2875
  956MOL0     H29006  12.103  10.121   5.165 -0.6822  0.4504 -2.3427
  956MOL0     H29007  12.218   9.905   5.116 -1.1136 -0.8718 -1.4362
  956MOL0     H29008  12.112   9.834   5.234  1.0718 -1.4003 -3.0145
  956MOL0     H29009  12.322  10.059   5.277 -1.3122  0.4488 -1.6273
  956MOL0     H29010  12.185  10.022   5.395  0.8406 -1.1461  0.4949
  956MOL0     H29011  12.456   9.997   5.549  1.5872  0.9071 -2.1334
  956MOL0     H29012  12.564   9.849   5.713 -1.6676 -1.2123  1.1782
  956MOL0     H29013  12.544   9.671   5.675  1.3802 -1.7675 -2.3430
  956MOL0     H29014  12.719   9.714   5.489  0.5800  2.5090 -1.9061
  956MOL0     H29015  12.735   9.872   5.568 -1.1564  0.9367 -0.5132
  956MOL0     H29016  12.781   9.610   5.724  1.0544  0.5412  2.1883
  956MOL0     H29017  12.790   9.772   5.781 -1.6404  0.4346 -0.0490
  956MOL0     H29018  12.953   9.607   5.573 -4.3455 -1.1341 -1.0914
  956MOL0     H29019  13.014   9.662   5.726 -1.3763 -1.5244  1.0029
  956MOL0     H29020  13.098  10.047   5.653  2.8489  3.4241 -2.4186
  956MOL0     H29021  13.350  10.122   5.652  1.1813  0.0778 -0.1583
  956MOL0     H29022  13.831   9.888   5.414 -0.3120  0.8380  0.0669
  956MOL0     H29023  14.082   9.890   5.457 -0.8910 -3.2369 -0.2498
  956MOL0     H29024  14.355   9.913   5.815 -1.9058  2.4987 -0.0077
  956MOL0     H29025  14.201   9.908   5.898 -0.9596 -1.9028  0.2479
  956MOL0     H29026  14.200   9.673   5.902  0.4278 -1.4108  0.0907
  956MOL0     H29027  14.297   9.653   5.764 -0.7628 -2.6768  1.6420
  956MOL0     H29028  14.508   9.666   5.895  0.1735 -1.3644  0.2185
  956MOL0     H29029  14.426   9.771   6.017  3.0448  0.3094 -1.3968
  956MOL0     H29030  14.384   9.480   5.933  2.3724 -1.3366  1.1358
  956MOL0     H29031  14.278   9.565   6.055 -0.1808  1.3347  0.7178
  956MOL0     H29032  14.458   9.412   6.157 -3.3298  1.1430  2.3086
  956MOL0     H29033  14.448   9.576   6.220  1.0487 -0.6717  1.3864
  956MOL0     H29034  14.650   9.629   6.056  0.0483 -0.2116 -0.8564
  956MOL0     H29035  14.681   9.528   6.195 -0.9963  0.1918  0.9901
  956MOL0     H29036  14.633   9.432   5.903 -1.2071  1.5635  0.3241
  956MOL0     H29037  14.630   9.326   6.043 -3.6198  1.6006 -0.3789
  956MOL0     H29038  14.867   9.503   5.961 -1.3385  0.9968  1.1182
  956MOL0     H29039  14.856   9.416   6.108  0.0911  1.5049  0.1830
  956MOL0     H29040  14.009   9.852   5.877  1.6733  0.8759 -0.6391
  956MOL0     H29041  13.775   9.874   5.845 -2.3323  1.3869 -2.2973
  956MOL0     H29042  13.461   9.706   5.616 -3.1715 -3.5369  2.2214
  956MOL0     H29043  13.205   9.655   5.621 -0.2557  0.1546  1.4833
  956MOL0     H29044  11.246  10.167   5.175 -2.2793 -0.0384  0.1039
  956MOL0     H29045  11.032  10.277   5.126 -2.4045 -0.7853 -2.5346
  956MOL0     H29046  10.761  10.694   4.910 -1.5200  0.6074  2.4865
  956MOL0     H29047  10.548  10.732   4.831 -1.4314 -0.3120 -0.2221
  956MOL0     H29048  10.360  10.748   4.720 -0.6438 -0.4469 -1.3384
  956MOL0     H29049  10.298  10.679   4.868  0.5563  2.9055 -0.3828
  956MOL0     H29050  10.102  10.736   4.756  1.2847 -2.0320  2.9809
  956MOL0     H29051  10.116  10.560   4.711 -0.3988 -0.1763  1.7370
  956MOL0     H29052  10.251  10.649   4.518  0.4344  0.9944 -1.6566
  956MOL0     H29053  10.218  10.799   4.557  0.6271 -1.2256  0.1942
  956MOL0     H29054  10.104  10.735   4.366  1.4631 -0.4849  0.6972
  956MOL0     H29055  10.025  10.593   4.438  0.6388 -0.3942  1.1592
  956MOL0     H29056   9.745  10.916   4.496 -2.4020 -1.8686 -0.1475
  956MOL0     H29057  10.476  10.306   4.788 -1.3922  0.8339 -1.0475
  956MOL0     H29058  10.613  10.159   4.870  0.7061 -1.2959 -0.8772
  956MOL0     H29059  10.781  10.185   4.854 -0.2336 -0.3878  1.1535
  956MOL0     H29060  10.698  10.210   5.015  2.0943 -1.8190  0.0626
  957MOL0     O29061   4.065   3.027   6.786  0.0874  0.5965 -0.8309
  957MOL0     C29062   3.992   3.007   6.692 -0.2700 -1.2474  0.8321
  957MOL0     O29063   4.010   2.907   6.599 -0.1887 -0.7393  0.1343
  957MOL0     C29064   4.119   2.825   6.613  1.0426  0.3155  0.5171
  957MOL0     C29065   4.098   2.689   6.590  0.0088 -0.4971  0.2655
  957MOL0     C29066   4.199   2.598   6.607 -0.0230  0.1783 -0.6670
  957MOL0     C29067   4.328   2.634   6.650 -0.3119 -0.2056 -0.2762
  957MOL0     O29068   4.428   2.543   6.674  0.0427  0.6302 -0.4892
  957MOL0     C29069   4.562   2.587   6.732  0.9257  0.6843 -0.3130
  957MOL0     C29070   4.674   2.632   6.637 -0.4402  0.2147 -1.2999
  957MOL0     C29071   4.801   2.680   6.719  0.3687 -0.6154 -0.0839
  957MOL0     C29072   4.920   2.694   6.627  0.0042  0.6196  0.5490
  957MOL0     C29073   5.051   2.739   6.697  0.3202  0.1439 -0.6021
  957MOL0     C29074   5.168   2.757   6.605 -0.4572  0.1872  0.1746
  957MOL0     C29075   5.293   2.776   6.697 -0.2694 -0.8463  0.5988
  957MOL0     C29076   5.415   2.805   6.609  0.1741  0.5112  0.1400
  957MOL0     N29077   5.537   2.823   6.680  0.5326  0.6626 -0.1502
  957MOL0     C29078   5.609   2.728   6.755  0.7798 -0.3602  0.1637
  957MOL0     C29079   5.714   2.800   6.803  0.3481  1.0967  0.2117
  957MOL0     C29080   5.820   2.758   6.897 -0.5590  0.1028 -0.0667
  957MOL0     C29081   5.961   2.743   6.827  0.0037 -0.2085  0.0640
  957MOL0     C29082   6.058   2.682   6.930 -0.0539  0.5856  0.6798
  957MOL0     C29083   6.187   2.640   6.856  0.0463 -0.6343  0.2192
  957MOL0     O29084   6.285   2.600   6.958 -0.5715  0.0376 -0.0397
  957MOL0     C29085   6.412   2.578   6.924  0.1787 -0.0890 -0.0049
  957MOL0     C29086   6.480   2.639   6.819 -0.3084 -0.4745 -0.7745
  957MOL0     C29087   6.610   2.616   6.798 -0.7906  0.8925  0.6974
  957MOL0     C29088   6.684   2.532   6.875 -0.2619 -0.2561 -0.8859
  957MOL0     C29089   6.825   2.503   6.857 -0.9332  0.1291  0.7910
  957MOL0     O29090   6.904   2.466   6.958 -0.6113  0.1213 -0.1048
  957MOL0     C29091   7.040   2.454   6.949  0.0129 -0.1899 -0.1193
  957MOL0     C29092   7.085   2.353   7.034  0.8269  0.4392 -0.4075
  957MOL0     C29093   7.216   2.308   7.031 -0.3930  0.1147 -0.1396
  957MOL0     C29094   7.301   2.359   6.940 -0.4133  1.0240 -0.7136
  957MOL0     O29095   7.420   2.297   6.920  0.4594 -0.1893  0.1618
  957MOL0     C29096   7.526   2.382   6.877 -0.3403  0.9123 -0.8278
  957MOL0     C29097   7.657   2.309   6.901 -0.9131  1.1736  0.5911
  957MOL0     C29098   7.773   2.386   6.837 -0.5602 -0.5430  0.3468
  957MOL0     C29099   7.912   2.315   6.866 -0.6136  0.3485 -0.4129
  957MOL0     C29100   8.029   2.395   6.801 -0.6355  0.3607  0.2408
  957MOL0     C29101   8.162   2.327   6.848  0.1550 -0.5176  1.0629
  957MOL0     C29102   8.280   2.369   6.755 -0.4360 -0.7260 -0.3947
  957MOL0     C29103   8.407   2.295   6.802  0.4533 -0.0243  0.8285
  957MOL0    Cl29104   8.463   2.331   6.965 -0.5077 -0.1274 -0.1251
  957MOL0     C29105   7.251   2.460   6.851  0.2455 -0.3058 -0.0458
  957MOL0     C29106   7.121   2.507   6.849 -0.8634  0.1644 -0.2440
  957MOL0     O29107   6.856   2.499   6.730 -0.0139  0.1831 -0.2921
  957MOL0     C29108   6.624   2.472   6.983 -0.3029  0.7337 -0.1240
  957MOL0     C29109   6.487   2.495   7.013 -1.2350  0.5045 -0.4246
  957MOL0     N29110   5.711   2.930   6.755  0.2102  0.4534  0.5620
  957MOL0     N29111   5.601   2.940   6.689 -0.6433 -0.0721  0.5074
  957MOL0     C29112   4.354   2.777   6.673  1.1483  0.0954  0.1837
  957MOL0     C29113   4.251   2.863   6.648 -0.3931 -1.9153 -0.3227
  957MOL0     C29114   3.866   3.093   6.673  0.6060  0.2305  0.2624
  957MOL0     C29115   3.785   3.056   6.562  0.2820 -0.4790 -0.0949
  957MOL0     C29116   3.679   3.129   6.518 -1.1336  0.1921 -0.2755
  957MOL0     C29117   3.650   3.252   6.588 -0.8008  0.1246 -1.0787
  957MOL0     O29118   3.551   3.331   6.539  0.3013  0.4210  0.4491
  957MOL0     C29119   3.424   3.305   6.584 -0.7280  0.0906 -1.2272
  957MOL0     C29120   3.371   3.421   6.668 -0.3580 -0.0027 -1.0513
  957MOL0     C29121   3.234   3.399   6.731 -0.6623  0.4683  0.0076
  957MOL0     C29122   3.119   3.386   6.631  0.6269 -0.5551  0.0361
  957MOL0     C29123   3.010   3.344   6.715 -0.3850  0.9536 -1.0539
  957MOL0     C29124   2.911   3.302   6.777  0.1422 -0.2936 -0.2444
  957MOL0     C29125   3.735   3.294   6.693 -0.2938  0.1429 -0.5984
  957MOL0     C29126   3.831   3.210   6.750 -0.0094  0.0986 -0.1873
  957MOL0     C29127   3.909   3.270   6.863 -0.5432 -0.0870 -0.4802
  957MOL0     H29128   3.996   2.665   6.559  0.1350  0.1079 -0.6427
  957MOL0     H29129   4.185   2.492   6.590  2.0437 -0.1797 -0.4626
  957MOL0     H29130   4.538   2.665   6.804 -1.5308  0.4309 -0.7737
  957MOL0     H29131   4.596   2.494   6.779 -1.0291  0.8615  1.5945
  957MOL0     H29132   4.638   2.707   6.567 -2.4567 -0.8345 -1.4668
  957MOL0     H29133   4.699   2.550   6.569 -0.6121 -0.8083 -0.1752
  957MOL0     H29134   4.823   2.611   6.800  1.5853 -1.1049 -0.8023
  957MOL0     H29135   4.773   2.778   6.759  2.8923 -0.0762  0.5563
  957MOL0     H29136   4.943   2.597   6.581  2.4279  1.3692  0.0326
  957MOL0     H29137   4.884   2.761   6.548 -2.7029  0.0062  1.1515
  957MOL0     H29138   5.029   2.829   6.754 -2.6372 -2.1899  2.3778
  957MOL0     H29139   5.079   2.671   6.778  1.3180 -1.7099 -2.4012
  957MOL0     H29140   5.183   2.673   6.536  0.1162  0.7168 -0.3536
  957MOL0     H29141   5.145   2.845   6.544  1.0300  1.2667  1.0873
  957MOL0     H29142   5.306   2.684   6.754  0.8456  0.5929  2.8340
  957MOL0     H29143   5.270   2.862   6.761 -2.5625 -0.4344 -0.6782
  957MOL0     H29144   5.436   2.731   6.532 -2.3148 -0.4632  0.3205
  957MOL0     H29145   5.391   2.897   6.556 -0.4024  0.8422  0.9501
  957MOL0     H29146   5.593   2.624   6.783  1.1589  0.4682  4.0675
  957MOL0     H29147   5.835   2.827   6.980  3.9500 -0.9439  0.2530
  957MOL0     H29148   5.792   2.657   6.928  1.3722  0.1006  1.9004
  957MOL0     H29149   5.954   2.674   6.743  2.1265  0.6585 -0.8792
  957MOL0     H29150   6.003   2.836   6.789  2.5483 -1.5094 -0.4829
  957MOL0     H29151   6.013   2.590   6.971  1.4762 -0.4818  0.0288
  957MOL0     H29152   6.082   2.751   7.012 -0.6313 -1.2909  2.5407
  957MOL0     H29153   6.225   2.724   6.797  4.0333 -0.0085  3.2865
  957MOL0     H29154   6.170   2.558   6.785  0.6309 -1.8046  1.3928
  957MOL0     H29155   6.428   2.703   6.748  1.0654  0.1986 -1.2152
  957MOL0     H29156   6.661   2.649   6.708 -0.7708 -0.3183  0.2553
  957MOL0     H29157   7.008   2.314   7.100 -2.9624  2.8320 -2.9915
  957MOL0     H29158   7.263   2.243   7.105  0.6346  2.4070  1.3303
  957MOL0     H29159   7.522   2.401   6.769  0.9337 -0.9633 -1.2655
  957MOL0     H29160   7.534   2.475   6.934 -1.4552 -0.5100  1.7912
  957MOL0     H29161   7.680   2.292   7.007 -0.0889 -1.1676  0.0976
  957MOL0     H29162   7.648   2.212   6.851  0.5387  1.7152 -0.8195
  957MOL0     H29163   7.752   2.401   6.730 -0.2561  0.5902  0.4318
  957MOL0     H29164   7.778   2.485   6.882  1.4937 -0.8585  0.9423
  957MOL0     H29165   7.915   2.213   6.827  0.8082  0.0521  0.3936
  957MOL0     H29166   7.926   2.298   6.973 -0.2409 -1.2329 -0.6860
  957MOL0     H29167   8.027   2.503   6.819  1.3231  0.8500 -1.9598
  957MOL0     H29168   8.022   2.388   6.692  0.5744  0.6928  0.1281
  957MOL0     H29169   8.184   2.367   6.948 -1.8076  1.3711  0.8091
  957MOL0     H29170   8.149   2.219   6.858 -5.6439 -0.0828  1.9303
  957MOL0     H29171   8.298   2.477   6.753  1.2962 -0.9744  0.0055
  957MOL0     H29172   8.263   2.338   6.651 -1.3603  0.6325 -0.6711
  957MOL0     H29173   8.401   2.187   6.788  1.0800  0.0733 -0.3452
  957MOL0     H29174   8.496   2.308   6.740  0.6514  0.1912  1.1537
  957MOL0     H29175   7.317   2.497   6.773 -1.2550  1.4095 -0.5636
  957MOL0     H29176   7.090   2.574   6.769 -0.2237  0.1941 -0.4764
  957MOL0     H29177   6.680   2.393   7.032 -2.2472 -1.3680 -1.1213
  957MOL0     H29178   6.447   2.429   7.089 -2.4804  1.3172 -0.3559
  957MOL0     H29179   4.449   2.821   6.700  0.1582  0.8215  2.7445
  957MOL0     H29180   4.275   2.969   6.649 -1.5021 -1.6587 -0.0077
  957MOL0     H29181   3.804   2.965   6.506 -0.6534 -0.6754 -0.1032
  957MOL0     H29182   3.619   3.103   6.431  0.9977  0.0391 -1.7719
  957MOL0     H29183   3.421   3.211   6.639  1.2000 -0.6363 -2.2870
  957MOL0     H29184   3.361   3.297   6.494 -2.0086  1.2988 -0.4837
  957MOL0     H29185   3.376   3.515   6.612  1.3899 -1.0882 -2.8236
  957MOL0     H29186   3.449   3.434   6.744  1.3985 -1.3563 -2.5272
  957MOL0     H29187   3.216   3.475   6.808 -2.3087  2.1152 -1.8799
  957MOL0     H29188   3.239   3.304   6.785 -2.6931 -0.3116 -1.0586
  957MOL0     H29189   3.100   3.486   6.590 -1.5227 -0.2167  1.6679
  957MOL0     H29190   3.143   3.325   6.544  2.2305  0.9780 -0.6693
  957MOL0     H29191   2.821   3.271   6.826  0.3667 -2.9341 -1.3604
  957MOL0     H29192   3.712   3.390   6.738  0.6285  0.9561 -1.7949
  957MOL0     H29193   4.004   3.313   6.830 -0.2241 -0.3567  0.0689
  957MOL0     H29194   3.854   3.352   6.912  2.5047  3.9901 -3.1631
  957MOL0     H29195   3.935   3.193   6.936  0.0958  2.3364  2.0264
  958MOL0     O29196   6.174   5.530  10.926  1.1885 -0.2309  0.0944
  958MOL0     C29197   6.103   5.432  10.923  0.2045  0.0066  1.1882
  958MOL0     O29198   6.138   5.315  10.858  0.2264 -0.3817  0.0068
  958MOL0     C29199   6.268   5.280  10.827  0.7930 -0.0331 -0.5395
  958MOL0     C29200   6.287   5.176  10.738  0.1707 -0.3484  0.1037
  958MOL0     C29201   6.417   5.150  10.685 -0.6500  0.3899 -1.1026
  958MOL0     C29202   6.527   5.223  10.717  0.3313  0.4163 -0.4749
  958MOL0     O29203   6.635   5.187  10.642 -0.2121 -0.1413  0.2116
  958MOL0     C29204   6.749   5.269  10.661 -0.4445 -0.6641  0.5866
  958MOL0     C29205   6.813   5.233  10.799 -1.0513 -0.0571  0.7527
  958MOL0     C29206   6.904   5.331  10.854  0.1219 -0.1046 -0.1664
  958MOL0     C29207   7.017   5.278  10.932  0.8103  0.0310  0.4390
  958MOL0     C29208   7.114   5.392  10.965 -0.1753 -0.1349  0.0411
  958MOL0     C29209   7.234   5.335  11.052  0.4243  0.0889 -0.3969
  958MOL0     C29210   7.353   5.427  11.039  1.0360  0.0633 -0.5141
  958MOL0     C29211   7.455   5.373  11.134 -0.7116 -0.4294 -0.6707
  958MOL0     N29212   7.569   5.467  11.126  0.4787  0.4385 -0.6869
  958MOL0     C29213   7.618   5.538  11.018 -0.1457  0.1241  0.3645
  958MOL0     C29214   7.725   5.597  11.081 -0.3575  0.1268 -0.6595
  958MOL0     C29215   7.803   5.705  11.015  0.4587  0.2495  0.1652
  958MOL0     C29216   7.953   5.713  11.059  0.4825 -0.3061 -0.7273
  958MOL0     C29217   7.978   5.766  11.202 -0.2246  0.4279  0.1216
  958MOL0     C29218   8.124   5.775  11.243  0.2354 -0.3143  0.3333
  958MOL0     O29219   8.136   5.848  11.367 -0.2496 -0.2381  0.5934
  958MOL0     C29220   8.255   5.849  11.424 -0.6780 -0.2536  0.8179
  958MOL0     C29221   8.381   5.856  11.362 -0.3290 -0.3629  0.2952
  958MOL0     C29222   8.499   5.837  11.443  0.2403  0.3171 -1.3812
  958MOL0     C29223   8.495   5.808  11.579 -0.2188  0.7618 -0.0977
  958MOL0     C29224   8.626   5.768  11.652 -0.4401 -0.2209 -0.7160
  958MOL0     O29225   8.728   5.722  11.585 -0.1272  0.1268  0.6727
  958MOL0     C29226   8.851   5.717  11.653  0.6644  0.1242 -0.0377
  958MOL0     C29227   8.906   5.594  11.699 -0.0586 -0.1506 -0.2625
  958MOL0     C29228   9.032   5.604  11.762  0.5051  0.2431  0.6415
  958MOL0     C29229   9.104   5.721  11.776 -1.0861  0.3175 -0.2654
  958MOL0     O29230   9.227   5.739  11.841  0.1773  0.5663  0.5856
  958MOL0     C29231   9.329   5.650  11.800 -0.0094  0.1064  0.1017
  958MOL0     C29232   9.438   5.687  11.899 -0.3875  0.4626  0.3186
  958MOL0     C29233   9.567   5.617  11.864  0.6191 -0.1534 -0.3699
  958MOL0     C29234   9.688   5.661  11.955 -0.1358 -0.6196 -0.5351
  958MOL0     C29235   9.823   5.601  11.924 -0.3768  0.4952 -0.4891
  958MOL0     C29236   9.925   5.613  12.042 -0.1302 -0.8156  0.6545
  958MOL0     C29237  10.074   5.584  12.001  0.6263  0.3417 -0.1247
  958MOL0     C29238  10.169   5.673  12.078  0.1644 -0.3516  0.1497
  958MOL0    Cl29239  10.179   5.663  12.260 -0.0679  0.2892 -0.1513
  958MOL0     C29240   9.048   5.836  11.724  0.4677  0.5618  1.3302
  958MOL0     C29241   8.927   5.841  11.659 -0.2839  0.2721 -0.1577
  958MOL0     O29242   8.626   5.789  11.774  0.6238 -0.2514 -0.6459
  958MOL0     C29243   8.364   5.808  11.635 -0.7440  0.2502 -0.2200
  958MOL0     C29244   8.252   5.832  11.559 -0.3810  0.0018  0.8369
  958MOL0     N29245   7.741   5.564  11.208 -0.3871  0.6593  0.9719
  958MOL0     N29246   7.654   5.471  11.234 -0.2501  0.2877 -0.2756
  958MOL0     C29247   6.513   5.324  10.813  0.3560 -0.6313  0.2488
  958MOL0     C29248   6.388   5.344  10.877 -0.0370  0.4824 -0.1218
  958MOL0     C29249   5.974   5.438  10.994 -0.4727  0.2457 -0.2171
  958MOL0     C29250   5.903   5.318  10.997  0.1253  0.0692 -0.2738
  958MOL0     C29251   5.775   5.314  11.057 -0.9399  0.3618  0.1969
  958MOL0     C29252   5.722   5.428  11.123 -0.7681  1.0014  0.3839
  958MOL0     O29253   5.604   5.423  11.192  0.2632 -0.5670 -0.3363
  958MOL0     C29254   5.612   5.399  11.335  0.2748  0.1399  0.0390
  958MOL0     C29255   5.494   5.441  11.405 -0.1897  0.0816 -0.7749
  958MOL0     C29256   5.360   5.386  11.351 -0.8055  0.6179 -0.2936
  958MOL0     C29257   5.230   5.436  11.419 -0.4133  0.7890 -0.4160
  958MOL0     C29258   5.159   5.536  11.344  0.3846  0.0664  0.6311
  958MOL0     C29259   5.087   5.603  11.277  0.2106  0.5746  0.0182
  958MOL0     C29260   5.802   5.540  11.123  0.0655 -0.2380  0.2360
  958MOL0     C29261   5.927   5.554  11.064  0.0760  1.1533 -0.2498
  958MOL0     C29262   5.996   5.693  11.057 -0.4130  0.0366  0.1907
  958MOL0     H29263   6.200   5.125  10.700 -1.3151  1.6254  0.6381
  958MOL0     H29264   6.434   5.087  10.599  2.1880  0.1052 -0.4359
  958MOL0     H29265   6.830   5.251  10.589  0.2648  2.2016  0.5563
  958MOL0     H29266   6.721   5.374  10.657 -1.8130 -1.0522 -0.7806
  958MOL0     H29267   6.863   5.136  10.790 -1.0335  0.0335 -0.2290
  958MOL0     H29268   6.735   5.220  10.874 -2.2282 -1.5813 -0.6690
  958MOL0     H29269   6.858   5.403  10.922  1.5631 -0.7843  1.6382
  958MOL0     H29270   6.946   5.379  10.766 -1.3511  1.2137 -0.1964
  958MOL0     H29271   6.985   5.228  11.024  1.8138 -1.7096 -0.1044
  958MOL0     H29272   7.065   5.190  10.886 -0.1405 -1.7332  2.6189
  958MOL0     H29273   7.158   5.430  10.872  0.3997 -0.1720  0.2893
  958MOL0     H29274   7.067   5.477  11.016 -1.6954  0.7712 -2.7267
  958MOL0     H29275   7.199   5.327  11.155  0.4241  2.0256 -0.2068
  958MOL0     H29276   7.261   5.235  11.016  1.3579 -0.4654  1.7171
  958MOL0     H29277   7.318   5.530  11.051  0.7132  0.2633 -2.8360
  958MOL0     H29278   7.376   5.410  10.934  0.2884 -1.4976 -0.4579
  958MOL0     H29279   7.424   5.354  11.237 -0.3975 -2.7218 -0.9536
  958MOL0     H29280   7.487   5.280  11.087 -0.2027 -1.4539  1.6039
  958MOL0     H29281   7.588   5.534  10.914  0.8366 -0.3243  0.0864
  958MOL0     H29282   7.799   5.704  10.906 -2.6097  0.8494  0.2059
  958MOL0     H29283   7.748   5.793  11.050  1.3381  0.6789  0.5157
  958MOL0     H29284   7.988   5.611  11.043 -2.0582 -1.5197  0.8820
  958MOL0     H29285   7.995   5.779  10.982 -1.3732 -0.8025 -2.2335
  958MOL0     H29286   7.930   5.701  11.277 -0.5160 -0.2633 -0.6479
  958MOL0     H29287   7.927   5.862  11.196 -0.3253  0.3288 -0.6133
  958MOL0     H29288   8.165   5.825  11.155 -2.4935  0.3115 -0.6789
  958MOL0     H29289   8.173   5.677  11.250  2.9917  0.8628 -0.9360
  958MOL0     H29290   8.397   5.861  11.254 -0.5969  1.6955  0.3033
  958MOL0     H29291   8.601   5.835  11.404  2.0632 -1.4936  2.8375
  958MOL0     H29292   8.860   5.496  11.689  0.5818 -0.4245 -0.5552
  958MOL0     H29293   9.066   5.521  11.823  0.6617 -0.0852  0.1141
  958MOL0     H29294   9.301   5.545  11.809  1.8284 -0.2828  2.3280
  958MOL0     H29295   9.360   5.674  11.697  0.0983  0.7058  0.2709
  958MOL0     H29296   9.452   5.795  11.889 -1.6838  0.7947  1.6891
  958MOL0     H29297   9.400   5.658  11.997  2.0458  2.4422  1.9751
  958MOL0     H29298   9.560   5.508  11.864  2.6319 -0.3155 -0.4203
  958MOL0     H29299   9.590   5.652  11.763 -0.1629 -2.2446 -1.3400
  958MOL0     H29300   9.671   5.624  12.057  1.7223  1.4851  0.6266
  958MOL0     H29301   9.690   5.769  11.973  0.9514 -0.5794 -0.8319
  958MOL0     H29302   9.870   5.650  11.839 -0.5728  0.6438 -0.5110
  958MOL0     H29303   9.810   5.495  11.902 -1.3571  0.6937 -0.8872
  958MOL0     H29304   9.919   5.718  12.075  1.5939 -0.7883  0.9798
  958MOL0     H29305   9.880   5.562  12.127 -3.0289 -1.5266 -1.1894
  958MOL0     H29306  10.093   5.600  11.895  4.0491  2.1486  0.6142
  958MOL0     H29307  10.083   5.476  12.018 -0.8535  0.2925  0.5585
  958MOL0     H29308  10.271   5.668  12.038  0.5253  1.4704  0.7698
  958MOL0     H29309  10.148   5.779  12.061 -0.1807 -0.1650  1.5686
  958MOL0     H29310   9.088   5.936  11.733 -1.4793  1.6268 -0.8255
  958MOL0     H29311   8.874   5.931  11.629 -3.0875 -0.2559  2.6754
  958MOL0     H29312   8.357   5.776  11.739 -0.3309  1.5262  0.2171
  958MOL0     H29313   8.153   5.830  11.603 -0.9020  3.5244  0.1478
  958MOL0     H29314   6.590   5.388  10.856  0.7001 -2.3922  2.4570
  958MOL0     H29315   6.374   5.411  10.960  2.6354 -0.2299  1.0237
  958MOL0     H29316   5.948   5.228  10.955  2.0110  1.1633 -0.7255
  958MOL0     H29317   5.719   5.223  11.075  2.8671 -2.2549  0.1159
  958MOL0     H29318   5.704   5.437  11.380  1.6352 -1.7991 -0.9218
  958MOL0     H29319   5.636   5.292  11.343  1.5084  0.4049  0.0447
  958MOL0     H29320   5.489   5.550  11.401  2.8934  0.3894  0.5558
  958MOL0     H29321   5.495   5.402  11.507  0.6010  0.9755 -0.4309
  958MOL0     H29322   5.365   5.280  11.377  1.5320  0.5834 -0.6700
  958MOL0     H29323   5.350   5.389  11.242 -0.2995 -1.4664 -0.4485
  958MOL0     H29324   5.159   5.352  11.425 -0.5246  0.8190 -1.3137
  958MOL0     H29325   5.259   5.482  11.514  1.3113  1.1806 -1.0984
  958MOL0     H29326   5.032   5.661  11.207  1.9813  0.8312 -1.2336
  958MOL0     H29327   5.762   5.624  11.179 -1.3764 -2.5186  2.9573
  958MOL0     H29328   6.018   5.732  10.957  3.2830  0.3046  0.9656
  958MOL0     H29329   5.937   5.764  11.116  1.2128  2.0918 -0.5379
  958MOL0     H29330   6.088   5.675  11.114 -1.2616 -2.6724  0.8280
  959MOL0     O29331   3.366   0.363   4.497  0.0634  0.2302  0.5072
  959MOL0     C29332   3.366   0.323   4.383 -0.2469 -1.3538  0.8250
  959MOL0     O29333   3.476   0.308   4.299 -0.5303 -0.4747 -0.0035
  959MOL0     C29334   3.601   0.348   4.336 -0.2192  0.4237  0.3908
  959MOL0     C29335   3.697   0.306   4.247 -0.3730 -0.2079  0.6362
  959MOL0     C29336   3.838   0.320   4.277 -0.9475  0.1349 -0.4151
  959MOL0     C29337   3.877   0.374   4.401 -0.1180  0.0671  0.1570
  959MOL0     O29338   4.005   0.389   4.436  0.5150 -0.1104  0.2425
  959MOL0     C29339   4.085   0.273   4.394 -0.0711 -0.6853 -0.9364
  959MOL0     C29340   4.189   0.248   4.503 -0.2213 -0.0453  0.8812
  959MOL0     C29341   4.312   0.180   4.452 -0.1937  0.4873 -0.3566
  959MOL0     C29342   4.289   0.044   4.392 -0.4962  0.8981  0.2220
  959MOL0     C29343   4.424  -0.025   4.363 -0.6618 -0.3569 -0.2469
  959MOL0     C29344   4.404  -0.117   4.241 -0.0753  0.6015 -0.4691
  959MOL0     C29345   4.526  -0.205   4.220 -0.6940  0.7506 -0.4598
  959MOL0     C29346   4.518  -0.297   4.102  1.3601 -0.1346  0.0725
  959MOL0     N29347   4.648  -0.312   4.049  0.4839  0.0762 -0.1592
  959MOL0     C29348   4.702  -0.236   3.946  0.4248 -0.1570  0.4303
  959MOL0     C29349   4.834  -0.237   3.966 -0.2548  0.0382  0.5312
  959MOL0     C29350   4.945  -0.153   3.904  0.1759  0.9363  0.4899
  959MOL0     C29351   4.933  -0.170   3.748 -0.0916  0.0196  0.9169
  959MOL0     C29352   4.985  -0.301   3.691  0.0310  0.7764  0.1661
  959MOL0     C29353   5.134  -0.309   3.648 -0.1960  0.0288  0.3145
  959MOL0     O29354   5.172  -0.202   3.554  0.3510  1.0804 -0.0433
  959MOL0     C29355   5.307  -0.225   3.511  0.4362  0.5649  0.4687
  959MOL0     C29356   5.406  -0.284   3.589 -0.5828 -0.5622 -0.1106
  959MOL0     C29357   5.542  -0.275   3.544 -0.6426  0.5818  0.5128
  959MOL0     C29358   5.577  -0.220   3.415  0.2103  0.2062 -0.4215
  959MOL0     C29359   5.720  -0.223   3.350  0.4117  0.1183 -1.0263
  959MOL0     O29360   5.748  -0.158   3.227  0.1847 -0.5475  0.6342
  959MOL0     C29361   5.868  -0.196   3.168  0.0518 -0.7321  0.4156
  959MOL0     C29362   5.876  -0.327   3.115 -0.7774  0.0183 -0.2422
  959MOL0     C29363   5.997  -0.369   3.067 -1.0017  0.1240 -0.1772
  959MOL0     C29364   6.110  -0.287   3.059 -0.4772 -0.2478  0.4022
  959MOL0     O29365   6.238  -0.335   3.019  0.5173  0.1431 -1.0655
  959MOL0     C29366   6.256  -0.468   3.056 -0.0882 -0.0271  0.7703
  959MOL0     C29367   6.394  -0.502   3.006 -0.5234  0.1946 -0.6116
  959MOL0     C29368   6.409  -0.655   3.035 -0.3513  0.0374  0.4582
  959MOL0     C29369   6.531  -0.719   2.975 -0.2263 -0.2959 -0.3089
  959MOL0     C29370   6.659  -0.674   3.043 -1.0309  0.3336 -0.0325
  959MOL0     C29371   6.783  -0.673   2.951 -0.3600 -1.0446  0.1614
  959MOL0     C29372   6.895  -0.602   3.027  0.1512 -0.0576 -0.3865
  959MOL0     C29373   7.027  -0.638   2.969 -0.2581 -0.4088  1.2314
  959MOL0    Cl29374   7.033  -0.594   2.784 -0.1266 -0.3549 -0.0889
  959MOL0     C29375   6.101  -0.157   3.099 -0.3878  0.1794 -0.8135
  959MOL0     C29376   5.976  -0.108   3.152 -0.3351  0.2272 -0.1238
  959MOL0     O29377   5.801  -0.288   3.417  0.1096 -0.3392  0.0598
  959MOL0     C29378   5.468  -0.169   3.342 -0.4281  0.2245 -0.3203
  959MOL0     C29379   5.340  -0.172   3.382 -0.7755  0.3083  0.5546
  959MOL0     N29380   4.861  -0.325   4.064 -0.4180  0.8201 -0.8376
  959MOL0     N29381   4.752  -0.359   4.125  0.7777 -0.2411 -0.0006
  959MOL0     C29382   3.777   0.419   4.493  0.1450  0.1320 -0.5096
  959MOL0     C29383   3.644   0.412   4.459  1.1876  0.3742  0.3409
  959MOL0     C29384   3.240   0.306   4.301  0.3692 -0.6033 -0.9464
  959MOL0     C29385   3.237   0.217   4.198  0.3523  0.2402  0.0994
  959MOL0     C29386   3.121   0.188   4.130  0.2624 -0.0678 -0.0443
  959MOL0     C29387   3.013   0.268   4.148  0.2739 -0.1924  1.0496
  959MOL0     O29388   2.908   0.256   4.063  0.3718 -0.1170  0.4061
  959MOL0     C29389   2.787   0.332   4.079 -0.0706 -0.6632  0.0891
  959MOL0     C29390   2.678   0.298   3.980 -0.5730  0.1234 -0.1610
  959MOL0     C29391   2.538   0.338   4.011  0.1158  0.0742 -0.0720
  959MOL0     C29392   2.529   0.483   4.049  0.0190 -0.5862 -0.0564
  959MOL0     C29393   2.389   0.527   4.055 -0.2575 -0.6385 -0.4456
  959MOL0     C29394   2.274   0.572   4.067  0.6295 -0.9732 -0.0173
  959MOL0     C29395   3.013   0.361   4.256 -0.1754 -0.7407  0.4052
  959MOL0     C29396   3.124   0.378   4.336 -0.2985 -0.3117 -0.4017
  959MOL0     C29397   3.118   0.486   4.443  0.0922 -1.0538  0.2637
  959MOL0     H29398   3.677   0.269   4.147 -0.6131 -1.1326  1.0159
  959MOL0     H29399   3.913   0.289   4.206  3.1302 -0.0146  3.5053
  959MOL0     H29400   4.021   0.185   4.390  1.4553 -2.0971  2.1338
  959MOL0     H29401   4.138   0.292   4.299 -0.4886 -1.5595 -1.3560
  959MOL0     H29402   4.141   0.181   4.574 -1.0855 -1.2608 -0.7815
  959MOL0     H29403   4.220   0.334   4.563  1.8984 -2.0012  2.8066
  959MOL0     H29404   4.386   0.170   4.532  0.8114  2.0363 -1.0277
  959MOL0     H29405   4.366   0.242   4.380 -2.5909  3.4964  0.2572
  959MOL0     H29406   4.236  -0.029   4.454 -1.7142  2.1853  0.7207
  959MOL0     H29407   4.240   0.065   4.296  0.8147 -0.1359 -0.7276
  959MOL0     H29408   4.504   0.044   4.336  0.4897 -1.3915  0.4159
  959MOL0     H29409   4.455  -0.091   4.445 -0.3723  0.8090  0.6070
  959MOL0     H29410   4.321  -0.186   4.258 -0.9782  1.9289  0.7311
  959MOL0     H29411   4.390  -0.054   4.153  0.8191  1.1190 -0.2582
  959MOL0     H29412   4.539  -0.261   4.313 -0.6336  2.4066  0.5620
  959MOL0     H29413   4.612  -0.138   4.220 -0.6526  0.9163  3.4090
  959MOL0     H29414   4.483  -0.400   4.118 -0.2225  0.1382 -1.3840
  959MOL0     H29415   4.454  -0.252   4.026  1.4436 -1.7842 -1.0331
  959MOL0     H29416   4.650  -0.174   3.873  1.5649  0.3544  0.0285
  959MOL0     H29417   4.954  -0.045   3.921 -4.3991  1.6270 -0.0463
  959MOL0     H29418   5.040  -0.198   3.932 -0.4233 -0.5877  0.1696
  959MOL0     H29419   4.826  -0.164   3.726  0.4650  0.0175 -2.1812
  959MOL0     H29420   4.988  -0.089   3.701  2.6755 -2.7997 -1.1468
  959MOL0     H29421   4.925  -0.319   3.601 -0.8841 -0.0618  0.9115
  959MOL0     H29422   4.973  -0.379   3.766  2.8372  1.6061  1.6009
  959MOL0     H29423   5.151  -0.407   3.603 -0.4752  1.1289 -2.3470
  959MOL0     H29424   5.200  -0.283   3.732  1.8149  1.4901 -1.6035
  959MOL0     H29425   5.384  -0.327   3.686  0.5646 -1.4096 -0.2010
  959MOL0     H29426   5.617  -0.327   3.603 -1.0835 -0.6269  0.0180
  959MOL0     H29427   5.789  -0.391   3.129 -0.1722 -0.3136  2.6379
  959MOL0     H29428   5.998  -0.474   3.041  0.5327 -0.8251  3.2352
  959MOL0     H29429   6.252  -0.485   3.164  0.5373  1.6724  1.0923
  959MOL0     H29430   6.196  -0.537   2.997 -0.2336  1.3254 -0.7311
  959MOL0     H29431   6.406  -0.484   2.899 -1.1941 -0.3253 -0.7857
  959MOL0     H29432   6.460  -0.441   3.068 -3.3108  0.6046  2.1983
  959MOL0     H29433   6.423  -0.674   3.142 -0.8901  0.3408  0.5891
  959MOL0     H29434   6.325  -0.715   2.998  0.9216 -0.4828 -1.7125
  959MOL0     H29435   6.521  -0.684   2.871 -2.3570 -1.9440 -0.7230
  959MOL0     H29436   6.526  -0.828   2.983 -0.7831 -0.1422  5.2378
  959MOL0     H29437   6.667  -0.740   3.129 -0.9600 -2.2347 -1.8943
  959MOL0     H29438   6.659  -0.568   3.070 -2.5178  0.8695 -1.8693
  959MOL0     H29439   6.812  -0.772   2.916 -1.3535 -0.5243 -2.3868
  959MOL0     H29440   6.756  -0.622   2.858 -0.2782 -0.5006  0.4284
  959MOL0     H29441   6.897  -0.634   3.132  0.1692 -1.1856 -0.7166
  959MOL0     H29442   6.875  -0.495   3.020 -0.8144 -0.3433 -3.9988
  959MOL0     H29443   7.112  -0.592   3.020  1.4070 -0.4134 -1.3532
  959MOL0     H29444   7.034  -0.747   2.981  0.7790 -0.3931  0.7845
  959MOL0     H29445   6.194  -0.103   3.083  1.3758 -3.0280 -2.2540
  959MOL0     H29446   5.974  -0.006   3.188  1.3847  0.4241 -0.5383
  959MOL0     H29447   5.489  -0.107   3.255 -1.1723 -3.2698 -3.2136
  959MOL0     H29448   5.273  -0.128   3.309  1.4710  0.7255 -1.3825
  959MOL0     H29449   3.803   0.464   4.589 -0.1927  0.7065 -0.6836
  959MOL0     H29450   3.573   0.452   4.530 -0.1819  0.5700 -1.0968
  959MOL0     H29451   3.321   0.153   4.173 -0.0441 -0.4800  0.5870
  959MOL0     H29452   3.128   0.126   4.042 -2.2754  1.2123 -1.2675
  959MOL0     H29453   2.810   0.439   4.081 -0.0810 -0.5715  4.1908
  959MOL0     H29454   2.740   0.326   4.178 -1.6466  2.6844 -0.3286
  959MOL0     H29455   2.672   0.189   3.968 -0.9245 -0.3043  2.9636
  959MOL0     H29456   2.705   0.335   3.881  1.5022 -1.7892 -0.3775
  959MOL0     H29457   2.496   0.281   4.094  0.3343  2.1189  1.4931
  959MOL0     H29458   2.481   0.319   3.920  4.0552 -0.9346 -2.5920
  959MOL0     H29459   2.576   0.510   4.144  0.7276 -1.9025 -0.0123
  959MOL0     H29460   2.576   0.540   3.968 -3.6272  2.4066 -0.3244
  959MOL0     H29461   2.176   0.614   4.077  0.9927  0.1939 -1.0396
  959MOL0     H29462   2.930   0.429   4.272 -0.1180 -0.1737 -1.4720
  959MOL0     H29463   3.141   0.453   4.545  2.6521  1.9584  0.8036
  959MOL0     H29464   3.192   0.557   4.407 -0.1615 -1.3884 -0.9676
  959MOL0     H29465   3.024   0.543   4.447  0.9786  0.7179 -2.1323
  960MOL0     O29466   4.387   6.753   5.644 -0.1787 -0.0786  0.7283
  960MOL0     C29467   4.402   6.848   5.721 -0.4326 -0.4659 -0.1775
  960MOL0     O29468   4.310   6.947   5.736  0.2902  0.1462  0.7739
  960MOL0     C29469   4.180   6.923   5.689 -0.3588  0.9226 -0.6025
  960MOL0     C29470   4.112   7.040   5.648 -0.2543  0.1005 -0.2224
  960MOL0     C29471   3.974   7.030   5.611 -0.4476 -0.2100 -0.1446
  960MOL0     C29472   3.905   6.910   5.621 -0.5087  0.7697 -0.3478
  960MOL0     O29473   3.777   6.885   5.579  0.4732 -0.4390 -0.6088
  960MOL0     C29474   3.698   7.004   5.565  0.7701  0.8074  0.1340
  960MOL0     C29475   3.679   7.035   5.414  0.7265  1.1035  0.7226
  960MOL0     C29476   3.594   6.925   5.345  0.9400 -0.5580 -0.2967
  960MOL0     C29477   3.681   6.832   5.263  0.2591  0.4358  0.6675
  960MOL0     C29478   3.589   6.731   5.175  0.5181 -0.0593  0.5478
  960MOL0     C29479   3.669   6.632   5.088  0.5831  0.0889 -0.7393
  960MOL0     C29480   3.565   6.545   5.010 -0.9278  0.5085 -0.3616
  960MOL0     C29481   3.640   6.428   4.941 -0.0738  0.5467  0.0333
  960MOL0     N29482   3.722   6.480   4.825  0.1363 -0.7082  0.1382
  960MOL0     C29483   3.857   6.513   4.828  1.1672 -0.0372 -0.0777
  960MOL0     C29484   3.878   6.577   4.721 -0.1051  0.4964  0.3505
  960MOL0     C29485   3.996   6.656   4.659 -0.2774  0.6287 -0.6932
  960MOL0     C29486   4.106   6.685   4.767  1.0037  0.1259 -0.2440
  960MOL0     C29487   4.208   6.792   4.715 -0.1011  0.4500 -0.0600
  960MOL0     C29488   4.341   6.790   4.792  0.2290 -0.4092 -0.0171
  960MOL0     O29489   4.426   6.876   4.716 -1.0247 -0.1398 -0.4537
  960MOL0     C29490   4.555   6.887   4.762  0.3055  0.4604  0.0048
  960MOL0     C29491   4.642   6.983   4.702  0.5688  0.0940  1.0663
  960MOL0     C29492   4.778   6.984   4.725  0.6777 -0.1462 -0.3386
  960MOL0     C29493   4.842   6.892   4.815  0.0390  0.2942 -0.0983
  960MOL0     C29494   4.981   6.919   4.856  0.4017  0.3240 -0.3168
  960MOL0     O29495   5.055   7.027   4.806  0.2372 -0.2603 -0.5459
  960MOL0     C29496   5.196   7.032   4.808  0.0829  0.3921  0.2029
  960MOL0     C29497   5.253   7.156   4.786 -0.0624 -0.1352  0.1235
  960MOL0     C29498   5.394   7.170   4.791  1.2017  0.0071  0.7164
  960MOL0     C29499   5.476   7.060   4.820 -1.2061  0.1276  0.0215
  960MOL0     O29500   5.611   7.071   4.832  0.0415  0.2091 -0.3282
  960MOL0     C29501   5.679   7.199   4.826  0.3020 -0.8011 -0.7402
  960MOL0     C29502   5.676   7.269   4.962  0.9950 -0.6972 -0.0522
  960MOL0     C29503   5.723   7.177   5.073  0.1319 -0.5252  0.9030
  960MOL0     C29504   5.763   7.239   5.210 -1.0922  0.7119 -1.3149
  960MOL0     C29505   5.811   7.129   5.313  0.1111 -0.0910  0.5861
  960MOL0     C29506   5.949   7.078   5.267 -0.0233  0.0954  0.1902
  960MOL0     C29507   6.022   7.027   5.384  0.7159  0.7392  0.7163
  960MOL0     C29508   6.156   6.962   5.345  0.0020  0.9991  0.4704
  960MOL0    Cl29509   6.263   7.082   5.259 -0.4210  0.3528  0.7113
  960MOL0     C29510   5.425   6.936   4.829  0.2678 -0.1997 -0.0435
  960MOL0     C29511   5.282   6.927   4.824 -0.4023  0.0390 -0.2174
  960MOL0     O29512   5.006   6.857   4.957  0.3882  0.1060  0.0855
  960MOL0     C29513   4.755   6.799   4.878  0.9206 -0.5522 -0.5970
  960MOL0     C29514   4.613   6.800   4.856 -0.5810 -1.0500 -0.0280
  960MOL0     N29515   3.760   6.576   4.641  0.7439  0.0973 -0.2765
  960MOL0     N29516   3.663   6.523   4.707 -0.5498 -0.1074 -0.1766
  960MOL0     C29517   3.968   6.807   5.680  0.2162 -0.2428  0.7149
  960MOL0     C29518   4.105   6.803   5.712 -0.0870 -0.4039 -0.3817
  960MOL0     C29519   4.536   6.880   5.775  0.3617 -0.5760  0.7591
  960MOL0     C29520   4.552   7.014   5.814 -0.3742 -0.0330  0.6148
  960MOL0     C29521   4.673   7.059   5.866  0.3987  0.1561  0.1547
  960MOL0     C29522   4.779   6.979   5.875  0.0868  0.0151 -1.4727
  960MOL0     O29523   4.905   7.016   5.922 -0.1878 -0.4993  0.1073
  960MOL0     C29524   4.906   7.141   6.000  0.2107 -0.1373 -0.9251
  960MOL0     C29525   5.056   7.164   6.024 -0.7858  0.4583 -0.2497
  960MOL0     C29526   5.120   7.070   6.128 -0.2131  0.3853  0.8688
  960MOL0     C29527   5.261   7.114   6.170  0.3571 -0.6010  0.3923
  960MOL0     C29528   5.353   7.159   6.061 -1.0048 -0.1866 -0.2241
  960MOL0     C29529   5.422   7.217   5.981 -0.4049  0.1640 -0.8002
  960MOL0     C29530   4.773   6.848   5.831 -0.4234 -0.3445 -0.2158
  960MOL0     C29531   4.646   6.790   5.779 -0.8575 -1.1765 -0.1768
  960MOL0     C29532   4.631   6.648   5.748  0.0772 -0.5552 -0.6327
  960MOL0     H29533   4.155   7.139   5.636 -1.8104  0.7563 -0.4785
  960MOL0     H29534   3.928   7.120   5.570  0.9241  0.9916  0.8642
  960MOL0     H29535   3.597   6.987   5.604  1.0433  1.1865  1.0299
  960MOL0     H29536   3.733   7.084   5.631  3.1372 -2.0563  2.6412
  960MOL0     H29537   3.778   7.028   5.367 -0.8370 -2.6835 -2.5503
  960MOL0     H29538   3.634   7.134   5.401  0.9843  1.0980 -0.3306
  960MOL0     H29539   3.514   6.958   5.278  0.6180  1.0460  0.8292
  960MOL0     H29540   3.547   6.870   5.427  0.2041  0.3079 -0.1268
  960MOL0     H29541   3.742   6.894   5.197 -0.0848  1.1431  0.9956
  960MOL0     H29542   3.756   6.781   5.324  1.0852  2.2666  1.2621
  960MOL0     H29543   3.520   6.677   5.241  0.1349  1.5805  1.5352
  960MOL0     H29544   3.538   6.799   5.106  0.5488  1.3260  1.8427
  960MOL0     H29545   3.738   6.689   5.026  3.8821 -0.0030  2.5587
  960MOL0     H29546   3.726   6.568   5.156  0.0694 -1.3794 -1.6155
  960MOL0     H29547   3.508   6.609   4.942 -3.6427  1.2487  2.4292
  960MOL0     H29548   3.507   6.498   5.090  0.2758 -0.7623 -0.1814
  960MOL0     H29549   3.700   6.370   5.012 -1.3124  0.9681  1.4859
  960MOL0     H29550   3.569   6.370   4.882  0.4741  0.4436 -0.5371
  960MOL0     H29551   3.920   6.506   4.916  1.8161  2.4149 -0.2788
  960MOL0     H29552   4.051   6.599   4.583  1.5897  2.7016 -0.9947
  960MOL0     H29553   3.974   6.754   4.615 -0.1363  0.1799 -1.8074
  960MOL0     H29554   4.052   6.727   4.852 -1.1953 -0.3177 -1.3469
  960MOL0     H29555   4.166   6.600   4.800  2.7230  2.4830  3.2762
  960MOL0     H29556   4.164   6.892   4.726  0.9844  0.9343  0.0006
  960MOL0     H29557   4.231   6.777   4.610  2.1818 -1.6816  0.6402
  960MOL0     H29558   4.388   6.691   4.794  1.3093  0.0816 -0.2452
  960MOL0     H29559   4.322   6.833   4.891  4.1709 -0.0869  0.7575
  960MOL0     H29560   4.612   7.061   4.633  2.2316 -0.1023  0.0695
  960MOL0     H29561   4.834   7.065   4.679  0.2159 -0.0864 -0.8111
  960MOL0     H29562   5.189   7.241   4.764 -2.4656 -0.8733  3.4634
  960MOL0     H29563   5.428   7.273   4.797 -0.9502  0.9488 -1.2269
  960MOL0     H29564   5.783   7.172   4.805  0.8733 -0.0048  0.9767
  960MOL0     H29565   5.639   7.253   4.739 -2.5101 -0.0859  0.8847
  960MOL0     H29566   5.728   7.365   4.947  0.3404 -0.2600  0.4522
  960MOL0     H29567   5.575   7.300   4.989  2.3421  3.2534  1.1796
  960MOL0     H29568   5.650   7.098   5.093 -0.1662 -1.6757 -3.5774
  960MOL0     H29569   5.813   7.125   5.038 -0.5095 -0.2962 -1.2287
  960MOL0     H29570   5.671   7.284   5.250 -1.9108 -0.0822 -2.2566
  960MOL0     H29571   5.837   7.320   5.200  0.6980 -0.5817  0.6816
  960MOL0     H29572   5.734   7.051   5.311 -0.1939  0.2101  0.4024
  960MOL0     H29573   5.818   7.166   5.416  3.1647  0.4870  0.2565
  960MOL0     H29574   5.941   7.002   5.189 -0.8723 -0.1658  0.5111
  960MOL0     H29575   6.003   7.163   5.226 -1.9168  1.7869  0.9838
  960MOL0     H29576   5.953   6.967   5.444 -2.8565  4.0040  0.2646
  960MOL0     H29577   6.051   7.113   5.444  0.6439  2.0472 -1.0626
  960MOL0     H29578   6.202   6.916   5.433 -1.6889 -1.5408  0.1028
  960MOL0     H29579   6.133   6.874   5.285 -0.6015 -1.3571  3.8988
  960MOL0     H29580   5.486   6.847   4.841  0.8121  0.4977  3.8213
  960MOL0     H29581   5.234   6.831   4.835 -3.3621  1.6081  1.6094
  960MOL0     H29582   4.793   6.737   4.959  1.2063 -0.2606 -0.5069
  960MOL0     H29583   4.564   6.726   4.918  0.0389 -2.2047 -0.8769
  960MOL0     H29584   3.920   6.710   5.676  0.3857 -0.3010 -1.4677
  960MOL0     H29585   4.148   6.708   5.745  0.3757  1.3389  5.0022
  960MOL0     H29586   4.479   7.093   5.807  0.1006  0.2559 -2.8246
  960MOL0     H29587   4.685   7.166   5.879  0.2800  0.2079 -0.1544
  960MOL0     H29588   4.856   7.123   6.096  0.5651 -2.2774 -1.1013
  960MOL0     H29589   4.847   7.224   5.960 -0.5635 -0.6215 -0.8170
  960MOL0     H29590   5.077   7.259   6.074 -0.9518  0.4073 -0.0845
  960MOL0     H29591   5.108   7.172   5.928  0.9566  0.9742  0.6886
  960MOL0     H29592   5.131   6.979   6.067 -2.0944  1.1667 -0.7648
  960MOL0     H29593   5.058   7.054   6.216 -0.1269  0.5419  0.9580
  960MOL0     H29594   5.243   7.199   6.236 -2.6423 -0.2115 -0.7821
  960MOL0     H29595   5.304   7.029   6.224  3.0649 -0.1897 -0.9350
  960MOL0     H29596   5.487   7.260   5.907  0.3101  2.8429  1.2380
  960MOL0     H29597   4.861   6.785   5.824 -0.3696 -0.1255 -2.5797
  960MOL0     H29598   4.725   6.605   5.783  2.0972  2.2826 -2.2026
  960MOL0     H29599   4.544   6.608   5.800  1.8500 -2.1778  1.2611
  960MOL0     H29600   4.611   6.631   5.642  0.2448  0.1169 -0.7767
  961MOL0     O29601   2.550   9.324   6.440 -0.4989 -0.0492  0.5623
  961MOL0     C29602   2.560   9.434   6.496  0.3046  1.5379 -0.0204
  961MOL0     O29603   2.673   9.506   6.515 -0.6142 -0.0523 -0.4648
  961MOL0     C29604   2.798   9.452   6.505  0.6107  0.3371 -0.2752
  961MOL0     C29605   2.853   9.372   6.401 -0.8812  0.6874  0.2039
  961MOL0     C29606   2.979   9.313   6.416 -0.2616  0.6371 -0.0984
  961MOL0     C29607   3.060   9.349   6.523  0.1424 -1.1575  0.4245
  961MOL0     O29608   3.186   9.301   6.523 -0.1490  0.4922  0.0956
  961MOL0     C29609   3.285   9.396   6.513 -0.1415  0.6011  1.5353
  961MOL0     C29610   3.401   9.322   6.438 -0.2082 -0.3267  0.7654
  961MOL0     C29611   3.531   9.400   6.422  1.2296 -0.2764 -0.2057
  961MOL0     C29612   3.644   9.315   6.349 -0.4018 -0.2356  0.0461
  961MOL0     C29613   3.775   9.397   6.339  1.0045 -0.6035 -1.0365
  961MOL0     C29614   3.882   9.314   6.277  0.1064  0.3699  0.2140
  961MOL0     C29615   4.015   9.398   6.261 -0.2047 -0.4828 -0.4471
  961MOL0     C29616   4.004   9.523   6.183 -0.2200  0.3163 -0.0706
  961MOL0     N29617   3.940   9.498   6.047  0.1423 -0.6412  0.7916
  961MOL0     C29618   3.982   9.416   5.941 -0.1724  0.0836 -0.0598
  961MOL0     C29619   3.905   9.445   5.840 -0.5319 -0.1654 -0.1253
  961MOL0     C29620   3.912   9.380   5.705 -0.7803 -0.5452  0.3317
  961MOL0     C29621   4.052   9.400   5.644  0.5018 -0.2303  0.1315
  961MOL0     C29622   4.059   9.323   5.512  0.2230 -0.6501  0.1107
  961MOL0     C29623   4.185   9.373   5.439  0.9694 -0.3123  0.9336
  961MOL0     O29624   4.295   9.314   5.506 -0.5631 -0.4593  0.1325
  961MOL0     C29625   4.411   9.297   5.439  0.1276  0.3219 -0.0173
  961MOL0     C29626   4.497   9.217   5.514  0.2909 -0.8344 -0.2888
  961MOL0     C29627   4.599   9.151   5.449 -0.6335  0.4351  0.3573
  961MOL0     C29628   4.616   9.174   5.316 -0.5325 -1.0986  0.4748
  961MOL0     C29629   4.713   9.092   5.240 -0.1931 -0.3485  0.8702
  961MOL0     O29630   4.813   9.036   5.314 -0.2216  0.3014 -0.9484
  961MOL0     C29631   4.905   8.942   5.267 -0.3835 -1.1512  0.4614
  961MOL0     C29632   4.979   8.875   5.358  0.1059  0.2130 -0.0333
  961MOL0     C29633   5.080   8.785   5.324 -0.9753  0.6879 -0.1492
  961MOL0     C29634   5.106   8.764   5.183 -0.2467  0.8366 -0.1343
  961MOL0     O29635   5.194   8.675   5.130 -0.3708 -0.5190 -0.0610
  961MOL0     C29636   5.283   8.618   5.217 -0.3354 -0.3091 -0.0208
  961MOL0     C29637   5.388   8.559   5.133 -0.2647  0.3756 -0.3425
  961MOL0     C29638   5.487   8.471   5.217  0.4500 -0.5681 -0.0877
  961MOL0     C29639   5.606   8.413   5.137  1.1078 -0.3792 -0.7753
  961MOL0     C29640   5.685   8.321   5.217  1.2016  0.7336 -0.4319
  961MOL0     C29641   5.799   8.256   5.144  0.3557  0.3461 -1.1571
  961MOL0     C29642   5.917   8.221   5.245  0.5877 -0.9957 -0.1923
  961MOL0     C29643   6.044   8.177   5.166  0.8578 -0.5970 -0.2124
  961MOL0    Cl29644   6.177   8.110   5.271  0.1081 -0.0517  0.2073
  961MOL0     C29645   5.035   8.835   5.091 -0.2347 -0.0882 -0.8173
  961MOL0     C29646   4.934   8.919   5.133 -0.4191  0.5958  0.3462
  961MOL0     O29647   4.696   9.074   5.121  0.7591 -0.8386 -0.0307
  961MOL0     C29648   4.539   9.273   5.242 -0.1393  0.0540 -0.7443
  961MOL0     C29649   4.428   9.331   5.302 -0.2427  0.3369 -0.4805
  961MOL0     N29650   3.819   9.550   5.874 -0.0279  0.5502 -0.1362
  961MOL0     N29651   3.836   9.573   5.998  0.0465  0.4645  0.6848
  961MOL0     C29652   3.014   9.445   6.614 -0.4668 -0.7884 -0.6694
  961MOL0     C29653   2.885   9.494   6.605  0.1686  0.2277 -0.4408
  961MOL0     C29654   2.425   9.503   6.519 -0.8212  0.3232  0.0533
  961MOL0     C29655   2.436   9.639   6.543  0.1167 -0.4728  0.2582
  961MOL0     C29656   2.325   9.714   6.561  0.3982 -0.1922 -0.3429
  961MOL0     C29657   2.195   9.660   6.549  0.2721 -0.8903  0.7376
  961MOL0     O29658   2.086   9.745   6.568 -0.4356  0.2872  0.2451
  961MOL0     C29659   1.954   9.700   6.607 -0.2855  0.3707 -0.6069
  961MOL0     C29660   1.967   9.678   6.760  0.4404 -0.4815  0.2101
  961MOL0     C29661   2.003   9.808   6.838  1.1893  0.8526 -0.3591
  961MOL0     C29662   2.030   9.770   6.983  0.2474 -0.0730  0.2729
  961MOL0     C29663   2.056   9.885   7.071  0.6031  0.3706  0.4311
  961MOL0     C29664   2.097   9.961   7.157  0.5875 -0.2734  0.7194
  961MOL0     C29665   2.185   9.521   6.522 -0.1475  0.3149 -0.0053
  961MOL0     C29666   2.298   9.445   6.515 -0.0492  0.1529  0.0172
  961MOL0     C29667   2.270   9.293   6.497  0.3474  0.5156  0.1981
  961MOL0     H29668   2.783   9.343   6.323  0.3144 -3.9320  0.5921
  961MOL0     H29669   3.021   9.244   6.344 -0.6048  2.3603 -2.0762
  961MOL0     H29670   3.253   9.479   6.450  1.8352  0.4956  0.3019
  961MOL0     H29671   3.322   9.429   6.611 -2.8145 -3.6285  4.3161
  961MOL0     H29672   3.349   9.314   6.342  0.0319  3.5420  0.1426
  961MOL0     H29673   3.429   9.220   6.463  1.9440  0.8049  3.4696
  961MOL0     H29674   3.566   9.420   6.524 -0.3870 -1.0492  0.5496
  961MOL0     H29675   3.496   9.491   6.372 -1.4310 -0.9053  0.3602
  961MOL0     H29676   3.666   9.223   6.404 -3.4632 -2.3348 -1.9322
  961MOL0     H29677   3.612   9.277   6.252  2.9463  2.1538 -2.1812
  961MOL0     H29678   3.747   9.485   6.281 -0.4118 -0.9485 -0.9314
  961MOL0     H29679   3.809   9.434   6.437 -1.5578  1.1875 -0.7366
  961MOL0     H29680   3.899   9.227   6.342  2.6439 -1.4033 -2.5834
  961MOL0     H29681   3.846   9.277   6.181 -2.0993  1.6527  0.4811
  961MOL0     H29682   4.092   9.329   6.225 -1.1222 -1.6261 -0.2751
  961MOL0     H29683   4.051   9.432   6.358 -1.3474  0.4298 -0.3211
  961MOL0     H29684   3.955   9.603   6.239 -1.5461 -0.0533 -0.6538
  961MOL0     H29685   4.108   9.553   6.170  1.1260 -2.8922  1.9541
  961MOL0     H29686   4.056   9.336   5.944 -0.1004  0.1798  1.1573
  961MOL0     H29687   3.897   9.275   5.730  0.6976 -1.3729 -1.9128
  961MOL0     H29688   3.828   9.406   5.640  0.6771  1.1625 -0.9631
  961MOL0     H29689   4.058   9.504   5.609  1.1529 -0.7375 -1.3356
  961MOL0     H29690   4.137   9.377   5.709  0.8160  1.5539  0.4130
  961MOL0     H29691   3.966   9.340   5.458 -1.2071 -1.2927  2.2282
  961MOL0     H29692   4.064   9.214   5.528 -0.0519 -0.5487  0.9268
  961MOL0     H29693   4.201   9.481   5.438  1.2073 -0.0427 -5.1668
  961MOL0     H29694   4.174   9.346   5.333  2.4239  0.3809  0.5849
  961MOL0     H29695   4.477   9.210   5.621  0.4269 -2.7645 -0.3472
  961MOL0     H29696   4.656   9.074   5.499 -1.4374 -0.3426  0.0947
  961MOL0     H29697   4.965   8.894   5.464 -0.4038 -1.9269  0.3285
  961MOL0     H29698   5.134   8.734   5.403 -0.6733  0.6570 -0.3744
  961MOL0     H29699   5.332   8.688   5.285  1.4647 -0.6844 -0.8611
  961MOL0     H29700   5.222   8.546   5.273  0.8033  0.4061  2.2344
  961MOL0     H29701   5.327   8.491   5.072 -1.2086 -0.2208  1.2127
  961MOL0     H29702   5.448   8.633   5.080  1.3306  1.2695  2.5049
  961MOL0     H29703   5.512   8.537   5.301 -1.8911  2.2064 -1.3751
  961MOL0     H29704   5.421   8.390   5.248  0.5912 -2.2844 -3.7669
  961MOL0     H29705   5.666   8.498   5.106  2.0753 -1.0167 -0.6841
  961MOL0     H29706   5.566   8.364   5.048 -0.5162 -0.3676 -0.0991
  961MOL0     H29707   5.626   8.245   5.269  0.0465  1.1985 -1.0293
  961MOL0     H29708   5.722   8.391   5.293  0.8459 -0.0156  0.4626
  961MOL0     H29709   5.775   8.172   5.079 -0.5033 -0.9224  0.7367
  961MOL0     H29710   5.826   8.337   5.075  0.7959  0.6025 -0.6907
  961MOL0     H29711   5.893   8.138   5.313  0.8378  0.2389  1.4558
  961MOL0     H29712   5.939   8.303   5.314 -0.9120  0.0445 -0.9153
  961MOL0     H29713   6.016   8.104   5.090 -4.9242  1.9436 -1.0190
  961MOL0     H29714   6.078   8.262   5.107 -2.9849  1.5996  0.3842
  961MOL0     H29715   5.072   8.850   4.990  0.7095  1.1188 -0.3253
  961MOL0     H29716   4.888   8.976   5.053 -2.0492  0.3378  1.0582
  961MOL0     H29717   4.565   9.279   5.137  0.1802  0.2383 -0.6563
  961MOL0     H29718   4.364   9.387   5.235  0.0410  0.5696 -0.5575
  961MOL0     H29719   3.080   9.468   6.697 -1.7141 -0.0370  0.1487
  961MOL0     H29720   2.838   9.561   6.676 -1.9662 -0.8066 -0.7732
  961MOL0     H29721   2.530   9.693   6.538  0.2340 -0.8332 -2.5844
  961MOL0     H29722   2.332   9.821   6.575  0.1945 -0.4735  2.6233
  961MOL0     H29723   1.920   9.609   6.558  3.9533 -1.2269 -0.9753
  961MOL0     H29724   1.882   9.777   6.576 -1.5292 -0.2515  0.6056
  961MOL0     H29725   2.047   9.608   6.786 -1.7469 -3.1096  0.3675
  961MOL0     H29726   1.869   9.645   6.797  1.1636 -0.5392  2.1596
  961MOL0     H29727   1.914   9.870   6.827  1.3371  1.7639  2.7864
  961MOL0     H29728   2.091   9.861   6.801  1.6753  1.6577  1.8378
  961MOL0     H29729   1.948   9.705   7.016  0.1417 -0.8381 -1.4266
  961MOL0     H29730   2.121   9.710   6.989  0.0973 -0.2247  1.1426
  961MOL0     H29731   2.153  10.007   7.236  3.3648  0.2163 -1.3951
  961MOL0     H29732   2.084   9.480   6.518 -0.2598  0.4752  1.0187
  961MOL0     H29733   2.275   9.253   6.395  2.0457 -1.7804  1.0923
  961MOL0     H29734   2.331   9.233   6.565  0.5334 -0.5314 -0.8475
  961MOL0     H29735   2.166   9.268   6.521 -0.7425  3.0819 -1.4332
  962MOL0     O29736   1.659   1.120   6.051 -0.4991  0.5973 -0.7268
  962MOL0     C29737   1.628   1.181   6.151  0.6532 -0.7337  0.9528
  962MOL0     O29738   1.701   1.196   6.263 -0.1850  0.6061  0.6705
  962MOL0     C29739   1.817   1.131   6.282 -0.0074 -0.5899  0.2251
  962MOL0     C29740   1.820   1.027   6.375  0.0623  0.7961  0.5226
  962MOL0     C29741   1.927   0.938   6.391  0.3874 -0.1126 -0.0243
  962MOL0     C29742   2.045   0.964   6.306 -0.0253  0.8945  0.4461
  962MOL0     O29743   2.149   0.870   6.307  0.2651  0.3151 -0.2527
  962MOL0     C29744   2.279   0.925   6.272  0.6032 -0.0241 -0.4154
  962MOL0     C29745   2.382   0.822   6.290 -0.1778  0.1688  0.0979
  962MOL0     C29746   2.403   0.774   6.441 -0.5520 -1.1392  0.0321
  962MOL0     C29747   2.529   0.674   6.458 -0.2632 -0.9561  0.1969
  962MOL0     C29748   2.546   0.641   6.602 -0.0232  0.3067  0.0775
  962MOL0     C29749   2.665   0.546   6.614 -0.4542  0.4025  0.6231
  962MOL0     C29750   2.702   0.513   6.758  0.3321 -0.4492  1.0057
  962MOL0     C29751   2.820   0.415   6.763  0.0935  0.1964 -0.3760
  962MOL0     N29752   2.942   0.495   6.730  0.0433  1.0977  1.3745
  962MOL0     C29753   3.016   0.491   6.614 -0.8156 -0.7814 -0.4723
  962MOL0     C29754   3.125   0.562   6.642 -0.2471  1.0990 -0.6678
  962MOL0     C29755   3.233   0.586   6.541 -0.9718 -0.0509  0.6950
  962MOL0     C29756   3.369   0.617   6.607 -0.6107  0.1383  0.2307
  962MOL0     C29757   3.428   0.495   6.685 -0.3672  0.0693 -0.2973
  962MOL0     C29758   3.559   0.526   6.742 -0.1520  0.1997  0.2630
  962MOL0     O29759   3.643   0.540   6.623 -0.0565  0.5265 -0.0979
  962MOL0     C29760   3.779   0.539   6.639 -0.5955 -0.4577  0.0279
  962MOL0     C29761   3.857   0.560   6.754  0.3447 -0.6880  0.5672
  962MOL0     C29762   3.998   0.556   6.749  0.4997  0.7082  0.0984
  962MOL0     C29763   4.064   0.516   6.631  0.0515 -0.6089  0.2403
  962MOL0     C29764   4.206   0.505   6.621  0.4303  0.5640 -0.2145
  962MOL0     O29765   4.279   0.489   6.735  0.5341 -0.0256 -0.1034
  962MOL0     C29766   4.413   0.459   6.731 -0.5644  0.0914  0.5458
  962MOL0     C29767   4.476   0.361   6.649 -0.0906  0.6917 -0.0381
  962MOL0     C29768   4.616   0.335   6.652  0.6458 -0.4844  0.0595
  962MOL0     C29769   4.695   0.414   6.738  1.1661 -0.8971  0.7392
  962MOL0     O29770   4.831   0.407   6.750 -0.4444 -0.3166 -0.1254
  962MOL0     C29771   4.919   0.374   6.639 -0.5370  0.5695  0.2315
  962MOL0     C29772   5.064   0.335   6.674  0.7515  0.4251 -0.2894
  962MOL0     C29773   5.156   0.449   6.720  0.0720  0.4370 -0.8094
  962MOL0     C29774   5.296   0.396   6.728  0.2033 -0.0647  0.4643
  962MOL0     C29775   5.402   0.474   6.792  0.1197  0.0723 -0.8056
  962MOL0     C29776   5.529   0.379   6.777 -0.5895  0.3563  0.5231
  962MOL0     C29777   5.658   0.439   6.838 -0.0474  0.8421  0.5591
  962MOL0     C29778   5.774   0.334   6.808  0.0114  0.6254  0.7168
  962MOL0    Cl29779   5.894   0.383   6.928  0.1691 -0.1269  0.2709
  962MOL0     C29780   4.637   0.503   6.826 -0.3316  0.3169  0.6407
  962MOL0     C29781   4.500   0.527   6.820 -0.0526  0.6340 -0.3506
  962MOL0     O29782   4.255   0.516   6.511 -0.9154  0.0297 -0.2972
  962MOL0     C29783   3.984   0.481   6.521 -0.3279  0.5163 -0.1531
  962MOL0     C29784   3.844   0.493   6.522 -0.3907  0.0752 -0.3772
  962MOL0     N29785   3.122   0.615   6.765  0.0871 -0.3525 -0.2366
  962MOL0     N29786   3.015   0.574   6.817  0.5281  0.0459 -0.1159
  962MOL0     C29787   2.044   1.083   6.216 -0.1872  0.6134 -0.1962
  962MOL0     C29788   1.927   1.155   6.196 -0.8028 -0.3218  0.4116
  962MOL0     C29789   1.506   1.268   6.150 -0.3988 -0.8331 -0.5390
  962MOL0     C29790   1.431   1.291   6.268  0.0068  0.0508 -0.0966
  962MOL0     C29791   1.315   1.375   6.268 -0.2067  0.1842 -0.1329
  962MOL0     C29792   1.258   1.409   6.147  0.1634  0.5792 -0.6283
  962MOL0     O29793   1.141   1.481   6.134 -0.0459  0.1834 -0.1312
  962MOL0     C29794   1.068   1.510   6.253 -0.0940 -0.6345  1.0124
  962MOL0     C29795   0.951   1.602   6.223 -0.3297  0.5203 -0.2173
  962MOL0     C29796   1.003   1.731   6.159  0.6320 -0.2640  0.5550
  962MOL0     C29797   0.909   1.797   6.049 -0.5243  0.4220 -0.5078
  962MOL0     C29798   0.991   1.892   5.971  0.5085 -0.5287  1.0003
  962MOL0     C29799   1.065   1.969   5.906  0.3353  0.5341  0.0783
  962MOL0     C29800   1.327   1.386   6.033 -0.4089  0.5022  0.1973
  962MOL0     C29801   1.453   1.323   6.033 -0.2710 -0.0722 -0.4987
  962MOL0     C29802   1.514   1.309   5.889  0.4406  0.1503 -0.3834
  962MOL0     H29803   1.727   1.006   6.427 -1.0658 -1.1112 -2.0295
  962MOL0     H29804   1.929   0.855   6.461 -2.0796 -0.9508 -0.8563
  962MOL0     H29805   2.275   0.968   6.172 -0.0233 -1.2431 -0.9209
  962MOL0     H29806   2.319   1.002   6.339  2.2507 -1.4240  0.2826
  962MOL0     H29807   2.481   0.861   6.263  1.2780 -0.8737  3.3598
  962MOL0     H29808   2.369   0.732   6.228  1.8282  0.8974 -1.5129
  962MOL0     H29809   2.314   0.723   6.481 -1.5091 -0.1856 -0.8065
  962MOL0     H29810   2.412   0.866   6.500 -0.4284 -0.2081 -1.3810
  962MOL0     H29811   2.509   0.592   6.388 -3.4608  0.1205 -0.3083
  962MOL0     H29812   2.624   0.715   6.424 -0.3439 -1.4235 -0.6219
  962MOL0     H29813   2.579   0.726   6.662  0.5379 -0.1076  0.3749
  962MOL0     H29814   2.454   0.595   6.640  0.0086 -0.0678 -0.2861
  962MOL0     H29815   2.651   0.450   6.563 -0.8839  1.6743 -1.8458
  962MOL0     H29816   2.755   0.592   6.573  0.2021 -1.4397 -0.1145
  962MOL0     H29817   2.607   0.479   6.800  0.5495 -1.6100  0.6070
  962MOL0     H29818   2.723   0.608   6.807  3.6474  0.2143 -1.4052
  962MOL0     H29819   2.839   0.377   6.864 -3.4131 -1.9637 -0.3817
  962MOL0     H29820   2.801   0.326   6.704  2.2694 -0.7694  0.2558
  962MOL0     H29821   2.999   0.438   6.520 -0.1012 -1.7532 -0.0735
  962MOL0     H29822   3.258   0.510   6.466  3.0615  1.6956  0.0223
  962MOL0     H29823   3.205   0.677   6.487 -1.0407  0.9392  2.3464
  962MOL0     H29824   3.432   0.637   6.520 -4.0001  1.1976 -2.1459
  962MOL0     H29825   3.355   0.711   6.661  0.1067  0.5243 -0.2369
  962MOL0     H29826   3.437   0.403   6.626  1.2676  1.2156 -1.9654
  962MOL0     H29827   3.364   0.474   6.772  2.9235 -3.1656  1.6304
  962MOL0     H29828   3.595   0.440   6.800 -0.1179 -0.1793 -0.3072
  962MOL0     H29829   3.565   0.612   6.809 -2.8100  2.7406 -2.5124
  962MOL0     H29830   3.811   0.590   6.847  1.6409  1.0354  0.7171
  962MOL0     H29831   4.062   0.557   6.836  0.4212  0.0993  0.1667
  962MOL0     H29832   4.414   0.298   6.586 -3.1440  1.6498  1.8365
  962MOL0     H29833   4.650   0.251   6.593 -2.3389 -2.2102  0.5965
  962MOL0     H29834   4.877   0.283   6.595  3.6585 -0.7908 -1.5202
  962MOL0     H29835   4.918   0.457   6.568  0.1390  0.1660 -0.2645
  962MOL0     H29836   5.059   0.251   6.744 -0.3344 -0.4647 -1.3928
  962MOL0     H29837   5.103   0.295   6.581  2.8612  3.1165 -0.6810
  962MOL0     H29838   5.148   0.531   6.649  0.6148  0.2437 -1.0969
  962MOL0     H29839   5.116   0.488   6.814 -1.7024 -0.0943 -1.2971
  962MOL0     H29840   5.334   0.383   6.626 -1.8291  3.1992 -0.8854
  962MOL0     H29841   5.296   0.294   6.768  1.2832  0.3205  1.4667
  962MOL0     H29842   5.377   0.494   6.896 -0.3513 -0.7757 -0.7486
  962MOL0     H29843   5.414   0.573   6.747 -0.4830  1.3379  1.6396
  962MOL0     H29844   5.504   0.281   6.820 -3.0199  1.0086  0.7586
  962MOL0     H29845   5.552   0.364   6.671 -0.6367 -0.2975  0.5970
  962MOL0     H29846   5.627   0.451   6.942 -1.1249 -4.3128  1.1131
  962MOL0     H29847   5.694   0.536   6.802  1.2851  0.9895  2.1663
  962MOL0     H29848   5.747   0.229   6.826  2.7951  0.1792  3.0689
  962MOL0     H29849   5.798   0.341   6.702 -0.7980 -0.6954  0.4124
  962MOL0     H29850   4.700   0.544   6.905  2.2614  0.7671 -1.5006
  962MOL0     H29851   4.464   0.603   6.889  2.7590  1.4209  0.3953
  962MOL0     H29852   4.032   0.444   6.431  0.4645 -2.0128  1.2093
  962MOL0     H29853   3.796   0.459   6.431 -0.7088 -2.2378  0.5876
  962MOL0     H29854   2.124   1.092   6.144 -1.4597  2.5089 -1.4547
  962MOL0     H29855   1.918   1.228   6.116  2.0739  0.7930  0.9796
  962MOL0     H29856   1.456   1.238   6.360 -0.2662 -1.0320 -0.6258
  962MOL0     H29857   1.270   1.377   6.367  2.6008 -0.0359  1.2495
  962MOL0     H29858   1.129   1.574   6.317 -1.8001  2.1883  0.0338
  962MOL0     H29859   1.026   1.433   6.318  0.3950  0.4534  2.6804
  962MOL0     H29860   0.893   1.623   6.313 -1.4997 -3.1148  0.0373
  962MOL0     H29861   0.876   1.550   6.162 -0.2146  1.1834 -0.9410
  962MOL0     H29862   1.102   1.717   6.112  0.1001 -1.2500 -0.3225
  962MOL0     H29863   1.011   1.811   6.233 -1.0502  0.4250  0.0312
  962MOL0     H29864   0.874   1.719   5.982  0.0816 -0.3031  0.0031
  962MOL0     H29865   0.825   1.848   6.097  0.4977 -2.4725  5.1510
  962MOL0     H29866   1.112   2.053   5.859  3.1620 -0.6321  0.6261
  962MOL0     H29867   1.293   1.400   5.930  2.6333 -1.2156 -1.1608
  962MOL0     H29868   1.460   1.379   5.825 -2.3147 -0.4596  1.1336
  962MOL0     H29869   1.623   1.314   5.896  0.3489 -0.1572  2.3292
  962MOL0     H29870   1.471   1.212   5.861 -0.3872  0.0414  1.1738
  963MOL0     O29871   2.201   0.182   9.473 -0.5016  0.3108 -0.0185
  963MOL0     C29872   2.135   0.077   9.468 -0.1883  0.0913  0.8203
  963MOL0     O29873   2.184  -0.038   9.411 -0.0804  0.8265  0.0423
  963MOL0     C29874   2.320  -0.038   9.389  0.8665  0.2932 -0.5960
  963MOL0     C29875   2.367  -0.030   9.262 -0.3221  0.5316  0.7404
  963MOL0     C29876   2.504  -0.023   9.236 -0.9123 -1.0792  0.3270
  963MOL0     C29877   2.594  -0.034   9.341 -0.6013 -0.2679  0.6837
  963MOL0     O29878   2.730  -0.013   9.304  0.7708 -0.8842  0.4479
  963MOL0     C29879   2.827   0.016   9.396  0.2549  0.8914 -0.0238
  963MOL0     C29880   2.952   0.047   9.327 -0.1570  0.6688 -0.4259
  963MOL0     C29881   3.044   0.144   9.410 -0.9154  0.3074 -0.1087
  963MOL0     C29882   3.078   0.087   9.548 -0.6428 -0.2922 -0.8240
  963MOL0     C29883   3.177   0.177   9.626  0.1878  0.3685  0.1963
  963MOL0     C29884   3.315   0.172   9.576 -0.0356 -0.1052 -0.3990
  963MOL0     C29885   3.407   0.269   9.651  1.3740 -0.0064 -0.3847
  963MOL0     C29886   3.553   0.295   9.596  0.2620 -0.0362  0.7268
  963MOL0     N29887   3.604   0.431   9.595 -0.0219 -0.2692  0.2580
  963MOL0     C29888   3.633   0.510   9.486  0.2691  0.2847  0.1582
  963MOL0     C29889   3.660   0.628   9.547  0.2372 -0.1532  0.7048
  963MOL0     C29890   3.689   0.762   9.474 -0.4889 -0.5340  0.0840
  963MOL0     C29891   3.838   0.808   9.471 -0.3771 -0.5736  0.4783
  963MOL0     C29892   3.910   0.789   9.606  0.4752 -0.1991 -0.2554
  963MOL0     C29893   4.056   0.834   9.598 -0.5588 -0.0515 -0.6133
  963MOL0     O29894   4.129   0.816   9.725 -0.0307 -0.4579  0.0120
  963MOL0     C29895   4.254   0.868   9.742  0.8152  0.2968 -0.0601
  963MOL0     C29896   4.332   0.842   9.857 -1.1787  0.5718  0.1454
  963MOL0     C29897   4.473   0.888   9.867  0.2865  0.0829 -0.0715
  963MOL0     C29898   4.521   0.981   9.773  0.2264  0.7772  0.1489
  963MOL0     C29899   4.658   1.045   9.793 -0.0345  0.3337  0.7546
  963MOL0     O29900   4.727   1.023   9.911  0.1778 -0.6885  0.0237
  963MOL0     C29901   4.822   1.112   9.951  0.1147 -0.2800  0.2742
  963MOL0     C29902   4.949   1.058   9.987 -0.2845 -0.6512 -0.1929
  963MOL0     C29903   5.057   1.145  10.026  0.6899 -0.1297 -0.6878
  963MOL0     C29904   5.029   1.280  10.034 -0.0802 -0.1398 -0.0784
  963MOL0     O29905   5.110   1.373  10.084  0.2625  0.1356 -0.1247
  963MOL0     C29906   5.232   1.333  10.151 -0.4940 -0.8421 -0.3221
  963MOL0     C29907   5.286   1.460  10.212 -0.1156 -0.1662 -0.3130
  963MOL0     C29908   5.416   1.446  10.298 -0.4669  0.0205 -0.0357
  963MOL0     C29909   5.472   1.593  10.317  0.4166 -0.2123 -0.5833
  963MOL0     C29910   5.592   1.609  10.412  0.3240  0.1340 -0.5932
  963MOL0     C29911   5.647   1.748  10.430  0.4819 -0.5598 -0.3547
  963MOL0     C29912   5.760   1.741  10.542 -0.2343  0.1273  0.8308
  963MOL0     C29913   5.853   1.864  10.538 -0.5092  0.1212 -0.1743
  963MOL0    Cl29914   5.756   2.012  10.569 -0.1958  0.5494  0.1262
  963MOL0     C29915   4.903   1.335   9.995 -0.0671  0.2565 -0.1425
  963MOL0     C29916   4.797   1.248   9.959  0.1584 -0.3744  0.2998
  963MOL0     O29917   4.702   1.112   9.697  0.2826  0.4216  0.3602
  963MOL0     C29918   4.442   1.001   9.660  0.1108 -0.7648  0.3048
  963MOL0     C29919   4.314   0.946   9.648 -0.5810 -0.4919 -0.3743
  963MOL0     N29920   3.651   0.620   9.687  0.5807  0.8273 -0.2763
  963MOL0     N29921   3.622   0.496   9.709 -0.1857 -0.1555 -0.1157
  963MOL0     C29922   2.547  -0.048   9.472  0.2202  0.0853 -0.4313
  963MOL0     C29923   2.408  -0.053   9.497 -0.5479 -0.0118  0.0839
  963MOL0     C29924   1.991   0.082   9.492  0.2123  0.3153  0.4112
  963MOL0     C29925   1.904   0.001   9.415  1.1837  0.7401 -1.2258
  963MOL0     C29926   1.772  -0.018   9.445 -0.2328 -1.8226  1.3035
  963MOL0     C29927   1.714   0.044   9.559  0.5540 -0.3939 -0.6051
  963MOL0     O29928   1.585   0.032   9.594  0.4670 -0.1788 -0.7148
  963MOL0     C29929   1.497  -0.068   9.547  0.4534 -0.0449  0.0279
  963MOL0     C29930   1.418  -0.018   9.417  0.1396 -0.8395  0.4899
  963MOL0     C29931   1.340   0.114   9.439 -0.0248  0.6907 -0.4166
  963MOL0     C29932   1.266   0.167   9.317  0.0725  0.6289  0.4094
  963MOL0     C29933   1.152   0.082   9.292  0.9718 -0.2224 -0.3603
  963MOL0     C29934   1.052   0.013   9.270  0.3442  0.5021  0.3318
  963MOL0     C29935   1.784   0.138   9.627 -0.2664  0.7463 -0.4180
  963MOL0     C29936   1.924   0.158   9.596  0.6560 -0.1882  0.4151
  963MOL0     C29937   1.996   0.244   9.699 -0.3245  0.3214  0.2406
  963MOL0     H29938   2.304  -0.018   9.174 -0.1903 -3.9341 -0.2245
  963MOL0     H29939   2.542   0.002   9.138 -1.4596 -0.0781  0.3637
  963MOL0     H29940   2.805   0.100   9.462  0.5024  0.3155  0.7940
  963MOL0     H29941   2.845  -0.080   9.444  0.0745  0.7872 -0.1595
  963MOL0     H29942   2.930   0.094   9.230 -0.3457 -0.4753 -0.9572
  963MOL0     H29943   3.001  -0.046   9.297 -0.6509  0.8343 -1.8272
  963MOL0     H29944   2.990   0.239   9.421 -0.6756  0.5386 -0.8533
  963MOL0     H29945   3.134   0.157   9.350 -0.5133 -1.5414  0.0533
  963MOL0     H29946   2.985   0.077   9.605  0.7938 -0.8949  1.5361
  963MOL0     H29947   3.120  -0.013   9.546  0.0382 -0.0173 -0.5922
  963MOL0     H29948   3.140   0.279   9.633 -0.5003  0.2149 -0.9500
  963MOL0     H29949   3.181   0.135   9.727  0.8386 -2.9142 -1.0611
  963MOL0     H29950   3.354   0.071   9.589 -0.5565 -0.4313 -1.2774
  963MOL0     H29951   3.318   0.206   9.472 -0.8024 -0.2383 -0.4731
  963MOL0     H29952   3.412   0.245   9.758  2.2069  0.7030 -0.2502
  963MOL0     H29953   3.366   0.370   9.642 -0.7692 -0.8707 -1.0096
  963MOL0     H29954   3.624   0.244   9.661  0.4743 -0.2037  0.3664
  963MOL0     H29955   3.569   0.252   9.497 -0.2804  0.2237  0.5206
  963MOL0     H29956   3.617   0.483   9.382  0.4873 -0.7149  0.3755
  963MOL0     H29957   3.665   0.738   9.369 -0.5956 -0.9837  0.2098
  963MOL0     H29958   3.626   0.834   9.527  1.0787 -1.1210  2.8895
  963MOL0     H29959   3.894   0.756   9.393  0.0865  0.2949  0.2230
  963MOL0     H29960   3.832   0.914   9.444 -0.7346 -0.1585  2.1082
  963MOL0     H29961   3.894   0.691   9.650 -0.9747 -0.6127 -1.6276
  963MOL0     H29962   3.860   0.863   9.670  0.4771 -1.0239  0.7264
  963MOL0     H29963   4.055   0.942   9.583  1.6467 -0.1488 -2.0488
  963MOL0     H29964   4.098   0.776   9.514 -1.1985 -2.2140  0.4920
  963MOL0     H29965   4.306   0.775   9.938 -0.8017  0.9165  0.5564
  963MOL0     H29966   4.530   0.847   9.950 -0.1366  2.9537  1.7481
  963MOL0     H29967   4.952   0.950   9.996 -0.6229 -0.8756 -2.3643
  963MOL0     H29968   5.150   1.094  10.049  1.0416  1.9534  3.3386
  963MOL0     H29969   5.204   1.271  10.237 -0.9728 -1.5387 -0.9689
  963MOL0     H29970   5.307   1.285  10.087  0.8883  2.0844 -1.1018
  963MOL0     H29971   5.303   1.512  10.117 -6.0984 -3.5045 -3.8561
  963MOL0     H29972   5.204   1.505  10.268  0.1886 -0.4309  0.3437
  963MOL0     H29973   5.402   1.407  10.399  1.7824 -0.3749  0.1907
  963MOL0     H29974   5.497   1.387  10.254 -0.1354 -0.0739  0.6907
  963MOL0     H29975   5.393   1.653  10.363 -0.5843 -0.9771 -1.2489
  963MOL0     H29976   5.494   1.637  10.219 -1.9902 -1.0558 -1.5979
  963MOL0     H29977   5.667   1.536  10.381 -0.7151 -1.9994  1.5083
  963MOL0     H29978   5.567   1.570  10.512  0.4313 -0.1737 -0.6837
  963MOL0     H29979   5.687   1.796  10.340 -0.8904 -0.2661 -0.8341
  963MOL0     H29980   5.567   1.817  10.458  0.3179 -0.0754 -1.9045
  963MOL0     H29981   5.817   1.648  10.534  2.4627  1.6969  0.6114
  963MOL0     H29982   5.719   1.741  10.643  0.4610 -3.5240  1.2425
  963MOL0     H29983   5.931   1.849  10.613  1.1631  1.0035 -1.6405
  963MOL0     H29984   5.912   1.863  10.446  0.3153 -0.5598  0.3456
  963MOL0     H29985   4.891   1.442  10.004  1.4030  0.6268 -2.0172
  963MOL0     H29986   4.701   1.288   9.926 -0.6015 -1.3968  1.2229
  963MOL0     H29987   4.489   1.048   9.575 -0.8717  3.1895  1.7587
  963MOL0     H29988   4.261   0.969   9.556  1.1582 -1.4965 -1.6843
  963MOL0     H29989   2.615  -0.067   9.554  0.2009  2.0800  0.0910
  963MOL0     H29990   2.376  -0.057   9.601  0.8274 -2.5369  0.4997
  963MOL0     H29991   1.944  -0.060   9.334 -2.4987 -1.6956 -1.4549
  963MOL0     H29992   1.716  -0.095   9.393 -1.5187 -0.0953 -0.0106
  963MOL0     H29993   1.432  -0.098   9.630  1.7851  0.3092  1.2462
  963MOL0     H29994   1.561  -0.150   9.516 -0.4977  0.5007 -3.8501
  963MOL0     H29995   1.348  -0.096   9.387  2.5559 -2.4630 -1.2287
  963MOL0     H29996   1.491  -0.011   9.336 -1.2307 -3.1060 -1.0535
  963MOL0     H29997   1.411   0.192   9.469 -1.4074  1.2711  1.5635
  963MOL0     H29998   1.278   0.087   9.525 -1.6306  0.6248 -1.5732
  963MOL0     H29999   1.230   0.267   9.340 -0.1536  0.5179  0.5351
  963MOL0     H30000   1.334   0.161   9.231 -1.1370  1.7481 -0.6645
  963MOL0     H30001   0.979  -0.060   9.241 -0.4991  1.7250 -0.7160
  963MOL0     H30002   1.740   0.185   9.714 -0.8917 -1.4116  0.4936
  963MOL0     H30003   1.986   0.350   9.675 -0.2430  0.3540  0.3530
  963MOL0     H30004   1.959   0.214   9.797  0.8577 -1.4483  0.1865
  963MOL0     H30005   2.102   0.216   9.692 -0.0511  1.6015 -1.3452
  964MOL0     O30006   6.145   2.683   8.754 -0.1753  0.0015  0.0017
  964MOL0     C30007   6.097   2.782   8.697 -0.8729 -0.7153 -0.0835
  964MOL0     O30008   6.171   2.877   8.630  0.2095  0.1725  0.1054
  964MOL0     C30009   6.306   2.870   8.632  0.0029 -0.5452  0.2795
  964MOL0     C30010   6.380   2.856   8.756 -0.1249 -0.3705 -0.0234
  964MOL0     C30011   6.517   2.861   8.771 -0.0815  0.6024 -0.2009
  964MOL0     C30012   6.593   2.894   8.653  0.0259  0.0867  0.4274
  964MOL0     O30013   6.726   2.890   8.655 -0.6844  0.1905  0.2761
  964MOL0     C30014   6.807   2.982   8.579 -0.2073  0.0083 -0.1935
  964MOL0     C30015   6.941   2.998   8.650  0.4681  0.9539  0.5477
  964MOL0     C30016   6.938   3.069   8.785 -0.0693  0.3710 -0.1251
  964MOL0     C30017   7.075   3.078   8.851 -0.0401  0.9403 -0.1376
  964MOL0     C30018   7.058   3.090   8.999 -0.4804  0.0535 -0.1904
  964MOL0     C30019   7.194   3.092   9.073  0.3978  1.0277  0.8735
  964MOL0     C30020   7.166   3.108   9.218 -0.5257 -0.5673 -0.2743
  964MOL0     C30021   7.280   3.038   9.297  0.6261  0.2067 -0.1017
  964MOL0     N30022   7.411   3.112   9.298 -0.3537 -0.0292 -0.6900
  964MOL0     C30023   7.485   3.160   9.189  0.1010 -0.0484  1.0834
  964MOL0     C30024   7.573   3.248   9.233  0.1300 -0.3759 -1.4766
  964MOL0     C30025   7.644   3.335   9.139 -0.1784 -0.1395  0.3099
  964MOL0     C30026   7.788   3.279   9.106  0.8566  0.2477 -0.7031
  964MOL0     C30027   7.889   3.289   9.225  0.0925  0.3475 -0.3049
  964MOL0     C30028   8.017   3.204   9.208 -0.4663  0.2277 -0.2786
  964MOL0     O30029   8.082   3.249   9.093 -0.0796  0.0877 -0.1057
  964MOL0     C30030   8.221   3.232   9.099 -1.1219 -0.2401  0.7458
  964MOL0     C30031   8.286   3.141   9.183 -0.6170 -0.1919 -0.8472
  964MOL0     C30032   8.429   3.131   9.188 -0.0552  0.2989  0.9863
  964MOL0     C30033   8.512   3.193   9.090  0.3628 -0.0469  0.6793
  964MOL0     C30034   8.655   3.162   9.095  0.0286 -0.3912  0.6240
  964MOL0     O30035   8.725   3.238   9.009 -0.5285 -0.1751  0.0272
  964MOL0     C30036   8.861   3.213   9.004  0.7013 -0.1337  0.0491
  964MOL0     C30037   8.923   3.181   8.884 -0.3705 -0.5761  0.2217
  964MOL0     C30038   9.067   3.172   8.883 -0.3826  0.6439  0.4913
  964MOL0     C30039   9.149   3.197   8.991  1.1088  0.3056  0.3958
  964MOL0     O30040   9.285   3.183   8.972 -0.5520 -0.7512  0.3484
  964MOL0     C30041   9.371   3.280   9.038 -0.5034 -0.3569  0.1997
  964MOL0     C30042   9.526   3.268   9.001  0.0659 -1.1771  0.7343
  964MOL0     C30043   9.611   3.378   9.060 -0.0022 -0.3281  0.2064
  964MOL0     C30044   9.746   3.378   8.994 -0.6644 -0.6338  0.3011
  964MOL0     C30045   9.844   3.488   9.033  0.4350  0.3910  0.5653
  964MOL0     C30046   9.882   3.489   9.179  0.0977 -0.5089  0.1604
  964MOL0     C30047   9.989   3.375   9.205  0.9618 -0.3439  0.5968
  964MOL0     C30048  10.057   3.364   9.342 -0.8499 -0.6765 -0.3652
  964MOL0    Cl30049  10.153   3.503   9.381 -0.3653  0.1085  0.2833
  964MOL0     C30050   9.083   3.232   9.114  0.3185 -0.0034  0.6337
  964MOL0     C30051   8.946   3.250   9.108 -0.7066  0.6219  0.9027
  964MOL0     O30052   8.699   3.084   9.178  0.7549 -0.1181  0.5930
  964MOL0     C30053   8.455   3.278   8.996  0.1644 -0.6897 -0.5740
  964MOL0     C30054   8.308   3.293   9.008 -1.2354  0.3214  0.8777
  964MOL0     N30055   7.562   3.260   9.373  0.3652  0.0763 -0.3770
  964MOL0     N30056   7.463   3.173   9.410 -0.9946 -0.4485  0.6325
  964MOL0     C30057   6.527   2.906   8.529 -0.3122  0.1972  0.3391
  964MOL0     C30058   6.384   2.901   8.520  0.3162  0.0084 -0.2726
  964MOL0     C30059   5.956   2.815   8.697  0.4671 -0.0337  0.0503
  964MOL0     C30060   5.897   2.883   8.589  1.0128 -0.2030 -0.6103
  964MOL0     C30061   5.761   2.925   8.591  0.0134 -0.1584  0.7395
  964MOL0     C30062   5.671   2.876   8.688  1.1433  0.5857  0.4254
  964MOL0     O30063   5.542   2.912   8.708 -0.5544  0.1579  0.3371
  964MOL0     C30064   5.498   3.034   8.640  0.1009 -0.7533 -0.1190
  964MOL0     C30065   5.352   3.046   8.673 -0.5019  0.0072 -0.0906
  964MOL0     C30066   5.296   3.178   8.614  0.0927  0.1965 -0.0923
  964MOL0     C30067   5.153   3.206   8.677 -0.3279  0.3837 -0.4195
  964MOL0     C30068   5.049   3.110   8.659 -0.5506  0.4708 -0.1252
  964MOL0     C30069   4.978   3.020   8.627 -0.2903  0.3166 -0.4001
  964MOL0     C30070   5.733   2.803   8.792 -0.6464 -0.3052  1.0005
  964MOL0     C30071   5.875   2.771   8.809 -0.7422 -0.1414 -0.7073
  964MOL0     C30072   5.914   2.698   8.930  1.0234  0.3538 -0.6278
  964MOL0     H30073   6.326   2.840   8.849  2.0063 -1.9036  1.0171
  964MOL0     H30074   6.561   2.845   8.869  0.6415  0.7127 -0.5062
  964MOL0     H30075   6.829   2.959   8.474  2.7922  2.8014 -0.3438
  964MOL0     H30076   6.770   3.085   8.582 -2.0536 -0.6270 -0.2551
  964MOL0     H30077   7.025   3.026   8.586  0.5732 -0.2992  0.0945
  964MOL0     H30078   6.977   2.896   8.671 -1.3710  0.0679 -0.3418
  964MOL0     H30079   6.871   3.009   8.847 -0.3454  2.9268  2.2230
  964MOL0     H30080   6.888   3.166   8.774  2.0066  1.4375 -0.7352
  964MOL0     H30081   7.130   2.986   8.829 -1.9969 -0.0348 -1.2398
  964MOL0     H30082   7.133   3.156   8.801  0.2166 -0.4699 -2.1984
  964MOL0     H30083   7.002   3.181   9.024 -1.3116 -0.7381  0.8893
  964MOL0     H30084   7.007   2.997   9.023  0.1848 -0.2705 -0.0197
  964MOL0     H30085   7.248   2.999   9.052 -1.4335  0.2101 -0.3864
  964MOL0     H30086   7.256   3.174   9.036  2.8490  0.3916  3.2004
  964MOL0     H30087   7.065   3.076   9.246 -0.7975 -0.5962 -1.2401
  964MOL0     H30088   7.171   3.217   9.222  0.5428 -0.5618 -1.1961
  964MOL0     H30089   7.242   3.026   9.398 -2.2877  1.5558 -0.9233
  964MOL0     H30090   7.299   2.935   9.264  2.4432  1.2437 -2.6056
  964MOL0     H30091   7.460   3.156   9.084  1.6826 -0.7580  0.7008
  964MOL0     H30092   7.585   3.339   9.047 -3.1702 -0.7211  2.0715
  964MOL0     H30093   7.654   3.431   9.190 -1.0016 -0.2998  0.8083
  964MOL0     H30094   7.776   3.171   9.091  0.0866  0.0825  0.8795
  964MOL0     H30095   7.834   3.336   9.025 -2.1947  0.2908 -2.5632
  964MOL0     H30096   7.848   3.248   9.319 -0.2702  2.2084  0.3971
  964MOL0     H30097   7.915   3.395   9.234 -0.4917  0.3700  1.9794
  964MOL0     H30098   7.999   3.098   9.189 -0.3718 -0.0861  1.2899
  964MOL0     H30099   8.076   3.212   9.299 -2.9919 -1.0154  1.5782
  964MOL0     H30100   8.225   3.086   9.254 -0.7074  1.3261  0.3314
  964MOL0     H30101   8.470   3.055   9.254  0.7303 -0.4349 -0.3059
  964MOL0     H30102   8.855   3.161   8.802  1.2854  0.3335 -1.4619
  964MOL0     H30103   9.119   3.143   8.792  0.5109  0.4954  1.0399
  964MOL0     H30104   9.335   3.380   9.014  0.9346  0.5043  1.4482
  964MOL0     H30105   9.371   3.264   9.147 -1.0549  2.7008  0.7273
  964MOL0     H30106   9.562   3.170   9.034 -1.4095 -1.2593  2.2397
  964MOL0     H30107   9.529   3.280   8.893  0.0624  0.5427  0.8999
  964MOL0     H30108   9.570   3.479   9.046  0.2285 -0.2492  0.0877
  964MOL0     H30109   9.622   3.354   9.167  0.9523  0.0451  0.2016
  964MOL0     H30110   9.727   3.398   8.888 -0.3333 -1.5431  0.0650
  964MOL0     H30111   9.794   3.281   9.005 -1.0733 -0.8573  0.1166
  964MOL0     H30112   9.804   3.588   9.012  0.0413  0.0597 -0.2961
  964MOL0     H30113   9.926   3.472   8.963 -0.4510 -0.0049 -0.4080
  964MOL0     H30114   9.932   3.583   9.203  0.0133 -0.8538  1.7883
  964MOL0     H30115   9.802   3.494   9.253  0.0365  0.7687  0.0375
  964MOL0     H30116  10.057   3.359   9.121 -2.6534  1.5715 -3.0425
  964MOL0     H30117   9.919   3.292   9.196  0.8998 -0.2036 -0.3145
  964MOL0     H30118   9.986   3.337   9.421 -1.8180 -1.5734 -1.4907
  964MOL0     H30119  10.120   3.278   9.320 -2.1248 -1.3645 -1.5405
  964MOL0     H30120   9.139   3.245   9.207  0.3244 -0.7494  0.7369
  964MOL0     H30121   8.899   3.298   9.193  1.0743  3.0920  0.5947
  964MOL0     H30122   8.510   3.315   8.910  0.7257 -1.9423 -0.7914
  964MOL0     H30123   8.270   3.345   8.920  1.8752 -0.1545 -0.8714
  964MOL0     H30124   6.579   2.911   8.434 -0.9336 -1.9038 -0.1474
  964MOL0     H30125   6.345   2.913   8.419 -0.3989 -2.6785 -0.3908
  964MOL0     H30126   5.957   2.905   8.501 -1.4469  0.3405 -2.2601
  964MOL0     H30127   5.731   2.993   8.513  2.8114 -0.3910 -0.6463
  964MOL0     H30128   5.509   3.023   8.531 -1.0798 -2.5802 -0.0995
  964MOL0     H30129   5.563   3.119   8.665 -0.2902 -0.2560 -0.7591
  964MOL0     H30130   5.349   3.058   8.782  2.7334 -0.7026  0.1807
  964MOL0     H30131   5.285   2.966   8.640 -2.1461  1.1209  0.4290
  964MOL0     H30132   5.282   3.168   8.506 -0.4780 -1.4174  0.0970
  964MOL0     H30133   5.361   3.261   8.642 -1.4074  1.1094  0.8300
  964MOL0     H30134   5.171   3.203   8.785 -1.0807 -1.1656 -0.2972
  964MOL0     H30135   5.115   3.303   8.645 -0.9438  0.7144  1.2368
  964MOL0     H30136   4.905   2.949   8.594 -0.5567  1.0144 -1.3662
  964MOL0     H30137   5.668   2.773   8.873 -2.5099 -0.7340 -0.5620
  964MOL0     H30138   5.903   2.593   8.901 -2.1989 -0.0679  1.5694
  964MOL0     H30139   6.012   2.727   8.969 -0.2290 -0.6013  3.8556
  964MOL0     H30140   5.838   2.714   9.006  2.6540  0.2198  1.1081
  965MOL0     O30141   9.847   3.520   1.083 -0.2249  0.7693  0.5400
  965MOL0     C30142   9.934   3.553   1.006  0.4498  0.1068  0.8264
  965MOL0     O30143   9.911   3.613   0.888  0.5772  0.4951  0.2272
  965MOL0     C30144   9.783   3.647   0.858  0.3300  0.4884  0.1979
  965MOL0     C30145   9.720   3.599   0.743 -0.0543 -0.1745 -0.3856
  965MOL0     C30146   9.606   3.658   0.698  0.6629 -0.1312 -0.0128
  965MOL0     C30147   9.540   3.757   0.771 -0.7932 -0.0582 -0.7364
  965MOL0     O30148   9.425   3.826   0.735 -0.2980 -0.6915 -0.1101
  965MOL0     C30149   9.326   3.746   0.667  0.4501  0.1592  0.1575
  965MOL0     C30150   9.200   3.832   0.693 -0.2518  0.7785 -0.0716
  965MOL0     C30151   9.063   3.761   0.677 -0.5398  0.0550 -0.2699
  965MOL0     C30152   8.951   3.827   0.757 -0.8838  0.1580  0.3886
  965MOL0     C30153   8.821   3.751   0.718  0.1856 -1.1376 -1.0198
  965MOL0     C30154   8.770   3.745   0.574  0.4620 -0.6190 -0.5447
  965MOL0     C30155   8.786   3.883   0.506 -0.3107 -0.4568  0.8532
  965MOL0     C30156   8.721   3.887   0.366  0.8018 -0.0173  0.4783
  965MOL0     N30157   8.789   3.792   0.270  0.0346 -0.8038  0.7135
  965MOL0     C30158   8.922   3.797   0.232  0.3317 -0.1244 -0.9138
  965MOL0     C30159   8.946   3.683   0.160  0.1403  0.6471 -0.0230
  965MOL0     C30160   9.069   3.652   0.078  0.2270 -0.2762  0.5074
  965MOL0     C30161   9.178   3.602   0.170  1.3719 -0.3032 -0.1369
  965MOL0     C30162   9.270   3.517   0.079 -0.1739 -0.2137 -0.5126
  965MOL0     C30163   9.383   3.608   0.017  0.2297  0.0330 -0.0929
  965MOL0     O30164   9.493   3.531  -0.037  0.4702  0.7051  0.1878
  965MOL0     C30165   9.595   3.596  -0.108 -0.7483 -0.3722 -0.2640
  965MOL0     C30166   9.611   3.732  -0.118 -0.6310 -0.5036  0.1656
  965MOL0     C30167   9.730   3.787  -0.159 -0.3220  0.3553  0.1800
  965MOL0     C30168   9.836   3.704  -0.195  0.1204 -0.8670 -0.8254
  965MOL0     C30169   9.965   3.762  -0.247 -1.1581  0.1364 -0.6415
  965MOL0     O30170  10.055   3.685  -0.311 -0.6870  0.5246  0.9667
  965MOL0     C30171  10.166   3.742  -0.341  0.6127 -0.7794  0.0378
  965MOL0     C30172  10.182   3.798  -0.468  0.0527  0.2374 -0.4281
  965MOL0     C30173  10.296   3.881  -0.491  0.7757  0.0994 -0.6087
  965MOL0     C30174  10.398   3.901  -0.403 -1.2536 -0.0796 -0.6251
  965MOL0     O30175  10.515   3.964  -0.443 -0.6162  0.2907 -0.0915
  965MOL0     C30176  10.540   4.090  -0.384  0.9877 -0.1218 -0.7167
  965MOL0     C30177  10.466   4.204  -0.467 -0.1391 -0.4790  0.7946
  965MOL0     C30178  10.465   4.199  -0.627  0.2017 -0.2392 -0.8807
  965MOL0     C30179  10.340   4.264  -0.687 -0.1816 -0.0159  0.6349
  965MOL0     C30180  10.348   4.416  -0.654  0.9824 -0.9650  0.3547
  965MOL0     C30181  10.264   4.485  -0.755  0.0849 -0.2747  0.3848
  965MOL0     C30182  10.124   4.433  -0.759 -0.0724  0.3090  0.4728
  965MOL0     C30183  10.042   4.512  -0.865 -1.0281 -0.3229 -0.5828
  965MOL0    Cl30184  10.002   4.681  -0.821  0.5426  0.7051  0.0544
  965MOL0     C30185  10.381   3.858  -0.267 -0.7128 -0.7705  0.1497
  965MOL0     C30186  10.256   3.781  -0.238  0.1366 -0.4774  0.1733
  965MOL0     O30187   9.976   3.886  -0.220  0.3008 -0.3747 -0.6401
  965MOL0     C30188   9.817   3.565  -0.196  0.3362  0.3816  0.2640
  965MOL0     C30189   9.696   3.513  -0.153  0.1034 -0.5120  0.6113
  965MOL0     N30190   8.834   3.602   0.171  0.6505  0.5914 -0.2612
  965MOL0     N30191   8.746   3.666   0.239 -0.7255  0.5163  0.3150
  965MOL0     C30192   9.599   3.805   0.891 -0.4229 -0.6794  0.2714
  965MOL0     C30193   9.718   3.745   0.931  0.8558 -0.9143  0.3395
  965MOL0     C30194  10.077   3.513   1.047 -0.6052 -0.1299  0.4028
  965MOL0     C30195  10.176   3.611   1.039 -0.0991  0.4406  0.1447
  965MOL0     C30196  10.308   3.589   1.080 -0.8806  0.1473  0.7923
  965MOL0     C30197  10.339   3.468   1.141  0.6986 -0.0621  0.2989
  965MOL0     O30198  10.462   3.457   1.198 -0.8382  0.1585  1.3148
  965MOL0     C30199  10.491   3.344   1.289  0.6110  0.0145  0.0683
  965MOL0     C30200  10.618   3.374   1.365 -0.0316  0.0835  0.3100
  965MOL0     C30201  10.655   3.258   1.457 -1.0579 -0.8716 -1.4204
  965MOL0     C30202  10.790   3.296   1.504  0.0930  0.0716 -0.0293
  965MOL0     C30203  10.863   3.178   1.566 -0.1995 -0.8133 -0.0201
  965MOL0     C30204  10.926   3.080   1.613  0.5473 -0.4894 -0.6600
  965MOL0     C30205  10.247   3.369   1.139  0.5184 -0.2612 -0.4391
  965MOL0     C30206  10.112   3.383   1.098 -0.4090 -0.6863 -0.7353
  965MOL0     C30207  10.017   3.267   1.105 -0.5917 -1.2871  0.2570
  965MOL0     H30208   9.759   3.512   0.691 -1.5701 -0.8649 -0.4186
  965MOL0     H30209   9.562   3.627   0.603  0.0498  1.0003 -0.1215
  965MOL0     H30210   9.335   3.743   0.558 -3.4489  0.9879 -0.3337
  965MOL0     H30211   9.308   3.644   0.701 -1.2692 -0.1628 -1.5162
  965MOL0     H30212   9.211   3.921   0.631 -0.0625 -0.5070 -1.9836
  965MOL0     H30213   9.213   3.860   0.798 -1.1889 -1.3123  0.6530
  965MOL0     H30214   9.074   3.660   0.718  0.9249 -0.9239 -2.8011
  965MOL0     H30215   9.027   3.750   0.574  0.7236 -2.7233 -0.4934
  965MOL0     H30216   8.971   3.823   0.864 -0.9895  1.0575  0.4512
  965MOL0     H30217   8.963   3.934   0.737 -0.9643  0.1582  0.3383
  965MOL0     H30218   8.819   3.651   0.762  1.6026 -1.4761 -1.6639
  965MOL0     H30219   8.746   3.809   0.772  2.2910  1.5178 -0.7460
  965MOL0     H30220   8.829   3.670   0.520 -0.1826 -1.3646 -0.2335
  965MOL0     H30221   8.663   3.722   0.572 -0.1429  1.7328  0.5530
  965MOL0     H30222   8.888   3.919   0.491 -1.2753  1.3735 -1.9005
  965MOL0     H30223   8.732   3.953   0.572 -0.2474  0.5677 -0.1538
  965MOL0     H30224   8.617   3.856   0.375  0.8244  0.0638  1.0992
  965MOL0     H30225   8.729   3.990   0.329 -1.6423  0.3243  0.7465
  965MOL0     H30226   8.999   3.865   0.269  1.3373 -1.6896 -0.0166
  965MOL0     H30227   9.039   3.576   0.005  1.0077  1.8786 -2.2458
  965MOL0     H30228   9.096   3.734   0.010  0.9343 -1.2949 -0.4736
  965MOL0     H30229   9.233   3.688   0.209 -0.3005  0.1861  1.2719
  965MOL0     H30230   9.129   3.548   0.252  1.9350 -4.3609 -2.2045
  965MOL0     H30231   9.221   3.475  -0.009  0.0942  0.4279 -0.9788
  965MOL0     H30232   9.320   3.437   0.135  3.6464  1.8311 -0.6134
  965MOL0     H30233   9.420   3.668   0.100  1.7256 -1.6904  0.5404
  965MOL0     H30234   9.341   3.675  -0.060  0.6027  0.7598  0.3259
  965MOL0     H30235   9.527   3.800  -0.116  0.9377  1.5486  0.1136
  965MOL0     H30236   9.747   3.894  -0.158  0.5695  0.2213  0.2258
  965MOL0     H30237  10.107   3.772  -0.541  0.6254  2.6617 -1.9861
  965MOL0     H30238  10.306   3.920  -0.592 -2.2234 -1.6609 -1.7206
  965MOL0     H30239  10.508   4.085  -0.279  2.4169  2.9024 -0.0208
  965MOL0     H30240  10.645   4.115  -0.398  0.7984 -0.1044 -2.2849
  965MOL0     H30241  10.364   4.216  -0.431 -0.9251  0.0199 -1.4235
  965MOL0     H30242  10.511   4.301  -0.444 -0.6156 -0.3532  1.2029
  965MOL0     H30243  10.558   4.231  -0.673  2.2143 -2.6700  1.2187
  965MOL0     H30244  10.456   4.093  -0.653  1.0269 -0.6750  0.5045
  965MOL0     H30245  10.247   4.222  -0.648 -0.6748  0.1549 -0.3282
  965MOL0     H30246  10.348   4.245  -0.794  0.2965 -1.0725  0.8461
  965MOL0     H30247  10.452   4.449  -0.657  0.4230  0.8060 -1.3289
  965MOL0     H30248  10.318   4.435  -0.550  4.4634 -0.0024  1.3447
  965MOL0     H30249  10.268   4.592  -0.731 -0.6406 -0.6264  2.3362
  965MOL0     H30250  10.313   4.469  -0.851  4.3326 -0.4280  2.3564
  965MOL0     H30251  10.078   4.432  -0.660 -2.1955 -3.5101 -0.3356
  965MOL0     H30252  10.129   4.333  -0.802 -2.2442  0.9541 -1.5145
  965MOL0     H30253  10.109   4.515  -0.952  2.6101  1.9480  1.9827
  965MOL0     H30254   9.949   4.460  -0.887 -1.2659  0.3875 -1.3128
  965MOL0     H30255  10.441   3.880  -0.179 -2.2440 -1.3470  1.4055
  965MOL0     H30256  10.232   3.764  -0.133 -1.7832  2.2777  0.2831
  965MOL0     H30257   9.908   3.510  -0.217  1.3696  2.5458 -1.2677
  965MOL0     H30258   9.677   3.408  -0.134 -0.0584 -0.3290  1.5167
  965MOL0     H30259   9.558   3.883   0.955 -0.0060 -2.3923  2.7921
  965MOL0     H30260   9.761   3.773   1.027 -1.6501  0.0499  1.2960
  965MOL0     H30261  10.161   3.706   0.987 -1.3777  0.6541  0.8668
  965MOL0     H30262  10.382   3.663   1.053 -1.6926  0.5200 -0.5163
  965MOL0     H30263  10.501   3.250   1.234 -0.2691 -0.0651  0.0375
  965MOL0     H30264  10.403   3.331   1.352 -1.0784 -0.8296 -2.3391
  965MOL0     H30265  10.615   3.463   1.428 -0.8670  1.4037 -1.5147
  965MOL0     H30266  10.692   3.397   1.288 -1.1856  0.8678 -0.6006
  965MOL0     H30267  10.675   3.169   1.396  0.2801  0.4999 -3.0603
  965MOL0     H30268  10.589   3.231   1.540  1.9781 -3.1248  0.4814
  965MOL0     H30269  10.851   3.346   1.429 -0.2228  2.0235  0.9513
  965MOL0     H30270  10.771   3.366   1.586 -2.2941  0.5789 -0.9404
  965MOL0     H30271  10.985   2.999   1.649  1.2106 -0.0956 -0.8357
  965MOL0     H30272  10.279   3.271   1.173  1.7272 -0.4808 -2.0815
  965MOL0     H30273  10.064   3.168   1.109  2.0644 -0.1661 -0.5838
  965MOL0     H30274   9.954   3.285   1.193 -0.3457  1.2129 -0.0212
  965MOL0     H30275   9.955   3.262   1.015  0.8634  2.6355 -1.1653
  966MOL0     O30276   4.549   4.763   9.242 -0.4334  0.1073 -0.0744
  966MOL0     C30277   4.531   4.675   9.322 -0.3027 -0.5746  0.4338
  966MOL0     O30278   4.636   4.605   9.374 -0.1168  0.1685 -0.4476
  966MOL0     C30279   4.765   4.645   9.354 -0.1081 -0.1785  0.2920
  966MOL0     C30280   4.807   4.773   9.397  0.5411 -0.3601 -0.0197
  966MOL0     C30281   4.936   4.808   9.398  0.0752  0.6463  0.5025
  966MOL0     C30282   5.033   4.723   9.325 -0.3269 -0.3966  0.0204
  966MOL0     O30283   5.159   4.760   9.309 -0.0396  0.7134 -0.2556
  966MOL0     C30284   5.224   4.835   9.411  0.4811  1.2373 -0.1916
  966MOL0     C30285   5.371   4.867   9.407 -0.0282 -1.2842  0.8406
  966MOL0     C30286   5.401   4.941   9.274 -0.1003 -0.6227  0.2675
  966MOL0     C30287   5.502   4.863   9.190 -0.4098  0.0932 -0.1871
  966MOL0     C30288   5.642   4.918   9.230 -0.1846  0.2405 -1.1372
  966MOL0     C30289   5.751   4.826   9.172  0.3141 -0.3589  0.3796
  966MOL0     C30290   5.894   4.851   9.229 -0.3959 -0.8552  0.0463
  966MOL0     C30291   5.997   4.742   9.187 -0.2051  0.4113  0.6469
  966MOL0     N30292   6.126   4.749   9.253 -0.2012 -0.0808 -0.0165
  966MOL0     C30293   6.191   4.643   9.293  0.3872  1.2918  0.1506
  966MOL0     C30294   6.289   4.691   9.373 -0.1999 -0.2100  0.6145
  966MOL0     C30295   6.385   4.609   9.452 -0.5553  0.0695  0.1006
  966MOL0     C30296   6.513   4.688   9.491  0.2017  0.0896 -0.0146
  966MOL0     C30297   6.576   4.627   9.613 -0.4601 -0.3153 -0.4434
  966MOL0     C30298   6.720   4.675   9.628 -0.2896 -0.7492  0.2166
  966MOL0     O30299   6.819   4.643   9.528  0.7327  0.0921  0.5915
  966MOL0     C30300   6.941   4.690   9.541 -0.9743 -0.7364  0.0616
  966MOL0     C30301   7.027   4.677   9.429 -0.5166  0.5757  0.8414
  966MOL0     C30302   7.158   4.726   9.432  0.6001  0.6277  0.6912
  966MOL0     C30303   7.214   4.782   9.544 -0.1013 -0.0029  0.0592
  966MOL0     C30304   7.354   4.830   9.535 -0.2021 -0.4060  0.3756
  966MOL0     O30305   7.396   4.907   9.634  0.2724 -0.2716 -0.4889
  966MOL0     C30306   7.515   4.975   9.647  0.6323  0.3005  0.4076
  966MOL0     C30307   7.595   4.979   9.767  0.5509 -0.0061  0.0386
  966MOL0     C30308   7.712   5.054   9.767  0.4141 -0.2432  0.1958
  966MOL0     C30309   7.757   5.120   9.656  0.3750 -0.0805  1.5628
  966MOL0     O30310   7.871   5.197   9.657  0.1062 -0.3661  0.5602
  966MOL0     C30311   7.919   5.241   9.528  0.0036 -0.1946  0.1905
  966MOL0     C30312   8.056   5.297   9.546  0.2530  0.9141 -1.6593
  966MOL0     C30313   8.120   5.369   9.426  0.1314 -0.5629 -1.2803
  966MOL0     C30314   8.031   5.482   9.367 -0.6066  0.0434 -0.4755
  966MOL0     C30315   8.119   5.573   9.275  0.8118  0.1505  0.4759
  966MOL0     C30316   8.022   5.683   9.233  0.0871 -0.1892  0.4475
  966MOL0     C30317   8.082   5.776   9.122 -0.1930  0.4893 -0.3226
  966MOL0     C30318   8.036   5.920   9.148 -0.0488 -0.0820 -0.0709
  966MOL0    Cl30319   8.092   5.991   9.294 -0.4715 -0.2423 -0.1344
  966MOL0     C30320   7.677   5.112   9.541  0.3352 -1.2146 -0.2114
  966MOL0     C30321   7.558   5.042   9.534 -0.6505  0.7168 -0.4140
  966MOL0     O30322   7.419   4.802   9.435 -0.3818  0.1176 -0.3642
  966MOL0     C30323   7.131   4.793   9.650 -0.1310  0.8708 -0.5075
  966MOL0     C30324   7.000   4.746   9.656  0.0490  0.8130  0.6971
  966MOL0     N30325   6.292   4.833   9.360  0.3090 -0.1373 -0.7053
  966MOL0     N30326   6.193   4.859   9.284 -0.0951 -0.0763 -0.4460
  966MOL0     C30327   4.997   4.595   9.289 -0.2956  0.3778 -0.6688
  966MOL0     C30328   4.864   4.551   9.317 -0.0597 -0.0677  0.5231
  966MOL0     C30329   4.391   4.629   9.361 -0.9825  0.2922  0.9597
  966MOL0     C30330   4.375   4.526   9.451  0.1510  0.7916 -0.4957
  966MOL0     C30331   4.248   4.475   9.491 -0.1279 -0.3768 -0.7207
  966MOL0     C30332   4.133   4.515   9.422  0.0326 -0.1973 -0.0273
  966MOL0     O30333   4.007   4.457   9.447 -0.3054 -0.0687  0.1333
  966MOL0     C30334   3.886   4.474   9.361 -0.1789 -1.2427 -0.2424
  966MOL0     C30335   3.782   4.363   9.383  0.4037  0.0269 -1.1828
  966MOL0     C30336   3.797   4.230   9.300  0.3207 -0.5093  0.4446
  966MOL0     C30337   3.700   4.121   9.337  0.7977 -0.0081 -0.2246
  966MOL0     C30338   3.755   4.027   9.434 -0.3437  0.0991 -0.6021
  966MOL0     C30339   3.802   3.938   9.503 -0.0924 -0.7027  0.5847
  966MOL0     C30340   4.143   4.618   9.328  0.0831  0.3492  0.8303
  966MOL0     C30341   4.272   4.680   9.299  0.0874 -0.3438 -0.2326
  966MOL0     C30342   4.258   4.802   9.212  0.0794 -0.1008  0.8936
  966MOL0     H30343   4.724   4.830   9.437 -2.3006 -4.4564  0.4316
  966MOL0     H30344   4.966   4.900   9.449 -0.3932  2.2157 -1.8986
  966MOL0     H30345   5.175   4.933   9.417  2.5351  2.2316  2.6709
  966MOL0     H30346   5.200   4.796   9.510 -0.3889 -0.7821 -1.1314
  966MOL0     H30347   5.430   4.775   9.415 -0.3069 -1.6969 -1.2423
  966MOL0     H30348   5.401   4.934   9.488  0.6751  0.8409 -1.0583
  966MOL0     H30349   5.439   5.041   9.297 -2.3646  0.0150  1.5761
  966MOL0     H30350   5.313   4.960   9.213  2.4575  1.3818 -3.1473
  966MOL0     H30351   5.501   4.756   9.213  0.0652  0.2120  0.4225
  966MOL0     H30352   5.482   4.885   9.084 -3.0933  1.4066  0.5036
  966MOL0     H30353   5.654   5.019   9.189  0.6969  0.1976 -0.9961
  966MOL0     H30354   5.645   4.918   9.339 -0.5719 -1.3047 -1.0983
  966MOL0     H30355   5.736   4.719   9.190 -3.0465 -0.0610  0.1084
  966MOL0     H30356   5.741   4.825   9.063 -3.4236 -1.0852  0.5893
  966MOL0     H30357   5.898   4.852   9.338 -2.6587 -2.0553  0.1874
  966MOL0     H30358   5.941   4.943   9.192 -2.1527 -0.1817 -0.5787
  966MOL0     H30359   5.945   4.647   9.203  1.4990 -0.8262 -0.8034
  966MOL0     H30360   6.017   4.729   9.080  3.6085 -0.7910  1.3574
  966MOL0     H30361   6.166   4.538   9.282 -2.3061  1.8779  0.0341
  966MOL0     H30362   6.330   4.596   9.545 -1.9038 -0.4895 -0.7422
  966MOL0     H30363   6.401   4.514   9.400 -2.0349  0.6547 -1.5697
  966MOL0     H30364   6.574   4.669   9.402 -2.2258 -2.2432 -1.3159
  966MOL0     H30365   6.495   4.793   9.516 -1.2894 -0.7371  2.7656
  966MOL0     H30366   6.573   4.518   9.607 -3.1689 -0.4029  0.9187
  966MOL0     H30367   6.515   4.658   9.698 -0.6167 -0.4798 -0.4957
  966MOL0     H30368   6.754   4.635   9.724  1.3566  1.5550  0.6623
  966MOL0     H30369   6.712   4.783   9.639  3.0161 -0.4893  1.1048
  966MOL0     H30370   6.995   4.629   9.337 -1.3335  1.2512  0.7569
  966MOL0     H30371   7.221   4.721   9.344  1.8924  1.6371  1.5201
  966MOL0     H30372   7.555   4.915   9.846  0.6622 -1.3178 -0.9235
  966MOL0     H30373   7.762   5.072   9.862  2.9248 -0.3100 -1.0361
  966MOL0     H30374   7.916   5.156   9.460 -3.6904 -0.0361 -0.0466
  966MOL0     H30375   7.852   5.314   9.481  0.4271  0.7231  0.9741
  966MOL0     H30376   8.059   5.366   9.631  3.2332 -1.6371  0.5417
  966MOL0     H30377   8.119   5.211   9.570 -1.9991 -0.5703 -0.6708
  966MOL0     H30378   8.210   5.406   9.476 -0.0265 -1.0495 -0.6228
  966MOL0     H30379   8.148   5.300   9.346  6.2444  0.1656 -0.2877
  966MOL0     H30380   7.981   5.548   9.439 -0.2804  1.7716 -1.7776
  966MOL0     H30381   7.951   5.437   9.307 -0.1228 -0.7413 -0.5468
  966MOL0     H30382   8.142   5.532   9.176 -2.4138 -0.7412 -0.0149
  966MOL0     H30383   8.200   5.622   9.330  1.0112  1.6676 -1.0840
  966MOL0     H30384   7.930   5.639   9.194 -1.7408  0.4259  3.7867
  966MOL0     H30385   7.995   5.735   9.325 -1.3155 -1.1842  0.6157
  966MOL0     H30386   8.049   5.733   9.027  0.0818 -3.4575  1.1779
  966MOL0     H30387   8.190   5.762   9.130  0.2961  2.6840 -1.9606
  966MOL0     H30388   8.076   5.986   9.070  1.7971  0.2918  1.1364
  966MOL0     H30389   7.928   5.925   9.161  0.0911 -0.4962  1.4143
  966MOL0     H30390   7.686   5.175   9.454 -4.5615  0.6104  0.3108
  966MOL0     H30391   7.500   5.040   9.442 -1.0247  0.7163 -0.1801
  966MOL0     H30392   7.155   4.842   9.744 -0.9517 -0.0650  0.1986
  966MOL0     H30393   6.952   4.733   9.752  0.2304 -1.7436  0.5162
  966MOL0     H30394   5.075   4.529   9.252  1.5407  1.0699  1.7464
  966MOL0     H30395   4.838   4.449   9.293 -2.7859  0.0629  2.4345
  966MOL0     H30396   4.461   4.483   9.501  0.2770 -0.2642 -1.5715
  966MOL0     H30397   4.242   4.380   9.542  1.5066 -0.3158 -0.3707
  966MOL0     H30398   3.913   4.476   9.255 -1.9748  0.1195 -0.7217
  966MOL0     H30399   3.846   4.572   9.391 -0.6119 -0.5762 -2.8002
  966MOL0     H30400   3.678   4.394   9.374  0.1073  0.0338  1.5125
  966MOL0     H30401   3.782   4.323   9.485 -1.2647 -5.0170 -2.8545
  966MOL0     H30402   3.891   4.177   9.318 -0.2121 -0.8344  2.6318
  966MOL0     H30403   3.781   4.262   9.197  2.4671  2.6330  0.9613
  966MOL0     H30404   3.613   4.174   9.376  0.0271 -1.2987 -0.1278
  966MOL0     H30405   3.673   4.077   9.241 -0.2109 -2.1432  0.9515
  966MOL0     H30406   3.834   3.857   9.564  0.6864  0.1653  1.3589
  966MOL0     H30407   4.058   4.644   9.266  1.9185  1.4061 -1.4020
  966MOL0     H30408   4.346   4.866   9.213 -0.5123  0.7480 -0.0089
  966MOL0     H30409   4.230   4.764   9.113 -2.2475  3.1757  0.1494
  966MOL0     H30410   4.172   4.863   9.239 -1.5346 -1.4765 -0.8794
  967MOL0     O30411  10.795   5.733  10.672  0.3064  0.5973  0.0393
  967MOL0     C30412  10.816   5.798  10.576  0.1505 -0.5980  0.6501
  967MOL0     O30413  10.926   5.885  10.549 -0.0344 -0.4724 -0.9200
  967MOL0     C30414  11.013   5.914  10.652  0.0509 -0.2568  0.2327
  967MOL0     C30415  10.994   5.920  10.792  0.9661 -0.0027 -0.1823
  967MOL0     C30416  11.092   5.981  10.877 -0.4391 -0.0960 -0.6041
  967MOL0     C30417  11.214   6.030  10.829  0.8801  0.5118  0.6999
  967MOL0     O30418  11.297   6.088  10.917  0.0083  0.2741  0.3597
  967MOL0     C30419  11.421   6.020  10.925 -0.7007  0.2634 -1.0238
  967MOL0     C30420  11.514   6.115  11.007 -0.3887 -0.7566 -0.6938
  967MOL0     C30421  11.651   6.063  11.031 -0.5600  0.3036 -0.5284
  967MOL0     C30422  11.758   6.169  11.077  0.1121 -0.0641  0.1676
  967MOL0     C30423  11.889   6.119  11.120 -0.2255  0.1695  1.2875
  967MOL0     C30424  11.938   6.199  11.244 -0.2452 -0.1827 -0.3647
  967MOL0     C30425  11.961   6.351  11.207 -0.5062  0.3928 -0.7151
  967MOL0     C30426  12.068   6.384  11.101  0.5510 -0.9304 -0.4340
  967MOL0     N30427  12.197   6.330  11.153 -0.4103  0.6325 -0.4403
  967MOL0     C30428  12.268   6.217  11.098  0.2640  0.8267  0.4865
  967MOL0     C30429  12.384   6.220  11.162 -0.6693  1.0181 -0.3174
  967MOL0     C30430  12.507   6.143  11.126  0.6879 -0.0616 -0.0078
  967MOL0     C30431  12.552   6.022  11.216 -0.5719 -0.8343  0.2437
  967MOL0     C30432  12.676   6.054  11.299  0.1322  0.9086  0.4007
  967MOL0     C30433  12.643   6.151  11.421  0.5091  0.6893 -0.8727
  967MOL0     O30434  12.747   6.146  11.524 -0.7767  0.5790  0.6174
  967MOL0     C30435  12.865   6.212  11.499  0.4027  0.3706 -0.5047
  967MOL0     C30436  12.886   6.304  11.396  0.6269  0.7190 -0.4971
  967MOL0     C30437  13.019   6.355  11.383  0.7076  0.0037 -0.4144
  967MOL0     C30438  13.125   6.312  11.462  0.5530 -0.3817 -0.1351
  967MOL0     C30439  13.258   6.367  11.434 -0.0489 -0.6351 -0.6664
  967MOL0     O30440  13.273   6.445  11.320 -0.1943 -0.2785 -0.3543
  967MOL0     C30441  13.380   6.532  11.299 -0.4141  0.2496  0.1609
  967MOL0     C30442  13.432   6.607  11.398 -0.0052  0.0970 -0.0400
  967MOL0     C30443  13.540   6.692  11.374  0.1064  0.0215 -0.5986
  967MOL0     C30444  13.596   6.709  11.248 -0.2038 -0.4982 -0.3711
  967MOL0     O30445  13.717   6.782  11.247 -0.4367  0.3812  0.0159
  967MOL0     C30446  13.785   6.804  11.123 -1.0407  0.6134 -0.2650
  967MOL0     C30447  13.752   6.935  11.055  0.0602 -0.2081  0.2571
  967MOL0     C30448  13.800   6.921  10.914 -0.0379  0.2052  0.2415
  967MOL0     C30449  13.945   6.918  10.895 -0.8340  0.8281 -0.3748
  967MOL0     C30450  14.030   7.042  10.931 -0.3154 -0.3864  0.4917
  967MOL0     C30451  14.178   7.015  10.901 -0.1591 -0.4581  1.0685
  967MOL0     C30452  14.248   7.143  10.861  0.0872  0.1212 -0.2571
  967MOL0     C30453  14.375   7.098  10.783 -0.2904 -0.7168 -0.4337
  967MOL0    Cl30454  14.320   7.045  10.616 -0.1794 -0.4219 -0.5723
  967MOL0     C30455  13.529   6.649  11.141  0.8040  1.5971  0.9176
  967MOL0     C30456  13.427   6.564  11.168 -0.3189  0.6224  0.2846
  967MOL0     O30457  13.346   6.345  11.516  0.2747  0.0238 -0.4869
  967MOL0     C30458  13.096   6.221  11.570 -0.4527  1.1601 -0.5241
  967MOL0     C30459  12.967   6.168  11.588  0.6869 -0.1261  0.0184
  967MOL0     N30460  12.402   6.342  11.232  0.2972  0.4319  1.1329
  967MOL0     N30461  12.283   6.406  11.232  0.5108 -0.1256  0.3720
  967MOL0     C30462  11.242   6.016  10.691  0.2308 -0.2639  0.4727
  967MOL0     C30463  11.136   5.967  10.605  0.3250 -0.0350  0.6508
  967MOL0     C30464  10.719   5.791  10.458  0.4916  0.2661  0.1025
  967MOL0     C30465  10.760   5.839  10.330 -0.3699 -0.8496  0.2415
  967MOL0     C30466  10.678   5.831  10.220  0.1066  0.0466 -0.0538
  967MOL0     C30467  10.562   5.759  10.228 -0.1083  0.4136  0.0823
  967MOL0     O30468  10.484   5.736  10.120  0.7565  0.5595 -0.6460
  967MOL0     C30469  10.512   5.798   9.991 -0.9301  0.0581  0.2422
  967MOL0     C30470  10.464   5.942   9.987  0.2841  0.4477  0.7481
  967MOL0     C30471  10.501   6.003   9.852  0.5957  0.8918  0.4281
  967MOL0     C30472  10.645   6.060   9.844  1.3037  0.1042 -0.3938
  967MOL0     C30473  10.683   6.161   9.946  0.5691 -0.8613  0.4820
  967MOL0     C30474  10.716   6.260  10.014  0.0400 -0.2062  0.8128
  967MOL0     C30475  10.517   5.702  10.346 -0.8252  0.6533  0.2098
  967MOL0     C30476  10.594   5.724  10.460  0.6967  0.2988 -0.1900
  967MOL0     C30477  10.530   5.685  10.595  0.3277  0.0462 -0.8296
  967MOL0     H30478  10.899   5.900  10.841  1.8080 -3.7831  0.2372
  967MOL0     H30479  11.076   6.002  10.983  0.7594 -1.9559 -0.0057
  967MOL0     H30480  11.397   5.932  10.985 -1.9831  0.4598 -1.2175
  967MOL0     H30481  11.464   5.998  10.827  1.8503  2.2617 -0.4368
  967MOL0     H30482  11.470   6.127  11.107 -3.1994 -0.8056 -1.8295
  967MOL0     H30483  11.519   6.207  10.948  1.4927 -0.8306 -0.7036
  967MOL0     H30484  11.691   6.013  10.942  2.0876  2.7479 -0.8297
  967MOL0     H30485  11.642   5.987  11.109  0.4129 -0.4054 -1.0905
  967MOL0     H30486  11.779   6.229  10.988 -2.0937 -1.9708 -1.7767
  967MOL0     H30487  11.701   6.230  11.147  1.4402  2.3427 -0.7289
  967MOL0     H30488  11.878   6.014  11.148  1.4892 -0.3902  0.0335
  967MOL0     H30489  11.954   6.125  11.032  0.2414  0.1107  1.6247
  967MOL0     H30490  11.874   6.180  11.331 -0.8622 -2.6099 -1.2523
  967MOL0     H30491  12.033   6.157  11.277 -1.0977 -1.9755 -0.0269
  967MOL0     H30492  11.987   6.407  11.298 -2.0924 -1.8475  1.2308
  967MOL0     H30493  11.864   6.391  11.176 -0.8777  0.5749  0.6053
  967MOL0     H30494  12.031   6.335  11.011 -1.1724  0.5746 -0.6006
  967MOL0     H30495  12.073   6.491  11.078 -1.9638 -0.4940  0.7001
  967MOL0     H30496  12.225   6.143  11.031 -2.3041  2.5204  0.1132
  967MOL0     H30497  12.477   6.109  11.026  1.3817  0.1325 -0.2843
  967MOL0     H30498  12.592   6.209  11.108  0.1936 -0.3819 -4.5443
  967MOL0     H30499  12.478   5.988  11.290  1.3039 -2.7550  1.3478
  967MOL0     H30500  12.570   5.933  11.156  0.3650 -0.9096  0.6234
  967MOL0     H30501  12.765   6.091  11.247 -0.4897 -0.6373 -1.9122
  967MOL0     H30502  12.705   5.964  11.353 -1.7551  0.3355  0.5403
  967MOL0     H30503  12.543   6.125  11.458 -0.4416  3.8342 -0.8685
  967MOL0     H30504  12.625   6.255  11.393  2.5386  1.2190 -0.3810
  967MOL0     H30505  12.805   6.328  11.328 -0.7008 -0.4144  0.6003
  967MOL0     H30506  13.040   6.419  11.298  1.6217  1.7677  1.0907
  967MOL0     H30507  13.393   6.600  11.499 -0.3287 -3.4692 -0.2818
  967MOL0     H30508  13.580   6.749  11.457 -0.1053  0.8833 -1.0775
  967MOL0     H30509  13.894   6.796  11.137 -1.1573 -1.0497 -0.1014
  967MOL0     H30510  13.761   6.725  11.052  1.4006  1.8799 -2.6722
  967MOL0     H30511  13.644   6.950  11.069 -0.1958 -1.6681  0.0375
  967MOL0     H30512  13.794   7.021  11.106  2.0186 -2.1396  2.1181
  967MOL0     H30513  13.755   6.829  10.875  0.5264 -0.1411  0.4064
  967MOL0     H30514  13.760   7.005  10.855  0.7919  0.8375  0.5623
  967MOL0     H30515  13.945   6.902  10.787  1.1171 -1.4341 -0.1142
  967MOL0     H30516  13.973   6.828  10.951 -2.9227  0.6045  0.4005
  967MOL0     H30517  14.030   7.053  11.040  0.8704 -0.0604  0.4693
  967MOL0     H30518  13.993   7.127  10.873  2.4274 -0.8019 -2.0931
  967MOL0     H30519  14.232   6.962  10.980 -0.9054  1.4007  2.9225
  967MOL0     H30520  14.164   6.948  10.816 -2.8778 -0.2540  1.2763
  967MOL0     H30521  14.284   7.196  10.950  2.1228 -1.4681 -0.0532
  967MOL0     H30522  14.190   7.210  10.797 -2.9719 -2.8965 -0.9229
  967MOL0     H30523  14.447   7.181  10.787  1.1117 -1.7324 -2.4817
  967MOL0     H30524  14.420   7.021  10.846  1.3804 -0.0572 -0.7466
  967MOL0     H30525  13.553   6.663  11.037 -2.1518 -4.3007 -1.0391
  967MOL0     H30526  13.373   6.536  11.078 -0.2464  0.6350  0.2374
  967MOL0     H30527  13.174   6.197  11.643  1.3122  2.1009 -2.0160
  967MOL0     H30528  12.943   6.086  11.656  0.9269  0.1415  0.4252
  967MOL0     H30529  11.326   6.061  10.641 -0.2855  1.1879  0.8678
  967MOL0     H30530  11.141   5.966  10.496  0.5501 -2.6060  0.6120
  967MOL0     H30531  10.858   5.884  10.330 -0.3617 -0.6637  2.9281
  967MOL0     H30532  10.709   5.873  10.125 -2.1965  0.1573 -0.8228
  967MOL0     H30533  10.445   5.740   9.927 -0.5045 -0.2683  0.0812
  967MOL0     H30534  10.615   5.775   9.962 -1.3924 -0.3718 -1.1135
  967MOL0     H30535  10.512   5.991  10.072  0.4408 -0.8545  1.4531
  967MOL0     H30536  10.357   5.943  10.010  0.6118  0.8903  2.3846
  967MOL0     H30537  10.423   6.076   9.829  0.1245  0.3796  0.3704
  967MOL0     H30538  10.500   5.922   9.779 -0.2908 -0.6496  2.0470
  967MOL0     H30539  10.712   5.974   9.846 -1.8505 -2.6261 -2.4530
  967MOL0     H30540  10.656   6.109   9.747  2.0185  1.8171  0.4985
  967MOL0     H30541  10.723   6.344  10.080 -2.8912  1.0412 -0.3060
  967MOL0     H30542  10.426   5.642  10.341  0.3368 -1.1811  0.1283
  967MOL0     H30543  10.434   5.634  10.584  0.5194  0.1663 -4.4888
  967MOL0     H30544  10.586   5.600  10.633 -2.4499 -3.0393 -3.0665
  967MOL0     H30545  10.524   5.770  10.664 -0.2996  1.4064 -2.4571
  968MOL0     O30546   7.442   6.043   7.553 -1.2930 -0.1122  0.0559
  968MOL0     C30547   7.410   5.941   7.499  0.1720  0.0089  0.0279
  968MOL0     O30548   7.326   5.843   7.552 -0.0829  0.4096 -0.3885
  968MOL0     C30549   7.246   5.881   7.653  0.2814  0.2166 -0.4236
  968MOL0     C30550   7.136   5.962   7.639  0.0824  0.3508 -1.0296
  968MOL0     C30551   7.056   5.990   7.750  0.4682  0.1604 -0.3277
  968MOL0     C30552   7.085   5.948   7.881 -0.0821  0.0224  0.8987
  968MOL0     O30553   7.003   5.984   7.994 -0.2443 -0.8487  0.3354
  968MOL0     C30554   6.873   6.037   7.984  0.1847 -0.0488  0.3459
  968MOL0     C30555   6.858   6.191   7.974 -0.9165 -0.8418  0.0670
  968MOL0     C30556   6.968   6.280   8.043 -0.5443  0.1044 -0.3047
  968MOL0     C30557   6.975   6.261   8.200  0.8517  0.1151 -0.2827
  968MOL0     C30558   6.836   6.291   8.274 -0.3045  0.1654 -0.1247
  968MOL0     C30559   6.851   6.270   8.431 -0.8266  0.5489 -0.3694
  968MOL0     C30560   6.718   6.258   8.502  0.4314  1.3200  0.0969
  968MOL0     C30561   6.736   6.238   8.648 -0.1210 -0.9313 -0.2693
  968MOL0     N30562   6.612   6.210   8.722 -0.6825 -0.5099  0.1715
  968MOL0     C30563   6.479   6.260   8.699 -0.2687  0.7192 -0.1758
  968MOL0     C30564   6.399   6.208   8.796  0.7142  0.5254  0.3495
  968MOL0     C30565   6.254   6.228   8.815  0.4408 -0.1460 -0.3912
  968MOL0     C30566   6.215   6.164   8.949  0.3981  0.2795 -0.8128
  968MOL0     C30567   6.202   6.011   8.963  0.0006 -1.1330  0.6351
  968MOL0     C30568   6.084   5.958   8.890  0.0986  0.0424 -0.0600
  968MOL0     O30569   6.087   5.989   8.751 -0.0969 -0.2063 -0.1277
  968MOL0     C30570   5.975   5.967   8.675  0.2846  0.1572  0.7369
  968MOL0     C30571   5.861   5.897   8.711 -0.0938  0.6774  0.6235
  968MOL0     C30572   5.747   5.877   8.635  0.3568 -0.2270 -0.2240
  968MOL0     C30573   5.743   5.962   8.519  0.4249  0.5795  0.0752
  968MOL0     C30574   5.613   5.974   8.449  0.3049 -0.0341 -0.3777
  968MOL0     O30575   5.595   6.075   8.358  1.0278  0.1453 -0.5078
  968MOL0     C30576   5.469   6.088   8.290  0.2903 -0.6754  0.5312
  968MOL0     C30577   5.341   6.025   8.333 -0.1626 -0.1116  0.7687
  968MOL0     C30578   5.233   6.040   8.250 -0.8921 -0.3936  0.0119
  968MOL0     C30579   5.235   6.112   8.132 -0.4913  0.1982 -0.2068
  968MOL0     O30580   5.121   6.134   8.059 -0.0574 -0.4667 -0.0324
  968MOL0     C30581   5.004   6.047   8.067  0.1008 -0.2953 -0.0626
  968MOL0     C30582   4.901   6.097   7.962 -0.0547 -0.2865  0.2575
  968MOL0     C30583   4.781   6.012   7.968 -0.4489 -0.1365  0.0429
  968MOL0     C30584   4.710   6.034   7.834  0.1173 -0.0084  0.2637
  968MOL0     C30585   4.566   5.992   7.841 -0.2937  0.2057 -1.6235
  968MOL0     C30586   4.497   6.013   7.711 -0.0252 -0.0259  0.6918
  968MOL0     C30587   4.346   5.990   7.720  0.3407 -0.0373  0.2821
  968MOL0     C30588   4.267   6.024   7.595  0.6421 -0.3709 -1.2342
  968MOL0    Cl30589   4.242   6.201   7.582  0.5361  0.4720 -0.1487
  968MOL0     C30590   5.352   6.169   8.086 -0.2945 -0.2354 -0.4869
  968MOL0     C30591   5.469   6.159   8.164  0.0685 -0.4801 -0.4274
  968MOL0     O30592   5.539   5.872   8.471 -0.4126  0.7083  0.2238
  968MOL0     C30593   5.859   6.030   8.479 -0.5010 -0.0104 -0.0693
  968MOL0     C30594   5.972   6.037   8.554  0.5012 -0.5693  0.1898
  968MOL0     N30595   6.487   6.166   8.885  0.1196  0.4544  0.2387
  968MOL0     N30596   6.613   6.171   8.845  0.0069  0.3840 -0.1533
  968MOL0     C30597   7.193   5.866   7.893  0.8354  0.3503 -0.3235
  968MOL0     C30598   7.269   5.829   7.778  0.1548  0.4127 -1.0746
  968MOL0     C30599   7.481   5.902   7.372  0.1979 -0.0822  0.0037
  968MOL0     C30600   7.610   5.957   7.345  0.0044  0.2985  0.5093
  968MOL0     C30601   7.686   5.915   7.235  0.5894 -0.2065  0.6166
  968MOL0     C30602   7.632   5.814   7.157 -0.1100  0.3102 -0.5878
  968MOL0     O30603   7.719   5.754   7.073  0.6286  0.4002  0.8795
  968MOL0     C30604   7.705   5.617   7.054 -0.1731 -0.4854 -0.1546
  968MOL0     C30605   7.842   5.552   7.034 -0.6640  0.4780 -0.1831
  968MOL0     C30606   7.827   5.410   6.976 -0.5285  0.4974 -0.2213
  968MOL0     C30607   7.957   5.355   6.925  0.5991 -0.2886  0.5678
  968MOL0     C30608   7.988   5.376   6.782 -0.9145 -0.6220 -0.6895
  968MOL0     C30609   8.024   5.379   6.668 -0.3241 -0.3023  0.3522
  968MOL0     C30610   7.498   5.775   7.168 -1.2256 -0.8594 -0.2706
  968MOL0     C30611   7.425   5.820   7.276  1.0967  0.0423  0.6083
  968MOL0     C30612   7.275   5.788   7.269 -0.6421 -0.3460  0.1929
  968MOL0     H30613   7.111   6.005   7.543 -0.6929  0.5459 -0.7500
  968MOL0     H30614   6.958   6.036   7.740 -1.7954 -2.8800  4.3022
  968MOL0     H30615   6.823   5.989   7.899  0.6777  0.3573 -0.1848
  968MOL0     H30616   6.824   6.014   8.078 -1.2784  0.7350 -0.2050
  968MOL0     H30617   6.760   6.227   8.006 -0.4675  1.6963 -1.1455
  968MOL0     H30618   6.856   6.211   7.867 -1.4686  2.2800  0.5572
  968MOL0     H30619   6.960   6.384   8.008 -2.7658 -0.2699 -1.0542
  968MOL0     H30620   7.065   6.261   7.995 -0.0971  3.1743 -0.8471
  968MOL0     H30621   7.024   6.168   8.229  2.7459  2.5151  5.6982
  968MOL0     H30622   7.043   6.337   8.240 -0.8418  0.9943  1.0051
  968MOL0     H30623   6.797   6.391   8.254 -1.5617 -0.4468 -0.9231
  968MOL0     H30624   6.751   6.233   8.235  0.2710 -1.3964  0.8649
  968MOL0     H30625   6.905   6.174   8.436  0.8455  1.5145  1.1725
  968MOL0     H30626   6.913   6.345   8.479  0.8357 -0.3883 -0.9550
  968MOL0     H30627   6.666   6.177   8.450  2.4032 -1.0038  1.5088
  968MOL0     H30628   6.658   6.349   8.490  0.9430  1.6144 -0.2864
  968MOL0     H30629   6.805   6.156   8.669 -0.3757 -1.2893 -0.8209
  968MOL0     H30630   6.780   6.329   8.691 -2.2658 -0.1928  0.4913
  968MOL0     H30631   6.451   6.328   8.619 -1.5767  1.3710  0.7862
  968MOL0     H30632   6.221   6.332   8.813 -2.0136 -0.7767  1.4608
  968MOL0     H30633   6.197   6.192   8.729 -2.7971  1.0995  1.0652
  968MOL0     H30634   6.287   6.199   9.023  0.7156  0.7619 -1.3388
  968MOL0     H30635   6.119   6.209   8.976 -0.0145 -1.1155  0.1334
  968MOL0     H30636   6.199   5.981   9.068  2.7424 -1.1469  0.7616
  968MOL0     H30637   6.296   5.980   8.916  0.2085  1.2561 -0.6935
  968MOL0     H30638   5.993   5.993   8.939 -0.0469  0.8000 -0.8508
  968MOL0     H30639   6.087   5.850   8.909  1.3100  0.3756  1.9608
  968MOL0     H30640   5.862   5.847   8.808  0.2989 -0.4794  0.0372
  968MOL0     H30641   5.667   5.815   8.674  0.2228  0.0154 -0.1042
  968MOL0     H30642   5.322   5.962   8.420 -0.0415  1.8090  2.2336
  968MOL0     H30643   5.136   5.998   8.275 -1.4708  0.3839 -0.8407
  968MOL0     H30644   5.021   5.940   8.056 -2.4395 -0.8197  0.3816
  968MOL0     H30645   4.962   6.065   8.167 -1.4420  2.1788 -1.0484
  968MOL0     H30646   4.873   6.200   7.985 -2.4052 -0.9992  0.9109
  968MOL0     H30647   4.941   6.089   7.860 -3.2965  2.9420 -1.5059
  968MOL0     H30648   4.817   5.909   7.960  0.4768  0.1337  0.5206
  968MOL0     H30649   4.715   6.047   8.048  1.2117  1.2805  0.8617
  968MOL0     H30650   4.757   5.964   7.764  1.9912  2.3902 -1.0693
  968MOL0     H30651   4.724   6.136   7.796 -2.2030  1.1347  2.2029
  968MOL0     H30652   4.521   6.049   7.922  1.7068  0.0776 -0.3334
  968MOL0     H30653   4.560   5.889   7.879  1.2657  0.2191 -1.2705
  968MOL0     H30654   4.510   6.117   7.680  1.6386 -0.6823 -0.9341
  968MOL0     H30655   4.537   5.938   7.643  1.9748 -0.4575  2.2525
  968MOL0     H30656   4.316   6.055   7.803  2.1403  1.0201  0.1698
  968MOL0     H30657   4.321   5.889   7.753 -0.4467  0.6546  1.8867
  968MOL0     H30658   4.330   6.004   7.508  3.3147  4.3507 -0.7210
  968MOL0     H30659   4.172   5.969   7.594 -0.0348  0.6529  0.9188
  968MOL0     H30660   5.343   6.224   7.993 -4.0599 -2.2429 -1.5005
  968MOL0     H30661   5.558   6.212   8.130  1.0837 -0.6927  1.7293
  968MOL0     H30662   5.867   6.084   8.386  2.2422 -1.8938 -1.0682
  968MOL0     H30663   6.065   6.080   8.518 -0.4141  0.1018 -1.5249
  968MOL0     H30664   7.218   5.838   7.995 -0.4344  0.3068 -0.0007
  968MOL0     H30665   7.354   5.762   7.788 -0.1944 -0.0161 -0.9356
  968MOL0     H30666   7.650   6.036   7.408  1.1687 -0.7074  1.0605
  968MOL0     H30667   7.789   5.948   7.236  0.8681 -0.9745 -0.4351
  968MOL0     H30668   7.643   5.598   6.965  1.1210  0.3737 -1.2867
  968MOL0     H30669   7.649   5.572   7.136  0.8929 -0.9575  0.3389
  968MOL0     H30670   7.895   5.550   7.130  1.0741  1.0010 -1.0901
  968MOL0     H30671   7.915   5.614   6.980 -1.5201  0.7455 -1.0609
  968MOL0     H30672   7.751   5.388   6.900 -1.7803 -0.7189  1.2907
  968MOL0     H30673   7.784   5.357   7.062 -2.5462  1.8470 -0.3239
  968MOL0     H30674   8.030   5.403   6.991 -1.1311  1.4295  1.3498
  968MOL0     H30675   7.972   5.248   6.935  1.3829 -0.2721 -0.2853
  968MOL0     H30676   8.062   5.369   6.568  0.0061 -1.2023  0.5538
  968MOL0     H30677   7.449   5.711   7.096  2.5830 -1.4432 -2.6395
  968MOL0     H30678   7.210   5.876   7.281 -1.9810 -1.2616 -0.2111
  968MOL0     H30679   7.250   5.743   7.173  2.0635 -1.2383 -0.1719
  968MOL0     H30680   7.249   5.723   7.352  2.3207  2.3673  3.5967
  969MOL0     O30681  10.150   7.098   7.463  0.6591 -0.2094 -0.0254
  969MOL0     C30682  10.053   7.023   7.436  0.5624  0.0437 -0.0923
  969MOL0     O30683  10.054   6.882   7.468  0.0608 -0.1332  2.0838
  969MOL0     C30684  10.183   6.826   7.470  0.2523  0.4156  0.3254
  969MOL0     C30685  10.255   6.806   7.347  0.0955  0.3474 -1.1010
  969MOL0     C30686  10.394   6.776   7.356  1.0522  0.2164 -0.0317
  969MOL0     C30687  10.450   6.722   7.478  0.4096 -0.5756 -0.2216
  969MOL0     O30688  10.576   6.684   7.482 -0.3241  0.0751 -0.2086
  969MOL0     C30689  10.664   6.746   7.575 -0.2587  0.1952  0.5369
  969MOL0     C30690  10.777   6.826   7.495  1.1660  0.1806  0.2715
  969MOL0     C30691  10.882   6.737   7.426  0.0833  0.5150  0.4656
  969MOL0     C30692  11.007   6.820   7.408  0.0490  0.3045  0.7031
  969MOL0     C30693  11.115   6.745   7.323  0.3731 -0.3712 -0.7023
  969MOL0     C30694  11.190   6.642   7.413 -0.1146  1.1569 -0.2269
  969MOL0     C30695  11.298   6.578   7.332  0.4773 -0.8396  0.8234
  969MOL0     C30696  11.361   6.448   7.385  0.5005  0.1841 -0.2877
  969MOL0     N30697  11.469   6.466   7.479 -0.0386  0.0457  0.1427
  969MOL0     C30698  11.567   6.561   7.486 -0.3736 -0.5788 -0.2401
  969MOL0     C30699  11.654   6.521   7.579 -0.5633  0.6185  0.6377
  969MOL0     C30700  11.777   6.601   7.599 -0.0361  0.2651 -0.4747
  969MOL0     C30701  11.740   6.738   7.659 -0.0430 -0.5335 -0.4059
  969MOL0     C30702  11.684   6.734   7.802 -0.4849 -0.3720  0.2322
  969MOL0     C30703  11.787   6.714   7.913 -0.3369  0.6944  0.1462
  969MOL0     O30704  11.875   6.825   7.944 -0.4280  0.1272 -0.3183
  969MOL0     C30705  11.980   6.812   8.040 -0.8741  0.1934  0.4628
  969MOL0     C30706  11.971   6.718   8.148 -0.6091 -0.7732 -0.7736
  969MOL0     C30707  12.068   6.730   8.254  0.0940 -0.6780 -0.0910
  969MOL0     C30708  12.159   6.836   8.249 -0.1006  0.4598 -0.1773
  969MOL0     C30709  12.240   6.861   8.368 -0.0838 -0.6909  0.6538
  969MOL0     O30710  12.231   6.772   8.473  0.1102  0.2145  0.8258
  969MOL0     C30711  12.299   6.783   8.590  0.4569  0.2397 -0.0596
  969MOL0     C30712  12.425   6.845   8.612  0.5083  0.7923 -0.3402
  969MOL0     C30713  12.490   6.819   8.736  0.6018 -1.0419  0.9407
  969MOL0     C30714  12.428   6.759   8.840  0.8391  0.0275 -0.0036
  969MOL0     O30715  12.475   6.742   8.971 -0.5197  0.2467 -0.3217
  969MOL0     C30716  12.550   6.844   9.020  0.4334 -0.9183  0.6863
  969MOL0     C30717  12.560   6.847   9.181  0.0733 -0.0959  0.1754
  969MOL0     C30718  12.638   6.724   9.233 -0.5808  0.5030 -0.2486
  969MOL0     C30719  12.650   6.733   9.385  0.5390  0.5929  0.1728
  969MOL0     C30720  12.751   6.635   9.436 -0.3282 -0.1146 -0.2215
  969MOL0     C30721  12.756   6.640   9.592  0.8909 -0.9633 -0.6513
  969MOL0     C30722  12.880   6.566   9.656 -0.2360  0.1135  0.7155
  969MOL0     C30723  12.882   6.417   9.630  0.6686 -0.1183 -0.2194
  969MOL0    Cl30724  12.727   6.335   9.644  0.1567  0.4094  0.3960
  969MOL0     C30725  12.303   6.696   8.819  0.1103  0.0122 -0.1814
  969MOL0     C30726  12.243   6.710   8.700 -0.8476  0.8356  0.0662
  969MOL0     O30727  12.309   6.961   8.362 -0.5881  0.5993 -0.3107
  969MOL0     C30728  12.160   6.932   8.140  0.3556  0.1730  0.3835
  969MOL0     C30729  12.072   6.913   8.041 -0.3111  0.0727 -0.5333
  969MOL0     N30730  11.609   6.400   7.636  0.4636 -1.1316 -0.1353
  969MOL0     N30731  11.496   6.373   7.579 -0.3127  0.5493 -0.2333
  969MOL0     C30732  10.362   6.715   7.590 -0.3108 -0.1065  0.4865
  969MOL0     C30733  10.248   6.784   7.591 -0.3893 -0.7285 -0.4666
  969MOL0     C30734   9.922   7.072   7.370 -0.0476  0.0788 -0.6088
  969MOL0     C30735   9.813   6.977   7.363 -0.0417  0.1041 -0.2238
  969MOL0     C30736   9.700   7.016   7.295 -0.0906 -0.0726  0.5563
  969MOL0     C30737   9.672   7.135   7.235  0.3428  1.0262  0.5797
  969MOL0     O30738   9.549   7.142   7.176  0.5606  0.6585 -0.1989
  969MOL0     C30739   9.484   7.268   7.146  0.6633 -0.7009  0.5461
  969MOL0     C30740   9.361   7.232   7.063  0.3454 -0.2538 -0.3822
  969MOL0     C30741   9.275   7.133   7.135  0.4893  0.3365 -0.1986
  969MOL0     C30742   9.128   7.163   7.108 -0.3973  0.1691  0.2173
  969MOL0     C30743   9.045   7.085   7.198 -0.3551  0.2830 -0.5896
  969MOL0     C30744   8.996   7.021   7.288 -0.4063 -0.0839 -0.3211
  969MOL0     C30745   9.775   7.229   7.239 -0.3346  1.0659  0.4815
  969MOL0     C30746   9.896   7.201   7.309 -0.6668  0.5755  0.3056
  969MOL0     C30747  10.004   7.317   7.313 -0.8537  0.1948 -0.5370
  969MOL0     H30748  10.202   6.837   7.257  0.4693  2.2753 -0.7007
  969MOL0     H30749  10.451   6.774   7.263 -0.6791 -0.5706 -1.1232
  969MOL0     H30750  10.610   6.811   7.645 -1.4260 -1.9310  1.6894
  969MOL0     H30751  10.715   6.666   7.628 -2.2166 -1.7457 -0.3563
  969MOL0     H30752  10.824   6.902   7.558  0.2118 -1.2560  2.8584
  969MOL0     H30753  10.712   6.865   7.417 -0.7560 -1.8699  0.7602
  969MOL0     H30754  10.834   6.717   7.330 -2.2125 -2.8967  2.1389
  969MOL0     H30755  10.896   6.640   7.474  1.7122  0.2576 -0.4432
  969MOL0     H30756  10.987   6.917   7.362  1.2076 -0.6630 -2.0553
  969MOL0     H30757  11.047   6.852   7.505 -1.8406  2.7214  0.7687
  969MOL0     H30758  11.076   6.696   7.234  1.7121 -1.1648 -0.8779
  969MOL0     H30759  11.178   6.820   7.275 -1.3222  1.4695 -0.2041
  969MOL0     H30760  11.228   6.691   7.503  1.4786 -1.6383  0.7343
  969MOL0     H30761  11.121   6.561   7.440  1.2212  0.2540  0.5732
  969MOL0     H30762  11.371   6.659   7.319 -0.3384 -0.4621 -2.1821
  969MOL0     H30763  11.271   6.558   7.228  0.9459 -1.9540  0.9031
  969MOL0     H30764  11.286   6.400   7.449  3.4393 -0.9158  2.6015
  969MOL0     H30765  11.397   6.379   7.309 -0.8193 -1.2670  0.3446
  969MOL0     H30766  11.585   6.647   7.422  3.2870 -0.8783  0.1707
  969MOL0     H30767  11.847   6.548   7.664 -2.8000 -1.8697  0.9745
  969MOL0     H30768  11.823   6.630   7.504 -1.2140  3.1704 -0.2420
  969MOL0     H30769  11.818   6.813   7.650 -0.9938  0.6971  1.1017
  969MOL0     H30770  11.656   6.771   7.596 -1.2524 -0.2393  1.2875
  969MOL0     H30771  11.609   6.654   7.800 -0.7221 -0.1586 -1.8183
  969MOL0     H30772  11.638   6.832   7.815 -2.0011 -1.1034  0.5662
  969MOL0     H30773  11.851   6.635   7.874 -0.3504 -0.0788  1.6280
  969MOL0     H30774  11.737   6.674   8.001 -0.6953 -1.7149 -1.0850
  969MOL0     H30775  11.891   6.647   8.160  0.5695 -1.8219  1.7699
  969MOL0     H30776  12.057   6.670   8.345 -0.4065  3.1141  2.5857
  969MOL0     H30777  12.473   6.876   8.520  0.3975 -2.0389 -1.4635
  969MOL0     H30778  12.586   6.865   8.758  0.1516  0.8055 -0.5949
  969MOL0     H30779  12.652   6.842   8.979  0.7163  1.0784  1.1456
  969MOL0     H30780  12.506   6.938   8.983 -2.8319 -2.0478  1.4231
  969MOL0     H30781  12.621   6.928   9.223 -1.2815  0.6512  0.7982
  969MOL0     H30782  12.457   6.846   9.219  1.1489 -3.8324  3.6458
  969MOL0     H30783  12.581   6.635   9.204  2.9894 -1.7239 -1.0247
  969MOL0     H30784  12.736   6.729   9.184 -1.7398 -1.5111 -3.0462
  969MOL0     H30785  12.554   6.709   9.433 -1.5653  2.1366 -2.9288
  969MOL0     H30786  12.681   6.831   9.422 -0.7924  0.9314  0.4481
  969MOL0     H30787  12.854   6.653   9.403 -0.3928  0.3223 -0.1934
  969MOL0     H30788  12.722   6.540   9.391 -0.1072 -0.0345 -0.5460
  969MOL0     H30789  12.764   6.745   9.621 -2.0685  0.1523 -3.2811
  969MOL0     H30790  12.667   6.603   9.643  0.5557  3.1990  2.2947
  969MOL0     H30791  12.877   6.573   9.765 -2.8018  0.0247  0.7218
  969MOL0     H30792  12.970   6.611   9.614  0.0219  0.9082  2.0741
  969MOL0     H30793  12.917   6.403   9.527  0.8826  0.3169 -0.2060
  969MOL0     H30794  12.952   6.369   9.699 -0.0831 -0.0452  0.6077
  969MOL0     H30795  12.236   6.659   8.896 -3.9414  0.8267 -2.9496
  969MOL0     H30796  12.159   6.643   8.685 -1.6194  2.0557 -1.2656
  969MOL0     H30797  12.233   7.010   8.121  1.6797 -1.1052  0.0516
  969MOL0     H30798  12.082   6.987   7.962  4.6123  1.1071  0.7044
  969MOL0     H30799  10.396   6.667   7.682  1.6060  1.2785  0.5692
  969MOL0     H30800  10.202   6.812   7.685 -0.0955  1.5017 -0.9224
  969MOL0     H30801   9.810   6.878   7.407 -1.8133  0.4397  0.5218
  969MOL0     H30802   9.625   6.941   7.271  1.3083 -0.4451 -3.4046
  969MOL0     H30803   9.551   7.335   7.092 -0.5414  1.7685  1.9338
  969MOL0     H30804   9.459   7.319   7.239 -1.6360  1.4345 -1.1304
  969MOL0     H30805   9.391   7.179   6.972 -3.3319 -0.8941 -1.3798
  969MOL0     H30806   9.305   7.324   7.048  0.0222 -0.4908 -0.6465
  969MOL0     H30807   9.301   7.151   7.240  1.0360  3.7784 -0.7783
  969MOL0     H30808   9.293   7.029   7.108 -0.0397  0.4762 -1.1206
  969MOL0     H30809   9.113   7.268   7.136  0.0476 -0.2963  2.3534
  969MOL0     H30810   9.101   7.144   7.004 -2.3919  2.5480  0.2204
  969MOL0     H30811   8.940   6.964   7.360 -1.7091  0.1118 -1.1514
  969MOL0     H30812   9.761   7.332   7.205  0.8358  2.0361  2.7044
  969MOL0     H30813  10.102   7.288   7.273 -0.4441 -0.1708  0.7124
  969MOL0     H30814   9.984   7.409   7.256 -0.8090  1.2466  1.1042
  969MOL0     H30815  10.023   7.337   7.418 -1.3803 -1.6748 -0.0516
  970MOL0     O30816   3.473   2.021   3.138 -0.7400  0.2918 -0.4792
  970MOL0     C30817   3.405   2.003   3.240  0.2062 -0.3396 -0.4576
  970MOL0     O30818   3.456   1.937   3.353 -0.3163 -0.0470 -0.1406
  970MOL0     C30819   3.591   1.934   3.360  0.1682  0.2224 -0.1077
  970MOL0     C30820   3.657   2.038   3.429  0.7052  0.8339  0.3013
  970MOL0     C30821   3.795   2.024   3.458 -0.6174 -0.3534  0.1223
  970MOL0     C30822   3.872   1.911   3.410  0.6004 -0.7886  0.3382
  970MOL0     O30823   4.004   1.920   3.446  0.0435 -0.5946  0.0900
  970MOL0     C30824   4.094   1.813   3.397 -0.1962  0.3978 -0.3828
  970MOL0     C30825   4.238   1.877   3.393  0.5764  0.0449  0.4137
  970MOL0     C30826   4.305   1.899   3.525  0.0953  0.5270 -0.5501
  970MOL0     C30827   4.452   1.930   3.498  0.0648 -0.0393 -0.4568
  970MOL0     C30828   4.529   1.928   3.633 -0.5100  0.1871 -0.1064
  970MOL0     C30829   4.683   1.935   3.618  0.5740  0.2681  0.2569
  970MOL0     C30830   4.747   1.986   3.754 -0.3556  0.5742 -0.1225
  970MOL0     C30831   4.895   1.964   3.758 -0.3453  0.3434 -0.6287
  970MOL0     N30832   4.974   2.026   3.654 -0.5969  1.0077  0.9682
  970MOL0     C30833   5.011   1.953   3.537 -0.2270 -0.5297 -0.8798
  970MOL0     C30834   5.099   2.031   3.479  0.0489 -0.4372 -0.2880
  970MOL0     C30835   5.178   1.998   3.361 -0.3314 -1.1073 -0.2064
  970MOL0     C30836   5.315   1.940   3.395  1.0552 -0.0881 -0.4902
  970MOL0     C30837   5.419   2.048   3.451  0.3747  0.7197 -0.7921
  970MOL0     C30838   5.457   2.147   3.345 -0.1480 -0.4688  0.3304
  970MOL0     O30839   5.534   2.243   3.416 -0.1308  0.1665  0.2939
  970MOL0     C30840   5.671   2.235   3.387  1.2338  0.0506  0.1634
  970MOL0     C30841   5.749   2.239   3.496  0.1959 -0.4132  0.2373
  970MOL0     C30842   5.892   2.235   3.487 -0.5710  0.4174  0.1386
  970MOL0     C30843   5.949   2.233   3.360  0.2373 -0.0002  0.0493
  970MOL0     C30844   6.098   2.242   3.343 -0.0826 -0.3003  0.8758
  970MOL0     O30845   6.146   2.258   3.213  0.8994 -0.0607 -0.5026
  970MOL0     C30846   6.284   2.260   3.185 -0.2145 -0.5803  0.3950
  970MOL0     C30847   6.381   2.173   3.246 -0.6076 -0.0754  0.1142
  970MOL0     C30848   6.517   2.177   3.194  0.3233 -0.7681 -0.9309
  970MOL0     C30849   6.562   2.271   3.101 -0.0274  1.0552 -0.4993
  970MOL0     O30850   6.690   2.264   3.064 -0.2768 -0.1929  0.2002
  970MOL0     C30851   6.773   2.150   3.097 -0.5035 -0.7805  0.1010
  970MOL0     C30852   6.922   2.162   3.065 -0.3692  0.7620  0.0976
  970MOL0     C30853   6.997   2.036   3.091  0.7437  0.3426  0.4254
  970MOL0     C30854   7.148   2.065   3.097  0.7177  0.1345  0.2974
  970MOL0     C30855   7.233   1.939   3.127 -1.2539  0.3818 -0.5279
  970MOL0     C30856   7.199   1.862   3.255 -0.0519 -0.2229  1.3070
  970MOL0     C30857   7.288   1.730   3.279  0.3344  0.3808  0.2174
  970MOL0     C30858   7.440   1.744   3.243  0.0038 -0.3411  0.5304
  970MOL0    Cl30859   7.525   1.599   3.281  0.2388  0.1513  0.0906
  970MOL0     C30860   6.469   2.361   3.059 -0.5539 -1.1573  0.1771
  970MOL0     C30861   6.330   2.354   3.090  0.3163  0.0181 -0.2479
  970MOL0     O30862   6.168   2.239   3.443  0.2351  0.4566  0.0484
  970MOL0     C30863   5.867   2.221   3.247  0.2218  0.2032 -1.1661
  970MOL0     C30864   5.731   2.225   3.261 -0.1087  0.3557  0.6599
  970MOL0     N30865   5.109   2.153   3.545  0.6679 -0.3089 -0.3236
  970MOL0     N30866   5.033   2.145   3.655 -0.4472  0.1310 -0.6300
  970MOL0     C30867   3.805   1.814   3.328  0.1272 -0.6534 -0.3384
  970MOL0     C30868   3.667   1.827   3.305  0.8390  0.1361  0.2574
  970MOL0     C30869   3.253   2.007   3.228 -0.1750  0.5328  0.3945
  970MOL0     C30870   3.205   2.045   3.098  0.3965  0.0382  0.1724
  970MOL0     C30871   3.071   2.055   3.076 -0.2539  1.2110 -0.1742
  970MOL0     C30872   2.981   2.036   3.178  0.3038 -0.1191  0.5669
  970MOL0     O30873   2.844   2.054   3.165  0.1271  0.1904  0.5395
  970MOL0     C30874   2.785   1.993   3.046  0.7953  0.3790 -0.3918
  970MOL0     C30875   2.627   1.989   3.070 -0.6406 -0.0679 -0.0497
  970MOL0     C30876   2.552   2.127   3.086 -0.2441  0.0546  0.0403
  970MOL0     C30877   2.568   2.217   2.962 -0.4384 -0.2375  0.1276
  970MOL0     C30878   2.482   2.173   2.850 -1.0886 -0.1027 -0.5189
  970MOL0     C30879   2.407   2.132   2.767 -0.7259  0.4232 -1.0326
  970MOL0     C30880   3.028   2.017   3.313  0.8160 -0.0754  0.0623
  970MOL0     C30881   3.161   1.991   3.335  0.6131 -0.5193 -0.3435
  970MOL0     C30882   3.209   1.993   3.477 -0.0207  0.7300 -0.2547
  970MOL0     H30883   3.601   2.126   3.458  2.6961  3.6467 -3.4798
  970MOL0     H30884   3.845   2.099   3.519 -3.1407  1.6437 -0.1041
  970MOL0     H30885   4.087   1.720   3.453 -1.6211  0.0213 -1.1256
  970MOL0     H30886   4.060   1.787   3.296 -0.8180  0.0552 -0.0863
  970MOL0     H30887   4.219   1.965   3.331 -2.9558  0.2547  1.6034
  970MOL0     H30888   4.299   1.806   3.335  1.3936 -0.2429  1.5873
  970MOL0     H30889   4.298   1.812   3.591 -1.8061  2.4492  1.9772
  970MOL0     H30890   4.261   1.981   3.583  1.1692 -2.3130  4.8970
  970MOL0     H30891   4.500   1.864   3.426 -1.7759  1.0677 -2.8450
  970MOL0     H30892   4.462   2.027   3.449 -1.1468 -0.0081 -0.6752
  970MOL0     H30893   4.494   2.010   3.696 -1.0483  0.6340 -0.9790
  970MOL0     H30894   4.499   1.833   3.677  1.1496 -0.2159  0.2328
  970MOL0     H30895   4.724   1.846   3.571  0.1209 -0.1514  0.6438
  970MOL0     H30896   4.688   2.008   3.537 -1.2477 -0.6267 -0.7294
  970MOL0     H30897   4.697   1.934   3.837  1.3166 -2.2043 -0.7037
  970MOL0     H30898   4.721   2.092   3.758 -0.2123  0.5953  3.7038
  970MOL0     H30899   4.929   2.004   3.854 -2.4818 -0.3018  0.4574
  970MOL0     H30900   4.909   1.856   3.766  0.9007  0.6268  3.2648
  970MOL0     H30901   4.998   1.851   3.504  1.7158 -0.6048 -1.5313
  970MOL0     H30902   5.121   1.936   3.291 -0.5348 -2.4715  1.1185
  970MOL0     H30903   5.192   2.094   3.310 -0.9327 -0.7815  0.2225
  970MOL0     H30904   5.301   1.853   3.461 -0.0582  0.6451  0.2694
  970MOL0     H30905   5.345   1.885   3.305 -0.4668 -3.2894  0.7756
  970MOL0     H30906   5.505   1.983   3.467 -2.1255 -2.4600  1.0218
  970MOL0     H30907   5.380   2.077   3.548 -3.4046 -1.6141 -1.3755
  970MOL0     H30908   5.366   2.189   3.301  0.1405 -1.9447 -1.8698
  970MOL0     H30909   5.508   2.092   3.265 -0.2195  0.9702 -0.7537
  970MOL0     H30910   5.708   2.253   3.595 -2.3515 -2.6829 -0.3603
  970MOL0     H30911   5.960   2.228   3.572  1.4416 -0.3883 -1.4481
  970MOL0     H30912   6.358   2.101   3.323 -0.1632  0.1428  0.4626
  970MOL0     H30913   6.579   2.100   3.240  2.1234  1.1154 -0.0762
  970MOL0     H30914   6.779   2.133   3.204 -1.6618 -0.4737  0.2317
  970MOL0     H30915   6.742   2.057   3.050 -0.9618 -1.0082  0.8395
  970MOL0     H30916   6.924   2.201   2.963 -1.3062  0.1004 -0.1898
  970MOL0     H30917   6.970   2.230   3.136  1.2369  0.6559 -0.8555
  970MOL0     H30918   6.959   1.984   3.179 -2.4742 -0.6599 -1.3884
  970MOL0     H30919   6.969   1.967   3.011 -2.3536  1.1900  0.6344
  970MOL0     H30920   7.157   2.128   3.186 -1.6342 -0.4962  1.0678
  970MOL0     H30921   7.189   2.117   3.010 -0.9635 -1.1512 -1.3510
  970MOL0     H30922   7.336   1.974   3.140 -0.9402 -0.6358 -0.1365
  970MOL0     H30923   7.241   1.869   3.043  1.4386 -3.8009  2.7419
  970MOL0     H30924   7.202   1.926   3.344 -3.2080  1.5549  0.3098
  970MOL0     H30925   7.093   1.836   3.252 -0.5285  1.6545 -0.1954
  970MOL0     H30926   7.253   1.644   3.222 -0.6976  0.1062  1.2263
  970MOL0     H30927   7.280   1.700   3.384 -0.2596  1.5014  0.5084
  970MOL0     H30928   7.458   1.759   3.137 -0.6942  0.9854  0.5757
  970MOL0     H30929   7.480   1.836   3.287 -0.6794  0.6748 -0.8978
  970MOL0     H30930   6.504   2.441   2.995  0.3746 -1.8949 -0.2708
  970MOL0     H30931   6.261   2.424   3.043  2.0333  1.7604 -0.3171
  970MOL0     H30932   5.907   2.214   3.146  1.1126  0.9592 -0.8880
  970MOL0     H30933   5.670   2.223   3.171 -2.0137  1.3181  1.8504
  970MOL0     H30934   3.853   1.726   3.287 -2.3108 -2.5136  0.5364
  970MOL0     H30935   3.622   1.748   3.246  0.1403 -0.8904  2.0672
  970MOL0     H30936   3.266   2.059   3.009 -0.9213 -1.4401 -1.0258
  970MOL0     H30937   3.044   2.086   2.976 -3.3068 -0.9560 -0.1765
  970MOL0     H30938   2.820   1.891   3.028 -3.8006 -1.3889 -0.6753
  970MOL0     H30939   2.822   2.046   2.958  2.7795 -1.4926 -0.7759
  970MOL0     H30940   2.613   1.940   3.167 -1.2663  1.3803  0.6135
  970MOL0     H30941   2.578   1.925   2.996 -1.5133  0.5959 -0.0574
  970MOL0     H30942   2.591   2.177   3.175 -1.7595  0.1757  0.6723
  970MOL0     H30943   2.447   2.103   3.104 -0.2341 -1.9125 -2.0439
  970MOL0     H30944   2.552   2.323   2.981  0.2568 -0.3165  1.2441
  970MOL0     H30945   2.670   2.198   2.927 -1.0060 -3.2958 -0.1927
  970MOL0     H30946   2.330   2.086   2.709 -1.7884  0.3128  0.4058
  970MOL0     H30947   2.960   2.033   3.396  2.5230 -0.8879  1.6791
  970MOL0     H30948   3.267   2.081   3.506  0.2860  1.0662 -1.8333
  970MOL0     H30949   3.121   1.997   3.542 -0.5588 -2.4746 -0.6335
  970MOL0     H30950   3.261   1.898   3.494  0.4367  1.0173 -0.0343
  971MOL0     O30951   6.469   3.260   4.044 -1.2684 -0.1051 -0.4496
  971MOL0     C30952   6.508   3.176   4.128  0.4829  0.3352 -0.3866
  971MOL0     O30953   6.565   3.058   4.096 -0.3213 -0.3969  0.0851
  971MOL0     C30954   6.592   3.036   3.960  1.1943 -0.7364  0.2829
  971MOL0     C30955   6.727   3.044   3.914  0.0946 -0.1172  1.0468
  971MOL0     C30956   6.754   3.020   3.776 -0.1738  1.0671  0.0704
  971MOL0     C30957   6.659   2.998   3.684 -0.0780  0.0265 -0.1189
  971MOL0     O30958   6.689   2.985   3.548 -0.3493  0.0586 -0.0803
  971MOL0     C30959   6.832   2.978   3.509 -0.4648  0.9037 -0.6708
  971MOL0     C30960   6.888   2.833   3.546  0.0711  0.5731 -0.0209
  971MOL0     C30961   7.037   2.848   3.584 -0.6821  0.4774 -0.2919
  971MOL0     C30962   7.103   2.709   3.616 -0.2289 -0.6722 -0.5426
  971MOL0     C30963   7.149   2.633   3.491 -1.0416 -0.4094 -0.0098
  971MOL0     C30964   7.129   2.483   3.503  0.5698  0.5570  0.8134
  971MOL0     C30965   7.174   2.416   3.376 -0.2068  1.2302 -0.8398
  971MOL0     C30966   7.322   2.403   3.350  0.3267 -0.5205  0.0620
  971MOL0     N30967   7.350   2.339   3.228  0.1959 -0.0282  0.5160
  971MOL0     C30968   7.342   2.397   3.099 -0.1727  0.1486 -0.1285
  971MOL0     C30969   7.414   2.315   3.011 -0.5514  0.1987 -0.2931
  971MOL0     C30970   7.449   2.359   2.868  0.1415  0.1544  0.4066
  971MOL0     C30971   7.589   2.411   2.866 -0.6549 -0.1139  0.4724
  971MOL0     C30972   7.628   2.471   2.726 -0.2657 -0.2773  0.5321
  971MOL0     C30973   7.653   2.357   2.622  0.5235  0.2084  0.1665
  971MOL0     O30974   7.710   2.412   2.509 -0.0333 -0.2049 -0.3187
  971MOL0     C30975   7.839   2.462   2.519  0.4053  0.3998  1.5591
  971MOL0     C30976   7.862   2.597   2.503 -0.2875 -0.5132 -0.1043
  971MOL0     C30977   7.986   2.657   2.508  0.8326 -0.3156  0.3919
  971MOL0     C30978   8.098   2.574   2.531  1.0180  0.4053 -0.5438
  971MOL0     C30979   8.231   2.619   2.552 -0.0203 -1.2311  0.1222
  971MOL0     O30980   8.338   2.542   2.588  0.2449  0.4726  0.0543
  971MOL0     C30981   8.461   2.591   2.579 -0.0521 -0.1649  0.1741
  971MOL0     C30982   8.555   2.532   2.662 -0.1056 -0.3872 -0.4419
  971MOL0     C30983   8.691   2.578   2.664  0.1740  0.6456 -0.9251
  971MOL0     C30984   8.742   2.673   2.581 -0.4093 -0.4477 -0.5057
  971MOL0     O30985   8.873   2.703   2.591 -0.1234  0.5188  0.6876
  971MOL0     C30986   8.932   2.804   2.514  0.1113 -0.7164 -0.6947
  971MOL0     C30987   9.078   2.815   2.551  0.3870 -0.4255 -0.2674
  971MOL0     C30988   9.155   2.708   2.484  0.1988  0.0708 -0.1919
  971MOL0     C30989   9.293   2.707   2.556 -0.3074 -0.6112  0.4729
  971MOL0     C30990   9.389   2.608   2.482 -0.2224  0.6351 -0.3572
  971MOL0     C30991   9.540   2.603   2.537  0.9494  0.0515  0.3500
  971MOL0     C30992   9.637   2.715   2.490 -0.8560  0.3057  0.1719
  971MOL0     C30993   9.786   2.678   2.501  0.1410  0.3434 -0.0450
  971MOL0    Cl30994   9.883   2.821   2.473  0.3549 -0.2396 -0.5466
  971MOL0     C30995   8.649   2.724   2.490 -0.2613 -0.6586  0.4767
  971MOL0     C30996   8.512   2.690   2.484  0.6117  1.2368 -0.3578
  971MOL0     O30997   8.234   2.743   2.543  0.0173 -0.1898 -0.1994
  971MOL0     C30998   8.080   2.434   2.531 -0.4606 -0.2122 -0.5294
  971MOL0     C30999   7.947   2.377   2.539 -0.3171  0.0229 -0.3632
  971MOL0     N31000   7.452   2.204   3.079  0.1123 -0.1279  0.6549
  971MOL0     N31001   7.428   2.227   3.211 -0.5485  0.4499  0.5211
  971MOL0     C31002   6.522   2.995   3.727 -0.7663  0.7180  0.2903
  971MOL0     C31003   6.486   3.003   3.869 -1.2181  0.4790  0.6407
  971MOL0     C31004   6.491   3.193   4.272  0.0656 -0.4670 -0.5939
  971MOL0     C31005   6.609   3.167   4.350  0.0729  0.1511  0.1027
  971MOL0     C31006   6.611   3.191   4.487  0.5889 -1.6505 -0.0237
  971MOL0     C31007   6.494   3.244   4.545 -0.8216 -1.1595 -0.1790
  971MOL0     O31008   6.488   3.290   4.672  0.2762  0.0183 -0.4343
  971MOL0     C31009   6.585   3.245   4.765 -0.1569 -0.0376 -0.3867
  971MOL0     C31010   6.544   3.280   4.910 -0.7791  0.1703  0.4755
  971MOL0     C31011   6.397   3.262   4.957 -0.9550  0.3189  0.2484
  971MOL0     C31012   6.311   3.388   4.920  0.4902  0.4253  0.6882
  971MOL0     C31013   6.337   3.512   5.000  0.8385 -0.2152 -0.2096
  971MOL0     C31014   6.344   3.605   5.079 -0.5733  0.4003 -0.1373
  971MOL0     C31015   6.379   3.269   4.461 -0.4386 -0.6095  0.7801
  971MOL0     C31016   6.376   3.257   4.325 -0.2487 -0.1404 -0.0294
  971MOL0     C31017   6.256   3.292   4.244  0.1565 -0.8654 -0.2936
  971MOL0     H31018   6.798   3.073   3.991  0.1179  0.3022  0.8686
  971MOL0     H31019   6.860   3.012   3.755 -0.2531 -2.8665  0.4376
  971MOL0     H31020   6.838   2.987   3.400 -2.3771 -2.3778 -1.2038
  971MOL0     H31021   6.888   3.060   3.554  0.9903  1.0879 -2.7024
  971MOL0     H31022   6.878   2.766   3.460 -0.8227 -0.3195  0.7541
  971MOL0     H31023   6.835   2.783   3.628  3.2098 -0.1721  1.7053
  971MOL0     H31024   7.036   2.912   3.672 -3.3817  1.4088 -0.9026
  971MOL0     H31025   7.095   2.897   3.505  1.0204  0.6856  1.0275
  971MOL0     H31026   7.187   2.714   3.686  2.1372 -1.1380 -3.1697
  971MOL0     H31027   7.026   2.649   3.665 -1.6514  2.0053  0.7373
  971MOL0     H31028   7.105   2.673   3.399 -0.8728 -1.5632 -0.6145
  971MOL0     H31029   7.257   2.649   3.490 -0.8900 -1.0351  2.0215
  971MOL0     H31030   7.193   2.447   3.584 -0.9297 -3.2466  0.4950
  971MOL0     H31031   7.029   2.441   3.517  2.2104 -3.6659  1.4042
  971MOL0     H31032   7.120   2.480   3.305 -1.1969  1.3435 -0.0172
  971MOL0     H31033   7.119   2.322   3.376 -1.7883  2.0884  0.7834
  971MOL0     H31034   7.374   2.498   3.361  2.3677 -1.1993 -2.5929
  971MOL0     H31035   7.369   2.340   3.426  1.3555 -1.9445 -1.6766
  971MOL0     H31036   7.294   2.488   3.065  3.7738  1.2878 -3.4904
  971MOL0     H31037   7.437   2.273   2.801 -0.4860  0.0238  0.6766
  971MOL0     H31038   7.386   2.446   2.849  1.7086  1.7638  2.1389
  971MOL0     H31039   7.606   2.489   2.940 -1.0959 -0.3064  0.7839
  971MOL0     H31040   7.663   2.335   2.894 -0.0905 -0.0019 -0.6824
  971MOL0     H31041   7.722   2.526   2.736  3.1068 -5.0326 -1.2636
  971MOL0     H31042   7.545   2.539   2.704 -1.0327  0.3528  4.5269
  971MOL0     H31043   7.565   2.298   2.597  2.0498 -1.7868 -0.7871
  971MOL0     H31044   7.718   2.280   2.664 -0.0361 -1.9800 -2.6242
  971MOL0     H31045   7.769   2.649   2.484  0.9182  2.1542  0.8440
  971MOL0     H31046   7.980   2.764   2.492  2.3164 -0.3781 -0.7984
  971MOL0     H31047   8.538   2.455   2.736  0.3250  1.2433  1.4426
  971MOL0     H31048   8.767   2.526   2.722  2.0124  3.7103 -0.3892
  971MOL0     H31049   8.934   2.790   2.406 -1.0648 -1.2995 -0.6511
  971MOL0     H31050   8.899   2.903   2.546  2.6221  0.3397 -1.1275
  971MOL0     H31051   9.121   2.908   2.512  1.3559 -1.0825 -0.8087
  971MOL0     H31052   9.089   2.829   2.659 -0.5307  0.8984 -0.3149
  971MOL0     H31053   9.113   2.609   2.503 -0.3942 -0.0621 -1.9613
  971MOL0     H31054   9.152   2.724   2.376 -2.8064  0.1304 -0.1926
  971MOL0     H31055   9.284   2.691   2.663 -1.1140 -2.9711  0.1022
  971MOL0     H31056   9.351   2.799   2.541  0.5503 -1.1399  0.4708
  971MOL0     H31057   9.401   2.632   2.376  0.8011  3.2435  0.2902
  971MOL0     H31058   9.350   2.506   2.491 -0.3825  0.6431 -0.9130
  971MOL0     H31059   9.548   2.605   2.646 -0.5051  2.8159  0.4847
  971MOL0     H31060   9.581   2.507   2.503 -0.4742 -0.8807  1.1896
  971MOL0     H31061   9.619   2.804   2.552 -2.6023 -1.4384  2.3386
  971MOL0     H31062   9.609   2.729   2.386 -3.4145  2.8145  1.0417
  971MOL0     H31063   9.803   2.633   2.599 -1.6892 -1.0579 -0.3319
  971MOL0     H31064   9.809   2.591   2.440 -1.4433 -0.9378  1.1058
  971MOL0     H31065   8.694   2.785   2.413  1.3692 -1.6626  0.5896
  971MOL0     H31066   8.446   2.738   2.412 -1.3696 -1.0004 -0.1339
  971MOL0     H31067   8.169   2.377   2.556  2.2514  3.2732 -1.4216
  971MOL0     H31068   7.936   2.274   2.571 -0.3568  0.5095  1.2853
  971MOL0     H31069   6.452   2.988   3.644  1.7011  2.3283 -2.1149
  971MOL0     H31070   6.387   2.979   3.906 -0.5880  0.1092  2.1878
  971MOL0     H31071   6.699   3.135   4.299 -0.3158 -0.0100 -0.4826
  971MOL0     H31072   6.704   3.181   4.541  0.0191 -0.0496  1.3528
  971MOL0     H31073   6.681   3.292   4.744  0.3444  0.0160  1.7582
  971MOL0     H31074   6.600   3.140   4.740  1.8804  0.6093 -2.1024
  971MOL0     H31075   6.567   3.386   4.923 -2.8501  1.0296 -1.8616
  971MOL0     H31076   6.609   3.222   4.975 -0.3185  0.9567  0.7229
  971MOL0     H31077   6.384   3.234   5.062  0.2434  0.4159  0.4375
  971MOL0     H31078   6.354   3.185   4.892 -2.3458  0.1362  1.3262
  971MOL0     H31079   6.305   3.409   4.813 -3.2243 -0.2777  0.5864
  971MOL0     H31080   6.210   3.345   4.932  1.3916 -3.1853 -2.5322
  971MOL0     H31081   6.346   3.685   5.151 -2.2504 -0.3681  0.8343
  971MOL0     H31082   6.298   3.316   4.515 -3.5949 -1.8554 -2.4437
  971MOL0     H31083   6.171   3.280   4.312 -0.5997 -0.7905 -1.2031
  971MOL0     H31084   6.258   3.398   4.216 -2.1756 -0.8554 -0.6197
  971MOL0     H31085   6.240   3.239   4.150  0.8116  0.5476 -1.2283
  972MOL0     O31086   9.962   7.564   1.683  0.7258 -0.8796  0.2280
  972MOL0     C31087   9.937   7.681   1.644  0.1158  0.6161 -0.1977
  972MOL0     O31088  10.022   7.786   1.676 -0.7384 -0.4764  0.4218
  972MOL0     C31089  10.115   7.758   1.767 -0.6641 -0.6946  0.0182
  972MOL0     C31090  10.101   7.791   1.906  0.4600 -0.6614 -0.3879
  972MOL0     C31091  10.200   7.777   1.999 -0.5493 -0.7868 -0.2487
  972MOL0     C31092  10.329   7.725   1.956  0.2646 -0.3645  0.2633
  972MOL0     O31093  10.431   7.741   2.049  0.0792  1.1895 -0.2452
  972MOL0     C31094  10.564   7.717   2.004 -0.1438 -0.1881 -0.5886
  972MOL0     C31095  10.658   7.789   2.109  0.6024  0.0447 -0.5247
  972MOL0     C31096  10.812   7.779   2.089  0.6064  0.1816  0.0810
  972MOL0     C31097  10.882   7.842   2.201 -0.1243 -0.4652 -0.3613
  972MOL0     C31098  10.901   7.734   2.312  0.9021 -1.0012 -0.1525
  972MOL0     C31099  10.950   7.809   2.438 -0.0899  0.1798 -0.0328
  972MOL0     C31100  10.902   7.740   2.565  0.8508 -0.3142 -0.8572
  972MOL0     C31101  10.972   7.604   2.592 -0.2325  0.2977 -0.5246
  972MOL0     N31102  11.117   7.619   2.577  0.0760 -0.3298  0.2469
  972MOL0     C31103  11.186   7.722   2.630 -0.0405  0.2238 -0.2963
  972MOL0     C31104  11.317   7.696   2.599 -0.1253  0.9889  0.5497
  972MOL0     C31105  11.432   7.786   2.621 -0.1122 -0.6670  0.4905
  972MOL0     C31106  11.471   7.789   2.767 -1.0466 -0.4287 -1.2712
  972MOL0     C31107  11.586   7.885   2.806 -0.6580 -0.0230 -0.0347
  972MOL0     C31108  11.723   7.874   2.726 -0.7303 -0.4143 -0.4390
  972MOL0     O31109  11.812   7.967   2.795  0.9994 -0.4482  0.3607
  972MOL0     C31110  11.939   7.933   2.783 -0.3594  0.9227 -0.3026
  972MOL0     C31111  11.995   7.868   2.894  0.1510  0.5789 -0.4413
  972MOL0     C31112  12.128   7.824   2.891  0.1083 -0.1003 -0.4454
  972MOL0     C31113  12.206   7.847   2.777 -0.6127  0.3056 -0.3166
  972MOL0     C31114  12.355   7.812   2.776  0.4845 -0.4839  0.4389
  972MOL0     O31115  12.428   7.880   2.680  0.6045  0.2839  0.2066
  972MOL0     C31116  12.562   7.884   2.692 -0.2343 -0.3127  0.1486
  972MOL0     C31117  12.654   7.769   2.719  0.5127 -0.3184 -0.2659
  972MOL0     C31118  12.789   7.790   2.706 -0.7044 -0.2130 -0.2521
  972MOL0     C31119  12.841   7.914   2.679 -1.1686  0.4972 -0.0397
  972MOL0     O31120  12.985   7.932   2.673  0.0983 -0.2818 -0.0249
  972MOL0     C31121  13.061   7.832   2.754  0.4121  0.1843 -0.4556
  972MOL0     C31122  13.194   7.900   2.768  0.0334  0.3474 -0.8007
  972MOL0     C31123  13.289   7.827   2.855  0.0646  0.0263 -0.4489
  972MOL0     C31124  13.439   7.840   2.822 -0.2385  0.4434 -0.8139
  972MOL0     C31125  13.514   7.784   2.944  0.1880 -0.2174  0.0651
  972MOL0     C31126  13.653   7.743   2.890  0.4188 -0.5925 -0.0071
  972MOL0     C31127  13.660   7.599   2.852  0.2277  0.0043 -0.0249
  972MOL0     C31128  13.807   7.560   2.815 -0.8415 -0.2792 -0.0743
  972MOL0    Cl31129  13.825   7.392   2.770 -0.3211 -0.3710  0.2767
  972MOL0     C31130  12.762   8.025   2.658 -1.1309  0.0072  0.0015
  972MOL0     C31131  12.622   8.013   2.673 -0.0846  0.1022 -0.1795
  972MOL0     O31132  12.400   7.754   2.872  0.5313 -1.5073 -0.2545
  972MOL0     C31133  12.153   7.910   2.664 -0.2128 -0.0943 -0.3600
  972MOL0     C31134  12.017   7.943   2.666 -0.1197 -0.4605  0.0048
  972MOL0     N31135  11.316   7.573   2.531 -0.2649 -0.2209  0.3763
  972MOL0     N31136  11.198   7.530   2.517  0.2752 -0.2499 -0.1163
  972MOL0     C31137  10.349   7.678   1.826  0.3262 -0.5393  0.5050
  972MOL0     C31138  10.243   7.701   1.734  0.4294  0.3336 -0.4426
  972MOL0     C31139   9.847   7.700   1.528 -0.4541  0.2059 -0.2924
  972MOL0     C31140   9.725   7.764   1.542 -0.1461 -0.3521 -0.5491
  972MOL0     C31141   9.638   7.781   1.431 -1.0193  0.2952  0.4003
  972MOL0     C31142   9.656   7.708   1.311 -0.5073 -0.1230 -0.9493
  972MOL0     O31143   9.559   7.695   1.212  0.2929 -0.3616 -0.5303
  972MOL0     C31144   9.604   7.704   1.080  0.3500  0.5061 -0.3108
  972MOL0     C31145   9.486   7.758   1.003  0.6332  1.2845  0.3930
  972MOL0     C31146   9.413   7.881   1.056  0.9880  0.6331  0.8285
  972MOL0     C31147   9.363   7.972   0.943 -0.3951  0.0398  0.0750
  972MOL0     C31148   9.236   7.921   0.878 -0.8274 -0.3669 -0.2726
  972MOL0     C31149   9.139   7.882   0.816 -0.4564 -0.5530 -1.3197
  972MOL0     C31150   9.779   7.634   1.307  0.6242  0.4494  0.1879
  972MOL0     C31151   9.877   7.634   1.404  0.4606  0.4556  0.0758
  972MOL0     C31152  10.003   7.554   1.367 -0.1572 -0.6569  0.0540
  972MOL0     H31153  10.002   7.828   1.929  0.6997 -1.0157  1.3252
  972MOL0     H31154  10.184   7.814   2.100  2.0297  2.2412 -0.8202
  972MOL0     H31155  10.573   7.609   1.987 -2.9862 -0.8217  1.1119
  972MOL0     H31156  10.585   7.764   1.908  3.0469  0.7343  0.4524
  972MOL0     H31157  10.642   7.747   2.209  2.4296 -1.6214 -0.8644
  972MOL0     H31158  10.627   7.894   2.111 -3.2738 -0.9456  1.7470
  972MOL0     H31159  10.840   7.835   1.999 -0.0736 -2.4635 -1.9160
  972MOL0     H31160  10.852   7.681   2.060 -0.3223  0.8469 -4.1307
  972MOL0     H31161  10.981   7.875   2.167 -0.9403  1.1666 -1.2434
  972MOL0     H31162  10.836   7.932   2.241  0.1826 -0.2633 -0.4595
  972MOL0     H31163  10.804   7.686   2.331  1.1097 -1.0845  0.7004
  972MOL0     H31164  10.971   7.661   2.272  0.2914  0.0090 -3.3818
  972MOL0     H31165  11.059   7.815   2.432 -0.2090  2.3086 -0.8153
  972MOL0     H31166  10.938   7.918   2.440  1.7686  0.4060  1.5950
  972MOL0     H31167  10.793   7.740   2.566  0.7157  2.5459  1.8093
  972MOL0     H31168  10.926   7.810   2.646  1.4407 -2.4425  0.9069
  972MOL0     H31169  10.950   7.574   2.695 -0.7426 -0.0187 -0.7178
  972MOL0     H31170  10.939   7.522   2.528  1.0933 -2.8633  2.5568
  972MOL0     H31171  11.160   7.808   2.691 -0.7552 -1.9273  2.6548
  972MOL0     H31172  11.526   7.759   2.572 -0.1356 -1.7382  1.0102
  972MOL0     H31173  11.402   7.887   2.593  0.2527 -1.2517 -2.2877
  972MOL0     H31174  11.387   7.827   2.826  0.8069  0.9492  0.5974
  972MOL0     H31175  11.495   7.687   2.796 -0.7657  0.4513  2.0177
  972MOL0     H31176  11.600   7.852   2.909 -3.2751 -1.7491 -0.1223
  972MOL0     H31177  11.561   7.990   2.825  0.5471 -0.2055  3.0615
  972MOL0     H31178  11.715   7.906   2.622 -2.7393  0.8530  0.0513
  972MOL0     H31179  11.752   7.769   2.731 -4.0669 -1.4117  1.3402
  972MOL0     H31180  11.942   7.849   2.987 -1.7674 -1.3154 -1.8133
  972MOL0     H31181  12.185   7.780   2.972  0.8322 -0.2063 -1.0000
  972MOL0     H31182  12.609   7.671   2.730 -0.8993  0.3202 -0.1701
  972MOL0     H31183  12.857   7.705   2.708  0.7386  0.8837  1.8777
  972MOL0     H31184  13.022   7.826   2.855  2.0333 -1.9369  0.1209
  972MOL0     H31185  13.072   7.737   2.700  0.6339  1.1438 -2.2030
  972MOL0     H31186  13.227   7.903   2.663  0.3454  2.1161 -0.6889
  972MOL0     H31187  13.184   8.003   2.806 -1.1709  0.4802 -1.4365
  972MOL0     H31188  13.265   7.876   2.950 -2.4686  1.1844 -1.5877
  972MOL0     H31189  13.265   7.720   2.859  0.5719 -0.1800 -2.3139
  972MOL0     H31190  13.470   7.944   2.807 -0.2278  0.8637  1.6719
  972MOL0     H31191  13.453   7.779   2.732 -4.0870 -2.8952  0.5572
  972MOL0     H31192  13.462   7.695   2.979 -0.8167 -0.1174 -1.1077
  972MOL0     H31193  13.516   7.864   3.018 -2.4271 -0.3194  0.3533
  972MOL0     H31194  13.677   7.810   2.807  0.3443  0.2616  0.6385
  972MOL0     H31195  13.733   7.757   2.964  0.5445  3.2594 -0.6667
  972MOL0     H31196  13.583   7.578   2.777 -0.4325 -2.8209  1.3278
  972MOL0     H31197  13.636   7.528   2.932 -0.5692 -3.3432 -2.9896
  972MOL0     H31198  13.837   7.625   2.732  2.3604 -0.8125  0.5501
  972MOL0     H31199  13.881   7.579   2.893 -2.0505 -1.4732  1.4272
  972MOL0     H31200  12.817   8.109   2.618  0.4124 -1.1436 -0.3741
  972MOL0     H31201  12.560   8.093   2.635  0.7407  1.2273  0.7726
  972MOL0     H31202  12.217   7.936   2.580 -0.4271 -1.4211 -0.9634
  972MOL0     H31203  11.962   7.991   2.586 -1.8599 -0.8315  0.9496
  972MOL0     H31204  10.447   7.646   1.790  2.1722  4.7067  0.0255
  972MOL0     H31205  10.270   7.662   1.636 -1.2938  0.1399 -0.8637
  972MOL0     H31206   9.701   7.816   1.634  0.0094 -0.6339 -0.3466
  972MOL0     H31207   9.544   7.833   1.439 -0.7777  1.0007 -1.1057
  972MOL0     H31208   9.621   7.602   1.047  3.6041  0.6867  0.5191
  972MOL0     H31209   9.699   7.755   1.066  0.7944  1.0984  3.7208
  972MOL0     H31210   9.417   7.674   0.994 -0.0265  1.6905  1.5951
  972MOL0     H31211   9.529   7.778   0.904 -0.4485 -0.2221 -0.4202
  972MOL0     H31212   9.477   7.942   1.120 -0.4306  2.7597  0.3337
  972MOL0     H31213   9.330   7.852   1.121 -0.2807  0.2479 -0.8732
  972MOL0     H31214   9.344   8.070   0.989 -1.0967 -0.0363 -0.0367
  972MOL0     H31215   9.446   7.976   0.872  0.8936 -1.7556  1.3842
  972MOL0     H31216   9.049   7.843   0.773 -0.6896  2.1106 -3.4595
  972MOL0     H31217   9.807   7.575   1.220 -1.2918 -1.4864  0.7944
  972MOL0     H31218   9.998   7.482   1.285  2.6348 -0.4558 -0.3893
  972MOL0     H31219  10.081   7.627   1.346 -0.4869 -0.0903  0.7660
  972MOL0     H31220  10.025   7.496   1.457 -1.2813  0.2023  0.9112
  973MOL0     O31221   6.684   3.964  11.286 -0.1002  0.1324  0.2633
  973MOL0     C31222   6.608   3.872  11.327  0.3236  0.1152 -0.3201
  973MOL0     O31223   6.631   3.797  11.440 -0.0494  0.1704  0.5014
  973MOL0     C31224   6.746   3.813  11.517 -0.1530 -1.3316  0.5520
  973MOL0     C31225   6.863   3.886  11.489  0.7751 -0.4152 -0.8030
  973MOL0     C31226   6.971   3.876  11.570  0.0201 -0.7421  0.2646
  973MOL0     C31227   6.973   3.802  11.695 -0.3155  0.4576  0.5111
  973MOL0     O31228   7.086   3.803  11.772  0.4047 -0.2311 -0.4937
  973MOL0     C31229   7.106   3.698  11.875  0.1405 -0.0616 -0.4407
  973MOL0     C31230   7.256   3.699  11.918  0.4011 -0.1764  0.4588
  973MOL0     C31231   7.341   3.660  11.788  0.3346 -0.7136 -0.0937
  973MOL0     C31232   7.489   3.642  11.818  0.2383  0.3037 -0.1011
  973MOL0     C31233   7.573   3.553  11.719  0.3550  0.2025  0.1353
  973MOL0     C31234   7.712   3.529  11.765 -0.8606  0.1866  0.3793
  973MOL0     C31235   7.800   3.457  11.656  0.1842  0.6355  0.1472
  973MOL0     C31236   7.937   3.431  11.721 -0.5959  0.2289  0.7366
  973MOL0     N31237   8.019   3.386  11.610 -0.8141 -0.3948  0.1809
  973MOL0     C31238   8.094   3.464  11.519  0.7903  0.4679  0.6360
  973MOL0     C31239   8.166   3.377  11.440 -0.2209  0.4179 -0.5719
  973MOL0     C31240   8.274   3.418  11.351 -0.5927 -0.1528 -0.5011
  973MOL0     C31241   8.390   3.322  11.362 -0.7059  0.3086  0.7519
  973MOL0     C31242   8.510   3.351  11.263  0.0931 -0.3546 -0.1205
  973MOL0     C31243   8.606   3.462  11.315 -0.1594  0.5243 -0.4875
  973MOL0     O31244   8.686   3.518  11.215  0.8350 -0.5653 -0.5288
  973MOL0     C31245   8.803   3.465  11.159 -0.7717 -0.9792 -0.6802
  973MOL0     C31246   8.869   3.535  11.057 -0.2250  0.3424 -0.3823
  973MOL0     C31247   9.000   3.497  11.009  0.5735  0.2681 -0.7065
  973MOL0     C31248   9.061   3.380  11.066  0.4210 -0.5749  0.0570
  973MOL0     C31249   9.186   3.336  11.002  0.4708  0.0813  0.5643
  973MOL0     O31250   9.233   3.408  10.898 -0.2678  0.6468 -0.3200
  973MOL0     C31251   9.361   3.369  10.865 -1.0297 -0.3647 -0.0926
  973MOL0     C31252   9.380   3.314  10.735  0.6361 -0.2486  0.7644
  973MOL0     C31253   9.495   3.268  10.676 -0.9179  0.7801 -0.4988
  973MOL0     C31254   9.616   3.282  10.751  0.1093 -0.3012 -0.7141
  973MOL0     O31255   9.746   3.251  10.719  0.4684  0.5933 -0.2805
  973MOL0     C31256   9.779   3.262  10.576 -0.1188  0.2371  0.0804
  973MOL0     C31257   9.924   3.257  10.569 -0.4881 -0.4332 -0.1786
  973MOL0     C31258   9.997   3.393  10.600  0.1621  0.2474  0.5648
  973MOL0     C31259  10.140   3.396  10.570 -0.6112 -0.6490  0.0423
  973MOL0     C31260  10.211   3.521  10.636 -0.5703  0.0567 -0.2678
  973MOL0     C31261  10.364   3.502  10.642  0.3486 -0.1679  0.0920
  973MOL0     C31262  10.423   3.505  10.502 -0.0645  0.5454  0.7166
  973MOL0     C31263  10.577   3.512  10.497 -0.1500  0.5641  0.1293
  973MOL0    Cl31264  10.649   3.364  10.566  0.0742  0.0620 -0.1536
  973MOL0     C31265   9.607   3.335  10.879 -0.0917 -1.0107 -0.0956
  973MOL0     C31266   9.480   3.384  10.936 -0.7037  0.1689  0.2053
  973MOL0     O31267   9.239   3.238  11.053  0.4012  0.2326  0.1356
  973MOL0     C31268   9.001   3.320  11.181  0.6081 -0.5682  1.1728
  973MOL0     C31269   8.881   3.370  11.229 -0.4851 -0.1009  0.5949
  973MOL0     N31270   8.127   3.250  11.482 -0.3018  0.1196  0.2558
  973MOL0     N31271   8.052   3.257  11.584  0.4088 -0.1792  0.3730
  973MOL0     C31272   6.861   3.724  11.717 -0.3717  0.0041 -0.5029
  973MOL0     C31273   6.754   3.731  11.631 -0.1815 -0.6187 -0.7761
  973MOL0     C31274   6.481   3.839  11.260 -0.3307 -0.2215  0.4593
  973MOL0     C31275   6.488   3.837  11.123  0.3342 -0.4846 -0.3856
  973MOL0     C31276   6.381   3.789  11.048  0.6202  0.0387 -0.5656
  973MOL0     C31277   6.259   3.748  11.113  0.0394  0.0306  0.3330
  973MOL0     O31278   6.146   3.705  11.049  0.2644 -0.2745  0.0596
  973MOL0     C31279   6.160   3.658  10.915 -0.2663  0.4770  0.2262
  973MOL0     C31280   6.035   3.615  10.851  0.2507 -0.4926  0.1067
  973MOL0     C31281   6.009   3.476  10.903 -0.5823 -0.0102 -0.4985
  973MOL0     C31282   6.106   3.358  10.859  0.3834 -0.6795  0.1392
  973MOL0     C31283   6.040   3.234  10.857 -0.3177 -0.4570 -0.6022
  973MOL0     C31284   5.996   3.123  10.850 -0.3669 -0.5757 -0.4192
  973MOL0     C31285   6.257   3.749  11.252 -0.4225 -0.9735 -0.2795
  973MOL0     C31286   6.366   3.801  11.326  1.0704  0.4032 -0.0147
  973MOL0     C31287   6.338   3.802  11.474 -0.1312  0.4131 -0.0013
  973MOL0     H31288   6.857   3.963  11.412  1.1247  0.5043  0.0660
  973MOL0     H31289   7.065   3.927  11.556 -0.6099  0.0255 -1.4837
  973MOL0     H31290   7.045   3.733  11.959  0.7516  0.2696 -0.1269
  973MOL0     H31291   7.079   3.599  11.840  0.0855 -0.4004  0.5288
  973MOL0     H31292   7.267   3.619  11.993 -1.4672 -1.7420 -0.8410
  973MOL0     H31293   7.284   3.798  11.954 -1.3206  0.7091 -0.5477
  973MOL0     H31294   7.336   3.749  11.724 -0.1149 -0.4487  0.3093
  973MOL0     H31295   7.300   3.571  11.738  1.0793 -1.4412  0.5574
  973MOL0     H31296   7.530   3.744  11.818  0.5993  0.1660  0.5337
  973MOL0     H31297   7.509   3.605  11.919 -1.0605 -0.5239 -0.1303
  973MOL0     H31298   7.513   3.465  11.696 -3.1468  2.3542  0.2850
  973MOL0     H31299   7.570   3.611  11.627 -0.9652  0.3597  0.2473
  973MOL0     H31300   7.758   3.628  11.780  1.3920 -0.4225 -1.7446
  973MOL0     H31301   7.728   3.476  11.858  0.7950  1.5972  0.9565
  973MOL0     H31302   7.803   3.516  11.565  0.6856 -1.2321 -1.0984
  973MOL0     H31303   7.767   3.357  11.626 -1.2898  0.5693  1.7939
  973MOL0     H31304   7.972   3.522  11.769  0.3861  1.5336 -2.2263
  973MOL0     H31305   7.935   3.351  11.796 -0.2496 -0.6331 -0.1590
  973MOL0     H31306   8.100   3.573  11.521 -0.1480  0.5387  0.0864
  973MOL0     H31307   8.244   3.433  11.247 -1.5633 -0.8316 -0.3272
  973MOL0     H31308   8.306   3.517  11.384 -2.7298  0.2685  0.4614
  973MOL0     H31309   8.432   3.335  11.462  1.0010 -0.3674  0.1598
  973MOL0     H31310   8.360   3.218  11.350  0.8525 -0.4734  2.9454
  973MOL0     H31311   8.460   3.381  11.171 -1.3878 -2.7266 -0.1742
  973MOL0     H31312   8.572   3.262  11.249  1.4528  0.6002 -0.3957
  973MOL0     H31313   8.671   3.423  11.394 -1.5630 -0.7152  0.1260
  973MOL0     H31314   8.548   3.543  11.361  0.9698  1.1601 -0.1612
  973MOL0     H31315   8.822   3.628  11.026 -0.6574 -0.2272 -1.4715
  973MOL0     H31316   9.041   3.554  10.926  0.9156  0.0491 -0.6887
  973MOL0     H31317   9.295   3.313  10.667 -0.6885  1.9985  2.2594
  973MOL0     H31318   9.503   3.231  10.574  3.5527  3.0747 -1.2222
  973MOL0     H31319   9.741   3.180  10.515  4.4344 -0.2813 -2.5840
  973MOL0     H31320   9.735   3.358  10.548 -2.7353  0.6785  4.7161
  973MOL0     H31321   9.959   3.179  10.637 -1.9271 -0.6419  0.3579
  973MOL0     H31322   9.941   3.231  10.464  1.9479 -2.4024  0.5841
  973MOL0     H31323   9.949   3.466  10.534  0.3613  1.0802  1.3108
  973MOL0     H31324   9.996   3.421  10.706 -0.7429  1.9754  0.1391
  973MOL0     H31325  10.161   3.395  10.463  1.6839  0.7916  0.4076
  973MOL0     H31326  10.185   3.308  10.616 -1.2438 -0.1047  1.7849
  973MOL0     H31327  10.182   3.543  10.740 -1.2319 -0.4190 -0.3454
  973MOL0     H31328  10.190   3.614  10.582  1.9468  1.9895  1.7865
  973MOL0     H31329  10.407   3.576  10.710 -2.4604  1.5986  0.1223
  973MOL0     H31330  10.376   3.408  10.697 -2.5489 -0.5798  0.1906
  973MOL0     H31331  10.389   3.592  10.445  2.6435 -0.2399 -2.3764
  973MOL0     H31332  10.400   3.412  10.449 -2.3704  1.6134 -0.2766
  973MOL0     H31333  10.613   3.509  10.394 -0.1347 -0.1762  0.1549
  973MOL0     H31334  10.614   3.607  10.536  0.7727  0.4138 -0.3442
  973MOL0     H31335   9.695   3.342  10.941  0.6999 -1.9179 -1.0895
  973MOL0     H31336   9.471   3.424  11.036  0.6063 -0.1221  0.4577
  973MOL0     H31337   9.055   3.240  11.229 -0.3847 -1.3566  1.0066
  973MOL0     H31338   8.849   3.327  11.323 -1.0912 -1.9019 -0.3715
  973MOL0     H31339   6.846   3.669  11.809 -1.1931  0.7845 -0.1534
  973MOL0     H31340   6.659   3.679  11.641 -1.2322  0.9248 -2.0380
  973MOL0     H31341   6.577   3.882  11.082 -0.2061  0.8005 -0.1967
  973MOL0     H31342   6.396   3.786  10.940  3.2322  4.6098 -0.6176
  973MOL0     H31343   6.233   3.578  10.907 -0.9552 -0.0641 -0.8386
  973MOL0     H31344   6.193   3.742  10.854 -1.0758  0.0739 -0.7981
  973MOL0     H31345   6.062   3.614  10.746  1.5825  2.4290  0.3250
  973MOL0     H31346   5.949   3.682  10.855  2.4679  2.5869 -0.1080
  973MOL0     H31347   5.909   3.474  10.860 -1.1790  3.1546  0.4960
  973MOL0     H31348   5.995   3.473  11.012 -1.4619 -1.0875 -0.6202
  973MOL0     H31349   6.145   3.381  10.759  1.0266  0.3213  0.6045
  973MOL0     H31350   6.200   3.355  10.916  1.4318 -2.4938 -1.5591
  973MOL0     H31351   5.942   3.030  10.857 -2.1839  0.5032  0.6809
  973MOL0     H31352   6.166   3.719  11.302 -2.2528  1.6813 -1.7509
  973MOL0     H31353   6.349   3.702  11.517 -0.8321  0.3034 -0.0680
  973MOL0     H31354   6.396   3.883  11.520 -1.0293  2.4720 -2.2075
  973MOL0     H31355   6.236   3.832  11.499 -0.0996  0.0186  0.6095
  974MOL0     O31356   8.123   3.859   6.864 -0.0816  0.1544 -0.0497
  974MOL0     C31357   8.153   3.962   6.918 -0.2951  0.3434 -0.9640
  974MOL0     O31358   8.203   4.074   6.849  0.2093  1.1662 -0.2140
  974MOL0     C31359   8.177   4.092   6.715 -0.0070  0.4975  0.1612
  974MOL0     C31360   8.256   4.027   6.617 -1.1804  0.7347  0.4559
  974MOL0     C31361   8.231   4.054   6.481 -0.3496  0.4708 -0.0434
  974MOL0     C31362   8.142   4.155   6.441 -0.5193  0.2352 -0.1590
  974MOL0     O31363   8.115   4.175   6.306 -0.2798  0.0440 -0.3983
  974MOL0     C31364   8.092   4.314   6.283 -0.1175 -0.6794 -0.1500
  974MOL0     C31365   8.108   4.354   6.135  0.6497 -0.1182 -1.0659
  974MOL0     C31366   8.246   4.343   6.083 -0.1751  0.5200  0.5309
  974MOL0     C31367   8.251   4.405   5.942 -0.2669 -0.3413  0.1294
  974MOL0     C31368   8.391   4.374   5.868 -0.4034 -0.7206  0.4899
  974MOL0     C31369   8.426   4.225   5.847 -0.0796 -0.5591  0.0332
  974MOL0     C31370   8.553   4.224   5.755  0.7749  0.5657 -0.3961
  974MOL0     C31371   8.610   4.088   5.752  0.5367 -0.0401 -0.0850
  974MOL0     N31372   8.689   4.059   5.625 -0.1455  0.3111  0.0382
  974MOL0     C31373   8.769   4.150   5.556  0.0722 -0.3635 -1.5069
  974MOL0     C31374   8.800   4.084   5.445  0.8799  0.1665 -0.2803
  974MOL0     C31375   8.893   4.128   5.331  0.0968  1.0164  0.1957
  974MOL0     C31376   8.916   4.019   5.232 -0.1343 -0.3444 -0.4145
  974MOL0     C31377   9.018   4.063   5.128 -0.2430 -1.3484  0.5800
  974MOL0     C31378   9.023   3.981   4.998 -0.2734 -0.6989 -1.1391
  974MOL0     O31379   9.070   3.847   5.024 -0.4073  0.0946  0.0556
  974MOL0     C31380   9.209   3.829   5.026  0.7346  0.6891 -0.1203
  974MOL0     C31381   9.304   3.930   5.030 -0.4469 -0.0433  0.2262
  974MOL0     C31382   9.437   3.887   5.024 -0.1467  0.4383  0.1226
  974MOL0     C31383   9.478   3.749   5.022 -0.1362 -0.7347 -0.4430
  974MOL0     C31384   9.626   3.721   5.023  0.0077  0.9890  0.2539
  974MOL0     O31385   9.662   3.602   5.071 -0.2651 -0.4611 -0.8106
  974MOL0     C31386   9.795   3.580   5.060  0.5528  0.7144  0.3874
  974MOL0     C31387   9.870   3.582   5.176 -0.0524 -0.2512  0.0468
  974MOL0     C31388  10.011   3.572   5.176  0.1161  1.3545 -0.0216
  974MOL0     C31389  10.081   3.551   5.057 -0.0302  0.5029 -0.7038
  974MOL0     O31390  10.223   3.567   5.052  0.4732  0.3835 -0.6546
  974MOL0     C31391  10.296   3.600   5.169  0.8267  1.0412 -0.7012
  974MOL0     C31392  10.439   3.644   5.126  0.2278  0.0644  0.8024
  974MOL0     C31393  10.517   3.517   5.081  0.4235  0.0312 -0.0829
  974MOL0     C31394  10.649   3.548   5.041 -0.0368 -1.2073  0.5283
  974MOL0     C31395  10.720   3.426   4.997 -0.5429 -0.1891  0.3518
  974MOL0     C31396  10.868   3.449   4.972 -0.3485  0.2069  0.8213
  974MOL0     C31397  10.921   3.349   4.876 -0.3487  0.8596  0.5281
  974MOL0     C31398  11.075   3.344   4.883 -0.4054 -0.4290  0.1612
  974MOL0    Cl31399  11.139   3.212   4.766  0.2439 -0.0494  0.2023
  974MOL0     C31400   9.999   3.537   4.945 -0.4342 -0.0970  0.1465
  974MOL0     C31401   9.861   3.550   4.942  1.2702  0.6613 -1.5315
  974MOL0     O31402   9.697   3.811   4.985 -0.6464 -0.0354 -0.3458
  974MOL0     C31403   9.377   3.657   5.034 -0.2068  0.5568 -0.1434
  974MOL0     C31404   9.241   3.692   5.031 -0.2225  0.5407  0.2053
  974MOL0     N31405   8.735   3.963   5.444 -0.3134  0.7210  0.4911
  974MOL0     N31406   8.658   3.958   5.544  0.1885  0.5526  0.1860
  974MOL0     C31407   8.059   4.209   6.538  0.2291  0.5679 -0.4879
  974MOL0     C31408   8.075   4.176   6.676  0.5924  0.0605 -0.3589
  974MOL0     C31409   8.130   3.972   7.069  0.4557  0.1515  0.5428
  974MOL0     C31410   8.187   4.089   7.122 -0.1715 -0.9327 -0.8090
  974MOL0     C31411   8.184   4.112   7.261  0.6188 -0.7120 -0.1281
  974MOL0     C31412   8.121   4.019   7.343 -1.3066  0.1208 -0.0298
  974MOL0     O31413   8.119   4.035   7.477  0.3761 -0.6006 -0.0577
  974MOL0     C31414   8.201   4.141   7.541 -0.3491  0.8208  0.2932
  974MOL0     C31415   8.219   4.130   7.688 -0.4989  0.0586 -0.1550
  974MOL0     C31416   8.323   4.227   7.743 -0.5548 -0.2793 -0.5497
  974MOL0     C31417   8.335   4.220   7.895  0.3384  0.5246  1.3849
  974MOL0     C31418   8.415   4.337   7.939  0.3412 -0.3429 -0.6530
  974MOL0     C31419   8.495   4.421   7.980  0.0676  1.0799 -0.4647
  974MOL0     C31420   8.074   3.900   7.290  0.4007 -0.3764 -0.3331
  974MOL0     C31421   8.079   3.869   7.153 -0.7559 -0.0154 -0.2696
  974MOL0     C31422   8.027   3.737   7.103  0.2490 -0.9960 -0.9631
  974MOL0     H31423   8.339   3.962   6.644 -1.0827 -1.2113 -3.7655
  974MOL0     H31424   8.297   4.010   6.407 -2.3996 -5.0355  0.9147
  974MOL0     H31425   7.991   4.340   6.316 -0.4408 -1.8142 -0.1778
  974MOL0     H31426   8.166   4.361   6.347 -0.9762 -1.2266  1.2911
  974MOL0     H31427   8.077   4.459   6.126  0.1355 -0.2456 -0.8028
  974MOL0     H31428   8.036   4.306   6.068 -0.0267 -0.8948  0.1886
  974MOL0     H31429   8.272   4.238   6.069  3.8980  1.6518 -2.2655
  974MOL0     H31430   8.308   4.390   6.160  1.5908 -0.3924 -0.2926
  974MOL0     H31431   8.188   4.358   5.866  2.5969  1.4244 -3.6129
  974MOL0     H31432   8.231   4.512   5.938  1.8552  0.0792 -0.2450
  974MOL0     H31433   8.370   4.406   5.766 -1.6870 -0.0814  0.9291
  974MOL0     H31434   8.473   4.429   5.915  1.0389 -3.4275  1.3301
  974MOL0     H31435   8.452   4.176   5.941 -0.4076  0.9052  0.9166
  974MOL0     H31436   8.347   4.170   5.794  0.3759  0.2146 -1.5280
  974MOL0     H31437   8.623   4.290   5.808  1.9270 -0.0137 -1.1610
  974MOL0     H31438   8.545   4.262   5.653 -1.7921 -0.1394 -0.5218
  974MOL0     H31439   8.678   4.062   5.834 -0.1122 -3.2582 -0.4180
  974MOL0     H31440   8.531   4.012   5.746  0.9279 -0.3414 -4.5515
  974MOL0     H31441   8.801   4.241   5.604 -1.0843 -0.5021 -0.3970
  974MOL0     H31442   8.851   4.213   5.276 -1.8121  0.9867  1.4955
  974MOL0     H31443   8.984   4.159   5.382 -0.5713  1.0488  1.4039
  974MOL0     H31444   8.945   3.927   5.285  1.1712 -0.5198 -1.3730
  974MOL0     H31445   8.825   3.989   5.180 -0.5771  1.1147 -0.4970
  974MOL0     H31446   9.109   4.053   5.189 -0.9605 -4.0130  1.3967
  974MOL0     H31447   9.006   4.170   5.109  2.3436 -0.6465  2.3405
  974MOL0     H31448   9.084   4.031   4.923 -2.3869  2.5091 -0.9285
  974MOL0     H31449   8.922   3.973   4.955 -0.4857  0.9534 -1.0027
  974MOL0     H31450   9.277   4.035   5.035 -2.1139 -0.4950  3.0048
  974MOL0     H31451   9.519   3.958   5.022  0.5854 -0.3370  1.2605
  974MOL0     H31452   9.813   3.589   5.267  0.9263 -0.6651  0.7165
  974MOL0     H31453  10.051   3.584   5.276  0.2884 -2.6284  0.5270
  974MOL0     H31454  10.250   3.684   5.222 -1.2841 -0.4700  0.0309
  974MOL0     H31455  10.293   3.528   5.251  0.2714  0.7803 -0.9408
  974MOL0     H31456  10.423   3.695   5.030 -2.0906 -2.9493 -0.6099
  974MOL0     H31457  10.492   3.702   5.202  1.9936 -1.0700  0.5163
  974MOL0     H31458  10.524   3.454   5.170 -3.4906 -0.5743 -0.0219
  974MOL0     H31459  10.459   3.458   5.010 -1.5882  1.0407  0.6505
  974MOL0     H31460  10.702   3.602   5.119 -0.6066 -0.5187  0.4552
  974MOL0     H31461  10.645   3.609   4.950  0.4699 -4.8757 -2.2397
  974MOL0     H31462  10.672   3.395   4.903  0.7355  0.4962 -0.5633
  974MOL0     H31463  10.710   3.348   5.073 -1.0374 -2.6927 -2.1075
  974MOL0     H31464  10.897   3.550   4.944  2.8433 -0.6552  0.5393
  974MOL0     H31465  10.914   3.442   5.071  0.2282 -0.1494  0.5358
  974MOL0     H31466  10.900   3.363   4.770 -1.3803 -2.4342  0.1801
  974MOL0     H31467  10.877   3.251   4.896 -2.4289  1.3593 -1.2898
  974MOL0     H31468  11.104   3.437   4.831 -2.1807 -0.5588 -1.1733
  974MOL0     H31469  11.117   3.337   4.983  0.7208  1.2701 -0.1476
  974MOL0     H31470  10.056   3.539   4.852  0.7394  1.0122  0.8486
  974MOL0     H31471   9.797   3.536   4.855 -2.3340  0.2002  0.9433
  974MOL0     H31472   9.389   3.554   5.063  1.2784  0.0789 -2.2040
  974MOL0     H31473   9.167   3.613   5.040  1.8190 -1.8115 -2.2847
  974MOL0     H31474   7.970   4.267   6.518  0.2111 -0.1552 -2.7297
  974MOL0     H31475   8.015   4.227   6.751  0.5487  1.9252 -1.5928
  974MOL0     H31476   8.219   4.180   7.072  2.6312 -0.4758  1.5556
  974MOL0     H31477   8.231   4.204   7.295 -0.3405 -0.1422 -0.3130
  974MOL0     H31478   8.154   4.235   7.511 -2.0501 -0.6060 -1.8037
  974MOL0     H31479   8.300   4.118   7.500  0.4345  0.2014  2.4342
  974MOL0     H31480   8.239   4.026   7.717 -1.4244  0.2380  1.1785
  974MOL0     H31481   8.121   4.142   7.735  0.7806  0.0659  2.6677
  974MOL0     H31482   8.304   4.331   7.715 -5.0194 -0.2795  1.5698
  974MOL0     H31483   8.415   4.193   7.696 -0.0009  2.5864 -1.7719
  974MOL0     H31484   8.236   4.236   7.939 -0.8051  0.6514 -1.0298
  974MOL0     H31485   8.373   4.122   7.923 -1.7949 -0.7104  0.1852
  974MOL0     H31486   8.578   4.469   8.028  1.3925  0.7881 -2.3287
  974MOL0     H31487   8.028   3.823   7.352 -1.0866  0.8768  0.2002
  974MOL0     H31488   8.002   3.668   7.184  2.1752 -0.9781 -0.3171
  974MOL0     H31489   7.947   3.758   7.031 -0.6482  0.5545  0.4271
  974MOL0     H31490   8.107   3.681   7.054  0.7953  0.1463 -1.4135
  975MOL0     O31491   7.507   4.715   3.233  0.0767  0.4871 -0.9562
  975MOL0     C31492   7.470   4.686   3.121  0.8202  0.3264  0.7958
  975MOL0     O31493   7.524   4.585   3.035  0.0881  0.4609  0.2386
  975MOL0     C31494   7.655   4.575   3.024 -0.1952  0.4304 -0.6433
  975MOL0     C31495   7.741   4.681   3.023 -0.4772 -0.6751  0.1938
  975MOL0     C31496   7.878   4.669   2.997  0.0913  0.2552 -0.0778
  975MOL0     C31497   7.936   4.539   2.989  0.3817  1.0237  0.5518
  975MOL0     O31498   8.068   4.530   2.971 -0.7773 -0.3795 -0.4661
  975MOL0     C31499   8.123   4.401   2.958 -0.2349  0.2200  0.6735
  975MOL0     C31500   8.274   4.402   2.933 -0.2777 -0.0667  0.3521
  975MOL0     C31501   8.342   4.259   2.910 -0.2517 -0.6932 -0.2303
  975MOL0     C31502   8.487   4.263   2.932 -0.2132  0.3761 -1.5030
  975MOL0     C31503   8.564   4.131   2.907  0.2919  0.0886 -0.6952
  975MOL0     C31504   8.603   4.123   2.763  0.1154 -0.8632 -0.1696
  975MOL0     C31505   8.681   4.004   2.750 -0.1601  0.4759  1.1993
  975MOL0     C31506   8.837   4.023   2.788  0.0748 -0.6885  0.0510
  975MOL0     N31507   8.927   4.060   2.674  0.9162  0.4557  0.1488
  975MOL0     C31508   9.000   3.975   2.594  0.1458 -0.3221  0.3385
  975MOL0     C31509   9.068   4.058   2.506 -0.1242 -0.5844 -0.0300
  975MOL0     C31510   9.171   4.026   2.409 -0.6290 -0.1775 -1.3443
  975MOL0     C31511   9.309   4.008   2.486 -0.4552  0.2348  0.5996
  975MOL0     C31512   9.414   3.997   2.373  0.1225 -0.1595 -0.9030
  975MOL0     C31513   9.552   3.951   2.420 -0.3872 -0.6911  0.7081
  975MOL0     O31514   9.606   4.052   2.519 -0.2020  0.0037 -0.6364
  975MOL0     C31515   9.748   4.044   2.544 -0.2539  0.0043  0.5875
  975MOL0     C31516   9.826   3.937   2.515  0.2677  0.2037  0.3206
  975MOL0     C31517   9.967   3.947   2.522 -0.0048 -0.0857  1.0299
  975MOL0     C31518  10.031   4.057   2.580 -0.1604 -0.0188  0.3828
  975MOL0     C31519  10.180   4.064   2.594  0.4852  0.5362 -0.2382
  975MOL0     O31520  10.228   4.123   2.702 -0.3060 -0.1194 -0.7589
  975MOL0     C31521  10.372   4.131   2.705  0.8153 -0.6240 -0.2096
  975MOL0     C31522  10.458   4.020   2.686 -0.1920  0.1834 -0.1185
  975MOL0     C31523  10.597   4.042   2.699  0.1657 -0.1511  0.1006
  975MOL0     C31524  10.653   4.170   2.709 -0.5146  0.3589  0.9051
  975MOL0     O31525  10.789   4.182   2.713 -0.2849  0.2272  0.3385
  975MOL0     C31526  10.851   4.308   2.715 -0.4090  0.0672  0.8347
  975MOL0     C31527  11.006   4.296   2.722 -0.5361 -0.1662  0.1303
  975MOL0     C31528  11.066   4.444   2.730  0.0818 -0.7110  0.6993
  975MOL0     C31529  11.219   4.453   2.727 -0.0232 -0.2060  0.4983
  975MOL0     C31530  11.260   4.559   2.828  0.3924  0.3655  0.1786
  975MOL0     C31531  11.268   4.514   2.970 -0.0433  0.1875  0.6082
  975MOL0     C31532  11.384   4.410   2.990 -0.4406 -0.2249  0.1021
  975MOL0     C31533  11.426   4.389   3.128 -0.4669 -0.4908 -0.2653
  975MOL0    Cl31534  11.289   4.382   3.250 -0.3621  0.0748  0.6025
  975MOL0     C31535  10.572   4.277   2.732 -0.2651  0.5457  1.0239
  975MOL0     C31536  10.432   4.260   2.732 -0.8050  0.0475 -0.0680
  975MOL0     O31537  10.240   4.010   2.503 -0.1454  0.2809 -0.0583
  975MOL0     C31538   9.955   4.165   2.618  1.7348 -0.8482 -0.3203
  975MOL0     C31539   9.818   4.157   2.589  0.8165 -0.7487 -0.5831
  975MOL0     N31540   9.022   4.187   2.535 -0.5828 -0.3019  0.5040
  975MOL0     N31541   8.927   4.188   2.624 -0.2221  0.9769 -0.1395
  975MOL0     C31542   7.845   4.426   3.010  0.3400 -0.2571  0.7464
  975MOL0     C31543   7.707   4.442   3.015  0.8373 -1.3909  0.6369
  975MOL0     C31544   7.339   4.746   3.078  0.0075  0.6058  0.5817
  975MOL0     C31545   7.247   4.664   3.012  0.6801  0.2653 -0.2092
  975MOL0     C31546   7.121   4.711   2.995 -0.5783  0.2712 -0.1162
  975MOL0     C31547   7.078   4.829   3.037 -0.8672  0.4253  0.8701
  975MOL0     O31548   6.954   4.867   3.025  0.2130 -0.8090  0.2319
  975MOL0     C31549   6.847   4.781   3.068 -0.5013 -0.0127  0.3781
  975MOL0     C31550   6.733   4.868   3.114 -0.2516  0.4326 -1.1355
  975MOL0     C31551   6.662   4.930   2.995  0.4801 -0.2270 -0.3861
  975MOL0     C31552   6.550   5.037   3.036  0.3346 -0.9415 -0.4935
  975MOL0     C31553   6.604   5.148   3.109  0.2718  0.1815  0.6220
  975MOL0     C31554   6.665   5.235   3.173  0.6151 -0.5107  0.0952
  975MOL0     C31555   7.170   4.921   3.084 -0.2631  0.0132  0.1241
  975MOL0     C31556   7.303   4.875   3.108  0.0120 -0.3335 -0.2301
  975MOL0     C31557   7.405   4.980   3.149  0.8602 -0.3893  0.1174
  975MOL0     H31558   7.696   4.779   3.039 -0.5503 -0.8865  1.4282
  975MOL0     H31559   7.939   4.758   2.988 -0.2894  0.5339  0.0720
  975MOL0     H31560   8.112   4.353   3.056 -1.7124  1.6785  1.2656
  975MOL0     H31561   8.074   4.340   2.881 -0.3182 -0.4633  1.2495
  975MOL0     H31562   8.308   4.455   3.022 -0.0348  2.1698 -1.0186
  975MOL0     H31563   8.286   4.464   2.844 -1.3771 -1.0103 -0.4855
  975MOL0     H31564   8.325   4.217   2.811  2.3018  0.2975 -1.1686
  975MOL0     H31565   8.306   4.196   2.992 -0.1980  2.1725  2.1778
  975MOL0     H31566   8.528   4.348   2.876  1.4242 -0.1429 -1.1439
  975MOL0     H31567   8.496   4.285   3.039 -0.3220  2.4039 -1.8639
  975MOL0     H31568   8.654   4.131   2.968 -0.9110  0.3935  1.1583
  975MOL0     H31569   8.499   4.049   2.938  1.1764 -0.8659 -1.3091
  975MOL0     H31570   8.506   4.114   2.712 -0.1286  0.6393 -0.0007
  975MOL0     H31571   8.666   4.208   2.736  0.8566 -1.9104 -1.9277
  975MOL0     H31572   8.682   3.963   2.649 -0.9276  0.7912  1.0554
  975MOL0     H31573   8.641   3.925   2.815 -2.5056  0.3272 -0.3134
  975MOL0     H31574   8.846   4.093   2.871 -3.1133 -0.2476  0.1593
  975MOL0     H31575   8.861   3.930   2.840  1.1202 -1.3448 -1.5143
  975MOL0     H31576   9.006   3.867   2.598  0.0309 -0.3201  0.6024
  975MOL0     H31577   9.129   3.940   2.356 -1.2579 -0.2675 -0.7123
  975MOL0     H31578   9.180   4.108   2.337  2.6461  0.8888  0.0446
  975MOL0     H31579   9.338   4.087   2.556  3.0296  1.4225 -1.8899
  975MOL0     H31580   9.299   3.915   2.543  1.0261  0.5684  1.4591
  975MOL0     H31581   9.424   4.100   2.337 -0.7707  0.9804  1.8529
  975MOL0     H31582   9.375   3.931   2.295 -0.0022 -0.4888 -0.5705
  975MOL0     H31583   9.624   3.948   2.337 -0.8309 -2.2328  0.3455
  975MOL0     H31584   9.551   3.848   2.458  0.7263 -0.5780  1.0813
  975MOL0     H31585   9.788   3.839   2.486  0.8211 -0.0387  0.3924
  975MOL0     H31586  10.030   3.870   2.480  0.8913  1.0091  0.3311
  975MOL0     H31587  10.430   3.918   2.660  3.9788 -0.4060 -3.5907
  975MOL0     H31588  10.661   3.956   2.716 -0.9204 -1.7342 -3.0327
  975MOL0     H31589  10.820   4.358   2.623  1.0241  0.2510  0.4374
  975MOL0     H31590  10.815   4.363   2.803  3.2428  2.7360  0.9087
  975MOL0     H31591  11.031   4.229   2.804 -0.4298 -4.6129 -3.1701
  975MOL0     H31592  11.046   4.243   2.635 -2.2300 -1.5361  0.1262
  975MOL0     H31593  11.027   4.488   2.637 -2.4050 -4.3017 -0.1483
  975MOL0     H31594  11.021   4.476   2.825 -1.1312 -2.1182  0.6334
  975MOL0     H31595  11.255   4.493   2.632  0.1891  5.0187  2.4260
  975MOL0     H31596  11.263   4.356   2.750  1.7267  0.3992 -0.1286
  975MOL0     H31597  11.185   4.638   2.823 -2.6471 -2.3614 -0.8603
  975MOL0     H31598  11.359   4.599   2.802 -0.8803  2.3846 -2.0498
  975MOL0     H31599  11.278   4.604   3.031  3.5854  1.4458 -1.5763
  975MOL0     H31600  11.175   4.463   2.997  0.4370 -1.1726 -0.2147
  975MOL0     H31601  11.477   4.429   2.935 -1.2689 -0.3372 -1.3879
  975MOL0     H31602  11.347   4.315   2.951 -2.2688  0.7609 -0.7050
  975MOL0     H31603  11.490   4.300   3.127 -1.0141 -1.0194 -3.9279
  975MOL0     H31604  11.492   4.466   3.166 -0.0193 -1.3830  0.8143
  975MOL0     H31605  10.611   4.378   2.727  0.6320  0.1825  0.5217
  975MOL0     H31606  10.371   4.348   2.746  0.6775  1.2882 -1.0346
  975MOL0     H31607   9.989   4.255   2.668 -1.2687  0.2146  0.0276
  975MOL0     H31608   9.762   4.248   2.609 -1.9063 -2.3742 -0.3243
  975MOL0     H31609   7.873   4.323   2.993  1.4093  0.3125 -1.2204
  975MOL0     H31610   7.637   4.359   3.016  1.1466 -1.8287 -3.0010
  975MOL0     H31611   7.271   4.559   3.000  1.8271  0.2302  1.9960
  975MOL0     H31612   7.055   4.644   2.940  0.2802 -3.1518  2.6445
  975MOL0     H31613   6.882   4.718   3.150  1.4107  1.8840  1.0896
  975MOL0     H31614   6.817   4.722   2.980  2.6478  0.9371 -1.4889
  975MOL0     H31615   6.781   4.949   3.169  0.6589 -2.3106  2.4500
  975MOL0     H31616   6.666   4.819   3.185  2.3033 -0.1573  1.0492
  975MOL0     H31617   6.617   4.856   2.928  0.0525 -0.1451 -0.1962
  975MOL0     H31618   6.728   4.992   2.934 -2.9833  2.1180 -2.1156
  975MOL0     H31619   6.498   5.079   2.950  0.8289 -0.2947 -0.4863
  975MOL0     H31620   6.477   4.987   3.100  1.0940 -0.8753  0.4492
  975MOL0     H31621   6.732   5.310   3.210  0.3131  0.6252 -1.5255
  975MOL0     H31622   7.136   5.017   3.122  1.2723 -0.5456  3.1700
  975MOL0     H31623   7.419   4.966   3.256 -2.6121  1.4187  0.9194
  975MOL0     H31624   7.493   4.965   3.085  1.1463  0.8665  0.1881
  975MOL0     H31625   7.360   5.079   3.145  2.0032  0.2096  1.2927
  976MOL0     O31626   2.857   5.499   0.860  0.0638 -0.3644 -0.1477
  976MOL0     C31627   2.884   5.483   0.979  0.6210 -0.4495 -0.0364
  976MOL0     O31628   3.007   5.492   1.037 -0.7666 -0.4771 -0.6747
  976MOL0     C31629   3.095   5.546   0.951  0.0959  0.5688  0.5800
  976MOL0     C31630   3.087   5.681   0.912 -0.4455  0.4816  0.3292
  976MOL0     C31631   3.190   5.727   0.827  0.4188 -1.0555  0.6300
  976MOL0     C31632   3.296   5.657   0.781  0.9656  0.0914  0.2814
  976MOL0     O31633   3.386   5.704   0.687  0.2273 -0.0771 -0.0714
  976MOL0     C31634   3.448   5.837   0.702 -1.0067 -0.5839 -0.4700
  976MOL0     C31635   3.561   5.854   0.611 -0.0695  0.5428  0.0872
  976MOL0     C31636   3.647   5.982   0.621  0.0816 -0.1733  0.0710
  976MOL0     C31637   3.762   5.991   0.518 -0.1516  0.1721 -0.1653
  976MOL0     C31638   3.878   6.075   0.559 -0.2134  0.0226  0.4798
  976MOL0     C31639   3.983   6.101   0.454 -0.4099  0.1587  0.3418
  976MOL0     C31640   4.083   6.202   0.504 -0.3173  0.3386 -0.6301
  976MOL0     C31641   4.231   6.142   0.512  0.7864  1.0175  0.6800
  976MOL0     N31642   4.311   6.253   0.567  0.1489  0.5129  0.4015
  976MOL0     C31643   4.348   6.362   0.498  0.0450 -0.8443  0.5414
  976MOL0     C31644   4.412   6.442   0.585  0.0361 -0.3769 -0.1508
  976MOL0     C31645   4.447   6.585   0.561  0.4731  0.1177  0.0020
  976MOL0     C31646   4.589   6.618   0.599 -0.1721 -0.0614 -0.5916
  976MOL0     C31647   4.591   6.664   0.748 -0.3201 -0.2540 -1.7327
  976MOL0     C31648   4.733   6.681   0.798 -0.6861  0.1832  1.3435
  976MOL0     O31649   4.831   6.747   0.706  0.3893  0.4935 -0.2593
  976MOL0     C31650   4.970   6.707   0.717  1.1709 -0.2814  0.3124
  976MOL0     C31651   5.036   6.675   0.837  0.4409 -0.3261 -0.1146
  976MOL0     C31652   5.168   6.638   0.844  0.2168  0.5217  0.2717
  976MOL0     C31653   5.248   6.628   0.724  0.2534  0.6488  0.0495
  976MOL0     C31654   5.388   6.591   0.712  0.2369  0.1746 -0.2429
  976MOL0     O31655   5.447   6.604   0.597 -0.4538  0.8226 -0.1748
  976MOL0     C31656   5.574   6.559   0.591  0.0895  0.1779  0.0830
  976MOL0     C31657   5.607   6.446   0.517  0.3449  0.6553 -0.2625
  976MOL0     C31658   5.737   6.403   0.523 -0.3269  0.0939 -0.3383
  976MOL0     C31659   5.840   6.482   0.593  0.0790 -0.6368  0.6188
  976MOL0     O31660   5.961   6.422   0.576  0.1625 -0.7299 -0.4182
  976MOL0     C31661   6.080   6.499   0.619 -0.2420 -0.0717  0.4918
  976MOL0     C31662   6.208   6.450   0.562  0.3837  0.6932 -0.0355
  976MOL0     C31663   6.219   6.437   0.404  0.1471  1.2237 -0.8191
  976MOL0     C31664   6.207   6.561   0.317 -0.2702  0.1003  0.4115
  976MOL0     C31665   6.307   6.680   0.320  0.0035  1.1698 -0.0437
  976MOL0     C31666   6.234   6.805   0.288  0.0572  0.1031 -0.0647
  976MOL0     C31667   6.319   6.930   0.297 -0.0480  0.1033 -0.3755
  976MOL0     C31668   6.250   7.067   0.252  1.0572 -0.1766  0.0198
  976MOL0    Cl31669   6.232   7.033   0.083 -0.4079  0.2847  0.5078
  976MOL0     C31670   5.810   6.603   0.646  0.7920 -0.4093 -1.1001
  976MOL0     C31671   5.678   6.640   0.645  0.1547  0.8526 -0.2669
  976MOL0     O31672   5.436   6.543   0.818 -0.4383 -0.2991  0.9558
  976MOL0     C31673   5.182   6.676   0.609  0.8150  0.1119 -0.1297
  976MOL0     C31674   5.048   6.714   0.602 -0.2354  0.3036 -0.5599
  976MOL0     N31675   4.420   6.377   0.702  0.1349 -0.9397 -0.2006
  976MOL0     N31676   4.364   6.260   0.691  0.5492  0.8449 -0.0270
  976MOL0     C31677   3.303   5.529   0.826  0.0254 -0.0854  0.4186
  976MOL0     C31678   3.205   5.472   0.912 -0.4841  0.3075 -0.6718
  976MOL0     C31679   2.772   5.447   1.072 -0.4601 -0.8916 -0.4100
  976MOL0     C31680   2.781   5.490   1.211  0.4794 -0.2578  0.6175
  976MOL0     C31681   2.696   5.437   1.312  0.3277  0.0622  0.3134
  976MOL0     C31682   2.588   5.358   1.279  0.2039  0.1870  0.0378
  976MOL0     O31683   2.512   5.317   1.382 -0.0808 -0.3709 -0.2532
  976MOL0     C31684   2.389   5.251   1.351  0.5657  1.3919  0.6693
  976MOL0     C31685   2.318   5.239   1.484  0.1164  0.7131  0.1445
  976MOL0     C31686   2.286   5.373   1.540 -0.1652 -0.5328 -1.4991
  976MOL0     C31687   2.214   5.365   1.676  0.2355  0.3929  1.0258
  976MOL0     C31688   2.074   5.313   1.658  0.0562 -0.2035  0.0504
  976MOL0     C31689   1.967   5.257   1.639 -0.5265  0.2170  0.5918
  976MOL0     C31690   2.569   5.333   1.139  0.3863 -0.3181  0.2888
  976MOL0     C31691   2.654   5.380   1.037  0.1353 -0.1000  0.5908
  976MOL0     C31692   2.605   5.358   0.894  0.2737 -0.3749 -0.9036
  976MOL0     H31693   2.996   5.739   0.928 -1.6680 -1.5105  0.9984
  976MOL0     H31694   3.166   5.829   0.796  0.7131 -0.5476  2.0243
  976MOL0     H31695   3.372   5.907   0.669  1.9674  2.1559 -2.0785
  976MOL0     H31696   3.475   5.872   0.802 -0.8119 -2.1238  0.0564
  976MOL0     H31697   3.518   5.850   0.510 -2.6768  0.5697  1.1285
  976MOL0     H31698   3.628   5.767   0.611  2.1831  2.1576  2.4245
  976MOL0     H31699   3.688   5.974   0.722  0.7483  0.3235 -0.1518
  976MOL0     H31700   3.588   6.074   0.610 -0.2436 -0.1289  1.8490
  976MOL0     H31701   3.796   5.890   0.493 -1.7400 -0.5923  0.5725
  976MOL0     H31702   3.724   6.033   0.425 -2.3630 -1.4602 -0.0800
  976MOL0     H31703   3.837   6.171   0.591 -1.7831 -0.3337 -0.3843
  976MOL0     H31704   3.928   6.025   0.642 -1.3171  2.5017  2.7930
  976MOL0     H31705   4.029   6.004   0.434  0.3853  0.2493  1.6175
  976MOL0     H31706   3.932   6.138   0.365 -1.1126  0.0733  0.7031
  976MOL0     H31707   4.058   6.228   0.608 -0.9903  0.1283 -0.7400
  976MOL0     H31708   4.089   6.293   0.445  4.2776 -0.1254 -1.2480
  976MOL0     H31709   4.242   6.053   0.575  3.6313  3.1066  3.4488
  976MOL0     H31710   4.270   6.112   0.415 -1.2906 -1.0343  0.3851
  976MOL0     H31711   4.327   6.381   0.393  0.9658 -2.1931  0.0763
  976MOL0     H31712   4.435   6.594   0.453  0.4154  0.0374  0.0017
  976MOL0     H31713   4.377   6.653   0.610 -0.6570 -1.5887  0.8382
  976MOL0     H31714   4.661   6.538   0.580 -0.0921 -0.1370  0.0060
  976MOL0     H31715   4.619   6.704   0.537 -0.2928 -0.3387 -1.0396
  976MOL0     H31716   4.548   6.592   0.818  1.8827  0.3179  0.3169
  976MOL0     H31717   4.543   6.762   0.763  1.6839  0.5768 -0.3252
  976MOL0     H31718   4.775   6.579   0.799  1.1841  0.7226 -2.3505
  976MOL0     H31719   4.742   6.724   0.898  2.7207  0.7778  0.9252
  976MOL0     H31720   4.979   6.679   0.929 -0.0868 -0.0412 -0.4492
  976MOL0     H31721   5.209   6.610   0.941 -0.0875 -0.5634  0.1100
  976MOL0     H31722   5.535   6.407   0.447 -1.0814 -1.9742  2.4031
  976MOL0     H31723   5.762   6.315   0.465  0.9645  0.8812 -1.0222
  976MOL0     H31724   6.074   6.605   0.593  0.2062 -0.0605  0.4289
  976MOL0     H31725   6.098   6.495   0.727 -0.0369  2.1402  0.5812
  976MOL0     H31726   6.285   6.519   0.599  0.6647  0.8126 -0.8226
  976MOL0     H31727   6.227   6.352   0.606 -0.6214  0.2039 -0.6397
  976MOL0     H31728   6.316   6.391   0.380 -1.3604 -1.0314 -3.0580
  976MOL0     H31729   6.142   6.363   0.382  1.4446 -0.4283 -0.0968
  976MOL0     H31730   6.109   6.607   0.331 -1.0356 -0.5561 -2.3456
  976MOL0     H31731   6.228   6.540   0.212  2.8912  2.0477  0.5302
  976MOL0     H31732   6.380   6.673   0.239  0.4909  0.7634  0.4134
  976MOL0     H31733   6.354   6.680   0.419 -1.4545  0.1150  0.6757
  976MOL0     H31734   6.201   6.794   0.184 -3.0936  1.3173  0.6907
  976MOL0     H31735   6.146   6.815   0.352 -4.0419  1.3598 -5.2564
  976MOL0     H31736   6.410   6.915   0.239 -2.3273  0.9187 -4.5838
  976MOL0     H31737   6.347   6.938   0.402  2.2986 -0.9554 -0.8462
  976MOL0     H31738   6.162   7.083   0.316 -0.2743 -1.0253 -1.5162
  976MOL0     H31739   6.322   7.144   0.278 -0.3953  0.8140  1.3041
  976MOL0     H31740   5.881   6.670   0.694  0.0267 -0.1886 -0.2508
  976MOL0     H31741   5.650   6.730   0.699  0.7404  0.8451  0.0512
  976MOL0     H31742   5.244   6.677   0.520 -0.6182  2.1188 -1.1827
  976MOL0     H31743   5.007   6.744   0.505  1.8816  1.0755 -1.2696
  976MOL0     H31744   3.375   5.455   0.794 -0.6716  0.3058 -2.2424
  976MOL0     H31745   3.199   5.371   0.953 -1.0167  0.8060  0.5257
  976MOL0     H31746   2.863   5.552   1.246  0.5649 -1.2874  2.3262
  976MOL0     H31747   2.709   5.465   1.416  0.2077 -1.4631  0.7661
  976MOL0     H31748   2.400   5.154   1.303 -0.3681  0.8671  1.4844
  976MOL0     H31749   2.323   5.305   1.283  0.1813 -2.0416 -1.9091
  976MOL0     H31750   2.387   5.182   1.546 -2.0932 -2.8296 -0.3580
  976MOL0     H31751   2.224   5.187   1.461  1.3007 -0.3158 -2.9367
  976MOL0     H31752   2.221   5.423   1.468 -2.8319 -0.4602  0.7865
  976MOL0     H31753   2.379   5.428   1.555 -0.2190 -0.6186 -0.7770
  976MOL0     H31754   2.258   5.294   1.747 -1.2359 -1.3786  0.2711
  976MOL0     H31755   2.200   5.468   1.709  1.2327  1.0629 -0.5381
  976MOL0     H31756   1.875   5.207   1.617 -0.4685  0.3958 -0.0718
  976MOL0     H31757   2.498   5.260   1.100  1.1937 -0.0414 -1.8430
  976MOL0     H31758   2.682   5.290   0.855  0.3242  1.4720 -4.3645
  976MOL0     H31759   2.509   5.305   0.885 -0.8994  1.4225  0.2638
  976MOL0     H31760   2.602   5.452   0.838 -0.3799 -0.2495 -0.6640
  977MOL0     O31761   0.959   4.723   1.043 -0.3779 -0.3234 -0.7474
  977MOL0     C31762   0.891   4.637   0.993 -0.1157  1.5362  0.6940
  977MOL0     O31763   0.944   4.523   0.926 -0.3246 -0.4115  0.1353
  977MOL0     C31764   1.080   4.487   0.943 -0.2094 -0.0004 -0.3687
  977MOL0     C31765   1.108   4.390   1.043  0.2148 -0.2970 -0.4490
  977MOL0     C31766   1.241   4.348   1.065 -0.4145  0.4181 -0.6388
  977MOL0     C31767   1.350   4.401   0.992 -0.2852 -0.0083  0.6588
  977MOL0     O31768   1.475   4.355   1.017 -0.3683  0.7186 -0.2661
  977MOL0     C31769   1.573   4.394   0.919 -0.1515 -0.1755 -0.0915
  977MOL0     C31770   1.716   4.342   0.967  0.2073  0.3469  0.2060
  977MOL0     C31771   1.747   4.194   0.972  1.0234 -0.2895  0.1431
  977MOL0     C31772   1.884   4.165   1.047 -0.1956  0.3910  0.8324
  977MOL0     C31773   1.923   4.021   1.001 -0.6274 -0.0812 -0.5063
  977MOL0     C31774   2.035   3.961   1.093  0.3196 -0.0819  0.4608
  977MOL0     C31775   2.083   3.815   1.066  0.6769 -0.6930  0.9200
  977MOL0     C31776   2.186   3.770   1.166  0.1287  0.5727  0.1850
  977MOL0     N31777   2.240   3.643   1.130  0.2966  0.7864  0.0845
  977MOL0     C31778   2.311   3.605   1.019  0.3539  0.0341 -0.4666
  977MOL0     C31779   2.336   3.473   1.028  0.5668  0.8043 -0.3282
  977MOL0     C31780   2.381   3.390   0.913 -0.3054  0.4595 -0.4443
  977MOL0     C31781   2.354   3.241   0.941  0.0232 -0.4128 -0.8275
  977MOL0     C31782   2.423   3.176   1.064  0.9524 -0.8559 -0.2489
  977MOL0     C31783   2.467   3.042   1.034 -0.5666  0.8259 -0.5675
  977MOL0     O31784   2.553   3.038   0.921  0.1998  0.2313 -0.1709
  977MOL0     C31785   2.680   3.010   0.963  0.3705 -0.1940 -0.1534
  977MOL0     C31786   2.726   2.879   0.943 -0.7699  0.6554 -0.1142
  977MOL0     C31787   2.842   2.848   1.012  0.3642 -0.3012  0.5713
  977MOL0     C31788   2.906   2.944   1.100  0.0642 -1.3632  0.0237
  977MOL0     C31789   3.032   2.918   1.186 -0.4741  0.4805  0.2227
  977MOL0     O31790   3.082   3.015   1.272  0.3933 -0.1214  0.4357
  977MOL0     C31791   3.190   2.982   1.343 -0.7584 -0.0232  0.1375
  977MOL0     C31792   3.320   2.978   1.280 -0.3620  1.1102 -0.4041
  977MOL0     C31793   3.437   2.948   1.357  0.6805  0.4045  0.0589
  977MOL0     C31794   3.421   2.917   1.494 -1.0682  0.3077 -0.4011
  977MOL0     O31795   3.529   2.913   1.574  0.8234  0.1991 -0.4413
  977MOL0     C31796   3.555   3.035   1.662  1.1537  0.0536 -0.1943
  977MOL0     C31797   3.686   3.049   1.743  0.3202 -0.5118  0.0594
  977MOL0     C31798   3.796   3.122   1.661 -0.2192  0.2250  0.3651
  977MOL0     C31799   3.941   3.093   1.722  0.3845 -0.2464 -0.1076
  977MOL0     C31800   4.032   3.203   1.673 -0.0024 -0.4210 -0.3294
  977MOL0     C31801   4.184   3.182   1.698  0.5014  0.0991 -0.7249
  977MOL0     C31802   4.271   3.305   1.667  0.0972  0.8223 -0.1922
  977MOL0     C31803   4.354   3.295   1.538  1.3096  0.1710 -0.2996
  977MOL0    Cl31804   4.445   3.445   1.495 -0.2649  0.0134 -0.2140
  977MOL0     C31805   3.294   2.920   1.551 -0.7745  0.5943 -0.3323
  977MOL0     C31806   3.179   2.966   1.480 -0.0564 -0.0718 -0.5723
  977MOL0     O31807   3.084   2.803   1.167 -0.0529  0.1830 -0.0251
  977MOL0     C31808   2.864   3.070   1.113  0.2293 -0.1325 -0.4238
  977MOL0     C31809   2.751   3.104   1.040 -0.3671 -0.0896 -0.2280
  977MOL0     N31810   2.271   3.425   1.143  0.2121  0.6669  0.6424
  977MOL0     N31811   2.217   3.528   1.200  0.4142  0.0948  0.3419
  977MOL0     C31812   1.316   4.501   0.889  0.7904  0.9655  0.3774
  977MOL0     C31813   1.184   4.538   0.867  0.3298 -0.4991  0.0078
  977MOL0     C31814   0.744   4.629   1.005  0.5930 -0.7504 -0.6055
  977MOL0     C31815   0.684   4.507   1.000 -0.4939 -0.0327  0.4914
  977MOL0     C31816   0.553   4.481   1.016  0.3312  0.4714  0.0916
  977MOL0     C31817   0.465   4.584   1.035  1.1223 -0.5197 -0.3442
  977MOL0     O31818   0.334   4.546   1.054  0.2989 -0.4087 -0.2440
  977MOL0     C31819   0.246   4.661   1.055  0.1667  0.2680 -0.4672
  977MOL0     C31820   0.108   4.604   1.009  0.4555 -0.5057  0.8335
  977MOL0     C31821   0.011   4.719   1.024  0.0324  0.8057  0.4736
  977MOL0     C31822  -0.136   4.670   0.992  0.2637 -0.2425  0.9587
  977MOL0     C31823  -0.238   4.786   1.019 -0.1817  0.3282 -0.2051
  977MOL0     C31824  -0.306   4.884   1.042  0.8704 -0.5196  0.1301
  977MOL0     C31825   0.515   4.715   1.049 -0.0944  0.2922 -0.5665
  977MOL0     C31826   0.656   4.737   1.037 -0.3886  0.1870  1.0276
  977MOL0     C31827   0.699   4.883   1.078 -0.0707  0.2423  0.8787
  977MOL0     H31828   1.026   4.349   1.100 -1.1373 -0.9054 -2.7178
  977MOL0     H31829   1.260   4.266   1.133  1.0286 -0.6089 -2.1653
  977MOL0     H31830   1.553   4.348   0.822 -0.3101 -0.4159  0.0543
  977MOL0     H31831   1.574   4.502   0.901 -1.6675 -0.0251  0.6372
  977MOL0     H31832   1.719   4.377   1.071 -2.6055  0.3715  0.3395
  977MOL0     H31833   1.791   4.386   0.901  1.1453 -0.6570  0.5627
  977MOL0     H31834   1.747   4.149   0.872  1.3151 -2.0711  0.9022
  977MOL0     H31835   1.666   4.144   1.025  1.0266 -1.5318 -0.9603
  977MOL0     H31836   1.961   4.234   1.012  0.7977 -1.3488 -0.5799
  977MOL0     H31837   1.886   4.169   1.157  0.3989 -0.5137  0.8665
  977MOL0     H31838   1.833   3.958   1.004 -0.6563 -0.0517 -0.7250
  977MOL0     H31839   1.954   4.024   0.897  0.8992  1.1675 -0.0565
  977MOL0     H31840   2.126   4.021   1.086 -1.0379  2.1647  1.1102
  977MOL0     H31841   1.997   3.975   1.195 -0.0853  0.2237  0.2684
  977MOL0     H31842   2.126   3.808   0.966  3.0596 -0.4523  1.8699
  977MOL0     H31843   1.995   3.751   1.061 -0.7127  1.1762  0.1451
  977MOL0     H31844   2.257   3.854   1.167 -0.7570  1.4553 -2.3330
  977MOL0     H31845   2.150   3.760   1.269  0.4339  2.7888  0.5540
  977MOL0     H31846   2.335   3.669   0.935 -0.4169  2.3064  0.9438
  977MOL0     H31847   2.320   3.421   0.827  0.6493  1.5429 -0.7580
  977MOL0     H31848   2.487   3.415   0.905  0.5495 -1.9367  1.8383
  977MOL0     H31849   2.245   3.226   0.948  0.1764 -0.9313  1.2225
  977MOL0     H31850   2.393   3.184   0.857  2.3006 -2.5068  1.4847
  977MOL0     H31851   2.360   3.166   1.153  2.2889  1.2323  1.0174
  977MOL0     H31852   2.507   3.244   1.084  0.9258 -0.4985 -1.2668
  977MOL0     H31853   2.373   2.993   1.007 -1.6435  0.8614  2.6613
  977MOL0     H31854   2.499   2.995   1.128 -1.1020  2.5410  0.5372
  977MOL0     H31855   2.670   2.800   0.894 -0.3467  0.3903 -0.1824
  977MOL0     H31856   2.897   2.756   0.993 -1.4606 -1.7371  1.8323
  977MOL0     H31857   3.323   3.006   1.175  2.9791 -1.2446 -1.0938
  977MOL0     H31858   3.537   2.958   1.315  0.0544 -2.0577 -2.2783
  977MOL0     H31859   3.550   3.114   1.586 -0.8883 -1.7331 -2.0758
  977MOL0     H31860   3.468   3.051   1.725  1.1173 -0.8378 -0.0157
  977MOL0     H31861   3.674   3.115   1.830 -1.8044 -1.3743  0.4802
  977MOL0     H31862   3.721   2.956   1.790  0.1175 -1.2978 -1.3126
  977MOL0     H31863   3.797   3.069   1.566  3.8665  0.7210 -0.0392
  977MOL0     H31864   3.773   3.227   1.645  0.3919  0.3778  0.4563
  977MOL0     H31865   3.993   3.004   1.685 -0.0506  0.0978 -1.6349
  977MOL0     H31866   3.924   3.104   1.829 -4.1128  0.0208 -0.6484
  977MOL0     H31867   3.992   3.296   1.714 -1.1208  0.5274 -3.3261
  977MOL0     H31868   4.017   3.210   1.565 -0.6929  1.1725 -0.1594
  977MOL0     H31869   4.196   3.166   1.805  2.0331 -0.0116 -0.8887
  977MOL0     H31870   4.223   3.095   1.643  0.8120 -0.1790 -0.0808
  977MOL0     H31871   4.346   3.300   1.745  2.4324 -2.9596 -2.3970
  977MOL0     H31872   4.213   3.398   1.667 -0.0043  0.7591 -0.1375
  977MOL0     H31873   4.427   3.214   1.536  1.7441  0.5780 -1.1495
  977MOL0     H31874   4.297   3.265   1.450  0.3174 -0.8762  0.6647
  977MOL0     H31875   3.284   2.907   1.658  0.7927  0.6544 -0.1566
  977MOL0     H31876   3.082   2.981   1.526 -0.9017 -0.9702 -1.9661
  977MOL0     H31877   2.900   3.154   1.172 -2.2798 -0.7768  2.2603
  977MOL0     H31878   2.712   3.205   1.031  0.2584  0.0373 -1.7271
  977MOL0     H31879   1.386   4.535   0.813  0.5224  0.8050  0.0577
  977MOL0     H31880   1.155   4.607   0.788 -1.0548 -0.7221  0.2958
  977MOL0     H31881   0.745   4.425   0.963  0.9112  1.5301 -0.8427
  977MOL0     H31882   0.527   4.376   1.007  0.6711 -0.2497  4.6365
  977MOL0     H31883   0.270   4.738   0.982  4.2244 -0.2090  0.1644
  977MOL0     H31884   0.242   4.698   1.158  0.4980  0.5576 -0.5601
  977MOL0     H31885   0.080   4.517   1.068  2.0326 -0.4444  1.7239
  977MOL0     H31886   0.108   4.573   0.904 -2.4985  1.0319  0.2784
  977MOL0     H31887   0.046   4.791   0.949  0.0829  0.3289  0.0323
  977MOL0     H31888   0.024   4.763   1.123 -1.2714  0.2107  0.9292
  977MOL0     H31889  -0.138   4.635   0.888 -1.9659  1.9721  0.1488
  977MOL0     H31890  -0.159   4.586   1.059  2.1224 -0.4709  1.3603
  977MOL0     H31891  -0.357   4.978   1.057 -0.1672 -0.9094 -0.8335
  977MOL0     H31892   0.455   4.805   1.056  0.7108  1.1423 -3.3083
  977MOL0     H31893   0.631   4.935   1.011  0.7112  0.0896 -0.0469
  977MOL0     H31894   0.675   4.907   1.182 -0.9763  0.3089  0.6594
  977MOL0     H31895   0.804   4.907   1.057 -0.0271  1.5844  2.4404
  978MOL0     O31896   7.609   8.091   8.674  0.0695  0.1414  1.3296
  978MOL0     C31897   7.563   8.120   8.564 -0.9876 -0.9046  0.3076
  978MOL0     O31898   7.640   8.166   8.456 -0.1309  0.5370 -0.6182
  978MOL0     C31899   7.767   8.216   8.467 -0.1261  0.4499  0.5726
  978MOL0     C31900   7.883   8.141   8.423  0.5983 -0.0711 -0.2655
  978MOL0     C31901   8.020   8.180   8.448  0.5180  0.4662 -0.5542
  978MOL0     C31902   8.049   8.296   8.522 -0.0111  0.2828  0.3041
  978MOL0     O31903   8.167   8.340   8.559 -0.5587 -0.4117  0.4459
  978MOL0     C31904   8.222   8.429   8.469  0.2902  0.7901  0.2053
  978MOL0     C31905   8.317   8.525   8.546  0.5923 -0.6133 -0.5231
  978MOL0     C31906   8.413   8.601   8.453  0.4743 -0.0747  0.1397
  978MOL0     C31907   8.515   8.681   8.535 -0.3607  0.4070  0.0669
  978MOL0     C31908   8.629   8.588   8.587 -0.1960 -0.1448 -0.0826
  978MOL0     C31909   8.757   8.682   8.615  0.3825  0.5554  0.3798
  978MOL0     C31910   8.888   8.597   8.600 -1.2516 -0.1207 -0.4999
  978MOL0     C31911   9.008   8.654   8.669  0.2763  0.2372 -0.5126
  978MOL0     N31912   9.129   8.594   8.624 -0.3432 -0.0383 -0.2599
  978MOL0     C31913   9.173   8.468   8.662 -0.1451 -0.5170  0.4850
  978MOL0     C31914   9.305   8.458   8.622  0.4317 -0.3530  0.0467
  978MOL0     C31915   9.398   8.346   8.655 -0.4683  0.1382 -0.7470
  978MOL0     C31916   9.411   8.319   8.805 -0.7951 -0.4799 -0.1391
  978MOL0     C31917   9.467   8.437   8.895  0.2374 -0.0989 -0.2678
  978MOL0     C31918   9.595   8.516   8.842  0.1189 -0.4968 -1.0043
  978MOL0     O31919   9.698   8.410   8.839  0.6084  0.0187  0.2242
  978MOL0     C31920   9.822   8.441   8.792  0.1086 -0.9682 -0.3198
  978MOL0     C31921   9.920   8.344   8.803 -0.0754 -0.6039 -0.1195
  978MOL0     C31922  10.055   8.370   8.782  0.4443  0.8965 -0.9243
  978MOL0     C31923  10.099   8.497   8.743 -0.1054 -1.0823 -0.6838
  978MOL0     C31924  10.243   8.528   8.707 -0.3531 -0.0485 -0.4469
  978MOL0     O31925  10.336   8.441   8.744 -0.3863  0.0383 -0.3200
  978MOL0     C31926  10.472   8.480   8.733  1.3438  0.1354  1.2268
  978MOL0     C31927  10.526   8.602   8.766  0.4576  0.4098  0.6717
  978MOL0     C31928  10.666   8.628   8.746  0.0746  0.5302  0.4351
  978MOL0     C31929  10.750   8.532   8.682  0.1218  0.5395 -0.3814
  978MOL0     O31930  10.877   8.579   8.659 -0.1609  0.1704  0.3196
  978MOL0     C31931  10.984   8.490   8.617 -0.2117 -1.0371 -0.5936
  978MOL0     C31932  11.042   8.413   8.732  0.2583 -0.0393  0.5397
  978MOL0     C31933  11.180   8.364   8.693  0.5313  0.5508  0.7021
  978MOL0     C31934  11.193   8.283   8.565  0.9031  0.3751 -0.8468
  978MOL0     C31935  11.330   8.217   8.538 -0.2027 -0.1235 -0.3767
  978MOL0     C31936  11.438   8.321   8.506 -0.2380  0.7688  0.8069
  978MOL0     C31937  11.558   8.250   8.442  0.1021  0.2830  0.2287
  978MOL0     C31938  11.630   8.332   8.329  0.2582 -0.0241 -0.2423
  978MOL0    Cl31939  11.689   8.487   8.391  0.4701  0.5272  0.2017
  978MOL0     C31940  10.698   8.408   8.640  0.5977 -0.7389  0.4302
  978MOL0     C31941  10.555   8.379   8.663 -0.0696 -0.0445 -0.0211
  978MOL0     O31942  10.263   8.626   8.634  0.3289 -0.4958 -0.2762
  978MOL0     C31943   9.994   8.597   8.715  0.6688  0.3937  0.8701
  978MOL0     C31944   9.863   8.565   8.747 -0.8045 -0.1508  0.7207
  978MOL0     N31945   9.345   8.577   8.572  0.2491  0.2799 -0.3787
  978MOL0     N31946   9.237   8.654   8.567  0.1270  0.5600 -0.0588
  978MOL0     C31947   7.939   8.363   8.568 -0.7857  0.2604  0.2036
  978MOL0     C31948   7.808   8.333   8.542 -0.1067  0.5603  0.6464
  978MOL0     C31949   7.421   8.085   8.534  0.6844 -1.0216 -0.0590
  978MOL0     C31950   7.396   7.991   8.434 -0.4622  0.0639  0.6705
  978MOL0     C31951   7.267   7.955   8.391 -1.0779 -0.3804  0.7595
  978MOL0     C31952   7.160   8.022   8.444  0.3894 -0.5074  0.8003
  978MOL0     O31953   7.027   8.005   8.417  1.1263 -0.9885  0.1496
  978MOL0     C31954   6.984   7.938   8.301  0.1089  0.4455 -0.1778
  978MOL0     C31955   6.835   7.972   8.299 -0.0461 -0.1788  0.3873
  978MOL0     C31956   6.778   7.931   8.162  0.4826 -0.6881  0.5603
  978MOL0     C31957   6.622   7.918   8.161  0.5565 -0.2769 -0.6487
  978MOL0     C31958   6.571   7.832   8.254 -0.2273  1.1319 -0.6781
  978MOL0     C31959   6.551   7.767   8.361  1.2093 -0.5671 -0.3024
  978MOL0     C31960   7.178   8.125   8.536  0.2200 -0.6499 -0.8433
  978MOL0     C31961   7.307   8.159   8.580  0.3078 -0.1481 -0.4312
  978MOL0     C31962   7.326   8.269   8.682  0.3810 -0.3393  0.0862
  978MOL0     H31963   7.854   8.065   8.352 -1.9862  0.6187 -0.0576
  978MOL0     H31964   8.110   8.126   8.420 -0.0643 -1.4240  0.9510
  978MOL0     H31965   8.295   8.377   8.406 -0.3316  1.1356 -0.8277
  978MOL0     H31966   8.147   8.480   8.407  0.9486  2.8666  1.0173
  978MOL0     H31967   8.376   8.457   8.608  3.3967  1.2379 -0.9809
  978MOL0     H31968   8.254   8.592   8.604  0.2195 -0.8078 -0.6971
  978MOL0     H31969   8.346   8.670   8.403  0.2526 -0.1317  0.3590
  978MOL0     H31970   8.453   8.517   8.394 -1.8650 -1.1127 -0.0932
  978MOL0     H31971   8.542   8.772   8.482  0.3310  0.4286  0.4439
  978MOL0     H31972   8.463   8.719   8.624 -1.6430 -0.4646 -0.2884
  978MOL0     H31973   8.616   8.516   8.669  1.4664 -1.5216 -0.9555
  978MOL0     H31974   8.656   8.518   8.507  4.0922 -0.0977  1.0795
  978MOL0     H31975   8.765   8.767   8.546 -1.4350 -0.6331 -1.4123
  978MOL0     H31976   8.748   8.725   8.715 -2.6831 -2.6854  1.7414
  978MOL0     H31977   8.906   8.596   8.492 -0.5261  1.2454 -0.4043
  978MOL0     H31978   8.882   8.495   8.639 -1.9877  0.4825  1.0083
  978MOL0     H31979   9.028   8.760   8.651  0.9256  0.5471  1.7471
  978MOL0     H31980   8.985   8.648   8.775 -1.1561  0.4214 -0.7978
  978MOL0     H31981   9.113   8.395   8.716 -1.4659  0.6273  0.6379
  978MOL0     H31982   9.344   8.257   8.621 -1.2623  0.0103  0.7897
  978MOL0     H31983   9.493   8.365   8.605  0.4923 -0.8642  0.6609
  978MOL0     H31984   9.317   8.279   8.842 -1.8184  0.9910 -1.0235
  978MOL0     H31985   9.484   8.240   8.823 -1.9775 -2.0634 -1.9576
  978MOL0     H31986   9.487   8.399   8.996  1.8550  1.0875 -0.1000
  978MOL0     H31987   9.380   8.502   8.911  0.8194  0.4567  0.7291
  978MOL0     H31988   9.621   8.598   8.911  0.1190 -1.5745  0.3191
  978MOL0     H31989   9.571   8.546   8.740 -1.0254  1.6189 -0.1865
  978MOL0     H31990   9.887   8.241   8.811  0.9383 -0.8572  1.2327
  978MOL0     H31991  10.123   8.288   8.802  0.5242  0.8085 -1.5444
  978MOL0     H31992  10.464   8.674   8.817 -0.5183 -0.3833  0.6398
  978MOL0     H31993  10.701   8.722   8.788  1.2072  0.2453  0.1406
  978MOL0     H31994  10.952   8.429   8.531  1.5948  0.5804 -2.5216
  978MOL0     H31995  11.066   8.555   8.586  1.5416 -1.8024  2.1239
  978MOL0     H31996  11.068   8.481   8.814  0.3286  0.8474 -0.1942
  978MOL0     H31997  10.980   8.333   8.772  0.6637 -1.1227 -0.9263
  978MOL0     H31998  11.258   8.440   8.702  0.1059  0.9747  0.8636
  978MOL0     H31999  11.202   8.299   8.777 -4.3627  0.5839  2.3010
  978MOL0     H32000  11.163   8.343   8.478 -0.2929  0.9335 -0.0743
  978MOL0     H32001  11.125   8.198   8.578  0.3174  1.1795  1.9705
  978MOL0     H32002  11.310   8.160   8.447 -1.6547 -0.1804 -0.0451
  978MOL0     H32003  11.373   8.156   8.618  0.8544 -0.3527 -1.0999
  978MOL0     H32004  11.401   8.393   8.434 -0.3615 -1.6766 -1.7471
  978MOL0     H32005  11.468   8.377   8.595  0.5337  0.8192  0.5261
  978MOL0     H32006  11.528   8.152   8.405 -0.3209  1.0051 -1.4164
  978MOL0     H32007  11.640   8.230   8.513 -0.0661  1.8357  0.9009
  978MOL0     H32008  11.718   8.278   8.292  0.1027  0.7132 -1.7863
  978MOL0     H32009  11.556   8.346   8.249 -1.7695 -2.6012  1.0226
  978MOL0     H32010  10.752   8.331   8.584 -0.0810 -1.3475  0.6015
  978MOL0     H32011  10.503   8.290   8.629 -0.8082  0.6023 -0.6100
  978MOL0     H32012  10.022   8.696   8.681 -1.6038  1.4031  1.7711
  978MOL0     H32013   9.789   8.645   8.742  0.2247  0.9257  2.1276
  978MOL0     H32014   7.959   8.449   8.632  0.2126  1.0817 -1.1535
  978MOL0     H32015   7.728   8.387   8.591 -1.6226 -1.8704  1.0245
  978MOL0     H32016   7.485   7.945   8.394 -0.4743  0.3011  0.3641
  978MOL0     H32017   7.258   7.891   8.304 -2.1246  2.3526 -1.2615
  978MOL0     H32018   7.000   7.829   8.303 -1.5794  0.1875  1.0494
  978MOL0     H32019   7.032   7.975   8.210  1.7542 -1.7887 -0.3178
  978MOL0     H32020   6.818   8.080   8.308 -0.8135 -0.2678  0.1147
  978MOL0     H32021   6.791   7.927   8.388 -0.5941  1.9235  1.2397
  978MOL0     H32022   6.814   7.833   8.130 -0.0525 -0.9826  0.8409
  978MOL0     H32023   6.814   8.007   8.093  2.4387 -0.9564  1.2411
  978MOL0     H32024   6.578   8.016   8.182  0.8381 -0.3550  0.3620
  978MOL0     H32025   6.593   7.883   8.062 -0.6771  1.6332 -1.0142
  978MOL0     H32026   6.537   7.717   8.454 -1.7200 -0.6382 -0.6917
  978MOL0     H32027   7.091   8.170   8.582  0.3941 -0.1706 -0.9726
  978MOL0     H32028   7.379   8.346   8.625 -0.4164 -1.9904 -3.1857
  978MOL0     H32029   7.232   8.322   8.699  1.1969  3.3909 -4.6511
  978MOL0     H32030   7.383   8.236   8.769 -0.0090  0.1809  0.5457
  979MOL0     O32031   8.071   9.991   4.044  0.3878  0.0714  0.5966
  979MOL0     C32032   8.016   9.887   4.038  0.7675 -0.3428 -0.3456
  979MOL0     O32033   8.065   9.765   3.989 -0.3600 -0.2613 -0.7836
  979MOL0     C32034   8.194   9.784   3.951  0.4591 -0.1032  0.2774
  979MOL0     C32035   8.297   9.734   4.036  0.1794  0.0287 -0.3810
  979MOL0     C32036   8.428   9.729   3.988  0.5120  0.4752  0.2867
  979MOL0     C32037   8.460   9.772   3.855 -0.6502 -0.0002 -0.2931
  979MOL0     O32038   8.582   9.782   3.797 -0.3783  1.0240  0.3087
  979MOL0     C32039   8.693   9.781   3.893 -0.0066 -0.1744  0.0848
  979MOL0     C32040   8.771   9.914   3.901 -0.5332 -0.0400 -0.1340
  979MOL0     C32041   8.923   9.880   3.892 -0.5495  0.2482  0.5549
  979MOL0     C32042   8.999   9.817   4.023 -0.2280 -0.4329 -0.4448
  979MOL0     C32043   9.151   9.796   3.993  0.8384 -0.3859  0.5998
  979MOL0     C32044   9.218   9.768   4.125 -0.3319 -0.0624 -0.2285
  979MOL0     C32045   9.365   9.772   4.115 -0.5710  0.5938  0.0943
  979MOL0     C32046   9.434   9.711   4.237  0.0517 -0.0500 -0.7265
  979MOL0     N32047   9.581   9.736   4.216 -0.8471 -0.1475 -0.3500
  979MOL0     C32048   9.656   9.668   4.129  0.5225 -0.1226 -0.4198
  979MOL0     C32049   9.778   9.722   4.142  0.1325 -0.0904 -0.7416
  979MOL0     C32050   9.886   9.681   4.051 -0.1555 -0.4344  0.8468
  979MOL0     C32051   9.972   9.563   4.101 -0.7024 -0.0089 -0.0131
  979MOL0     C32052  10.077   9.519   4.006  0.3733 -0.2537 -0.8400
  979MOL0     C32053  10.164   9.405   4.059 -0.2082 -0.7101  0.6968
  979MOL0     O32054  10.284   9.462   4.112 -0.6851 -0.2209 -0.4881
  979MOL0     C32055  10.405   9.410   4.084  0.2507 -0.9117  0.6901
  979MOL0     C32056  10.439   9.322   3.987  0.8594 -0.5787  0.1237
  979MOL0     C32057  10.562   9.280   3.961 -0.3340 -1.0126  0.3575
  979MOL0     C32058  10.672   9.327   4.039  0.1169 -0.8828 -0.7103
  979MOL0     C32059  10.811   9.284   4.010  0.3556  0.7233  0.3707
  979MOL0     O32060  10.817   9.171   3.942  0.2692 -0.2708  0.0330
  979MOL0     C32061  10.942   9.119   3.918 -0.5203 -0.4512  0.3372
  979MOL0     C32062  11.047   9.196   3.856 -0.6469 -0.1384  0.3729
  979MOL0     C32063  11.174   9.150   3.846 -0.2805 -0.0173 -0.2207
  979MOL0     C32064  11.208   9.023   3.883 -0.1588  0.2003 -0.3489
  979MOL0     O32065  11.335   8.981   3.884 -0.7057  0.3604  1.2746
  979MOL0     C32066  11.372   8.839   3.909 -0.9493 -0.1408 -0.7347
  979MOL0     C32067  11.526   8.819   3.872  0.3242 -1.0908  0.6039
  979MOL0     C32068  11.570   8.890   3.743 -0.6691  0.8861 -0.7379
  979MOL0     C32069  11.726   8.907   3.738  0.1368 -0.3736  1.2012
  979MOL0     C32070  11.777   8.934   3.594 -0.1430  0.0608  1.1324
  979MOL0     C32071  11.933   8.949   3.587 -0.6293 -0.9502  0.0590
  979MOL0     C32072  11.980   9.066   3.670  0.5809 -0.3048 -0.9839
  979MOL0     C32073  11.957   9.195   3.591 -0.1021  0.2729 -0.3085
  979MOL0    Cl32074  12.036   9.329   3.691  0.3000  0.2875  0.1798
  979MOL0     C32075  11.106   8.945   3.943 -0.0508 -0.5707  0.4960
  979MOL0     C32076  10.978   8.993   3.961 -0.1290  0.4680  0.9637
  979MOL0     O32077  10.909   9.356   4.048  0.1376 -0.3986 -0.3099
  979MOL0     C32078  10.638   9.420   4.140 -0.3333  0.3462 -0.7342
  979MOL0     C32079  10.507   9.466   4.155  0.4352 -0.2520 -0.2723
  979MOL0     N32080   9.785   9.807   4.252  0.5636 -0.1214  0.2544
  979MOL0     N32081   9.665   9.815   4.288 -1.0549  0.1654 -0.4432
  979MOL0     C32082   8.361   9.831   3.781  0.6321 -0.0009  0.0315
  979MOL0     C32083   8.225   9.842   3.830 -0.3526 -0.0592  0.1982
  979MOL0     C32084   7.878   9.879   4.091 -0.7602  0.3134 -0.2432
  979MOL0     C32085   7.802   9.766   4.045  0.7321  1.0017 -0.0962
  979MOL0     C32086   7.676   9.746   4.100  1.2102 -0.1226  0.1110
  979MOL0     C32087   7.618   9.825   4.193 -0.0478  0.9027  0.3132
  979MOL0     O32088   7.502   9.776   4.253  0.0850  0.5363 -0.3252
  979MOL0     C32089   7.411   9.862   4.328 -0.4037  0.4108  0.3595
  979MOL0     C32090   7.367   9.799   4.456  0.6341 -0.9083 -0.5560
  979MOL0     C32091   7.281   9.890   4.548  0.1466 -0.5957 -0.4377
  979MOL0     C32092   7.285   9.847   4.703  0.8338 -0.5179  0.3552
  979MOL0     C32093   7.416   9.870   4.763  0.4407 -0.2661  0.9402
  979MOL0     C32094   7.530   9.895   4.793 -0.2901 -0.1385  0.0186
  979MOL0     C32095   7.688   9.941   4.232 -0.2106  0.1196  0.1745
  979MOL0     C32096   7.817   9.970   4.172  0.2930  0.3767 -0.3885
  979MOL0     C32097   7.873  10.101   4.220  0.4952 -0.2048 -0.3320
  979MOL0     H32098   8.276   9.717   4.141 -1.7803  2.1241 -0.3757
  979MOL0     H32099   8.501   9.679   4.049 -2.0298 -2.4842  1.1631
  979MOL0     H32100   8.685   9.734   3.992  0.1363 -1.7987 -0.6445
  979MOL0     H32101   8.768   9.721   3.840  0.6884  0.3637  0.4328
  979MOL0     H32102   8.757   9.960   4.000 -2.1904 -1.1617  0.1890
  979MOL0     H32103   8.734   9.985   3.828 -1.6277 -0.1207  0.3259
  979MOL0     H32104   8.984   9.964   3.858 -0.3562 -0.4738 -0.9841
  979MOL0     H32105   8.950   9.806   3.816  0.2250  0.2543  0.8131
  979MOL0     H32106   8.989   9.895   4.099 -0.2990 -1.6119  0.7710
  979MOL0     H32107   8.944   9.726   4.048 -0.1698  0.2207  2.3055
  979MOL0     H32108   9.155   9.704   3.935  1.9334 -0.7362  1.2050
  979MOL0     H32109   9.170   9.887   3.934 -1.3730 -1.2396 -1.5540
  979MOL0     H32110   9.183   9.835   4.203 -2.7953  1.0221 -2.1139
  979MOL0     H32111   9.191   9.667   4.158 -3.4786  1.1874  1.4984
  979MOL0     H32112   9.400   9.871   4.085  3.1405  0.1054  2.2176
  979MOL0     H32113   9.391   9.703   4.034  2.4348 -1.4885  2.5883
  979MOL0     H32114   9.409   9.755   4.334  2.0825  0.9999 -0.6191
  979MOL0     H32115   9.414   9.604   4.244 -3.1809  0.4359 -1.2336
  979MOL0     H32116   9.622   9.586   4.066  0.5279  0.2679 -0.9385
  979MOL0     H32117   9.840   9.646   3.958  1.2133  0.2500 -0.1315
  979MOL0     H32118   9.952   9.765   4.029  0.0564 -0.7800  0.1602
  979MOL0     H32119  10.020   9.603   4.190 -1.8484  0.4808  0.4045
  979MOL0     H32120   9.913   9.478   4.137 -1.2039  0.7392  0.9873
  979MOL0     H32121  10.136   9.606   3.977 -2.6483  2.3151  0.1098
  979MOL0     H32122  10.027   9.486   3.914  0.1409  3.0243 -2.0160
  979MOL0     H32123  10.174   9.337   3.974  1.3223  0.6999 -0.3038
  979MOL0     H32124  10.111   9.354   4.139 -1.5791 -1.0993 -0.4144
  979MOL0     H32125  10.372   9.285   3.910 -0.5272 -1.0759  1.5078
  979MOL0     H32126  10.569   9.211   3.877 -1.4981 -0.1483 -0.4788
  979MOL0     H32127  11.017   9.299   3.841  0.5154  0.4661  1.8780
  979MOL0     H32128  11.251   9.213   3.802 -0.8890  0.3481 -0.7805
  979MOL0     H32129  11.345   8.809   4.011 -5.4826  1.2969 -1.2862
  979MOL0     H32130  11.327   8.770   3.838 -1.0260 -2.2011  1.2056
  979MOL0     H32131  11.577   8.863   3.958 -1.7349 -0.0762  1.3697
  979MOL0     H32132  11.550   8.713   3.867  4.0335 -0.3444 -0.9604
  979MOL0     H32133  11.540   8.829   3.658  0.7218  1.5501 -1.7507
  979MOL0     H32134  11.518   8.983   3.718  0.3125  1.5734 -0.3240
  979MOL0     H32135  11.779   8.817   3.769  0.4765  0.5294  3.4165
  979MOL0     H32136  11.747   8.992   3.804  2.8732  1.5331 -1.8529
  979MOL0     H32137  11.734   9.031   3.565  0.9568  1.0521  2.6414
  979MOL0     H32138  11.744   8.854   3.527 -1.0635 -0.3002  1.9865
  979MOL0     H32139  11.987   8.860   3.623  1.5623 -0.1818 -1.1651
  979MOL0     H32140  11.974   8.963   3.487  3.8690  1.3144  1.9463
  979MOL0     H32141  12.083   9.047   3.702  0.0084  0.5766  1.5822
  979MOL0     H32142  11.925   9.076   3.764  1.4267 -0.1898 -0.4905
  979MOL0     H32143  12.005   9.195   3.493 -1.1681  0.4835 -0.8412
  979MOL0     H32144  11.852   9.222   3.577 -0.3074  1.1956  2.4517
  979MOL0     H32145  11.134   8.848   3.984 -1.3077 -0.2455  2.2276
  979MOL0     H32146  10.910   8.917   3.999  0.4815 -0.5542  0.0985
  979MOL0     H32147  10.712   9.463   4.206 -0.8880 -0.7118  0.6118
  979MOL0     H32148  10.489   9.545   4.226  0.4109  0.1073 -0.6738
  979MOL0     H32149   8.383   9.869   3.682 -0.5314 -0.5383 -0.4611
  979MOL0     H32150   8.142   9.866   3.763 -2.0369  1.9278  2.8177
  979MOL0     H32151   7.843   9.694   3.977 -1.4263  0.7996 -1.2803
  979MOL0     H32152   7.621   9.659   4.064 -1.3453  1.7059 -0.6631
  979MOL0     H32153   7.319   9.881   4.272  0.5368  4.8224 -0.0090
  979MOL0     H32154   7.455   9.960   4.350 -1.1118  0.6909  0.5468
  979MOL0     H32155   7.456   9.764   4.508  2.0732  0.9492 -1.6779
  979MOL0     H32156   7.310   9.711   4.423  0.7494 -0.3527 -2.3282
  979MOL0     H32157   7.177   9.897   4.516 -0.5838 -3.5270  0.9933
  979MOL0     H32158   7.324   9.990   4.538 -0.5577 -0.2677 -0.2772
  979MOL0     H32159   7.214   9.903   4.764 -2.4031 -0.9130 -2.7348
  979MOL0     H32160   7.257   9.741   4.711  3.3744 -1.4079 -1.0769
  979MOL0     H32161   7.629   9.897   4.836 -1.5507  3.1090  3.2754
  979MOL0     H32162   7.646  10.016   4.298  0.3810  2.0023 -1.4830
  979MOL0     H32163   7.804  10.176   4.179 -1.9289 -1.7498  0.6944
  979MOL0     H32164   7.860  10.101   4.329  1.5392  0.7772 -0.1859
  979MOL0     H32165   7.975  10.135   4.202 -0.4001  2.5175 -0.8687
  980MOL0     O32166   8.248   6.085   6.786 -0.0026  0.2992 -0.3653
  980MOL0     C32167   8.293   6.037   6.888  0.4926 -0.5039 -0.5039
  980MOL0     O32168   8.225   6.022   7.008 -0.5572 -0.6818  0.0221
  980MOL0     C32169   8.106   6.089   7.025  0.5294 -0.4450  0.2670
  980MOL0     C32170   8.086   6.170   7.144 -0.3459  0.2980  0.3178
  980MOL0     C32171   7.964   6.229   7.173  0.3929  0.5044 -0.5399
  980MOL0     C32172   7.857   6.204   7.092  1.3971 -0.6570  0.2685
  980MOL0     O32173   7.737   6.255   7.138  0.4507  1.0894  0.9625
  980MOL0     C32174   7.616   6.218   7.060  0.1199 -0.2170  0.4282
  980MOL0     C32175   7.497   6.299   7.125  0.1345  0.3053  0.9518
  980MOL0     C32176   7.361   6.263   7.079 -0.2661 -0.0275 -0.0203
  980MOL0     C32177   7.290   6.137   7.132  0.5562  0.3243 -0.4617
  980MOL0     C32178   7.140   6.143   7.090 -0.2588  0.9280 -0.5360
  980MOL0     C32179   7.045   6.236   7.159  0.2379  0.1194 -0.6654
  980MOL0     C32180   6.896   6.189   7.132 -0.1855  0.2006 -0.5771
  980MOL0     C32181   6.778   6.264   7.205 -0.1123  0.1774 -0.3296
  980MOL0     N32182   6.798   6.277   7.358 -1.0531  0.3547  0.9434
  980MOL0     C32183   6.828   6.390   7.429  0.9747 -0.2730 -0.3380
  980MOL0     C32184   6.864   6.344   7.550  0.2303 -0.0353 -0.4524
  980MOL0     C32185   6.943   6.421   7.657 -1.0402  0.0860  0.4648
  980MOL0     C32186   7.091   6.368   7.659 -0.1892 -0.4186  0.3604
  980MOL0     C32187   7.169   6.405   7.525 -0.2666 -0.5188 -0.0180
  980MOL0     C32188   7.320   6.380   7.547  0.2048  0.3222 -0.7971
  980MOL0     O32189   7.382   6.490   7.614  0.8553  0.3358  0.0628
  980MOL0     C32190   7.520   6.483   7.619 -0.5891 -0.5825 -0.0698
  980MOL0     C32191   7.600   6.373   7.582  0.2302  1.4004 -0.0051
  980MOL0     C32192   7.731   6.363   7.607  0.0806  0.1196  0.7359
  980MOL0     C32193   7.795   6.453   7.701 -0.1012 -0.1973 -0.2740
  980MOL0     C32194   7.932   6.419   7.740  0.6702  0.8288  0.8683
  980MOL0     O32195   7.980   6.491   7.848 -0.4707  0.8112  0.9144
  980MOL0     C32196   8.077   6.433   7.927  1.4947  0.5333 -0.2846
  980MOL0     C32197   8.057   6.439   8.067  0.0660 -0.0601 -0.3760
  980MOL0     C32198   8.160   6.404   8.153  0.4151  0.0668  0.1164
  980MOL0     C32199   8.282   6.374   8.107 -0.4962  0.3908  0.1971
  980MOL0     O32200   8.389   6.351   8.190 -0.4611 -0.9335  0.0288
  980MOL0     C32201   8.419   6.214   8.201  0.5067 -0.6418 -1.3880
  980MOL0     C32202   8.572   6.196   8.210  0.1268  0.0984 -1.0413
  980MOL0     C32203   8.608   6.045   8.218  0.3317  0.4310  0.4380
  980MOL0     C32204   8.609   6.004   8.368  0.6590 -1.9041  0.2244
  980MOL0     C32205   8.669   5.866   8.405  0.3107 -0.1464 -0.4145
  980MOL0     C32206   8.617   5.736   8.326  0.0200  0.3240  0.0365
  980MOL0     C32207   8.462   5.736   8.317  0.4377  0.7640 -0.3645
  980MOL0     C32208   8.400   5.629   8.225  0.5949  0.5478  0.1558
  980MOL0    Cl32209   8.449   5.452   8.255 -0.0983 -0.1640  0.4041
  980MOL0     C32210   8.308   6.372   7.968 -0.2865 -0.0481 -0.0404
  980MOL0     C32211   8.200   6.404   7.884 -0.0269  0.3121  0.3554
  980MOL0     O32212   7.987   6.322   7.682  0.4334 -0.6003 -0.7417
  980MOL0     C32213   7.716   6.562   7.747  0.2137 -0.0070  0.8446
  980MOL0     C32214   7.589   6.585   7.696  0.6233  0.0457  1.0982
  980MOL0     N32215   6.842   6.206   7.558 -0.2990 -0.3234 -0.6299
  980MOL0     N32216   6.803   6.165   7.441 -0.3854  0.4912 -0.0918
  980MOL0     C32217   7.872   6.122   6.980 -0.3067  0.9846  0.3869
  980MOL0     C32218   7.994   6.062   6.948 -0.1211 -0.2217  0.1378
  980MOL0     C32219   8.427   5.963   6.883 -0.2178 -0.2720  0.5736
  980MOL0     C32220   8.467   5.880   6.994  0.3054 -0.4454  0.3820
  980MOL0     C32221   8.586   5.811   7.006 -0.1844 -0.7653  0.7012
  980MOL0     C32222   8.677   5.826   6.905  0.1105 -0.0103  1.0829
  980MOL0     O32223   8.802   5.771   6.902  0.2248 -0.0579  0.8252
  980MOL0     C32224   8.834   5.671   6.993 -0.5707  0.2169 -0.0511
  980MOL0     C32225   8.965   5.590   6.955  0.2590  0.0333  0.2892
  980MOL0     C32226   8.957   5.534   6.810 -0.0345 -0.4898  0.6206
  980MOL0     C32227   9.037   5.617   6.697  0.1324  0.6325  0.1700
  980MOL0     C32228   9.091   5.521   6.595  0.0868  0.3540  0.5841
  980MOL0     C32229   9.113   5.418   6.537 -0.4488 -0.6134  0.7736
  980MOL0     C32230   8.647   5.915   6.804  0.9562  0.2166  0.1963
  980MOL0     C32231   8.528   5.986   6.783 -0.0857  0.1327 -0.1682
  980MOL0     C32232   8.506   6.065   6.665 -0.1704  0.9896 -0.4765
  980MOL0     H32233   8.174   6.180   7.206 -2.1901  0.8187  3.0129
  980MOL0     H32234   7.947   6.286   7.264  0.3053  3.2104 -2.1448
  980MOL0     H32235   7.626   6.251   6.956 -2.0901  2.1520  0.8530
  980MOL0     H32236   7.597   6.112   7.044  1.3946  0.0682 -4.6826
  980MOL0     H32237   7.520   6.393   7.074  2.8433 -1.2481 -0.9734
  980MOL0     H32238   7.506   6.300   7.234 -0.0930  1.5181  0.9678
  980MOL0     H32239   7.360   6.247   6.971 -1.3671  1.0626 -0.1901
  980MOL0     H32240   7.300   6.353   7.096  0.3896  0.7619 -1.5649
  980MOL0     H32241   7.332   6.045   7.091 -0.7197  0.2665 -1.7084
  980MOL0     H32242   7.305   6.120   7.239 -1.5877 -1.6931 -0.4071
  980MOL0     H32243   7.134   6.158   6.982  1.9763  0.5144 -0.7868
  980MOL0     H32244   7.097   6.045   7.113 -2.2655  2.3769  2.6308
  980MOL0     H32245   7.064   6.215   7.265 -0.7688 -1.0119 -0.6916
  980MOL0     H32246   7.054   6.342   7.135 -3.1461  0.7774  0.4100
  980MOL0     H32247   6.884   6.084   7.159 -2.6858  0.1841 -1.4320
  980MOL0     H32248   6.881   6.204   7.024 -0.5596  0.8540 -0.4390
  980MOL0     H32249   6.760   6.361   7.157 -0.7595  0.4099  0.3638
  980MOL0     H32250   6.685   6.207   7.196 -1.0504  1.4716  0.6403
  980MOL0     H32251   6.840   6.489   7.388  0.0540 -0.0859 -0.1865
  980MOL0     H32252   6.939   6.529   7.643  2.2401  0.4615  1.7150
  980MOL0     H32253   6.910   6.413   7.761 -0.4788  3.9402  1.0800
  980MOL0     H32254   7.141   6.404   7.749 -1.6748 -2.0450  1.9167
  980MOL0     H32255   7.091   6.259   7.667 -2.9379 -0.5976 -0.7583
  980MOL0     H32256   7.160   6.512   7.505  1.7632 -0.6179 -1.7547
  980MOL0     H32257   7.122   6.356   7.439 -2.0837 -1.9094  1.6679
  980MOL0     H32258   7.370   6.361   7.451 -0.7964  0.8384 -1.4379
  980MOL0     H32259   7.329   6.294   7.614 -2.3916 -3.0529 -4.2901
  980MOL0     H32260   7.559   6.290   7.525 -0.5249  1.7962 -0.0526
  980MOL0     H32261   7.780   6.274   7.571  2.4502  1.9438 -0.8407
  980MOL0     H32262   7.969   6.481   8.114 -0.6097 -1.3333 -0.4535
  980MOL0     H32263   8.144   6.407   8.260 -0.8220 -2.6159  0.0822
  980MOL0     H32264   8.370   6.176   8.292  1.1621  0.2338 -0.6520
  980MOL0     H32265   8.376   6.158   8.117 -1.5817  2.1355 -2.3385
  980MOL0     H32266   8.608   6.255   8.125 -0.7704  1.5924 -0.4479
  980MOL0     H32267   8.607   6.251   8.298 -0.9606  0.3652 -0.7621
  980MOL0     H32268   8.548   5.985   8.149  1.1495 -0.0983  0.1610
  980MOL0     H32269   8.704   6.027   8.169 -0.3348 -0.3172 -0.6292
  980MOL0     H32270   8.503   6.010   8.394  0.4486  1.5608 -0.8289
  980MOL0     H32271   8.658   6.084   8.423  1.3849 -2.5476  0.5209
  980MOL0     H32272   8.653   5.858   8.513  1.5571  1.9791 -0.0126
  980MOL0     H32273   8.777   5.871   8.394  0.5456  0.1849  1.6487
  980MOL0     H32274   8.652   5.744   8.222  0.0791  2.7453  0.1912
  980MOL0     H32275   8.649   5.644   8.375 -1.2531  0.1997  0.6771
  980MOL0     H32276   8.432   5.836   8.285 -1.0869 -0.0296 -1.5370
  980MOL0     H32277   8.423   5.714   8.417  1.4917 -0.3393 -0.1733
  980MOL0     H32278   8.294   5.621   8.254  1.4701 -0.6737  3.4669
  980MOL0     H32279   8.409   5.651   8.119  0.4671 -1.7366 -0.3896
  980MOL0     H32280   8.405   6.341   7.929  0.1162 -0.9357  1.5646
  980MOL0     H32281   8.224   6.413   7.779  1.1301 -1.4874  0.4161
  980MOL0     H32282   7.761   6.623   7.824 -0.1026  0.5179  0.6190
  980MOL0     H32283   7.527   6.654   7.752 -1.3630 -2.1926  1.8277
  980MOL0     H32284   7.787   6.106   6.914 -2.1676 -1.0979  3.0317
  980MOL0     H32285   7.992   5.992   6.864  2.4828 -0.6336  0.3474
  980MOL0     H32286   8.392   5.867   7.072  0.9530 -3.5576  0.6259
  980MOL0     H32287   8.601   5.741   7.088 -0.2920 -0.1230  1.2791
  980MOL0     H32288   8.756   5.595   6.999 -2.1389  1.8279  0.8477
  980MOL0     H32289   8.845   5.707   7.096  0.1985 -1.2744  0.4099
  980MOL0     H32290   8.989   5.505   7.020  4.0068 -0.0956 -1.0504
  980MOL0     H32291   9.042   5.668   6.956  0.4538 -0.1610  0.9799
  980MOL0     H32292   8.855   5.519   6.773 -0.6145 -0.8079  2.2767
  980MOL0     H32293   9.012   5.440   6.816 -0.6694 -0.9000  0.1549
  980MOL0     H32294   8.969   5.686   6.647  1.5273  3.0276  1.3851
  980MOL0     H32295   9.124   5.660   6.748 -0.3618  0.2418  1.3879
  980MOL0     H32296   9.108   5.324   6.487 -2.9966 -0.6706  0.9898
  980MOL0     H32297   8.717   5.921   6.721 -0.8731 -0.6720 -1.5016
  980MOL0     H32298   8.489   6.168   6.699  1.4546  1.0035  0.3908
  980MOL0     H32299   8.599   6.059   6.606 -0.1732 -1.0524 -0.3437
  980MOL0     H32300   8.419   6.038   6.605  0.2752 -1.9507  0.0562
  981MOL0     O32301  10.419   0.871   9.794  0.4668  0.1367  0.1198
  981MOL0     C32302  10.451   0.753   9.829 -0.1805 -0.1528  0.2775
  981MOL0     O32303  10.367   0.668   9.895  0.9798  0.0447  0.0543
  981MOL0     C32304  10.238   0.710   9.919 -0.6043  0.3717 -0.4265
  981MOL0     C32305  10.199   0.723  10.051  0.1596 -0.4393 -0.3881
  981MOL0     C32306  10.072   0.751  10.090  0.5120 -0.6047 -0.1123
  981MOL0     C32307   9.967   0.755   9.991  0.2014 -0.1717  0.7348
  981MOL0     O32308   9.832   0.788  10.001  0.2854  0.4079 -0.7603
  981MOL0     C32309   9.759   0.806  10.131 -0.5520  0.5761 -0.1844
  981MOL0     C32310   9.608   0.832  10.094 -0.6910 -0.5748 -0.7841
  981MOL0     C32311   9.532   0.895  10.221  0.3903 -0.1743 -0.4713
  981MOL0     C32312   9.382   0.882  10.202  0.1918 -1.0258 -0.0920
  981MOL0     C32313   9.293   0.878  10.324  1.1649 -0.1325 -1.4108
  981MOL0     C32314   9.143   0.849  10.288 -0.8382 -0.4420  0.5079
  981MOL0     C32315   9.047   0.839  10.413  0.1268  0.7613  0.1830
  981MOL0     C32316   9.077   0.948  10.512  0.2493  0.5824 -0.4086
  981MOL0     N32317   8.971   0.948  10.615 -0.8097  0.5097 -0.9045
  981MOL0     C32318   8.908   1.062  10.668  0.0473  0.4018  0.3676
  981MOL0     C32319   8.823   1.020  10.757  0.1261  0.5122 -0.8615
  981MOL0     C32320   8.716   1.094  10.831 -0.0076 -0.3425  0.7189
  981MOL0     C32321   8.586   1.114  10.742  0.3947  0.5967 -1.0327
  981MOL0     C32322   8.507   0.978  10.718  0.7741 -0.8168  0.4474
  981MOL0     C32323   8.360   1.012  10.676 -0.4779  0.1118 -0.4459
  981MOL0     O32324   8.287   1.031  10.795 -0.5347 -0.2274  0.3738
  981MOL0     C32325   8.160   1.060  10.788 -0.0453  0.4464  0.3927
  981MOL0     C32326   8.093   1.066  10.910  0.0756 -0.6540  0.8084
  981MOL0     C32327   7.957   1.084  10.920 -0.1467  0.3381  0.5128
  981MOL0     C32328   7.886   1.104  10.798 -0.3305 -0.1959  0.3554
  981MOL0     C32329   7.741   1.121  10.807  0.9752  0.4780 -0.5287
  981MOL0     O32330   7.686   1.168  10.688  0.6563 -0.0528  0.0447
  981MOL0     C32331   7.551   1.178  10.680 -0.7163  0.1452 -0.3566
  981MOL0     C32332   7.462   1.083  10.750 -0.5112  0.8244  0.0929
  981MOL0     C32333   7.326   1.091  10.717 -0.6291  0.2881  0.9197
  981MOL0     C32334   7.268   1.183  10.622 -0.8277 -0.8188  0.3176
  981MOL0     O32335   7.133   1.177  10.594 -0.4400  0.8701 -0.1162
  981MOL0     C32336   7.057   1.291  10.617  0.8413 -0.2024  0.2629
  981MOL0     C32337   6.908   1.259  10.602 -0.6345  0.0994 -0.2460
  981MOL0     C32338   6.852   1.172  10.720  0.5021  0.0238  0.5846
  981MOL0     C32339   6.697   1.142  10.712  0.1841 -0.2568 -0.6441
  981MOL0     C32340   6.650   1.026  10.791 -0.3537 -0.0881  0.0992
  981MOL0     C32341   6.496   1.026  10.784  0.3501 -0.1988 -0.4903
  981MOL0     C32342   6.441   0.913  10.868  0.1985 -0.8615  0.7542
  981MOL0     C32343   6.287   0.903  10.849 -0.5178  0.3070  0.0893
  981MOL0    Cl32344   6.216   1.057  10.909  0.2472 -0.0163 -0.2800
  981MOL0     C32345   7.363   1.268  10.558 -0.0933 -0.1978  0.5609
  981MOL0     C32346   7.497   1.266  10.592 -1.1970 -0.5319  0.1846
  981MOL0     O32347   7.682   1.123  10.917  0.2798  0.6563 -0.5512
  981MOL0     C32348   7.959   1.104  10.672  0.1215  0.9147  0.1436
  981MOL0     C32349   8.094   1.083  10.667  0.5048  0.0244  0.5539
  981MOL0     N32350   8.856   0.890  10.791  1.1570 -0.7451 -0.2006
  981MOL0     N32351   8.949   0.846  10.708  0.3822  0.2742  0.8710
  981MOL0     C32352  10.010   0.748   9.854 -0.6523 -0.1495 -0.5060
  981MOL0     C32353  10.142   0.717   9.818 -0.1754  0.9974  0.3243
  981MOL0     C32354  10.590   0.714   9.807  0.4584  0.9629 -0.0318
  981MOL0     C32355  10.680   0.818   9.779  0.3348 -0.4153  0.3156
  981MOL0     C32356  10.818   0.798   9.761  0.1834  0.1953 -0.4377
  981MOL0     C32357  10.871   0.666   9.769 -0.0411 -0.0316  0.3457
  981MOL0     O32358  11.005   0.646   9.745 -1.0173  0.3003  0.6840
  981MOL0     C32359  11.076   0.537   9.808  0.9820 -0.0443  0.4113
  981MOL0     C32360  11.227   0.562   9.797  0.3518  0.5913 -0.2087
  981MOL0     C32361  11.270   0.579   9.654  0.1526 -0.1469 -0.0211
  981MOL0     C32362  11.422   0.598   9.648 -0.6135  0.7104  0.2180
  981MOL0     C32363  11.484   0.613   9.509  0.8939 -0.1422  0.4759
  981MOL0     C32364  11.512   0.624   9.392 -0.6821  0.3512  0.2624
  981MOL0     C32365  10.784   0.566   9.799  0.4074  0.3625  0.6512
  981MOL0     C32366  10.644   0.581   9.811  0.0635 -0.0186  0.5104
  981MOL0     C32367  10.560   0.462   9.851 -0.5976  0.1995  0.4155
  981MOL0     H32368  10.275   0.702  10.126 -0.5672 -2.1917 -0.0913
  981MOL0     H32369  10.046   0.762  10.195 -0.4179 -1.8909 -0.1816
  981MOL0     H32370   9.772   0.717  10.193  1.0944  3.1222  3.4856
  981MOL0     H32371   9.798   0.897  10.179 -0.1495  2.8848 -4.3732
  981MOL0     H32372   9.572   0.730  10.078  1.0432 -1.0583 -1.9614
  981MOL0     H32373   9.598   0.898  10.007 -1.1798  1.5147  0.7793
  981MOL0     H32374   9.554   1.000  10.240  0.8611  0.0602 -2.1618
  981MOL0     H32375   9.556   0.848  10.317 -0.9101  4.4666  2.4776
  981MOL0     H32376   9.346   0.956  10.130  0.4718 -0.9851 -0.1908
  981MOL0     H32377   9.371   0.783  10.158 -1.2978 -1.4122  1.0646
  981MOL0     H32378   9.327   0.798  10.390 -0.0310  1.5319  1.3759
  981MOL0     H32379   9.291   0.974  10.376 -1.3949  0.0158 -1.6732
  981MOL0     H32380   9.100   0.922  10.219 -0.3553 -1.4001 -0.8594
  981MOL0     H32381   9.145   0.750  10.241  2.7576  0.3744 -1.3876
  981MOL0     H32382   9.049   0.743  10.466  2.2025  0.3629 -0.5026
  981MOL0     H32383   8.950   0.860  10.367 -0.2190 -2.5809 -0.8554
  981MOL0     H32384   9.171   0.944  10.567  1.1555 -0.8984 -1.9558
  981MOL0     H32385   9.073   1.046  10.464 -2.6533  0.8713  0.2078
  981MOL0     H32386   8.903   1.165  10.634 -2.2249  0.9529  2.1200
  981MOL0     H32387   8.692   1.048  10.928  1.4670  0.7255  1.6221
  981MOL0     H32388   8.757   1.194  10.848  2.1843 -1.1847  0.7166
  981MOL0     H32389   8.525   1.173  10.812 -2.3217 -2.2874 -0.7148
  981MOL0     H32390   8.606   1.167  10.649  0.0602  0.3428 -1.2545
  981MOL0     H32391   8.510   0.916  10.809 -2.3239 -0.8063  0.6514
  981MOL0     H32392   8.556   0.919  10.639  2.8756 -0.0865  1.1366
  981MOL0     H32393   8.311   0.929  10.624  1.1966 -0.5403 -1.0589
  981MOL0     H32394   8.357   1.099  10.610 -1.4227 -0.2213 -0.8543
  981MOL0     H32395   8.142   1.060  11.007 -0.4050  0.0691  1.0941
  981MOL0     H32396   7.912   1.084  11.019  0.7046  1.1967  0.9103
  981MOL0     H32397   7.499   0.997  10.805 -0.6876  0.1459 -0.8294
  981MOL0     H32398   7.258   1.018  10.760  1.2798 -3.8500 -2.3448
  981MOL0     H32399   7.071   1.320  10.721 -0.3260  0.4230  0.2603
  981MOL0     H32400   7.094   1.379  10.564 -0.4345  1.1651  1.5611
  981MOL0     H32401   6.856   1.354  10.592 -0.0648  0.6650  1.7201
  981MOL0     H32402   6.909   1.201  10.509  3.5140 -3.8287  1.8734
  981MOL0     H32403   6.902   1.074  10.726  0.4178 -0.1375 -1.0870
  981MOL0     H32404   6.881   1.210  10.819  3.1235 -0.2863  0.0167
  981MOL0     H32405   6.662   1.136  10.608 -1.9088  5.1122 -0.5639
  981MOL0     H32406   6.640   1.226  10.752  1.6401  0.1853  0.5824
  981MOL0     H32407   6.681   1.049  10.894 -0.7053  0.0629  0.1744
  981MOL0     H32408   6.694   0.928  10.772  0.9407  0.6112 -0.6189
  981MOL0     H32409   6.468   1.118  10.835 -1.9590 -3.0383  3.9871
  981MOL0     H32410   6.460   1.027  10.681 -0.8731 -1.6848 -0.1238
  981MOL0     H32411   6.472   0.924  10.972  1.1226 -2.3901  0.6672
  981MOL0     H32412   6.486   0.820  10.830 -0.2669 -0.1519 -1.6885
  981MOL0     H32413   6.261   0.880  10.746  1.6774 -2.9546  0.1246
  981MOL0     H32414   6.249   0.817  10.905  1.3040 -0.7973 -0.2659
  981MOL0     H32415   7.321   1.344  10.492  0.9987  1.5050  1.7724
  981MOL0     H32416   7.557   1.328  10.525 -1.0494  0.6989  1.4216
  981MOL0     H32417   7.898   1.132  10.587 -0.5376  3.0318  1.2292
  981MOL0     H32418   8.138   1.099  10.569 -2.0253  1.6437 -0.4319
  981MOL0     H32419   9.937   0.771   9.777 -2.8050  3.3327  2.3013
  981MOL0     H32420  10.177   0.709   9.715 -1.9777 -1.0033 -0.2239
  981MOL0     H32421  10.651   0.922   9.775  0.6850 -0.2160  2.2216
  981MOL0     H32422  10.885   0.880   9.740 -1.0227  1.7426  1.4419
  981MOL0     H32423  11.051   0.439   9.767 -1.0042 -0.7549  3.0283
  981MOL0     H32424  11.043   0.529   9.912  1.6863 -0.3963  0.6107
  981MOL0     H32425  11.287   0.492   9.855  0.1013  0.6925  0.1780
  981MOL0     H32426  11.238   0.649   9.864  1.4783  1.2022 -1.1441
  981MOL0     H32427  11.218   0.654   9.594 -0.6820 -1.1506 -0.5896
  981MOL0     H32428  11.261   0.488   9.594  2.9726 -0.2730 -0.3761
  981MOL0     H32429  11.444   0.684   9.712  0.5429 -0.8987  2.1182
  981MOL0     H32430  11.467   0.513   9.700 -0.5848  0.6212  0.0490
  981MOL0     H32431  11.559   0.629   9.296  1.0274 -0.0960  1.0278
  981MOL0     H32432  10.819   0.463   9.804 -0.5811 -0.0117  0.2048
  981MOL0     H32433  10.525   0.477   9.953 -0.1385  1.7335  0.3597
  981MOL0     H32434  10.467   0.458   9.794 -0.6330  0.5567  0.4486
  981MOL0     H32435  10.625   0.374   9.842  0.8297  1.3255 -0.6661
  982MOL0     O32436   9.399   6.251   5.444 -0.0597  0.0101  0.5716
  982MOL0     C32437   9.329   6.288   5.350 -0.1620  1.7039 -0.1313
  982MOL0     O32438   9.367   6.357   5.237 -0.0012  0.3245 -0.9678
  982MOL0     C32439   9.499   6.401   5.230 -0.7242  0.4759 -0.2229
  982MOL0     C32440   9.511   6.533   5.192  0.1809  0.4399 -0.0188
  982MOL0     C32441   9.634   6.581   5.171  0.0996 -0.8771  1.1088
  982MOL0     C32442   9.753   6.508   5.177  0.6176 -0.3980 -0.0548
  982MOL0     O32443   9.865   6.567   5.141  0.4638  0.1929  0.3626
  982MOL0     C32444   9.883   6.707   5.154 -1.0013  0.0810  0.2700
  982MOL0     C32445  10.033   6.728   5.198 -0.1452  0.5711 -0.1797
  982MOL0     C32446  10.126   6.728   5.078  0.0811  0.8063  0.5749
  982MOL0     C32447  10.273   6.745   5.130  0.5073 -0.5111 -0.6076
  982MOL0     C32448  10.378   6.794   5.021 -0.1463  1.1363 -1.0024
  982MOL0     C32449  10.528   6.813   5.075  0.1846  0.0972 -0.4859
  982MOL0     C32450  10.624   6.838   4.960  0.3059  0.1503  0.2210
  982MOL0     C32451  10.602   6.742   4.846  0.1607  0.0328  0.7049
  982MOL0     N32452  10.723   6.739   4.762  0.1587 -0.6271 -0.2501
  982MOL0     C32453  10.838   6.670   4.792 -0.9308 -0.5077 -0.1170
  982MOL0     C32454  10.931   6.736   4.708  0.0886  0.7255 -0.0905
  982MOL0     C32455  11.083   6.725   4.696  0.4952  0.9148 -0.5248
  982MOL0     C32456  11.154   6.827   4.775  0.6333 -0.0037 -0.5183
  982MOL0     C32457  11.266   6.760   4.851  0.2412  0.2008 -0.6046
  982MOL0     C32458  11.334   6.861   4.952 -0.5207  0.0047  0.4352
  982MOL0     O32459  11.391   6.977   4.892 -0.9814  0.1034  0.1363
  982MOL0     C32460  11.498   6.947   4.807 -0.3832 -1.1590  0.6216
  982MOL0     C32461  11.542   7.055   4.734 -0.0498 -0.5303 -0.0801
  982MOL0     C32462  11.658   7.041   4.667  0.2044 -1.2147 -0.3651
  982MOL0     C32463  11.741   6.925   4.669 -0.9267  0.0971  0.1403
  982MOL0     C32464  11.871   6.916   4.593  0.0784  0.2800  0.2905
  982MOL0     O32465  11.922   6.793   4.579  0.5478 -0.4152  0.8396
  982MOL0     C32466  12.034   6.769   4.501  0.4575  0.3150 -0.5925
  982MOL0     C32467  12.144   6.714   4.568 -0.8656 -0.0546 -1.9723
  982MOL0     C32468  12.258   6.675   4.502 -1.3896  1.4900 -0.0565
  982MOL0     C32469  12.266   6.687   4.365  1.1015 -0.1320  0.1910
  982MOL0     O32470  12.387   6.651   4.317 -0.2355  0.5666 -0.6458
  982MOL0     C32471  12.419   6.709   4.191  0.7195  0.7426  0.0638
  982MOL0     C32472  12.554   6.644   4.151  0.1975  0.2093 -1.0666
  982MOL0     C32473  12.676   6.685   4.243  0.0986  0.1468  0.4161
  982MOL0     C32474  12.801   6.617   4.188  0.3987  0.0630 -0.0481
  982MOL0     C32475  12.919   6.649   4.269  0.0347  0.1070 -0.5866
  982MOL0     C32476  13.040   6.562   4.269  0.6318 -0.1036 -0.6642
  982MOL0     C32477  13.095   6.537   4.125 -1.0759 -0.1426  0.2028
  982MOL0     C32478  13.046   6.410   4.053  0.1524  0.3178 -0.0502
  982MOL0    Cl32479  13.190   6.327   3.977 -0.2723 -0.3844 -0.2646
  982MOL0     C32480  12.154   6.740   4.295 -0.6589  0.0823  0.1085
  982MOL0     C32481  12.037   6.774   4.360 -0.8881  0.1919 -0.2567
  982MOL0     O32482  11.914   7.019   4.547 -0.4797 -0.3928 -0.1128
  982MOL0     C32483  11.689   6.820   4.738 -0.0590  1.6757  0.3941
  982MOL0     C32484  11.571   6.824   4.806 -0.2026  1.0925  0.5068
  982MOL0     N32485  10.865   6.830   4.630  0.6390  0.4022 -0.4224
  982MOL0     N32486  10.738   6.826   4.659 -0.7663  0.0924  0.1374
  982MOL0     C32487   9.746   6.374   5.200  0.4765 -0.4775  0.0086
  982MOL0     C32488   9.619   6.327   5.231  0.6676  0.7255  0.3232
  982MOL0     C32489   9.183   6.249   5.348  0.7016  0.0604  0.0108
  982MOL0     C32490   9.096   6.297   5.244 -0.1749  0.1555  0.3244
  982MOL0     C32491   8.957   6.267   5.239  0.1812  0.5223  0.4560
  982MOL0     C32492   8.897   6.183   5.330  0.7498  0.1788  0.4280
  982MOL0     O32493   8.758   6.162   5.317 -0.1839  0.1095 -0.4520
  982MOL0     C32494   8.682   6.113   5.431 -0.0373  0.8396  0.6518
  982MOL0     C32495   8.637   5.969   5.404  0.5084  0.0278  0.3349
  982MOL0     C32496   8.563   5.942   5.273  0.7504  0.4593 -0.6894
  982MOL0     C32497   8.547   5.793   5.254  0.8393  0.4667  0.3856
  982MOL0     C32498   8.530   5.760   5.110 -0.7333  0.2641 -0.1756
  982MOL0     C32499   8.527   5.727   4.991 -0.4901  0.0398 -0.1476
  982MOL0     C32500   8.977   6.123   5.425 -0.9208  0.1246  0.7519
  982MOL0     C32501   9.118   6.152   5.438  0.0966 -0.0441 -0.2769
  982MOL0     C32502   9.182   6.073   5.547 -0.6099 -0.0847 -0.1957
  982MOL0     H32503   9.426   6.599   5.174 -0.4393 -1.0424 -3.1535
  982MOL0     H32504   9.638   6.683   5.136  0.5215 -1.5094 -0.8003
  982MOL0     H32505   9.862   6.766   5.065 -2.5789  3.0026  2.3983
  982MOL0     H32506   9.825   6.753   5.235 -1.3879 -2.4311  1.5242
  982MOL0     H32507  10.054   6.643   5.263  0.6841 -1.8242 -3.3204
  982MOL0     H32508  10.053   6.817   5.259  1.2110  0.7989 -0.9287
  982MOL0     H32509  10.102   6.803   5.002 -1.0988 -0.5486 -0.4630
  982MOL0     H32510  10.114   6.633   5.025 -3.3261 -0.0965  2.6669
  982MOL0     H32511  10.259   6.821   5.207  0.0545 -0.2611 -0.9408
  982MOL0     H32512  10.313   6.651   5.170  2.7975  1.2524  1.6565
  982MOL0     H32513  10.381   6.717   4.943 -0.3669  0.2685 -0.1746
  982MOL0     H32514  10.350   6.890   4.978 -0.1210  1.6035 -0.0087
  982MOL0     H32515  10.535   6.897   5.144 -2.6881 -0.8958  1.1698
  982MOL0     H32516  10.564   6.725   5.128 -2.5225 -1.1423 -0.5398
  982MOL0     H32517  10.728   6.830   4.993  1.2691  3.2731 -1.5480
  982MOL0     H32518  10.614   6.944   4.933  2.8417  0.7444  1.3612
  982MOL0     H32519  10.582   6.642   4.887  0.2182 -0.0557  0.5176
  982MOL0     H32520  10.524   6.770   4.775  2.5830 -1.4261 -2.7966
  982MOL0     H32521  10.853   6.594   4.868  0.2842  2.2912  2.6305
  982MOL0     H32522  11.114   6.630   4.739  1.6513  1.1086 -0.8751
  982MOL0     H32523  11.113   6.729   4.590 -0.2482 -0.2110 -0.7902
  982MOL0     H32524  11.187   6.906   4.706 -0.0427 -0.6414 -1.5863
  982MOL0     H32525  11.089   6.880   4.846 -0.0427  0.9464 -1.7977
  982MOL0     H32526  11.335   6.731   4.772 -0.5771  1.8534 -1.9782
  982MOL0     H32527  11.215   6.683   4.910 -0.7134 -0.9403 -2.8241
  982MOL0     H32528  11.406   6.808   5.015  0.4081  2.7029  1.7515
  982MOL0     H32529  11.264   6.895   5.029  1.5649  0.4313  2.2402
  982MOL0     H32530  11.498   7.153   4.751 -0.3310 -0.5025 -0.9175
  982MOL0     H32531  11.686   7.138   4.628 -1.5146 -0.4649  0.1830
  982MOL0     H32532  12.131   6.704   4.675  2.3778 -1.7285 -1.6248
  982MOL0     H32533  12.349   6.651   4.557 -1.5409  2.6489  0.7398
  982MOL0     H32534  12.349   6.681   4.112 -0.7402  0.4070  1.4205
  982MOL0     H32535  12.440   6.815   4.206 -1.9945  1.6956 -2.0876
  982MOL0     H32536  12.544   6.537   4.169 -1.3975  0.6615  1.1069
  982MOL0     H32537  12.576   6.656   4.044  4.0816 -4.8291 -1.2248
  982MOL0     H32538  12.676   6.794   4.246 -0.9583  0.1847 -0.2527
  982MOL0     H32539  12.665   6.662   4.350  1.9695  1.8945  1.0354
  982MOL0     H32540  12.824   6.625   4.081  2.6220 -1.4072  0.2442
  982MOL0     H32541  12.784   6.513   4.216  2.1968  0.3025  2.2690
  982MOL0     H32542  12.893   6.674   4.372  3.5604 -0.2984  0.5268
  982MOL0     H32543  12.950   6.746   4.228  3.0049 -1.1888 -1.7016
  982MOL0     H32544  13.115   6.608   4.334 -1.9395  1.1613  1.6173
  982MOL0     H32545  13.025   6.462   4.312  1.2119 -0.5605 -1.5015
  982MOL0     H32546  13.203   6.532   4.144 -1.1574 -0.8981  0.4735
  982MOL0     H32547  13.075   6.629   4.069  1.1345 -1.0387 -2.2647
  982MOL0     H32548  12.998   6.339   4.121  1.5284 -1.0454 -0.4398
  982MOL0     H32549  12.979   6.436   3.971 -1.0157  0.8016  1.0178
  982MOL0     H32550  12.149   6.741   4.187 -2.8801  2.2395  0.1456
  982MOL0     H32551  11.948   6.813   4.313  0.3978  2.3409 -1.0476
  982MOL0     H32552  11.747   6.728   4.733  0.7897  2.1391  1.3765
  982MOL0     H32553  11.548   6.730   4.855  1.0682  0.2542 -0.4365
  982MOL0     H32554   9.827   6.303   5.211 -0.1598 -1.4333 -1.1888
  982MOL0     H32555   9.610   6.221   5.250  0.3041  0.3614 -1.7285
  982MOL0     H32556   9.128   6.361   5.163  1.7094 -2.2576 -0.9835
  982MOL0     H32557   8.890   6.318   5.171 -2.4812 -1.3215  1.4784
  982MOL0     H32558   8.593   6.175   5.448 -1.8825 -1.4743 -0.0413
  982MOL0     H32559   8.736   6.111   5.526 -0.5405 -1.9969  0.9710
  982MOL0     H32560   8.569   5.933   5.482  2.1341 -0.5480  1.5502
  982MOL0     H32561   8.726   5.911   5.428 -0.4695 -0.2211  4.0222
  982MOL0     H32562   8.630   5.986   5.198  3.6723 -1.5018  0.5793
  982MOL0     H32563   8.466   5.993   5.277 -0.2518 -1.4343  0.7876
  982MOL0     H32564   8.642   5.745   5.280  1.3805  1.8014  0.9835
  982MOL0     H32565   8.470   5.750   5.319  1.4636  0.5583  1.2189
  982MOL0     H32566   8.528   5.696   4.889  0.7338 -0.2035 -0.0723
  982MOL0     H32567   8.925   6.049   5.486 -0.4699 -0.9335 -0.1098
  982MOL0     H32568   9.140   5.972   5.550  0.5130 -0.5643 -0.2841
  982MOL0     H32569   9.289   6.068   5.525 -1.0724 -0.4178 -2.7387
  982MOL0     H32570   9.171   6.123   5.644  1.1932 -0.7018  0.3669
  983MOL0     O32571   5.980   9.509  10.845 -0.6529  0.1499 -0.4561
  983MOL0     C32572   5.862   9.490  10.809 -0.3643 -0.8493  0.2050
  983MOL0     O32573   5.810   9.530  10.686  0.6937 -0.0844  0.6574
  983MOL0     C32574   5.892   9.536  10.572  0.2708  0.6037  0.2354
  983MOL0     C32575   5.854   9.619  10.466 -0.0077 -0.7734  0.3705
  983MOL0     C32576   5.918   9.627  10.342  0.2234  0.1639 -0.7290
  983MOL0     C32577   6.036   9.559  10.322  0.6363 -0.3724 -0.0129
  983MOL0     O32578   6.105   9.562  10.201 -0.1947 -0.5471 -0.6501
  983MOL0     C32579   6.244   9.498  10.200  0.5511  0.7465  0.2803
  983MOL0     C32580   6.321   9.517  10.062 -1.2178 -0.2249 -1.2067
  983MOL0     C32581   6.452   9.442  10.053 -0.8076  0.2439  0.6291
  983MOL0     C32582   6.556   9.479  10.157  0.6188 -0.9935 -0.3317
  983MOL0     C32583   6.688   9.408  10.135 -0.3807  0.4737 -0.8188
  983MOL0     C32584   6.794   9.476  10.209 -0.1633 -0.0340 -0.6414
  983MOL0     C32585   6.930   9.406  10.205  0.2570  0.4442  0.5627
  983MOL0     C32586   7.019   9.473  10.300 -0.2515  0.3974 -0.1438
  983MOL0     N32587   7.167   9.444  10.278  0.0767  0.0970 -0.5140
  983MOL0     C32588   7.258   9.526  10.211  0.9766 -0.2447 -0.4537
  983MOL0     C32589   7.383   9.463  10.226  0.6047 -0.0364  0.5808
  983MOL0     C32590   7.513   9.514  10.169 -0.4108  0.4287  0.3500
  983MOL0     C32591   7.494   9.649  10.095  0.9492  0.6785  0.7159
  983MOL0     C32592   7.471   9.776  10.180  0.0644 -0.2185  0.7163
  983MOL0     C32593   7.595   9.823  10.259 -0.0719 -1.2869  0.6269
  983MOL0     O32594   7.607   9.740  10.382 -0.2104  0.2705  0.5228
  983MOL0     C32595   7.720   9.749  10.453 -0.1490 -0.5884  0.2397
  983MOL0     C32596   7.773   9.630  10.518 -0.1089 -0.4930  0.0576
  983MOL0     C32597   7.878   9.626  10.599  0.1290  0.5955  0.3443
  983MOL0     C32598   7.965   9.738  10.604  0.7818  0.7521  0.0775
  983MOL0     C32599   8.087   9.730  10.700 -0.8042  0.1146  0.6826
  983MOL0     O32600   8.178   9.828  10.686  0.2699  0.1454 -0.1472
  983MOL0     C32601   8.287   9.839  10.776  0.9846 -0.2373  0.0988
  983MOL0     C32602   8.298   9.959  10.842  0.6129 -0.5541 -0.1117
  983MOL0     C32603   8.403   9.994  10.921  0.4128 -0.2842  0.7057
  983MOL0     C32604   8.492   9.890  10.956 -0.8633  0.6091 -0.3078
  983MOL0     O32605   8.588   9.917  11.054 -0.0558 -0.0709  0.7306
  983MOL0     C32606   8.706   9.834  11.057  0.7986 -0.0847 -0.2228
  983MOL0     C32607   8.805   9.895  11.156 -0.3559  0.7407  0.4109
  983MOL0     C32608   8.916   9.794  11.153  0.0699  0.8078 -0.5574
  983MOL0     C32609   9.016   9.798  11.279 -0.7810  0.1208 -0.5169
  983MOL0     C32610   9.117   9.683  11.275 -0.9902 -0.4516  0.5161
  983MOL0     C32611   9.243   9.702  11.361  0.2146  0.2214  0.0997
  983MOL0     C32612   9.357   9.597  11.342  0.1043  0.9147  0.3917
  983MOL0     C32613   9.482   9.623  11.429 -0.1061 -0.2756 -0.0013
  983MOL0    Cl32614   9.443   9.669  11.598  0.3940 -0.1130  0.1564
  983MOL0     C32615   8.472   9.762  10.903  0.5655  0.3661  0.1786
  983MOL0     C32616   8.371   9.734  10.811 -0.1975  0.4366  0.9541
  983MOL0     O32617   8.088   9.631  10.777 -0.3289  0.3383  0.3232
  983MOL0     C32618   7.927   9.848  10.533  0.0610  0.1313  0.0100
  983MOL0     C32619   7.801   9.857  10.468  0.0502  0.4488  0.3804
  983MOL0     N32620   7.360   9.343  10.297 -0.0053  0.4329 -0.5235
  983MOL0     N32621   7.233   9.333  10.320 -0.4262 -0.7260 -0.7930
  983MOL0     C32622   6.089   9.494  10.430 -0.3118  0.5946 -1.4176
  983MOL0     C32623   6.023   9.478  10.551 -0.9993 -0.6685 -1.0785
  983MOL0     C32624   5.759   9.443  10.906 -0.2128  0.3740 -0.5651
  983MOL0     C32625   5.626   9.493  10.893 -0.6429 -0.5845 -0.9594
  983MOL0     C32626   5.520   9.463  10.990 -0.0575 -0.5894  1.0125
  983MOL0     C32627   5.543   9.371  11.094 -0.3337 -0.6441  0.0707
  983MOL0     O32628   5.456   9.325  11.193 -0.6344  0.2819  0.6109
  983MOL0     C32629   5.311   9.332  11.179  0.6174 -0.0662 -0.0207
  983MOL0     C32630   5.266   9.216  11.083  0.9273  0.9534  0.0791
  983MOL0     C32631   5.336   9.082  11.117  0.0319 -0.2466 -0.1297
  983MOL0     C32632   5.274   8.967  11.028 -0.7403 -0.3810 -0.1450
  983MOL0     C32633   5.308   8.833  11.065 -0.1149 -0.1043 -1.0163
  983MOL0     C32634   5.346   8.717  11.097 -0.5246  0.4747  1.0854
  983MOL0     C32635   5.673   9.315  11.101 -0.3448  0.2648 -0.8678
  983MOL0     C32636   5.783   9.351  11.014  0.1227 -0.7647 -0.9681
  983MOL0     C32637   5.914   9.281  11.041 -0.3525  0.2810 -0.4075
  983MOL0     H32638   5.756   9.666  10.466  0.5254  0.3515  0.3808
  983MOL0     H32639   5.862   9.685  10.268 -4.3359 -0.8475  1.5473
  983MOL0     H32640   6.309   9.532  10.281 -1.9754 -3.1255  4.4308
  983MOL0     H32641   6.221   9.391  10.205  0.6142  0.7878  1.7652
  983MOL0     H32642   6.355   9.620  10.048 -0.4584 -0.2050  0.5532
  983MOL0     H32643   6.261   9.490   9.974  1.8895 -0.7352 -3.3093
  983MOL0     H32644   6.501   9.456   9.956  0.1746  2.0970  1.3550
  983MOL0     H32645   6.428   9.338  10.078 -0.1119  0.3861  2.0167
  983MOL0     H32646   6.574   9.586  10.169 -2.6520 -0.6521  5.1643
  983MOL0     H32647   6.518   9.449  10.255 -1.7174  1.2609 -0.4582
  983MOL0     H32648   6.690   9.300  10.149  0.2779  0.5251 -0.4902
  983MOL0     H32649   6.718   9.430  10.032  0.3485  0.8595 -0.5290
  983MOL0     H32650   6.806   9.576  10.167  1.1837 -0.9112 -2.4602
  983MOL0     H32651   6.758   9.487  10.312 -1.7107  3.4021 -1.3926
  983MOL0     H32652   6.970   9.388  10.105 -2.1470  0.6222 -0.4937
  983MOL0     H32653   6.899   9.308  10.245  0.3022  0.8625  1.6571
  983MOL0     H32654   7.002   9.581  10.292  2.1174  0.7803 -0.8146
  983MOL0     H32655   6.998   9.437  10.401  1.3495 -0.5810 -0.1298
  983MOL0     H32656   7.217   9.604  10.148 -2.3391 -1.3750  0.1292
  983MOL0     H32657   7.579   9.527  10.255  1.7277  0.0577 -1.1346
  983MOL0     H32658   7.562   9.445  10.099 -0.4500  2.0126 -1.3016
  983MOL0     H32659   7.571   9.678  10.022  0.1349  1.2021  0.0360
  983MOL0     H32660   7.402   9.641  10.036  1.2910  0.4820  0.1981
  983MOL0     H32661   7.388   9.756  10.248  0.7924  1.1836  2.0868
  983MOL0     H32662   7.432   9.860  10.122 -1.0507 -1.9031 -1.1035
  983MOL0     H32663   7.588   9.926  10.296  1.1882 -1.0722  0.3317
  983MOL0     H32664   7.690   9.829  10.205 -1.4767 -1.8103 -2.0755
  983MOL0     H32665   7.702   9.549  10.501 -2.0518  1.4117 -1.4860
  983MOL0     H32666   7.907   9.530  10.641  1.4204 -0.0682 -1.8847
  983MOL0     H32667   8.232  10.041  10.814 -0.1438 -1.0530  0.1783
  983MOL0     H32668   8.418  10.097  10.948  1.3246 -0.4592  0.8970
  983MOL0     H32669   8.677   9.732  11.085  0.8151  0.3136  1.3856
  983MOL0     H32670   8.744   9.817  10.956  1.4663 -1.7761  0.2675
  983MOL0     H32671   8.842   9.995  11.133 -0.7379  1.1442  1.4755
  983MOL0     H32672   8.757   9.899  11.255 -2.8501  0.7655 -0.7237
  983MOL0     H32673   8.867   9.697  11.166  1.0015  0.1584 -1.6484
  983MOL0     H32674   8.981   9.792  11.064  1.5631 -2.8911  0.4067
  983MOL0     H32675   8.961   9.804  11.373 -0.7913  0.3238 -0.5349
  983MOL0     H32676   9.070   9.893  11.270 -0.3335 -0.0856 -0.0513
  983MOL0     H32677   9.151   9.656  11.174 -2.2332  1.2020 -0.4054
  983MOL0     H32678   9.072   9.591  11.313 -0.3255 -0.6881  0.7332
  983MOL0     H32679   9.279   9.801  11.334 -1.7259  1.4188  1.6174
  983MOL0     H32680   9.210   9.695  11.465  0.8379  0.9180  0.3524
  983MOL0     H32681   9.403   9.587  11.243 -0.4207  1.7555  0.0562
  983MOL0     H32682   9.310   9.501  11.368  0.4410 -0.1382 -2.4704
  983MOL0     H32683   9.539   9.533  11.451  0.4178  0.2732  0.9323
  983MOL0     H32684   9.547   9.692  11.374  0.2567 -2.2323 -2.1955
  983MOL0     H32685   8.534   9.679  10.934  1.7953  0.5310 -1.6721
  983MOL0     H32686   8.354   9.636  10.768  1.4107  0.5395  0.0135
  983MOL0     H32687   7.989   9.937  10.531  0.0581  0.1454  0.3825
  983MOL0     H32688   7.780   9.946  10.409 -2.3066 -3.0347 -4.8436
  983MOL0     H32689   6.177   9.431  10.421 -3.4761 -4.2624 -2.3031
  983MOL0     H32690   6.060   9.408  10.624 -5.0047 -2.5948 -0.6183
  983MOL0     H32691   5.589   9.566  10.822 -2.0568 -0.3617 -0.0287
  983MOL0     H32692   5.422   9.501  10.963  1.0241  0.2185 -2.1775
  983MOL0     H32693   5.268   9.431  11.162  1.3665  0.3485  0.4397
  983MOL0     H32694   5.278   9.294  11.276  0.2180  0.6675  0.1327
  983MOL0     H32695   5.273   9.260  10.983 -0.9074  2.1712  0.4424
  983MOL0     H32696   5.161   9.196  11.104  0.9777  0.4998 -0.1059
  983MOL0     H32697   5.340   9.058  11.224  0.9599 -0.7218 -0.2561
  983MOL0     H32698   5.442   9.090  11.089  1.1257 -1.4667  3.1441
  983MOL0     H32699   5.165   8.974  11.034 -0.7391 -1.0757  1.5023
  983MOL0     H32700   5.300   8.976  10.923 -1.2920  3.0775 -0.1006
  983MOL0     H32701   5.393   8.626  11.128  0.5610  0.5608 -0.1838
  983MOL0     H32702   5.698   9.228  11.161 -4.3595 -2.5131 -2.7433
  983MOL0     H32703   6.010   9.310  10.997  1.7484 -2.1060  2.2145
  983MOL0     H32704   5.942   9.291  11.146  2.3962  2.1768 -1.1828
  983MOL0     H32705   5.906   9.177  11.008  0.5298 -0.1148  0.5550
  984MOL0     O32706   4.953   3.357   4.552  0.0265  0.8504 -0.1741
  984MOL0     C32707   4.897   3.393   4.453  0.9201 -0.1896 -0.8875
  984MOL0     O32708   4.935   3.368   4.320 -0.4059  0.3458  0.1468
  984MOL0     C32709   5.061   3.302   4.310  0.6622 -0.1181 -0.1871
  984MOL0     C32710   5.084   3.172   4.350  0.1466 -0.6348 -0.8151
  984MOL0     C32711   5.210   3.116   4.342 -0.8136  0.0184  1.1756
  984MOL0     C32712   5.325   3.193   4.317  0.5963  0.2515  0.5785
  984MOL0     O32713   5.433   3.108   4.304  0.0764 -0.0902  0.0106
  984MOL0     C32714   5.557   3.173   4.319  0.6051 -0.3474 -0.5424
  984MOL0     C32715   5.662   3.062   4.343 -0.1096  0.0981  0.6182
  984MOL0     C32716   5.624   2.974   4.462 -0.2165  0.0394 -0.2905
  984MOL0     C32717   5.679   3.041   4.589 -0.1771  0.0345  0.6136
  984MOL0     C32718   5.687   2.944   4.704 -0.8797  0.0717 -0.5491
  984MOL0     C32719   5.790   2.835   4.688  0.5303  0.3581  0.4845
  984MOL0     C32720   5.812   2.773   4.825  0.1947  0.3646  0.4862
  984MOL0     C32721   5.930   2.676   4.825  0.9173  0.2095  0.2205
  984MOL0     N32722   5.934   2.603   4.955 -0.0079  0.2408 -0.2637
  984MOL0     C32723   5.904   2.471   4.987  0.1286 -0.2409 -0.1410
  984MOL0     C32724   5.961   2.450   5.107  0.4929 -0.0388 -0.0850
  984MOL0     C32725   5.955   2.337   5.204 -0.1850  0.3811 -0.8778
  984MOL0     C32726   6.066   2.233   5.162 -0.0108 -1.2825 -0.7788
  984MOL0     C32727   6.076   2.143   5.285 -0.2563  0.3453  0.2840
  984MOL0     C32728   6.173   2.031   5.257  0.0722  0.6430 -0.0259
  984MOL0     O32729   6.193   1.929   5.355  0.8045 -0.1267 -0.0022
  984MOL0     C32730   6.252   1.957   5.475  0.1844  0.1015  0.4425
  984MOL0     C32731   6.240   1.858   5.570 -0.0896  0.1761  0.4165
  984MOL0     C32732   6.295   1.882   5.698  0.2414 -0.5989  0.8314
  984MOL0     C32733   6.378   1.987   5.720 -0.6867 -0.7426  0.5995
  984MOL0     C32734   6.446   1.999   5.849 -0.3312  0.0514  0.3240
  984MOL0     O32735   6.474   1.891   5.915 -0.4525  0.8284 -0.1514
  984MOL0     C32736   6.523   1.891   6.040  0.6856  1.0798  0.4999
  984MOL0     C32737   6.448   1.927   6.156  0.3565  0.6661  0.2992
  984MOL0     C32738   6.515   1.940   6.277 -0.0240 -0.5611 -0.5026
  984MOL0     C32739   6.650   1.903   6.297  0.3141 -0.4501  0.7018
  984MOL0     O32740   6.728   1.925   6.408 -0.0145  0.2655  0.6958
  984MOL0     C32741   6.667   1.941   6.533  0.2269  0.0801  0.3785
  984MOL0     C32742   6.644   1.801   6.604 -0.5136  0.1474  0.6906
  984MOL0     C32743   6.770   1.729   6.663  0.6235 -0.6690  0.2614
  984MOL0     C32744   6.731   1.607   6.749 -1.0941 -0.1488 -0.7959
  984MOL0     C32745   6.672   1.490   6.676 -0.1719  0.9018  0.3388
  984MOL0     C32746   6.659   1.377   6.778  1.0975  0.2848  0.4530
  984MOL0     C32747   6.573   1.258   6.724 -0.4868 -0.4007  0.4199
  984MOL0     C32748   6.659   1.138   6.697 -0.2981  0.2762 -0.0882
  984MOL0    Cl32749   6.563   1.002   6.635  0.0435 -0.4189  0.4987
  984MOL0     C32750   6.716   1.851   6.183 -0.7817 -0.2278 -0.3585
  984MOL0     C32751   6.661   1.851   6.057 -0.0309  0.2176 -0.2250
  984MOL0     O32752   6.460   2.116   5.892  0.6532 -0.1828  0.3921
  984MOL0     C32753   6.400   2.079   5.622 -0.5136 -0.6222  0.4140
  984MOL0     C32754   6.325   2.080   5.507  0.8230 -0.5070 -0.1619
  984MOL0     N32755   6.019   2.563   5.153 -0.0649 -0.3575 -0.8443
  984MOL0     N32756   6.003   2.648   5.063  0.8348  0.8983 -0.2782
  984MOL0     C32757   5.302   3.327   4.277  0.0236 -0.4753  1.5143
  984MOL0     C32758   5.174   3.382   4.284  0.5558  0.6035  0.3184
  984MOL0     C32759   4.764   3.451   4.475  0.1189  0.5854  0.2492
  984MOL0     C32760   4.682   3.462   4.360  0.6743  0.9066  0.0688
  984MOL0     C32761   4.558   3.516   4.362 -0.9408 -0.3045 -0.4781
  984MOL0     C32762   4.497   3.562   4.475 -0.5469 -0.4638  0.6079
  984MOL0     O32763   4.378   3.635   4.484  0.2466 -0.1808 -0.0965
  984MOL0     C32764   4.271   3.616   4.379 -0.2030  0.2836  0.1361
  984MOL0     C32765   4.131   3.607   4.453 -0.3848 -0.3880  0.4230
  984MOL0     C32766   4.053   3.478   4.419  0.3927 -0.1884 -0.3613
  984MOL0     C32767   3.914   3.458   4.496 -0.5695 -0.4948 -0.6282
  984MOL0     C32768   3.829   3.582   4.473  0.4796 -0.4787 -0.1374
  984MOL0     C32769   3.750   3.676   4.446 -0.3936 -0.1241  0.2465
  984MOL0     C32770   4.563   3.543   4.593  0.7036  0.6514  0.1363
  984MOL0     C32771   4.702   3.495   4.599  0.5357  0.4139  0.2833
  984MOL0     C32772   4.783   3.509   4.723 -0.1393  0.5711  1.0425
  984MOL0     H32773   5.009   3.109   4.396  1.1954  0.2063  2.3567
  984MOL0     H32774   5.228   3.021   4.391  0.3671 -0.2467  0.2819
  984MOL0     H32775   5.585   3.231   4.230  1.6201 -1.2579 -0.8446
  984MOL0     H32776   5.553   3.237   4.407 -2.0236  1.3598 -1.7610
  984MOL0     H32777   5.762   3.106   4.357  0.6459 -1.3999  0.0991
  984MOL0     H32778   5.664   3.009   4.248  0.6209  1.9581 -0.4746
  984MOL0     H32779   5.669   2.876   4.443  0.7739  0.8178 -2.3144
  984MOL0     H32780   5.516   2.960   4.470 -0.1178 -0.3581  0.4211
  984MOL0     H32781   5.778   3.076   4.561 -0.3207 -0.1401 -0.1405
  984MOL0     H32782   5.615   3.127   4.613 -0.0919  1.0224 -2.3836
  984MOL0     H32783   5.708   2.995   4.798  0.2557  0.5479 -1.0488
  984MOL0     H32784   5.591   2.890   4.698 -0.9603  0.0166  0.8765
  984MOL0     H32785   5.756   2.756   4.620 -0.5981  0.8941  0.4167
  984MOL0     H32786   5.885   2.872   4.647  1.1814 -2.9327 -1.4173
  984MOL0     H32787   5.715   2.729   4.851  0.3977 -0.1403  0.4070
  984MOL0     H32788   5.830   2.848   4.902 -0.8504  0.1904  0.9180
  984MOL0     H32789   5.914   2.614   4.736  2.2702 -0.3141  0.3232
  984MOL0     H32790   6.025   2.719   4.792  1.0364  0.7909  1.2876
  984MOL0     H32791   5.846   2.396   4.935 -1.2437 -0.4370  1.5614
  984MOL0     H32792   5.971   2.367   5.308  0.7475 -2.8364  0.0053
  984MOL0     H32793   5.857   2.288   5.208  0.2381 -0.5333 -1.4815
  984MOL0     H32794   6.027   2.182   5.073 -2.0200  0.1337 -0.7697
  984MOL0     H32795   6.165   2.277   5.145 -1.1565  2.5396  1.2276
  984MOL0     H32796   5.979   2.102   5.314  0.5722 -2.7347 -0.9240
  984MOL0     H32797   6.118   2.195   5.372 -3.4166  1.2270  1.4251
  984MOL0     H32798   6.273   2.066   5.230  0.1504  0.3114 -0.1808
  984MOL0     H32799   6.125   1.982   5.172  3.0097 -0.4333 -1.2240
  984MOL0     H32800   6.192   1.763   5.547  1.2741 -0.5559  0.4626
  984MOL0     H32801   6.283   1.804   5.773  1.1622 -1.3529  0.2215
  984MOL0     H32802   6.346   1.957   6.136  0.4713  1.1785  0.4640
  984MOL0     H32803   6.464   1.984   6.362 -0.1655 -1.6313 -0.0122
  984MOL0     H32804   6.736   1.996   6.597  0.3923  0.2214  0.0815
  984MOL0     H32805   6.573   1.998   6.530 -0.9565 -1.7599 -3.0853
  984MOL0     H32806   6.565   1.819   6.678 -1.4698  1.5655 -0.6110
  984MOL0     H32807   6.590   1.735   6.536 -1.3743  2.5269 -1.1012
  984MOL0     H32808   6.838   1.686   6.589  0.0919  1.3441 -1.5157
  984MOL0     H32809   6.825   1.795   6.731 -0.6758 -0.2668  0.9529
  984MOL0     H32810   6.655   1.645   6.817 -1.1237 -0.6080 -0.5642
  984MOL0     H32811   6.819   1.574   6.805 -0.1769  3.3060  0.0342
  984MOL0     H32812   6.734   1.447   6.596  3.0934 -1.5153  3.7857
  984MOL0     H32813   6.579   1.533   6.637 -0.8431  1.1242  2.0862
  984MOL0     H32814   6.758   1.338   6.801  0.3510 -3.0314 -1.2118
  984MOL0     H32815   6.606   1.412   6.867  0.1457 -1.8028  0.7782
  984MOL0     H32816   6.536   1.293   6.627 -0.0320 -2.9561 -0.7652
  984MOL0     H32817   6.496   1.241   6.800 -0.6169  1.4698  0.7463
  984MOL0     H32818   6.742   1.160   6.628  0.7031 -2.6689  0.0453
  984MOL0     H32819   6.700   1.108   6.794 -2.1559 -1.4752  0.2032
  984MOL0     H32820   6.819   1.818   6.196 -0.8368  0.7137  5.7601
  984MOL0     H32821   6.727   1.819   5.978  1.3701  0.2493  0.8918
  984MOL0     H32822   6.463   2.165   5.641 -4.5937  2.9166 -0.3698
  984MOL0     H32823   6.333   2.168   5.444 -0.7350 -1.8535 -2.4056
  984MOL0     H32824   5.389   3.387   4.254 -0.5330 -1.0891 -3.3107
  984MOL0     H32825   5.160   3.488   4.261 -0.3566  1.0461  2.6510
  984MOL0     H32826   4.699   3.419   4.262  2.1112 -1.6828  1.3574
  984MOL0     H32827   4.504   3.529   4.269  1.2329  0.6995 -1.6682
  984MOL0     H32828   4.283   3.532   4.310  0.2678  1.3902 -1.1773
  984MOL0     H32829   4.275   3.705   4.314  3.6271  0.2643  0.1214
  984MOL0     H32830   4.071   3.696   4.433  0.1921 -0.5032 -2.1246
  984MOL0     H32831   4.164   3.628   4.556  2.0530 -0.7332 -0.2225
  984MOL0     H32832   4.110   3.390   4.449 -1.8514 -0.6097  3.3194
  984MOL0     H32833   4.038   3.464   4.312  1.2904  0.2144 -0.5464
  984MOL0     H32834   3.874   3.360   4.469 -0.5824  0.5150 -5.2293
  984MOL0     H32835   3.934   3.453   4.603  2.9166  3.3987 -0.8275
  984MOL0     H32836   3.677   3.755   4.440 -3.8058 -2.7101  3.3924
  984MOL0     H32837   4.515   3.568   4.687 -2.8719  0.4110 -1.4444
  984MOL0     H32838   4.866   3.576   4.698  0.5701  0.0057  1.8117
  984MOL0     H32839   4.721   3.546   4.805 -2.5514 -3.3871  1.2322
  984MOL0     H32840   4.827   3.411   4.746  3.3284  1.5399 -0.7307
  985MOL0     O32841   6.597  10.585   6.334  0.1494  0.4529  0.3005
  985MOL0     C32842   6.519  10.504   6.289  0.1919 -0.5164  1.0885
  985MOL0     O32843   6.559  10.407   6.207 -0.0499 -0.0533  0.5434
  985MOL0     C32844   6.692  10.410   6.184 -0.4257  0.5704  0.2795
  985MOL0     C32845   6.782  10.366   6.279 -0.1895  0.7889 -0.4101
  985MOL0     C32846   6.920  10.369   6.262 -0.5316 -0.2267 -0.4216
  985MOL0     C32847   6.973  10.417   6.139 -0.2655  0.0197 -0.5981
  985MOL0     O32848   7.109  10.427   6.097 -0.1667  0.1920 -0.6623
  985MOL0     C32849   7.211  10.386   6.179  0.4030  0.4987  0.1738
  985MOL0     C32850   7.231  10.497   6.286 -0.3174 -0.0404  0.9143
  985MOL0     C32851   7.262  10.646   6.219 -0.3349  0.7893  0.1184
  985MOL0     C32852   7.397  10.654   6.147  0.1055  0.0575  0.4191
  985MOL0     C32853   7.412  10.788   6.064 -0.3676 -0.4195 -0.2777
  985MOL0     C32854   7.536  10.807   5.980 -1.0175  0.2959 -1.0772
  985MOL0     C32855   7.681  10.809   6.042  0.0611 -0.9824  0.3137
  985MOL0     C32856   7.713  10.954   6.105 -0.3163  0.2991  0.0492
  985MOL0     N32857   7.845  10.936   6.171 -0.2353 -0.0213  0.2441
  985MOL0     C32858   7.878  10.860   6.274  0.3354 -0.6367 -0.4447
  985MOL0     C32859   8.008  10.873   6.307 -0.0739  0.2874  0.1208
  985MOL0     C32860   8.077  10.815   6.432  0.2531 -0.1497  0.2283
  985MOL0     C32861   8.046  10.904   6.562 -0.8044  0.2502 -0.0972
  985MOL0     C32862   8.097  11.050   6.549 -0.0428  0.0322 -0.2509
  985MOL0     C32863   8.251  11.062   6.550  0.4426 -0.1617 -0.1293
  985MOL0     O32864   8.293  11.001   6.669  0.3218  0.2976 -0.8745
  985MOL0     C32865   8.418  10.948   6.679  0.0518 -0.6783 -0.1979
  985MOL0     C32866   8.429  10.831   6.760 -0.4079  0.3778  0.6828
  985MOL0     C32867   8.557  10.782   6.795 -0.0926  0.1024 -0.0250
  985MOL0     C32868   8.676  10.849   6.741  0.9683 -0.1409  0.4376
  985MOL0     C32869   8.817  10.803   6.779  0.4782 -0.0229  0.2844
  985MOL0     O32870   8.918  10.886   6.732 -0.5234  0.3366 -0.0464
  985MOL0     C32871   9.047  10.855   6.772 -0.2189 -1.0922  0.3047
  985MOL0     C32872   9.100  10.943   6.869 -0.0745  0.0738 -0.2061
  985MOL0     C32873   9.234  10.921   6.899  0.1707 -0.8229  0.1146
  985MOL0     C32874   9.316  10.823   6.829  0.4937  0.5788 -0.0070
  985MOL0     O32875   9.450  10.796   6.859 -0.6303  0.4564  1.1489
  985MOL0     C32876   9.535  10.884   6.790 -0.0368  0.5179  0.1512
  985MOL0     C32877   9.549  11.020   6.863  0.1045 -0.1452  0.3746
  985MOL0     C32878   9.677  11.090   6.812 -0.3715 -1.0824  0.3867
  985MOL0     C32879   9.665  11.243   6.831  0.1654  0.2490 -0.6960
  985MOL0     C32880   9.808  11.312   6.840 -0.5058  0.2661 -0.6656
  985MOL0     C32881   9.810  11.465   6.846 -0.3372  0.1272  0.7213
  985MOL0     C32882   9.949  11.528   6.861  0.2951 -0.0490  0.1456
  985MOL0     C32883   9.995  11.538   7.012  0.5822  0.3310  0.2467
  985MOL0    Cl32884  10.159  11.615   7.023  0.0550  0.3698 -0.0304
  985MOL0     C32885   9.254  10.742   6.737  0.5564 -0.0209 -0.4326
  985MOL0     C32886   9.121  10.753   6.711 -0.0131  0.5216 -0.1320
  985MOL0     O32887   8.838  10.713   6.855 -0.4409  0.4204  0.1315
  985MOL0     C32888   8.667  10.972   6.669  0.3356  0.4123  0.2384
  985MOL0     C32889   8.536  11.011   6.631 -0.2310  0.1030  1.3079
  985MOL0     N32890   8.068  10.943   6.209  0.2741 -1.1353  0.7347
  985MOL0     N32891   7.972  10.979   6.128 -0.2239  0.8360  0.0991
  985MOL0     C32892   6.886  10.458   6.045  0.4578 -0.3554 -0.1330
  985MOL0     C32893   6.742  10.456   6.059  0.5695 -0.7211  0.0026
  985MOL0     C32894   6.386  10.514   6.330  0.0540  0.1981 -0.1569
  985MOL0     C32895   6.347  10.545   6.461  0.3404 -0.3837 -0.3808
  985MOL0     C32896   6.217  10.575   6.494  0.9682 -0.4220  1.0325
  985MOL0     C32897   6.116  10.571   6.406  0.0412 -0.4107  0.2932
  985MOL0     O32898   5.985  10.566   6.450 -0.0042 -0.4500  0.2830
  985MOL0     C32899   5.869  10.586   6.361  0.2784 -0.8996 -0.5415
  985MOL0     C32900   5.833  10.446   6.326  0.5216 -0.4483 -0.3052
  985MOL0     C32901   5.718  10.443   6.219 -0.5903  0.3969  0.3969
  985MOL0     C32902   5.584  10.480   6.282  0.1316  0.6996  0.1433
  985MOL0     C32903   5.543  10.377   6.376  0.0846 -0.7274  0.3500
  985MOL0     C32904   5.500  10.294   6.459  0.0853  0.0224  1.0451
  985MOL0     C32905   6.155  10.548   6.278  0.3669 -0.2660  0.2996
  985MOL0     C32906   6.287  10.516   6.233  0.0457 -0.1683 -0.0660
  985MOL0     C32907   6.313  10.501   6.091 -0.1865  0.4320  0.5889
  985MOL0     H32908   6.745  10.310   6.365  1.3808 -2.0806 -1.4783
  985MOL0     H32909   6.987  10.341   6.343  0.5054 -0.0335 -1.1929
  985MOL0     H32910   7.193  10.286   6.219 -1.4432 -1.7686 -5.3330
  985MOL0     H32911   7.305  10.371   6.124  0.0525 -0.0338 -0.2833
  985MOL0     H32912   7.319  10.472   6.347  0.4405  2.7058  1.0912
  985MOL0     H32913   7.147  10.509   6.355  0.1708  2.0404  1.2146
  985MOL0     H32914   7.278  10.728   6.289  3.1348  2.2582 -2.1362
  985MOL0     H32915   7.178  10.663   6.151  0.0351 -1.2848 -0.9431
  985MOL0     H32916   7.474  10.659   6.225  0.5065  0.4696  0.0075
  985MOL0     H32917   7.412  10.563   6.088  2.1833  0.7847 -0.2793
  985MOL0     H32918   7.319  10.790   6.005 -1.8980  0.1853  2.0062
  985MOL0     H32919   7.411  10.876   6.129  0.6095 -0.2945 -0.4141
  985MOL0     H32920   7.530  10.717   5.919 -3.9282 -2.5136  2.9089
  985MOL0     H32921   7.525  10.897   5.918 -0.7210  0.3169 -1.1062
  985MOL0     H32922   7.753  10.789   5.962  0.4103 -2.1125  0.8937
  985MOL0     H32923   7.690  10.734   6.120  1.5281 -0.9167  0.2338
  985MOL0     H32924   7.703  11.025   6.022 -4.0525 -0.2636 -0.1691
  985MOL0     H32925   7.636  10.972   6.180 -0.7737 -1.1069 -0.0477
  985MOL0     H32926   7.798  10.811   6.329 -1.5198 -0.8124 -3.0723
  985MOL0     H32927   8.054  10.709   6.446 -1.3770  0.4433  2.6423
  985MOL0     H32928   8.183  10.828   6.405  0.2327  1.1928  0.6991
  985MOL0     H32929   7.937  10.905   6.570 -0.7529  0.0052  0.7066
  985MOL0     H32930   8.091  10.861   6.652  0.9047  1.1232 -0.4961
  985MOL0     H32931   8.060  11.104   6.637  1.5194 -1.8481  1.6564
  985MOL0     H32932   8.065  11.091   6.453  0.8007  0.4750 -0.3561
  985MOL0     H32933   8.286  11.166   6.553 -1.3726  0.4807 -0.2157
  985MOL0     H32934   8.283  11.022   6.454  0.3638 -0.0940 -0.1845
  985MOL0     H32935   8.339  10.783   6.798 -0.3017  1.0317  1.8139
  985MOL0     H32936   8.561  10.698   6.863  1.1084  0.2061  0.0496
  985MOL0     H32937   9.039  11.023   6.910  2.4518  1.4288  1.1222
  985MOL0     H32938   9.275  10.988   6.974 -2.9833  0.4859  0.8352
  985MOL0     H32939   9.626  10.826   6.776 -0.6811 -0.5887  0.3934
  985MOL0     H32940   9.502  10.908   6.689 -1.3840  0.2943  0.5212
  985MOL0     H32941   9.464  11.086   6.842  0.2392  0.0330  0.3792
  985MOL0     H32942   9.558  11.007   6.972 -1.3456  0.4749  0.5944
  985MOL0     H32943   9.764  11.057   6.870  0.1568  0.0252  0.2662
  985MOL0     H32944   9.705  11.074   6.707  1.1854  1.4217  0.3247
  985MOL0     H32945   9.602  11.275   6.915  1.2278  0.2442  0.1159
  985MOL0     H32946   9.611  11.288   6.747 -0.0412 -0.6757 -1.0713
  985MOL0     H32947   9.880  11.291   6.761 -0.9419 -0.8141 -0.7895
  985MOL0     H32948   9.847  11.269   6.933 -2.4051 -1.3334 -0.5492
  985MOL0     H32949   9.765  11.506   6.755  0.8570 -0.9106 -0.3884
  985MOL0     H32950   9.755  11.498   6.935  0.3783 -1.3381  1.7394
  985MOL0     H32951   9.944  11.627   6.816 -2.8632 -0.2396 -0.1360
  985MOL0     H32952  10.022  11.472   6.801  0.5275  1.3935 -0.9872
  985MOL0     H32953   9.928  11.610   7.059 -0.4982  2.5264 -4.1201
  985MOL0     H32954   9.991  11.443   7.065 -2.4317  1.0150  1.4511
  985MOL0     H32955   9.308  10.663   6.685 -1.7508 -2.3020  0.4174
  985MOL0     H32956   9.081  10.692   6.631  0.3422  0.8661 -0.5840
  985MOL0     H32957   8.750  11.041   6.662  0.0560  0.8354  0.9474
  985MOL0     H32958   8.524  11.103   6.574 -1.3817 -0.6203  0.3359
  985MOL0     H32959   6.922  10.504   5.953  1.2405  4.3750  2.1983
  985MOL0     H32960   6.680  10.489   5.976  0.1636 -0.5094  0.3794
  985MOL0     H32961   6.426  10.555   6.536 -1.7875 -1.8521  2.2464
  985MOL0     H32962   6.174  10.616   6.584 -0.2268  0.7725 -0.0399
  985MOL0     H32963   5.904  10.642   6.274 -1.7930 -0.6654 -1.2858
  985MOL0     H32964   5.791  10.641   6.415  0.4282  0.5496 -1.7222
  985MOL0     H32965   5.811  10.393   6.419  0.0154 -2.1766 -1.3512
  985MOL0     H32966   5.920  10.403   6.275  0.2944  0.9181 -1.9471
  985MOL0     H32967   5.710  10.344   6.173 -1.0031  0.8778 -0.6069
  985MOL0     H32968   5.736  10.505   6.131  0.2042 -1.9644 -1.1908
  985MOL0     H32969   5.587  10.577   6.334  2.1349  0.6158  0.2413
  985MOL0     H32970   5.519  10.489   6.195  2.2719  0.3347 -1.5732
  985MOL0     H32971   5.451  10.228   6.528  1.6848 -1.2919  0.9781
  985MOL0     H32972   6.071  10.538   6.209  0.5062  1.4992 -0.1888
  985MOL0     H32973   6.328  10.394   6.078 -0.1406  0.7572 -3.3922
  985MOL0     H32974   6.227  10.534   6.031 -0.9248 -1.8152  0.3195
  985MOL0     H32975   6.400  10.557   6.054  0.9141  0.5541  3.1765
  986MOL0     O32976  10.359   3.791   5.669 -0.5116 -0.2712  0.0925
  986MOL0     C32977  10.318   3.810   5.553  0.6778  0.2061 -0.0394
  986MOL0     O32978  10.392   3.815   5.442 -0.2091 -0.3254 -0.2755
  986MOL0     C32979  10.523   3.776   5.451  0.5974  0.4233 -0.0729
  986MOL0     C32980  10.558   3.645   5.498 -0.2670  0.4434  0.2196
  986MOL0     C32981  10.696   3.603   5.512 -0.2058 -0.1103  0.0320
  986MOL0     C32982  10.793   3.692   5.475  0.3338  0.7036  0.2408
  986MOL0     O32983  10.916   3.639   5.489  0.2444 -0.0029  0.2221
  986MOL0     C32984  11.032   3.692   5.421  0.7841 -1.0365 -0.2621
  986MOL0     C32985  11.098   3.580   5.335  0.9055  0.1731  0.8368
  986MOL0     C32986  11.103   3.451   5.400 -0.8885  0.6256 -0.6869
  986MOL0     C32987  11.197   3.439   5.528  0.1179  0.0758 -0.0548
  986MOL0     C32988  11.164   3.309   5.598 -0.6105  0.2110 -0.8802
  986MOL0     C32989  11.242   3.298   5.733  0.5126 -0.6573  0.2408
  986MOL0     C32990  11.197   3.178   5.811  0.4043  0.3293 -0.4766
  986MOL0     C32991  11.246   3.187   5.954 -1.2104  0.2631  0.1970
  986MOL0     N32992  11.387   3.159   5.968  0.7984 -0.2610 -0.0813
  986MOL0     C32993  11.496   3.241   5.933  0.3511 -0.2005  0.2679
  986MOL0     C32994  11.602   3.173   5.978  0.6016  0.2997 -0.0111
  986MOL0     C32995  11.744   3.233   5.993 -0.2119  0.6897  0.1976
  986MOL0     C32996  11.842   3.116   5.962 -0.6249  0.2438  0.1656
  986MOL0     C32997  11.982   3.158   5.973  0.1623  0.2698 -0.0607
  986MOL0     C32998  12.068   3.050   6.013 -0.2001  1.4233  0.8791
  986MOL0     O32999  12.200   3.099   6.042 -0.2433 -0.4908  0.1442
  986MOL0     C33000  12.284   3.010   6.101 -0.7399  0.0067 -0.3564
  986MOL0     C33001  12.417   3.059   6.098  0.5484 -0.9794  1.3719
  986MOL0     C33002  12.520   2.985   6.132 -0.1276  0.6911  0.0757
  986MOL0     C33003  12.498   2.850   6.185  0.1287  0.3374 -0.4920
  986MOL0     C33004  12.603   2.764   6.238 -0.9660 -1.0471  0.4477
  986MOL0     O33005  12.731   2.811   6.229  0.1260 -0.4942 -0.1540
  986MOL0     C33006  12.841   2.771   6.299 -0.0697  0.8279 -0.1753
  986MOL0     C33007  12.962   2.819   6.241 -0.0961  0.5534  0.1275
  986MOL0     C33008  13.078   2.795   6.306 -0.5893  0.3376 -0.0574
  986MOL0     C33009  13.077   2.716   6.425 -0.2115 -0.0915  0.0784
  986MOL0     O33010  13.195   2.668   6.473  0.6550 -0.6075 -0.3289
  986MOL0     C33011  13.315   2.680   6.403  0.0667 -0.2436  0.5894
  986MOL0     C33012  13.426   2.611   6.482  0.2648 -0.1827 -0.3938
  986MOL0     C33013  13.548   2.614   6.402 -0.6954 -0.4796  0.8181
  986MOL0     C33014  13.674   2.575   6.488  0.1064  0.6018  0.0996
  986MOL0     C33015  13.795   2.544   6.395  0.2933 -0.0863  0.7183
  986MOL0     C33016  13.935   2.507   6.464 -0.9138  0.0064  0.0245
  986MOL0     C33017  14.056   2.513   6.370 -0.1596  1.2466  0.9882
  986MOL0     C33018  14.183   2.434   6.405  0.2624  0.0390 -1.1073
  986MOL0    Cl33019  14.312   2.485   6.306 -0.1022  0.7207 -0.0164
  986MOL0     C33020  12.964   2.671   6.483  0.7513  0.3985  0.5843
  986MOL0     C33021  12.844   2.697   6.421  0.1316  0.5473  0.8895
  986MOL0     O33022  12.570   2.657   6.291 -0.1580 -0.4877  1.0482
  986MOL0     C33023  12.362   2.811   6.203 -0.7162 -0.5064 -0.5736
  986MOL0     C33024  12.257   2.884   6.153 -0.9291 -0.2432 -0.1556
  986MOL0     N33025  11.558   3.049   6.014  0.0833 -0.4757  0.4223
  986MOL0     N33026  11.430   3.038   6.005 -0.3181 -0.7437 -0.0238
  986MOL0     C33027  10.761   3.807   5.407 -0.0317  0.3514  0.0086
  986MOL0     C33028  10.627   3.847   5.392  0.1878  0.2238  0.1637
  986MOL0     C33029  10.168   3.828   5.537  0.1314 -0.3622  0.3692
  986MOL0     C33030  10.126   3.871   5.412  0.0238  0.8003 -0.2967
  986MOL0     C33031   9.992   3.861   5.381 -0.4602  0.1506  0.4080
  986MOL0     C33032   9.894   3.839   5.476  0.1195 -0.3467  0.2044
  986MOL0     O33033   9.760   3.835   5.450  0.4171  0.8299  0.1895
  986MOL0     C33034   9.696   3.898   5.331 -0.6786  0.3933 -0.6840
  986MOL0     C33035   9.565   3.983   5.344  0.5849 -0.4341 -0.7739
  986MOL0     C33036   9.456   3.925   5.432 -0.4437  0.2601 -0.2038
  986MOL0     C33037   9.336   4.026   5.425 -0.4222 -0.0316 -0.8505
  986MOL0     C33038   9.238   4.005   5.539 -0.6891 -0.1019 -0.0449
  986MOL0     C33039   9.164   3.980   5.634 -0.0979 -0.4029 -0.0550
  986MOL0     C33040   9.933   3.813   5.605 -0.1160 -0.4970 -0.0965
  986MOL0     C33041  10.072   3.800   5.635 -0.6304  0.1144  0.0240
  986MOL0     C33042  10.105   3.746   5.774 -0.0286 -0.2145  0.7113
  986MOL0     H33043  10.482   3.584   5.546  1.6373 -0.6429  2.0622
  986MOL0     H33044  10.716   3.502   5.547  1.6144  0.3911  0.5449
  986MOL0     H33045  11.013   3.780   5.358 -0.5273 -0.5706  0.7349
  986MOL0     H33046  11.106   3.729   5.492 -0.7126  3.6766 -0.8047
  986MOL0     H33047  11.197   3.620   5.310  0.0579  1.5510 -0.4117
  986MOL0     H33048  11.038   3.568   5.245 -1.7916  3.3960  2.0341
  986MOL0     H33049  11.130   3.373   5.328  0.8346 -0.0149  0.5814
  986MOL0     H33050  11.004   3.416   5.429  0.0374 -1.8296 -0.2197
  986MOL0     H33051  11.303   3.438   5.500  1.0050 -0.0139  2.9433
  986MOL0     H33052  11.188   3.522   5.599  0.9751  0.2071 -0.0816
  986MOL0     H33053  11.056   3.306   5.617 -0.3167 -1.0082  0.9363
  986MOL0     H33054  11.176   3.222   5.534 -1.0597 -0.0863 -0.5659
  986MOL0     H33055  11.350   3.299   5.716  0.3818  0.2275 -0.5893
  986MOL0     H33056  11.228   3.390   5.790 -0.9970 -0.9233  0.3589
  986MOL0     H33057  11.239   3.084   5.773  0.7484 -0.8522  2.5618
  986MOL0     H33058  11.088   3.179   5.813  0.3473 -0.1248 -2.0843
  986MOL0     H33059  11.239   3.289   5.995 -2.2906 -0.5433  2.1339
  986MOL0     H33060  11.195   3.124   6.027 -0.7141  2.1380  2.2731
  986MOL0     H33061  11.490   3.345   5.902 -2.5558 -0.3583 -0.0230
  986MOL0     H33062  11.765   3.319   5.928  0.1559  1.2290  1.0181
  986MOL0     H33063  11.757   3.256   6.099 -3.0383 -0.2603  0.8242
  986MOL0     H33064  11.830   3.031   6.030  2.4729  0.1085  0.6944
  986MOL0     H33065  11.816   3.091   5.859  1.2364  3.3293 -1.1949
  986MOL0     H33066  11.981   3.230   6.055 -4.2718 -1.7121  1.9907
  986MOL0     H33067  12.024   3.202   5.882  0.1613 -0.0317 -0.2088
  986MOL0     H33068  12.066   2.969   5.939 -0.1893  0.5282  1.8279
  986MOL0     H33069  12.036   3.014   6.112 -0.2738  1.7280  0.9664
  986MOL0     H33070  12.428   3.162   6.067  0.3321 -1.4115 -0.2246
  986MOL0     H33071  12.617   3.032   6.121 -0.3890  1.5397  1.2495
  986MOL0     H33072  12.951   2.883   6.154 -0.8625  1.6160  0.9794
  986MOL0     H33073  13.165   2.846   6.264  2.0865 -2.2134  2.0223
  986MOL0     H33074  13.303   2.626   6.308 -0.9525  1.7750 -0.4944
  986MOL0     H33075  13.345   2.784   6.390 -1.9002  0.1614 -1.2386
  986MOL0     H33076  13.441   2.659   6.579 -2.6629  0.4373 -0.1521
  986MOL0     H33077  13.390   2.510   6.503 -0.5934  0.0878 -0.5013
  986MOL0     H33078  13.543   2.545   6.317 -1.3362 -0.5003  0.8659
  986MOL0     H33079  13.555   2.720   6.378 -0.3957 -0.9532 -1.4058
  986MOL0     H33080  13.650   2.494   6.558  1.0311  0.4955  0.2990
  986MOL0     H33081  13.704   2.656   6.555 -0.1190  0.3750  0.4822
  986MOL0     H33082  13.809   2.623   6.321 -2.1008 -0.8869 -0.6911
  986MOL0     H33083  13.780   2.452   6.338 -1.5418  1.8624 -2.2172
  986MOL0     H33084  13.955   2.578   6.545 -0.2040  1.0670 -1.0385
  986MOL0     H33085  13.936   2.409   6.512  2.2950  0.1579  0.4809
  986MOL0     H33086  14.084   2.618   6.365 -0.8840  1.3932 -0.6663
  986MOL0     H33087  14.035   2.478   6.268  0.0067  1.0713  1.0149
  986MOL0     H33088  14.206   2.446   6.511  0.3235 -1.8117 -0.8747
  986MOL0     H33089  14.167   2.326   6.395 -1.7924 -0.1846  2.9465
  986MOL0     H33090  12.975   2.618   6.576  0.4894  0.0758  0.4354
  986MOL0     H33091  12.752   2.646   6.448 -0.0155  0.5301  0.3814
  986MOL0     H33092  12.335   2.718   6.251 -0.1128  0.3048  1.4563
  986MOL0     H33093  12.156   2.851   6.175 -0.2188 -0.8384  2.5631
  986MOL0     H33094  10.836   3.872   5.362 -0.6369  0.4107 -0.9307
  986MOL0     H33095  10.602   3.935   5.334 -1.0853 -1.1264 -1.4824
  986MOL0     H33096  10.194   3.901   5.333  0.4292 -1.5054 -0.8898
  986MOL0     H33097   9.966   3.870   5.276  1.6687 -1.3333 -0.2950
  986MOL0     H33098   9.660   3.811   5.276 -0.0376 -0.5656  0.3607
  986MOL0     H33099   9.769   3.968   5.290  0.6393 -1.0346 -0.8605
  986MOL0     H33100   9.524   4.023   5.251 -3.8468  0.0223  1.1439
  986MOL0     H33101   9.608   4.072   5.391  2.0151 -0.9054 -1.1443
  986MOL0     H33102   9.506   3.907   5.528 -0.1612 -0.8534 -0.5451
  986MOL0     H33103   9.419   3.829   5.396 -1.4866  0.8883 -0.8544
  986MOL0     H33104   9.372   4.129   5.437  0.3918 -0.5242  1.4205
  986MOL0     H33105   9.290   4.013   5.327  1.8341 -0.3349 -1.9448
  986MOL0     H33106   9.109   3.966   5.725 -0.8840 -0.8511 -0.5772
  986MOL0     H33107   9.853   3.773   5.667 -0.1240 -1.2322 -0.5625
  986MOL0     H33108  10.157   3.825   5.829 -1.7533  0.7304  1.0521
  986MOL0     H33109  10.012   3.735   5.831 -1.1072  1.7544 -0.5450
  986MOL0     H33110  10.153   3.648   5.766 -0.3956 -0.3083 -0.6633
  987MOL0     O33111   4.915   0.236   2.443  0.0450 -0.1059  0.4217
  987MOL0     C33112   4.946   0.287   2.546  0.6252 -0.6410  0.4260
  987MOL0     O33113   5.069   0.327   2.579  1.3097  0.1101  0.7745
  987MOL0     C33114   5.142   0.373   2.472  0.9163 -0.0808 -0.6922
  987MOL0     C33115   5.081   0.455   2.370  0.0953 -0.4781  0.5316
  987MOL0     C33116   5.163   0.498   2.259  0.6213  0.1915  0.6412
  987MOL0     C33117   5.303   0.483   2.267  0.4517 -0.2857  0.1009
  987MOL0     O33118   5.381   0.515   2.168  0.7248 -1.0844 -0.3524
  987MOL0     C33119   5.384   0.648   2.121 -0.6798  0.1072  0.8977
  987MOL0     C33120   5.496   0.666   2.025 -0.4139  0.7230  1.2524
  987MOL0     C33121   5.631   0.630   2.075 -0.3714 -0.2911 -0.6797
  987MOL0     C33122   5.724   0.624   1.955  0.8762  0.0417  0.0109
  987MOL0     C33123   5.865   0.635   1.990 -0.3513 -0.5571  0.0161
  987MOL0     C33124   5.909   0.520   2.081  0.5681 -0.2532 -0.5210
  987MOL0     C33125   6.062   0.527   2.107  0.1363  0.1162  0.2688
  987MOL0     C33126   6.118   0.408   2.197  0.1198 -0.1968  0.4473
  987MOL0     N33127   6.245   0.443   2.255  0.1912  0.2010 -0.8438
  987MOL0     C33128   6.364   0.471   2.183 -0.5034 -0.6523  0.0573
  987MOL0     C33129   6.462   0.440   2.268  0.4807 -0.7089  0.0980
  987MOL0     C33130   6.614   0.456   2.258  0.4553 -0.0673  0.4290
  987MOL0     C33131   6.661   0.585   2.330 -0.4654 -0.0856 -0.3935
  987MOL0     C33132   6.800   0.632   2.300  1.1886 -0.1507  0.2663
  987MOL0     C33133   6.919   0.533   2.308 -0.5002  0.8428 -0.8100
  987MOL0     O33134   6.954   0.538   2.447 -0.4207  0.8221 -0.5387
  987MOL0     C33135   7.088   0.504   2.471  0.1295 -0.5173  0.8289
  987MOL0     C33136   7.142   0.546   2.590 -0.4858  0.5261 -0.6516
  987MOL0     C33137   7.275   0.528   2.622 -0.6254  0.6773  0.0066
  987MOL0     C33138   7.356   0.459   2.539 -0.1133  1.1814 -0.3493
  987MOL0     C33139   7.498   0.435   2.573 -0.3927 -0.2912  0.1706
  987MOL0     O33140   7.546   0.317   2.530  0.4413  0.1315 -0.1104
  987MOL0     C33141   7.665   0.258   2.558 -0.5518 -0.1570 -0.2853
  987MOL0     C33142   7.760   0.309   2.645  0.2146 -0.2081  0.6971
  987MOL0     C33143   7.874   0.244   2.681  0.1883  0.5023 -0.2282
  987MOL0     C33144   7.906   0.119   2.621  0.3028 -0.4110 -0.1596
  987MOL0     O33145   8.031   0.073   2.662 -0.0282  0.4141  0.1247
  987MOL0     C33146   8.076  -0.051   2.596  0.6016  0.4385 -0.8781
  987MOL0     C33147   8.213  -0.099   2.645 -0.2837  0.1998  0.6105
  987MOL0     C33148   8.321   0.011   2.676 -0.0595 -0.1858  0.2119
  987MOL0     C33149   8.462  -0.049   2.660  1.0932  0.4670 -0.1752
  987MOL0     C33150   8.577   0.046   2.710 -0.6186 -0.4136  0.2309
  987MOL0     C33151   8.602   0.183   2.627 -1.0245  0.1874 -0.6500
  987MOL0     C33152   8.717   0.271   2.680 -0.9492  0.4755 -0.0382
  987MOL0     C33153   8.845   0.183   2.683  0.7504  0.0654  0.0956
  987MOL0    Cl33154   8.979   0.300   2.652  0.0450 -0.4399 -0.1950
  987MOL0     C33155   7.815   0.058   2.531 -0.3022  0.4009 -0.7847
  987MOL0     C33156   7.696   0.126   2.507  0.2374  0.1183 -0.1151
  987MOL0     O33157   7.550   0.516   2.649 -0.1788 -0.0363 -0.0540
  987MOL0     C33158   7.309   0.404   2.422 -0.2363  0.3652 -0.3681
  987MOL0     C33159   7.177   0.425   2.381  0.2580 -0.1787 -0.1558
  987MOL0     N33160   6.400   0.400   2.381 -0.7286 -0.2207 -0.2115
  987MOL0     N33161   6.277   0.404   2.380  0.1820  0.6991 -0.2927
  987MOL0     C33162   5.356   0.411   2.367 -0.5147  0.0907  0.0139
  987MOL0     C33163   5.281   0.350   2.474  0.2862 -0.3215 -0.1682
  987MOL0     C33164   4.847   0.300   2.660  1.0793  0.0383  0.7290
  987MOL0     C33165   4.868   0.246   2.784  1.2615  0.0560  0.0121
  987MOL0     C33166   4.773   0.259   2.890  0.3143  0.3581  1.0977
  987MOL0     C33167   4.650   0.318   2.865  0.0280 -0.4642 -0.6667
  987MOL0     O33168   4.554   0.308   2.967 -0.7389 -0.0059  0.8420
  987MOL0     C33169   4.418   0.352   2.956 -0.3881 -0.0960 -0.6647
  987MOL0     C33170   4.344   0.250   2.862  0.3417 -0.3325 -0.2906
  987MOL0     C33171   4.192   0.302   2.861 -0.6606  0.6933 -0.6531
  987MOL0     C33172   4.110   0.203   2.791 -0.4133 -0.1825  0.1118
  987MOL0     C33173   4.108   0.079   2.865  0.0210 -0.1653 -0.2353
  987MOL0     C33174   4.113  -0.024   2.932 -0.3248  0.6931 -0.7965
  987MOL0     C33175   4.632   0.388   2.744 -0.6548  0.4959  0.5244
  987MOL0     C33176   4.730   0.376   2.642 -0.8911 -0.4602 -0.0787
  987MOL0     C33177   4.702   0.427   2.502 -0.3784 -0.3314 -0.6508
  987MOL0     H33178   4.978   0.489   2.378 -0.5610 -1.2942 -2.9376
  987MOL0     H33179   5.116   0.544   2.173 -2.2822  2.2679  3.1152
  987MOL0     H33180   5.294   0.662   2.061  0.6686 -1.1739 -1.5657
  987MOL0     H33181   5.401   0.715   2.205  0.5398  1.3692 -0.3134
  987MOL0     H33182   5.495   0.774   2.007 -1.5206  0.8986  2.2151
  987MOL0     H33183   5.477   0.614   1.931  2.1471  2.9512 -0.6584
  987MOL0     H33184   5.623   0.532   2.123 -2.2616  0.0228 -0.2903
  987MOL0     H33185   5.668   0.709   2.140  2.4481  1.6665 -4.2518
  987MOL0     H33186   5.709   0.539   1.888  2.7113 -1.0642  0.9321
  987MOL0     H33187   5.705   0.713   1.894  0.3493  0.1571  0.3377
  987MOL0     H33188   5.923   0.640   1.898  1.3725 -0.3394  1.0617
  987MOL0     H33189   5.877   0.723   2.055  0.5070 -2.2919  2.3201
  987MOL0     H33190   5.850   0.525   2.173 -0.4684  0.6031 -1.2003
  987MOL0     H33191   5.888   0.429   2.025 -2.3370  0.2958 -0.5226
  987MOL0     H33192   6.088   0.618   2.161 -2.2855  1.3945 -0.5479
  987MOL0     H33193   6.125   0.540   2.019 -1.6600 -1.5021 -1.3630
  987MOL0     H33194   6.046   0.387   2.277 -0.7171  1.7009  0.2521
  987MOL0     H33195   6.128   0.315   2.142  2.5378 -2.4815  4.3101
  987MOL0     H33196   6.378   0.521   2.088 -1.7159 -2.9093 -1.4072
  987MOL0     H33197   6.650   0.368   2.312 -0.9387 -1.9718 -1.5588
  987MOL0     H33198   6.644   0.460   2.153 -0.9218  0.1099  0.0239
  987MOL0     H33199   6.596   0.666   2.298  2.1269  1.8687 -1.1109
  987MOL0     H33200   6.652   0.575   2.439  1.6251  0.9013 -0.0665
  987MOL0     H33201   6.814   0.714   2.372 -2.4173  0.8032  0.0583
  987MOL0     H33202   6.802   0.671   2.197  2.3568 -1.8999 -0.4236
  987MOL0     H33203   7.006   0.565   2.251  1.5934 -1.3625  0.9304
  987MOL0     H33204   6.895   0.435   2.264  4.8288  1.1690 -5.6548
  987MOL0     H33205   7.082   0.584   2.672  0.2264  1.2299 -0.4502
  987MOL0     H33206   7.309   0.567   2.717 -0.1614 -0.1412  0.1841
  987MOL0     H33207   7.748   0.404   2.695  1.8480  1.7359 -2.2781
  987MOL0     H33208   7.945   0.287   2.751 -2.0944  3.5944  0.3912
  987MOL0     H33209   8.004  -0.133   2.601  0.6598  0.3517 -1.4309
  987MOL0     H33210   8.088  -0.033   2.489  1.2884 -0.0749 -0.8925
  987MOL0     H33211   8.207  -0.169   2.728  0.9636  0.6003  1.0735
  987MOL0     H33212   8.256  -0.155   2.561  1.0627  2.3849 -0.2639
  987MOL0     H33213   8.310   0.101   2.616  0.9262  1.6973  2.6870
  987MOL0     H33214   8.304   0.042   2.780  0.3121  1.4720 -0.1947
  987MOL0     H33215   8.476  -0.081   2.557 -0.7584  1.0138 -0.6298
  987MOL0     H33216   8.472  -0.134   2.728  2.6942  0.2830 -0.5926
  987MOL0     H33217   8.666  -0.018   2.707 -0.4887 -0.2435  0.4809
  987MOL0     H33218   8.547   0.075   2.811  0.1999 -0.7346  0.5734
  987MOL0     H33219   8.636   0.150   2.529  0.7274 -3.6057  1.0145
  987MOL0     H33220   8.514   0.245   2.610 -2.3264 -2.2312 -3.6458
  987MOL0     H33221   8.691   0.300   2.782 -0.3571  2.5504 -0.4245
  987MOL0     H33222   8.734   0.363   2.622  0.3049 -0.7405 -1.7168
  987MOL0     H33223   8.850   0.139   2.783 -1.3585 -1.8759 -0.5943
  987MOL0     H33224   8.838   0.114   2.599 -0.0927  2.5529 -2.0392
  987MOL0     H33225   7.840  -0.032   2.475  3.2584  2.5815 -3.0240
  987MOL0     H33226   7.630   0.076   2.437  0.0770  1.5219 -1.0123
  987MOL0     H33227   7.378   0.354   2.356 -0.5471  0.2822 -0.6362
  987MOL0     H33228   7.135   0.374   2.295  0.9165 -4.5547  1.8265
  987MOL0     H33229   5.464   0.397   2.363 -0.8461 -3.3478 -4.4097
  987MOL0     H33230   5.331   0.307   2.560 -2.4606  0.2632  1.8936
  987MOL0     H33231   4.952   0.181   2.803  0.8884 -0.8165 -1.1894
  987MOL0     H33232   4.796   0.198   2.977  0.9469 -3.4787 -1.5103
  987MOL0     H33233   4.415   0.457   2.926 -1.0829  0.9079  2.4927
  987MOL0     H33234   4.371   0.339   3.053 -0.5345  0.3928 -0.6660
  987MOL0     H33235   4.361   0.150   2.904  2.8459 -0.3636 -1.1926
  987MOL0     H33236   4.378   0.262   2.759 -1.9831  3.6299 -0.7934
  987MOL0     H33237   4.206   0.403   2.821 -3.5473  1.5957  0.3441
  987MOL0     H33238   4.149   0.312   2.961 -2.2454 -3.2504 -0.7467
  987MOL0     H33239   4.010   0.240   2.763 -0.2612 -0.5838 -1.0065
  987MOL0     H33240   4.166   0.175   2.701 -0.2773 -0.4832  0.2921
  987MOL0     H33241   4.117  -0.105   3.003  2.3157  0.3007 -1.3189
  987MOL0     H33242   4.541   0.446   2.729 -0.6062  0.8224  1.4719
  987MOL0     H33243   4.689   0.337   2.441 -1.9213 -1.9737  1.9013
  987MOL0     H33244   4.606   0.478   2.512 -0.3279 -0.4479  0.5823
  987MOL0     H33245   4.781   0.495   2.471  0.5667 -1.7243 -1.4407
  988MOL0     O33246  11.052   7.906  10.700 -0.1476 -0.3155  0.0186
  988MOL0     C33247  11.068   7.975  10.604 -0.5649 -0.5526 -0.1131
  988MOL0     O33248  10.974   8.044  10.532 -0.6039 -0.4547  0.6583
  988MOL0     C33249  10.834   8.020  10.538 -0.1999 -0.8467 -0.8129
  988MOL0     C33250  10.755   8.135  10.544  1.2391 -0.5286 -0.8734
  988MOL0     C33251  10.623   8.134  10.529  0.3269 -0.3441 -0.3347
  988MOL0     C33252  10.550   8.010  10.512  0.2962  0.1984  0.4466
  988MOL0     O33253  10.415   8.025  10.491  0.4134  0.0593  0.5981
  988MOL0     C33254  10.315   7.926  10.516  0.0048  0.2999 -0.2269
  988MOL0     C33255  10.188   7.986  10.440 -0.7902  0.7600  0.2490
  988MOL0     C33256  10.154   8.135  10.489  0.1533 -0.8709 -0.0973
  988MOL0     C33257  10.044   8.184  10.399 -0.7213  0.3091  0.7047
  988MOL0     C33258   9.919   8.219  10.473  0.7644 -0.0006  0.9728
  988MOL0     C33259   9.798   8.206  10.374 -1.0804 -0.2980  0.2397
  988MOL0     C33260   9.663   8.236  10.441 -0.3199  0.3238  0.3488
  988MOL0     C33261   9.544   8.201  10.351  0.2114 -0.0911  0.3513
  988MOL0     N33262   9.520   8.287  10.234  0.7600  0.2137 -0.4353
  988MOL0     C33263   9.582   8.294  10.110  0.0131  0.0470 -0.1051
  988MOL0     C33264   9.510   8.384  10.040  0.3375  0.5572  0.3652
  988MOL0     C33265   9.516   8.422   9.893 -0.1334 -0.1091 -0.0850
  988MOL0     C33266   9.525   8.574   9.872  0.5875  0.0598  0.3479
  988MOL0     C33267   9.464   8.619   9.740  0.2106 -0.1652  0.3438
  988MOL0     C33268   9.534   8.565   9.621 -0.8265  0.2867  0.5246
  988MOL0     O33269   9.674   8.615   9.613  0.2157  0.3232  0.5656
  988MOL0     C33270   9.785   8.543   9.666 -0.8711  0.4894  0.4975
  988MOL0     C33271   9.797   8.402   9.662  0.0999 -0.2033 -0.0433
  988MOL0     C33272   9.894   8.337   9.739 -0.4288  0.3220 -0.7209
  988MOL0     C33273  10.005   8.403   9.796 -0.3591  0.5959  0.1208
  988MOL0     C33274  10.127   8.335   9.863  0.0434 -0.4427  0.7422
  988MOL0     O33275  10.224   8.426   9.898 -0.2001 -0.6940 -0.2398
  988MOL0     C33276  10.338   8.397   9.977  0.1581 -0.0222  0.2301
  988MOL0     C33277  10.450   8.477   9.951  0.4291 -0.1023  0.1813
  988MOL0     C33278  10.561   8.464  10.035 -0.3160 -0.4717 -0.3906
  988MOL0     C33279  10.561   8.386  10.151  0.4923 -0.0199  0.1978
  988MOL0     O33280  10.664   8.388  10.252 -0.4752  0.3684 -0.2898
  988MOL0     C33281  10.741   8.504  10.272  0.0650 -0.8616 -0.3426
  988MOL0     C33282  10.881   8.522  10.208  0.7684 -0.0544 -0.3541
  988MOL0     C33283  10.975   8.410  10.266  0.7302  0.0427 -0.4897
  988MOL0     C33284  11.115   8.461  10.268  0.4461  0.4053  0.2059
  988MOL0     C33285  11.187   8.378  10.374 -0.8418  0.7409 -0.4165
  988MOL0     C33286  11.157   8.399  10.523 -0.5357 -0.2226 -0.3472
  988MOL0     C33287  11.237   8.519  10.566 -0.5488  0.0971 -1.2302
  988MOL0     C33288  11.213   8.547  10.706  0.0699  0.7905  0.5854
  988MOL0    Cl33289  11.035   8.580  10.730  0.1701  0.0887  0.0842
  988MOL0     C33290  10.440   8.318  10.181  0.4602 -0.1398  0.2125
  988MOL0     C33291  10.332   8.322  10.095  0.7674 -0.4064 -0.6103
  988MOL0     O33292  10.137   8.217   9.880  0.9946  0.0228  0.0821
  988MOL0     C33293   9.994   8.548   9.790 -0.1745 -0.3294 -0.1358
  988MOL0     C33294   9.881   8.612   9.733 -0.4554 -0.0817 -0.6438
  988MOL0     N33295   9.406   8.428  10.122 -0.0247 -0.6510  0.5648
  988MOL0     N33296   9.415   8.369  10.236  0.2602 -0.2412  0.3647
  988MOL0     C33297  10.627   7.889  10.517 -0.0705  0.5552  0.2325
  988MOL0     C33298  10.772   7.893  10.530  0.1893  0.3593 -0.4104
  988MOL0     C33299  11.201   7.992  10.558 -0.7539  0.0950  0.0790
  988MOL0     C33300  11.309   8.016  10.650  0.5292 -1.1661 -0.3269
  988MOL0     C33301  11.440   8.013  10.616 -0.3067  0.1067 -0.4820
  988MOL0     C33302  11.480   7.988  10.487  1.0608 -0.4779 -0.1418
  988MOL0     O33303  11.613   7.999  10.442 -0.4579 -0.6507 -0.6490
  988MOL0     C33304  11.721   7.967  10.536  0.9296 -0.3479 -0.3208
  988MOL0     C33305  11.858   7.977  10.462 -0.3729  0.0963 -0.2591
  988MOL0     C33306  11.889   8.126  10.427 -0.3319  0.6699 -0.4015
  988MOL0     C33307  12.034   8.149  10.404  0.0930 -0.0932 -0.0998
  988MOL0     C33308  12.075   8.061  10.301  0.1526  0.2110 -0.6698
  988MOL0     C33309  12.107   7.973  10.218 -0.0822 -0.4100 -0.3018
  988MOL0     C33310  11.377   7.977  10.389  0.3548  0.0115  0.1700
  988MOL0     C33311  11.242   7.978  10.424  0.5745  0.9292  1.4423
  988MOL0     C33312  11.139   7.973  10.307 -0.2430  0.1964 -0.3806
  988MOL0     H33313  10.807   8.230  10.555 -0.8749  0.6057 -0.2815
  988MOL0     H33314  10.562   8.223  10.542 -1.1020 -1.4285  0.6950
  988MOL0     H33315  10.343   7.825  10.484 -1.0307  0.5871 -2.1826
  988MOL0     H33316  10.300   7.910  10.623  1.8270  1.7244  0.2890
  988MOL0     H33317  10.113   7.912  10.471  1.3030 -1.8271 -0.5178
  988MOL0     H33318  10.203   7.983  10.332 -1.3299 -0.5719  0.1831
  988MOL0     H33319  10.241   8.200  10.478 -0.1529 -0.4244  0.1070
  988MOL0     H33320  10.116   8.146  10.591  2.1251 -2.0801  0.8284
  988MOL0     H33321  10.086   8.276  10.359  0.4066 -1.7546 -3.3910
  988MOL0     H33322  10.032   8.116  10.314  0.7841  0.1431  0.5924
  988MOL0     H33323   9.905   8.142  10.549 -1.0915 -1.7496 -1.0000
  988MOL0     H33324   9.933   8.315  10.524  3.2986  0.3895 -0.3307
  988MOL0     H33325   9.813   8.273  10.289 -2.9054 -1.2605 -0.9214
  988MOL0     H33326   9.802   8.104  10.333 -0.8067  0.8730 -2.9495
  988MOL0     H33327   9.652   8.341  10.470 -2.9316  0.6216 -1.3954
  988MOL0     H33328   9.657   8.177  10.532  2.0104 -1.8253 -0.7618
  988MOL0     H33329   9.549   8.094  10.330  3.6933 -1.0488  4.6624
  988MOL0     H33330   9.463   8.215  10.423  0.9964  0.2851  1.1806
  988MOL0     H33331   9.662   8.233  10.070  0.9547  1.6442 -0.7168
  988MOL0     H33332   9.608   8.373   9.860  0.1602  0.7999 -0.6583
  988MOL0     H33333   9.437   8.375   9.834 -1.9486  1.8274  0.6803
  988MOL0     H33334   9.447   8.616   9.937  0.6633 -1.8199  1.7531
  988MOL0     H33335   9.623   8.616   9.896  1.2061 -0.2747 -1.4562
  988MOL0     H33336   9.470   8.728   9.731 -2.2327 -0.0852 -1.0940
  988MOL0     H33337   9.359   8.590   9.738 -0.6661  2.5567  1.9557
  988MOL0     H33338   9.484   8.594   9.528 -1.2053 -0.7595  0.3940
  988MOL0     H33339   9.528   8.456   9.631  2.6515 -0.0127  0.5362
  988MOL0     H33340   9.713   8.345   9.624 -1.2754  2.6983 -1.7647
  988MOL0     H33341   9.887   8.229   9.745 -0.8018  0.4302  1.9312
  988MOL0     H33342  10.463   8.547   9.869 -1.9966  2.6201  1.9193
  988MOL0     H33343  10.653   8.516  10.007  0.4726 -1.4568  0.2903
  988MOL0     H33344  10.674   8.586  10.244  1.6992 -0.2381 -2.6994
  988MOL0     H33345  10.750   8.514  10.381 -1.4698 -2.9361  0.0309
  988MOL0     H33346  10.892   8.529  10.100  1.6374 -2.1369 -0.4465
  988MOL0     H33347  10.917   8.622  10.235  0.4918  0.1518 -0.7420
  988MOL0     H33348  10.936   8.388  10.366 -1.5514  0.5996 -1.1869
  988MOL0     H33349  10.966   8.317  10.209 -0.8305 -0.3071  0.2546
  988MOL0     H33350  11.123   8.570  10.275 -1.2726  0.4964  1.2071
  988MOL0     H33351  11.166   8.430  10.176  3.0587  0.6549  1.4883
  988MOL0     H33352  11.296   8.385  10.367 -0.8099  2.1261  0.9912
  988MOL0     H33353  11.169   8.271  10.358  0.4872  0.7543 -2.2976
  988MOL0     H33354  11.049   8.406  10.537 -0.8467  0.5742 -2.5949
  988MOL0     H33355  11.192   8.308  10.572  2.2618  3.0042  4.4495
  988MOL0     H33356  11.209   8.612  10.514 -0.5939  1.8226  1.6595
  988MOL0     H33357  11.345   8.502  10.559 -0.0344  1.6924  1.2511
  988MOL0     H33358  11.265   8.467  10.759  3.8278  1.9258 -1.0423
  988MOL0     H33359  11.265   8.639  10.735  0.4922  1.1529 -1.1722
  988MOL0     H33360  10.428   8.265  10.276 -1.5306  3.3242  2.0994
  988MOL0     H33361  10.240   8.266  10.112  0.6147  0.0070 -0.0664
  988MOL0     H33362  10.073   8.612   9.827 -1.2253  1.8942 -1.5786
  988MOL0     H33363   9.880   8.720   9.734 -0.2687 -0.0826 -0.4077
  988MOL0     H33364  10.588   7.790  10.495 -2.1584  1.4785 -0.4133
  988MOL0     H33365  10.835   7.805  10.531 -1.1313 -0.6142 -0.7299
  988MOL0     H33366  11.276   8.030  10.752  0.6219  2.1168 -0.6431
  988MOL0     H33367  11.517   8.038  10.688  0.5617  0.3105 -1.4653
  988MOL0     H33368  11.718   7.864  10.573 -0.8879  0.4403  2.0058
  988MOL0     H33369  11.720   8.038  10.620 -0.2918 -0.3621 -0.3097
  988MOL0     H33370  11.867   7.913  10.374  1.4530  2.2122 -1.7254
  988MOL0     H33371  11.934   7.954  10.538  0.4722  3.4176  0.0675
  988MOL0     H33372  11.861   8.189  10.512  2.6737  0.0141  1.2324
  988MOL0     H33373  11.835   8.148  10.335  1.0344 -0.5745 -1.5423
  988MOL0     H33374  12.058   8.250  10.371  1.5640 -0.2052  0.5728
  988MOL0     H33375  12.091   8.131  10.495  0.6888  2.1246  0.0120
  988MOL0     H33376  12.135   7.885  10.163  0.4131 -0.3025 -0.2225
  988MOL0     H33377  11.398   7.968  10.282  1.4376  1.5949  0.2042
  988MOL0     H33378  11.060   7.899  10.324  0.9010 -1.0524 -0.2981
  988MOL0     H33379  11.097   8.074  10.299 -4.2603 -1.4425 -4.2175
  988MOL0     H33380  11.186   7.960  10.209 -0.8623  1.6900 -0.9070
  989MOL0     O33381   7.587   0.641   2.054 -0.3216 -0.2227  0.4169
  989MOL0     C33382   7.511   0.637   2.146  0.4409 -0.3532 -0.0472
  989MOL0     O33383   7.530   0.558   2.258 -1.2477 -0.2745 -0.4534
  989MOL0     C33384   7.655   0.502   2.272 -0.2237 -0.0666 -0.3805
  989MOL0     C33385   7.689   0.378   2.216 -0.2837 -0.1766 -0.1276
  989MOL0     C33386   7.805   0.325   2.240  0.7626  0.4003 -0.8391
  989MOL0     C33387   7.909   0.398   2.299 -0.1710  1.1917 -0.2903
  989MOL0     O33388   8.039   0.361   2.282  0.0220  0.2596  0.3253
  989MOL0     C33389   8.078   0.239   2.355  0.0232  0.1293 -0.4947
  989MOL0     C33390   8.192   0.172   2.272  0.0032  0.2602 -0.2614
  989MOL0     C33391   8.324   0.250   2.283  0.3757 -0.1217 -1.0413
  989MOL0     C33392   8.412   0.224   2.171  0.1386 -0.3849 -0.4617
  989MOL0     C33393   8.554   0.261   2.186 -0.3415 -0.2029  0.4103
  989MOL0     C33394   8.587   0.404   2.213 -0.3976  0.2441  0.2813
  989MOL0     C33395   8.734   0.442   2.185 -0.0460  0.1658  0.6336
  989MOL0     C33396   8.832   0.400   2.290 -0.4468 -0.1372 -1.5688
  989MOL0     N33397   8.972   0.403   2.251  0.0796  0.1615 -0.3422
  989MOL0     C33398   9.024   0.488   2.158 -0.0076  0.1919 -0.3542
  989MOL0     C33399   9.154   0.457   2.154 -0.4357  0.1096 -0.3431
  989MOL0     C33400   9.265   0.504   2.082 -0.4852 -0.0758 -0.2587
  989MOL0     C33401   9.329   0.636   2.136 -0.7171 -0.2607  0.2236
  989MOL0     C33402   9.361   0.648   2.291 -0.0474 -0.4446  0.7794
  989MOL0     C33403   9.467   0.556   2.352  0.0145 -0.5156 -0.3545
  989MOL0     O33404   9.585   0.565   2.268  0.5877  0.4644  0.6589
  989MOL0     C33405   9.709   0.534   2.321  0.5092  0.8271  0.2323
  989MOL0     C33406   9.735   0.458   2.442 -0.9344 -0.1920  0.3339
  989MOL0     C33407   9.863   0.437   2.495  0.0563  0.8954 -0.3495
  989MOL0     C33408   9.975   0.459   2.411  0.1519  0.2885  0.3600
  989MOL0     C33409  10.120   0.441   2.447 -0.3412 -0.2831  0.1236
  989MOL0     O33410  10.145   0.398   2.574  0.0254  0.4386  0.8375
  989MOL0     C33411  10.276   0.377   2.604  0.7129  0.0921  0.4475
  989MOL0     C33412  10.340   0.270   2.544 -0.1689  0.0756  0.9694
  989MOL0     C33413  10.476   0.246   2.567  0.4668 -0.7628  0.1757
  989MOL0     C33414  10.545   0.315   2.663  0.3066 -0.7966  0.3757
  989MOL0     O33415  10.672   0.281   2.699  0.4520  0.7393  0.5853
  989MOL0     C33416  10.756   0.392   2.727  1.2266  1.0079  0.2007
  989MOL0     C33417  10.897   0.330   2.729  0.1005 -1.0199 -0.8574
  989MOL0     C33418  11.004   0.438   2.768 -0.3618 -0.2857 -0.0979
  989MOL0     C33419  11.140   0.377   2.811 -0.0260  0.2905  0.1251
  989MOL0     C33420  11.181   0.250   2.723  0.7747 -0.8382 -0.8854
  989MOL0     C33421  11.314   0.184   2.744  0.2031  0.6106 -0.3302
  989MOL0     C33422  11.328   0.055   2.656  0.7519  0.4255 -0.7003
  989MOL0     C33423  11.466  -0.002   2.669 -0.0470 -0.4750 -0.5182
  989MOL0    Cl33424  11.489  -0.059   2.834  0.0727  0.1242 -0.3920
  989MOL0     C33425  10.476   0.414   2.734 -0.4039 -0.8191  1.0932
  989MOL0     C33426  10.343   0.455   2.703  0.5359  0.4063  0.4292
  989MOL0     O33427  10.201   0.456   2.353  0.6127 -0.4759  0.1331
  989MOL0     C33428   9.952   0.521   2.280  0.0240  0.7761 -0.7978
  989MOL0     C33429   9.823   0.555   2.240 -0.2810 -0.3922 -0.9903
  989MOL0     N33430   9.178   0.344   2.228  0.1049  0.1724 -0.3044
  989MOL0     N33431   9.067   0.315   2.289  0.3826 -0.2131  0.1339
  989MOL0     C33432   7.885   0.522   2.359  1.0480 -0.0748  0.4452
  989MOL0     C33433   7.750   0.570   2.348  1.2801 -0.0511  0.1470
  989MOL0     C33434   7.386   0.719   2.142 -0.3081 -0.2297 -0.8878
  989MOL0     C33435   7.316   0.728   2.271 -0.1734  0.4324 -0.6888
  989MOL0     C33436   7.194   0.793   2.274 -0.4571 -0.9380  0.2670
  989MOL0     C33437   7.133   0.843   2.161  1.1588 -0.1109 -1.0021
  989MOL0     O33438   7.010   0.902   2.180  0.2742  0.3385  0.3763
  989MOL0     C33439   6.933   0.922   2.066  0.6667 -0.1772  0.1397
  989MOL0     C33440   6.812   0.983   2.110 -0.5056 -0.9131 -0.2379
  989MOL0     C33441   6.734   1.051   2.006  0.1366  0.3252 -0.0811
  989MOL0     C33442   6.633   1.155   2.063 -0.8444 -0.1443 -0.2289
  989MOL0     C33443   6.533   1.190   1.958 -0.6058 -0.6640 -0.5632
  989MOL0     C33444   6.460   1.219   1.867  0.8142  0.8169 -0.1444
  989MOL0     C33445   7.196   0.829   2.035 -0.1972 -0.3816 -0.3315
  989MOL0     C33446   7.318   0.761   2.029  0.0463 -0.2851 -1.0642
  989MOL0     C33447   7.360   0.713   1.885 -0.7081 -0.3620 -0.5290
  989MOL0     H33448   7.622   0.349   2.135  1.0443  0.2955 -1.4411
  989MOL0     H33449   7.829   0.232   2.188 -1.4404 -0.4324 -0.4821
  989MOL0     H33450   8.119   0.250   2.456  1.5879 -0.5025 -1.0329
  989MOL0     H33451   8.001   0.161   2.359 -1.3404  1.4633  1.1999
  989MOL0     H33452   8.167   0.173   2.165 -1.1340  1.8436 -0.0051
  989MOL0     H33453   8.206   0.072   2.314  0.4942  1.9995  4.2265
  989MOL0     H33454   8.363   0.216   2.379 -1.9247 -4.3274 -1.3463
  989MOL0     H33455   8.299   0.356   2.285 -0.6425 -0.2590 -3.4677
  989MOL0     H33456   8.412   0.118   2.145 -2.9982  0.4408 -5.0277
  989MOL0     H33457   8.372   0.267   2.079  1.6342 -1.3448 -1.6034
  989MOL0     H33458   8.612   0.204   2.260  2.2295  0.7673 -0.7331
  989MOL0     H33459   8.610   0.243   2.093  1.2392  1.1659  1.0496
  989MOL0     H33460   8.512   0.460   2.157 -0.7010  0.2788  0.7125
  989MOL0     H33461   8.567   0.429   2.318  0.2746 -0.9381  0.7095
  989MOL0     H33462   8.747   0.550   2.183  2.7429  0.0002  2.8925
  989MOL0     H33463   8.752   0.395   2.088 -3.4426 -2.9422  1.2798
  989MOL0     H33464   8.816   0.458   2.381 -4.3902 -1.6202 -1.1437
  989MOL0     H33465   8.821   0.300   2.332  1.0489  0.7486  1.1730
  989MOL0     H33466   8.964   0.557   2.099 -1.9363 -0.0212  1.2511
  989MOL0     H33467   9.346   0.430   2.079  0.4561  0.6964  2.7276
  989MOL0     H33468   9.222   0.519   1.982 -4.6730  0.0134  1.3505
  989MOL0     H33469   9.417   0.648   2.072 -0.6276  0.4850  0.4755
  989MOL0     H33470   9.256   0.715   2.115 -1.7759 -0.2607  3.3454
  989MOL0     H33471   9.268   0.628   2.344  0.4234 -0.9370  1.4476
  989MOL0     H33472   9.398   0.750   2.308 -0.4731  0.2691 -2.1507
  989MOL0     H33473   9.416   0.459   2.351 -2.2576  0.5479  1.6668
  989MOL0     H33474   9.479   0.593   2.454 -2.3764 -0.2956 -0.1060
  989MOL0     H33475   9.655   0.431   2.510 -0.3675 -3.1795 -0.0605
  989MOL0     H33476   9.871   0.394   2.594  1.5529  0.7618 -0.4957
  989MOL0     H33477  10.288   0.214   2.468  0.8371  1.3125 -0.6902
  989MOL0     H33478  10.529   0.176   2.503  0.7094  0.2686 -0.8145
  989MOL0     H33479  10.754   0.475   2.656  1.8615 -0.8576 -2.1538
  989MOL0     H33480  10.723   0.431   2.823  0.6827 -0.8706  0.8290
  989MOL0     H33481  10.895   0.255   2.808  1.9579  0.4435  0.6665
  989MOL0     H33482  10.910   0.284   2.631 -2.0062 -2.0916 -0.6935
  989MOL0     H33483  11.015   0.499   2.678 -0.6518  2.0819  1.3915
  989MOL0     H33484  10.959   0.505   2.842 -0.0314 -1.3086  1.0608
  989MOL0     H33485  11.132   0.359   2.919 -0.5451 -0.7215 -0.0686
  989MOL0     H33486  11.216   0.451   2.787 -0.1770  1.2168  2.2790
  989MOL0     H33487  11.172   0.279   2.618 -1.9386 -0.9624 -0.7719
  989MOL0     H33488  11.110   0.167   2.738  1.0281 -1.0258 -0.7199
  989MOL0     H33489  11.388   0.260   2.716  1.4933  0.2019  1.7993
  989MOL0     H33490  11.320   0.170   2.852  0.8297  3.4845  0.1018
  989MOL0     H33491  11.302   0.074   2.552 -2.7637  2.8286  0.4197
  989MOL0     H33492  11.250  -0.018   2.678  2.4758 -1.2247  0.2201
  989MOL0     H33493  11.482  -0.076   2.591 -1.3076  0.5382 -1.7939
  989MOL0     H33494  11.543   0.074   2.654 -0.3131 -0.4009 -1.5798
  989MOL0     H33495  10.520   0.481   2.808  1.9173  2.2507 -2.6960
  989MOL0     H33496  10.289   0.525   2.767 -2.5681 -1.8841  0.5301
  989MOL0     H33497  10.031   0.536   2.207  1.5038  1.8122  0.9312
  989MOL0     H33498   9.797   0.591   2.141 -1.0807 -0.6203 -0.8779
  989MOL0     H33499   7.963   0.571   2.415 -0.3595 -0.4948  2.9267
  989MOL0     H33500   7.721   0.665   2.390  4.4669  1.4103 -0.6152
  989MOL0     H33501   7.368   0.705   2.364  1.8126  0.9988 -1.5995
  989MOL0     H33502   7.143   0.818   2.366  0.4720  2.6431 -0.0738
  989MOL0     H33503   6.904   0.831   2.013 -2.0710  0.4272  0.4322
  989MOL0     H33504   6.980   0.996   2.001 -1.2440  1.2596  0.2810
  989MOL0     H33505   6.836   1.065   2.179  0.4550 -2.5135  1.4037
  989MOL0     H33506   6.742   0.910   2.152 -2.0150  0.8434  0.4605
  989MOL0     H33507   6.667   0.976   1.963 -1.1092  0.2492  1.8969
  989MOL0     H33508   6.791   1.094   1.923  1.6035 -1.9253 -0.3248
  989MOL0     H33509   6.590   1.100   2.147 -1.1301 -0.6209 -0.6822
  989MOL0     H33510   6.685   1.238   2.111  0.3165 -2.5192  2.9830
  989MOL0     H33511   6.398   1.223   1.780 -0.4555  2.2373  0.7843
  989MOL0     H33512   7.152   0.873   1.946 -1.6251 -3.5058 -1.3112
  989MOL0     H33513   7.464   0.743   1.873 -1.3964  2.2084 -0.7147
  989MOL0     H33514   7.346   0.604   1.878  0.1535 -0.5014 -0.1693
  989MOL0     H33515   7.280   0.750   1.820 -3.7676 -0.4221  2.8621
  990MOL0     O33516   9.507   7.850   3.180  0.3737 -0.8153  0.4758
  990MOL0     C33517   9.433   7.819   3.271  0.6036 -0.5656 -0.8256
  990MOL0     O33518   9.382   7.697   3.295 -0.7112  0.5032 -0.0697
  990MOL0     C33519   9.417   7.602   3.199 -0.1940  0.6856  0.5343
  990MOL0     C33520   9.544   7.545   3.181 -0.6045  0.5995 -0.0610
  990MOL0     C33521   9.571   7.445   3.094 -0.0234 -0.0031  1.1986
  990MOL0     C33522   9.455   7.398   3.020 -0.7002 -0.6073  0.5174
  990MOL0     O33523   9.485   7.291   2.938  0.0277 -0.6737  0.8230
  990MOL0     C33524   9.422   7.283   2.809  0.4914  0.0662  1.0001
  990MOL0     C33525   9.477   7.169   2.719 -0.3761 -1.2523  0.0841
  990MOL0     C33526   9.630   7.179   2.694  0.0122  0.1603  0.6517
  990MOL0     C33527   9.716   7.147   2.816  0.0561 -0.1595  0.7610
  990MOL0     C33528   9.863   7.100   2.772  0.0429  0.4061 -0.7179
  990MOL0     C33529   9.946   7.107   2.898  0.0585 -0.2530 -0.9683
  990MOL0     C33530  10.086   7.052   2.878  0.5694 -0.4350  0.5438
  990MOL0     C33531  10.180   7.159   2.824  0.1008 -0.4364 -0.7562
  990MOL0     N33532  10.298   7.083   2.784 -0.0653 -0.0709 -0.4293
  990MOL0     C33533  10.373   7.008   2.868  0.1147  0.9291 -0.2895
  990MOL0     C33534  10.480   6.971   2.795 -0.7150 -0.5419 -0.0583
  990MOL0     C33535  10.611   6.897   2.829  0.1900 -0.1768  0.3429
  990MOL0     C33536  10.722   6.999   2.821 -0.3052 -0.1537  0.7026
  990MOL0     C33537  10.789   6.984   2.678  0.5108 -0.2646 -1.1346
  990MOL0     C33538  10.827   7.114   2.604 -0.2122 -0.1917  0.4811
  990MOL0     O33539  10.948   7.176   2.653  0.8647  0.7655 -0.6443
  990MOL0     C33540  11.070   7.123   2.614  0.7541 -0.4377  0.7403
  990MOL0     C33541  11.174   7.194   2.673 -0.0696 -0.4469  0.5767
  990MOL0     C33542  11.307   7.178   2.631 -0.9052  0.1511  0.1537
  990MOL0     C33543  11.340   7.078   2.535 -0.0749 -0.6088  0.2340
  990MOL0     C33544  11.480   7.056   2.495  0.2675  0.4150  1.0856
  990MOL0     O33545  11.513   6.955   2.413  0.7224  0.3341 -0.0455
  990MOL0     C33546  11.637   6.954   2.351 -0.3354 -0.2081 -0.5730
  990MOL0     C33547  11.755   6.918   2.425 -0.8460 -0.1348 -0.5663
  990MOL0     C33548  11.885   6.932   2.357 -0.0277  0.1956  0.5784
  990MOL0     C33549  11.888   6.966   2.220 -0.7629  0.2026  0.0320
  990MOL0     O33550  12.002   6.990   2.154  0.3586  0.1980  0.4028
  990MOL0     C33551  12.127   6.954   2.215 -0.4442  0.1734 -0.2959
  990MOL0     C33552  12.232   6.978   2.118 -0.1539 -0.7605 -0.7753
  990MOL0     C33553  12.361   6.903   2.171 -0.4416  0.0611 -0.1221
  990MOL0     C33554  12.483   6.967   2.104 -0.5241 -0.2031 -0.2937
  990MOL0     C33555  12.603   6.867   2.095  0.6274 -0.5147 -0.1712
  990MOL0     C33556  12.715   6.934   2.024  0.3017 -0.0131  0.0853
  990MOL0     C33557  12.849   6.865   2.030 -0.5959  0.3830 -0.4991
  990MOL0     C33558  12.848   6.748   1.930  0.5281  0.2194 -0.0944
  990MOL0    Cl33559  12.993   6.648   1.978 -0.3845 -0.5012 -0.1468
  990MOL0     C33560  11.771   6.991   2.151 -0.1502  0.4045  0.8654
  990MOL0     C33561  11.647   6.996   2.220 -0.8846 -0.3171 -0.5028
  990MOL0     O33562  11.552   7.157   2.509  0.3947 -0.2849 -0.1125
  990MOL0     C33563  11.242   7.000   2.486  0.0103 -0.5553 -0.2671
  990MOL0     C33564  11.103   7.025   2.522  0.2130  0.7799 -0.0533
  990MOL0     N33565  10.463   7.021   2.670 -0.8392 -0.0049  0.1415
  990MOL0     N33566  10.357   7.089   2.664  0.0511 -0.5653  0.7181
  990MOL0     C33567   9.317   7.444   3.043 -0.3380 -0.7462  0.9327
  990MOL0     C33568   9.310   7.553   3.129 -0.0101 -0.2158 -0.4175
  990MOL0     C33569   9.393   7.922   3.372  0.3138  0.1944 -0.2486
  990MOL0     C33570   9.389   7.877   3.501 -0.4565 -0.6206 -0.3973
  990MOL0     C33571   9.351   7.962   3.604  0.2478  0.1937  0.1122
  990MOL0     C33572   9.316   8.096   3.584 -0.4897  0.1723  1.1157
  990MOL0     O33573   9.255   8.167   3.683  0.1963  0.3785 -1.2016
  990MOL0     C33574   9.183   8.291   3.660 -0.8494  0.5090 -0.2645
  990MOL0     C33575   9.043   8.256   3.617  0.5828 -0.0117 -0.9703
  990MOL0     C33576   8.950   8.225   3.743 -0.5352 -0.0002 -0.0458
  990MOL0     C33577   8.811   8.170   3.702  0.1322  0.2683  0.3467
  990MOL0     C33578   8.736   8.124   3.818 -0.1918 -0.8628 -0.8777
  990MOL0     C33579   8.686   8.087   3.923  0.6571 -0.2685  0.6632
  990MOL0     C33580   9.349   8.141   3.458 -0.0807  0.4472 -0.4348
  990MOL0     C33581   9.386   8.060   3.352  0.5438 -0.5254  0.1445
  990MOL0     C33582   9.416   8.119   3.213 -0.4739 -0.1864  0.5432
  990MOL0     H33583   9.622   7.578   3.249 -1.4872  2.3866  0.1484
  990MOL0     H33584   9.667   7.398   3.076 -0.1551  0.8291 -2.4568
  990MOL0     H33585   9.317   7.260   2.829 -0.6073  3.2399 -0.4249
  990MOL0     H33586   9.434   7.377   2.753  2.6852 -0.1150  1.0566
  990MOL0     H33587   9.430   7.174   2.620 -0.2864 -2.8145 -0.0717
  990MOL0     H33588   9.458   7.070   2.763  2.4134 -1.5488  0.7917
  990MOL0     H33589   9.660   7.279   2.660  1.3591  0.0289  1.3591
  990MOL0     H33590   9.655   7.111   2.612 -0.2864  1.2851 -0.4028
  990MOL0     H33591   9.721   7.227   2.890  1.3934  1.4929 -1.0012
  990MOL0     H33592   9.669   7.064   2.870  1.8008  0.4294  3.3621
  990MOL0     H33593   9.867   6.999   2.730  1.3465  0.3268 -0.4410
  990MOL0     H33594   9.897   7.177   2.702 -0.6689  0.3507 -1.1384
  990MOL0     H33595   9.954   7.208   2.940 -3.0518 -0.3585  0.0847
  990MOL0     H33596   9.888   7.049   2.969  0.3172  0.1274 -0.4438
  990MOL0     H33597  10.090   6.971   2.805  5.0861 -0.9217  1.0192
  990MOL0     H33598  10.119   7.003   2.970  2.8307  2.6483  1.5509
  990MOL0     H33599  10.137   7.205   2.734  2.0649 -2.2324 -2.7191
  990MOL0     H33600  10.208   7.235   2.898  1.3362 -3.0481  1.6264
  990MOL0     H33601  10.349   6.974   2.968  2.5088  0.4099  0.1810
  990MOL0     H33602  10.610   6.848   2.927 -3.9261 -0.5783  0.2728
  990MOL0     H33603  10.624   6.812   2.761 -0.5053  2.4572 -3.3670
  990MOL0     H33604  10.680   7.099   2.836 -1.2404 -0.3349 -0.5536
  990MOL0     H33605  10.793   6.990   2.904  3.7171  1.1230 -2.2858
  990MOL0     H33606  10.721   6.932   2.611 -0.1165 -0.1226 -0.6226
  990MOL0     H33607  10.871   6.911   2.682 -1.3925 -2.5077  2.0766
  990MOL0     H33608  10.744   7.185   2.607  0.5776  0.8852 -1.1112
  990MOL0     H33609  10.840   7.105   2.495  2.2713  5.8522 -0.1299
  990MOL0     H33610  11.153   7.269   2.749 -1.2002 -0.3310  0.1604
  990MOL0     H33611  11.382   7.246   2.670 -0.4831  0.3505 -0.9818
  990MOL0     H33612  11.751   6.888   2.530 -1.7201 -3.2298 -1.3594
  990MOL0     H33613  11.979   6.910   2.406 -0.5488  0.8446  1.9186
  990MOL0     H33614  12.151   7.008   2.308 -2.2366 -1.6363  1.3270
  990MOL0     H33615  12.134   6.850   2.247  3.4006  0.7756  1.3307
  990MOL0     H33616  12.212   6.944   2.016  1.6662 -0.1410 -1.3841
  990MOL0     H33617  12.247   7.086   2.114 -0.8818 -0.6092  0.1668
  990MOL0     H33618  12.359   6.916   2.279  1.3715 -0.1374 -0.0352
  990MOL0     H33619  12.355   6.795   2.152 -2.8148 -0.4307  2.7322
  990MOL0     H33620  12.516   7.050   2.166  2.5007 -1.5917  0.1294
  990MOL0     H33621  12.441   6.998   2.008 -2.5989  2.3547  1.3148
  990MOL0     H33622  12.580   6.784   2.029 -1.1231  1.3656 -2.0851
  990MOL0     H33623  12.640   6.843   2.196  1.3838  0.3246 -0.2337
  990MOL0     H33624  12.694   6.949   1.918 -1.3680 -1.1814  0.2091
  990MOL0     H33625  12.727   7.036   2.060 -1.0489  0.1966 -0.0406
  990MOL0     H33626  12.875   6.820   2.127  1.8944 -0.4499 -1.4666
  990MOL0     H33627  12.916   6.949   2.009 -0.7820  1.1618  1.7347
  990MOL0     H33628  12.752   6.695   1.938 -0.5456  1.6082 -2.4735
  990MOL0     H33629  12.866   6.794   1.832  2.8497  2.3335  1.2168
  990MOL0     H33630  11.779   7.040   2.055  1.2815  2.4708  1.9671
  990MOL0     H33631  11.561   7.024   2.161  0.4200 -0.3674 -2.5561
  990MOL0     H33632  11.255   6.918   2.416  0.4600 -1.5299  0.9244
  990MOL0     H33633  11.028   6.957   2.483  0.0425  1.7314 -1.4391
  990MOL0     H33634   9.226   7.401   3.003 -2.3128 -0.3390  4.5275
  990MOL0     H33635   9.207   7.581   3.150  0.4963  0.6079  1.1352
  990MOL0     H33636   9.409   7.775   3.532  2.2694 -0.5462 -1.6092
  990MOL0     H33637   9.342   7.928   3.706  2.2878  0.2138  0.3440
  990MOL0     H33638   9.226   8.354   3.582 -2.3213 -0.7973 -2.2177
  990MOL0     H33639   9.171   8.345   3.754 -0.6561  0.0122  0.0516
  990MOL0     H33640   9.045   8.168   3.551 -1.2890 -2.0779  1.4888
  990MOL0     H33641   9.007   8.336   3.552 -0.0221 -0.3091 -1.0083
  990MOL0     H33642   8.940   8.320   3.796  0.0575  0.1733 -0.2399
  990MOL0     H33643   8.996   8.155   3.813  2.2493 -0.1391 -1.8770
  990MOL0     H33644   8.758   8.248   3.647 -0.7281 -1.3703 -1.2674
  990MOL0     H33645   8.805   8.090   3.628 -3.6649 -0.2845  1.0252
  990MOL0     H33646   8.647   8.057   4.018 -1.6338 -4.1174 -1.2442
  990MOL0     H33647   9.361   8.247   3.442  0.3887  0.6438  1.0575
  990MOL0     H33648   9.521   8.102   3.186 -0.5450 -0.5215  0.4731
  990MOL0     H33649   9.356   8.068   3.138  0.8831 -0.1034 -0.6343
  990MOL0     H33650   9.381   8.223   3.213 -2.7429 -0.8885  0.0974
  991MOL0     O33651   5.545   5.417   6.850  0.3728 -1.3584  0.1889
  991MOL0     C33652   5.531   5.516   6.774 -1.6099  0.3900 -0.9536
  991MOL0     O33653   5.634   5.585   6.729  0.1308  0.0863 -0.1468
  991MOL0     C33654   5.764   5.543   6.773  0.3668 -0.2820  1.0787
  991MOL0     C33655   5.842   5.483   6.670  0.4182 -0.3603 -0.4432
  991MOL0     C33656   5.967   5.434   6.700 -0.4536 -0.0662 -0.2997
  991MOL0     C33657   6.019   5.457   6.827 -0.2395  1.0630 -0.8727
  991MOL0     O33658   6.140   5.403   6.863 -0.0317  0.8379  0.3101
  991MOL0     C33659   6.247   5.424   6.774 -1.3695  0.2028  0.9836
  991MOL0     C33660   6.370   5.395   6.867 -0.5491  0.7807 -0.7701
  991MOL0     C33661   6.383   5.248   6.896 -1.1850  0.4508 -0.8686
  991MOL0     C33662   6.458   5.173   6.791  0.5298  0.5539  0.2757
  991MOL0     C33663   6.451   5.010   6.802 -0.2130 -1.3274 -0.8097
  991MOL0     C33664   6.515   4.968   6.930  0.7525 -0.0304  0.2064
  991MOL0     C33665   6.528   4.818   6.942 -0.1301  0.2385 -0.6538
  991MOL0     C33666   6.673   4.785   6.987 -0.2916 -0.8505 -0.2899
  991MOL0     N33667   6.690   4.643   6.988  0.6072  0.1117  0.4015
  991MOL0     C33668   6.782   4.574   6.905  0.5532  0.2898 -0.1461
  991MOL0     C33669   6.765   4.444   6.937 -0.5038 -0.8797 -0.2630
  991MOL0     C33670   6.842   4.338   6.862  0.1682  0.4386  0.5898
  991MOL0     C33671   6.955   4.271   6.944  1.0419 -0.6548 -0.4321
  991MOL0     C33672   7.004   4.144   6.878  0.0847 -0.2379 -0.9095
  991MOL0     C33673   7.102   4.184   6.768 -0.1660 -0.4519  1.0874
  991MOL0     O33674   7.231   4.217   6.818  0.7790 -0.0221  0.9651
  991MOL0     C33675   7.327   4.247   6.725  0.1282 -0.6063  0.1637
  991MOL0     C33676   7.444   4.308   6.763  1.0884  0.0859 -0.9218
  991MOL0     C33677   7.546   4.349   6.677  0.0322 -0.3331 -0.0976
  991MOL0     C33678   7.525   4.333   6.537 -1.2274  0.0082 -1.0649
  991MOL0     C33679   7.630   4.376   6.437  0.1060 -0.2515 -0.1233
  991MOL0     O33680   7.576   4.423   6.324  0.3146 -0.3299  0.5075
  991MOL0     C33681   7.660   4.463   6.223  0.3005  0.2019  0.5251
  991MOL0     C33682   7.711   4.591   6.224 -0.9440 -0.5421 -0.4690
  991MOL0     C33683   7.784   4.640   6.123 -0.2604  0.0995  1.1655
  991MOL0     C33684   7.813   4.564   6.011  0.5516 -0.2941 -0.2646
  991MOL0     O33685   7.884   4.596   5.893  0.1610  0.5195  0.3558
  991MOL0     C33686   7.937   4.734   5.900 -0.7318 -0.0928 -0.6203
  991MOL0     C33687   8.036   4.755   5.784  0.0753  0.4283  0.0955
  991MOL0     C33688   8.107   4.884   5.782  0.7605  0.6586 -0.7615
  991MOL0     C33689   8.182   4.911   5.659  0.4647 -0.3098 -0.5788
  991MOL0     C33690   8.270   5.041   5.677 -0.2879  0.3131  1.1354
  991MOL0     C33691   8.339   5.081   5.550  0.5298 -1.0193  0.0017
  991MOL0     C33692   8.367   5.235   5.523  0.5315  0.1016 -0.6859
  991MOL0     C33693   8.246   5.295   5.452 -0.1092  0.1420 -0.0487
  991MOL0    Cl33694   8.215   5.213   5.286  0.4128  0.6577 -0.0316
  991MOL0     C33695   7.769   4.431   6.010  0.8133 -0.1999  0.6981
  991MOL0     C33696   7.691   4.378   6.116 -0.5655 -0.2077  0.0855
  991MOL0     O33697   7.750   4.388   6.472 -0.3457  0.1460  0.4613
  991MOL0     C33698   7.406   4.265   6.496 -0.4138  1.5376 -0.3171
  991MOL0     C33699   7.308   4.229   6.584 -0.3019  0.0776 -0.0903
  991MOL0     N33700   6.654   4.434   7.027  0.6863 -0.0615  0.6459
  991MOL0     N33701   6.617   4.557   7.064  0.3447  0.4581 -0.4053
  991MOL0     C33702   5.941   5.511   6.931 -0.2587 -0.2633  0.7391
  991MOL0     C33703   5.818   5.561   6.901  0.2665 -0.0292  0.1930
  991MOL0     C33704   5.395   5.570   6.759 -0.1681 -0.1700 -0.1015
  991MOL0     C33705   5.360   5.645   6.644  0.6193  0.4190  0.2957
  991MOL0     C33706   5.229   5.683   6.621 -0.4982 -0.0374  0.0184
  991MOL0     C33707   5.130   5.646   6.711  0.6130 -0.1462 -0.5767
  991MOL0     O33708   4.998   5.658   6.667 -0.1978 -0.2888  0.4184
  991MOL0     C33709   4.892   5.694   6.756  0.6306  0.1977  0.1271
  991MOL0     C33710   4.912   5.823   6.831  0.6431 -1.6951 -0.1292
  991MOL0     C33711   4.945   5.942   6.728  0.0309 -0.4118 -0.3364
  991MOL0     C33712   4.943   6.091   6.773  0.1993  1.2611  0.9067
  991MOL0     C33713   4.893   6.117   6.911  0.1279 -0.4195  0.6440
  991MOL0     C33714   4.850   6.142   7.026  0.2084 -0.5592  0.9786
  991MOL0     C33715   5.165   5.589   6.837  0.1064 -0.0716  0.0399
  991MOL0     C33716   5.296   5.553   6.859  0.5839  0.1766  0.0356
  991MOL0     C33717   5.320   5.495   7.001  0.4982 -0.1674 -1.0246
  991MOL0     H33718   5.806   5.476   6.568  0.6032 -1.5330 -0.4367
  991MOL0     H33719   6.015   5.381   6.618 -0.2601 -1.5905  0.7824
  991MOL0     H33720   6.247   5.346   6.697 -2.9404  1.9952 -0.9499
  991MOL0     H33721   6.257   5.525   6.735  0.9212 -1.6424 -4.1069
  991MOL0     H33722   6.363   5.445   6.964  1.0528  0.1840 -0.3146
  991MOL0     H33723   6.463   5.428   6.819  0.3511  1.2664  1.2032
  991MOL0     H33724   6.284   5.203   6.909  0.1861 -2.1311  2.0318
  991MOL0     H33725   6.439   5.248   6.990 -0.2869  1.7795 -1.3687
  991MOL0     H33726   6.426   5.199   6.690  1.2042 -0.9696 -0.3679
  991MOL0     H33727   6.563   5.205   6.788 -0.3432  3.7181 -2.0698
  991MOL0     H33728   6.348   4.976   6.795 -1.0751  1.3718 -2.5854
  991MOL0     H33729   6.515   4.974   6.721  1.0005 -0.6742 -0.1879
  991MOL0     H33730   6.608   5.023   6.951  1.4560 -2.0820  2.9464
  991MOL0     H33731   6.442   5.002   7.004  0.6663 -1.2645  0.7120
  991MOL0     H33732   6.516   4.781   6.840  2.6648  3.1480 -2.2318
  991MOL0     H33733   6.451   4.797   7.016  0.6992 -0.1901  0.1095
  991MOL0     H33734   6.751   4.818   6.917  1.4713 -1.3123  1.3468
  991MOL0     H33735   6.700   4.833   7.081  0.6033  0.2882 -1.0933
  991MOL0     H33736   6.860   4.626   6.851  1.1213  1.5661  1.7783
  991MOL0     H33737   6.766   4.263   6.836 -0.6528  1.4292  0.0359
  991MOL0     H33738   6.899   4.379   6.778 -0.1288 -2.3742 -1.1384
  991MOL0     H33739   7.048   4.326   6.963  1.3028 -1.8166  2.0904
  991MOL0     H33740   6.908   4.264   7.043  0.8270 -0.1212 -0.4901
  991MOL0     H33741   6.933   4.073   6.834  0.2684 -0.7530 -0.3746
  991MOL0     H33742   7.062   4.094   6.956 -0.7714 -1.3311 -0.9593
  991MOL0     H33743   7.067   4.270   6.710  1.9609 -0.8174 -0.8885
  991MOL0     H33744   7.108   4.101   6.698  2.0522  0.5325 -0.0154
  991MOL0     H33745   7.463   4.332   6.868  3.4372  0.0934 -1.2938
  991MOL0     H33746   7.636   4.403   6.704 -0.2467 -0.9819  2.3966
  991MOL0     H33747   7.698   4.652   6.312  0.3383  0.5900 -1.0421
  991MOL0     H33748   7.821   4.742   6.130 -0.6471  0.1186  3.9595
  991MOL0     H33749   7.858   4.810   5.905 -0.3925  0.2053  2.8678
  991MOL0     H33750   8.001   4.735   5.989  0.0819 -0.5907 -1.1923
  991MOL0     H33751   8.112   4.676   5.784 -1.0213 -0.7577  3.0627
  991MOL0     H33752   7.975   4.737   5.694 -2.4333  1.9280  1.3921
  991MOL0     H33753   8.032   4.961   5.801  0.7553  1.3457 -3.1711
  991MOL0     H33754   8.170   4.881   5.871  2.0261 -1.0528 -1.6520
  991MOL0     H33755   8.110   4.938   5.581 -0.4336  0.9184  0.6312
  991MOL0     H33756   8.247   4.831   5.622  2.4783  1.2582 -0.5726
  991MOL0     H33757   8.337   5.033   5.762  1.1474 -4.2504 -0.1473
  991MOL0     H33758   8.204   5.125   5.702 -0.6442  0.3142  0.2372
  991MOL0     H33759   8.436   5.031   5.544  0.5791 -0.8967 -0.2185
  991MOL0     H33760   8.274   5.046   5.470  0.3343  0.7766 -0.6644
  991MOL0     H33761   8.447   5.243   5.450 -0.6484 -0.7852 -2.1355
  991MOL0     H33762   8.393   5.289   5.615  0.3006 -2.9116  1.3113
  991MOL0     H33763   8.151   5.295   5.506 -0.3435  1.2282 -0.4340
  991MOL0     H33764   8.256   5.401   5.427 -1.4742  0.4880  0.7902
  991MOL0     H33765   7.787   4.368   5.924  1.3836  0.2238  0.4980
  991MOL0     H33766   7.644   4.281   6.108 -2.0237  0.4945 -0.3348
  991MOL0     H33767   7.392   4.248   6.389  1.9807  2.8938 -0.9154
  991MOL0     H33768   7.221   4.180   6.540 -1.0873  1.0842  0.3120
  991MOL0     H33769   5.979   5.504   7.032 -0.3944  0.4670  0.8455
  991MOL0     H33770   5.761   5.595   6.987 -2.5311 -2.7631 -0.4154
  991MOL0     H33771   5.433   5.678   6.571  2.9418  1.5247  2.9749
  991MOL0     H33772   5.209   5.741   6.532  0.1102 -0.5660 -0.4721
  991MOL0     H33773   4.886   5.622   6.838  1.6914  0.9917  0.9320
  991MOL0     H33774   4.796   5.702   6.706 -0.1825  3.0826  1.9071
  991MOL0     H33775   5.002   5.801   6.889  0.9261  0.7995  0.4550
  991MOL0     H33776   4.824   5.844   6.892  1.1867  2.1864 -0.4360
  991MOL0     H33777   4.874   5.934   6.645 -0.4097  2.8266 -0.4205
  991MOL0     H33778   5.043   5.926   6.682  0.3649  0.8815 -0.1085
  991MOL0     H33779   5.046   6.126   6.779 -0.2052  2.2175  2.6969
  991MOL0     H33780   4.894   6.152   6.697  0.0990  0.7899  0.5853
  991MOL0     H33781   4.808   6.162   7.122 -0.5026  1.4723  0.2889
  991MOL0     H33782   5.087   5.563   6.908 -0.2447 -3.3298 -1.3563
  991MOL0     H33783   5.339   5.388   6.997  1.9179 -0.0320  0.7239
  991MOL0     H33784   5.415   5.533   7.039 -0.4012  0.4162  0.7551
  991MOL0     H33785   5.247   5.503   7.083  3.8022  4.3243  2.0068
  992MOL0     O33786   1.118   3.693   3.326 -1.0343 -0.6448 -0.1927
  992MOL0     C33787   1.212   3.719   3.401  0.8512 -0.7495 -0.1039
  992MOL0     O33788   1.194   3.734   3.535  0.7920  0.5018  0.7799
  992MOL0     C33789   1.074   3.728   3.593  0.4443  0.2992  0.2891
  992MOL0     C33790   1.020   3.605   3.628  0.0270 -0.4722  0.2853
  992MOL0     C33791   0.899   3.608   3.707 -0.4983  0.8380  0.1790
  992MOL0     C33792   0.837   3.723   3.750  0.2631  0.2490  0.0998
  992MOL0     O33793   0.725   3.715   3.835 -0.4029  0.0159 -0.0109
  992MOL0     C33794   0.654   3.840   3.867 -0.2308 -0.3721 -0.0478
  992MOL0     C33795   0.539   3.790   3.955  0.5640  0.0491 -0.0711
  992MOL0     C33796   0.591   3.759   4.106 -0.1323 -1.3583 -0.1509
  992MOL0     C33797   0.533   3.633   4.168  0.9399 -0.3717 -0.0028
  992MOL0     C33798   0.381   3.641   4.203  1.2380 -0.0521 -0.4381
  992MOL0     C33799   0.358   3.513   4.278 -0.0311  0.9603 -1.0961
  992MOL0     C33800   0.353   3.385   4.201  0.4562 -0.5396  1.1195
  992MOL0     C33801   0.229   3.389   4.101  0.6284 -0.2636  0.4545
  992MOL0     N33802   0.186   3.257   4.059  0.1776  0.7197 -0.8528
  992MOL0     C33803   0.064   3.198   4.078 -0.2213 -0.0254  0.0615
  992MOL0     C33804   0.071   3.071   4.044  0.8972  0.7128 -0.0304
  992MOL0     C33805  -0.030   2.961   4.054  0.1914  0.6066 -0.8961
  992MOL0     C33806   0.008   2.856   4.165  0.2221 -0.7441 -0.2556
  992MOL0     C33807  -0.120   2.775   4.179 -0.1821 -0.0849  0.7492
  992MOL0     C33808  -0.120   2.654   4.284 -0.6615 -0.5602 -0.5094
  992MOL0     O33809  -0.145   2.733   4.405 -1.1781 -0.2375  0.0133
  992MOL0     C33810  -0.043   2.783   4.482  0.2138 -0.2453  0.1732
  992MOL0     C33811   0.087   2.770   4.452 -0.6973  0.1836 -1.7533
  992MOL0     C33812   0.194   2.830   4.519  0.2244  0.8099  0.2523
  992MOL0     C33813   0.166   2.907   4.633  0.7323  0.3979 -0.1060
  992MOL0     C33814   0.270   2.965   4.709 -1.0193 -0.1102 -0.0691
  992MOL0     O33815   0.239   3.052   4.809  0.3628  0.3898  0.4682
  992MOL0     C33816   0.339   3.098   4.880 -0.3029  0.1228 -0.4555
  992MOL0     C33817   0.408   3.021   4.974 -0.5703 -0.1597 -0.1670
  992MOL0     C33818   0.491   3.084   5.063 -0.2024  0.6855 -0.3503
  992MOL0     C33819   0.506   3.230   5.072  0.6510  1.0740  0.6046
  992MOL0     O33820   0.592   3.309   5.143  0.0630 -0.3967  0.1196
  992MOL0     C33821   0.682   3.230   5.223  0.0620 -0.6059  0.3320
  992MOL0     C33822   0.743   3.327   5.328 -0.7396 -0.5113 -0.9972
  992MOL0     C33823   0.829   3.241   5.422 -0.1607  0.6606 -0.5528
  992MOL0     C33824   0.894   3.321   5.534 -0.6468  0.6579  0.3827
  992MOL0     C33825   0.957   3.232   5.650 -0.1878  0.2163 -0.0154
  992MOL0     C33826   1.089   3.180   5.609 -0.9731  0.5540 -1.0814
  992MOL0     C33827   1.192   3.158   5.720  0.7207 -0.3608  0.7833
  992MOL0     C33828   1.333   3.122   5.677 -0.0767 -0.4689 -0.9429
  992MOL0    Cl33829   1.430   3.108   5.832  0.0505  0.0654  0.6883
  992MOL0     C33830   0.443   3.302   4.972  0.5483 -0.3017  0.5339
  992MOL0     C33831   0.355   3.238   4.878  0.6523  0.2049 -0.4461
  992MOL0     O33832   0.387   2.929   4.678 -0.2300  0.7435 -0.3046
  992MOL0     C33833   0.035   2.918   4.669  0.6371 -0.1075 -0.0849
  992MOL0     C33834  -0.076   2.853   4.601  0.1918  0.1538  1.3015
  992MOL0     N33835   0.199   3.049   4.001 -0.0128  0.2459  0.3863
  992MOL0     N33836   0.271   3.164   4.007  0.5674 -0.0762 -0.1727
  992MOL0     C33837   0.904   3.845   3.715 -0.6901  0.4518 -0.5338
  992MOL0     C33838   1.018   3.847   3.629 -0.3263 -0.3998 -0.3250
  992MOL0     C33839   1.345   3.745   3.343  0.5252  0.4390 -0.1809
  992MOL0     C33840   1.455   3.774   3.426  0.0507 -0.3935 -0.8282
  992MOL0     C33841   1.582   3.808   3.385 -0.0892 -0.0639  0.1518
  992MOL0     C33842   1.610   3.817   3.250  0.1853  0.3253 -0.0009
  992MOL0     O33843   1.726   3.857   3.187  0.9089 -0.7503 -0.5538
  992MOL0     C33844   1.834   3.921   3.265 -0.1528 -0.0091  0.3212
  992MOL0     C33845   1.941   3.987   3.180 -0.1578 -0.8743  0.1321
  992MOL0     C33846   1.883   4.099   3.092  0.1499 -0.0146  0.0273
  992MOL0     C33847   1.993   4.156   2.994  0.2731 -0.0421  0.2575
  992MOL0     C33848   2.091   4.234   3.062 -0.9108  1.0444 -0.0056
  992MOL0     C33849   2.187   4.290   3.108  0.6845  0.4300 -0.7805
  992MOL0     C33850   1.502   3.794   3.162 -0.6304 -0.1243 -0.4918
  992MOL0     C33851   1.370   3.768   3.201 -0.4334 -0.0917 -0.5070
  992MOL0     C33852   1.255   3.768   3.097 -1.7466  0.3099 -0.8898
  992MOL0     H33853   1.060   3.510   3.594  0.4273  0.7516 -3.0292
  992MOL0     H33854   0.861   3.512   3.739 -3.0412  1.9486  0.7749
  992MOL0     H33855   0.717   3.918   3.910  0.6463 -1.3381  0.4732
  992MOL0     H33856   0.610   3.885   3.777  0.4805 -1.2695 -0.8734
  992MOL0     H33857   0.478   3.707   3.920 -1.1246  1.1777  0.1055
  992MOL0     H33858   0.463   3.869   3.956 -0.0125 -0.4950  1.2501
  992MOL0     H33859   0.560   3.841   4.171 -1.8481  0.0762 -2.5705
  992MOL0     H33860   0.698   3.752   4.122  0.1475  3.1465  1.3426
  992MOL0     H33861   0.547   3.542   4.108 -0.4736 -1.2176  0.8866
  992MOL0     H33862   0.586   3.617   4.262 -1.1275 -1.5463  1.0358
  992MOL0     H33863   0.356   3.725   4.269 -2.5570  1.3273 -3.2851
  992MOL0     H33864   0.319   3.655   4.114 -2.3760 -1.9657  1.5405
  992MOL0     H33865   0.436   3.497   4.354  0.0995 -0.7800 -1.5524
  992MOL0     H33866   0.258   3.534   4.317 -0.0572  1.2545 -1.3234
  992MOL0     H33867   0.329   3.297   4.262 -0.5736  0.5081  2.2619
  992MOL0     H33868   0.451   3.375   4.153  0.8554  4.0494  0.5938
  992MOL0     H33869   0.149   3.454   4.139  1.0186 -0.0182  0.8693
  992MOL0     H33870   0.258   3.444   4.011  0.7523  0.3049  0.8359
  992MOL0     H33871  -0.029   3.249   4.100 -2.4014 -4.2020  1.4497
  992MOL0     H33872  -0.121   3.008   4.093  0.9911 -1.7254  4.7562
  992MOL0     H33873  -0.047   2.913   3.958  1.9520  2.4448 -2.2162
  992MOL0     H33874   0.094   2.798   4.131  2.8820  1.2083  2.4997
  992MOL0     H33875   0.035   2.915   4.253 -3.9179  0.2622  0.5639
  992MOL0     H33876  -0.135   2.737   4.078  1.1267 -0.2304  0.5927
  992MOL0     H33877  -0.201   2.842   4.212 -0.8370  0.0943 -1.1336
  992MOL0     H33878  -0.028   2.595   4.278  1.7732  2.8163  0.2396
  992MOL0     H33879  -0.209   2.592   4.268 -0.3842 -1.5612  1.4986
  992MOL0     H33880   0.129   2.702   4.379  3.7997  2.4090 -1.5850
  992MOL0     H33881   0.297   2.818   4.488  0.6283  0.7507  1.5755
  992MOL0     H33882   0.380   2.917   4.986  1.1807 -0.6559 -0.2039
  992MOL0     H33883   0.551   3.026   5.133  2.8601  3.7367 -0.2090
  992MOL0     H33884   0.638   3.145   5.275 -0.2036  0.8316  2.5760
  992MOL0     H33885   0.756   3.181   5.158  0.9754 -0.7359  1.4367
  992MOL0     H33886   0.810   3.407   5.293  0.4265 -0.4638  1.1540
  992MOL0     H33887   0.670   3.379   5.390 -0.0436  0.1912 -0.7472
  992MOL0     H33888   0.754   3.172   5.463  0.3973  0.7879  0.7108
  992MOL0     H33889   0.900   3.178   5.368  0.7359  1.3559 -0.2087
  992MOL0     H33890   0.830   3.398   5.578  2.0715  2.3042  1.6939
  992MOL0     H33891   0.977   3.378   5.491  2.5972 -1.6683  3.0397
  992MOL0     H33892   0.886   3.157   5.687 -0.8749 -0.0718 -1.8521
  992MOL0     H33893   0.977   3.297   5.736  1.9180 -0.0638 -0.2553
  992MOL0     H33894   1.066   3.092   5.547 -2.5331  0.2181 -0.0783
  992MOL0     H33895   1.142   3.256   5.551 -0.8746  1.7505  0.5302
  992MOL0     H33896   1.151   3.083   5.788  1.2232 -1.8124 -0.4374
  992MOL0     H33897   1.200   3.252   5.775  1.5372 -2.1585  3.9942
  992MOL0     H33898   1.334   3.026   5.623  0.5813 -0.8667 -0.2442
  992MOL0     H33899   1.378   3.197   5.612  2.0874 -1.9399 -1.2376
  992MOL0     H33900   0.470   3.408   4.967  0.4708 -0.3391 -1.1376
  992MOL0     H33901   0.299   3.292   4.803 -1.9136 -2.9767 -1.0351
  992MOL0     H33902   0.010   2.972   4.760  0.4708  0.1790 -0.2988
  992MOL0     H33903  -0.180   2.865   4.627 -0.5745  2.1652 -1.9714
  992MOL0     H33904   0.867   3.940   3.753  0.8083  1.1299 -0.7140
  992MOL0     H33905   1.058   3.945   3.605 -1.8138  0.8627  1.9543
  992MOL0     H33906   1.441   3.778   3.534 -0.2625  1.3138 -0.9045
  992MOL0     H33907   1.664   3.827   3.454  0.8572 -0.5765 -0.8026
  992MOL0     H33908   1.881   3.853   3.337  0.6611  3.6446  3.6370
  992MOL0     H33909   1.805   4.008   3.325  0.3279  0.9668 -0.8112
  992MOL0     H33910   1.994   3.920   3.112  3.0915  1.7381 -0.1975
  992MOL0     H33911   2.023   4.036   3.234 -1.1130  0.7768  0.1748
  992MOL0     H33912   1.838   4.180   3.150  0.2072  1.0628 -1.3966
  992MOL0     H33913   1.814   4.048   3.024 -0.1665  2.1415 -1.3559
  992MOL0     H33914   2.016   4.062   2.943 -3.1558  0.2806 -2.1917
  992MOL0     H33915   1.939   4.218   2.922  0.0878  0.6092  0.9442
  992MOL0     H33916   2.265   4.350   3.151  0.9033  0.8633 -1.7597
  992MOL0     H33917   1.531   3.819   3.060 -0.2174  1.3211 -0.0414
  992MOL0     H33918   1.232   3.663   3.079  2.2593 -1.0259  0.7239
  992MOL0     H33919   1.170   3.825   3.137 -1.2045  0.2792  0.3598
  992MOL0     H33920   1.293   3.814   3.006  1.3706 -1.4635 -0.6134
  993MOL0     O33921   0.614   1.525   1.240  0.5534 -0.6417 -0.3515
  993MOL0     C33922   0.528   1.478   1.162  0.3717  0.3713 -0.4029
  993MOL0     O33923   0.545   1.435   1.038 -0.6287  0.2856 -0.3279
  993MOL0     C33924   0.677   1.433   0.995  0.3614  0.3468  0.2336
  993MOL0     C33925   0.762   1.320   1.010  0.6549  0.7194 -0.2947
  993MOL0     C33926   0.892   1.314   0.971 -0.1438 -1.4364  0.1620
  993MOL0     C33927   0.949   1.439   0.932  0.7123  0.7888  0.0026
  993MOL0     O33928   1.081   1.458   0.914 -0.1266  0.0893  0.0020
  993MOL0     C33929   1.174   1.355   0.914  0.5110 -0.2691 -0.1885
  993MOL0     C33930   1.312   1.417   0.895  0.2827 -0.2419 -0.2348
  993MOL0     C33931   1.423   1.313   0.885  0.2720  0.3633  0.4299
  993MOL0     C33932   1.468   1.302   0.737 -1.0245 -0.0674 -0.0260
  993MOL0     C33933   1.592   1.219   0.719  0.4196  0.6564 -0.0957
  993MOL0     C33934   1.645   1.209   0.571 -0.8762  0.0822  0.6328
  993MOL0     C33935   1.775   1.112   0.563  0.6963 -0.2344  0.6254
  993MOL0     C33936   1.754   0.984   0.650 -0.0133  0.4268 -0.0963
  993MOL0     N33937   1.870   0.894   0.647 -0.4441  0.5747 -0.6160
  993MOL0     C33938   1.909   0.828   0.532 -0.4363 -0.6553  0.0424
  993MOL0     C33939   2.004   0.753   0.578  0.6393  0.8012  0.9241
  993MOL0     C33940   2.100   0.672   0.495 -0.2636 -0.1555  0.9544
  993MOL0     C33941   2.209   0.762   0.440 -0.6434  0.5092  0.3705
  993MOL0     C33942   2.330   0.698   0.373  0.1749 -0.5424  0.8607
  993MOL0     C33943   2.429   0.630   0.461  0.8298  0.1756 -1.3399
  993MOL0     O33944   2.541   0.581   0.375  0.3363  0.5574  0.0410
  993MOL0     C33945   2.659   0.552   0.437  0.0585  0.8103  0.8541
  993MOL0     C33946   2.687   0.557   0.572 -0.6669 -0.3059  0.2332
  993MOL0     C33947   2.818   0.563   0.625  0.2395  0.7425 -1.0132
  993MOL0     C33948   2.918   0.556   0.527 -0.8213  0.3249  0.0990
  993MOL0     C33949   3.058   0.590   0.575 -1.0317 -0.0600  0.4177
  993MOL0     O33950   3.060   0.656   0.697 -0.8368  0.4955  0.3441
  993MOL0     C33951   3.191   0.698   0.751  0.0173 -0.2119  0.0632
  993MOL0     C33952   3.183   0.739   0.887 -0.1178  0.0405 -0.7606
  993MOL0     C33953   3.301   0.784   0.957  0.9792 -0.1495 -1.0564
  993MOL0     C33954   3.421   0.804   0.889 -0.5450 -0.6438 -0.3161
  993MOL0     O33955   3.528   0.868   0.940  0.6200 -0.0051  0.0518
  993MOL0     C33956   3.580   0.985   0.868  0.0520 -0.5353 -0.0154
  993MOL0     C33957   3.690   1.038   0.953  0.9670 -0.3360 -0.5179
  993MOL0     C33958   3.821   0.964   0.934  0.6748  0.4424 -0.0824
  993MOL0     C33959   3.939   1.004   1.034 -0.1884  0.1456 -0.3779
  993MOL0     C33960   4.067   0.933   0.993  0.0697  0.0126 -0.2438
  993MOL0     C33961   4.188   1.001   1.058  0.0112 -0.0659  0.1111
  993MOL0     C33962   4.307   0.913   1.046 -0.6631 -0.2293  0.0135
  993MOL0     C33963   4.417   0.965   1.135  0.3061  0.0131 -0.0835
  993MOL0    Cl33964   4.546   0.838   1.134  0.5151  0.1093 -0.0887
  993MOL0     C33965   3.427   0.764   0.752  0.4339  0.4935 -0.5048
  993MOL0     C33966   3.313   0.712   0.685 -0.9572 -0.9315  0.6670
  993MOL0     O33967   3.152   0.571   0.498 -0.0456 -0.1797 -0.5835
  993MOL0     C33968   2.894   0.525   0.396  0.0276 -0.6084  0.1119
  993MOL0     C33969   2.760   0.521   0.351  0.3622 -0.1332 -0.2282
  993MOL0     N33970   2.021   0.765   0.713  0.2911 -0.2379  0.5765
  993MOL0     N33971   1.941   0.854   0.759 -0.1467  0.5294  0.4739
  993MOL0     C33972   0.875   1.554   0.938  0.5647  0.2254 -0.6142
  993MOL0     C33973   0.737   1.555   0.958  0.4837  0.4052 -0.0617
  993MOL0     C33974   0.388   1.487   1.204  0.8347 -0.5420  0.8950
  993MOL0     C33975   0.348   1.607   1.264  0.1543  0.3029  0.1453
  993MOL0     C33976   0.216   1.614   1.302  0.0711 -0.0953 -0.9575
  993MOL0     C33977   0.128   1.516   1.281 -0.6302  0.2181 -0.1897
  993MOL0     O33978   0.005   1.558   1.326  0.4692 -0.2259  0.0780
  993MOL0     C33979  -0.090   1.461   1.381  0.2067  0.4398  0.0130
  993MOL0     C33980  -0.216   1.527   1.415  0.2672 -0.3915 -0.4294
  993MOL0     C33981  -0.309   1.413   1.479  0.5522 -0.2539 -0.0295
  993MOL0     C33982  -0.451   1.470   1.496 -0.5413 -0.2334  0.1737
  993MOL0     C33983  -0.446   1.559   1.613 -0.0309 -0.2700 -0.1335
  993MOL0     C33984  -0.464   1.620   1.717 -0.3733 -0.1472 -0.7383
  993MOL0     C33985   0.159   1.394   1.227  0.0739  0.0776 -0.2329
  993MOL0     C33986   0.291   1.382   1.184 -0.2943  0.5102  0.3219
  993MOL0     C33987   0.318   1.253   1.110 -0.9714  0.0985  0.1317
  993MOL0     H33988   0.732   1.222   1.045  1.4752  0.3625 -0.5612
  993MOL0     H33989   0.944   1.220   0.983  0.6784 -0.9467  0.4932
  993MOL0     H33990   1.169   1.321   1.018  4.6041  3.2630  1.4761
  993MOL0     H33991   1.160   1.272   0.844 -2.9935 -2.3576  2.6223
  993MOL0     H33992   1.327   1.480   0.983  0.7213 -0.2539 -0.2983
  993MOL0     H33993   1.313   1.493   0.815  0.5338 -1.7416 -1.7097
  993MOL0     H33994   1.388   1.227   0.944  1.3301  0.9047  1.9174
  993MOL0     H33995   1.504   1.360   0.942 -1.2186 -0.0777  3.1194
  993MOL0     H33996   1.384   1.256   0.684 -2.0447  0.4864  1.0708
  993MOL0     H33997   1.487   1.401   0.694  2.2370 -0.9038 -0.8126
  993MOL0     H33998   1.676   1.257   0.777  0.7273 -1.1418  0.7107
  993MOL0     H33999   1.565   1.125   0.768 -0.1094  1.3881  1.0365
  993MOL0     H34000   1.559   1.173   0.513 -1.5254  1.1337  0.9106
  993MOL0     H34001   1.684   1.299   0.522  1.7093 -1.1929  0.1766
  993MOL0     H34002   1.861   1.170   0.597  0.2637 -0.0233  1.4055
  993MOL0     H34003   1.798   1.077   0.462 -1.9168 -0.6606  0.1031
  993MOL0     H34004   1.745   1.017   0.754 -1.9318  1.8869 -0.6555
  993MOL0     H34005   1.665   0.934   0.610  0.0907  2.4645 -3.2688
  993MOL0     H34006   1.876   0.856   0.432  2.2287  2.2199 -0.1988
  993MOL0     H34007   2.144   0.594   0.557 -2.8268 -0.5171  2.4515
  993MOL0     H34008   2.053   0.622   0.409 -0.2250 -0.9671  1.3952
  993MOL0     H34009   2.171   0.840   0.373  2.8275  1.7882 -0.3148
  993MOL0     H34010   2.231   0.827   0.525 -1.8513 -3.3763  4.0098
  993MOL0     H34011   2.385   0.783   0.331  0.4496 -0.9549  0.3836
  993MOL0     H34012   2.292   0.632   0.295  0.4374 -0.7651  0.9218
  993MOL0     H34013   2.392   0.541   0.512 -0.7895  0.8799 -1.2041
  993MOL0     H34014   2.462   0.701   0.538 -0.0220 -1.9861  1.1428
  993MOL0     H34015   2.608   0.577   0.644  0.3089  3.1652  0.5016
  993MOL0     H34016   2.838   0.576   0.731 -2.8870  1.8684 -0.4403
  993MOL0     H34017   3.093   0.713   0.942  1.2658 -5.9608 -0.6433
  993MOL0     H34018   3.294   0.804   1.063 -1.6706 -0.6813 -1.0543
  993MOL0     H34019   3.611   0.960   0.767 -0.0599 -1.0747  0.0832
  993MOL0     H34020   3.490   1.048   0.868  0.2236 -0.1879  2.1034
  993MOL0     H34021   3.705   1.141   0.920 -1.1598  0.1481 -0.0788
  993MOL0     H34022   3.671   1.041   1.060  0.4444 -0.3222 -0.6105
  993MOL0     H34023   3.812   0.856   0.923  1.0855 -0.0047  3.1142
  993MOL0     H34024   3.852   1.006   0.838  2.9553 -2.0965 -0.5752
  993MOL0     H34025   3.904   0.985   1.136 -1.4135  0.5547 -0.7048
  993MOL0     H34026   3.952   1.112   1.029  0.6016  0.3344  3.1231
  993MOL0     H34027   4.086   0.928   0.886 -1.0349 -1.3016 -0.4093
  993MOL0     H34028   4.050   0.830   1.027 -0.7677  0.4484  0.6915
  993MOL0     H34029   4.206   1.095   1.005  2.2182 -1.8532 -2.6032
  993MOL0     H34030   4.167   1.019   1.164 -2.7914 -1.2054 -0.1828
  993MOL0     H34031   4.356   0.893   0.950  1.3142 -0.5516  1.0290
  993MOL0     H34032   4.270   0.820   1.091 -1.3772 -0.3237 -0.7582
  993MOL0     H34033   4.464   1.045   1.078 -1.2957  0.8557 -0.2742
  993MOL0     H34034   4.378   0.995   1.232  0.2681  0.8207 -0.3377
  993MOL0     H34035   3.522   0.758   0.700 -0.4077  1.6684 -2.2751
  993MOL0     H34036   3.323   0.676   0.583 -0.0570 -0.3641  0.5406
  993MOL0     H34037   2.972   0.509   0.323  0.1634  0.6863 -0.0573
  993MOL0     H34038   2.746   0.507   0.245 -0.2777 -0.4347 -0.1081
  993MOL0     H34039   0.932   1.641   0.910  1.0096 -0.3378 -1.5102
  993MOL0     H34040   0.673   1.641   0.941  0.2987 -0.0759 -1.9740
  993MOL0     H34041   0.403   1.700   1.275  0.7908  0.0840 -1.0896
  993MOL0     H34042   0.179   1.707   1.344 -0.6021 -1.6514  2.1635
  993MOL0     H34043  -0.042   1.420   1.471  2.3621  1.4952 -0.6028
  993MOL0     H34044  -0.113   1.380   1.311 -0.8939 -0.0993  0.9601
  993MOL0     H34045  -0.260   1.582   1.331  2.2369  3.0407  0.6039
  993MOL0     H34046  -0.208   1.612   1.483  1.7275  0.6644 -1.8454
  993MOL0     H34047  -0.271   1.381   1.576  0.7871 -0.3785 -0.1626
  993MOL0     H34048  -0.316   1.332   1.406 -0.0467 -1.8883  1.7600
  993MOL0     H34049  -0.469   1.515   1.398  2.1424  0.9885  0.1730
  993MOL0     H34050  -0.528   1.393   1.510 -1.0987 -0.3707 -2.9876
  993MOL0     H34051  -0.476   1.677   1.807  0.6448 -0.7639 -0.1786
  993MOL0     H34052   0.081   1.320   1.212  1.3215 -0.9631 -2.0711
  993MOL0     H34053   0.401   1.200   1.157 -1.3963 -1.1930 -0.5467
  993MOL0     H34054   0.233   1.186   1.127  0.2509 -1.0952  1.8470
  993MOL0     H34055   0.339   1.277   1.005  0.6329 -0.8869  0.2086
  994MOL0     O34056   3.998  10.737   8.505  0.1488 -0.1229 -0.4053
  994MOL0     C34057   4.056  10.649   8.450 -0.3006  0.2173 -0.5915
  994MOL0     O34058   3.995  10.530   8.419 -0.4176 -1.1121  0.0948
  994MOL0     C34059   3.874  10.480   8.453 -1.1035 -0.2056  0.6848
  994MOL0     C34060   3.805  10.523   8.567 -0.3848  0.4669  0.4532
  994MOL0     C34061   3.701  10.443   8.621  0.3496 -0.1717 -0.0675
  994MOL0     C34062   3.656  10.332   8.544 -0.0628 -0.8873 -0.6357
  994MOL0     O34063   3.559  10.258   8.596 -0.1564  0.2318  0.3126
  994MOL0     C34064   3.424  10.320   8.610 -0.0640 -1.2262 -0.3680
  994MOL0     C34065   3.369  10.383   8.487  0.6622 -0.4369 -0.2916
  994MOL0     C34066   3.220  10.406   8.501 -0.3465 -0.1114 -0.1228
  994MOL0     C34067   3.132  10.289   8.464 -0.0193  0.0111  0.6997
  994MOL0     C34068   2.989  10.340   8.434 -0.6973  0.7136 -0.3473
  994MOL0     C34069   2.883  10.233   8.415  0.1711  0.2662  0.0338
  994MOL0     C34070   2.840  10.144   8.529  0.6248 -0.2769 -0.0476
  994MOL0     C34071   2.760  10.223   8.631  0.7074 -0.4081  0.2991
  994MOL0     N34072   2.670  10.319   8.579 -0.7548 -0.2247 -0.6200
  994MOL0     C34073   2.553  10.290   8.504  0.6140  0.8272 -0.6869
  994MOL0     C34074   2.511  10.406   8.445 -0.1757  0.4382  0.3428
  994MOL0     C34075   2.370  10.436   8.389  0.8437 -0.8155  1.2748
  994MOL0     C34076   2.286  10.513   8.500  0.5693 -0.3537 -0.2876
  994MOL0     C34077   2.137  10.541   8.474 -0.3374  0.4740 -0.2794
  994MOL0     C34078   2.125  10.656   8.372 -0.3287 -0.2381  0.1500
  994MOL0     O34079   1.996  10.725   8.364  0.6218  0.3264 -1.1382
  994MOL0     C34080   1.897  10.678   8.291 -0.5323 -1.1701  1.4149
  994MOL0     C34081   1.796  10.768   8.249  0.1761 -0.1497 -1.4195
  994MOL0     C34082   1.690  10.727   8.167  0.1097 -0.2431 -0.0670
  994MOL0     C34083   1.675  10.590   8.143 -0.1127  0.0035 -0.0679
  994MOL0     C34084   1.544  10.531   8.081 -0.5261  0.3122  0.3057
  994MOL0     O34085   1.462  10.610   8.010 -0.0636 -0.7724 -0.3640
  994MOL0     C34086   1.344  10.556   7.977 -0.1502 -0.1946  0.1661
  994MOL0     C34087   1.322  10.487   7.861 -0.1990 -0.3577 -0.9364
  994MOL0     C34088   1.194  10.442   7.829  0.2568 -0.4551 -0.0692
  994MOL0     C34089   1.078  10.469   7.915 -0.4893 -0.0258  1.1674
  994MOL0     O34090   0.950  10.435   7.866  0.6851  0.0450 -0.3100
  994MOL0     C34091   0.827  10.467   7.925  1.4058  0.1145  0.2994
  994MOL0     C34092   0.795  10.619   7.906  0.0971  0.0095  0.0460
  994MOL0     C34093   0.674  10.657   7.992 -0.0779  0.4031  0.1211
  994MOL0     C34094   0.627  10.802   7.970 -0.4208  0.0214 -0.4576
  994MOL0     C34095   0.523  10.833   8.089 -0.9505 -0.0549  0.5791
  994MOL0     C34096   0.476  10.967   8.074  0.2062 -0.1252  0.7717
  994MOL0     C34097   0.343  10.981   7.987 -0.4513 -0.1231 -0.2664
  994MOL0     C34098   0.305  11.129   7.967  0.8134  0.6075  0.2988
  994MOL0    Cl34099   0.250  11.186   8.123 -0.0384 -0.0171 -0.4617
  994MOL0     C34100   1.103  10.514   8.036  0.4001 -0.9003 -1.1030
  994MOL0     C34101   1.230  10.572   8.063  0.1090 -0.4541  0.7179
  994MOL0     O34102   1.536  10.415   8.101  0.1424  0.2833  0.3124
  994MOL0     C34103   1.776  10.501   8.187  0.0290  0.6023 -0.9376
  994MOL0     C34104   1.892  10.543   8.250  0.1963 -0.4736  0.0565
  994MOL0     N34105   2.611  10.498   8.479  0.4838 -0.3585  0.2829
  994MOL0     N34106   2.699  10.452   8.564  0.1411  0.2671  0.1826
  994MOL0     C34107   3.705  10.309   8.419  0.5517 -0.3347 -0.0624
  994MOL0     C34108   3.827  10.373   8.383  0.1084  0.1297 -1.0764
  994MOL0     C34109   4.172  10.683   8.380 -0.7344 -0.2775 -0.0810
  994MOL0     C34110   4.208  10.588   8.275  0.5005 -0.5337  0.1337
  994MOL0     C34111   4.309  10.620   8.182 -0.0175  0.5466 -0.6460
  994MOL0     C34112   4.381  10.737   8.202 -1.4491 -0.1136  1.0858
  994MOL0     O34113   4.492  10.733   8.114  0.5516  0.0418  1.2694
  994MOL0     C34114   4.572  10.849   8.110 -0.9318 -0.3969  0.2247
  994MOL0     C34115   4.672  10.856   7.988 -0.0359  0.5326 -0.3031
  994MOL0     C34116   4.784  10.952   8.015  0.1025  0.8578 -0.4221
  994MOL0     C34117   4.891  10.951   7.901  0.1252  0.2688 -0.6086
  994MOL0     C34118   4.987  11.059   7.939 -0.2944 -0.0188 -0.5392
  994MOL0     C34119   5.086  11.130   7.958  0.2535 -0.3211 -0.8637
  994MOL0     C34120   4.354  10.819   8.309  0.1526 -1.0607 -0.5707
  994MOL0     C34121   4.251  10.801   8.401 -0.2887  0.1065  0.2811
  994MOL0     C34122   4.236  10.900   8.511 -0.0918  0.5803 -0.4474
  994MOL0     H34123   3.843  10.591   8.643 -2.4695  0.1828  1.8289
  994MOL0     H34124   3.669  10.480   8.718  0.7489  0.4584 -0.1632
  994MOL0     H34125   3.360  10.236   8.636 -0.1198 -1.9612 -2.6033
  994MOL0     H34126   3.423  10.383   8.699 -2.1141 -0.0526 -1.1764
  994MOL0     H34127   3.383  10.305   8.412 -0.1248 -0.1104 -0.7879
  994MOL0     H34128   3.417  10.475   8.454 -0.6020  1.3416  2.4329
  994MOL0     H34129   3.192  10.492   8.439 -1.9402  1.1536  2.1857
  994MOL0     H34130   3.204  10.438   8.604  2.2989 -1.5627  0.8398
  994MOL0     H34131   3.175  10.246   8.373  0.1271 -0.0113  0.7799
  994MOL0     H34132   3.134  10.211   8.541  1.4860 -0.7222 -0.0448
  994MOL0     H34133   2.955  10.406   8.515 -0.8690 -0.7022  0.7680
  994MOL0     H34134   3.005  10.389   8.337  2.4689 -2.1476 -1.4467
  994MOL0     H34135   2.792  10.280   8.376  0.4081 -0.2105 -1.1165
  994MOL0     H34136   2.913  10.168   8.333  0.0296 -0.2251  0.3636
  994MOL0     H34137   2.929  10.102   8.577 -0.2011 -0.4601  1.3712
  994MOL0     H34138   2.777  10.066   8.486 -0.9990  0.9698 -0.0200
  994MOL0     H34139   2.702  10.147   8.684 -0.6390  0.6042  0.3372
  994MOL0     H34140   2.830  10.282   8.691  0.8782 -1.0098  0.6890
  994MOL0     H34141   2.494  10.199   8.506 -2.2291  2.5204  2.4616
  994MOL0     H34142   2.386  10.489   8.295 -0.0529 -1.1208  0.9391
  994MOL0     H34143   2.321  10.343   8.358  0.8264 -0.4318  0.0752
  994MOL0     H34144   2.285  10.432   8.574 -1.2596 -0.4745 -0.3995
  994MOL0     H34145   2.345  10.593   8.545  1.9775 -1.5616  0.1113
  994MOL0     H34146   2.103  10.567   8.575  2.0020  3.0240 -0.0406
  994MOL0     H34147   2.097  10.446   8.437 -1.7367  0.7969  0.3246
  994MOL0     H34148   2.161  10.636   8.271 -0.3364  0.9058 -0.0868
  994MOL0     H34149   2.198  10.732   8.401 -0.9675  2.4260 -4.3940
  994MOL0     H34150   1.802  10.867   8.294  0.6042 -0.7424 -0.1250
  994MOL0     H34151   1.610  10.796   8.144 -0.8749 -1.4152 -0.2695
  994MOL0     H34152   1.404  10.480   7.791  1.0640 -1.3970  0.5891
  994MOL0     H34153   1.183  10.386   7.737  4.6576 -2.3560  0.2791
  994MOL0     H34154   0.753  10.397   7.886  0.2787  0.7688  1.1814
  994MOL0     H34155   0.836  10.432   8.028  0.2890 -1.2588 -0.0264
  994MOL0     H34156   0.875  10.684   7.943 -2.0211  3.5324 -1.0375
  994MOL0     H34157   0.790  10.640   7.798  1.5878  0.9838  0.1271
  994MOL0     H34158   0.599  10.586   7.956  2.4016 -1.4263 -1.7407
  994MOL0     H34159   0.691  10.635   8.098  2.7231  0.4763 -0.2526
  994MOL0     H34160   0.576  10.799   7.873 -3.1297 -0.7518  0.8786
  994MOL0     H34161   0.713  10.869   7.973  1.2931 -2.1046  1.3080
  994MOL0     H34162   0.582  10.823   8.181 -2.2349  1.3905  1.6145
  994MOL0     H34163   0.444  10.758   8.091  0.1556 -1.4816 -2.4303
  994MOL0     H34164   0.454  11.010   8.172  0.7543  1.8384  0.0709
  994MOL0     H34165   0.560  11.021   8.029  0.6574 -1.3787  0.0571
  994MOL0     H34166   0.264  10.926   8.040 -1.7793  0.4409 -1.5944
  994MOL0     H34167   0.357  10.934   7.890  1.7954  0.1050 -0.1007
  994MOL0     H34168   0.391  11.179   7.922  0.6432 -0.4397 -1.2733
  994MOL0     H34169   0.216  11.131   7.903  0.2328  2.0235  1.0880
  994MOL0     H34170   1.032  10.538   8.114  1.1421  3.6294 -1.5361
  994MOL0     H34171   1.246  10.623   8.157  2.6078 -1.0884  0.7251
  994MOL0     H34172   1.759  10.396   8.167 -0.2773 -0.0067  2.1377
  994MOL0     H34173   1.974  10.473   8.261 -0.5598 -1.1344  1.7419
  994MOL0     H34174   3.670  10.227   8.358  2.8927 -1.2303 -0.3014
  994MOL0     H34175   3.879  10.333   8.297  1.9172  0.0208  0.0211
  994MOL0     H34176   4.158  10.493   8.258 -2.8383  1.1303 -0.2449
  994MOL0     H34177   4.328  10.550   8.101 -0.9142 -2.5489  1.6316
  994MOL0     H34178   4.634  10.841   8.200 -0.0845 -2.9128 -0.4915
  994MOL0     H34179   4.522  10.945   8.125 -0.0165  0.3160 -1.1764
  994MOL0     H34180   4.626  10.876   7.890 -1.8491 -1.3377  0.0948
  994MOL0     H34181   4.721  10.759   7.988 -1.9170 -0.5081  1.9561
  994MOL0     H34182   4.828  10.917   8.109  1.9373 -0.5535 -1.7398
  994MOL0     H34183   4.756  11.057   8.024 -1.7541  0.3072  1.0406
  994MOL0     H34184   4.950  10.858   7.896  0.0730  0.2509 -0.8708
  994MOL0     H34185   4.848  10.962   7.801 -0.5305 -0.5300 -0.4199
  994MOL0     H34186   5.172  11.191   7.978  1.1092 -2.3306  2.2988
  994MOL0     H34187   4.419  10.895   8.350 -0.6803 -2.7092  4.5219
  994MOL0     H34188   4.146  10.959   8.495 -0.1584  0.9889  1.2382
  994MOL0     H34189   4.228  10.848   8.607 -2.4491  3.1050  0.8681
  994MOL0     H34190   4.324  10.964   8.511 -0.5263  1.1857 -0.8353
  995MOL0     O34191   0.953   6.678   9.824  0.0669  0.5060 -0.2564
  995MOL0     C34192   0.903   6.786   9.783  0.7342 -0.1694  0.2605
  995MOL0     O34193   0.965   6.907   9.766  0.1712 -0.4700 -0.2280
  995MOL0     C34194   1.094   6.931   9.798 -1.2625 -0.2953  0.0459
  995MOL0     C34195   1.201   6.849   9.819  0.5185 -0.7294  1.3068
  995MOL0     C34196   1.323   6.896   9.847  0.4153 -0.0798  0.6032
  995MOL0     C34197   1.347   7.030   9.885  0.0394  0.1477 -0.0182
  995MOL0     O34198   1.481   7.056   9.933 -0.1608 -0.2788 -0.7764
  995MOL0     C34199   1.499   7.168  10.025 -0.1464 -0.0788  0.0277
  995MOL0     C34200   1.634   7.230  10.024 -0.4627 -0.6707 -0.8033
  995MOL0     C34201   1.738   7.130  10.090 -0.2077  0.0611 -0.3269
  995MOL0     C34202   1.875   7.192  10.125  0.1311 -0.2578 -0.2571
  995MOL0     C34203   1.978   7.103  10.201 -0.4994  0.6104  0.0581
  995MOL0     C34204   2.031   6.997  10.112  0.1347 -0.2940 -0.6714
  995MOL0     C34205   2.133   6.930  10.200  1.0310  0.1659  0.4141
  995MOL0     C34206   2.231   6.850  10.118 -0.2544  0.9798  0.9749
  995MOL0     N34207   2.338   6.926  10.048 -0.3138  0.5137  0.0648
  995MOL0     C34208   2.396   6.900   9.929 -0.5972  0.2502  0.0545
  995MOL0     C34209   2.507   6.971   9.925 -0.5236 -0.1595 -0.2366
  995MOL0     C34210   2.600   6.970   9.808 -0.2168 -1.0335 -0.5114
  995MOL0     C34211   2.652   7.112   9.782  0.3667 -0.4447  0.4031
  995MOL0     C34212   2.747   7.121   9.660  0.5510 -0.3441 -0.8482
  995MOL0     C34213   2.814   7.266   9.636 -0.0300 -0.0854  1.2921
  995MOL0     O34214   2.882   7.315   9.756  0.0929  0.3609 -0.3127
  995MOL0     C34215   3.016   7.270   9.777 -0.0953  0.0241 -0.7846
  995MOL0     C34216   3.112   7.335   9.705 -0.8457  0.2435  0.4236
  995MOL0     C34217   3.244   7.278   9.694  0.5010 -1.0217 -0.0482
  995MOL0     C34218   3.272   7.166   9.774 -0.0551  0.7105 -0.7952
  995MOL0     C34219   3.412   7.114   9.781  0.1065 -0.7992  0.9744
  995MOL0     O34220   3.448   7.019   9.864 -0.4714  0.7312 -0.0806
  995MOL0     C34221   3.577   6.975   9.884  0.0793 -0.0778 -0.2432
  995MOL0     C34222   3.687   7.054   9.895 -0.2740 -0.5024  0.3798
  995MOL0     C34223   3.802   7.000   9.945 -0.1053  0.2965 -0.0987
  995MOL0     C34224   3.811   6.869   9.976 -0.4053  0.1572 -0.2383
  995MOL0     O34225   3.934   6.823  10.017 -0.5330  0.7995 -0.3791
  995MOL0     C34226   3.937   6.689  10.086 -0.2463 -0.4729  0.5142
  995MOL0     C34227   4.074   6.676  10.149  0.0326 -0.1743 -0.8297
  995MOL0     C34228   4.073   6.563  10.249 -0.3080  0.0267  0.0199
  995MOL0     C34229   4.020   6.594  10.392 -0.2157  0.6487 -0.3134
  995MOL0     C34230   4.042   6.467  10.493 -0.4641  0.1374 -0.7396
  995MOL0     C34231   4.032   6.490  10.648  0.3507  0.7058  0.4556
  995MOL0     C34232   3.914   6.574  10.672  0.7837  0.3162  0.1389
  995MOL0     C34233   3.888   6.611  10.817 -0.2070  0.0430 -0.3211
  995MOL0    Cl34234   3.820   6.469  10.911 -0.0375 -0.0642  0.4636
  995MOL0     C34235   3.706   6.784   9.948 -0.5269 -0.1321  0.4171
  995MOL0     C34236   3.590   6.843   9.906  0.6685 -0.0068  0.5652
  995MOL0     O34237   3.492   7.167   9.705  0.3598 -0.5463 -0.2165
  995MOL0     C34238   3.174   7.107   9.859 -0.3830 -0.1818  0.2376
  995MOL0     C34239   3.044   7.160   9.855 -0.5737 -0.8534 -0.1700
  995MOL0     N34240   2.524   7.041  10.048  0.2406 -0.4455 -0.1319
  995MOL0     N34241   2.418   7.009  10.122  0.4661  0.3477  0.3432
  995MOL0     C34242   1.238   7.120   9.855  0.0338  0.3771 -0.8836
  995MOL0     C34243   1.119   7.070   9.808 -0.2943  0.5082  0.5378
  995MOL0     C34244   0.758   6.797   9.766  0.4534 -0.0360  0.3974
  995MOL0     C34245   0.674   6.705   9.833  0.2022 -1.0351  0.7964
  995MOL0     C34246   0.529   6.714   9.833 -0.1268 -0.3029 -0.4425
  995MOL0     C34247   0.475   6.835   9.787  0.6699 -0.6074  0.2878
  995MOL0     O34248   0.337   6.854   9.796 -0.1182 -0.1246 -0.2960
  995MOL0     C34249   0.284   6.992   9.788  0.3577 -0.0483 -0.1429
  995MOL0     C34250   0.156   6.995   9.877 -0.1454 -0.0154  0.0543
  995MOL0     C34251   0.038   6.903   9.819 -1.2233 -0.4902 -0.3288
  995MOL0     C34252  -0.006   6.940   9.673  0.0753 -0.8873 -0.3972
  995MOL0     C34253  -0.128   6.884   9.650  0.4162 -0.3321 -0.8706
  995MOL0     C34254  -0.235   6.823   9.638 -0.5717 -0.0711  0.5329
  995MOL0     C34255   0.557   6.930   9.720  0.5819  0.8380  0.6867
  995MOL0     C34256   0.692   6.903   9.697  0.7577  0.8464 -0.7511
  995MOL0     C34257   0.755   7.002   9.602 -0.3500  0.4813  0.5299
  995MOL0     H34258   1.199   6.741   9.810  4.0014 -0.8715  0.5769
  995MOL0     H34259   1.404   6.824   9.855  2.1469  1.8209  1.2439
  995MOL0     H34260   1.445   7.258   9.992  0.0667  1.3502  3.2299
  995MOL0     H34261   1.463   7.142  10.125 -1.8855 -0.6547 -0.7243
  995MOL0     H34262   1.640   7.326  10.077  0.1441 -1.7901  1.2679
  995MOL0     H34263   1.665   7.258   9.923 -1.8674  1.3600 -0.7297
  995MOL0     H34264   1.760   7.046  10.023  1.5153 -0.6879  1.0709
  995MOL0     H34265   1.697   7.102  10.187 -1.7207 -0.1150 -0.9843
  995MOL0     H34266   1.934   7.226  10.040  1.9500 -1.4443  0.4726
  995MOL0     H34267   1.864   7.279  10.190  0.5806 -0.5284  0.1905
  995MOL0     H34268   2.058   7.156  10.252 -1.1227  0.6260  1.0467
  995MOL0     H34269   1.916   7.066  10.283 -1.0072  2.0188  0.3506
  995MOL0     H34270   1.953   6.926  10.084  0.6299 -1.0301 -0.2411
  995MOL0     H34271   2.077   7.032  10.019 -1.1743  2.1955 -0.4735
  995MOL0     H34272   2.081   6.849  10.251  1.2172 -1.0641 -1.2444
  995MOL0     H34273   2.195   6.989  10.269  1.1321 -0.0368  0.4984
  995MOL0     H34274   2.277   6.783  10.192 -0.4432 -3.0197 -2.1975
  995MOL0     H34275   2.185   6.775  10.052  1.7168  0.7713 -0.2537
  995MOL0     H34276   2.368   6.830   9.852  1.4840  3.0556 -3.5927
  995MOL0     H34277   2.680   6.905   9.845  0.7880  0.9500  0.9397
  995MOL0     H34278   2.565   6.922   9.715 -0.8099 -0.0464 -0.8114
  995MOL0     H34279   2.566   7.179   9.770  1.1729  0.9190  1.8543
  995MOL0     H34280   2.713   7.139   9.869  2.8217  0.7815 -1.5731
  995MOL0     H34281   2.695   7.091   9.569  1.3163  1.6584 -2.0033
  995MOL0     H34282   2.831   7.053   9.678 -0.4033 -1.0549  1.2971
  995MOL0     H34283   2.740   7.343   9.613 -0.4017 -0.1427  2.2387
  995MOL0     H34284   2.879   7.251   9.550 -0.6993 -2.0591  1.0714
  995MOL0     H34285   3.091   7.427   9.652 -1.6813  0.6192  1.3801
  995MOL0     H34286   3.315   7.329   9.630 -1.6162  2.0090 -0.1762
  995MOL0     H34287   3.684   7.159   9.867 -1.3176 -1.0959 -2.0285
  995MOL0     H34288   3.887   7.067   9.955 -0.5821  1.0248 -0.8066
  995MOL0     H34289   3.849   6.686  10.151  0.1226 -0.6196  1.0079
  995MOL0     H34290   3.935   6.611  10.008  1.4337  1.3588 -1.4869
  995MOL0     H34291   4.152   6.653  10.075 -1.6363 -3.3030 -1.8226
  995MOL0     H34292   4.110   6.766  10.198  1.4175 -0.6757 -0.8968
  995MOL0     H34293   4.002   6.491  10.208  1.2655 -2.0195  0.7109
  995MOL0     H34294   4.174   6.521  10.249 -0.5450 -0.7654 -2.7159
  995MOL0     H34295   3.913   6.613  10.379 -0.1259  2.3234  1.0287
  995MOL0     H34296   4.072   6.683  10.430  2.3937 -0.9639  0.1538
  995MOL0     H34297   4.139   6.426  10.464  0.9243 -0.1333  3.5655
  995MOL0     H34298   3.969   6.389  10.470 -1.6224  0.5246  1.3700
  995MOL0     H34299   4.029   6.392  10.694 -0.2887 -0.2140 -1.4386
  995MOL0     H34300   4.122   6.538  10.690  1.8462 -1.1743 -0.4373
  995MOL0     H34301   3.824   6.536  10.622  0.9192  0.0738  0.0806
  995MOL0     H34302   3.945   6.668  10.626 -0.4114  0.9941  0.6692
  995MOL0     H34303   3.985   6.652  10.846 -0.2638  2.0437 -2.5857
  995MOL0     H34304   3.819   6.696  10.828  2.2873  2.0784  0.6276
  995MOL0     H34305   3.716   6.678   9.966  1.4475 -0.2428 -1.0087
  995MOL0     H34306   3.502   6.780   9.911 -1.7047  2.7935 -1.8595
  995MOL0     H34307   3.200   7.019   9.918  0.9162  0.9429  1.4272
  995MOL0     H34308   2.976   7.094   9.907  0.2387 -3.3899 -2.1093
  995MOL0     H34309   1.247   7.224   9.887 -0.9272 -0.0305  0.8643
  995MOL0     H34310   1.040   7.139   9.780  0.0621  0.0079 -1.9168
  995MOL0     H34311   0.715   6.614   9.876  3.1400  0.2890  1.0666
  995MOL0     H34312   0.460   6.639   9.869 -1.9001  0.7524 -1.4728
  995MOL0     H34313   0.261   7.023   9.686 -0.3323  2.3064  0.6770
  995MOL0     H34314   0.351   7.061   9.840 -0.3646  0.2718  0.3872
  995MOL0     H34315   0.117   7.097   9.869  0.7463  0.4404  1.2803
  995MOL0     H34316   0.183   6.973   9.980  1.3310  3.5125  0.5757
  995MOL0     H34317  -0.043   6.888   9.891 -0.9020 -1.6119 -0.1830
  995MOL0     H34318   0.092   6.808   9.814  3.5218  1.9269 -1.5242
  995MOL0     H34319  -0.008   7.048   9.658 -1.6129 -1.3244 -4.5675
  995MOL0     H34320   0.065   6.896   9.603 -2.3114 -4.3515 -0.9367
  995MOL0     H34321  -0.326   6.768   9.628 -1.9869  1.9644  1.5629
  995MOL0     H34322   0.508   7.010   9.665  2.3417  0.5096 -1.4847
  995MOL0     H34323   0.814   7.084   9.644  3.0338 -1.3753 -0.1732
  995MOL0     H34324   0.824   6.951   9.533 -1.9567  0.0813 -0.8345
  995MOL0     H34325   0.679   7.051   9.541 -1.2435 -0.3827  0.9157
  996MOL0     O34326   1.515   6.922  10.319  0.5974 -0.2118 -0.1973
  996MOL0     C34327   1.433   6.921  10.408 -0.2667  0.0699  1.0699
  996MOL0     O34328   1.469   6.901  10.536 -0.3255  0.0073 -0.1425
  996MOL0     C34329   1.591   6.850  10.562 -0.3765  0.2579  0.1819
  996MOL0     C34330   1.710   6.931  10.565 -0.6732 -0.1817 -0.0185
  996MOL0     C34331   1.822   6.881  10.626  0.0583 -0.7493 -0.2554
  996MOL0     C34332   1.829   6.750  10.674  0.3940  0.6398 -0.0218
  996MOL0     O34333   1.931   6.694  10.749  0.0626 -0.4501  0.0094
  996MOL0     C34334   2.063   6.761  10.739 -0.0728 -0.0442 -0.1672
  996MOL0     C34335   2.134   6.747  10.601  0.1852 -0.0607 -0.0068
  996MOL0     C34336   2.284   6.743  10.624  0.3515  0.1783  0.3935
  996MOL0     C34337   2.352   6.738  10.483 -0.9424 -0.2876  0.5834
  996MOL0     C34338   2.509   6.741  10.484 -0.3897 -0.1790  0.0859
  996MOL0     C34339   2.559   6.777  10.340 -0.2153  0.4291 -0.6060
  996MOL0     C34340   2.709   6.806  10.346  0.0507 -0.4580  0.4230
  996MOL0     C34341   2.759   6.852  10.206  0.0873 -0.6833 -0.1349
  996MOL0     N34342   2.909   6.837  10.197 -0.5420 -0.3783 -0.0180
  996MOL0     C34343   2.989   6.941  10.223 -0.9038  0.1623 -0.3145
  996MOL0     C34344   3.113   6.896  10.192  0.0148 -0.6055 -0.1136
  996MOL0     C34345   3.253   6.966  10.217  1.1423 -0.3576  0.5647
  996MOL0     C34346   3.243   7.119  10.241  0.5740  1.3519 -0.8325
  996MOL0     C34347   3.371   7.172  10.298  0.0280  0.7150 -0.0132
  996MOL0     C34348   3.496   7.159  10.209 -0.5158  0.4343  0.5378
  996MOL0     O34349   3.612   7.154  10.297  0.4947 -0.4715  0.2836
  996MOL0     C34350   3.735   7.189  10.242  1.0281 -0.1599  0.1180
  996MOL0     C34351   3.749   7.282  10.150  0.1110 -0.5281  0.7798
  996MOL0     C34352   3.879   7.313  10.109  0.1028 -0.8161 -0.7067
  996MOL0     C34353   3.995   7.236  10.139  0.2136  0.2045  0.2893
  996MOL0     C34354   4.126   7.282  10.094  0.7947  0.8787 -0.3306
  996MOL0     O34355   4.134   7.384   9.999  0.2260  0.0451 -0.5070
  996MOL0     C34356   4.248   7.393   9.918  0.0340 -0.3839  0.3612
  996MOL0     C34357   4.301   7.281   9.863  0.2945 -0.2582 -1.1040
  996MOL0     C34358   4.410   7.287   9.775  0.1187  0.9672  0.4229
  996MOL0     C34359   4.469   7.406   9.728  0.4955 -0.6952 -0.0492
  996MOL0     O34360   4.580   7.407   9.642  0.1461 -0.4894  0.6215
  996MOL0     C34361   4.651   7.523   9.620 -0.4091 -0.4841  0.7277
  996MOL0     C34362   4.759   7.501   9.508 -1.2022  0.6868  0.3809
  996MOL0     C34363   4.816   7.629   9.445  0.4287  0.0127 -0.2453
  996MOL0     C34364   4.921   7.696   9.514 -0.5186 -0.4816 -1.3919
  996MOL0     C34365   4.967   7.825   9.443  0.7232  0.0000 -0.0938
  996MOL0     C34366   5.044   7.908   9.542 -0.4761  0.7355 -0.1309
  996MOL0     C34367   5.103   8.047   9.479 -0.4795  1.2455  1.6081
  996MOL0     C34368   5.205   8.109   9.570  0.0520 -0.5971 -0.3913
  996MOL0    Cl34369   5.376   8.064   9.554 -0.0213 -0.3002  0.3040
  996MOL0     C34370   4.413   7.522   9.783  0.6967  0.4547  0.0396
  996MOL0     C34371   4.305   7.515   9.877 -0.0784  0.1375  1.2927
  996MOL0     O34372   4.218   7.213  10.134 -0.1220  0.5191 -0.4729
  996MOL0     C34373   3.977   7.126  10.235  0.1168  1.2178  0.1523
  996MOL0     C34374   3.844   7.108  10.287  0.4631  0.1032 -0.3319
  996MOL0     N34375   3.100   6.762  10.150 -0.3509  0.1762  0.7130
  996MOL0     N34376   2.972   6.733  10.146 -0.6314  0.2528 -0.6246
  996MOL0     C34377   1.713   6.663  10.658  0.3459  1.0742 -0.0310
  996MOL0     C34378   1.599   6.715  10.602  0.3138 -0.4831 -0.3728
  996MOL0     C34379   1.293   6.942  10.370  0.8794 -0.3864  0.0791
  996MOL0     C34380   1.245   6.914  10.233 -0.3606  1.3011  0.2156
  996MOL0     C34381   1.116   6.921  10.201  0.1407  1.5799  0.4705
  996MOL0     C34382   1.019   6.942  10.302  0.2188  0.4486 -0.6285
  996MOL0     O34383   0.879   6.948  10.284 -0.4653 -0.1775 -0.2375
  996MOL0     C34384   0.828   6.927  10.148  0.1844 -0.3014 -0.3086
  996MOL0     C34385   0.679   6.900  10.144  0.1565 -1.0292  0.4158
  996MOL0     C34386   0.597   7.029  10.136 -0.2896 -0.7044 -0.4549
  996MOL0     C34387   0.444   7.010  10.148 -0.3287  0.5785  0.8524
  996MOL0     C34388   0.372   7.133  10.167  0.5910 -0.3715 -1.1344
  996MOL0     C34389   0.298   7.230  10.178  0.0171  0.2754  0.6286
  996MOL0     C34390   1.057   6.979  10.429 -0.3502  0.3471 -0.7180
  996MOL0     C34391   1.192   6.975  10.468  0.8616  0.6073 -0.2296
  996MOL0     C34392   1.221   6.982  10.616 -0.3970  0.1326 -0.6800
  996MOL0     H34393   1.708   7.031  10.524  0.6461 -0.3902 -0.6380
  996MOL0     H34394   1.907   6.947  10.630 -0.7463  0.2277  1.7940
  996MOL0     H34395   2.067   6.860  10.785 -0.6013  0.0702 -0.3613
  996MOL0     H34396   2.129   6.704  10.805 -0.9476 -2.1402 -1.0236
  996MOL0     H34397   2.104   6.828  10.534 -3.3700 -1.7921 -0.7950
  996MOL0     H34398   2.092   6.659  10.550 -0.9601  1.0246 -0.9945
  996MOL0     H34399   2.304   6.653  10.683 -0.4416 -0.5496 -0.4105
  996MOL0     H34400   2.324   6.833  10.670 -0.1341  0.0712  1.0409
  996MOL0     H34401   2.318   6.649  10.428 -0.3505 -0.8639  1.1336
  996MOL0     H34402   2.312   6.816  10.418  0.5789  1.3087  1.5088
  996MOL0     H34403   2.546   6.824  10.545 -1.9257  1.2267 -0.8316
  996MOL0     H34404   2.552   6.647  10.521  2.0068  1.4957  1.9071
  996MOL0     H34405   2.544   6.692  10.273  1.7086 -1.3548  1.1055
  996MOL0     H34406   2.498   6.860  10.303 -1.2119 -0.4013 -0.8903
  996MOL0     H34407   2.770   6.723  10.382 -0.0434  0.0034  1.7221
  996MOL0     H34408   2.731   6.888  10.415 -0.0896 -0.2244  0.1927
  996MOL0     H34409   2.716   6.789  10.128 -0.6056  2.6091 -2.5894
  996MOL0     H34410   2.732   6.954  10.177  0.2151 -0.6447 -0.1203
  996MOL0     H34411   2.953   7.034  10.266 -1.0465 -0.9133  2.0118
  996MOL0     H34412   3.298   6.928  10.309  0.6096  1.4129  1.6077
  996MOL0     H34413   3.314   6.959  10.127  1.2883 -1.5531  0.7487
  996MOL0     H34414   3.213   7.180  10.156 -2.1176  3.9528  1.7934
  996MOL0     H34415   3.173   7.148  10.319 -0.2368 -1.0263 -0.5973
  996MOL0     H34416   3.389   7.104  10.381 -0.7545 -2.1704 -2.0156
  996MOL0     H34417   3.361   7.277  10.327 -1.1637  0.6057  0.0383
  996MOL0     H34418   3.482   7.236  10.132 -3.1636 -0.9881 -0.5656
  996MOL0     H34419   3.498   7.068  10.148  2.5494  0.0891  1.0279
  996MOL0     H34420   3.670   7.346  10.112 -0.3241  0.2980  2.9278
  996MOL0     H34421   3.892   7.406  10.054 -2.1067 -0.6403 -1.0591
  996MOL0     H34422   4.266   7.185   9.901  0.9360  0.1249  0.5108
  996MOL0     H34423   4.439   7.189   9.737 -0.8504  0.1747  1.6461
  996MOL0     H34424   4.590   7.610   9.593 -0.2570 -0.1576  1.4023
  996MOL0     H34425   4.703   7.538   9.716  0.6799  1.2589 -0.0633
  996MOL0     H34426   4.843   7.438   9.536 -2.7772 -1.1188  1.3112
  996MOL0     H34427   4.709   7.466   9.418  2.7608  1.5103 -2.3818
  996MOL0     H34428   4.841   7.617   9.339 -1.8056 -0.3278 -0.7820
  996MOL0     H34429   4.735   7.701   9.437  0.1082 -0.1563  1.1353
  996MOL0     H34430   4.999   7.629   9.549 -2.6989 -2.3119  0.2455
  996MOL0     H34431   4.874   7.723   9.609  2.9869 -1.0623  0.6871
  996MOL0     H34432   4.883   7.875   9.392 -0.3304 -1.6331 -0.0385
  996MOL0     H34433   5.030   7.798   9.358  3.6333 -1.4511  2.3572
  996MOL0     H34434   4.975   7.930   9.624 -1.5760 -0.6621 -0.6376
  996MOL0     H34435   5.131   7.846   9.567 -0.0819  0.9344 -0.9839
  996MOL0     H34436   5.019   8.116   9.478 -1.8449 -0.2649 -1.4293
  996MOL0     H34437   5.146   8.030   9.380  2.5493  1.7606  2.7185
  996MOL0     H34438   5.200   8.218   9.556 -0.6764 -0.5172  0.4292
  996MOL0     H34439   5.172   8.109   9.674 -1.6476 -0.3289 -0.8956
  996MOL0     H34440   4.451   7.619   9.753  0.9461  1.3972  3.0756
  996MOL0     H34441   4.258   7.607   9.913 -3.4763 -0.5982 -0.7333
  996MOL0     H34442   4.061   7.064  10.268 -1.9077 -0.8084  1.7938
  996MOL0     H34443   3.832   7.035  10.367  1.3129 -0.4556 -0.6978
  996MOL0     H34444   1.712   6.566  10.706 -0.7914  1.3286  0.4984
  996MOL0     H34445   1.508   6.657  10.598 -0.4232  0.6758 -1.0640
  996MOL0     H34446   1.324   6.874  10.171 -1.0148  0.2719  0.0153
  996MOL0     H34447   1.096   6.893  10.098  0.6299  1.1515  0.4858
  996MOL0     H34448   0.881   6.837  10.114  1.6977 -0.2088  1.6506
  996MOL0     H34449   0.862   7.010  10.086  0.2743  0.7584  1.1062
  996MOL0     H34450   0.657   6.845  10.236  1.3234 -0.4540  1.0606
  996MOL0     H34451   0.648   6.845  10.055 -4.4150  0.8103  0.6338
  996MOL0     H34452   0.621   7.081  10.043  2.9196  0.3889  0.8491
  996MOL0     H34453   0.626   7.101  10.214  0.9273 -1.0136 -0.6069
  996MOL0     H34454   0.412   6.966  10.052 -1.9563 -0.1732  1.6973
  996MOL0     H34455   0.430   6.934  10.225 -1.6334 -1.0820 -0.9127
  996MOL0     H34456   0.260   7.330  10.188  2.3690  1.2096  0.7339
  996MOL0     H34457   0.990   7.019  10.504  0.8548 -2.0963  1.8778
  996MOL0     H34458   1.138   7.018  10.677 -1.4295 -1.1105 -1.3079
  996MOL0     H34459   1.239   6.878  10.644 -0.2908  0.4961  0.6644
  996MOL0     H34460   1.304   7.052  10.631 -1.7347  1.6922 -0.3246
  997MOL0     O34461   0.015   3.252   7.746 -0.5581 -0.0920 -1.2078
  997MOL0     C34462  -0.022   3.336   7.828 -0.6232 -0.7437  0.4218
  997MOL0     O34463   0.057   3.413   7.918 -0.3419  0.5034 -0.6148
  997MOL0     C34464   0.183   3.369   7.939 -0.5745 -0.2253  0.5554
  997MOL0     C34465   0.280   3.464   7.974 -0.5617  1.0161  0.3330
  997MOL0     C34466   0.417   3.433   8.008 -0.3871 -0.0518  0.2047
  997MOL0     C34467   0.461   3.303   7.981  0.9389 -0.0834  0.2390
  997MOL0     O34468   0.588   3.255   8.014  0.4004  0.1189  0.0778
  997MOL0     C34469   0.699   3.342   7.988  0.6534  0.1757 -0.6293
  997MOL0     C34470   0.752   3.403   8.113 -0.4884  1.0411 -0.4202
  997MOL0     C34471   0.879   3.478   8.099 -0.2257  0.2144  0.2562
  997MOL0     C34472   0.885   3.583   7.979 -0.0954 -0.0879 -1.1064
  997MOL0     C34473   0.966   3.712   8.013 -1.1251  0.8694  0.1886
  997MOL0     C34474   0.998   3.806   7.896  1.2170 -0.5831  0.7228
  997MOL0     C34475   1.090   3.725   7.802 -0.2758 -0.0692  0.2243
  997MOL0     C34476   1.194   3.815   7.728 -0.1334 -0.3023 -0.1563
  997MOL0     N34477   1.308   3.834   7.819 -0.6035  0.2654  0.2565
  997MOL0     C34478   1.427   3.769   7.818  0.1185 -0.5899 -0.3960
  997MOL0     C34479   1.502   3.839   7.910  0.6661 -0.2125  0.6993
  997MOL0     C34480   1.637   3.803   7.955  0.1353  0.6367 -0.1960
  997MOL0     C34481   1.736   3.830   7.842  0.5132 -0.3386 -0.3663
  997MOL0     C34482   1.879   3.816   7.884  0.3474 -0.0939  0.3173
  997MOL0     C34483   1.976   3.873   7.775 -0.0943 -0.1514  0.5104
  997MOL0     O34484   2.111   3.821   7.803 -0.5043 -0.4550 -0.3790
  997MOL0     C34485   2.202   3.803   7.705 -0.0009 -0.1185  0.2047
  997MOL0     C34486   2.333   3.783   7.739 -0.0330  0.0977  0.2949
  997MOL0     C34487   2.433   3.756   7.642  0.1451 -0.3915  0.9470
  997MOL0     C34488   2.393   3.746   7.503 -0.1926  0.1864 -0.8040
  997MOL0     C34489   2.502   3.712   7.409 -0.4155  0.3127  0.5856
  997MOL0     O34490   2.629   3.698   7.463 -0.1457 -0.9461  0.3875
  997MOL0     C34491   2.723   3.631   7.382 -0.5114 -0.9739 -0.8548
  997MOL0     C34492   2.801   3.708   7.303 -0.0209 -0.4677 -0.7941
  997MOL0     C34493   2.913   3.654   7.238 -0.0815 -0.4194 -0.2243
  997MOL0     C34494   2.943   3.517   7.238 -0.7305 -0.1672 -0.5509
  997MOL0     O34495   3.048   3.456   7.171  0.5817  0.7837 -0.5195
  997MOL0     C34496   3.142   3.533   7.099 -0.2173  0.0826 -0.2818
  997MOL0     C34497   3.225   3.613   7.197 -0.5261  0.1946 -0.0020
  997MOL0     C34498   3.328   3.692   7.121 -0.3301 -0.4751  0.2423
  997MOL0     C34499   3.432   3.776   7.199  0.3081 -0.1326  0.0759
  997MOL0     C34500   3.474   3.895   7.118 -0.9316 -1.3048 -0.2152
  997MOL0     C34501   3.555   4.006   7.187  0.4618  0.5814 -0.4076
  997MOL0     C34502   3.579   4.123   7.086  0.3488 -0.3733  0.8648
  997MOL0     C34503   3.686   4.226   7.142  0.1396 -0.0423  0.0583
  997MOL0    Cl34504   3.736   4.319   7.002  0.1553 -0.3830  0.2333
  997MOL0     C34505   2.861   3.438   7.311 -0.3891  0.1666 -0.4747
  997MOL0     C34506   2.749   3.493   7.385 -0.6610  0.0698  0.5333
  997MOL0     O34507   2.469   3.689   7.295  0.4606 -0.0561  0.4642
  997MOL0     C34508   2.261   3.785   7.468  0.0753  0.0917 -0.0022
  997MOL0     C34509   2.166   3.807   7.572 -0.2902 -0.3097  0.1216
  997MOL0     N34510   1.419   3.920   7.976 -0.0639 -0.2257 -0.4827
  997MOL0     N34511   1.298   3.913   7.931 -0.0736 -0.2478  0.2452
  997MOL0     C34512   0.367   3.204   7.939 -0.1882 -0.7516  0.1050
  997MOL0     C34513   0.229   3.235   7.941 -0.1075  0.1319 -0.4715
  997MOL0     C34514  -0.157   3.392   7.818 -0.6018 -0.1267 -0.0960
  997MOL0     C34515  -0.196   3.494   7.905 -0.0674  0.4506  0.3537
  997MOL0     C34516  -0.319   3.558   7.896  0.1243  0.0698  0.4291
  997MOL0     C34517  -0.408   3.515   7.800  0.2462  0.2795 -0.4942
  997MOL0     O34518  -0.537   3.550   7.793  0.0036  0.6793 -0.1140
  997MOL0     C34519  -0.586   3.639   7.885 -0.4488 -0.3732  0.1814
  997MOL0     C34520  -0.572   3.779   7.831  0.8185  0.6224 -0.1974
  997MOL0     C34521  -0.634   3.779   7.687  0.3773  0.2405 -0.1138
  997MOL0     C34522  -0.632   3.924   7.644  0.3997  0.4465 -0.7344
  997MOL0     C34523  -0.760   3.982   7.685  0.2971 -0.5289  1.1296
  997MOL0     C34524  -0.845   4.043   7.748  0.1316 -0.9191  0.7177
  997MOL0     C34525  -0.367   3.407   7.724  0.0381 -0.3783  0.3496
  997MOL0     C34526  -0.244   3.343   7.728  0.6600 -0.5817  0.4070
  997MOL0     C34527  -0.222   3.234   7.616  0.2538 -0.2543 -0.0303
  997MOL0     H34528   0.245   3.567   7.978 -1.6339  0.6537  0.9705
  997MOL0     H34529   0.479   3.520   8.025 -1.0212  0.0845  2.0066
  997MOL0     H34530   0.779   3.278   7.950 -0.9131 -1.1386 -1.8722
  997MOL0     H34531   0.667   3.412   7.911 -0.1646 -1.1486 -1.5442
  997MOL0     H34532   0.753   3.324   8.188 -1.5230 -1.2257 -2.6427
  997MOL0     H34533   0.686   3.486   8.142 -1.0867  2.0103 -4.0719
  997MOL0     H34534   0.961   3.408   8.084  1.7862  2.6810 -1.0177
  997MOL0     H34535   0.887   3.529   8.195 -0.2608  1.0798 -0.1880
  997MOL0     H34536   0.944   3.535   7.901  0.1373 -0.0274 -0.9714
  997MOL0     H34537   0.785   3.611   7.946  0.6320  1.0287 -2.4848
  997MOL0     H34538   0.910   3.761   8.093 -0.0235  1.2015  0.7688
  997MOL0     H34539   1.054   3.683   8.071 -3.3427 -2.9866  1.9975
  997MOL0     H34540   0.909   3.830   7.838  0.8628  1.0262  1.8590
  997MOL0     H34541   1.050   3.896   7.928 -2.2991  2.0333 -0.2936
  997MOL0     H34542   1.029   3.685   7.721 -0.1168 -1.9002  0.9613
  997MOL0     H34543   1.152   3.647   7.848  0.4258  0.2535 -0.1447
  997MOL0     H34544   1.225   3.766   7.635 -0.4335 -1.2723  0.2487
  997MOL0     H34545   1.141   3.906   7.698  0.2506  0.1973  0.6481
  997MOL0     H34546   1.480   3.700   7.753  2.0536  3.1792 -3.1480
  997MOL0     H34547   1.660   3.853   8.050 -0.3771  0.4950  0.0069
  997MOL0     H34548   1.643   3.694   7.969  2.2603  0.4647 -1.8641
  997MOL0     H34549   1.716   3.765   7.756 -1.1843  2.0544 -1.8901
  997MOL0     H34550   1.717   3.930   7.802 -0.3933 -0.9201 -1.4522
  997MOL0     H34551   1.897   3.708   7.888  0.4415 -0.0538  1.0514
  997MOL0     H34552   1.896   3.869   7.978 -3.6200  0.5823  0.8355
  997MOL0     H34553   1.976   3.982   7.771 -2.4158 -0.1340 -0.4629
  997MOL0     H34554   1.945   3.829   7.680  4.3030  0.4129 -1.3963
  997MOL0     H34555   2.360   3.775   7.844 -1.9132  0.5708  0.8665
  997MOL0     H34556   2.533   3.730   7.675 -1.2257 -2.2571  4.0468
  997MOL0     H34557   2.782   3.813   7.283 -0.5147 -0.6036 -1.0486
  997MOL0     H34558   2.960   3.724   7.170 -2.8706  0.8438 -1.0266
  997MOL0     H34559   3.210   3.479   7.033  0.7680  2.6876 -1.5365
  997MOL0     H34560   3.099   3.603   7.027  6.4290  1.9853 -3.1633
  997MOL0     H34561   3.160   3.675   7.259  1.2343  1.9819  0.1685
  997MOL0     H34562   3.272   3.541   7.265 -0.9848  2.2051  2.6079
  997MOL0     H34563   3.381   3.618   7.059 -1.1037 -1.6296  0.9285
  997MOL0     H34564   3.271   3.750   7.048 -2.0959 -1.3460  0.8749
  997MOL0     H34565   3.519   3.715   7.228 -0.3053 -1.1798 -0.2303
  997MOL0     H34566   3.392   3.813   7.294  0.7225  0.1955  0.1233
  997MOL0     H34567   3.383   3.943   7.080  0.1673 -0.9537 -2.6128
  997MOL0     H34568   3.540   3.868   7.036  1.9376  0.5955  1.3069
  997MOL0     H34569   3.497   4.047   7.271  1.0085 -0.1859  0.3612
  997MOL0     H34570   3.649   3.964   7.222 -0.3955  0.8179  2.4713
  997MOL0     H34571   3.484   4.174   7.073  0.4603  0.0950  1.7925
  997MOL0     H34572   3.618   4.083   6.992  1.1918  1.2944  0.4638
  997MOL0     H34573   3.645   4.278   7.229 -2.0979 -1.1843 -0.2520
  997MOL0     H34574   3.769   4.167   7.182  0.8727  0.6484 -0.4078
  997MOL0     H34575   2.878   3.331   7.318  3.0641  0.4261 -2.5886
  997MOL0     H34576   2.695   3.423   7.448 -0.3875 -1.4498 -0.8653
  997MOL0     H34577   2.220   3.797   7.368 -1.5909  1.6378  0.8041
  997MOL0     H34578   2.068   3.833   7.535  0.3104  2.3278  0.1597
  997MOL0     H34579   0.409   3.104   7.930  0.9523 -0.2955  0.1978
  997MOL0     H34580   0.162   3.151   7.927  1.7517 -1.6566  0.7595
  997MOL0     H34581  -0.140   3.532   7.990 -1.1487  1.0267  0.8234
  997MOL0     H34582  -0.324   3.643   7.962  1.5850  0.4817  0.0463
  997MOL0     H34583  -0.540   3.633   7.984 -0.5580  2.2647  0.4792
  997MOL0     H34584  -0.691   3.609   7.885 -0.4630 -0.4717 -2.0907
  997MOL0     H34585  -0.470   3.819   7.834  0.6405  1.2102 -1.4381
  997MOL0     H34586  -0.629   3.853   7.888 -0.2993  1.3351 -2.1519
  997MOL0     H34587  -0.730   3.726   7.686  0.0971  0.5159  3.3244
  997MOL0     H34588  -0.562   3.728   7.622 -0.7413 -2.0540  0.3516
  997MOL0     H34589  -0.555   3.985   7.691  3.0807 -2.7760 -0.5529
  997MOL0     H34590  -0.622   3.936   7.536 -2.0586  1.9972 -0.8884
  997MOL0     H34591  -0.924   4.086   7.805  0.4172  0.6168  0.0238
  997MOL0     H34592  -0.441   3.384   7.648 -0.6197  1.2504  0.4599
  997MOL0     H34593  -0.185   3.139   7.656 -0.1434 -1.3460 -2.0857
  997MOL0     H34594  -0.309   3.214   7.552  0.1430 -1.0996  0.3693
  997MOL0     H34595  -0.150   3.285   7.551  0.4598  1.2270  1.3288
  998MOL0     O34596   5.130   6.923   8.619 -0.9264  0.0364 -0.5770
  998MOL0     C34597   5.095   6.863   8.518  0.5802 -0.4148  0.3871
  998MOL0     O34598   5.167   6.854   8.399  0.2830  0.6996  0.2875
  998MOL0     C34599   5.299   6.882   8.400 -0.6579 -0.2824 -0.2205
  998MOL0     C34600   5.404   6.789   8.414  1.0947 -0.7399 -0.1267
  998MOL0     C34601   5.535   6.837   8.406 -0.5427  0.1196 -0.5844
  998MOL0     C34602   5.566   6.967   8.411  0.2137  0.7375  0.3404
  998MOL0     O34603   5.695   6.995   8.416  0.2780 -0.9287  0.3025
  998MOL0     C34604   5.735   7.127   8.470  0.5330 -0.2473  0.3964
  998MOL0     C34605   5.883   7.116   8.498 -1.3497  0.2321 -0.7242
  998MOL0     C34606   5.940   7.253   8.543  0.1895  0.2334  0.4504
  998MOL0     C34607   6.094   7.239   8.538  0.2504 -0.6181 -0.3737
  998MOL0     C34608   6.152   7.346   8.636 -0.0648 -0.2820  0.6482
  998MOL0     C34609   6.301   7.359   8.623  0.0620  0.0250 -0.2439
  998MOL0     C34610   6.369   7.449   8.725 -0.2658  1.1429  0.3653
  998MOL0     C34611   6.515   7.394   8.750 -0.7208  0.5622 -0.6675
  998MOL0     N34612   6.611   7.446   8.648  0.2513 -0.6319 -0.3250
  998MOL0     C34613   6.672   7.568   8.648 -0.1360  0.6271  0.4220
  998MOL0     C34614   6.754   7.578   8.544 -0.3305 -0.5455  0.1315
  998MOL0     C34615   6.860   7.682   8.513  0.6366 -0.2128  1.0584
  998MOL0     C34616   6.998   7.645   8.560  0.8615 -0.9006 -0.8506
  998MOL0     C34617   7.071   7.535   8.480 -0.1727  0.6334 -0.3982
  998MOL0     C34618   7.226   7.534   8.496  0.2712 -0.4071  0.2676
  998MOL0     O34619   7.269   7.666   8.457  0.4660  0.2165  0.2997
  998MOL0     C34620   7.406   7.672   8.448 -0.1738  0.2088 -0.3636
  998MOL0     C34621   7.482   7.695   8.559 -0.3439 -0.2139 -0.2061
  998MOL0     C34622   7.619   7.705   8.549 -0.8476 -0.6013  0.0191
  998MOL0     C34623   7.692   7.675   8.419  0.6520  0.3089 -0.8790
  998MOL0     C34624   7.833   7.674   8.408 -0.2646 -0.0149 -0.8014
  998MOL0     O34625   7.899   7.640   8.523  1.1010 -0.8714 -0.1023
  998MOL0     C34626   8.040   7.624   8.527  1.1800 -0.1154  0.7357
  998MOL0     C34627   8.093   7.526   8.609 -0.5682 -1.2454 -1.1460
  998MOL0     C34628   8.226   7.510   8.628 -0.0282 -0.0695 -0.1228
  998MOL0     C34629   8.316   7.583   8.549  0.3657 -0.1816 -0.2372
  998MOL0     O34630   8.447   7.555   8.571  0.1263  0.6440  0.0360
  998MOL0     C34631   8.552   7.614   8.483 -0.3855  0.7710 -0.5690
  998MOL0     C34632   8.683   7.548   8.516  0.0354 -0.1564  0.5081
  998MOL0     C34633   8.679   7.391   8.492  0.4390  0.8796 -0.4858
  998MOL0     C34634   8.809   7.335   8.521 -1.3510  0.6778 -0.2585
  998MOL0     C34635   8.809   7.177   8.510 -0.6605 -0.0826  0.4708
  998MOL0     C34636   8.919   7.104   8.588 -0.7435 -0.5150 -0.2222
  998MOL0     C34637   8.879   6.961   8.607  0.4954  0.3876 -0.0879
  998MOL0     C34638   8.826   6.877   8.477 -0.3979 -0.6033 -0.0990
  998MOL0    Cl34639   8.939   6.907   8.346 -0.5063 -0.0746 -0.0330
  998MOL0     C34640   8.265   7.692   8.475  0.6381  0.0945 -0.0658
  998MOL0     C34641   8.129   7.705   8.458 -1.1925  0.4647  0.8235
  998MOL0     O34642   7.884   7.682   8.293 -0.3071 -0.2444 -0.4846
  998MOL0     C34643   7.609   7.647   8.306 -0.5054  0.5379 -0.0396
  998MOL0     C34644   7.469   7.658   8.326 -0.4495 -0.5351 -0.9021
  998MOL0     N34645   6.736   7.463   8.470 -0.0068  0.4636  0.0664
  998MOL0     N34646   6.638   7.390   8.527 -0.8498  0.6649  0.2113
  998MOL0     C34647   5.460   7.063   8.416  0.8863  0.8296  0.3422
  998MOL0     C34648   5.327   7.020   8.408 -0.3638 -0.0281  0.0955
  998MOL0     C34649   4.961   6.800   8.520  0.2671 -0.5776  0.3754
  998MOL0     C34650   4.893   6.792   8.401 -0.1522 -0.3702  1.1073
  998MOL0     C34651   4.765   6.738   8.391  0.2198  0.4627  0.3083
  998MOL0     C34652   4.699   6.691   8.500  0.0261  0.5223  0.1336
  998MOL0     O34653   4.571   6.652   8.503  0.0208  0.4228  0.6942
  998MOL0     C34654   4.498   6.617   8.382 -0.8428 -0.1546  0.5162
  998MOL0     C34655   4.560   6.490   8.329  0.1644  1.8916  0.0336
  998MOL0     C34656   4.522   6.467   8.182 -0.7210  0.0989 -0.1103
  998MOL0     C34657   4.602   6.350   8.106  0.7924  1.2118 -0.1289
  998MOL0     C34658   4.537   6.338   7.974 -0.0051 -0.5489  0.1519
  998MOL0     C34659   4.491   6.327   7.858 -0.5737  0.0801  0.0674
  998MOL0     C34660   4.776   6.681   8.614  0.7365 -0.5282  0.1048
  998MOL0     C34661   4.903   6.738   8.630  0.3174 -0.3868 -0.5281
  998MOL0     C34662   4.959   6.742   8.768 -0.0023  0.0143 -0.3448
  998MOL0     H34663   5.381   6.683   8.411 -1.9128 -0.1405 -1.9645
  998MOL0     H34664   5.617   6.766   8.402  0.7558  1.5349 -0.2981
  998MOL0     H34665   5.711   7.209   8.401 -0.2677 -1.8632 -1.3020
  998MOL0     H34666   5.687   7.140   8.567 -0.8011  0.8101 -0.3654
  998MOL0     H34667   5.936   7.088   8.406  0.7930  1.9488 -0.0988
  998MOL0     H34668   5.916   7.042   8.571 -1.1628  1.6271  0.6451
  998MOL0     H34669   5.908   7.275   8.645 -0.2452 -0.8833  0.5611
  998MOL0     H34670   5.923   7.338   8.476 -0.8327 -1.3644 -1.4289
  998MOL0     H34671   6.124   7.145   8.585 -0.1535  0.5314  2.3912
  998MOL0     H34672   6.141   7.236   8.439  0.8653 -0.3243 -0.0979
  998MOL0     H34673   6.103   7.442   8.619 -1.9735 -1.4452 -0.9689
  998MOL0     H34674   6.139   7.311   8.739  2.9095 -1.4746  0.7252
  998MOL0     H34675   6.332   7.255   8.635  0.5783 -0.2563 -3.3938
  998MOL0     H34676   6.323   7.385   8.519 -0.0307  1.2097  0.0153
  998MOL0     H34677   6.309   7.449   8.817 -0.8659 -1.1313  0.0292
  998MOL0     H34678   6.371   7.554   8.693  0.0459  1.1240  0.3231
  998MOL0     H34679   6.562   7.424   8.844 -0.0297 -0.9285 -0.5016
  998MOL0     H34680   6.510   7.285   8.744 -1.3294  0.5974 -0.8263
  998MOL0     H34681   6.685   7.640   8.728  0.5287  2.2219 -1.0634
  998MOL0     H34682   6.861   7.703   8.406 -0.4427 -1.0674  0.8523
  998MOL0     H34683   6.837   7.771   8.573 -3.7319 -1.1106  1.0527
  998MOL0     H34684   7.054   7.739   8.560  0.2835 -0.5449 -1.4267
  998MOL0     H34685   6.999   7.619   8.666  2.7286 -0.9429 -0.8487
  998MOL0     H34686   7.066   7.554   8.372 -2.0050 -2.0130 -0.8816
  998MOL0     H34687   7.024   7.440   8.510 -0.9513  1.0513 -0.2538
  998MOL0     H34688   7.268   7.462   8.425  0.3569  0.2109 -0.3140
  998MOL0     H34689   7.258   7.504   8.597  0.1123 -0.6734  0.2397
  998MOL0     H34690   7.453   7.702   8.663  3.0757 -2.3656  1.0668
  998MOL0     H34691   7.671   7.732   8.640  0.4528  0.1777 -0.9197
  998MOL0     H34692   8.030   7.463   8.671  3.8696 -3.4639  1.5745
  998MOL0     H34693   8.261   7.432   8.694 -0.7122 -1.1484 -0.9877
  998MOL0     H34694   8.536   7.583   8.379  1.3720 -0.3203 -0.5477
  998MOL0     H34695   8.558   7.721   8.506 -1.3642  0.3579  1.9068
  998MOL0     H34696   8.764   7.588   8.455  0.8691 -1.3735  0.7831
  998MOL0     H34697   8.700   7.571   8.621  1.5178  0.8491  0.0820
  998MOL0     H34698   8.608   7.333   8.551  0.3170  3.6202  2.3189
  998MOL0     H34699   8.657   7.372   8.387 -1.0066 -1.3012  0.1551
  998MOL0     H34700   8.857   7.359   8.617 -3.4137  1.4390  0.6355
  998MOL0     H34701   8.870   7.377   8.441  0.9385 -0.0560  0.9880
  998MOL0     H34702   8.807   7.163   8.402  0.5314  1.5138  0.1999
  998MOL0     H34703   8.717   7.124   8.537 -0.1471 -1.9305 -1.1556
  998MOL0     H34704   9.009   7.108   8.526 -0.3793 -2.6015  0.1057
  998MOL0     H34705   8.936   7.148   8.687 -1.0063  3.0303 -1.5922
  998MOL0     H34706   8.807   6.948   8.689  0.4429 -2.5719 -0.4967
  998MOL0     H34707   8.973   6.915   8.640 -0.2718 -0.9968  0.2726
  998MOL0     H34708   8.804   6.772   8.500 -0.0137 -0.7747 -0.5097
  998MOL0     H34709   8.729   6.908   8.437 -0.7039  0.5825  1.4389
  998MOL0     H34710   8.342   7.752   8.429 -0.6608 -0.0115 -2.5663
  998MOL0     H34711   8.092   7.787   8.397  3.2493  0.9410 -1.6215
  998MOL0     H34712   7.659   7.614   8.216 -2.3345 -0.9338 -0.5643
  998MOL0     H34713   7.402   7.633   8.245 -2.4903  0.0851  0.5227
  998MOL0     H34714   5.471   7.170   8.425  1.0128  0.7349  1.5635
  998MOL0     H34715   5.252   7.098   8.408  0.3835  0.8386 -2.9227
  998MOL0     H34716   4.933   6.845   8.315  1.0794 -2.6283  0.1940
  998MOL0     H34717   4.720   6.750   8.293  0.7599 -1.6782 -0.2475
  998MOL0     H34718   4.517   6.698   8.311  1.9866 -2.2894 -1.4037
  998MOL0     H34719   4.391   6.618   8.405 -0.9174  1.8178  0.2199
  998MOL0     H34720   4.520   6.417   8.399 -3.1582  2.2838 -1.2688
  998MOL0     H34721   4.668   6.479   8.341 -0.2517 -2.4530  1.3703
  998MOL0     H34722   4.535   6.561   8.127 -1.2716 -0.2541 -0.8675
  998MOL0     H34723   4.413   6.456   8.182 -0.9542  2.0815 -0.7435
  998MOL0     H34724   4.708   6.379   8.106  0.8186  1.2373 -1.8430
  998MOL0     H34725   4.610   6.254   8.158  0.4987  0.6821 -1.0397
  998MOL0     H34726   4.452   6.340   7.760 -1.4067  1.3320  0.5386
  998MOL0     H34727   4.727   6.632   8.697 -1.7100  0.1139 -0.8665
  998MOL0     H34728   4.955   6.845   8.804  0.4556 -0.2071  0.3470
  998MOL0     H34729   4.901   6.684   8.841  0.5008 -0.7866 -0.5640
  998MOL0     H34730   5.064   6.716   8.785  0.4537  1.7797 -0.3249
  999MOL0     O34731  10.264   1.181   4.994 -0.1510 -0.5245  0.7044
  999MOL0     C34732  10.273   1.063   4.986 -0.7194  0.4991 -0.1814
  999MOL0     O34733  10.175   0.971   4.949  0.1948  0.4560  0.3582
  999MOL0     C34734  10.052   1.017   4.908 -0.0099 -0.1333 -0.2990
  999MOL0     C34735   9.974   1.117   4.966 -0.2090 -1.0025  0.5370
  999MOL0     C34736   9.839   1.132   4.935 -1.4646  0.6872 -0.5986
  999MOL0     C34737   9.784   1.055   4.835  0.5128 -0.4158  0.5862
  999MOL0     O34738   9.648   1.062   4.805  0.1096  0.0603 -0.6821
  999MOL0     C34739   9.576   1.186   4.824  0.3552  0.5403  0.2162
  999MOL0     C34740   9.440   1.160   4.753 -0.5282 -0.1460 -0.0711
  999MOL0     C34741   9.334   1.273   4.747  0.2991 -0.0374 -0.2352
  999MOL0     C34742   9.321   1.334   4.889  0.7969 -0.3730  0.6722
  999MOL0     C34743   9.181   1.416   4.902 -0.2585  0.4731 -0.4612
  999MOL0     C34744   9.146   1.451   5.044  0.7920 -0.1937 -0.3824
  999MOL0     C34745   9.128   1.322   5.127  0.5418  0.6111  0.1710
  999MOL0     C34746   9.047   1.339   5.246  0.7140 -0.7581  0.8996
  999MOL0     N34747   9.067   1.233   5.342 -0.1440 -0.5987 -0.8682
  999MOL0     C34748   9.181   1.202   5.421  0.9010  0.4315 -0.8996
  999MOL0     C34749   9.133   1.107   5.507 -0.2241  0.5456  0.2637
  999MOL0     C34750   9.208   1.022   5.601 -0.4244 -0.0857  0.6192
  999MOL0     C34751   9.241   0.885   5.531 -0.7049  0.6522  0.2915
  999MOL0     C34752   9.393   0.859   5.540  0.3003  0.0922  1.1996
  999MOL0     C34753   9.474   0.898   5.411 -0.0948  0.6661 -0.2566
  999MOL0     O34754   9.524   1.030   5.410 -0.9049  0.6079  0.0522
  999MOL0     C34755   9.665   1.027   5.410  1.1294 -0.7277 -0.5251
  999MOL0     C34756   9.735   1.010   5.297 -0.3915  0.5874  0.3896
  999MOL0     C34757   9.871   1.012   5.299 -0.1339  0.5979 -0.3007
  999MOL0     C34758   9.941   1.023   5.415  0.4063  0.9250 -1.4767
  999MOL0     C34759  10.091   1.014   5.422  1.2603  0.3451 -0.0268
  999MOL0     O34760  10.158   0.932   5.335  0.0432  0.8180  0.3742
  999MOL0     C34761  10.292   0.915   5.355 -0.3319 -0.3640 -0.5331
  999MOL0     C34762  10.344   0.794   5.302  0.4614  0.0902 -0.4044
  999MOL0     C34763  10.478   0.752   5.305 -0.4831 -0.6153 -0.2327
  999MOL0     C34764  10.576   0.835   5.363  0.0047  0.1622  0.7134
  999MOL0     O34765  10.710   0.804   5.363  0.2954  0.4447  0.1111
  999MOL0     C34766  10.790   0.843   5.479 -0.7521  0.2772  0.4956
  999MOL0     C34767  10.939   0.858   5.439  0.9846  0.3747 -0.1827
  999MOL0     C34768  11.007   0.903   5.568 -0.8367  0.6050  0.5038
  999MOL0     C34769  11.145   0.961   5.535 -0.3504  0.0759 -0.0275
  999MOL0     C34770  11.192   1.034   5.666 -0.9639  0.0137 -0.2500
  999MOL0     C34771  11.336   1.082   5.651  0.4388 -0.9320 -0.4002
  999MOL0     C34772  11.372   1.174   5.777  0.6110 -0.2504  0.1075
  999MOL0     C34773  11.378   1.096   5.911 -0.4470  0.2196 -0.6220
  999MOL0    Cl34774  11.482   0.953   5.878 -0.4181  0.1337 -0.2112
  999MOL0     C34775  10.524   0.963   5.401 -0.3667 -0.9072  0.3651
  999MOL0     C34776  10.393   1.002   5.404  0.2176 -0.2126 -0.5194
  999MOL0     O34777  10.138   1.079   5.515  0.0302  0.3146  0.1720
  999MOL0     C34778   9.869   1.069   5.525  0.3976 -0.0063  0.2155
  999MOL0     C34779   9.734   1.059   5.530 -0.1832  0.4257 -0.2560
  999MOL0     N34780   9.001   1.081   5.478  0.4104 -0.3209 -0.4559
  999MOL0     N34781   8.961   1.161   5.377  0.5100 -0.9934 -1.2148
  999MOL0     C34782   9.857   0.963   4.774 -0.3139 -0.2984  0.2435
  999MOL0     C34783   9.994   0.939   4.810 -0.4466  0.3629 -0.8318
  999MOL0     C34784  10.410   1.007   4.996  0.2604  0.0883  0.8770
  999MOL0     C34785  10.424   0.872   4.948 -0.3860  0.5750  0.1751
  999MOL0     C34786  10.554   0.816   4.939  0.8039  0.1324 -0.0280
  999MOL0     C34787  10.667   0.890   4.981 -0.3877  0.4391 -0.4936
  999MOL0     O34788  10.797   0.851   4.964 -0.3009 -0.3815 -0.9513
  999MOL0     C34789  10.831   0.729   4.906 -0.5177  1.4030 -0.2079
  999MOL0     C34790  10.814   0.595   4.980  0.5626  0.8034  0.4945
  999MOL0     C34791  10.883   0.585   5.114  0.1625  0.5046 -0.7202
  999MOL0     C34792  11.029   0.622   5.106  0.3048 -0.2353  0.1029
  999MOL0     C34793  11.118   0.545   5.020  0.0335  0.1524  0.0629
  999MOL0     C34794  11.199   0.494   4.949 -1.1144 -0.6852 -0.3448
  999MOL0     C34795  10.646   1.017   5.040  0.3274  0.1749  0.2867
  999MOL0     C34796  10.515   1.075   5.058  0.1714  0.0170 -0.3645
  999MOL0     C34797  10.505   1.213   5.127  0.5574 -1.0153  0.0180
  999MOL0     H34798  10.022   1.181   5.039  2.1302  2.4521 -3.5570
  999MOL0     H34799   9.785   1.212   4.984  3.5604  4.0842  0.0829
  999MOL0     H34800   9.571   1.205   4.932  1.3971  1.8270  0.0720
  999MOL0     H34801   9.627   1.275   4.785 -0.8219  1.2236  0.1940
  999MOL0     H34802   9.389   1.074   4.797 -1.4234  1.0986  1.4031
  999MOL0     H34803   9.469   1.133   4.651  0.0167  0.3376 -0.0424
  999MOL0     H34804   9.243   1.219   4.719  2.4218 -3.0764 -1.8165
  999MOL0     H34805   9.365   1.341   4.668 -0.1885 -0.7601 -1.0750
  999MOL0     H34806   9.327   1.253   4.962  0.9047 -0.4410  0.5898
  999MOL0     H34807   9.406   1.401   4.906  2.7849 -2.0998 -1.7241
  999MOL0     H34808   9.192   1.505   4.839  0.5587 -0.6759 -2.0055
  999MOL0     H34809   9.101   1.360   4.852 -0.1399 -0.3528  0.2484
  999MOL0     H34810   9.219   1.514   5.096 -0.2737  0.9997 -0.2766
  999MOL0     H34811   9.051   1.504   5.042  1.2179  0.5900 -0.2499
  999MOL0     H34812   9.226   1.293   5.166 -0.5613 -0.7038  2.1104
  999MOL0     H34813   9.096   1.233   5.072 -1.2020  0.0104  2.0517
  999MOL0     H34814   9.053   1.439   5.289  1.2049 -0.4410  0.1112
  999MOL0     H34815   8.946   1.337   5.204  0.8816  2.2815  0.1425
  999MOL0     H34816   9.282   1.239   5.413  1.1747 -0.0183  0.2949
  999MOL0     H34817   9.300   1.068   5.637 -0.9456  1.5477 -0.0612
  999MOL0     H34818   9.136   1.006   5.682 -2.5662  2.5763 -0.6074
  999MOL0     H34819   9.173   0.807   5.566 -0.9142  1.6756  2.2958
  999MOL0     H34820   9.204   0.889   5.428  1.0251 -0.7339 -0.4320
  999MOL0     H34821   9.411   0.752   5.557  1.5873 -0.4111 -2.3914
  999MOL0     H34822   9.434   0.908   5.629  1.9529 -1.9539  1.6440
  999MOL0     H34823   9.404   0.891   5.327 -0.9593  0.1238  0.4909
  999MOL0     H34824   9.558   0.828   5.409 -0.5069  0.0713  1.3447
  999MOL0     H34825   9.683   1.014   5.202 -0.4780 -2.0505  0.2597
  999MOL0     H34826   9.922   0.996   5.204  2.3454 -0.1771  1.0805
  999MOL0     H34827  10.267   0.738   5.249 -1.3313  2.2828 -0.2630
  999MOL0     H34828  10.514   0.663   5.253 -1.4456 -0.9664 -0.3266
  999MOL0     H34829  10.757   0.934   5.528 -2.6924 -1.6850  3.1457
  999MOL0     H34830  10.772   0.760   5.548  1.0511 -1.2766 -0.7855
  999MOL0     H34831  10.981   0.765   5.399 -0.4004  0.4033 -1.8258
  999MOL0     H34832  10.956   0.934   5.363 -1.1585  0.1580 -0.9521
  999MOL0     H34833  10.953   0.975   5.630 -2.2814 -0.0103  0.0013
  999MOL0     H34834  11.024   0.817   5.635 -2.0834  0.0319  0.1220
  999MOL0     H34835  11.136   1.039   5.458 -2.1638  0.9102  0.9573
  999MOL0     H34836  11.214   0.886   5.497  0.5226  0.2311  1.1807
  999MOL0     H34837  11.187   0.957   5.744  1.7473 -3.0276 -2.7880
  999MOL0     H34838  11.127   1.119   5.690 -2.8867 -0.9815 -1.6509
  999MOL0     H34839  11.410   1.003   5.637 -0.6307 -1.5653 -3.0789
  999MOL0     H34840  11.350   1.140   5.559 -0.3325  0.7813  0.5002
  999MOL0     H34841  11.296   1.252   5.795  2.2159  0.9793  2.0012
  999MOL0     H34842  11.471   1.217   5.763 -0.7629  3.0550 -0.3576
  999MOL0     H34843  11.414   1.167   5.985 -0.0532  1.3665 -1.8650
  999MOL0     H34844  11.277   1.063   5.939 -1.4581  4.7713  2.0689
  999MOL0     H34845  10.594   1.044   5.420 -3.0018  2.4348 -2.8586
  999MOL0     H34846  10.365   1.101   5.438  2.6983 -0.1097  1.5567
  999MOL0     H34847   9.924   1.100   5.612 -0.6321  1.4952  0.3772
  999MOL0     H34848   9.675   1.074   5.620  0.1927  0.4418 -0.0063
  999MOL0     H34849   9.815   0.897   4.700  0.9128  1.0668 -1.7645
  999MOL0     H34850  10.045   0.850   4.773 -0.4264  0.1780 -0.3683
  999MOL0     H34851  10.341   0.806   4.926 -0.3716  0.2563  1.0551
  999MOL0     H34852  10.569   0.711   4.915 -1.0772  0.4836 -3.3345
  999MOL0     H34853  10.936   0.734   4.875  0.7637 -2.8330  2.5974
  999MOL0     H34854  10.778   0.721   4.811  0.1097 -1.0240 -0.4082
  999MOL0     H34855  10.861   0.515   4.921  2.5050  1.3474  1.2427
  999MOL0     H34856  10.708   0.568   4.976  1.4029 -2.8869 -2.2110
  999MOL0     H34857  10.866   0.492   5.169 -0.4338  0.4195 -1.0493
  999MOL0     H34858  10.830   0.658   5.176  0.3916  1.0764 -1.1878
  999MOL0     H34859  11.026   0.724   5.065  1.8402 -0.1787  0.0735
  999MOL0     H34860  11.066   0.609   5.209  2.1945 -0.4222 -0.5652
  999MOL0     H34861  11.286   0.461   4.896 -0.0604  1.0829  0.2097
  999MOL0     H34862  10.730   1.071   5.083  0.5191 -0.1357  0.3021
  999MOL0     H34863  10.429   1.219   5.205  2.2861 -2.6738  1.9588
  999MOL0     H34864  10.598   1.230   5.183 -0.3023 -2.1338  1.8783
  999MOL0     H34865  10.500   1.293   5.053  1.0973 -1.6282 -0.6896
 1000MOL0     O34866   0.711   9.272   5.895 -0.1267 -0.3602  0.8361
 1000MOL0     C34867   0.626   9.323   5.976 -0.5972 -0.9794  0.7171
 1000MOL0     O34868   0.655   9.347   6.104 -0.4896 -0.3957  0.5013
 1000MOL0     C34869   0.776   9.324   6.166 -0.4566 -0.5768 -0.8753
 1000MOL0     C34870   0.862   9.214   6.142 -0.5353  0.1389 -0.6711
 1000MOL0     C34871   0.993   9.209   6.201  0.0915  1.5427 -0.3802
 1000MOL0     C34872   1.029   9.307   6.298  0.2333 -0.1674 -0.3548
 1000MOL0     O34873   1.161   9.312   6.350  0.0401  0.4322 -0.2942
 1000MOL0     C34874   1.172   9.355   6.487 -0.4166 -0.2372 -0.3058
 1000MOL0     C34875   1.297   9.289   6.544 -0.9296 -0.4068  0.4356
 1000MOL0     C34876   1.293   9.287   6.699 -0.4083  0.2062  0.2607
 1000MOL0     C34877   1.415   9.217   6.764  0.5128 -0.4815 -0.0811
 1000MOL0     C34878   1.448   9.249   6.913  0.0890  0.5895 -0.0428
 1000MOL0     C34879   1.549   9.140   6.962  0.7111 -0.4142 -0.0319
 1000MOL0     C34880   1.590   9.168   7.104  0.0393 -0.6138 -0.2209
 1000MOL0     C34881   1.652   9.300   7.138 -0.0069 -0.6753 -0.1740
 1000MOL0     N34882   1.789   9.326   7.081  0.0298  0.0525 -0.6955
 1000MOL0     C34883   1.890   9.240   7.097  0.5767 -0.4111 -0.4685
 1000MOL0     C34884   1.976   9.283   7.003 -0.3974 -0.0168  0.0085
 1000MOL0     C34885   2.106   9.208   6.980  0.8399 -0.4493  0.5520
 1000MOL0     C34886   2.203   9.273   6.874 -0.0425 -0.0110  0.1151
 1000MOL0     C34887   2.274   9.385   6.949 -0.0853 -0.8157 -0.0335
 1000MOL0     C34888   2.378   9.465   6.859  0.4501  0.4020 -0.2281
 1000MOL0     O34889   2.491   9.515   6.943 -0.2902  0.4434  0.2119
 1000MOL0     C34890   2.613   9.449   6.947  0.4882 -0.2794  1.2386
 1000MOL0     C34891   2.722   9.511   7.014  0.0855 -0.9730 -0.0273
 1000MOL0     C34892   2.841   9.447   7.007 -0.2949 -0.3955  0.1137
 1000MOL0     C34893   2.855   9.322   6.948  0.3037 -0.1154 -0.5382
 1000MOL0     C34894   2.973   9.246   6.957 -0.2733  0.5865  0.2725
 1000MOL0     O34895   2.983   9.136   6.881  0.2977  0.7769 -0.2986
 1000MOL0     C34896   3.094   9.058   6.864 -0.3682  0.4495  0.0325
 1000MOL0     C34897   3.215   9.114   6.834  1.0127  0.5889  0.0932
 1000MOL0     C34898   3.328   9.037   6.800  0.8051  0.0809  0.4568
 1000MOL0     C34899   3.313   8.891   6.796 -0.3520  0.1755 -0.2568
 1000MOL0     O34900   3.420   8.810   6.771 -0.2467  0.1941  0.5118
 1000MOL0     C34901   3.394   8.666   6.765 -0.4289 -0.2252 -0.2076
 1000MOL0     C34902   3.515   8.584   6.725  0.8932 -0.1412  0.6538
 1000MOL0     C34903   3.631   8.595   6.821  0.1628  0.3219 -0.0554
 1000MOL0     C34904   3.734   8.481   6.795  0.4156  0.2391 -0.2260
 1000MOL0     C34905   3.852   8.498   6.901  0.6119  0.2063  0.7165
 1000MOL0     C34906   3.946   8.374   6.908  0.1619 -1.1742 -0.0667
 1000MOL0     C34907   4.069   8.398   7.007 -0.0130  0.1875 -0.6286
 1000MOL0     C34908   4.162   8.279   7.019  1.6634 -0.2324 -0.7198
 1000MOL0    Cl34909   4.244   8.269   6.860  0.1178 -0.5061 -0.4660
 1000MOL0     C34910   3.181   8.835   6.818 -0.4763  0.7208 -0.7010
 1000MOL0     C34911   3.079   8.921   6.852 -0.2379 -0.6165  0.3336
 1000MOL0     O34912   3.061   9.269   7.038 -0.4386 -0.0588  0.1793
 1000MOL0     C34913   2.737   9.265   6.898  0.1333 -0.1191  0.1333
 1000MOL0     C34914   2.624   9.331   6.890  0.6991  0.8516 -0.1777
 1000MOL0     N34915   1.930   9.392   6.936  0.1211 -0.1111 -0.0169
 1000MOL0     N34916   1.821   9.427   6.990 -1.0498  0.2424 -0.0074
 1000MOL0     C34917   0.949   9.418   6.323 -0.1965 -0.1246  0.5869
 1000MOL0     C34918   0.821   9.422   6.261 -0.5143  0.0793  0.1835
 1000MOL0     C34919   0.504   9.377   5.908 -0.4613  0.6001 -0.1809
 1000MOL0     C34920   0.448   9.294   5.811  0.3322  0.3344  0.2582
 1000MOL0     C34921   0.332   9.339   5.741 -0.6806  0.2903 -0.3773
 1000MOL0     C34922   0.277   9.467   5.762 -1.2699 -0.5580  0.0484
 1000MOL0     O34923   0.174   9.517   5.692  0.5675 -0.2732  0.1814
 1000MOL0     C34924   0.193   9.502   5.550  0.5262 -0.4216  0.3248
 1000MOL0     C34925   0.065   9.545   5.477 -0.2569  0.5420  0.0098
 1000MOL0     C34926   0.075   9.510   5.328  0.3005 -0.8329  0.6932
 1000MOL0     C34927   0.202   9.550   5.247 -0.2882 -0.3247  0.5669
 1000MOL0     C34928   0.209   9.686   5.244  0.4135  0.2934 -0.8296
 1000MOL0     C34929   0.213   9.803   5.239 -0.0677  0.2131  1.1652
 1000MOL0     C34930   0.331   9.549   5.863  0.4354 -0.6813  0.0850
 1000MOL0     C34931   0.435   9.493   5.945  0.3363 -0.7912 -0.4200
 1000MOL0     C34932   0.485   9.583   6.058  0.4055 -0.1520  1.1260
 1000MOL0     H34933   0.835   9.136   6.072  0.6700 -0.9293  0.0104
 1000MOL0     H34934   1.050   9.123   6.168 -0.2055  0.4208  1.8336
 1000MOL0     H34935   1.183   9.463   6.483 -2.1221 -0.0726 -1.5580
 1000MOL0     H34936   1.088   9.330   6.553  0.0521  1.0042  0.8003
 1000MOL0     H34937   1.390   9.339   6.515  0.1772 -2.5510  0.0949
 1000MOL0     H34938   1.299   9.185   6.508 -0.5715 -0.2317 -0.0613
 1000MOL0     H34939   1.204   9.232   6.730 -0.4939 -0.6794 -1.4286
 1000MOL0     H34940   1.289   9.388   6.740  0.4614  0.2576  0.2535
 1000MOL0     H34941   1.400   9.109   6.753  0.6413 -0.3174 -2.2740
 1000MOL0     H34942   1.506   9.234   6.706  1.1713 -2.1030  0.4066
 1000MOL0     H34943   1.494   9.348   6.911  0.7470  0.2893 -1.7837
 1000MOL0     H34944   1.360   9.245   6.978 -1.0259  0.1772 -1.5104
 1000MOL0     H34945   1.490   9.048   6.958 -1.3967  0.8398  0.6400
 1000MOL0     H34946   1.623   9.122   6.883 -0.1202  0.5453 -1.0697
 1000MOL0     H34947   1.660   9.089   7.129 -0.3010 -0.9721 -0.3949
 1000MOL0     H34948   1.503   9.154   7.169  0.9846 -1.0927  0.9745
 1000MOL0     H34949   1.584   9.382   7.112  0.4034  0.6735  2.6177
 1000MOL0     H34950   1.648   9.311   7.247 -2.5809 -5.9033  0.5828
 1000MOL0     H34951   1.898   9.149   7.155 -0.1904 -1.1452 -1.4727
 1000MOL0     H34952   2.157   9.199   7.077  3.2616  0.9063 -0.5063
 1000MOL0     H34953   2.079   9.107   6.947 -0.4890 -0.5763  1.9240
 1000MOL0     H34954   2.270   9.199   6.829 -2.2117 -3.7140  2.3921
 1000MOL0     H34955   2.152   9.325   6.793 -1.2727  0.4976  1.1886
 1000MOL0     H34956   2.328   9.343   7.035  2.5883  2.0720 -0.0978
 1000MOL0     H34957   2.202   9.454   6.992  0.9367 -0.5948  1.4044
 1000MOL0     H34958   2.340   9.557   6.814 -0.8655  0.7474  1.4546
 1000MOL0     H34959   2.406   9.408   6.771 -1.6101  0.1652 -0.7772
 1000MOL0     H34960   2.694   9.606   7.060 -1.7343 -1.5758  0.2019
 1000MOL0     H34961   2.914   9.520   7.040 -1.0572  0.6159 -0.3688
 1000MOL0     H34962   3.204   9.220   6.812 -0.9998 -0.1996 -3.7152
 1000MOL0     H34963   3.422   9.088   6.780  1.7121 -1.3416  0.9871
 1000MOL0     H34964   3.349   8.640   6.861 -2.0911  0.1017 -0.8669
 1000MOL0     H34965   3.313   8.647   6.694 -1.1010  1.4112  0.0590
 1000MOL0     H34966   3.468   8.485   6.722 -1.0950  0.7564 -1.3836
 1000MOL0     H34967   3.537   8.606   6.620 -0.8705 -3.3533 -0.5096
 1000MOL0     H34968   3.669   8.697   6.814 -2.7505  1.7067  2.1096
 1000MOL0     H34969   3.591   8.593   6.923 -1.6818 -0.4760 -0.7576
 1000MOL0     H34970   3.781   8.497   6.697  0.0514  1.1833 -0.2576
 1000MOL0     H34971   3.689   8.382   6.791  0.6022  0.1866 -1.6658
 1000MOL0     H34972   3.819   8.521   7.002  1.1307  2.1609  0.5021
 1000MOL0     H34973   3.912   8.587   6.875 -0.3608  0.7086  0.1375
 1000MOL0     H34974   3.897   8.283   6.945  0.2778 -2.2710 -2.4275
 1000MOL0     H34975   3.968   8.342   6.805 -0.3634  1.4919 -1.0866
 1000MOL0     H34976   4.034   8.412   7.110  1.7691 -0.0374  0.0615
 1000MOL0     H34977   4.121   8.487   6.971 -0.8910  1.5573  1.3083
 1000MOL0     H34978   4.227   8.298   7.104  1.6452 -0.4585 -0.6545
 1000MOL0     H34979   4.105   8.189   7.043  1.5136  0.1668  0.5214
 1000MOL0     H34980   3.163   8.729   6.807  1.8078  0.0659  1.0023
 1000MOL0     H34981   2.977   8.887   6.867 -0.9979  2.4491  3.7168
 1000MOL0     H34982   2.735   9.164   6.858  3.1816  1.4894 -4.9878
 1000MOL0     H34983   2.546   9.273   6.843  0.1323 -0.3441  2.1067
 1000MOL0     H34984   0.995   9.505   6.369  0.9305 -0.2745 -0.1968
 1000MOL0     H34985   0.759   9.511   6.263 -2.3805 -1.1597  0.4931
 1000MOL0     H34986   0.491   9.195   5.796 -0.0593  0.2354 -0.2503
 1000MOL0     H34987   0.290   9.273   5.666 -1.1524 -3.5141  2.8687
 1000MOL0     H34988   0.200   9.396   5.523 -1.8338  0.0922 -2.9311
 1000MOL0     H34989   0.279   9.558   5.513  1.7538 -1.2403  1.8554
 1000MOL0     H34990   0.042   9.651   5.485  0.8725  0.9285 -1.4846
 1000MOL0     H34991  -0.018   9.483   5.513 -0.0587  0.7761  0.9163
 1000MOL0     H34992  -0.011   9.560   5.282  1.7416  1.2669  0.1257
 1000MOL0     H34993   0.065   9.401   5.326  0.2171 -0.8160  0.0522
 1000MOL0     H34994   0.296   9.506   5.281  0.4116  1.2189  0.6751
 1000MOL0     H34995   0.195   9.515   5.143  3.0733  2.0498 -0.6494
 1000MOL0     H34996   0.222   9.908   5.218 -0.2482 -0.2628 -1.6321
 1000MOL0     H34997   0.268   9.633   5.893 -3.4332 -1.8377 -3.7006
 1000MOL0     H34998   0.467   9.522   6.147 -0.5314  0.6043  1.4594
 1000MOL0     H34999   0.592   9.604   6.044  0.1300  0.8868  0.5093
 1000MOL0     H35000   0.439   9.682   6.056  0.2422 -0.2371  0.4626
 1001MOL0     O35001   7.534   9.799   0.663  0.3415  0.0642 -0.0328
 1001MOL0     C35002   7.561   9.706   0.588 -0.9622 -0.3419  0.8817
 1001MOL0     O35003   7.668   9.618   0.609  0.3449  0.7708 -0.1920
 1001MOL0     C35004   7.789   9.664   0.664  1.1398  0.2905  0.5091
 1001MOL0     C35005   7.875   9.572   0.711 -0.1233  0.9663 -0.1930
 1001MOL0     C35006   7.999   9.598   0.774  0.1557 -0.3414  0.6971
 1001MOL0     C35007   8.053   9.727   0.780 -0.0654  0.5375  0.4543
 1001MOL0     O35008   8.160   9.756   0.862 -0.4354 -0.0033  0.0973
 1001MOL0     C35009   8.207   9.892   0.891 -0.3870  0.2920  0.1225
 1001MOL0     C35010   8.291   9.954   0.772  0.6426 -0.0737  0.3135
 1001MOL0     C35011   8.437   9.934   0.757  0.3781 -0.0858 -0.0884
 1001MOL0     C35012   8.506   9.984   0.895  0.3056  0.9265 -0.3309
 1001MOL0     C35013   8.668   9.993   0.905 -0.0986 -0.4570  0.1561
 1001MOL0     C35014   8.712  10.139   0.860  1.0422 -0.1550  0.5877
 1001MOL0     C35015   8.863  10.153   0.860 -0.1811  0.8522 -0.3817
 1001MOL0     C35016   8.920  10.052   0.754  0.0822  0.8664  0.5686
 1001MOL0     N35017   9.017   9.950   0.808  0.8112 -0.4296  0.1343
 1001MOL0     C35018   9.101   9.872   0.738 -0.9894  0.4094 -0.1089
 1001MOL0     C35019   9.186   9.821   0.823 -0.6731  0.1552  1.0967
 1001MOL0     C35020   9.300   9.737   0.774  1.2086 -0.1904  0.2023
 1001MOL0     C35021   9.408   9.734   0.884  0.4901  0.0708 -0.2343
 1001MOL0     C35022   9.480   9.864   0.906  0.4952  0.1700  0.3644
 1001MOL0     C35023   9.605   9.837   0.992 -0.9094 -0.4325 -0.1655
 1001MOL0     O35024   9.723   9.802   0.910 -0.1273 -0.2752 -0.4129
 1001MOL0     C35025   9.826   9.738   0.973 -0.9101 -1.0390  0.2722
 1001MOL0     C35026   9.849   9.745   1.116 -0.1649 -0.3078  0.2615
 1001MOL0     C35027   9.966   9.703   1.173 -0.4052  0.3958  0.1073
 1001MOL0     C35028  10.063   9.652   1.093 -0.1700 -0.1915  0.0929
 1001MOL0     C35029  10.197   9.616   1.145 -0.0658  0.8267 -0.9323
 1001MOL0     O35030  10.264   9.509   1.089 -0.0933  0.1744 -0.0697
 1001MOL0     C35031  10.390   9.467   1.141 -0.1755 -0.1924  0.2281
 1001MOL0     C35032  10.484   9.562   1.176  0.6675  0.6949 -0.0373
 1001MOL0     C35033  10.607   9.522   1.226 -0.4617  0.6664 -0.5741
 1001MOL0     C35034  10.636   9.383   1.245  0.2045  0.1360  0.1194
 1001MOL0     O35035  10.763   9.344   1.280 -0.5793 -0.4892 -0.5636
 1001MOL0     C35036  10.781   9.217   1.336  0.6063  0.8445  0.1885
 1001MOL0     C35037  10.932   9.200   1.353  0.2684 -0.3918  0.0496
 1001MOL0     C35038  10.970   9.255   1.490 -0.1181 -0.2302  0.1915
 1001MOL0     C35039  11.125   9.266   1.503  0.2626 -0.0995  1.1764
 1001MOL0     C35040  11.185   9.339   1.620 -0.4835  0.0830 -0.2038
 1001MOL0     C35041  11.347   9.330   1.603 -0.9326  0.1835 -0.5936
 1001MOL0     C35042  11.420   9.423   1.704 -0.0915 -0.1390  0.0072
 1001MOL0     C35043  11.453   9.552   1.638 -0.6874 -0.4109  0.9693
 1001MOL0    Cl35044  11.603   9.532   1.545 -0.2951 -0.2357  0.0125
 1001MOL0     C35045  10.534   9.299   1.208  0.0011  0.0947  0.6465
 1001MOL0     C35046  10.414   9.339   1.147  0.2607  0.6729  0.2676
 1001MOL0     O35047  10.242   9.689   1.235 -0.3992  0.0523  0.0943
 1001MOL0     C35048  10.041   9.642   0.956  0.3417 -0.6700  0.1354
 1001MOL0     C35049   9.924   9.687   0.893  0.6745 -1.0443 -0.2074
 1001MOL0     N35050   9.146   9.860   0.953  0.0329 -0.3290 -0.1805
 1001MOL0     N35051   9.052   9.939   0.936 -0.3425 -1.2216 -0.4000
 1001MOL0     C35052   7.971   9.829   0.732  0.0118  0.1177  0.0759
 1001MOL0     C35053   7.838   9.799   0.677  0.0596 -0.6688  0.4960
 1001MOL0     C35054   7.468   9.694   0.469 -0.1596  0.1252 -0.3469
 1001MOL0     C35055   7.468   9.572   0.402 -0.7563 -0.8942 -0.0839
 1001MOL0     C35056   7.370   9.539   0.305  0.3517  0.3709  0.3254
 1001MOL0     C35057   7.263   9.633   0.284 -0.6385  0.4937  0.3394
 1001MOL0     O35058   7.166   9.589   0.195  0.1346  0.2023  0.5556
 1001MOL0     C35059   7.077   9.680   0.125 -0.6405 -0.5638  0.1932
 1001MOL0     C35060   6.956   9.600   0.075 -0.5829 -0.0909 -0.2056
 1001MOL0     C35061   6.870   9.543   0.190  1.0000 -0.2681 -0.2973
 1001MOL0     C35062   6.740   9.484   0.138 -0.7943  0.3182  0.3434
 1001MOL0     C35063   6.769   9.364   0.056 -0.1260  0.6279  0.0623
 1001MOL0     C35064   6.787   9.263  -0.011 -0.2212  0.8903  0.5553
 1001MOL0     C35065   7.264   9.760   0.346  0.1999  0.5254  0.2352
 1001MOL0     C35066   7.377   9.795   0.427  0.0895 -0.2660  0.2717
 1001MOL0     C35067   7.368   9.939   0.476 -0.9570 -0.2693  0.1167
 1001MOL0     H35068   7.848   9.467   0.703 -1.3194  1.1079  1.5264
 1001MOL0     H35069   8.025   9.510   0.831  0.8004  0.1295  1.1435
 1001MOL0     H35070   8.137   9.967   0.927  0.2906 -0.0869  2.3809
 1001MOL0     H35071   8.270   9.875   0.978  1.2230  0.3423 -0.9809
 1001MOL0     H35072   8.274  10.061   0.790  4.5168  0.9007 -0.8798
 1001MOL0     H35073   8.254   9.925   0.673  2.4796  2.6384 -1.3079
 1001MOL0     H35074   8.477   9.986   0.669  1.5095  1.2145  1.1346
 1001MOL0     H35075   8.459   9.828   0.740 -2.2386 -0.5299 -1.0744
 1001MOL0     H35076   8.465  10.079   0.929 -0.7081  0.3127  0.2368
 1001MOL0     H35077   8.475   9.920   0.978  0.9810 -0.2498 -0.9419
 1001MOL0     H35078   8.699   9.978   1.009  1.8906 -1.8319 -0.5774
 1001MOL0     H35079   8.711   9.914   0.843 -0.4114 -2.6821  2.5844
 1001MOL0     H35080   8.668  10.153   0.761  0.8896 -2.4506  0.2869
 1001MOL0     H35081   8.670  10.210   0.932  0.3157  0.8944 -0.8188
 1001MOL0     H35082   8.900  10.128   0.960 -0.4498 -0.9135 -0.6847
 1001MOL0     H35083   8.874  10.259   0.839 -0.0296  0.9904  0.3794
 1001MOL0     H35084   8.835  10.008   0.701 -0.1167  0.1113  1.5055
 1001MOL0     H35085   8.980  10.110   0.682  2.5797 -0.8787  1.1195
 1001MOL0     H35086   9.108   9.857   0.631  1.7091  1.1641 -0.1069
 1001MOL0     H35087   9.258   9.637   0.763 -0.5208  0.2395  2.1982
 1001MOL0     H35088   9.341   9.775   0.680  0.1328 -0.2060 -0.2826
 1001MOL0     H35089   9.350   9.715   0.975 -1.4784 -0.7248 -1.6021
 1001MOL0     H35090   9.471   9.644   0.880 -1.1630 -1.2222  1.0153
 1001MOL0     H35091   9.415   9.940   0.951  1.1308  0.1140  1.4291
 1001MOL0     H35092   9.515   9.909   0.813 -0.8953  0.8176  0.1231
 1001MOL0     H35093   9.591   9.750   1.057 -1.6612 -0.3987 -0.2794
 1001MOL0     H35094   9.630   9.925   1.053  2.7588 -0.9114 -0.7329
 1001MOL0     H35095   9.786   9.790   1.192  1.9195  0.0504  1.8797
 1001MOL0     H35096   9.975   9.699   1.281  0.9741 -3.2968 -0.0225
 1001MOL0     H35097  10.473   9.665   1.145 -0.4730  0.3798 -0.7390
 1001MOL0     H35098  10.677   9.599   1.258  0.2105 -0.2443  0.2030
 1001MOL0     H35099  10.730   9.202   1.432 -0.7925  3.2086 -0.1000
 1001MOL0     H35100  10.736   9.143   1.269 -3.5818  1.9735  1.4568
 1001MOL0     H35101  10.950   9.093   1.365  0.8299 -0.5475 -1.8259
 1001MOL0     H35102  10.984   9.243   1.266 -1.4822  0.7975 -0.4714
 1001MOL0     H35103  10.938   9.358   1.504  0.7818 -0.0861  1.3603
 1001MOL0     H35104  10.927   9.188   1.565 -0.9006  1.4095  1.2717
 1001MOL0     H35105  11.170   9.304   1.411 -1.7821 -1.1159 -0.3417
 1001MOL0     H35106  11.167   9.165   1.503  2.3154  0.7119  0.7170
 1001MOL0     H35107  11.151   9.296   1.715 -1.6370  2.8121  0.7149
 1001MOL0     H35108  11.147   9.441   1.613 -2.8146 -0.6027  1.0573
 1001MOL0     H35109  11.383   9.227   1.609 -0.4544  0.3298 -0.8618
 1001MOL0     H35110  11.377   9.354   1.501  1.6003  0.1653  0.0781
 1001MOL0     H35111  11.513   9.382   1.743  0.8276  2.2424  0.4929
 1001MOL0     H35112  11.357   9.462   1.784  1.4343  1.1535  0.6331
 1001MOL0     H35113  11.374   9.582   1.570  1.6370  1.4394 -1.1241
 1001MOL0     H35114  11.475   9.637   1.704  1.6267  0.4503 -0.7545
 1001MOL0     H35115  10.560   9.194   1.200  1.3741  0.4900 -0.4844
 1001MOL0     H35116  10.349   9.262   1.107  1.8551 -0.9437  0.7089
 1001MOL0     H35117  10.117   9.603   0.890 -0.0281  0.5986 -1.1143
 1001MOL0     H35118   9.907   9.680   0.786 -0.7431  2.6353 -0.3884
 1001MOL0     H35119   8.004   9.932   0.741  1.9399 -0.6556  3.7262
 1001MOL0     H35120   7.776   9.879   0.637  1.0828  0.0279  0.2559
 1001MOL0     H35121   7.537   9.494   0.430 -2.5711 -2.7562 -0.5591
 1001MOL0     H35122   7.376   9.447   0.248 -0.5376  0.6871 -0.3140
 1001MOL0     H35123   7.125   9.718   0.034 -0.9035  0.0416  0.3062
 1001MOL0     H35124   7.050   9.763   0.190 -0.7145 -0.3585 -0.0950
 1001MOL0     H35125   6.987   9.518   0.009  0.2872 -0.8902  1.1546
 1001MOL0     H35126   6.896   9.668   0.014 -0.0140  1.5357  1.0013
 1001MOL0     H35127   6.843   9.622   0.261 -0.7184  0.9114 -2.1540
 1001MOL0     H35128   6.915   9.463   0.250 -0.3780  1.1974  2.9264
 1001MOL0     H35129   6.674   9.466   0.222 -1.4660  0.2312 -0.1923
 1001MOL0     H35130   6.690   9.564   0.081 -0.3188  1.8856  2.0341
 1001MOL0     H35131   6.791   9.181  -0.079 -2.8197  1.6911 -0.6921
 1001MOL0     H35132   7.182   9.829   0.325 -2.0426 -1.7641  0.9918
 1001MOL0     H35133   7.342   9.937   0.582  1.1155 -1.2812  0.6596
 1001MOL0     H35134   7.461   9.996   0.478  0.4267 -2.3590  2.6457
 1001MOL0     H35135   7.287   9.998   0.431 -0.3463  1.4278  1.1660
 1002MOL0     O35136   1.301   1.034   7.112  0.3436 -0.0141  0.2031
 1002MOL0     C35137   1.254   1.065   7.222 -0.4117  0.1574 -0.4734
 1002MOL0     O35138   1.330   1.094   7.334 -0.4768  0.3899 -0.3686
 1002MOL0     C35139   1.466   1.086   7.324 -0.9485  0.8156 -0.3100
 1002MOL0     C35140   1.553   1.205   7.326  0.5891  0.4107 -0.3236
 1002MOL0     C35141   1.690   1.188   7.340  0.4592 -0.0105  0.2032
 1002MOL0     C35142   1.744   1.058   7.347 -0.1520  0.6713 -0.4455
 1002MOL0     O35143   1.880   1.034   7.373  0.6370  0.4015 -0.5064
 1002MOL0     C35144   1.977   1.109   7.307 -0.5349 -0.4394  0.3749
 1002MOL0     C35145   2.104   1.026   7.281  0.5785 -0.2613  0.2779
 1002MOL0     C35146   2.147   0.948   7.399  0.4438 -0.2535  0.0558
 1002MOL0     C35147   2.258   0.862   7.356  0.9910  0.1361 -0.0718
 1002MOL0     C35148   2.304   0.768   7.473  1.0810  0.4225 -0.6089
 1002MOL0     C35149   2.385   0.653   7.417 -0.5169 -0.1172 -0.4971
 1002MOL0     C35150   2.449   0.567   7.535  0.2033  0.4763 -0.4976
 1002MOL0     C35151   2.481   0.424   7.495  0.1920 -0.9660  0.0335
 1002MOL0     N35152   2.588   0.419   7.390  0.3837 -0.5495  0.3592
 1002MOL0     C35153   2.710   0.470   7.418  0.1285  0.0802 -1.4030
 1002MOL0     C35154   2.777   0.464   7.307 -0.4457  0.9652  0.1381
 1002MOL0     C35155   2.913   0.521   7.314 -0.7478 -0.1198 -0.0816
 1002MOL0     C35156   3.015   0.442   7.231  0.4111  0.1797 -0.7361
 1002MOL0     C35157   3.150   0.494   7.257  0.2779  0.1761  0.5803
 1002MOL0     C35158   3.266   0.410   7.174  0.6674 -0.1332 -0.5315
 1002MOL0     O35159   3.395   0.453   7.230 -0.1492  0.2511  0.4735
 1002MOL0     C35160   3.512   0.417   7.173  0.8024  0.1399  0.5001
 1002MOL0     C35161   3.532   0.308   7.093  0.5620 -0.6866 -0.3383
 1002MOL0     C35162   3.654   0.280   7.040 -0.1165 -0.3131  1.1293
 1002MOL0     C35163   3.760   0.375   7.050  0.4585  1.2814  0.2407
 1002MOL0     C35164   3.894   0.351   6.987  0.0310 -0.6027  0.1478
 1002MOL0     O35165   3.903   0.261   6.875 -0.4407 -0.2190 -0.1326
 1002MOL0     C35166   4.017   0.198   6.825  0.0391  0.2074 -0.5271
 1002MOL0     C35167   4.145   0.192   6.891  0.6763  0.1179  0.0794
 1002MOL0     C35168   4.246   0.108   6.838 -0.9486 -0.3872 -0.0121
 1002MOL0     C35169   4.241   0.040   6.713 -0.4205 -0.8122 -0.5363
 1002MOL0     O35170   4.342  -0.033   6.659  0.6229 -0.3694  0.3139
 1002MOL0     C35171   4.480  -0.010   6.687 -0.3192  1.2015  1.2841
 1002MOL0     C35172   4.555  -0.126   6.630  0.6526 -0.2606  0.7911
 1002MOL0     C35173   4.699  -0.097   6.621  0.0420 -0.5894  0.5682
 1002MOL0     C35174   4.762  -0.240   6.598 -0.4740 -0.4567  0.3456
 1002MOL0     C35175   4.907  -0.229   6.618 -0.4263  0.0807  0.1597
 1002MOL0     C35176   4.943  -0.237   6.765  0.7401 -0.2689  0.5453
 1002MOL0     C35177   5.093  -0.287   6.772 -0.2378  0.1947 -0.1075
 1002MOL0     C35178   5.196  -0.198   6.700  0.1163 -0.7591 -0.7388
 1002MOL0    Cl35179   5.183  -0.030   6.776  0.1902 -0.0974  0.1034
 1002MOL0     C35180   4.121   0.051   6.648 -0.1248 -0.2275 -0.8723
 1002MOL0     C35181   4.011   0.128   6.701 -0.7719 -0.6011  0.4260
 1002MOL0     O35182   3.992   0.404   7.037 -0.2623  0.5107 -0.3009
 1002MOL0     C35183   3.741   0.487   7.116 -0.4658 -1.3644  0.4163
 1002MOL0     C35184   3.619   0.511   7.183 -0.2081 -0.2151 -0.5925
 1002MOL0     N35185   2.691   0.428   7.199 -0.5898  0.3776 -0.5493
 1002MOL0     N35186   2.578   0.400   7.249  0.0691 -0.1898 -0.0234
 1002MOL0     C35187   1.663   0.943   7.324  0.0274 -0.3430 -0.6152
 1002MOL0     C35188   1.522   0.960   7.313 -0.1552  0.0769  0.1885
 1002MOL0     C35189   1.111   1.055   7.246 -0.2988  0.5409 -0.2743
 1002MOL0     C35190   1.064   1.013   7.381 -0.7015  0.0361  0.0050
 1002MOL0     C35191   0.929   0.991   7.412  0.0739 -0.2114 -0.3241
 1002MOL0     C35192   0.833   1.008   7.319  0.0856 -0.0171  0.9725
 1002MOL0     O35193   0.698   0.991   7.345  0.7002 -0.7635 -0.5982
 1002MOL0     C35194   0.646   1.082   7.443  0.0488 -0.5290 -0.9401
 1002MOL0     C35195   0.614   1.024   7.581 -0.0772  0.4951  0.5056
 1002MOL0     C35196   0.546   1.120   7.670  1.6144 -0.5554 -0.2231
 1002MOL0     C35197   0.454   1.059   7.784 -0.7461  0.0839 -0.0098
 1002MOL0     C35198   0.522   0.989   7.897 -0.1045  0.4344  0.6208
 1002MOL0     C35199   0.598   0.929   7.972 -0.4259 -0.1264 -0.8146
 1002MOL0     C35200   0.869   1.050   7.184  0.6459  0.1268  0.1646
 1002MOL0     C35201   1.003   1.079   7.151  0.5365 -0.1663  0.0439
 1002MOL0     C35202   1.029   1.142   7.008 -0.4163 -0.2288  0.6421
 1002MOL0     H35203   1.508   1.304   7.327  0.0822  0.2128  2.0805
 1002MOL0     H35204   1.754   1.274   7.353  2.6260 -1.6142  0.7552
 1002MOL0     H35205   1.956   1.142   7.205  0.4472  1.8163  0.8388
 1002MOL0     H35206   1.990   1.195   7.374  0.8638  1.2080 -1.8648
 1002MOL0     H35207   2.183   1.096   7.252 -0.3361  2.1900  3.1328
 1002MOL0     H35208   2.066   0.962   7.202 -0.9506  1.7644 -0.7254
 1002MOL0     H35209   2.070   0.879   7.438  0.3744  0.0800  0.5175
 1002MOL0     H35210   2.181   1.021   7.472  1.4574 -2.4189  1.8579
 1002MOL0     H35211   2.213   0.796   7.281 -2.3712  0.9579  1.0683
 1002MOL0     H35212   2.344   0.916   7.314  2.0247  0.3551  2.1987
 1002MOL0     H35213   2.355   0.823   7.552 -1.7135  2.5633 -0.1034
 1002MOL0     H35214   2.220   0.715   7.519  1.9237 -0.9576 -0.6069
 1002MOL0     H35215   2.316   0.597   7.352 -0.2243  1.5013 -2.2820
 1002MOL0     H35216   2.470   0.684   7.357  0.3647 -3.2356 -1.0604
 1002MOL0     H35217   2.385   0.566   7.625  0.0239  2.3356 -0.5722
 1002MOL0     H35218   2.539   0.618   7.569 -1.4709  1.8292  2.3584
 1002MOL0     H35219   2.516   0.369   7.583  1.5821  2.0792  1.5325
 1002MOL0     H35220   2.385   0.381   7.464 -1.6750  1.9403  1.3359
 1002MOL0     H35221   2.753   0.496   7.515 -0.3524 -2.8202 -0.2799
 1002MOL0     H35222   2.903   0.626   7.284 -0.0267  0.4578  1.5719
 1002MOL0     H35223   2.949   0.531   7.417 -1.7496  2.3846  0.0948
 1002MOL0     H35224   3.006   0.336   7.259  1.5126  0.6059  1.5003
 1002MOL0     H35225   2.994   0.459   7.125 -0.7159  1.4020 -0.3476
 1002MOL0     H35226   3.185   0.488   7.360  1.3097  0.1554  0.2381
 1002MOL0     H35227   3.157   0.596   7.219  0.8349  0.1031  0.4839
 1002MOL0     H35228   3.266   0.425   7.066 -2.8596 -1.0753 -0.7786
 1002MOL0     H35229   3.253   0.303   7.195  0.4633  0.3115  1.8407
 1002MOL0     H35230   3.450   0.239   7.078  0.4840 -0.5150 -0.7189
 1002MOL0     H35231   3.661   0.191   6.978 -1.5986 -0.9873  1.8619
 1002MOL0     H35232   4.146   0.231   6.992  0.5589 -1.3840  0.7006
 1002MOL0     H35233   4.335   0.111   6.899 -0.2765 -1.3777 -0.9073
 1002MOL0     H35234   4.508   0.083   6.637  0.3173  0.0340 -0.6559
 1002MOL0     H35235   4.487  -0.004   6.796 -2.1353  0.8071  1.4625
 1002MOL0     H35236   4.527  -0.213   6.690 -1.3554  0.4999  1.0328
 1002MOL0     H35237   4.527  -0.146   6.527  1.6771 -1.9294  0.7955
 1002MOL0     H35238   4.722  -0.021   6.546 -3.2436  0.9934  0.9946
 1002MOL0     H35239   4.744  -0.051   6.709  0.7886  0.5658 -0.3950
 1002MOL0     H35240   4.747  -0.262   6.492  3.1212  1.8577 -0.8513
 1002MOL0     H35241   4.716  -0.307   6.671 -0.1791  1.5022  2.4428
 1002MOL0     H35242   4.940  -0.140   6.563 -2.3739 -0.5308 -2.2004
 1002MOL0     H35243   4.955  -0.312   6.565  0.9566  0.1673  1.2328
 1002MOL0     H35244   4.935  -0.142   6.818 -1.9490  0.8669 -1.6560
 1002MOL0     H35245   4.870  -0.300   6.816 -0.8885  1.6398  0.6772
 1002MOL0     H35246   5.084  -0.390   6.734 -3.4663 -0.1824  1.2962
 1002MOL0     H35247   5.112  -0.279   6.879 -2.6419  3.5807  0.2312
 1002MOL0     H35248   5.296  -0.241   6.712  0.4649  0.3009  0.4045
 1002MOL0     H35249   5.168  -0.187   6.595 -1.5263 -2.0257 -0.4762
 1002MOL0     H35250   4.131   0.002   6.552 -3.0000 -1.4514 -0.6752
 1002MOL0     H35251   3.925   0.124   6.634 -0.8468 -3.7441  0.5584
 1002MOL0     H35252   3.824   0.556   7.129  1.4585 -3.0464 -1.8497
 1002MOL0     H35253   3.612   0.593   7.254 -0.3262 -1.7405  1.2471
 1002MOL0     H35254   1.706   0.844   7.326  1.6878  0.3650  0.3268
 1002MOL0     H35255   1.456   0.874   7.315  2.0024 -1.6799  0.0611
 1002MOL0     H35256   1.135   1.005   7.463  0.9946  0.7808 -1.3327
 1002MOL0     H35257   0.894   0.947   7.505 -0.7876  2.1514  0.5561
 1002MOL0     H35258   0.559   1.134   7.402  0.4587 -0.5163 -1.8185
 1002MOL0     H35259   0.720   1.159   7.464 -2.0294  1.8390 -1.9056
 1002MOL0     H35260   0.707   0.989   7.627 -1.3464 -1.4095  1.7969
 1002MOL0     H35261   0.556   0.933   7.561  1.9254 -0.4623 -1.4351
 1002MOL0     H35262   0.486   1.191   7.612  1.4922  0.8812  1.5799
 1002MOL0     H35263   0.613   1.185   7.726  0.3204  1.1793 -0.5999
 1002MOL0     H35264   0.398   1.134   7.840  1.8301  0.0457  2.8841
 1002MOL0     H35265   0.378   0.994   7.739  1.4868 -2.5664 -0.2436
 1002MOL0     H35266   0.668   0.866   8.024  0.1395  0.0036 -1.4008
 1002MOL0     H35267   0.783   1.044   7.118  0.7336  0.0995  0.0536
 1002MOL0     H35268   1.094   1.066   6.964 -2.2891 -2.3028  1.2965
 1002MOL0     H35269   0.943   1.143   6.940 -0.3571 -0.6553  0.5595
 1002MOL0     H35270   1.077   1.240   7.020  0.4390 -0.3123 -1.5816
 1003MOL0     O35271   0.290   4.347   0.622  0.0465  0.8426 -0.2050
 1003MOL0     C35272   0.269   4.233   0.576  0.7187 -0.3202 -0.2278
 1003MOL0     O35273   0.366   4.147   0.542  0.1860  0.3890  0.9862
 1003MOL0     C35274   0.497   4.166   0.569  0.8740  0.3659 -0.0029
 1003MOL0     C35275   0.573   4.098   0.473  0.0818  0.5416 -0.3703
 1003MOL0     C35276   0.714   4.095   0.492  0.5012 -0.5844 -0.8808
 1003MOL0     C35277   0.769   4.166   0.602 -0.2944 -0.0510  0.5163
 1003MOL0     O35278   0.907   4.152   0.626 -0.1410 -0.3826 -0.5863
 1003MOL0     C35279   0.971   4.257   0.703 -0.1682 -0.5559 -0.2949
 1003MOL0     C35280   1.114   4.245   0.664 -0.0413 -0.3043  0.6339
 1003MOL0     C35281   1.144   4.240   0.512 -0.1666 -0.3746  0.8124
 1003MOL0     C35282   1.125   4.381   0.447 -0.2715 -0.6668  0.4768
 1003MOL0     C35283   1.119   4.390   0.300 -1.0460  0.2909  0.9818
 1003MOL0     C35284   0.988   4.319   0.250 -0.4309 -0.2085  0.9841
 1003MOL0     C35285   0.854   4.386   0.282 -0.5449  0.7996  0.3412
 1003MOL0     C35286   0.746   4.311   0.213 -0.5081  0.2106  0.5095
 1003MOL0     N35287   0.625   4.401   0.191  0.3706  0.0425  1.1403
 1003MOL0     C35288   0.497   4.399   0.248 -0.3658 -0.0530  0.4934
 1003MOL0     C35289   0.429   4.505   0.183 -0.1730  0.4616  0.1177
 1003MOL0     C35290   0.286   4.555   0.207 -0.5763  0.5253  0.0692
 1003MOL0     C35291   0.205   4.506   0.079  0.2168  0.0119 -0.9048
 1003MOL0     C35292   0.064   4.495   0.124  0.1311 -0.3174  0.1125
 1003MOL0     C35293   0.025   4.369   0.204 -1.0102 -0.2807  0.1559
 1003MOL0     O35294  -0.109   4.365   0.253  0.0984 -0.0027  0.3742
 1003MOL0     C35295  -0.211   4.357   0.172 -0.0448  0.5772  0.3240
 1003MOL0     C35296  -0.329   4.363   0.243 -0.5055  0.4067 -0.1477
 1003MOL0     C35297  -0.455   4.346   0.183 -0.2636 -0.2658 -0.3829
 1003MOL0     C35298  -0.466   4.341   0.041  0.3352  0.2058  0.2923
 1003MOL0     C35299  -0.602   4.340  -0.025  0.5088  0.4805  0.1360
 1003MOL0     O35300  -0.711   4.323   0.061 -0.1977 -0.1380  0.3930
 1003MOL0     C35301  -0.836   4.322  -0.001 -0.8883 -1.0923 -0.8294
 1003MOL0     C35302  -0.906   4.208  -0.003 -0.3639  0.4686 -0.3028
 1003MOL0     C35303  -1.027   4.192  -0.074 -0.3989  1.0245 -0.5092
 1003MOL0     C35304  -1.083   4.296  -0.153  0.4053 -0.6907 -0.1068
 1003MOL0     O35305  -1.189   4.281  -0.239  0.1113 -0.8500 -0.7435
 1003MOL0     C35306  -1.236   4.152  -0.280 -0.0572 -0.4143  0.4919
 1003MOL0     C35307  -1.349   4.159  -0.380 -0.8273  0.1689  0.2722
 1003MOL0     C35308  -1.444   4.275  -0.334  0.8107  0.0836 -0.6059
 1003MOL0     C35309  -1.579   4.279  -0.415  0.2553 -1.1467  1.0849
 1003MOL0     C35310  -1.566   4.256  -0.576  0.9971 -0.3998 -0.0769
 1003MOL0     C35311  -1.712   4.270  -0.637  0.3588  1.4305 -0.1054
 1003MOL0     C35312  -1.713   4.228  -0.785  0.4856  0.1787  0.4832
 1003MOL0     C35313  -1.838   4.281  -0.858 -0.2402  0.4350 -0.3895
 1003MOL0    Cl35314  -1.843   4.201  -1.022 -0.1722 -0.0821 -0.2458
 1003MOL0     C35315  -1.020   4.418  -0.141  0.0411 -0.9144 -0.1921
 1003MOL0     C35316  -0.896   4.430  -0.067  0.6811  0.6964  0.5035
 1003MOL0     O35317  -0.610   4.346  -0.148  0.5545  0.6045  0.3690
 1003MOL0     C35318  -0.351   4.333  -0.032  0.2830  0.0138  0.6638
 1003MOL0     C35319  -0.222   4.348   0.030  0.0645  0.1297  0.0014
 1003MOL0     N35320   0.509   4.573   0.103 -0.6964 -0.4854  0.4494
 1003MOL0     N35321   0.615   4.505   0.098 -0.4898  0.8760  0.3578
 1003MOL0     C35322   0.684   4.231   0.699 -0.0490  0.6699  0.6397
 1003MOL0     C35323   0.548   4.238   0.680  0.1801 -0.4332  0.1125
 1003MOL0     C35324   0.125   4.187   0.572 -0.4044  0.9155  0.6247
 1003MOL0     C35325   0.103   4.041   0.568 -0.2796  0.1026 -0.6814
 1003MOL0     C35326  -0.018   3.985   0.571  0.0257  0.3725 -0.4757
 1003MOL0     C35327  -0.133   4.066   0.593 -0.3012  0.1666 -0.5456
 1003MOL0     O35328  -0.252   4.005   0.628 -0.0800  0.3447 -0.4332
 1003MOL0     C35329  -0.342   3.949   0.532 -0.1998 -0.0221 -0.2967
 1003MOL0     C35330  -0.432   4.061   0.453 -0.0848  0.3213 -0.1107
 1003MOL0     C35331  -0.527   4.138   0.539 -0.4076  0.2179  0.9269
 1003MOL0     C35332  -0.664   4.069   0.549 -0.1248  0.1402 -0.2046
 1003MOL0     C35333  -0.732   4.075   0.422  0.9944 -0.1072  0.3354
 1003MOL0     C35334  -0.823   4.083   0.340 -0.1541 -0.0053  0.8618
 1003MOL0     C35335  -0.119   4.207   0.602  0.1764  1.0788  0.1840
 1003MOL0     C35336   0.008   4.265   0.575 -0.3885  0.3938  0.2192
 1003MOL0     C35337   0.008   4.411   0.578  0.4856 -0.1745  0.2057
 1003MOL0     H35338   0.517   4.034   0.406 -0.9165 -0.6117  1.5164
 1003MOL0     H35339   0.789   4.045   0.431  1.1021 -1.5334  0.5753
 1003MOL0     H35340   0.931   4.355   0.675 -1.9741 -1.1163  0.2030
 1003MOL0     H35341   0.955   4.236   0.809 -0.5468  1.4392  0.0693
 1003MOL0     H35342   1.150   4.153   0.711 -0.3033  0.0145  1.4888
 1003MOL0     H35343   1.180   4.321   0.706  0.3234  0.0779 -0.5855
 1003MOL0     H35344   1.081   4.162   0.468 -1.3489  0.6026  0.7178
 1003MOL0     H35345   1.249   4.215   0.495  0.4127 -0.0944  3.5199
 1003MOL0     H35346   1.028   4.419   0.479 -0.5218 -2.6252  2.3029
 1003MOL0     H35347   1.204   4.450   0.480  1.8752 -1.7400 -2.0080
 1003MOL0     H35348   1.117   4.496   0.271 -0.4052 -0.0228 -0.2673
 1003MOL0     H35349   1.205   4.335   0.260 -3.6100 -0.5403 -4.1259
 1003MOL0     H35350   1.003   4.315   0.142  0.4331  1.2705  1.0090
 1003MOL0     H35351   0.977   4.214   0.276 -3.9104 -1.1323 -3.1100
 1003MOL0     H35352   0.846   4.489   0.246 -1.3506  0.0796 -1.6611
 1003MOL0     H35353   0.829   4.383   0.389  2.0609  2.4315  1.0958
 1003MOL0     H35354   0.781   4.284   0.113 -2.9934 -0.1026 -0.3507
 1003MOL0     H35355   0.723   4.218   0.264 -2.9328 -0.7315 -2.0534
 1003MOL0     H35356   0.448   4.338   0.323 -1.4666 -0.2333 -0.3508
 1003MOL0     H35357   0.261   4.504   0.301  3.3849  1.4022  1.8257
 1003MOL0     H35358   0.282   4.663   0.224  1.9117  0.5832  0.7976
 1003MOL0     H35359   0.210   4.585   0.003  1.0765 -1.3405 -2.3081
 1003MOL0     H35360   0.254   4.414   0.044  0.3500  0.1851 -1.1827
 1003MOL0     H35361  -0.009   4.502   0.043  0.5365  2.6822 -0.1097
 1003MOL0     H35362   0.047   4.586   0.182  2.4524 -0.1075  0.5658
 1003MOL0     H35363   0.101   4.343   0.279  1.2421 -1.3610 -2.3266
 1003MOL0     H35364   0.032   4.286   0.133  0.9444 -0.1223  0.0986
 1003MOL0     H35365  -0.309   4.362   0.349  1.1022 -0.0446 -0.4378
 1003MOL0     H35366  -0.546   4.335   0.241 -1.1561  1.8001 -1.2845
 1003MOL0     H35367  -0.863   4.124   0.050 -1.2968  0.2054  0.0674
 1003MOL0     H35368  -1.081   4.100  -0.057  0.5175  0.8189  1.6162
 1003MOL0     H35369  -1.147   4.101  -0.320 -1.8571 -2.5750 -1.0269
 1003MOL0     H35370  -1.282   4.101  -0.195 -1.0483 -1.5582 -0.6867
 1003MOL0     H35371  -1.303   4.170  -0.479 -2.1378 -5.4872 -1.3211
 1003MOL0     H35372  -1.404   4.065  -0.383 -0.8786  0.2031  0.1077
 1003MOL0     H35373  -1.481   4.261  -0.232  1.2960 -1.5206 -0.6198
 1003MOL0     H35374  -1.403   4.377  -0.330 -2.4797  1.5117  0.6559
 1003MOL0     H35375  -1.616   4.379  -0.391  0.8498 -0.9328  1.1280
 1003MOL0     H35376  -1.653   4.214  -0.367 -2.0899  0.3329 -0.3587
 1003MOL0     H35377  -1.530   4.156  -0.604  1.2640 -0.5289  0.6835
 1003MOL0     H35378  -1.507   4.331  -0.629 -1.7246  0.8694 -1.4809
 1003MOL0     H35379  -1.791   4.217  -0.583  0.6753  0.3508 -0.6785
 1003MOL0     H35380  -1.745   4.373  -0.623  1.0725  1.5167  1.1244
 1003MOL0     H35381  -1.713   4.120  -0.803  1.0907  0.2141  0.2284
 1003MOL0     H35382  -1.616   4.260  -0.824  0.1720 -0.2525 -0.6790
 1003MOL0     H35383  -1.931   4.271  -0.802 -1.0920  1.5585 -1.5471
 1003MOL0     H35384  -1.826   4.389  -0.870 -1.3713  0.5053 -0.9725
 1003MOL0     H35385  -1.048   4.506  -0.199 -0.7899 -0.9334  0.1519
 1003MOL0     H35386  -0.838   4.522  -0.069  1.2213  0.3760 -1.2942
 1003MOL0     H35387  -0.352   4.331  -0.140  1.8932  2.9039  0.5179
 1003MOL0     H35388  -0.137   4.350  -0.038  0.4447 -0.1943  0.4533
 1003MOL0     H35389   0.726   4.273   0.790 -2.0069 -4.3881  4.4027
 1003MOL0     H35390   0.483   4.287   0.752 -0.2281  1.0122 -1.2031
 1003MOL0     H35391   0.184   3.969   0.566 -0.6607 -0.3989  0.7688
 1003MOL0     H35392  -0.043   3.880   0.578 -0.6318  0.6281  1.8671
 1003MOL0     H35393  -0.406   3.877   0.583 -0.2711 -1.1560 -1.9182
 1003MOL0     H35394  -0.280   3.891   0.464  5.2904  0.0610  3.9380
 1003MOL0     H35395  -0.491   4.020   0.370  0.5011 -0.3869 -0.1823
 1003MOL0     H35396  -0.366   4.139   0.414 -2.6257  2.4830 -0.3520
 1003MOL0     H35397  -0.546   4.235   0.493  1.6068  0.8817  1.4146
 1003MOL0     H35398  -0.482   4.159   0.636 -2.6347  2.8070  1.5207
 1003MOL0     H35399  -0.647   3.966   0.581 -1.0977  0.4047  1.2408
 1003MOL0     H35400  -0.717   4.138   0.614  2.0366  0.1072  1.6979
 1003MOL0     H35401  -0.894   4.109   0.265  0.3116 -1.4633 -0.1174
 1003MOL0     H35402  -0.207   4.266   0.622  1.3457  2.5254  1.3007
 1003MOL0     H35403   0.039   4.447   0.676 -0.0080 -1.9714  1.0646
 1003MOL0     H35404   0.086   4.436   0.505  1.6309 -1.5994  0.8963
 1003MOL0     H35405  -0.088   4.454   0.545  1.0449  1.9879  1.2537
 1004MOL0     O35406   8.165   4.043   9.663  0.1448 -0.6372 -0.2098
 1004MOL0     C35407   8.077   4.110   9.609  0.5587  0.5227  0.5598
 1004MOL0     O35408   8.081   4.249   9.604  0.4944  0.0886  0.1323
 1004MOL0     C35409   8.184   4.327   9.647  0.2666 -0.1799 -0.9232
 1004MOL0     C35410   8.252   4.317   9.770  0.1425 -0.4069  0.6357
 1004MOL0     C35411   8.333   4.422   9.814 -0.6302 -0.6739 -0.8181
 1004MOL0     C35412   8.378   4.519   9.730 -0.7991 -0.1604 -0.6595
 1004MOL0     O35413   8.471   4.611   9.785 -0.1264 -0.2696  0.8524
 1004MOL0     C35414   8.585   4.635   9.707 -0.7219 -0.0645 -0.0658
 1004MOL0     C35415   8.690   4.681   9.811  0.2960  0.0568 -0.2991
 1004MOL0     C35416   8.833   4.686   9.741 -0.1427 -0.0386  0.3385
 1004MOL0     C35417   8.920   4.785   9.807  0.1749 -0.5578  0.2398
 1004MOL0     C35418   9.056   4.798   9.727  0.4737  1.1676  0.0209
 1004MOL0     C35419   9.114   4.659   9.702  0.3193 -1.1733 -0.5075
 1004MOL0     C35420   9.256   4.657   9.660  0.0542 -0.5071  0.4443
 1004MOL0     C35421   9.344   4.686   9.780  0.4884 -0.0143 -0.4511
 1004MOL0     N35422   9.483   4.669   9.747 -0.3008 -0.2663 -0.0441
 1004MOL0     C35423   9.564   4.764   9.684 -0.4782 -0.2438  0.4258
 1004MOL0     C35424   9.689   4.714   9.687 -0.1135  0.7948  0.1610
 1004MOL0     C35425   9.805   4.772   9.619  0.5895  0.0196  0.6652
 1004MOL0     C35426   9.918   4.795   9.722 -0.0066 -0.0876  0.3560
 1004MOL0     C35427   9.982   4.921   9.670 -1.1878 -0.9570 -0.3881
 1004MOL0     C35428  10.120   4.939   9.741  0.5736 -0.0516  0.0922
 1004MOL0     O35429  10.164   5.069   9.707 -1.0558  0.2426 -0.2041
 1004MOL0     C35430  10.287   5.110   9.757  0.4573  0.6988 -0.6590
 1004MOL0     C35431  10.323   5.243   9.737 -0.0381  0.3038  0.2677
 1004MOL0     C35432  10.439   5.296   9.798 -0.0992 -0.5817  0.5618
 1004MOL0     C35433  10.516   5.224   9.883  0.0725  0.9308 -0.4252
 1004MOL0     C35434  10.635   5.284   9.944  1.1551 -0.3727 -0.7927
 1004MOL0     O35435  10.640   5.422   9.940  0.1277  0.1550  0.2655
 1004MOL0     C35436  10.762   5.483   9.973 -0.3762 -0.4013 -0.0250
 1004MOL0     C35437  10.804   5.477  10.102 -0.2155  0.6246  0.1101
 1004MOL0     C35438  10.917   5.538  10.142 -0.1322 -0.4138 -0.0845
 1004MOL0     C35439  10.991   5.614  10.049 -0.3883  1.1488 -0.4985
 1004MOL0     O35440  11.115   5.672  10.071 -0.3567 -0.5624 -0.0707
 1004MOL0     C35441  11.157   5.682  10.212 -0.2343 -1.2528 -0.8636
 1004MOL0     C35442  11.290   5.766  10.201  0.1115  0.7687  0.2487
 1004MOL0     C35443  11.346   5.820  10.341 -0.6003  0.1962 -0.6682
 1004MOL0     C35444  11.493   5.801  10.340  0.8185  0.5257  0.0799
 1004MOL0     C35445  11.548   5.826  10.477 -0.6415  0.4232  0.5842
 1004MOL0     C35446  11.698   5.850  10.454 -0.0430 -1.0340  0.3291
 1004MOL0     C35447  11.778   5.910  10.583 -0.4573  0.7375  0.5271
 1004MOL0     C35448  11.776   6.061  10.606 -0.5926  1.0003 -0.1358
 1004MOL0    Cl35449  11.930   6.077  10.707  0.6038 -0.1506 -0.0193
 1004MOL0     C35450  10.948   5.623   9.916  1.1519  0.4917  1.2473
 1004MOL0     C35451  10.831   5.551   9.879 -0.1323 -0.6671 -0.4457
 1004MOL0     O35452  10.713   5.216  10.000 -0.4085  0.1965 -0.0059
 1004MOL0     C35453  10.483   5.089   9.902 -0.1377 -0.3204 -0.5765
 1004MOL0     C35454  10.365   5.030   9.842  0.0448 -0.1332  0.2910
 1004MOL0     N35455   9.691   4.586   9.738 -1.1390  0.6752 -0.0105
 1004MOL0     N35456   9.569   4.561   9.771 -0.9326  0.3717 -0.0545
 1004MOL0     C35457   8.322   4.526   9.606 -0.4599  0.4423  0.1017
 1004MOL0     C35458   8.214   4.438   9.568 -0.1974  0.7456  0.2346
 1004MOL0     C35459   7.966   4.036   9.541 -0.1951 -0.7260  0.7792
 1004MOL0     C35460   7.969   3.894   9.553 -0.4496 -0.8900  0.1343
 1004MOL0     C35461   7.869   3.814   9.499 -0.0574 -0.7090  0.1497
 1004MOL0     C35462   7.772   3.870   9.410  0.1119  0.2711 -0.9542
 1004MOL0     O35463   7.671   3.790   9.370  0.6594  0.3030  0.3369
 1004MOL0     C35464   7.655   3.646   9.406 -1.7094  0.1255  0.6470
 1004MOL0     C35465   7.512   3.609   9.369 -0.0879  1.0635  0.5071
 1004MOL0     C35466   7.409   3.694   9.456 -0.4947  0.8068  0.4909
 1004MOL0     C35467   7.350   3.813   9.377 -0.7174  0.0314 -0.5543
 1004MOL0     C35468   7.233   3.778   9.301  0.1175 -0.7448 -0.5112
 1004MOL0     C35469   7.123   3.743   9.247 -1.3156 -0.2100  0.2513
 1004MOL0     C35470   7.772   4.006   9.384 -0.1806 -1.1822  0.2268
 1004MOL0     C35471   7.868   4.093   9.454  0.2002  0.7828 -0.1134
 1004MOL0     C35472   7.861   4.239   9.422  0.0731  0.6315 -0.4226
 1004MOL0     H35473   8.222   4.242   9.842 -4.0428  0.1103 -0.3001
 1004MOL0     H35474   8.364   4.415   9.917  0.4072  0.2229 -1.0548
 1004MOL0     H35475   8.620   4.544   9.659  0.6311  0.8881 -0.9425
 1004MOL0     H35476   8.571   4.717   9.636  0.5081  1.3263  1.2403
 1004MOL0     H35477   8.686   4.602   9.887 -0.5272  0.1551 -0.2305
 1004MOL0     H35478   8.670   4.770   9.870  0.7669 -0.1249  0.1450
 1004MOL0     H35479   8.818   4.726   9.641  2.6073  0.3421 -0.0183
 1004MOL0     H35480   8.875   4.585   9.736 -0.6900 -0.2556  0.0854
 1004MOL0     H35481   8.866   4.879   9.815  1.1661 -0.0811  1.9955
 1004MOL0     H35482   8.950   4.753   9.908 -0.6988  1.3820  1.1524
 1004MOL0     H35483   9.035   4.864   9.642  0.3381  0.0991 -0.7915
 1004MOL0     H35484   9.116   4.855   9.799 -3.7767  2.0809  3.2395
 1004MOL0     H35485   9.105   4.601   9.794 -1.9141 -0.2752 -0.0986
 1004MOL0     H35486   9.055   4.617   9.620 -3.4007  0.1662  1.2871
 1004MOL0     H35487   9.287   4.726   9.581 -0.1265  0.9941  1.6377
 1004MOL0     H35488   9.282   4.555   9.628  1.5998 -0.5831  1.7716
 1004MOL0     H35489   9.316   4.782   9.825  1.8963  0.1946  0.0279
 1004MOL0     H35490   9.309   4.604   9.843  0.0905 -1.1539 -2.0977
 1004MOL0     H35491   9.530   4.863   9.656 -0.4274 -0.3655 -0.0790
 1004MOL0     H35492   9.844   4.699   9.546  2.0563  2.9667 -1.7234
 1004MOL0     H35493   9.775   4.865   9.570 -1.2935  0.8527  3.2301
 1004MOL0     H35494   9.877   4.830   9.817  1.2829  1.1008  0.5059
 1004MOL0     H35495   9.982   4.706   9.728  0.6908  0.2508 -1.3016
 1004MOL0     H35496   9.936   5.017   9.694 -1.5551 -0.6958 -1.9747
 1004MOL0     H35497  10.005   4.924   9.563  2.6020 -1.1956  0.2692
 1004MOL0     H35498  10.188   4.864   9.700 -0.3477 -0.3493 -0.9499
 1004MOL0     H35499  10.117   4.927   9.849  1.0318 -4.9285 -0.2271
 1004MOL0     H35500  10.260   5.305   9.674  1.7678  0.3895 -1.5560
 1004MOL0     H35501  10.460   5.402   9.797 -0.1207 -0.5764  0.6781
 1004MOL0     H35502  10.748   5.429  10.181 -0.8723  1.4184  0.1505
 1004MOL0     H35503  10.944   5.522  10.246  0.1516  0.5114 -0.0032
 1004MOL0     H35504  11.085   5.735  10.275 -0.8958 -3.3632  0.2557
 1004MOL0     H35505  11.178   5.591  10.268  0.9908 -0.2210  0.4292
 1004MOL0     H35506  11.353   5.691  10.152  1.1465  1.3309  0.7034
 1004MOL0     H35507  11.266   5.849  10.134  0.0606 -1.4936 -2.7647
 1004MOL0     H35508  11.323   5.925  10.360 -0.1962  0.0347  0.8176
 1004MOL0     H35509  11.304   5.764  10.425  1.9096  0.5284  0.9061
 1004MOL0     H35510  11.521   5.876  10.265 -0.3411  1.3452  0.4335
 1004MOL0     H35511  11.514   5.699  10.308  1.1291 -0.4858  3.2174
 1004MOL0     H35512  11.529   5.747  10.550 -2.2617  1.6200  1.5370
 1004MOL0     H35513  11.514   5.919  10.524  2.0022  2.2632 -0.8953
 1004MOL0     H35514  11.741   5.758  10.415  0.5566 -0.4746 -0.3579
 1004MOL0     H35515  11.698   5.922  10.372  0.0693 -0.3968  0.8704
 1004MOL0     H35516  11.882   5.878  10.586 -0.6426  0.1103  3.3785
 1004MOL0     H35517  11.745   5.853  10.671  0.5199 -2.8406 -1.2052
 1004MOL0     H35518  11.790   6.112  10.510 -0.1087 -0.3430 -0.8230
 1004MOL0     H35519  11.684   6.090  10.657  0.3455  0.2884  2.0672
 1004MOL0     H35520  11.004   5.670   9.836 -1.3652  1.4976 -0.0352
 1004MOL0     H35521  10.807   5.543   9.773  0.5921 -2.1534 -0.5277
 1004MOL0     H35522  10.537   5.020   9.967  0.9241 -0.9999 -2.1069
 1004MOL0     H35523  10.346   4.925   9.859  2.6814 -1.2834 -2.8171
 1004MOL0     H35524   8.366   4.597   9.537 -1.0267 -0.0871 -0.8086
 1004MOL0     H35525   8.166   4.448   9.472 -1.2379  3.3588  0.9429
 1004MOL0     H35526   8.036   3.842   9.621 -1.8416 -0.7192  1.6915
 1004MOL0     H35527   7.876   3.708   9.519  2.0471 -0.7254 -0.3890
 1004MOL0     H35528   7.675   3.623   9.511 -0.4418  1.0394  0.6314
 1004MOL0     H35529   7.728   3.600   9.340 -0.4308  3.3163 -0.3744
 1004MOL0     H35530   7.497   3.503   9.394  0.1161  0.4955 -1.5710
 1004MOL0     H35531   7.492   3.618   9.261 -0.6130 -0.1178  0.4895
 1004MOL0     H35532   7.467   3.723   9.545  1.3778 -1.1595  0.0159
 1004MOL0     H35533   7.319   3.638   9.483 -0.4703 -1.1194 -2.8435
 1004MOL0     H35534   7.324   3.885   9.456  2.6069  2.2119 -1.2361
 1004MOL0     H35535   7.424   3.865   9.315 -0.8756 -1.0156 -1.6490
 1004MOL0     H35536   7.039   3.699   9.196 -1.0554 -1.8934  1.1724
 1004MOL0     H35537   7.692   4.063   9.338  0.0178 -0.7361  0.4286
 1004MOL0     H35538   7.956   4.292   9.404  1.0139 -1.6684 -2.8875
 1004MOL0     H35539   7.806   4.245   9.328  0.4338 -1.1490 -0.7903
 1004MOL0     H35540   7.810   4.292   9.502  1.1872 -0.9990  1.4535
 1005MOL0     O35541   4.717   8.897   0.889 -0.9755  0.3681  0.6264
 1005MOL0     C35542   4.645   8.890   0.788  0.1833 -0.3546 -0.1217
 1005MOL0     O35543   4.667   8.957   0.664  0.6550 -0.9323  0.3711
 1005MOL0     C35544   4.776   9.030   0.657 -0.0078 -1.0074  0.6491
 1005MOL0     C35545   4.763   9.156   0.600  0.4843  1.0500 -0.0164
 1005MOL0     C35546   4.870   9.238   0.574  0.3960 -0.2657  0.9930
 1005MOL0     C35547   5.003   9.192   0.598 -0.0485 -0.4055 -0.0210
 1005MOL0     O35548   5.114   9.263   0.575  0.5617 -0.7389  0.1092
 1005MOL0     C35549   5.129   9.386   0.650 -0.1744  0.5510 -0.4705
 1005MOL0     C35550   5.133   9.357   0.801  0.0777  0.1283  0.2450
 1005MOL0     C35551   5.159   9.484   0.892  0.7945 -0.5630 -0.0841
 1005MOL0     C35552   5.024   9.548   0.943 -1.2321  0.6947 -0.3603
 1005MOL0     C35553   5.048   9.646   1.054  0.7068  0.5823 -0.2919
 1005MOL0     C35554   5.126   9.773   1.016 -0.3960 -0.3970 -1.4980
 1005MOL0     C35555   5.063   9.852   0.902 -0.2311  0.2221 -0.4133
 1005MOL0     C35556   5.126   9.990   0.888 -0.2838  0.1269  0.8244
 1005MOL0     N35557   5.022  10.086   0.850 -0.6464  0.0806  0.2760
 1005MOL0     C35558   4.922  10.138   0.929  0.3124 -0.6599 -0.1975
 1005MOL0     C35559   4.874  10.243   0.864  0.5912  0.3468 -0.2054
 1005MOL0     C35560   4.776  10.340   0.918  0.4721 -0.4942 -0.7113
 1005MOL0     C35561   4.813  10.402   1.055  0.9508 -0.0617  0.2915
 1005MOL0     C35562   4.969  10.444   1.059 -0.0266  0.1349  0.0315
 1005MOL0     C35563   4.987  10.526   1.185  0.0017  0.1608 -0.1161
 1005MOL0     O35564   5.116  10.584   1.173 -0.2911 -0.7628  0.2743
 1005MOL0     C35565   5.194  10.609   1.284 -0.1139 -0.5007 -1.1864
 1005MOL0     C35566   5.319  10.661   1.255 -1.0253 -0.8405  0.2103
 1005MOL0     C35567   5.410  10.697   1.350  0.2516 -0.5203 -0.5389
 1005MOL0     C35568   5.383  10.684   1.487  0.1124  0.1228  0.4760
 1005MOL0     C35569   5.473  10.748   1.590 -0.1236 -0.1277  0.8400
 1005MOL0     O35570   5.414  10.783   1.707  0.0460  0.2411  0.2881
 1005MOL0     C35571   5.480  10.826   1.816  0.5147 -0.5703  0.1221
 1005MOL0     C35572   5.419  10.803   1.930 -0.0350 -0.0267 -0.9589
 1005MOL0     C35573   5.474  10.854   2.053  0.1103 -0.0413 -0.9259
 1005MOL0     C35574   5.588  10.934   2.048 -0.3614  0.0699 -0.0996
 1005MOL0     O35575   5.644  10.995   2.157  0.1115  0.6834  0.7211
 1005MOL0     C35576   5.611  10.936   2.279  0.6215  0.4222 -0.1478
 1005MOL0     C35577   5.679  10.793   2.306  0.0380  0.1530  0.7002
 1005MOL0     C35578   5.579  10.711   2.392  0.1174 -1.0314  0.5580
 1005MOL0     C35579   5.662  10.600   2.472  0.8482 -0.3028 -0.8463
 1005MOL0     C35580   5.567  10.488   2.521  0.5549  0.0015 -1.1396
 1005MOL0     C35581   5.457  10.518   2.627 -0.1428  0.1022 -0.6295
 1005MOL0     C35582   5.371  10.391   2.636  0.1389  0.1312 -0.3219
 1005MOL0     C35583   5.299  10.403   2.771 -0.3135 -0.4021  0.1836
 1005MOL0    Cl35584   5.180  10.549   2.764 -0.4632 -0.2680  0.0991
 1005MOL0     C35585   5.645  10.958   1.928 -0.0197  1.1977  0.0668
 1005MOL0     C35586   5.589  10.907   1.814  0.4759 -0.1658  0.6071
 1005MOL0     O35587   5.589  10.766   1.549 -0.4944 -0.1781 -0.8112
 1005MOL0     C35588   5.257  10.628   1.519 -0.0231  0.2509  0.2674
 1005MOL0     C35589   5.166  10.596   1.421 -0.1077  0.4319  0.4277
 1005MOL0     N35590   4.929  10.243   0.734 -0.3904 -0.2568  0.6330
 1005MOL0     N35591   5.028  10.157   0.726  0.6543 -0.3548 -0.0525
 1005MOL0     C35592   5.016   9.065   0.650 -0.0235  0.1729 -0.2990
 1005MOL0     C35593   4.903   8.991   0.688  0.2829 -0.3050  1.0383
 1005MOL0     C35594   4.516   8.814   0.783  0.0273  0.2808 -0.5259
 1005MOL0     C35595   4.490   8.724   0.676 -1.0895  1.4831  1.0284
 1005MOL0     C35596   4.382   8.638   0.681  0.3000  0.2804 -0.3789
 1005MOL0     C35597   4.296   8.633   0.791  0.3773 -0.1578 -0.0289
 1005MOL0     O35598   4.188   8.549   0.804  0.1834 -1.1295  0.3481
 1005MOL0     C35599   4.154   8.465   0.693 -0.1560 -0.4277 -0.0869
 1005MOL0     C35600   4.047   8.362   0.736  0.4036  1.1454 -0.2420
 1005MOL0     C35601   3.922   8.445   0.774 -0.1152  0.2003  0.4080
 1005MOL0     C35602   3.794   8.362   0.749  0.2446 -0.4683  0.2387
 1005MOL0     C35603   3.783   8.261   0.850 -0.4835  0.0242  0.0373
 1005MOL0     C35604   3.764   8.175   0.935 -0.4055 -0.6028 -0.4915
 1005MOL0     C35605   4.332   8.722   0.895 -0.8674 -0.3789 -1.3329
 1005MOL0     C35606   4.430   8.820   0.891  1.1224 -1.2475 -0.3267
 1005MOL0     C35607   4.438   8.927   1.008 -0.8843 -0.5522  0.0010
 1005MOL0     H35608   4.663   9.198   0.597 -0.7841 -1.7868 -1.9175
 1005MOL0     H35609   4.841   9.326   0.517  0.8593 -1.2933 -0.9453
 1005MOL0     H35610   5.222   9.435   0.619  0.8413 -1.8916 -1.4992
 1005MOL0     H35611   5.049   9.456   0.622 -0.6847  0.1419 -0.0664
 1005MOL0     H35612   5.209   9.279   0.808 -0.3295 -0.4253 -1.0522
 1005MOL0     H35613   5.041   9.307   0.833 -0.1670  1.3635  1.5848
 1005MOL0     H35614   5.217   9.554   0.831 -0.8346 -0.3913 -1.4994
 1005MOL0     H35615   5.233   9.474   0.972  0.9104 -0.8267 -0.2222
 1005MOL0     H35616   4.962   9.590   0.863 -1.2416 -1.1833 -1.4015
 1005MOL0     H35617   4.970   9.467   0.990  1.9933 -0.8919  0.9388
 1005MOL0     H35618   4.948   9.678   1.086  1.0684  0.0059  1.5297
 1005MOL0     H35619   5.101   9.589   1.131  0.6206  1.5688  0.5126
 1005MOL0     H35620   5.142   9.830   1.108 -3.6694 -0.4945 -0.7648
 1005MOL0     H35621   5.227   9.740   0.988  0.5720  1.5144 -0.4966
 1005MOL0     H35622   4.961   9.873   0.936 -1.4355  0.0120 -3.5294
 1005MOL0     H35623   5.049   9.800   0.807  0.2884  0.9340 -0.8916
 1005MOL0     H35624   5.175  10.023   0.981 -0.6499  1.3006  0.6220
 1005MOL0     H35625   5.207   9.984   0.815  0.5849 -4.5868  1.8592
 1005MOL0     H35626   4.906  10.104   1.031 -0.0374  2.5431  0.9571
 1005MOL0     H35627   4.756  10.412   0.838 -3.0105 -0.5893 -0.0898
 1005MOL0     H35628   4.682  10.287   0.936  0.4124 -0.6459 -1.4353
 1005MOL0     H35629   4.757  10.494   1.073  2.7729  1.8159 -2.7870
 1005MOL0     H35630   4.792  10.330   1.135 -0.3956 -0.5788 -0.5101
 1005MOL0     H35631   4.973  10.518   0.979  0.0182  0.0987  0.0003
 1005MOL0     H35632   5.035  10.359   1.040 -0.4961  0.0835 -1.5231
 1005MOL0     H35633   4.981  10.457   1.269 -1.5715 -0.2981 -0.5647
 1005MOL0     H35634   4.914  10.603   1.210 -0.3321 -1.2509  4.0572
 1005MOL0     H35635   5.345  10.647   1.151 -0.4342 -6.4001  0.8058
 1005MOL0     H35636   5.508  10.728   1.313 -0.6071  2.3528 -0.6123
 1005MOL0     H35637   5.320  10.759   1.935  0.9478 -2.2488  0.6870
 1005MOL0     H35638   5.409  10.833   2.138 -1.9878  4.2894 -1.1515
 1005MOL0     H35639   5.644  11.000   2.361 -4.1450  1.4771  1.2698
 1005MOL0     H35640   5.502  10.927   2.280  0.3548  2.4701  3.0687
 1005MOL0     H35641   5.685  10.733   2.215  1.6649 -1.7186  1.9553
 1005MOL0     H35642   5.772  10.811   2.361 -2.0028  3.3562  3.4570
 1005MOL0     H35643   5.524  10.769   2.466  0.6536 -1.4644  1.3093
 1005MOL0     H35644   5.522  10.652   2.319  1.5402 -1.9811  0.1779
 1005MOL0     H35645   5.705  10.653   2.557 -1.9992 -2.0227  1.9103
 1005MOL0     H35646   5.737  10.552   2.409  1.3917  1.6511 -1.7487
 1005MOL0     H35647   5.637  10.413   2.562  0.8817  0.8256 -0.1352
 1005MOL0     H35648   5.518  10.442   2.435 -3.9005  2.8251 -0.4202
 1005MOL0     H35649   5.500  10.547   2.724  1.8096 -2.8665 -0.4627
 1005MOL0     H35650   5.392  10.589   2.576  0.7272  0.4890 -1.2304
 1005MOL0     H35651   5.435  10.303   2.648 -2.1962 -1.6784 -0.5122
 1005MOL0     H35652   5.298  10.371   2.557 -0.7966  0.0364  0.5558
 1005MOL0     H35653   5.231  10.319   2.788 -2.1576  1.1535  1.0175
 1005MOL0     H35654   5.376  10.414   2.847  2.2824  0.7863 -2.4035
 1005MOL0     H35655   5.726  11.031   1.934  0.7331  0.3585  0.2375
 1005MOL0     H35656   5.627  10.941   1.718 -2.3890 -1.3372 -1.0817
 1005MOL0     H35657   5.240  10.620   1.626  0.2723 -2.5587  0.1773
 1005MOL0     H35658   5.068  10.549   1.431  0.3762 -1.5867 -2.6579
 1005MOL0     H35659   5.110   9.019   0.677 -1.3643 -1.2037  2.3693
 1005MOL0     H35660   4.914   8.891   0.728  0.4473  0.7074  3.7593
 1005MOL0     H35661   4.561   8.713   0.595 -0.9061 -0.7239  1.4401
 1005MOL0     H35662   4.373   8.560   0.606  0.5908  0.3882 -0.5279
 1005MOL0     H35663   4.246   8.416   0.658  0.6466  2.6700 -2.9043
 1005MOL0     H35664   4.114   8.523   0.609  0.6763 -2.6351 -2.1070
 1005MOL0     H35665   4.076   8.283   0.806  1.6051  0.8452 -1.0277
 1005MOL0     H35666   4.022   8.303   0.647  3.1255 -1.0786  0.3194
 1005MOL0     H35667   3.911   8.532   0.710 -1.2589 -0.3239 -0.1321
 1005MOL0     H35668   3.933   8.485   0.875  3.3522  2.2105 -0.5963
 1005MOL0     H35669   3.713   8.433   0.735 -0.8718 -2.1956 -3.3904
 1005MOL0     H35670   3.806   8.303   0.657 -0.5277 -0.4144  0.0992
 1005MOL0     H35671   3.722   8.104   1.003 -1.8940  0.2336 -0.5069
 1005MOL0     H35672   4.257   8.700   0.971 -1.8967  0.1247 -2.1731
 1005MOL0     H35673   4.370   8.913   1.093 -0.8094  0.2385  0.1990
 1005MOL0     H35674   4.538   8.933   1.051 -1.1180  2.2226  0.3227
 1005MOL0     H35675   4.438   9.026   0.962  0.8144 -0.2197  0.6571
 1006MOL0     O35676   3.685   7.588   3.747 -0.3597 -0.5225 -0.1023
 1006MOL0     C35677   3.624   7.681   3.794 -0.4840 -0.3553  0.1789
 1006MOL0     O35678   3.649   7.811   3.766 -0.7235 -0.5289  0.2682
 1006MOL0     C35679   3.754   7.845   3.679 -0.5617 -0.6165 -0.8322
 1006MOL0     C35680   3.734   7.956   3.592 -0.4489 -0.8973 -0.2369
 1006MOL0     C35681   3.822   8.010   3.506  0.6035  1.0123  0.6923
 1006MOL0     C35682   3.949   7.957   3.509 -0.5687  0.1307 -0.2613
 1006MOL0     O35683   4.039   8.019   3.419 -0.9487  0.2423 -0.3101
 1006MOL0     C35684   4.178   8.015   3.461  0.1459  0.5609  0.1830
 1006MOL0     C35685   4.251   8.097   3.356 -0.1328 -0.3693 -0.0876
 1006MOL0     C35686   4.393   8.143   3.389  0.7885 -0.4136  0.4112
 1006MOL0     C35687   4.482   8.181   3.262  0.1596 -1.3038  0.2014
 1006MOL0     C35688   4.628   8.207   3.283  0.5106 -0.0202  0.6195
 1006MOL0     C35689   4.691   8.197   3.147  0.4482  0.0518 -0.3440
 1006MOL0     C35690   4.837   8.243   3.152  0.8505 -0.4066 -0.2300
 1006MOL0     C35691   4.924   8.136   3.221  0.7833  0.8140  0.3581
 1006MOL0     N35692   5.064   8.161   3.192 -0.6134  0.1857 -0.1654
 1006MOL0     C35693   5.168   8.182   3.286 -0.2211  0.4907  0.1749
 1006MOL0     C35694   5.282   8.189   3.216 -0.5201  0.0851  0.4270
 1006MOL0     C35695   5.423   8.195   3.265  0.0203 -0.0081 -0.6434
 1006MOL0     C35696   5.465   8.324   3.329 -0.1658 -0.6099 -1.1610
 1006MOL0     C35697   5.616   8.339   3.346 -0.4362 -0.8570  0.3499
 1006MOL0     C35698   5.651   8.453   3.453 -0.6966 -0.4463  0.0169
 1006MOL0     O35699   5.792   8.477   3.464  0.0970 -1.0780  0.4398
 1006MOL0     C35700   5.854   8.567   3.379 -0.1501 -1.2999 -0.0702
 1006MOL0     C35701   5.973   8.626   3.427 -0.4427 -0.2036 -0.2750
 1006MOL0     C35702   6.056   8.715   3.355  0.0461  0.6124 -1.0388
 1006MOL0     C35703   6.012   8.759   3.233  0.6149 -0.0153  0.9713
 1006MOL0     C35704   6.106   8.845   3.160  0.4226 -0.4636  0.3501
 1006MOL0     O35705   6.219   8.901   3.222  0.5831 -0.1251 -0.3419
 1006MOL0     C35706   6.289   9.002   3.161  0.1069 -0.4006  0.1638
 1006MOL0     C35707   6.247   9.099   3.075 -0.5141  0.4209  0.1284
 1006MOL0     C35708   6.319   9.207   3.037 -0.5398 -0.1778  0.4288
 1006MOL0     C35709   6.451   9.215   3.081 -1.0576 -0.4568  0.1711
 1006MOL0     O35710   6.533   9.325   3.057  0.6756  0.7908 -0.1335
 1006MOL0     C35711   6.643   9.292   2.979  0.0604 -0.0513 -0.2316
 1006MOL0     C35712   6.738   9.406   2.950  0.2629 -0.3512  0.5000
 1006MOL0     C35713   6.683   9.522   2.869  0.5407 -0.2366  0.5317
 1006MOL0     C35714   6.683   9.494   2.719 -0.6629  0.0897 -0.2838
 1006MOL0     C35715   6.669   9.627   2.643 -0.5681 -0.1908  0.4337
 1006MOL0     C35716   6.653   9.601   2.499 -0.1096 -1.1201  0.3520
 1006MOL0     C35717   6.670   9.741   2.436  0.1075  0.8650 -0.0631
 1006MOL0     C35718   6.670   9.745   2.283  0.6940 -0.3130 -0.6826
 1006MOL0    Cl35719   6.822   9.687   2.207 -0.3373 -0.1275 -0.2269
 1006MOL0     C35720   6.507   9.113   3.163  0.6505  0.4241  0.4756
 1006MOL0     C35721   6.416   9.011   3.213  0.5114 -0.3684 -0.3777
 1006MOL0     O35722   6.080   8.847   3.040  0.7425  0.5097 -0.7795
 1006MOL0     C35723   5.888   8.703   3.181  0.3014  0.6809 -0.3825
 1006MOL0     C35724   5.818   8.604   3.248 -0.5660  0.3621 -0.0332
 1006MOL0     N35725   5.243   8.170   3.079 -0.5061  0.0952 -0.2442
 1006MOL0     N35726   5.120   8.158   3.067  0.3752  0.0064 -0.5092
 1006MOL0     C35727   3.986   7.844   3.597 -0.4220 -0.9632 -0.3886
 1006MOL0     C35728   3.881   7.789   3.679  0.0789  0.5040  0.5501
 1006MOL0     C35729   3.517   7.653   3.901 -0.1037 -0.0511  0.0911
 1006MOL0     C35730   3.488   7.754   3.991  0.4899 -0.0273 -0.4313
 1006MOL0     C35731   3.387   7.732   4.089 -0.2615  0.1828 -0.4456
 1006MOL0     C35732   3.318   7.611   4.097 -0.1844  0.1085  0.2423
 1006MOL0     O35733   3.233   7.590   4.199  0.1990  0.1223 -0.5237
 1006MOL0     C35734   3.106   7.521   4.177  0.0737  0.2786  0.0500
 1006MOL0     C35735   3.015   7.619   4.110 -0.5490 -0.3607  0.6435
 1006MOL0     C35736   2.871   7.574   4.114 -0.5035 -0.6100  0.0452
 1006MOL0     C35737   2.784   7.675   4.030  0.1864  0.1704  0.8488
 1006MOL0     C35738   2.638   7.674   4.046 -0.2597 -0.1298  0.8434
 1006MOL0     C35739   2.519   7.668   4.057 -1.2480  0.3205 -0.4005
 1006MOL0     C35740   3.344   7.505   4.006 -0.6493  0.4618  0.4019
 1006MOL0     C35741   3.437   7.527   3.900 -1.1700  0.8251 -0.4938
 1006MOL0     C35742   3.435   7.430   3.783  0.4354 -0.2385 -1.3352
 1006MOL0     H35743   3.636   8.002   3.597  0.3037  1.0352 -1.9448
 1006MOL0     H35744   3.796   8.087   3.434  4.4028  2.1023  0.2787
 1006MOL0     H35745   4.181   8.069   3.555  1.3515  0.5514  0.1590
 1006MOL0     H35746   4.214   7.912   3.458  0.2961  0.6265 -1.1852
 1006MOL0     H35747   4.191   8.182   3.323  0.8006  0.3901  0.1513
 1006MOL0     H35748   4.258   8.026   3.273 -2.5292 -0.2479 -0.4633
 1006MOL0     H35749   4.449   8.069   3.447  1.4417 -0.8006 -0.6822
 1006MOL0     H35750   4.390   8.230   3.455  1.1574 -1.9432  2.5618
 1006MOL0     H35751   4.473   8.107   3.182  0.5568  2.8403 -4.1231
 1006MOL0     H35752   4.442   8.273   3.217  0.7928 -1.5849 -0.9740
 1006MOL0     H35753   4.658   8.294   3.343  0.0598 -0.0876  0.9473
 1006MOL0     H35754   4.666   8.123   3.342  1.9149 -0.7385 -1.2183
 1006MOL0     H35755   4.680   8.095   3.108 -3.4650  0.3273 -0.3195
 1006MOL0     H35756   4.631   8.263   3.084 -2.3576  0.2241  2.2513
 1006MOL0     H35757   4.830   8.336   3.209  0.6427 -0.8436  0.4704
 1006MOL0     H35758   4.866   8.270   3.049  2.8817  1.2750  0.7054
 1006MOL0     H35759   4.918   8.144   3.330 -0.1680 -1.4930  0.5406
 1006MOL0     H35760   4.899   8.037   3.181 -1.4545  1.5400 -0.2214
 1006MOL0     H35761   5.167   8.168   3.394  1.3820  0.9132  0.2680
 1006MOL0     H35762   5.443   8.120   3.342 -0.5806  0.4722 -0.0101
 1006MOL0     H35763   5.485   8.180   3.176  1.6873 -0.2909  0.5005
 1006MOL0     H35764   5.421   8.404   3.269  0.9451  3.2778  2.6616
 1006MOL0     H35765   5.417   8.326   3.427 -4.4196 -0.0109 -3.0130
 1006MOL0     H35766   5.661   8.369   3.251  1.6320  0.6569  1.7094
 1006MOL0     H35767   5.659   8.242   3.371  1.6923  0.4161  1.8867
 1006MOL0     H35768   5.625   8.424   3.556  2.8694  0.1257  1.1964
 1006MOL0     H35769   5.602   8.547   3.427  1.2916  1.2320  1.9437
 1006MOL0     H35770   5.991   8.587   3.526  0.8532 -2.6369 -1.3801
 1006MOL0     H35771   6.153   8.750   3.391  0.9451 -1.5757 -1.1678
 1006MOL0     H35772   6.142   9.099   3.046 -0.8303  1.2546  1.1977
 1006MOL0     H35773   6.285   9.284   2.969 -0.1550  0.2591  0.7210
 1006MOL0     H35774   6.714   9.225   3.029  2.3315  2.2304 -0.2050
 1006MOL0     H35775   6.610   9.245   2.885 -2.7722 -1.5991  1.3930
 1006MOL0     H35776   6.760   9.444   3.050  1.7965  0.6073 -0.1596
 1006MOL0     H35777   6.835   9.367   2.917 -0.2067 -0.0134 -1.3897
 1006MOL0     H35778   6.582   9.543   2.905  0.8804 -1.1034  2.0626
 1006MOL0     H35779   6.756   9.603   2.883  1.4572 -0.2560 -3.1566
 1006MOL0     H35780   6.601   9.422   2.703  1.0023 -1.7328 -1.0027
 1006MOL0     H35781   6.782   9.454   2.697 -1.0088 -1.8289  1.3358
 1006MOL0     H35782   6.765   9.676   2.660 -1.1050  1.5564 -1.2941
 1006MOL0     H35783   6.591   9.693   2.684  0.5916  1.1944  0.4903
 1006MOL0     H35784   6.724   9.527   2.458 -0.0760 -0.4969 -0.7619
 1006MOL0     H35785   6.552   9.562   2.489  0.2381 -2.0121  0.1471
 1006MOL0     H35786   6.770   9.771   2.468  1.0512 -0.4084 -1.6484
 1006MOL0     H35787   6.596   9.810   2.477 -1.4002 -0.5176 -0.3029
 1006MOL0     H35788   6.582   9.690   2.249  1.0211 -1.8860  0.8724
 1006MOL0     H35789   6.666   9.852   2.261 -2.0711 -0.2571 -0.1518
 1006MOL0     H35790   6.610   9.112   3.199 -0.2828  1.1492  3.4936
 1006MOL0     H35791   6.457   8.937   3.281 -0.3997  1.1423  1.9300
 1006MOL0     H35792   5.857   8.740   3.084  2.1706  1.2171 -0.8281
 1006MOL0     H35793   5.729   8.573   3.195  0.0852 -0.8455 -0.4565
 1006MOL0     H35794   4.086   7.804   3.587  0.1368  0.6688 -1.9966
 1006MOL0     H35795   3.897   7.708   3.749 -1.9696  1.5172  2.3295
 1006MOL0     H35796   3.535   7.852   3.991 -0.2489  0.3397  0.0495
 1006MOL0     H35797   3.362   7.793   4.175 -2.3679 -2.2690  0.7995
 1006MOL0     H35798   3.064   7.489   4.272 -0.3615  2.2536  0.5651
 1006MOL0     H35799   3.109   7.448   4.095  0.4131  1.6539 -1.1970
 1006MOL0     H35800   3.047   7.642   4.008  1.6630 -0.5392  1.2522
 1006MOL0     H35801   3.016   7.711   4.168  1.1265  0.1274 -0.1150
 1006MOL0     H35802   2.832   7.569   4.216  1.9177 -0.1921  1.0713
 1006MOL0     H35803   2.854   7.475   4.071 -3.7849  0.4226 -1.4097
 1006MOL0     H35804   2.817   7.774   4.063 -0.7771  1.4393 -1.7446
 1006MOL0     H35805   2.794   7.666   3.922 -1.3171  0.0704  0.7015
 1006MOL0     H35806   2.412   7.663   4.057 -1.2176 -0.8116  0.1363
 1006MOL0     H35807   3.296   7.408   4.011  2.8435 -1.4182  0.5847
 1006MOL0     H35808   3.346   7.367   3.784  0.0533  0.2978 -0.9589
 1006MOL0     H35809   3.438   7.475   3.683 -2.1783  0.7812 -1.0361
 1006MOL0     H35810   3.515   7.356   3.790 -0.1340 -0.7740 -0.2505
 1007MOL0     O35811   8.802   3.490   9.662  0.0260 -0.3556  0.1051
 1007MOL0     C35812   8.794   3.373   9.632 -0.4666 -0.0536  0.1441
 1007MOL0     O35813   8.881   3.295   9.557  0.5461 -0.9964 -0.6856
 1007MOL0     C35814   8.987   3.362   9.504  0.3373  0.2249 -0.2098
 1007MOL0     C35815   8.953   3.466   9.419 -0.1169  0.0124  0.3910
 1007MOL0     C35816   9.049   3.533   9.345 -0.3446 -1.0137 -0.4251
 1007MOL0     C35817   9.179   3.504   9.365 -0.6840 -0.4180 -0.1040
 1007MOL0     O35818   9.286   3.585   9.319  0.3547 -0.1601  0.6160
 1007MOL0     C35819   9.254   3.720   9.275 -0.0965  0.1525  1.1425
 1007MOL0     C35820   9.387   3.779   9.210  0.2254  0.3514  0.2871
 1007MOL0     C35821   9.496   3.779   9.312 -0.5054 -0.3116 -0.1421
 1007MOL0     C35822   9.605   3.880   9.269  0.7162 -0.2868 -1.1314
 1007MOL0     C35823   9.712   3.897   9.384 -0.3407 -0.3296  0.8216
 1007MOL0     C35824   9.774   4.024   9.368 -0.4872 -0.4122 -0.3916
 1007MOL0     C35825   9.919   4.019   9.420  1.9186 -0.0398  0.7258
 1007MOL0     C35826   9.989   4.156   9.392 -0.7904 -0.1434 -0.5708
 1007MOL0     N35827  10.134   4.157   9.372  0.2091  0.0635  0.1621
 1007MOL0     C35828  10.203   4.204   9.263 -0.0721 -0.4185  0.7563
 1007MOL0     C35829  10.329   4.202   9.293  0.2039  0.4986 -0.1765
 1007MOL0     C35830  10.444   4.228   9.193  0.3360 -0.7270  0.2464
 1007MOL0     C35831  10.482   4.374   9.192  0.3384  0.3621  0.6836
 1007MOL0     C35832  10.542   4.423   9.318  0.6720 -0.5058  0.0239
 1007MOL0     C35833  10.669   4.353   9.360 -0.3762  0.4779 -0.0062
 1007MOL0     O35834  10.748   4.427   9.456  0.9951  0.1555 -0.3194
 1007MOL0     C35835  10.870   4.376   9.502  0.2243  0.6268 -0.3905
 1007MOL0     C35836  10.925   4.258   9.458 -0.0276 -0.6700 -0.0411
 1007MOL0     C35837  11.047   4.212   9.501  0.1807 -0.3938 -1.1957
 1007MOL0     C35838  11.117   4.285   9.606  0.5483 -0.3971  0.2146
 1007MOL0     C35839  11.234   4.225   9.662 -0.6450 -0.4577 -0.9661
 1007MOL0     O35840  11.327   4.316   9.716  0.5460 -0.2622  0.3150
 1007MOL0     C35841  11.444   4.284   9.761 -0.4528 -0.6668  0.8190
 1007MOL0     C35842  11.525   4.399   9.773  0.0769 -0.9713  0.5562
 1007MOL0     C35843  11.653   4.386   9.796  0.2820  0.3979  0.5470
 1007MOL0     C35844  11.714   4.260   9.824 -0.9938  0.2956  0.3316
 1007MOL0     O35845  11.846   4.278   9.859  0.2718 -0.2510 -0.4877
 1007MOL0     C35846  11.927   4.158   9.880  0.0442  0.5162  0.3101
 1007MOL0     C35847  11.960   4.127  10.024  0.3926 -0.4067  0.6839
 1007MOL0     C35848  12.047   4.237  10.082 -0.7333  0.2046  0.2814
 1007MOL0     C35849  12.029   4.234  10.230 -0.3252  0.4047  0.2988
 1007MOL0     C35850  12.146   4.302  10.303 -0.4464 -0.5512 -0.6465
 1007MOL0     C35851  12.155   4.450  10.257  0.2199 -0.9814  0.1945
 1007MOL0     C35852  12.225   4.541  10.368 -0.0064 -0.7448 -0.9684
 1007MOL0     C35853  12.200   4.685  10.336  0.4725 -0.6309 -0.9739
 1007MOL0    Cl35854  12.285   4.777  10.464  0.0326  0.2906 -0.0532
 1007MOL0     C35855  11.633   4.150   9.834  1.1485  0.0100 -0.4458
 1007MOL0     C35856  11.497   4.154   9.797  0.7190 -0.1228  0.7379
 1007MOL0     O35857  11.255   4.106   9.648 -0.1791  0.3922  0.2114
 1007MOL0     C35858  11.068   4.408   9.647  0.1186  0.0303  0.3578
 1007MOL0     C35859  10.943   4.452   9.592 -0.3901 -0.4341 -0.3933
 1007MOL0     N35860  10.338   4.139   9.409  0.0951 -0.3470  0.0859
 1007MOL0     N35861  10.227   4.103   9.459  0.4355 -0.3271  0.5315
 1007MOL0     C35862   9.216   3.403   9.454  0.0862 -0.0138 -0.1591
 1007MOL0     C35863   9.122   3.326   9.526  0.1300  0.0804  0.1062
 1007MOL0     C35864   8.681   3.292   9.707 -0.2212 -0.1127  0.4578
 1007MOL0     C35865   8.598   3.354   9.800  0.3049 -0.8869  0.2141
 1007MOL0     C35866   8.504   3.282   9.875  0.0921  0.5753  0.3822
 1007MOL0     C35867   8.487   3.144   9.856 -0.7618 -0.6645 -0.2342
 1007MOL0     O35868   8.401   3.069   9.932 -0.4706  0.2427  0.0762
 1007MOL0     C35869   8.443   3.040  10.066  0.5118 -0.5591 -0.5506
 1007MOL0     C35870   8.331   3.051  10.172  0.0350  0.2916 -0.4428
 1007MOL0     C35871   8.235   2.934  10.172  0.2385 -1.0059  0.2499
 1007MOL0     C35872   8.202   2.898  10.321  0.1883  0.8208 -0.4448
 1007MOL0     C35873   8.282   2.780  10.354  0.2358 -0.5711 -0.2327
 1007MOL0     C35874   8.360   2.695  10.373 -0.2961  0.8267 -0.4319
 1007MOL0     C35875   8.563   3.082   9.755  0.3542 -0.6174 -1.5516
 1007MOL0     C35876   8.664   3.150   9.685 -0.3249 -0.2135 -0.2177
 1007MOL0     C35877   8.719   3.069   9.572 -0.9203 -0.1305 -0.3810
 1007MOL0     H35878   8.846   3.481   9.413 -0.5842 -2.3033  1.8476
 1007MOL0     H35879   9.012   3.617   9.287 -1.1971 -1.4558 -0.5320
 1007MOL0     H35880   9.199   3.724   9.180  3.9848  4.2458 -1.4418
 1007MOL0     H35881   9.204   3.783   9.349 -0.2117  0.7877  0.5391
 1007MOL0     H35882   9.364   3.880   9.173 -1.8296 -0.0927  0.2327
 1007MOL0     H35883   9.416   3.706   9.134  1.0425  1.1331 -0.1737
 1007MOL0     H35884   9.529   3.675   9.314 -0.4765 -0.3451 -1.4371
 1007MOL0     H35885   9.469   3.789   9.418  1.7048 -0.9705  0.5518
 1007MOL0     H35886   9.655   3.859   9.174 -0.8310 -0.0868 -2.0167
 1007MOL0     H35887   9.566   3.981   9.256  3.6943  1.0683 -0.5995
 1007MOL0     H35888   9.658   3.897   9.479 -0.9287  0.2863  0.4916
 1007MOL0     H35889   9.783   3.814   9.383 -0.1417 -0.1685 -0.1433
 1007MOL0     H35890   9.776   4.046   9.261 -1.1563 -4.4613 -1.3917
 1007MOL0     H35891   9.719   4.102   9.421 -2.0270 -2.0799  0.5838
 1007MOL0     H35892   9.962   3.938   9.361  0.4311 -2.1856  2.4056
 1007MOL0     H35893   9.915   4.006   9.529 -2.1418 -1.9929  0.5695
 1007MOL0     H35894   9.945   4.212   9.309  0.5659  0.9881 -0.5657
 1007MOL0     H35895   9.973   4.214   9.483 -2.6339 -0.6235 -0.5386
 1007MOL0     H35896  10.166   4.256   9.175  2.7493  6.2869  2.8661
 1007MOL0     H35897  10.531   4.168   9.219  2.9388  2.7230  0.2740
 1007MOL0     H35898  10.413   4.207   9.091 -0.5611  3.0414 -0.4223
 1007MOL0     H35899  10.548   4.376   9.105 -2.2851  0.4467 -1.4431
 1007MOL0     H35900  10.390   4.424   9.161 -1.1403 -2.3766  0.3471
 1007MOL0     H35901  10.456   4.403   9.384  0.9324 -2.9670 -0.2610
 1007MOL0     H35902  10.552   4.531   9.319 -3.8761  0.1991 -2.0517
 1007MOL0     H35903  10.730   4.334   9.271 -0.5226  1.9624 -0.4448
 1007MOL0     H35904  10.640   4.256   9.400  1.6119 -1.5162 -3.0377
 1007MOL0     H35905  10.881   4.202   9.377  0.8367 -0.3406 -0.7587
 1007MOL0     H35906  11.075   4.115   9.463  2.1252 -0.4099  0.1217
 1007MOL0     H35907  11.480   4.496   9.752 -1.1896 -1.0869  2.5016
 1007MOL0     H35908  11.708   4.479   9.799  1.3214 -0.2183  1.7124
 1007MOL0     H35909  11.898   4.070   9.822  1.9606  1.0814 -1.6131
 1007MOL0     H35910  12.017   4.192   9.827  1.0663  0.3721  1.8727
 1007MOL0     H35911  11.870   4.114  10.085  0.1120  4.6746  1.7466
 1007MOL0     H35912  12.014   4.034  10.044 -0.5718 -0.2296  5.0714
 1007MOL0     H35913  12.151   4.221  10.052  0.1935  0.0608  3.1897
 1007MOL0     H35914  12.010   4.331  10.041 -1.2069 -0.3437 -0.5852
 1007MOL0     H35915  12.025   4.132  10.269  2.9144 -0.5668 -1.4934
 1007MOL0     H35916  11.941   4.290  10.262 -1.4406 -0.8243 -0.5042
 1007MOL0     H35917  12.244   4.261  10.281  0.0987  0.9445 -1.1042
 1007MOL0     H35918  12.128   4.292  10.411 -0.2244 -0.1932 -0.5760
 1007MOL0     H35919  12.215   4.457  10.166  1.3390  0.2410  0.9867
 1007MOL0     H35920  12.058   4.493  10.230 -0.6491 -3.3609 -0.7163
 1007MOL0     H35921  12.334   4.531  10.369  0.2484  1.4571 -1.2661
 1007MOL0     H35922  12.192   4.526  10.471  3.6304 -0.0741  0.4203
 1007MOL0     H35923  12.248   4.712  10.241  1.1843  0.7617 -0.2547
 1007MOL0     H35924  12.092   4.703  10.334  0.3759 -0.7924  1.0293
 1007MOL0     H35925  11.673   4.058   9.876  3.0834 -0.1991 -2.5570
 1007MOL0     H35926  11.429   4.070   9.808  1.0590 -0.3071  1.4783
 1007MOL0     H35927  11.122   4.463   9.724  3.7129 -3.5293  0.6418
 1007MOL0     H35928  10.907   4.548   9.627 -0.5145  0.9454 -3.9469
 1007MOL0     H35929   9.321   3.378   9.464 -0.6547 -2.4219  4.0114
 1007MOL0     H35930   9.154   3.239   9.582 -0.4018 -0.7009 -0.7919
 1007MOL0     H35931   8.624   3.455   9.831  2.4339 -0.2709 -3.0521
 1007MOL0     H35932   8.447   3.337   9.950  0.9004  1.7948  0.1336
 1007MOL0     H35933   8.523   3.104  10.103 -0.9991  0.8041  0.4902
 1007MOL0     H35934   8.481   2.937  10.075  1.2277 -0.2475  0.1815
 1007MOL0     H35935   8.275   3.144  10.159 -0.5894  0.5353  3.1896
 1007MOL0     H35936   8.385   3.063  10.266 -0.5381  1.9061 -0.2957
 1007MOL0     H35937   8.285   2.852  10.119  0.7534  0.0431 -0.9600
 1007MOL0     H35938   8.143   2.975  10.129  0.3376  4.5476  4.2287
 1007MOL0     H35939   8.220   2.970  10.401  2.8287 -0.5668  0.3202
 1007MOL0     H35940   8.097   2.868  10.330  0.3760  0.4682  0.7397
 1007MOL0     H35941   8.417   2.607  10.395 -0.0702 -0.1897 -4.4165
 1007MOL0     H35942   8.543   2.977   9.738 -1.7142 -0.1005 -2.6373
 1007MOL0     H35943   8.703   3.126   9.480 -1.3023 -0.2233 -0.3759
 1007MOL0     H35944   8.826   3.050   9.583 -1.5359 -3.1108  1.8864
 1007MOL0     H35945   8.672   2.971   9.557  0.6501 -0.7034 -1.7689
 1008MOL0     O35946   9.049  10.004  10.025 -0.5911 -0.1144 -0.7503
 1008MOL0     C35947   9.042   9.919   9.938 -0.4644 -1.0527 -0.6002
 1008MOL0     O35948   9.138   9.908   9.840  0.3261 -0.3173 -0.0424
 1008MOL0     C35949   9.233  10.003   9.806 -0.4750  0.0384  0.3412
 1008MOL0     C35950   9.236  10.130   9.853 -0.4864 -0.4636  0.0230
 1008MOL0     C35951   9.343  10.217   9.826  0.0236 -0.1900  1.2672
 1008MOL0     C35952   9.438  10.185   9.729  0.6880 -0.1915  0.0710
 1008MOL0     O35953   9.546  10.259   9.688  0.7124  0.3434  0.1791
 1008MOL0     C35954   9.577  10.385   9.769  0.4134 -0.2665  0.1780
 1008MOL0     C35955   9.706  10.447   9.720 -0.0362  1.0625 -0.0230
 1008MOL0     C35956   9.816  10.343   9.741 -0.0290 -0.4994  0.0141
 1008MOL0     C35957   9.942  10.390   9.670  0.0765  0.3459 -0.9245
 1008MOL0     C35958  10.056  10.293   9.697  0.2364  0.4722  0.1333
 1008MOL0     C35959  10.179  10.323   9.609 -0.0367 -0.1725  0.2930
 1008MOL0     C35960  10.298  10.231   9.654  0.2249  0.7955  0.3206
 1008MOL0     C35961  10.426  10.265   9.575  0.3666 -0.0237  0.0680
 1008MOL0     N35962  10.514  10.157   9.606 -0.3805  0.4733  0.5245
 1008MOL0     C35963  10.574  10.137   9.727 -0.1152 -0.5298  0.1364
 1008MOL0     C35964  10.677  10.047   9.703  0.5867 -0.5819 -0.0703
 1008MOL0     C35965  10.757   9.982   9.815  0.2582  0.7756  0.1535
 1008MOL0     C35966  10.843   9.860   9.780  0.0267 -0.6976  0.0835
 1008MOL0     C35967  10.958   9.897   9.685  1.1866  0.4062 -0.3451
 1008MOL0     C35968  11.052   9.779   9.684 -0.1227  0.1273 -0.3379
 1008MOL0     O35969  11.158   9.805   9.595  0.2657 -0.4180 -0.0886
 1008MOL0     C35970  11.276   9.737   9.600 -0.6391 -0.4578 -0.4197
 1008MOL0     C35971  11.375   9.776   9.508 -0.1872  0.0450 -0.7965
 1008MOL0     C35972  11.504   9.714   9.510 -1.1775  0.9750  0.3227
 1008MOL0     C35973  11.537   9.602   9.582 -0.6543  0.6187 -0.4371
 1008MOL0     C35974  11.678   9.549   9.579  0.1572  0.0472 -0.6348
 1008MOL0     O35975  11.698   9.452   9.682 -0.1215 -0.6698  0.1813
 1008MOL0     C35976  11.809   9.382   9.711 -0.4569 -0.9168  0.1103
 1008MOL0     C35977  11.944   9.415   9.680  0.4710 -0.4663  0.0309
 1008MOL0     C35978  12.056   9.343   9.719  0.5152  0.6442  0.8018
 1008MOL0     C35979  12.027   9.228   9.795  0.8622 -0.1853 -0.4640
 1008MOL0     O35980  12.138   9.155   9.824  0.4060 -0.4172 -0.9935
 1008MOL0     C35981  12.123   9.035   9.898 -1.1270  0.8814 -0.9118
 1008MOL0     C35982  12.264   8.983   9.945 -0.0446  0.9381 -0.0104
 1008MOL0     C35983  12.239   8.853  10.036  0.5389  0.5769 -0.0425
 1008MOL0     C35984  12.381   8.797  10.075  0.1657 -0.1042 -0.2417
 1008MOL0     C35985  12.372   8.673  10.165 -0.1130 -0.6058  0.0673
 1008MOL0     C35986  12.285   8.567  10.101  0.6443 -0.0341  0.5737
 1008MOL0     C35987  12.305   8.425  10.167  0.6074 -0.4774  0.4302
 1008MOL0     C35988  12.235   8.311  10.100 -0.3542 -1.3200  0.3367
 1008MOL0    Cl35989  12.302   8.300   9.931  0.6089 -0.1881  0.2785
 1008MOL0     C35990  11.897   9.196   9.842 -0.3122 -0.3367  0.0677
 1008MOL0     C35991  11.797   9.281   9.809  0.0640  0.9020  0.2401
 1008MOL0     O35992  11.756   9.581   9.488 -0.4491 -0.2939 -0.7644
 1008MOL0     C35993  11.434   9.545   9.656  0.2106  1.0322 -0.0776
 1008MOL0     C35994  11.304   9.618   9.664  0.4455  1.0981 -0.5621
 1008MOL0     N35995  10.664  10.006   9.578  0.8718  0.4648 -0.5273
 1008MOL0     N35996  10.574  10.071   9.519  0.9746 -0.3572  0.1519
 1008MOL0     C35997   9.434  10.057   9.672 -0.2852 -0.9800 -0.6545
 1008MOL0     C35998   9.339   9.960   9.716 -0.0311 -0.9869 -0.7820
 1008MOL0     C35999   8.934   9.829   9.946  0.3899  0.0890  0.4322
 1008MOL0     C36000   8.801   9.877   9.934 -0.7131  0.2299 -1.1493
 1008MOL0     C36001   8.690   9.783   9.939 -0.3048 -0.4195 -0.3372
 1008MOL0     C36002   8.712   9.648   9.959  0.1176 -0.6177  0.1121
 1008MOL0     O36003   8.602   9.564   9.969 -0.0474 -0.2597  0.1693
 1008MOL0     C36004   8.618   9.451  10.058 -0.1790  0.8252 -0.5440
 1008MOL0     C36005   8.486   9.432  10.125 -0.8115  0.1070 -0.5479
 1008MOL0     C36006   8.478   9.310  10.218  0.3332 -1.1011  0.0687
 1008MOL0     C36007   8.488   9.175  10.150  0.0109 -0.0620 -0.2445
 1008MOL0     C36008   8.354   9.149  10.094 -0.2033 -0.6008  0.3051
 1008MOL0     C36009   8.252   9.114  10.046  0.5462  0.0853  0.5356
 1008MOL0     C36010   8.839   9.599   9.966  0.8892 -1.0632  0.1768
 1008MOL0     C36011   8.948   9.687   9.962 -0.4648  0.1039  1.2190
 1008MOL0     C36012   9.085   9.626   9.977 -0.1868 -0.1031 -0.0434
 1008MOL0     H36013   9.154  10.166   9.914 -3.0834 -6.5707  0.9358
 1008MOL0     H36014   9.332  10.318   9.865  1.5305  0.9782 -1.1201
 1008MOL0     H36015   9.507  10.468   9.759  1.3591  0.6436  0.8601
 1008MOL0     H36016   9.581  10.364   9.876 -0.3352  0.3268  0.3235
 1008MOL0     H36017   9.729  10.536   9.780 -0.9766  0.2279  1.6234
 1008MOL0     H36018   9.697  10.478   9.615 -0.8787  1.5021  0.1728
 1008MOL0     H36019   9.785  10.247   9.701  0.1699  0.2082 -1.9308
 1008MOL0     H36020   9.845  10.329   9.846  0.7754  2.7877  0.3596
 1008MOL0     H36021   9.921  10.396   9.562 -2.9475 -0.0982 -0.4594
 1008MOL0     H36022   9.970  10.489   9.708 -4.3647  0.9900  1.4012
 1008MOL0     H36023  10.078  10.303   9.804 -1.0914  2.0085  0.3116
 1008MOL0     H36024  10.031  10.188   9.679 -0.7731  0.3755  1.8703
 1008MOL0     H36025  10.156  10.291   9.506 -0.1041  0.3287  0.1521
 1008MOL0     H36026  10.204  10.429   9.615 -1.6996  0.2489  0.2904
 1008MOL0     H36027  10.273  10.126   9.638  1.0679  0.6357  0.0134
 1008MOL0     H36028  10.320  10.245   9.760 -0.4057 -0.1099  0.5775
 1008MOL0     H36029  10.414  10.282   9.467 -0.9632  2.8667  0.5581
 1008MOL0     H36030  10.469  10.362   9.602 -0.5853  1.3356 -2.8266
 1008MOL0     H36031  10.558  10.186   9.823  2.6058 -0.7286  0.7611
 1008MOL0     H36032  10.804  10.062   9.873  0.3933  1.1014 -0.3959
 1008MOL0     H36033  10.696   9.936   9.893  3.3460 -2.3179  0.9726
 1008MOL0     H36034  10.864   9.821   9.880  0.7318  0.4356  0.4011
 1008MOL0     H36035  10.778   9.782   9.738 -0.6018  0.1534 -0.5614
 1008MOL0     H36036  11.011   9.983   9.724  0.0130  0.4871  1.1557
 1008MOL0     H36037  10.917   9.918   9.586  2.2773 -2.8003 -1.6108
 1008MOL0     H36038  11.001   9.691   9.644  1.3553 -0.5337 -0.8394
 1008MOL0     H36039  11.086   9.762   9.787  1.2238 -0.1251 -0.8048
 1008MOL0     H36040  11.366   9.873   9.460  1.7285  2.0775  2.5854
 1008MOL0     H36041  11.578   9.751   9.440  1.8865 -2.9494  1.1720
 1008MOL0     H36042  11.956   9.503   9.618  1.0451  0.5337  1.5148
 1008MOL0     H36043  12.144   9.377   9.667 -0.1927  0.9703 -0.2133
 1008MOL0     H36044  12.058   9.049   9.984 -1.3311  0.4957 -1.0038
 1008MOL0     H36045  12.077   8.962   9.831 -1.2015 -0.7271  0.8039
 1008MOL0     H36046  12.321   8.962   9.854  1.4604  1.9941  0.6384
 1008MOL0     H36047  12.309   9.067   9.998 -0.7276  1.1512  0.2463
 1008MOL0     H36048  12.174   8.864  10.123 -0.7096 -1.3554 -0.6582
 1008MOL0     H36049  12.190   8.782   9.969 -0.0770  0.2151  0.7744
 1008MOL0     H36050  12.440   8.878  10.117 -0.5326 -0.0621  0.6768
 1008MOL0     H36051  12.445   8.766   9.992  4.2811  2.2995  1.7249
 1008MOL0     H36052  12.332   8.696  10.264  2.9198  0.6139  1.1345
 1008MOL0     H36053  12.471   8.634  10.193 -0.0871  0.4964  1.7010
 1008MOL0     H36054  12.180   8.597  10.111  0.9613  1.3326  0.0293
 1008MOL0     H36055  12.305   8.566   9.993 -1.0691  1.6947  0.1775
 1008MOL0     H36056  12.258   8.442  10.265 -1.8616 -0.7805 -0.6262
 1008MOL0     H36057  12.413   8.407  10.173  0.3420 -1.8045  1.6358
 1008MOL0     H36058  12.251   8.220  10.159  1.2412 -1.6005 -0.4749
 1008MOL0     H36059  12.129   8.337  10.102  0.3913  2.2055  0.0424
 1008MOL0     H36060  11.870   9.111   9.904  0.9565 -0.0958  0.9743
 1008MOL0     H36061  11.703   9.264   9.860 -0.2262  1.5002 -0.0842
 1008MOL0     H36062  11.449   9.460   9.722  0.2104 -1.3355 -2.9453
 1008MOL0     H36063  11.229   9.577   9.730  0.7846  0.6045 -0.4798
 1008MOL0     H36064   9.514  10.033   9.603  0.7882  2.4218 -0.7510
 1008MOL0     H36065   9.338   9.860   9.675  0.4082 -0.9771 -0.8251
 1008MOL0     H36066   8.769   9.980   9.921  2.6455  1.4009 -1.0580
 1008MOL0     H36067   8.591   9.820   9.916 -1.3980 -2.9855 -0.0418
 1008MOL0     H36068   8.696   9.456  10.134  0.2238 -2.3559 -0.6202
 1008MOL0     H36069   8.634   9.369   9.987 -1.0734  1.9822 -2.1644
 1008MOL0     H36070   8.401   9.432  10.056 -0.8084  1.1171 -0.5637
 1008MOL0     H36071   8.480   9.521  10.189  0.1297  1.1331 -1.8214
 1008MOL0     H36072   8.380   9.325  10.263 -0.8335 -1.7943 -2.1057
 1008MOL0     H36073   8.557   9.317  10.294 -0.5039 -0.4384  0.9006
 1008MOL0     H36074   8.563   9.164  10.071  0.1904 -1.9758  0.1526
 1008MOL0     H36075   8.501   9.092  10.220 -3.6725 -0.8365 -0.2288
 1008MOL0     H36076   8.158   9.068  10.020  1.2896 -0.5290 -1.1932
 1008MOL0     H36077   8.860   9.495   9.988  2.2689 -0.3114  2.8452
 1008MOL0     H36078   9.108   9.575  10.070 -2.4519 -1.0451  0.0600
 1008MOL0     H36079   9.096   9.546   9.903  3.0276 -3.2017  3.3943
 1008MOL0     H36080   9.162   9.701   9.956 -3.2362  2.9555 -1.1979
 1009MOL0     O36081  11.143   2.499   0.249  0.2088 -0.1737 -0.3791
 1009MOL0     C36082  11.105   2.573   0.162 -0.1897 -0.0777  0.1247
 1009MOL0     O36083  11.174   2.615   0.058 -0.2192  0.5310  0.0584
 1009MOL0     C36084  11.306   2.577   0.048 -0.1350 -0.0871 -0.5402
 1009MOL0     C36085  11.348   2.516  -0.068 -0.2465 -0.0299  0.3033
 1009MOL0     C36086  11.484   2.484  -0.092 -0.1702 -0.1134 -0.1848
 1009MOL0     C36087  11.579   2.525   0.010 -0.3924 -0.7957  0.8854
 1009MOL0     O36088  11.716   2.495   0.004  0.4268  0.1991 -0.8826
 1009MOL0     C36089  11.785   2.455  -0.117 -0.3806 -0.0725 -0.4060
 1009MOL0     C36090  11.934   2.428  -0.080 -0.1517 -0.1556  0.2834
 1009MOL0     C36091  12.010   2.376  -0.201 -0.5340 -0.6295  0.0645
 1009MOL0     C36092  12.159   2.348  -0.165  0.5617 -0.2277 -0.2922
 1009MOL0     C36093  12.239   2.310  -0.289 -0.8691 -0.3887  0.1186
 1009MOL0     C36094  12.379   2.256  -0.246  0.2720  1.1091  0.5589
 1009MOL0     C36095  12.486   2.233  -0.359  0.5425  0.1852  0.6000
 1009MOL0     C36096  12.421   2.168  -0.483 -0.1701  0.0963  0.1843
 1009MOL0     N36097  12.507   2.128  -0.588 -0.1382  0.1142  0.0146
 1009MOL0     C36098  12.529   2.209  -0.697  0.7524  0.2965 -0.4146
 1009MOL0     C36099  12.614   2.136  -0.780 -0.1617 -0.2617 -0.0785
 1009MOL0     C36100  12.683   2.177  -0.911  0.4113  0.3033 -0.2295
 1009MOL0     C36101  12.800   2.088  -0.959  0.0261  0.0448 -0.2507
 1009MOL0     C36102  12.848   2.172  -1.078  0.4977  0.1539 -0.7702
 1009MOL0     C36103  12.987   2.126  -1.098 -0.2157 -0.1658 -0.6796
 1009MOL0     O36104  13.023   2.145  -1.229 -0.1993  0.1449  0.1218
 1009MOL0     C36105  13.142   2.095  -1.272  0.5290  0.8161  0.0310
 1009MOL0     C36106  13.160   2.063  -1.416 -0.6350  0.1626  0.2213
 1009MOL0     C36107  13.272   2.009  -1.463 -0.4528 -0.3046 -0.1639
 1009MOL0     C36108  13.382   1.972  -1.379  1.0439 -0.1988  0.1618
 1009MOL0     C36109  13.502   1.908  -1.434  0.0040 -0.6204  0.5823
 1009MOL0     O36110  13.494   1.880  -1.564 -0.4843  0.1278 -0.4318
 1009MOL0     C36111  13.601   1.813  -1.616  0.5477  0.1619  0.0616
 1009MOL0     C36112  13.627   1.679  -1.589 -0.1229  0.1007  0.2471
 1009MOL0     C36113  13.745   1.607  -1.633  0.2428  0.2079  0.1618
 1009MOL0     C36114  13.838   1.682  -1.710  0.5790 -0.2282 -0.7122
 1009MOL0     O36115  13.948   1.611  -1.758  0.0867 -0.5087 -0.1775
 1009MOL0     C36116  13.920   1.559  -1.889 -0.5770 -0.2137 -0.2364
 1009MOL0     C36117  13.953   1.657  -2.002  0.2997  0.5117  0.3109
 1009MOL0     C36118  14.104   1.699  -2.007 -0.2024  0.2902  0.0056
 1009MOL0     C36119  14.127   1.779  -2.132  0.1600  0.1852  0.3339
 1009MOL0     C36120  14.245   1.872  -2.113 -0.6907  0.6098 -0.7943
 1009MOL0     C36121  14.372   1.792  -2.075  0.0460 -0.3232 -0.3061
 1009MOL0     C36122  14.506   1.860  -2.091 -0.0004 -0.1107  0.2599
 1009MOL0     C36123  14.561   1.908  -1.951 -0.1848  0.6941  0.4693
 1009MOL0    Cl36124  14.686   2.032  -1.972 -0.2076  0.2040 -0.1420
 1009MOL0     C36125  13.813   1.820  -1.735 -0.2573 -0.5728  0.1263
 1009MOL0     C36126  13.694   1.879  -1.686 -0.2451  0.1547 -0.2007
 1009MOL0     O36127  13.605   1.895  -1.367 -0.3476  0.3626 -0.2546
 1009MOL0     C36128  13.369   2.001  -1.249  0.0136 -0.3392 -0.3209
 1009MOL0     C36129  13.251   2.055  -1.192  0.4236 -0.6525 -1.0007
 1009MOL0     N36130  12.630   2.008  -0.719 -0.2451 -0.0852  0.1577
 1009MOL0     N36131  12.564   2.009  -0.612  0.7634 -0.3003  0.2618
 1009MOL0     C36132  11.539   2.598   0.119  0.5077 -0.1193 -0.5363
 1009MOL0     C36133  11.402   2.627   0.139  0.4205  0.3280 -0.1547
 1009MOL0     C36134  10.958   2.598   0.151 -0.1168 -0.0988 -0.1607
 1009MOL0     C36135  10.902   2.602   0.023  0.0657  0.2990  0.2938
 1009MOL0     C36136  10.764   2.609   0.001  0.4715 -0.6875 -0.1595
 1009MOL0     C36137  10.671   2.612   0.111  0.1326 -0.4475 -0.3118
 1009MOL0     O36138  10.534   2.626   0.087 -0.0009  0.0209  0.3605
 1009MOL0     C36139  10.449   2.596   0.194 -0.0369  0.9839  0.1752
 1009MOL0     C36140  10.419   2.720   0.273  0.3173  0.0403  0.3208
 1009MOL0     C36141  10.302   2.691   0.363 -0.7612 -1.1069 -0.0654
 1009MOL0     C36142  10.238   2.805   0.444  0.2583  0.1029  0.1525
 1009MOL0     C36143  10.326   2.869   0.547 -0.2752 -0.8829  0.6087
 1009MOL0     C36144  10.395   2.910   0.635 -0.4924 -0.1956  0.4277
 1009MOL0     C36145  10.728   2.611   0.238  0.1408  0.2707 -0.1428
 1009MOL0     C36146  10.871   2.602   0.262  0.6178 -0.5275 -0.2011
 1009MOL0     C36147  10.927   2.591   0.403  0.2431  0.0660  0.3012
 1009MOL0     H36148  11.271   2.473  -0.132  0.8841 -0.5583 -0.7442
 1009MOL0     H36149  11.527   2.427  -0.174  1.7244  2.3045 -1.0314
 1009MOL0     H36150  11.729   2.374  -0.164 -0.9559 -0.2477  0.5588
 1009MOL0     H36151  11.775   2.535  -0.192 -1.0506 -2.8914 -3.5761
 1009MOL0     H36152  11.938   2.364   0.008 -3.5595  0.2877  0.8679
 1009MOL0     H36153  11.990   2.519  -0.054 -0.0805 -0.3793  0.9347
 1009MOL0     H36154  12.014   2.445  -0.285  0.7493 -0.5313  0.1852
 1009MOL0     H36155  11.955   2.291  -0.241 -0.0923 -0.2240 -1.4529
 1009MOL0     H36156  12.210   2.430  -0.114 -2.8166  0.2796  2.6931
 1009MOL0     H36157  12.165   2.259  -0.101  1.6429  0.2294  0.2768
 1009MOL0     H36158  12.176   2.234  -0.336  0.3290 -0.9547 -0.6131
 1009MOL0     H36159  12.241   2.401  -0.350  0.8752  0.2342  1.0479
 1009MOL0     H36160  12.418   2.324  -0.169 -1.3536  1.2522  1.3025
 1009MOL0     H36161  12.350   2.168  -0.187 -2.9428  2.1838  0.7914
 1009MOL0     H36162  12.564   2.170  -0.314 -1.1782 -0.1459  3.3544
 1009MOL0     H36163  12.532   2.327  -0.390 -0.7336 -0.0904 -2.4885
 1009MOL0     H36164  12.382   2.075  -0.441 -0.9499  1.4409  2.6946
 1009MOL0     H36165  12.344   2.229  -0.530  1.6334 -0.2528 -3.5915
 1009MOL0     H36166  12.499   2.312  -0.715 -1.8479 -0.4617 -0.9277
 1009MOL0     H36167  12.601   2.188  -0.982  0.6566  4.8146 -0.0905
 1009MOL0     H36168  12.713   2.281  -0.900  0.1636  0.2465  1.2139
 1009MOL0     H36169  12.879   2.080  -0.884 -0.0435  2.4536  0.1579
 1009MOL0     H36170  12.766   1.988  -0.989 -3.6054  0.8575  0.6783
 1009MOL0     H36171  12.848   2.278  -1.053 -0.8624 -0.1221  0.5590
 1009MOL0     H36172  12.789   2.156  -1.169 -1.2768 -1.1860  0.5580
 1009MOL0     H36173  13.004   2.020  -1.080  1.2060  0.0813 -0.4058
 1009MOL0     H36174  13.060   2.190  -1.047  0.4960  0.7539 -2.7659
 1009MOL0     H36175  13.090   2.069  -1.498  2.5032  1.5223 -2.5808
 1009MOL0     H36176  13.287   1.982  -1.567 -2.4606 -2.4536  0.0171
 1009MOL0     H36177  13.552   1.634  -1.525  0.5719 -2.8208 -0.8290
 1009MOL0     H36178  13.775   1.505  -1.611  1.2939  0.3686 -0.4599
 1009MOL0     H36179  13.991   1.475  -1.901 -1.4107 -0.8690 -0.6956
 1009MOL0     H36180  13.818   1.524  -1.904 -0.5593 -1.1659  1.6447
 1009MOL0     H36181  13.921   1.622  -2.101 -5.0087 -0.9254  2.2026
 1009MOL0     H36182  13.889   1.746  -1.995 -3.6076 -2.0526  0.4848
 1009MOL0     H36183  14.132   1.752  -1.916  0.9087 -1.6296  0.8389
 1009MOL0     H36184  14.164   1.608  -2.004  1.5406  1.2629 -2.4564
 1009MOL0     H36185  14.040   1.842  -2.148  0.9699  1.7574  1.7549
 1009MOL0     H36186  14.142   1.717  -2.221  0.5045 -2.1442  1.9164
 1009MOL0     H36187  14.215   1.927  -2.024 -2.9654 -2.4034  0.4976
 1009MOL0     H36188  14.260   1.924  -2.208 -1.7725  1.3884 -0.5578
 1009MOL0     H36189  14.369   1.752  -1.973  1.4143  1.5504  0.5172
 1009MOL0     H36190  14.365   1.704  -2.139 -1.8327  1.8474 -3.3736
 1009MOL0     H36191  14.490   1.945  -2.159  0.0642  0.5024  1.0005
 1009MOL0     H36192  14.580   1.798  -2.143  0.2797  0.9324 -0.6163
 1009MOL0     H36193  14.482   1.937  -1.881  0.2231  2.6190  0.1851
 1009MOL0     H36194  14.610   1.822  -1.903 -0.4000  0.1507 -0.2626
 1009MOL0     H36195  13.899   1.882  -1.762 -0.8484 -0.5804 -1.9287
 1009MOL0     H36196  13.688   1.987  -1.702 -0.6427 -0.0366 -1.5203
 1009MOL0     H36197  13.449   1.975  -1.181 -1.5587  0.3574  1.8732
 1009MOL0     H36198  13.254   2.074  -1.085  2.5739  0.1761 -1.1588
 1009MOL0     H36199  11.618   2.627   0.188 -0.4844  3.9172 -0.8415
 1009MOL0     H36200  11.368   2.692   0.219  0.5295  1.1588 -0.7679
 1009MOL0     H36201  10.958   2.578  -0.066 -0.6130 -0.7676  0.1332
 1009MOL0     H36202  10.733   2.600  -0.102  0.2720  1.1906 -0.3083
 1009MOL0     H36203  10.489   2.524   0.266  1.3646  3.0160  1.5496
 1009MOL0     H36204  10.362   2.543   0.156  0.5383  0.5278 -0.5428
 1009MOL0     H36205  10.380   2.799   0.209 -0.8625 -0.8171 -0.0586
 1009MOL0     H36206  10.507   2.763   0.320 -0.8233  0.2208  2.4418
 1009MOL0     H36207  10.342   2.625   0.441 -0.4226  0.9370  1.5639
 1009MOL0     H36208  10.225   2.634   0.310 -0.2523 -0.2776 -1.7346
 1009MOL0     H36209  10.195   2.881   0.377  0.3502 -1.2453 -1.4998
 1009MOL0     H36210  10.159   2.758   0.503  1.5505 -0.0288  1.8570
 1009MOL0     H36211  10.462   2.940   0.712  2.0862  1.6599 -2.3303
 1009MOL0     H36212  10.672   2.596   0.330 -2.1991 -2.5589 -1.8572
 1009MOL0     H36213  10.990   2.675   0.434  1.9533 -1.6622  1.7006
 1009MOL0     H36214  10.839   2.589   0.469  0.9027  1.4353  1.2663
 1009MOL0     H36215  10.973   2.493   0.410 -0.2567 -0.4058 -2.0630
 1010MOL0     O36216   7.841   6.899  10.558 -0.3129 -0.6111  0.5444
 1010MOL0     C36217   7.783   6.964  10.468  0.2569 -1.1493 -1.2574
 1010MOL0     O36218   7.814   7.093  10.420 -1.1989  0.5516  0.2293
 1010MOL0     C36219   7.898   7.183  10.484 -0.0456 -0.1791  0.4027
 1010MOL0     C36220   7.972   7.269  10.406  0.9679 -0.4086  0.4805
 1010MOL0     C36221   8.036   7.381  10.460  0.0514  0.0038 -0.0120
 1010MOL0     C36222   8.035   7.405  10.596  1.0975  0.4556 -0.6798
 1010MOL0     O36223   8.101   7.521  10.636  0.3770  0.2518 -0.1431
 1010MOL0     C36224   8.134   7.530  10.777  0.2711  0.4649  0.0745
 1010MOL0     C36225   8.259   7.624  10.790 -0.4004 -0.0653  0.0595
 1010MOL0     C36226   8.371   7.569  10.881  0.4554 -0.1321 -0.6971
 1010MOL0     C36227   8.498   7.667  10.871  1.1562  0.0898 -0.6089
 1010MOL0     C36228   8.608   7.626  10.969 -0.2290  0.4102  0.8276
 1010MOL0     C36229   8.583   7.679  11.109  0.0897  1.0993  0.0288
 1010MOL0     C36230   8.702   7.645  11.210 -0.2147  1.0780 -0.1490
 1010MOL0     C36231   8.728   7.490  11.239  0.3125  0.0296  0.0605
 1010MOL0     N36232   8.830   7.468  11.341  0.3454 -0.1417 -0.2341
 1010MOL0     C36233   8.796   7.452  11.478 -0.8013  0.2476  0.0645
 1010MOL0     C36234   8.919   7.465  11.538 -0.4110  0.1332 -0.5085
 1010MOL0     C36235   8.927   7.471  11.689 -1.0278 -0.8971  0.2787
 1010MOL0     C36236   9.069   7.425  11.735  0.4221 -0.3469 -0.2979
 1010MOL0     C36237   9.094   7.273  11.722 -0.1962 -0.4495  0.3525
 1010MOL0     C36238   9.218   7.230  11.791 -0.5842 -0.0479  0.1172
 1010MOL0     O36239   9.334   7.295  11.733 -0.1186  0.4101  0.1971
 1010MOL0     C36240   9.457   7.258  11.779 -0.2854 -0.2150 -0.2826
 1010MOL0     C36241   9.493   7.152  11.868  0.1518  0.1458  0.2089
 1010MOL0     C36242   9.622   7.127  11.912  0.1338  0.1845  0.2819
 1010MOL0     C36243   9.729   7.211  11.863  0.0955 -0.2497 -0.3092
 1010MOL0     C36244   9.871   7.186  11.903  0.1857  0.1588  0.5811
 1010MOL0     O36245   9.883   7.093  12.006  0.1741  0.6915 -0.5713
 1010MOL0     C36246  10.014   7.048  12.046  0.4217 -0.1438 -0.2165
 1010MOL0     C36247  10.029   7.036  12.183  0.2109  0.6296 -0.0579
 1010MOL0     C36248  10.147   6.994  12.241  0.6934 -0.1813 -0.6538
 1010MOL0     C36249  10.254   6.952  12.158 -0.2413 -0.0715  0.0260
 1010MOL0     O36250  10.374   6.895  12.211 -0.4933  0.4304 -0.0086
 1010MOL0     C36251  10.387   6.901  12.358  0.2910  0.7812 -0.0380
 1010MOL0     C36252  10.519   6.834  12.410  1.1432  0.2853 -0.3209
 1010MOL0     C36253  10.640   6.906  12.354 -0.2091  0.3441  0.6207
 1010MOL0     C36254  10.779   6.835  12.409 -0.0264  0.4112 -0.1009
 1010MOL0     C36255  10.799   6.700  12.342  1.4123 -0.5017  0.0591
 1010MOL0     C36256  10.940   6.640  12.397  0.3423  0.5432  0.7349
 1010MOL0     C36257  10.967   6.492  12.336 -0.2755  0.4220 -0.4405
 1010MOL0     C36258  11.097   6.435  12.401  0.2157  0.3326  0.8236
 1010MOL0    Cl36259  11.251   6.502  12.343 -0.1122  0.2873  0.0908
 1010MOL0     C36260  10.245   6.970  12.024 -0.7608 -0.0545 -0.2988
 1010MOL0     C36261  10.128   7.011  11.969 -0.1944 -1.0543  0.6414
 1010MOL0     O36262   9.967   7.241  11.843 -0.1667  0.2348 -0.5278
 1010MOL0     C36263   9.703   7.314  11.778  0.0640 -0.4709  0.5493
 1010MOL0     C36264   9.566   7.341  11.734  0.2820 -0.0018  0.2543
 1010MOL0     N36265   9.023   7.475  11.446 -0.1976 -0.0907 -0.0008
 1010MOL0     N36266   8.967   7.469  11.323 -0.2593  0.0578 -1.2419
 1010MOL0     C36267   7.968   7.307  10.676  0.2493  0.7054 -1.1977
 1010MOL0     C36268   7.901   7.198  10.618 -0.9081  0.3362  0.0723
 1010MOL0     C36269   7.667   6.905  10.409  0.2474 -0.0675 -0.2063
 1010MOL0     C36270   7.547   6.911  10.476 -1.1667  0.8340 -0.0376
 1010MOL0     C36271   7.429   6.861  10.422 -0.8884 -1.0031 -0.0868
 1010MOL0     C36272   7.428   6.826  10.292  0.5816  0.4529 -0.3475
 1010MOL0     O36273   7.317   6.788  10.218 -0.6527  0.1989 -0.1289
 1010MOL0     C36274   7.199   6.785  10.289  0.0607  0.8271  0.0237
 1010MOL0     C36275   7.080   6.743  10.200 -0.6309  0.3894  0.4516
 1010MOL0     C36276   7.084   6.591  10.155 -0.4874 -0.2810 -0.3814
 1010MOL0     C36277   7.204   6.551  10.068 -0.3883 -0.4476 -0.7303
 1010MOL0     C36278   7.177   6.422  10.011  0.5303  0.1117 -0.0193
 1010MOL0     C36279   7.153   6.315   9.963 -0.3033 -0.1575 -0.4157
 1010MOL0     C36280   7.540   6.828  10.217 -0.7486  0.9348  0.1203
 1010MOL0     C36281   7.666   6.855  10.279 -0.1354 -0.7922 -0.1455
 1010MOL0     C36282   7.784   6.839  10.191  0.5403  0.3066  0.3505
 1010MOL0     H36283   7.967   7.255  10.298 -1.7504 -0.3530  0.5398
 1010MOL0     H36284   8.089   7.446  10.390  0.0014 -1.6961 -1.7361
 1010MOL0     H36285   8.049   7.569  10.834  2.7700  3.8698  1.8748
 1010MOL0     H36286   8.158   7.429  10.811 -0.7902  0.0880 -0.2856
 1010MOL0     H36287   8.226   7.725  10.817 -0.2548  0.1491 -0.5462
 1010MOL0     H36288   8.302   7.634  10.690  1.7886 -0.9554  0.8439
 1010MOL0     H36289   8.403   7.466  10.867 -1.6089 -0.6626 -1.8724
 1010MOL0     H36290   8.329   7.575  10.982  3.1660  0.1457  0.5014
 1010MOL0     H36291   8.550   7.656  10.776  2.2195  0.1148 -0.0488
 1010MOL0     H36292   8.474   7.773  10.882  2.2212  0.0856  4.0156
 1010MOL0     H36293   8.617   7.517  10.969  1.1832  0.5069  0.3144
 1010MOL0     H36294   8.713   7.638  10.944 -0.1116 -3.5250 -1.3767
 1010MOL0     H36295   8.561   7.787  11.103 -1.2883  0.8181 -0.4156
 1010MOL0     H36296   8.496   7.637  11.161  1.7248 -1.0147  1.1807
 1010MOL0     H36297   8.682   7.698  11.303  2.0666  1.5141  0.1406
 1010MOL0     H36298   8.790   7.689  11.161  0.9438  1.2789  2.0047
 1010MOL0     H36299   8.632   7.441  11.262  0.6361 -1.1642 -1.0393
 1010MOL0     H36300   8.773   7.442  11.151  1.8909 -1.7628  1.7395
 1010MOL0     H36301   8.700   7.436  11.525 -0.5616 -0.6000  0.2775
 1010MOL0     H36302   8.896   7.573  11.716 -0.4509 -0.6464  0.0016
 1010MOL0     H36303   8.849   7.404  11.726 -3.0241  0.9553 -0.3230
 1010MOL0     H36304   9.147   7.476  11.677  1.3245 -1.9442 -0.5362
 1010MOL0     H36305   9.080   7.460  11.838 -1.1626  0.2138 -0.2866
 1010MOL0     H36306   9.102   7.250  11.616  2.1198  0.8048  0.1861
 1010MOL0     H36307   9.013   7.229  11.781  0.3311  1.5638  2.8079
 1010MOL0     H36308   9.232   7.122  11.774  0.1339 -0.1559  1.3101
 1010MOL0     H36309   9.219   7.247  11.899  1.4844  1.2555 -0.0524
 1010MOL0     H36310   9.418   7.077  11.894  0.8016 -1.4530 -2.1356
 1010MOL0     H36311   9.648   7.041  11.973 -3.2262 -0.9172  0.3352
 1010MOL0     H36312   9.945   7.069  12.243  0.2042 -1.3583  1.1270
 1010MOL0     H36313  10.150   6.991  12.349 -2.9509 -1.1007 -0.4448
 1010MOL0     H36314  10.392   7.003  12.396  1.8160  0.2483  1.3112
 1010MOL0     H36315  10.299   6.850  12.400  2.5399 -2.7954  0.8184
 1010MOL0     H36316  10.515   6.833  12.519 -1.1418 -0.0276 -0.3527
 1010MOL0     H36317  10.523   6.729  12.378 -1.4454 -0.3036  1.0088
 1010MOL0     H36318  10.638   6.904  12.245  0.6157 -0.7080  0.6156
 1010MOL0     H36319  10.654   7.011  12.383  1.9100 -0.0554  1.1482
 1010MOL0     H36320  10.774   6.828  12.518 -0.7907 -1.0719 -0.2131
 1010MOL0     H36321  10.863   6.900  12.380 -0.3741  0.4903 -0.9567
 1010MOL0     H36322  10.798   6.710  12.233 -1.1172 -1.2416 -0.0514
 1010MOL0     H36323  10.720   6.629  12.369  0.6286  0.1296 -0.4989
 1010MOL0     H36324  11.024   6.704  12.369 -1.0583  2.5855  1.0314
 1010MOL0     H36325  10.936   6.623  12.505  4.2354 -0.8727  0.8221
 1010MOL0     H36326  10.992   6.488  12.229  0.7875 -2.7498 -0.1980
 1010MOL0     H36327  10.886   6.423  12.360  2.2798 -2.3175  0.9629
 1010MOL0     H36328  11.085   6.445  12.509 -1.0673  0.3720  0.6898
 1010MOL0     H36329  11.090   6.328  12.379 -0.5731  0.6266 -0.4837
 1010MOL0     H36330  10.321   6.941  11.951  0.4290 -0.5146  1.0681
 1010MOL0     H36331  10.125   7.028  11.862  0.3661  1.3853  0.9633
 1010MOL0     H36332   9.777   7.386  11.745 -1.4881  1.2985  0.7256
 1010MOL0     H36333   9.545   7.432  11.679  2.2082  1.5482  1.9377
 1010MOL0     H36334   7.958   7.324  10.783  0.2071  1.5275 -1.3239
 1010MOL0     H36335   7.842   7.132  10.681 -2.6627  1.9639  0.2067
 1010MOL0     H36336   7.540   6.969  10.567 -0.0197  0.8471  0.0484
 1010MOL0     H36337   7.347   6.862  10.493 -0.3642  1.0930  0.5690
 1010MOL0     H36338   7.165   6.879  10.334 -2.0678  0.1548 -0.0474
 1010MOL0     H36339   7.205   6.713  10.371  2.2567  0.0201 -0.7719
 1010MOL0     H36340   7.075   6.811  10.115 -0.8877  0.8186  0.8091
 1010MOL0     H36341   6.989   6.775  10.251 -0.7952  3.3533 -1.4774
 1010MOL0     H36342   6.997   6.582  10.090 -1.1175  2.5243 -0.0608
 1010MOL0     H36343   7.061   6.511  10.226 -5.1149  0.4833 -0.7557
 1010MOL0     H36344   7.219   6.630   9.993  0.4121  3.6248  3.2873
 1010MOL0     H36345   7.298   6.544  10.123  0.8876 -1.1429 -2.8481
 1010MOL0     H36346   7.129   6.215   9.931  2.4735 -1.1471  0.2974
 1010MOL0     H36347   7.531   6.789  10.117  0.6969 -0.2531  0.4107
 1010MOL0     H36348   7.818   6.937  10.156 -1.6796  0.8332 -0.5520
 1010MOL0     H36349   7.866   6.790  10.242  1.3525 -0.9700 -2.0232
 1010MOL0     H36350   7.753   6.783  10.102 -1.5956 -0.1524  1.3326
 1011MOL0     O36351   1.813   7.629   3.093 -0.4522 -0.3858 -0.6372
 1011MOL0     C36352   1.775   7.571   3.193 -0.3255  0.1299 -0.0087
 1011MOL0     O36353   1.856   7.484   3.263  0.1613 -0.0837 -0.5760
 1011MOL0     C36354   1.989   7.469   3.246  0.6812  1.0543  0.8168
 1011MOL0     C36355   2.074   7.567   3.286  0.9465  0.1043 -0.5873
 1011MOL0     C36356   2.211   7.567   3.266  0.4278 -0.5644 -0.0479
 1011MOL0     C36357   2.259   7.457   3.198  0.4213 -0.0845 -0.1361
 1011MOL0     O36358   2.394   7.458   3.178 -0.6130 -0.0576  0.7673
 1011MOL0     C36359   2.461   7.336   3.151 -1.0444 -0.2575 -0.0416
 1011MOL0     C36360   2.609   7.370   3.161 -0.3341  0.2535  0.0967
 1011MOL0     C36361   2.659   7.429   3.298  0.4551  1.0439  0.2688
 1011MOL0     C36362   2.732   7.320   3.375 -0.3177  1.4406 -0.6905
 1011MOL0     C36363   2.817   7.393   3.477 -0.8992  0.3451  0.1563
 1011MOL0     C36364   2.914   7.303   3.543 -0.6519 -1.0603 -0.3825
 1011MOL0     C36365   3.020   7.372   3.638  0.4663  0.2532  0.8453
 1011MOL0     C36366   2.967   7.425   3.770 -0.0511 -0.0165  0.2829
 1011MOL0     N36367   2.854   7.355   3.831  0.6380  0.5613  0.7044
 1011MOL0     C36368   2.723   7.384   3.805 -0.1405 -0.8320 -0.1254
 1011MOL0     C36369   2.660   7.280   3.855 -0.0941  0.5792  0.4583
 1011MOL0     C36370   2.506   7.276   3.833 -0.1804  0.9842  0.2590
 1011MOL0     C36371   2.461   7.232   3.699 -0.9611  0.2450 -0.1539
 1011MOL0     C36372   2.315   7.215   3.687  0.4915 -0.7794  0.0539
 1011MOL0     C36373   2.259   7.212   3.535  0.7578 -0.0347  0.1440
 1011MOL0     O36374   2.137   7.137   3.516 -0.3626 -0.6058 -0.7104
 1011MOL0     C36375   2.016   7.196   3.565  0.4879  0.1609  0.1643
 1011MOL0     C36376   1.904   7.118   3.522 -0.2671 -0.4842  0.9252
 1011MOL0     C36377   1.773   7.158   3.545 -0.6631  0.5159  0.0493
 1011MOL0     C36378   1.750   7.262   3.639 -0.7343  0.2009 -0.2539
 1011MOL0     C36379   1.613   7.272   3.690 -0.8198  0.9962  0.0106
 1011MOL0     O36380   1.588   7.381   3.756  0.6779 -0.2862  0.4368
 1011MOL0     C36381   1.467   7.399   3.816  1.4016  0.4334 -0.2200
 1011MOL0     C36382   1.484   7.402   3.954  0.2851 -0.3779  0.1351
 1011MOL0     C36383   1.374   7.400   4.036  0.5279  0.0691 -0.6515
 1011MOL0     C36384   1.243   7.392   3.984 -0.2021  0.8926  0.1531
 1011MOL0     O36385   1.143   7.391   4.086  0.1074 -0.0259 -0.2728
 1011MOL0     C36386   1.021   7.454   4.052  0.5304 -0.9360  0.1003
 1011MOL0     C36387   0.912   7.401   4.147 -0.7699  0.9573  0.6316
 1011MOL0     C36388   0.919   7.466   4.276 -0.7136  0.0109 -1.2026
 1011MOL0     C36389   0.816   7.419   4.381 -0.1241  0.1602 -0.2011
 1011MOL0     C36390   0.711   7.525   4.407  0.2914  0.4005  0.3949
 1011MOL0     C36391   0.630   7.556   4.284  0.0719 -0.1691  0.5011
 1011MOL0     C36392   0.530   7.665   4.318  0.4332 -0.9383 -0.4355
 1011MOL0     C36393   0.490   7.743   4.188  0.1024 -0.6815  0.3145
 1011MOL0    Cl36394   0.623   7.852   4.135 -0.0614  0.2402 -0.0675
 1011MOL0     C36395   1.219   7.392   3.848 -1.4397 -0.8958  1.7872
 1011MOL0     C36396   1.333   7.397   3.761 -1.0895  0.3941  0.0882
 1011MOL0     O36397   1.538   7.175   3.672 -0.2306  0.5932 -0.1114
 1011MOL0     C36398   1.857   7.342   3.680 -0.3411 -0.2976 -0.3946
 1011MOL0     C36399   1.990   7.311   3.644 -0.7682  0.5257  1.0826
 1011MOL0     N36400   2.746   7.182   3.902  0.4099  0.0774 -0.3223
 1011MOL0     N36401   2.860   7.234   3.890 -0.5724 -0.4235 -0.6357
 1011MOL0     C36402   2.174   7.360   3.150  0.4748  0.4407  0.0747
 1011MOL0     C36403   2.039   7.357   3.183 -0.0300  0.3059 -0.7835
 1011MOL0     C36404   1.643   7.605   3.237 -0.5522 -0.4816  0.1908
 1011MOL0     C36405   1.591   7.729   3.197  0.3700  0.2072 -0.5543
 1011MOL0     C36406   1.465   7.766   3.230  0.2471 -0.7255  1.0148
 1011MOL0     C36407   1.376   7.688   3.302  0.5357 -0.5149 -0.2278
 1011MOL0     O36408   1.245   7.723   3.320 -0.5665  0.1374 -0.0642
 1011MOL0     C36409   1.189   7.802   3.222 -0.0768 -0.0781  0.3505
 1011MOL0     C36410   1.036   7.804   3.235  0.4711  0.0221  0.7796
 1011MOL0     C36411   0.982   7.661   3.211  0.2714  0.2682  0.7608
 1011MOL0     C36412   0.830   7.651   3.261 -0.6211  0.3517  0.8354
 1011MOL0     C36413   0.756   7.542   3.193  0.1803  0.9401  0.2383
 1011MOL0     C36414   0.687   7.458   3.136  0.4330  0.5926  0.3938
 1011MOL0     C36415   1.427   7.567   3.346 -0.6533 -0.2413  0.1758
 1011MOL0     C36416   1.555   7.517   3.311 -0.2842 -0.4937 -0.6758
 1011MOL0     C36417   1.600   7.382   3.365  0.7100 -0.3632  1.0156
 1011MOL0     H36418   2.019   7.639   3.345 -0.3901 -2.0340  0.9217
 1011MOL0     H36419   2.284   7.641   3.298 -0.2259 -0.1282  0.4605
 1011MOL0     H36420   2.414   7.252   3.204 -0.3893 -1.2718 -1.0379
 1011MOL0     H36421   2.449   7.310   3.046  1.0141 -0.0375 -0.3734
 1011MOL0     H36422   2.638   7.440   3.082  2.8854 -4.3865 -3.4619
 1011MOL0     H36423   2.656   7.275   3.133  1.8204  0.5556  2.3605
 1011MOL0     H36424   2.572   7.467   3.353  0.5304 -0.9799  1.9063
 1011MOL0     H36425   2.719   7.518   3.275 -1.8861  2.2715 -1.4850
 1011MOL0     H36426   2.667   7.249   3.426  1.9508 -0.2622  0.0049
 1011MOL0     H36427   2.800   7.259   3.315  0.5037  0.0485  1.5157
 1011MOL0     H36428   2.881   7.468   3.430 -1.3868  0.5576 -0.1785
 1011MOL0     H36429   2.751   7.442   3.549  0.6509  1.5153  0.8658
 1011MOL0     H36430   2.865   7.227   3.605 -0.8101 -0.8397 -0.2348
 1011MOL0     H36431   2.975   7.258   3.465 -0.2818  0.4896 -1.0090
 1011MOL0     H36432   3.066   7.458   3.587 -0.9040 -0.1092 -1.1028
 1011MOL0     H36433   3.099   7.300   3.662  0.3000 -0.9166 -1.7799
 1011MOL0     H36434   3.050   7.424   3.840  1.4605  0.9445 -1.4223
 1011MOL0     H36435   2.944   7.532   3.760  0.5037  0.4819  3.2663
 1011MOL0     H36436   2.672   7.470   3.763 -1.5473 -1.9717 -0.8323
 1011MOL0     H36437   2.455   7.224   3.914 -1.4728  0.3008 -0.9450
 1011MOL0     H36438   2.469   7.379   3.836  1.6933  1.7975 -1.7931
 1011MOL0     H36439   2.493   7.307   3.627 -2.4816 -0.8195 -2.0262
 1011MOL0     H36440   2.517   7.140   3.678  1.0811  1.5784 -0.8572
 1011MOL0     H36441   2.261   7.303   3.724 -0.2541 -0.4419 -1.7659
 1011MOL0     H36442   2.285   7.118   3.727 -0.0713  0.3533  2.6359
 1011MOL0     H36443   2.342   7.161   3.486 -0.4147 -2.7277  0.7535
 1011MOL0     H36444   2.243   7.312   3.493 -0.3659 -0.8836 -1.5746
 1011MOL0     H36445   1.926   7.035   3.456 -1.7940  0.3916 -0.7718
 1011MOL0     H36446   1.694   7.104   3.493 -1.5084  1.3639  0.4158
 1011MOL0     H36447   1.587   7.406   3.988 -0.1058  0.9227  1.2652
 1011MOL0     H36448   1.377   7.402   4.145  3.0701  1.5349 -0.6659
 1011MOL0     H36449   1.029   7.562   4.068  2.2637 -1.2739  1.8748
 1011MOL0     H36450   0.976   7.437   3.954 -4.7478  2.5011  1.5229
 1011MOL0     H36451   0.823   7.420   4.087  0.5292  2.2971 -0.9980
 1011MOL0     H36452   0.927   7.294   4.159 -0.1498  0.8164 -1.1779
 1011MOL0     H36453   1.020   7.453   4.315 -1.0256  1.5043  0.2030
 1011MOL0     H36454   0.920   7.574   4.256  2.8041  0.0855 -1.0940
 1011MOL0     H36455   0.862   7.384   4.474 -0.9817 -0.7761 -0.1092
 1011MOL0     H36456   0.763   7.331   4.344  1.3542 -0.9143  0.1535
 1011MOL0     H36457   0.772   7.608   4.443 -2.0492  2.2310  0.4154
 1011MOL0     H36458   0.657   7.501   4.500  1.0594 -1.8532  0.3000
 1011MOL0     H36459   0.691   7.585   4.197 -0.3503 -2.3166 -0.5874
 1011MOL0     H36460   0.577   7.461   4.268 -2.0352  0.9933  0.1816
 1011MOL0     H36461   0.566   7.745   4.383  1.0222 -0.5502 -1.2267
 1011MOL0     H36462   0.445   7.616   4.367  0.6904 -0.0654  0.9353
 1011MOL0     H36463   0.461   7.662   4.121  1.7664 -2.1197  1.2374
 1011MOL0     H36464   0.401   7.805   4.204  0.9096  1.0611 -1.4586
 1011MOL0     H36465   1.121   7.389   3.803  0.0399 -3.1311 -1.7574
 1011MOL0     H36466   1.330   7.393   3.652 -0.9917  2.5002 -0.0191
 1011MOL0     H36467   1.825   7.426   3.740  0.6895 -0.5172  0.4869
 1011MOL0     H36468   2.058   7.391   3.671 -1.6319  1.5805  0.2149
 1011MOL0     H36469   2.206   7.291   3.073  1.6301 -1.7577  2.3702
 1011MOL0     H36470   1.972   7.275   3.160  0.5626 -0.1381 -0.9730
 1011MOL0     H36471   1.652   7.805   3.150  0.3202  1.0659  0.6974
 1011MOL0     H36472   1.429   7.863   3.197  0.6628 -1.6731 -2.7276
 1011MOL0     H36473   1.233   7.771   3.127  0.4615 -0.7642  0.8080
 1011MOL0     H36474   1.223   7.903   3.248  0.8998 -0.1361 -0.6369
 1011MOL0     H36475   0.997   7.878   3.165  1.4656  0.9347  1.1622
 1011MOL0     H36476   1.007   7.844   3.332 -3.0374  0.0348 -0.1548
 1011MOL0     H36477   1.050   7.592   3.261  2.2926 -0.4303 -2.6016
 1011MOL0     H36478   0.990   7.627   3.107  0.7850  0.8154  0.6149
 1011MOL0     H36479   0.843   7.643   3.370  1.7609 -0.2990  0.5539
 1011MOL0     H36480   0.784   7.742   3.221  2.5699  0.6586 -2.6799
 1011MOL0     H36481   0.626   7.387   3.083 -0.6371  2.6456 -1.3032
 1011MOL0     H36482   1.362   7.492   3.389 -2.0488  0.2546 -0.9866
 1011MOL0     H36483   1.605   7.310   3.282 -2.6236  0.0908  0.2765
 1011MOL0     H36484   1.702   7.387   3.404  1.4583 -0.1388 -0.8352
 1011MOL0     H36485   1.520   7.337   3.424  2.5615 -3.1277  1.6239
 1012MOL0     O36486   1.222  10.208   1.609 -0.2159  0.2029 -0.1756
 1012MOL0     C36487   1.112  10.243   1.558 -0.0807 -0.2784  0.0777
 1012MOL0     O36488   1.100  10.319   1.440 -0.1383  0.1006  0.5721
 1012MOL0     C36489   1.211  10.365   1.371 -0.0323 -1.1861 -0.4396
 1012MOL0     C36490   1.305  10.280   1.317 -0.2683  0.3060 -0.3072
 1012MOL0     C36491   1.411  10.336   1.235 -0.3252  0.3376  0.2867
 1012MOL0     C36492   1.425  10.477   1.218  0.1155 -0.1743 -0.8341
 1012MOL0     O36493   1.521  10.521   1.133 -0.4536 -0.6049  0.1691
 1012MOL0     C36494   1.525  10.667   1.116 -0.7836  0.8655  0.4120
 1012MOL0     C36495   1.602  10.717   0.991 -0.5482  0.2420  0.0098
 1012MOL0     C36496   1.562  10.625   0.878 -0.1071 -0.0213  0.0659
 1012MOL0     C36497   1.610  10.670   0.741 -0.2548  0.5218  0.0639
 1012MOL0     C36498   1.586  10.561   0.630  0.4666  0.1174  0.4243
 1012MOL0     C36499   1.676  10.593   0.503 -0.0178 -0.6339 -0.1100
 1012MOL0     C36500   1.676  10.475   0.406  0.7118  1.2419 -0.6605
 1012MOL0     C36501   1.712  10.518   0.265 -0.0868  0.3819  0.2361
 1012MOL0     N36502   1.837  10.600   0.265  0.6570  0.1919 -0.1863
 1012MOL0     C36503   1.959  10.545   0.237  0.0589 -0.1505  0.7398
 1012MOL0     C36504   2.031  10.651   0.196  0.2540 -0.2953  0.3482
 1012MOL0     C36505   2.176  10.647   0.153  0.0249 -0.0480  1.0912
 1012MOL0     C36506   2.271  10.609   0.276 -0.3244 -0.0672 -0.3373
 1012MOL0     C36507   2.401  10.527   0.228  1.5136 -0.4108  0.2148
 1012MOL0     C36508   2.487  10.495   0.351  0.2627  0.0811  0.0814
 1012MOL0     O36509   2.584  10.398   0.305 -0.4226 -0.8909 -0.4142
 1012MOL0     C36510   2.708  10.443   0.268 -0.8521  0.5996  0.4793
 1012MOL0     C36511   2.728  10.581   0.233  0.0046  0.7597 -0.7356
 1012MOL0     C36512   2.853  10.610   0.174  0.3776  0.3697 -0.5905
 1012MOL0     C36513   2.957  10.517   0.163 -0.6836  0.4993 -0.1915
 1012MOL0     C36514   3.086  10.557   0.099 -0.4467 -1.0837 -0.0566
 1012MOL0     O36515   3.199  10.486   0.123 -0.5841  0.2788 -0.2998
 1012MOL0     C36516   3.308  10.526   0.051  0.6431  0.2681 -0.8883
 1012MOL0     C36517   3.380  10.643   0.079  0.0671  0.6845  0.2416
 1012MOL0     C36518   3.490  10.667   0.009 -0.0489 -0.0146 -0.2134
 1012MOL0     C36519   3.515  10.595  -0.110 -0.6505  0.2281  0.0424
 1012MOL0     O36520   3.622  10.633  -0.190 -0.3114 -0.3043  0.5042
 1012MOL0     C36521   3.639  10.606  -0.331 -0.4285  0.5598  0.2538
 1012MOL0     C36522   3.715  10.481  -0.361  0.8528 -0.5886 -0.5464
 1012MOL0     C36523   3.711  10.436  -0.515 -0.1107  0.0673 -0.4730
 1012MOL0     C36524   3.860  10.424  -0.550 -0.7546  0.5660  0.0353
 1012MOL0     C36525   3.868  10.378  -0.695 -0.0550 -0.3118  0.2562
 1012MOL0     C36526   4.011  10.393  -0.753 -0.0667  0.0055 -0.4533
 1012MOL0     C36527   3.995  10.385  -0.911  0.2814  0.2433  0.6600
 1012MOL0     C36528   4.125  10.415  -0.975 -0.0022 -0.3585  0.4134
 1012MOL0    Cl36529   4.192  10.583  -0.960  0.1391  0.0117 -0.0125
 1012MOL0     C36530   3.439  10.486  -0.150  0.4532  0.6903 -0.3934
 1012MOL0     C36531   3.334  10.452  -0.064  0.1244  0.0556  0.3552
 1012MOL0     O36532   3.075  10.654   0.028  0.1746 -0.7306 -0.1809
 1012MOL0     C36533   2.930  10.385   0.184  0.1720 -0.0849  0.5855
 1012MOL0     C36534   2.808  10.351   0.242 -0.6640 -0.6314  0.0484
 1012MOL0     N36535   1.962  10.766   0.206  0.1333 -0.3406  0.3868
 1012MOL0     N36536   1.838  10.737   0.230 -0.0254 -0.3135 -0.1029
 1012MOL0     C36537   1.328  10.560   1.282  0.6310 -0.2338  0.1561
 1012MOL0     C36538   1.226  10.502   1.361  0.1121 -0.3630 -0.3659
 1012MOL0     C36539   0.980  10.197   1.613  0.5498 -0.3942  0.0908
 1012MOL0     C36540   0.863  10.229   1.544  0.6227 -0.9288 -0.4948
 1012MOL0     C36541   0.740  10.186   1.584 -0.5249 -0.3768 -0.6707
 1012MOL0     C36542   0.723  10.120   1.705  0.4036  0.2628 -0.4890
 1012MOL0     O36543   0.607  10.073   1.747  0.0354  0.2425  0.4204
 1012MOL0     C36544   0.493  10.138   1.693  0.6679 -0.2627  0.4562
 1012MOL0     C36545   0.423  10.046   1.590 -0.7108  0.3856 -0.9394
 1012MOL0     C36546   0.409   9.904   1.657  0.2021  0.3275  0.0946
 1012MOL0     C36547   0.290   9.882   1.740  0.7763  0.2706 -0.2577
 1012MOL0     C36548   0.160   9.922   1.677  0.4226  0.5819 -0.3713
 1012MOL0     C36549   0.059   9.942   1.615 -0.3516 -0.0571 -0.3701
 1012MOL0     C36550   0.833  10.097   1.793  0.5721  0.4010  1.0713
 1012MOL0     C36551   0.966  10.141   1.745  0.5585  0.0867  0.6653
 1012MOL0     C36552   1.073  10.119   1.845  0.0544 -0.5316  0.1021
 1012MOL0     H36553   1.286  10.174   1.322 -0.3714  0.2496 -1.5411
 1012MOL0     H36554   1.484  10.272   1.187 -1.5933 -0.6107 -0.4263
 1012MOL0     H36555   1.426  10.707   1.090  0.0719  2.2420 -0.8915
 1012MOL0     H36556   1.564  10.720   1.203  1.7812  1.3450 -0.9367
 1012MOL0     H36557   1.710  10.719   1.003 -0.1140 -1.6030 -2.7248
 1012MOL0     H36558   1.574  10.820   0.968  1.4507  0.6169 -0.9277
 1012MOL0     H36559   1.454  10.628   0.865 -0.1024 -1.0695 -0.2685
 1012MOL0     H36560   1.609  10.529   0.900  2.1927  1.1853  0.8389
 1012MOL0     H36561   1.575  10.765   0.700  0.1373 -0.3898 -2.5947
 1012MOL0     H36562   1.718  10.685   0.752  0.0101 -1.8588  1.1771
 1012MOL0     H36563   1.615  10.460   0.662 -1.8282 -1.2119 -1.3357
 1012MOL0     H36564   1.480  10.572   0.607  0.5118  1.6464  0.8641
 1012MOL0     H36565   1.640  10.679   0.447  0.8177  0.1975  0.6073
 1012MOL0     H36566   1.777  10.623   0.533 -0.2934 -0.2359  0.4329
 1012MOL0     H36567   1.578  10.428   0.395  0.6137  1.2712  0.0376
 1012MOL0     H36568   1.736  10.398   0.455 -2.3698 -0.3851  0.8761
 1012MOL0     H36569   1.731  10.441   0.190  2.6483  2.6136 -1.5600
 1012MOL0     H36570   1.635  10.584   0.224 -0.4380  0.4148  0.9344
 1012MOL0     H36571   1.991  10.441   0.236  0.4052 -0.0510 -0.5142
 1012MOL0     H36572   2.188  10.573   0.073 -0.6457  0.8665  0.1159
 1012MOL0     H36573   2.195  10.748   0.114 -4.6455 -0.0461 -2.0117
 1012MOL0     H36574   2.315  10.697   0.324  4.6524 -1.6467 -1.4157
 1012MOL0     H36575   2.217  10.544   0.345 -1.0517  0.0874 -0.7493
 1012MOL0     H36576   2.458  10.584   0.154 -0.9240 -1.3737 -2.6323
 1012MOL0     H36577   2.356  10.443   0.174  0.0110 -1.5514  3.0045
 1012MOL0     H36578   2.431  10.443   0.430  1.4822 -1.1778  0.1610
 1012MOL0     H36579   2.516  10.587   0.402  3.3965 -0.7702  0.0854
 1012MOL0     H36580   2.653  10.658   0.246  0.1262  0.6838  0.5659
 1012MOL0     H36581   2.875  10.709   0.134  2.4844  0.2344  0.1197
 1012MOL0     H36582   3.373  10.691   0.176 -0.6293 -1.4464  1.3046
 1012MOL0     H36583   3.553  10.748   0.046  0.2557  0.1142 -0.9847
 1012MOL0     H36584   3.549  10.608  -0.392  0.0809  4.9577 -0.6659
 1012MOL0     H36585   3.709  10.683  -0.365 -0.5102  0.6324  0.2522
 1012MOL0     H36586   3.819  10.485  -0.328  0.7420 -2.8789  0.2466
 1012MOL0     H36587   3.667  10.408  -0.295 -1.8902  1.2616 -0.3230
 1012MOL0     H36588   3.666  10.336  -0.517  2.5339 -1.1935 -1.8733
 1012MOL0     H36589   3.650  10.504  -0.575 -0.9648 -0.9399 -0.7930
 1012MOL0     H36590   3.922  10.356  -0.490  2.0477 -0.7669 -3.9077
 1012MOL0     H36591   3.899  10.525  -0.535  0.0316  0.1106  1.2338
 1012MOL0     H36592   3.801  10.434  -0.761 -0.4718  0.5238  1.3670
 1012MOL0     H36593   3.831  10.275  -0.709 -0.2432 -0.3387  0.9281
 1012MOL0     H36594   4.049  10.489  -0.717 -2.0175 -0.1676  2.3820
 1012MOL0     H36595   4.077  10.312  -0.721  1.8133  0.8736 -1.9112
 1012MOL0     H36596   3.918  10.454  -0.946  0.1856  0.3817  1.1417
 1012MOL0     H36597   3.952  10.289  -0.941  0.0236  0.8240 -0.9161
 1012MOL0     H36598   4.212  10.364  -0.931 -0.5085 -1.6716 -0.0854
 1012MOL0     H36599   4.119  10.391  -1.081  2.0868  1.8628 -0.2954
 1012MOL0     H36600   3.444  10.433  -0.244 -2.4044  1.6902 -1.2110
 1012MOL0     H36601   3.267  10.370  -0.087  2.7083 -2.2808  0.5640
 1012MOL0     H36602   3.010  10.316   0.158 -0.1245 -0.9603  1.9070
 1012MOL0     H36603   2.776  10.253   0.276 -2.7541  0.5725  1.8099
 1012MOL0     H36604   1.322  10.668   1.290 -0.6090 -0.2442 -0.3700
 1012MOL0     H36605   1.153  10.565   1.410  0.5708 -0.5864  0.6341
 1012MOL0     H36606   0.857  10.276   1.446 -2.4411  0.5048  0.2594
 1012MOL0     H36607   0.656  10.186   1.515 -0.0555 -0.5122 -1.2574
 1012MOL0     H36608   0.514  10.240   1.660 -1.8523 -0.8169 -3.3798
 1012MOL0     H36609   0.427  10.146   1.780  0.7554 -0.9747  0.6005
 1012MOL0     H36610   0.501  10.039   1.514  0.3129  1.1247  0.0177
 1012MOL0     H36611   0.324  10.070   1.549 -0.5646  1.0263 -0.9218
 1012MOL0     H36612   0.499   9.861   1.700 -0.9964 -1.7393  0.6856
 1012MOL0     H36613   0.389   9.845   1.567 -1.4068  0.7788  0.1133
 1012MOL0     H36614   0.280   9.775   1.761 -1.5222  0.5875  0.5227
 1012MOL0     H36615   0.290   9.938   1.834 -1.0122  1.5505 -0.9646
 1012MOL0     H36616  -0.034   9.951   1.563 -0.0948 -1.7263 -1.1729
 1012MOL0     H36617   0.820  10.064   1.896 -0.8965 -0.0271  0.7821
 1012MOL0     H36618   1.117  10.217   1.865 -1.9981  0.3201  0.6510
 1012MOL0     H36619   1.050  10.088   1.947 -2.3519  0.2042 -0.1645
 1012MOL0     H36620   1.136  10.038   1.806  0.4471 -0.0189 -0.3656
 1013MOL0     O36621   2.055   6.755   2.987  0.2931 -0.3611 -0.8136
 1013MOL0     C36622   1.983   6.839   3.040  0.2965  0.6604  0.1466
 1013MOL0     O36623   2.021   6.919   3.143 -0.7386  0.0450  0.1188
 1013MOL0     C36624   2.143   6.891   3.202 -0.0847 -0.3459 -0.1155
 1013MOL0     C36625   2.246   6.976   3.186 -0.2820  0.3133  0.2481
 1013MOL0     C36626   2.358   6.971   3.271 -0.2596  0.4133  0.1903
 1013MOL0     C36627   2.375   6.851   3.349 -0.1433 -0.1076  0.8561
 1013MOL0     O36628   2.491   6.819   3.425  0.9331 -0.1332  0.5453
 1013MOL0     C36629   2.592   6.912   3.432  0.3273 -0.8910  0.1415
 1013MOL0     C36630   2.703   6.864   3.520  0.5200  0.1024 -0.6349
 1013MOL0     C36631   2.810   6.968   3.545 -0.3612  0.3700 -0.7756
 1013MOL0     C36632   2.919   6.890   3.610 -0.4763  0.4495 -0.7085
 1013MOL0     C36633   3.035   6.978   3.637  0.2953 -0.4575  0.1825
 1013MOL0     C36634   3.161   6.903   3.693 -0.2445  1.0005  0.0382
 1013MOL0     C36635   3.260   7.002   3.764 -0.6255  0.1102  0.7211
 1013MOL0     C36636   3.347   6.949   3.875  0.4942  0.7089 -0.1772
 1013MOL0     N36637   3.466   6.878   3.823 -0.9286  0.4746  0.5196
 1013MOL0     C36638   3.589   6.948   3.816  0.2177  0.2697  0.4179
 1013MOL0     C36639   3.664   6.866   3.739 -0.1453  0.1823  0.0985
 1013MOL0     C36640   3.789   6.900   3.666  0.5734  0.2058 -0.0778
 1013MOL0     C36641   3.898   6.795   3.718 -1.5558 -0.1428  0.3600
 1013MOL0     C36642   3.912   6.795   3.867 -0.1590 -0.1332  1.4870
 1013MOL0     C36643   4.047   6.747   3.930 -0.4867  0.4335  0.9463
 1013MOL0     O36644   4.090   6.630   3.857  0.0007 -0.2616 -0.8540
 1013MOL0     C36645   4.211   6.580   3.895 -0.4463  0.6050  0.1874
 1013MOL0     C36646   4.265   6.498   3.798  0.5531  0.8894 -0.0704
 1013MOL0     C36647   4.394   6.447   3.806  0.1872 -0.9672 -0.4519
 1013MOL0     C36648   4.471   6.465   3.923  1.4429 -0.2025 -0.6976
 1013MOL0     C36649   4.616   6.415   3.924  0.5886 -1.3959 -0.3743
 1013MOL0     O36650   4.691   6.450   4.038  0.5900 -0.6559  0.6440
 1013MOL0     C36651   4.823   6.429   4.043 -0.5655 -1.7415 -0.3937
 1013MOL0     C36652   4.912   6.531   4.072  0.6311  0.2902 -0.5035
 1013MOL0     C36653   5.047   6.511   4.087  0.4223 -0.2297 -0.4618
 1013MOL0     C36654   5.098   6.379   4.072  0.2482 -0.3554  0.1606
 1013MOL0     O36655   5.228   6.363   4.104 -0.0018  0.6492  0.7327
 1013MOL0     C36656   5.274   6.230   4.129  0.2097 -0.1762 -0.3266
 1013MOL0     C36657   5.409   6.208   4.207  0.0961 -0.8840 -0.0185
 1013MOL0     C36658   5.523   6.240   4.120  0.3425  0.0704  0.0573
 1013MOL0     C36659   5.640   6.180   4.178 -0.4744 -0.2576 -0.2252
 1013MOL0     C36660   5.765   6.252   4.142  0.1349  1.3080 -0.5323
 1013MOL0     C36661   5.886   6.165   4.163  0.1943 -0.3673  0.0153
 1013MOL0     C36662   6.006   6.240   4.098 -0.3361  0.2633 -0.3613
 1013MOL0     C36663   6.132   6.171   4.129  0.7347  0.2844  0.4086
 1013MOL0    Cl36664   6.137   5.990   4.087 -0.2813 -0.0971 -0.3574
 1013MOL0     C36665   5.011   6.275   4.046 -1.3972 -0.1644  0.8631
 1013MOL0     C36666   4.871   6.303   4.035 -0.0399  1.3218  0.4756
 1013MOL0     O36667   4.667   6.371   3.816  0.4118 -0.8988 -0.5582
 1013MOL0     C36668   4.421   6.552   4.027  0.1843  0.1221 -0.2126
 1013MOL0     C36669   4.292   6.612   4.008  0.4747 -0.0398  0.1017
 1013MOL0     N36670   3.600   6.747   3.719  0.4006 -0.5283 -0.0226
 1013MOL0     N36671   3.482   6.755   3.762  0.9107 -0.0523 -0.1198
 1013MOL0     C36672   2.279   6.738   3.344  0.3289 -0.2763  0.4499
 1013MOL0     C36673   2.158   6.770   3.272 -0.0969 -0.3115  0.7732
 1013MOL0     C36674   1.838   6.848   2.995 -0.1180  0.0225 -0.2059
 1013MOL0     C36675   1.786   6.744   2.915 -0.7744 -1.2420 -0.7399
 1013MOL0     C36676   1.671   6.748   2.860  0.5767 -0.1243  0.3081
 1013MOL0     C36677   1.582   6.854   2.880 -0.6902  0.5078 -0.1121
 1013MOL0     O36678   1.460   6.839   2.818 -0.4951 -0.0978  0.1059
 1013MOL0     C36679   1.351   6.926   2.853  0.4331  0.3520  0.0813
 1013MOL0     C36680   1.267   6.883   2.979 -0.0975  0.0794  0.2639
 1013MOL0     C36681   1.242   6.739   2.970  0.0674  0.3442 -0.4343
 1013MOL0     C36682   1.110   6.710   2.911  0.8512 -0.4603  1.0099
 1013MOL0     C36683   1.096   6.564   2.878  0.6356  0.3376  0.7616
 1013MOL0     C36684   1.070   6.456   2.837 -0.3748 -0.8030 -0.4911
 1013MOL0     C36685   1.627   6.961   2.962 -0.2385  0.7599 -0.4968
 1013MOL0     C36686   1.756   6.965   3.015 -0.4430 -0.6706  1.2592
 1013MOL0     C36687   1.783   7.084   3.100 -0.9101  1.1336  0.1576
 1013MOL0     H36688   2.242   7.059   3.116  3.0297 -0.0530 -0.5293
 1013MOL0     H36689   2.431   7.050   3.265  0.8524 -0.6864 -2.0170
 1013MOL0     H36690   2.628   6.928   3.330 -0.4084  1.2380  0.1751
 1013MOL0     H36691   2.540   7.003   3.462 -3.8239 -1.5876 -3.8040
 1013MOL0     H36692   2.747   6.776   3.472  0.9104 -1.0859  1.7524
 1013MOL0     H36693   2.669   6.835   3.620 -0.5544 -1.6648 -1.4755
 1013MOL0     H36694   2.766   7.030   3.624 -3.1687  0.7081 -2.4794
 1013MOL0     H36695   2.846   7.020   3.455  2.5694 -0.8762 -0.4504
 1013MOL0     H36696   2.888   6.856   3.709  0.0544 -0.8841 -0.9848
 1013MOL0     H36697   2.943   6.809   3.541 -2.7135  0.6778 -1.8562
 1013MOL0     H36698   3.057   7.039   3.548  0.0130 -1.2892 -0.4703
 1013MOL0     H36699   3.009   7.044   3.720 -1.3636  1.9283 -2.0738
 1013MOL0     H36700   3.143   6.816   3.758  2.2779 -0.7445 -1.4184
 1013MOL0     H36701   3.210   6.871   3.601 -1.7043  0.2454 -0.5010
 1013MOL0     H36702   3.201   7.080   3.814  0.8151  2.5063 -1.1299
 1013MOL0     H36703   3.315   7.060   3.690 -2.6226  2.1096  0.6830
 1013MOL0     H36704   3.378   7.037   3.931 -0.6385  0.8435  0.2663
 1013MOL0     H36705   3.284   6.895   3.947 -0.8094  0.6567 -1.3110
 1013MOL0     H36706   3.618   7.044   3.858 -0.5015  1.7253 -2.1882
 1013MOL0     H36707   3.760   6.899   3.560 -1.1747  2.9523  0.2760
 1013MOL0     H36708   3.818   7.004   3.685 -0.1695  0.2171  1.0574
 1013MOL0     H36709   3.883   6.696   3.673 -0.2625  0.6717 -2.0448
 1013MOL0     H36710   3.992   6.832   3.676 -2.2053  0.8141 -0.2898
 1013MOL0     H36711   3.829   6.732   3.901 -2.5256  0.0361 -3.1345
 1013MOL0     H36712   3.897   6.898   3.900 -1.7000  0.0397  0.3437
 1013MOL0     H36713   4.023   6.713   4.032 -0.5775 -2.1878  0.1048
 1013MOL0     H36714   4.131   6.817   3.939 -1.0713  1.0342  2.1011
 1013MOL0     H36715   4.196   6.463   3.722 -1.9381 -0.3537  2.5271
 1013MOL0     H36716   4.429   6.395   3.718 -1.1455 -1.2748 -0.8268
 1013MOL0     H36717   4.876   6.633   4.087 -0.2130 -0.1694  0.8004
 1013MOL0     H36718   5.114   6.588   4.124  0.1555 -0.4870  0.5800
 1013MOL0     H36719   5.204   6.184   4.201 -0.2571 -0.4009 -0.9153
 1013MOL0     H36720   5.272   6.169   4.038  0.0170 -0.6478 -0.0099
 1013MOL0     H36721   5.427   6.276   4.291  2.4718 -1.0716 -0.3202
 1013MOL0     H36722   5.405   6.107   4.249  2.7315  0.8163  5.2564
 1013MOL0     H36723   5.511   6.201   4.018  1.7712  0.8635 -0.4498
 1013MOL0     H36724   5.522   6.348   4.104 -4.5236  0.0095 -1.6668
 1013MOL0     H36725   5.644   6.075   4.150 -1.5284 -0.8907  1.8040
 1013MOL0     H36726   5.635   6.175   4.287 -1.9115 -0.4192 -0.2763
 1013MOL0     H36727   5.782   6.349   4.190  2.3711 -0.7544  3.3605
 1013MOL0     H36728   5.759   6.271   4.034 -1.1424  0.7545 -0.5767
 1013MOL0     H36729   5.889   6.157   4.272  0.0121 -0.3147  0.0239
 1013MOL0     H36730   5.874   6.069   4.113 -0.9023  0.4876 -1.4565
 1013MOL0     H36731   6.010   6.344   4.131  3.6546  0.8280 -2.0636
 1013MOL0     H36732   5.993   6.243   3.989 -1.9240  1.3718 -0.1854
 1013MOL0     H36733   6.212   6.226   4.078 -1.5169  2.4663 -0.9740
 1013MOL0     H36734   6.135   6.177   4.238 -1.9590 -0.1620  0.5663
 1013MOL0     H36735   5.042   6.172   4.031 -1.8514 -0.2115  0.1990
 1013MOL0     H36736   4.794   6.229   4.018  0.3144  1.3482 -1.3934
 1013MOL0     H36737   4.484   6.593   4.105  0.0609 -2.5074  1.3969
 1013MOL0     H36738   4.260   6.688   4.079 -3.7497 -0.0440 -1.4882
 1013MOL0     H36739   2.295   6.646   3.398  0.2267 -1.0667 -0.8326
 1013MOL0     H36740   2.085   6.696   3.241  0.0509 -0.2721  0.3224
 1013MOL0     H36741   1.863   6.669   2.899  0.0868 -1.4228  3.1806
 1013MOL0     H36742   1.635   6.673   2.790  2.3337 -0.5792 -0.1449
 1013MOL0     H36743   1.278   6.937   2.773 -2.6089 -1.0024  2.4291
 1013MOL0     H36744   1.398   7.024   2.866  3.7325 -1.3097  2.0417
 1013MOL0     H36745   1.171   6.934   2.970 -0.5815 -0.8138  0.3291
 1013MOL0     H36746   1.322   6.912   3.069  0.2786  2.6972 -0.7239
 1013MOL0     H36747   1.234   6.708   3.075 -1.5876  1.5696 -0.1567
 1013MOL0     H36748   1.313   6.675   2.916  0.5527  2.1805 -2.0817
 1013MOL0     H36749   1.029   6.753   2.970 -1.5521 -0.1237 -2.2535
 1013MOL0     H36750   1.098   6.757   2.813 -0.7992  0.2169  1.5034
 1013MOL0     H36751   1.034   6.356   2.823  0.3941 -1.1267 -0.2514
 1013MOL0     H36752   1.573   7.049   2.994 -0.4325 -0.5394  3.2975
 1013MOL0     H36753   1.713   7.168   3.092  1.1990  2.8701 -1.4131
 1013MOL0     H36754   1.772   7.050   3.203 -2.8989 -0.8901 -0.6370
 1013MOL0     H36755   1.882   7.123   3.077 -1.6492  2.6511 -0.5795
 1014MOL0     O36756   6.933  10.457   9.967 -0.2257  0.1783  0.1139
 1014MOL0     C36757   6.933  10.541   9.877  0.8436  0.3844  0.6050
 1014MOL0     O36758   6.923  10.507   9.746 -0.5270 -0.3988  0.5745
 1014MOL0     C36759   6.949  10.380   9.698 -0.8659  0.0421  0.2484
 1014MOL0     C36760   7.072  10.357   9.622  0.3468  0.3374 -0.3648
 1014MOL0     C36761   7.103  10.228   9.586 -0.5293  0.1087  0.5883
 1014MOL0     C36762   7.016  10.126   9.599  0.0220  0.4327 -0.2153
 1014MOL0     O36763   7.068  10.007   9.548 -0.4778  0.1197  0.0207
 1014MOL0     C36764   6.981   9.902   9.513  0.4141  0.3715  0.2785
 1014MOL0     C36765   7.058   9.778   9.449 -0.8728 -0.4004  0.5325
 1014MOL0     C36766   7.161   9.811   9.347  0.3571 -1.3586  0.3631
 1014MOL0     C36767   7.233   9.687   9.312  0.1129 -0.4965  0.4886
 1014MOL0     C36768   7.376   9.705   9.263  0.1987 -0.8431 -0.4085
 1014MOL0     C36769   7.478   9.770   9.366  0.7688 -0.5819  0.3854
 1014MOL0     C36770   7.612   9.769   9.290 -0.3665  0.5243  0.1346
 1014MOL0     C36771   7.731   9.823   9.371  0.1823  0.3650 -0.0312
 1014MOL0     N36772   7.855   9.805   9.303  0.3061  0.1913 -0.1257
 1014MOL0     C36773   7.922   9.687   9.266 -0.1798 -0.0759  0.8738
 1014MOL0     C36774   8.019   9.735   9.182  1.2802  0.4084 -0.5672
 1014MOL0     C36775   8.104   9.643   9.106  0.3691 -0.0031 -0.2672
 1014MOL0     C36776   8.245   9.704   9.085  0.6142 -0.1277 -0.7050
 1014MOL0     C36777   8.333   9.699   9.212  0.5583  0.3157  0.4208
 1014MOL0     C36778   8.474   9.739   9.192 -0.0305  0.0435 -0.1563
 1014MOL0     O36779   8.540   9.625   9.136  1.1251  0.7676  0.2731
 1014MOL0     C36780   8.649   9.648   9.047 -1.1779  0.1825  0.3497
 1014MOL0     C36781   8.680   9.543   8.963 -0.8711 -1.0255 -0.1666
 1014MOL0     C36782   8.786   9.553   8.874 -0.8457 -0.4984 -0.3298
 1014MOL0     C36783   8.878   9.661   8.884 -0.0277 -0.9100 -0.2476
 1014MOL0     C36784   8.993   9.679   8.793 -0.8726  0.2719  0.8846
 1014MOL0     O36785   9.025   9.801   8.755 -0.0561  0.0920  0.0049
 1014MOL0     C36786   9.107   9.823   8.642  0.5591 -0.1873 -0.0516
 1014MOL0     C36787   9.226   9.903   8.654  0.7062 -0.2069  0.1082
 1014MOL0     C36788   9.284   9.946   8.535 -0.2773 -0.5322 -0.0280
 1014MOL0     C36789   9.241   9.898   8.408 -0.0339 -0.0086  0.2802
 1014MOL0     O36790   9.303   9.958   8.299  0.0888 -0.7242  0.1510
 1014MOL0     C36791   9.301   9.899   8.167  1.1518 -0.9491 -0.5395
 1014MOL0     C36792   9.448   9.893   8.131 -0.2479  0.1776 -0.8011
 1014MOL0     C36793   9.534   9.782   8.208  0.1657 -0.5065  0.2380
 1014MOL0     C36794   9.685   9.799   8.157 -0.0356  0.5583  0.8582
 1014MOL0     C36795   9.782   9.773   8.274  1.0399 -0.7650 -0.9347
 1014MOL0     C36796   9.929   9.805   8.247 -0.3944  0.3744  0.0860
 1014MOL0     C36797  10.012   9.769   8.382  0.1964  0.8956  0.8711
 1014MOL0     C36798  10.137   9.837   8.361 -1.0677 -0.5513  0.4339
 1014MOL0    Cl36799  10.245   9.798   8.496 -0.2308  0.0902 -0.0041
 1014MOL0     C36800   9.131   9.819   8.397  0.5198  0.2862 -0.5677
 1014MOL0     C36801   9.062   9.777   8.517  0.0937 -0.1865  0.0579
 1014MOL0     O36802   9.034   9.575   8.737 -0.1503 -0.0860 -0.3191
 1014MOL0     C36803   8.849   9.759   8.984 -1.0866  0.2916  0.5815
 1014MOL0     C36804   8.742   9.751   9.067  0.9868  0.3611 -0.0469
 1014MOL0     N36805   8.015   9.877   9.173  0.3656  0.0604  0.8324
 1014MOL0     N36806   7.926   9.914   9.257  0.7537 -0.3220 -0.5591
 1014MOL0     C36807   6.891  10.148   9.667  0.1117  0.0254  0.9830
 1014MOL0     C36808   6.862  10.271   9.718  0.4687  0.2932  0.2423
 1014MOL0     C36809   6.951  10.685   9.897  0.2263 -0.3036 -0.0735
 1014MOL0     C36810   7.005  10.760   9.794  0.5911 -0.1846  0.4390
 1014MOL0     C36811   7.025  10.901   9.808 -0.4355  0.4690 -0.7284
 1014MOL0     C36812   6.984  10.964   9.923  0.0710 -0.4299  0.8325
 1014MOL0     O36813   7.007  11.103   9.920  0.2908 -0.0135  0.2087
 1014MOL0     C36814   6.973  11.184  10.038 -0.5126 -0.5624  0.3039
 1014MOL0     C36815   7.063  11.312  10.050  0.3450  0.1540  0.1593
 1014MOL0     C36816   7.051  11.399   9.923  0.2934  0.3154  0.6813
 1014MOL0     C36817   7.112  11.538   9.935  0.3031 -0.1245  0.3596
 1014MOL0     C36818   7.250  11.547   9.893 -0.5430 -0.1766 -0.4003
 1014MOL0     C36819   7.368  11.550   9.879 -0.6707  0.4329 -0.1007
 1014MOL0     C36820   6.917  10.893  10.022  0.1001  0.5132 -0.3781
 1014MOL0     C36821   6.898  10.762  10.008  0.0161  0.2726  0.3994
 1014MOL0     C36822   6.819  10.694  10.113  0.0446  0.3429  0.1812
 1014MOL0     H36823   7.125  10.450   9.605  1.0145 -0.0615 -0.5007
 1014MOL0     H36824   7.201  10.214   9.540  0.2225 -0.2066  2.2246
 1014MOL0     H36825   6.917   9.874   9.597 -2.0402  1.9829 -0.9501
 1014MOL0     H36826   6.902   9.941   9.449 -0.4998  1.5504  2.0624
 1014MOL0     H36827   6.977   9.718   9.407  0.4827 -1.5181 -0.5727
 1014MOL0     H36828   7.111   9.721   9.526 -2.1259 -2.0867  0.2148
 1014MOL0     H36829   7.236   9.873   9.397  0.3851 -1.4048  0.3785
 1014MOL0     H36830   7.122   9.860   9.257 -0.9461 -1.3898  0.8954
 1014MOL0     H36831   7.237   9.614   9.393  1.4175 -2.0052 -0.8834
 1014MOL0     H36832   7.187   9.629   9.232  1.6427  0.3933 -1.1103
 1014MOL0     H36833   7.424   9.620   9.213 -0.3854  0.3915 -3.3141
 1014MOL0     H36834   7.378   9.776   9.180 -0.0333  2.5977  2.2952
 1014MOL0     H36835   7.449   9.872   9.394 -1.1594 -0.0618 -2.9650
 1014MOL0     H36836   7.484   9.701   9.450  3.7860 -0.8959  0.0136
 1014MOL0     H36837   7.595   9.825   9.198 -2.2907 -0.4265 -0.1361
 1014MOL0     H36838   7.631   9.664   9.265 -0.3519  0.4150  0.5850
 1014MOL0     H36839   7.720   9.931   9.386 -3.8354 -0.1626  2.3594
 1014MOL0     H36840   7.740   9.777   9.470  0.2078 -1.8719 -1.0262
 1014MOL0     H36841   7.897   9.583   9.284  1.0078 -0.4257  0.6144
 1014MOL0     H36842   8.111   9.548   9.160 -1.3251  0.6113  1.1296
 1014MOL0     H36843   8.045   9.636   9.014 -0.7052  0.5868  0.3544
 1014MOL0     H36844   8.305   9.640   9.019  1.3268 -1.3035  1.0267
 1014MOL0     H36845   8.232   9.801   9.037 -1.9335  0.5202  1.1117
 1014MOL0     H36846   8.336   9.599   9.256  2.0380  0.0982 -0.1325
 1014MOL0     H36847   8.290   9.775   9.278 -0.7204 -0.9838  1.1391
 1014MOL0     H36848   8.524   9.761   9.287 -0.2349  0.4711 -0.1472
 1014MOL0     H36849   8.485   9.829   9.131 -0.7684 -1.3505 -2.4579
 1014MOL0     H36850   8.621   9.452   8.974 -0.6858 -1.2759 -1.1062
 1014MOL0     H36851   8.813   9.475   8.803 -0.4464 -0.3923 -0.2943
 1014MOL0     H36852   9.272   9.936   8.746  2.0195 -1.6379  0.0098
 1014MOL0     H36853   9.368  10.013   8.519 -0.4448 -0.3653 -0.2248
 1014MOL0     H36854   9.263   9.797   8.175 -1.2009 -0.0288  0.7918
 1014MOL0     H36855   9.246   9.962   8.097  4.4181 -1.6879 -4.1500
 1014MOL0     H36856   9.471   9.876   8.025  0.9258  0.1213 -0.5408
 1014MOL0     H36857   9.485   9.994   8.154  3.2341 -1.2504  0.5217
 1014MOL0     H36858   9.526   9.795   8.316 -2.1607 -1.4624  0.2339
 1014MOL0     H36859   9.490   9.688   8.173  0.7283 -1.2032  1.3545
 1014MOL0     H36860   9.702   9.902   8.127  3.0162  0.1801  0.9630
 1014MOL0     H36861   9.704   9.730   8.073 -2.3094  2.3302 -1.2413
 1014MOL0     H36862   9.753   9.672   8.304 -1.2681  0.1130  0.0016
 1014MOL0     H36863   9.747   9.830   8.360 -0.8226 -0.4216 -1.8706
 1014MOL0     H36864   9.966   9.736   8.171  3.4834 -2.2991  3.8870
 1014MOL0     H36865   9.943   9.910   8.220 -1.5304  0.1242 -1.6130
 1014MOL0     H36866  10.040   9.663   8.391 -1.1664  0.2979 -0.9968
 1014MOL0     H36867   9.961   9.807   8.471 -2.1470  1.8007 -0.7387
 1014MOL0     H36868  10.175   9.789   8.270  2.8885  0.6577  1.2683
 1014MOL0     H36869  10.129   9.945   8.351  1.2194 -0.1217  2.3829
 1014MOL0     H36870   9.093   9.785   8.302 -0.7578  1.9430 -0.6985
 1014MOL0     H36871   8.978   9.708   8.516  1.2840 -1.7364  1.0266
 1014MOL0     H36872   8.917   9.843   8.990 -1.4166  1.2233 -4.2095
 1014MOL0     H36873   8.726   9.825   9.145  0.5137  1.1104 -0.8290
 1014MOL0     H36874   6.817  10.071   9.688 -0.4263  0.3559  0.3449
 1014MOL0     H36875   6.769  10.290   9.770  1.0442 -1.2345  1.9218
 1014MOL0     H36876   7.039  10.710   9.703 -2.0244 -2.2970  0.5130
 1014MOL0     H36877   7.070  10.960   9.728 -1.1840  5.1655  1.9355
 1014MOL0     H36878   6.984  11.123  10.128  0.4844 -0.9616 -0.0717
 1014MOL0     H36879   6.870  11.214  10.021 -0.4178 -1.3319 -1.8910
 1014MOL0     H36880   7.171  11.295  10.064  0.8877  1.6131 -1.8260
 1014MOL0     H36881   7.022  11.355  10.142 -1.7530 -1.7087  0.1872
 1014MOL0     H36882   6.946  11.425   9.904  0.7202  3.3679  1.7768
 1014MOL0     H36883   7.079  11.343   9.833 -0.5025 -0.0720  0.6657
 1014MOL0     H36884   7.054  11.606   9.873 -1.1929  0.2556  2.0710
 1014MOL0     H36885   7.104  11.578  10.037  1.1539 -1.3529  0.9311
 1014MOL0     H36886   7.473  11.534   9.862 -0.8207  1.0224 -1.7460
 1014MOL0     H36887   6.882  10.938  10.115 -0.2733 -0.4829 -0.0246
 1014MOL0     H36888   6.754  10.621  10.064  1.7620 -2.3184  1.6291
 1014MOL0     H36889   6.871  10.635  10.189  1.6192  0.0775 -1.0531
 1014MOL0     H36890   6.756  10.766  10.166  0.8475  1.7543 -0.7244
 1015MOL0     O36891   6.678   2.434  11.244 -0.0124 -0.1390 -0.7707
 1015MOL0     C36892   6.736   2.408  11.353  0.9936  0.1897  0.0935
 1015MOL0     O36893   6.675   2.355  11.461  0.3720 -0.8732 -0.2731
 1015MOL0     C36894   6.540   2.332  11.441 -0.1709  1.1080  0.1504
 1015MOL0     C36895   6.504   2.201  11.423 -0.6953 -0.1751 -0.2921
 1015MOL0     C36896   6.376   2.165  11.396  0.7417  1.0620  1.2366
 1015MOL0     C36897   6.279   2.263  11.364 -1.0942  0.6638  0.1025
 1015MOL0     O36898   6.158   2.221  11.333  0.2611  0.1669 -0.3065
 1015MOL0     C36899   6.049   2.316  11.327 -0.0454 -0.4540 -0.0493
 1015MOL0     C36900   5.928   2.241  11.286 -0.4579 -0.2647  0.2039
 1015MOL0     C36901   5.825   2.348  11.252  0.6759 -0.5152  0.1831
 1015MOL0     C36902   5.691   2.275  11.230  0.1621  0.1205 -0.1681
 1015MOL0     C36903   5.577   2.376  11.218 -0.2342  0.1039  0.0866
 1015MOL0     C36904   5.442   2.317  11.190  0.1153 -0.8091  0.1671
 1015MOL0     C36905   5.407   2.253  11.056 -1.7815 -0.2147 -0.5056
 1015MOL0     C36906   5.378   2.355  10.940 -0.3138 -0.0128 -0.2101
 1015MOL0     N36907   5.499   2.433  10.899  0.0098  0.1644 -0.0237
 1015MOL0     C36908   5.591   2.389  10.806 -0.1714  0.2626 -0.0759
 1015MOL0     C36909   5.676   2.487  10.775  0.0866 -0.0587 -0.2738
 1015MOL0     C36910   5.806   2.476  10.700 -0.0626 -0.7732  0.2657
 1015MOL0     C36911   5.920   2.432  10.799  0.4418  0.3892  0.7679
 1015MOL0     C36912   6.008   2.551  10.845  0.7680  0.2590  0.2700
 1015MOL0     C36913   6.132   2.501  10.934  0.2210 -0.3898  0.4889
 1015MOL0     O36914   6.197   2.395  10.862  0.0972 -0.0295 -0.4650
 1015MOL0     C36915   6.321   2.369  10.888  0.2022 -0.3682  0.5613
 1015MOL0     C36916   6.364   2.325  11.010 -0.0186  0.8778 -0.9731
 1015MOL0     C36917   6.494   2.280  11.030 -0.3217 -0.3401 -0.9641
 1015MOL0     C36918   6.579   2.270  10.918  0.0389  0.3402 -0.5049
 1015MOL0     C36919   6.719   2.218  10.932 -0.5101  0.3435 -0.7954
 1015MOL0     O36920   6.747   2.151  11.048  0.2636  0.1288 -0.1010
 1015MOL0     C36921   6.877   2.103  11.078  0.6332 -1.2090  0.3313
 1015MOL0     C36922   6.945   2.152  11.193 -0.0732  0.1124 -0.1851
 1015MOL0     C36923   7.072   2.098  11.219  0.2365  0.8731  0.3747
 1015MOL0     C36924   7.131   2.015  11.122 -0.3455  0.0036  0.4774
 1015MOL0     O36925   7.255   1.959  11.137  0.5396  0.5959 -0.5073
 1015MOL0     C36926   7.367   2.054  11.158  0.3569  0.4309  0.4397
 1015MOL0     C36927   7.431   2.117  11.031  0.0448 -0.3037 -0.2541
 1015MOL0     C36928   7.349   2.251  10.996  0.1709 -0.2286  0.1927
 1015MOL0     C36929   7.411   2.323  10.876 -0.2090 -0.8050 -0.4554
 1015MOL0     C36930   7.381   2.473  10.880  0.4588 -0.5598  0.3714
 1015MOL0     C36931   7.462   2.554  10.780 -0.7551 -0.0537  0.0667
 1015MOL0     C36932   7.393   2.694  10.778  0.3020 -0.5327  0.2029
 1015MOL0     C36933   7.394   2.779  10.904 -0.1892  0.4140 -0.1265
 1015MOL0    Cl36934   7.558   2.853  10.940 -0.0372  0.1126 -0.1341
 1015MOL0     C36935   7.059   1.978  11.009  0.1923  0.2064  0.1700
 1015MOL0     C36936   6.933   2.022  10.980 -1.0036  0.0556 -0.2401
 1015MOL0     O36937   6.802   2.240  10.843  0.1854  0.3492  0.0580
 1015MOL0     C36938   6.539   2.324  10.796  0.0505 -0.0988  0.5388
 1015MOL0     C36939   6.412   2.368  10.786  0.0996 -0.0938  0.5711
 1015MOL0     N36940   5.627   2.596  10.851  0.2435 -0.0442 -0.5543
 1015MOL0     N36941   5.522   2.564  10.911  0.5794 -0.9633 -1.2512
 1015MOL0     C36942   6.317   2.398  11.382 -0.4831  0.6283  0.4379
 1015MOL0     C36943   6.443   2.434  11.427  1.0424 -0.0050 -0.4227
 1015MOL0     C36944   6.874   2.451  11.354  1.0277  0.2123 -0.1842
 1015MOL0     C36945   6.946   2.473  11.234 -0.2111  0.2231 -0.1720
 1015MOL0     C36946   7.077   2.504  11.235 -0.4267 -0.7714  0.3931
 1015MOL0     C36947   7.154   2.503  11.343 -0.0809 -0.3032 -0.5423
 1015MOL0     O36948   7.282   2.523  11.326  0.2034 -0.5286 -0.6637
 1015MOL0     C36949   7.371   2.524  11.438  0.5364 -1.0087  0.2407
 1015MOL0     C36950   7.506   2.570  11.413 -0.0815 -1.4957 -0.2161
 1015MOL0     C36951   7.525   2.724  11.386 -0.3189 -0.3155 -0.3205
 1015MOL0     C36952   7.640   2.758  11.290  0.5741  0.5586 -0.0432
 1015MOL0     C36953   7.628   2.903  11.264  0.9416  0.4782  0.2075
 1015MOL0     C36954   7.613   3.022  11.267 -0.1153  0.0907  0.6816
 1015MOL0     C36955   7.085   2.493  11.470 -0.2041  0.4851  0.0665
 1015MOL0     C36956   6.947   2.468  11.472  0.1250 -0.4589  0.2694
 1015MOL0     C36957   6.881   2.466  11.606  0.4605  0.0372 -0.3184
 1015MOL0     H36958   6.584   2.130  11.438  0.5183  1.3592  0.9220
 1015MOL0     H36959   6.351   2.060  11.380 -2.5670  1.7666  1.1294
 1015MOL0     H36960   6.039   2.356  11.428  0.9393  1.6264 -0.7148
 1015MOL0     H36961   6.071   2.397  11.257 -1.5057 -2.5247 -3.1335
 1015MOL0     H36962   5.892   2.159  11.348 -0.4426 -0.2058  0.2919
 1015MOL0     H36963   5.960   2.207  11.187 -2.7596 -1.2787 -0.2646
 1015MOL0     H36964   5.850   2.417  11.171  1.5771  0.2334  1.0716
 1015MOL0     H36965   5.798   2.398  11.346  1.3811  1.2727 -0.5376
 1015MOL0     H36966   5.691   2.217  11.137 -2.6123 -0.6498  0.2208
 1015MOL0     H36967   5.672   2.205  11.311 -0.2249 -0.1451 -0.4811
 1015MOL0     H36968   5.568   2.433  11.311 -4.6449  1.7900 -1.0938
 1015MOL0     H36969   5.604   2.450  11.141 -0.4454 -0.0161 -0.1024
 1015MOL0     H36970   5.418   2.233  11.256  1.0164 -1.0971  0.1522
 1015MOL0     H36971   5.372   2.396  11.216  2.6648  0.5158  3.8829
 1015MOL0     H36972   5.309   2.208  11.068 -3.1181  1.9519 -2.2816
 1015MOL0     H36973   5.479   2.174  11.034 -2.0296 -0.2535 -1.2037
 1015MOL0     H36974   5.336   2.314  10.848 -1.5192  1.2024 -0.2349
 1015MOL0     H36975   5.298   2.419  10.978 -1.7734 -0.1141 -2.8590
 1015MOL0     H36976   5.601   2.294  10.754  0.5362  0.3219 -0.0644
 1015MOL0     H36977   5.795   2.394  10.629  0.7738  1.9054 -3.1809
 1015MOL0     H36978   5.813   2.569  10.642  2.0490 -1.1013 -0.0820
 1015MOL0     H36979   5.876   2.398  10.893  2.1364 -3.8214  0.2533
 1015MOL0     H36980   5.978   2.345  10.767  1.1436  1.0756  0.1255
 1015MOL0     H36981   5.949   2.622  10.903 -0.8053  0.4183 -1.4265
 1015MOL0     H36982   6.055   2.601  10.760  3.5326  0.5325  1.8467
 1015MOL0     H36983   6.093   2.462  11.029 -1.2433 -0.2636 -0.0242
 1015MOL0     H36984   6.205   2.580  10.956 -0.6821  0.0825  1.9569
 1015MOL0     H36985   6.292   2.310  11.089 -2.9375  1.4805 -3.3483
 1015MOL0     H36986   6.535   2.253  11.127 -1.3432  0.7529 -0.1856
 1015MOL0     H36987   6.893   2.210  11.269 -1.2814 -0.8303 -0.2579
 1015MOL0     H36988   7.120   2.112  11.315  0.7908 -0.8928  0.4025
 1015MOL0     H36989   7.353   2.136  11.229 -1.0835  1.0944 -0.5652
 1015MOL0     H36990   7.433   1.977  11.198  2.2866 -0.1735 -3.4846
 1015MOL0     H36991   7.537   2.138  11.043  0.4437 -1.1463 -1.9280
 1015MOL0     H36992   7.425   2.046  10.947  4.2968 -2.0585  0.6668
 1015MOL0     H36993   7.246   2.229  10.966  0.5894 -1.2067 -0.5828
 1015MOL0     H36994   7.338   2.307  11.089 -0.9123 -1.5122  0.8890
 1015MOL0     H36995   7.381   2.268  10.786  0.5685 -0.5092 -0.9068
 1015MOL0     H36996   7.520   2.317  10.880  0.0087 -0.8789 -3.6159
 1015MOL0     H36997   7.412   2.511  10.978 -0.2221 -1.0881  0.7977
 1015MOL0     H36998   7.274   2.495  10.874  0.8843  1.6448 -0.0487
 1015MOL0     H36999   7.563   2.564  10.821 -0.2062  1.4219 -1.5335
 1015MOL0     H37000   7.476   2.505  10.683  2.4918 -2.3238  1.5006
 1015MOL0     H37001   7.288   2.681  10.748  1.2749 -2.4621 -2.8730
 1015MOL0     H37002   7.437   2.751  10.695 -0.0875  1.0322  1.0337
 1015MOL0     H37003   7.324   2.861  10.886 -0.1961  0.5122  0.3391
 1015MOL0     H37004   7.344   2.727  10.987  0.3797  2.9002  1.9015
 1015MOL0     H37005   7.106   1.909  10.940  3.9991  3.5982 -0.9461
 1015MOL0     H37006   6.896   1.998  10.881  0.9532 -2.3424 -0.4916
 1015MOL0     H37007   6.599   2.332  10.707 -2.7621  2.8792 -1.3067
 1015MOL0     H37008   6.368   2.395  10.691 -1.1055 -0.0497  1.1311
 1015MOL0     H37009   6.250   2.482  11.363  1.8662  1.8886 -3.2591
 1015MOL0     H37010   6.458   2.537  11.456  0.2494  0.1407 -0.4976
 1015MOL0     H37011   6.903   2.477  11.135  1.5657  1.6425 -0.9480
 1015MOL0     H37012   7.123   2.526  11.139 -0.0024 -0.4612  0.6615
 1015MOL0     H37013   7.374   2.421  11.474 -0.4641 -1.6849 -1.5091
 1015MOL0     H37014   7.337   2.589  11.520  0.0227  1.4117 -1.7579
 1015MOL0     H37015   7.565   2.504  11.350  1.8161  2.2564 -2.7664
 1015MOL0     H37016   7.559   2.556  11.507 -1.5618  2.2926  1.4049
 1015MOL0     H37017   7.537   2.784  11.476 -1.1669 -0.0614 -0.3694
 1015MOL0     H37018   7.433   2.757  11.337  0.8453 -0.1082 -2.4893
 1015MOL0     H37019   7.737   2.745  11.339 -1.0657  0.6227  3.5738
 1015MOL0     H37020   7.632   2.697  11.200 -0.3628  0.8233 -0.1454
 1015MOL0     H37021   7.599   3.128  11.257 -1.4001 -0.2295 -2.1368
 1015MOL0     H37022   7.139   2.499  11.564 -0.5960 -1.9188  0.5098
 1015MOL0     H37023   6.943   2.505  11.687 -1.1783 -0.1935  1.0903
 1015MOL0     H37024   6.783   2.514  11.608  0.2178 -0.2433 -2.8656
 1015MOL0     H37025   6.868   2.362  11.635  1.1060 -0.1294 -0.5937
 1016MOL0     O37026   1.297   3.622   5.678  0.1499  0.4826 -0.7547
 1016MOL0     C37027   1.395   3.663   5.623  0.1587 -0.0659  0.1496
 1016MOL0     O37028   1.522   3.680   5.677 -0.3755  0.1268  1.0573
 1016MOL0     C37029   1.570   3.604   5.779 -0.0536 -0.6442  0.0747
 1016MOL0     C37030   1.647   3.664   5.877 -0.2462 -0.2141  0.2420
 1016MOL0     C37031   1.714   3.593   5.971 -0.2665 -0.6681 -0.1739
 1016MOL0     C37032   1.714   3.454   5.975  0.0335 -0.2167  0.5133
 1016MOL0     O37033   1.776   3.367   6.063  0.1063 -0.3682  0.6490
 1016MOL0     C37034   1.853   3.423   6.170 -0.6913  0.3154  0.4463
 1016MOL0     C37035   1.937   3.298   6.223 -0.3538 -0.9498  0.6699
 1016MOL0     C37036   2.023   3.221   6.125  0.1215  0.0047 -0.3075
 1016MOL0     C37037   2.167   3.277   6.134 -0.3295  0.3808  0.3994
 1016MOL0     C37038   2.248   3.206   6.027  0.2996  0.2112 -0.2361
 1016MOL0     C37039   2.382   3.269   6.034  0.3185  0.6987  0.1495
 1016MOL0     C37040   2.477   3.191   5.940  0.4391  0.2953 -0.8163
 1016MOL0     C37041   2.610   3.246   5.930 -0.2121  0.2960 -0.5012
 1016MOL0     N37042   2.621   3.374   5.851  0.5826  0.9847  0.9080
 1016MOL0     C37043   2.622   3.383   5.712  0.3460  0.2500  0.2389
 1016MOL0     C37044   2.593   3.514   5.682 -0.9964 -0.4655  0.6476
 1016MOL0     C37045   2.604   3.583   5.554 -0.0983  0.1084  0.4225
 1016MOL0     C37046   2.752   3.627   5.526  0.2417 -0.1113 -0.4386
 1016MOL0     C37047   2.785   3.615   5.381  0.0681  0.2888  0.8652
 1016MOL0     C37048   2.937   3.642   5.362 -0.5182 -0.5533  0.1209
 1016MOL0     O37049   2.975   3.619   5.232 -0.2342  0.6741 -0.0626
 1016MOL0     C37050   3.095   3.673   5.184  0.0902  0.0065  0.0970
 1016MOL0     C37051   3.100   3.684   5.046 -0.7626  0.2999  0.0413
 1016MOL0     C37052   3.208   3.742   4.984 -0.3182  0.9039  0.0627
 1016MOL0     C37053   3.320   3.768   5.058 -0.1764  0.4369  0.3702
 1016MOL0     C37054   3.441   3.818   4.992 -0.6485  0.4986  0.3687
 1016MOL0     O37055   3.451   3.832   4.863  0.0209 -0.4253  0.2978
 1016MOL0     C37056   3.565   3.883   4.810 -0.2239 -0.1576  0.2215
 1016MOL0     C37057   3.578   4.022   4.794 -0.6645 -0.1200  1.5602
 1016MOL0     C37058   3.697   4.072   4.742 -0.0967 -0.4265  0.2104
 1016MOL0     C37059   3.800   3.993   4.697 -0.4414 -0.5829  0.3357
 1016MOL0     O37060   3.908   4.063   4.656  0.2705  0.3132  0.6879
 1016MOL0     C37061   4.015   3.999   4.582  0.2420 -0.6873  0.2461
 1016MOL0     C37062   4.135   3.986   4.677 -0.1785 -0.8673 -0.2279
 1016MOL0     C37063   4.213   4.115   4.697  0.4734 -0.9716 -0.0840
 1016MOL0     C37064   4.129   4.243   4.753 -0.6794 -1.1001 -0.1126
 1016MOL0     C37065   4.240   4.344   4.794  0.4343  0.3791 -0.2644
 1016MOL0     C37066   4.193   4.469   4.878 -0.3099 -0.0214 -0.2175
 1016MOL0     C37067   4.142   4.450   5.019  0.1579 -0.0375  0.2245
 1016MOL0     C37068   4.047   4.571   5.047  0.7518 -0.4238 -0.3680
 1016MOL0    Cl37069   4.134   4.726   5.077  0.9451 -0.2149  0.2060
 1016MOL0     C37070   3.793   3.858   4.715  0.2018  0.6201 -0.2292
 1016MOL0     C37071   3.674   3.800   4.764 -0.3930  1.4298 -0.6632
 1016MOL0     O37072   3.543   3.825   5.064  0.0759  0.1865 -0.9641
 1016MOL0     C37073   3.319   3.749   5.200 -0.1692  0.1746  0.6572
 1016MOL0     C37074   3.204   3.707   5.261  0.7674  0.9178 -0.5212
 1016MOL0     N37075   2.572   3.582   5.804  0.1903  0.5863 -1.1696
 1016MOL0     N37076   2.600   3.503   5.899 -0.1854 -0.8496 -0.8768
 1016MOL0     C37077   1.625   3.389   5.889  0.8884  0.3316  0.0072
 1016MOL0     C37078   1.559   3.461   5.783  0.6566 -1.1938  0.4613
 1016MOL0     C37079   1.391   3.721   5.486  0.2434  0.8007 -0.8045
 1016MOL0     C37080   1.508   3.802   5.443  0.6482 -0.4587  0.9077
 1016MOL0     C37081   1.503   3.853   5.316  0.1249  0.5580  0.8590
 1016MOL0     C37082   1.396   3.825   5.222  0.3699 -0.2955  0.0572
 1016MOL0     O37083   1.397   3.871   5.095 -0.1351  0.2893  0.5521
 1016MOL0     C37084   1.486   3.975   5.063 -0.5521 -0.4393 -0.5346
 1016MOL0     C37085   1.463   4.024   4.923 -0.1905  0.0619  0.2668
 1016MOL0     C37086   1.436   3.915   4.814 -0.9932 -0.1882 -0.2469
 1016MOL0     C37087   1.424   3.977   4.679 -0.3987  0.2185  0.1929
 1016MOL0     C37088   1.336   3.895   4.598  0.2685 -0.1812 -0.5954
 1016MOL0     C37089   1.276   3.812   4.533 -0.0049  0.6540  0.3372
 1016MOL0     C37090   1.287   3.755   5.267 -0.6825 -1.1716 -0.3429
 1016MOL0     C37091   1.281   3.710   5.398 -0.0403  0.2090 -0.2754
 1016MOL0     C37092   1.148   3.645   5.432 -0.1545  0.1473 -0.3970
 1016MOL0     H37093   1.655   3.772   5.869 -0.2408 -0.0916  1.6926
 1016MOL0     H37094   1.788   3.645   6.031  1.2783 -3.4673  0.5415
 1016MOL0     H37095   1.918   3.502   6.131 -0.7767  1.4052  2.3904
 1016MOL0     H37096   1.792   3.459   6.253  0.5776 -0.4189  1.7412
 1016MOL0     H37097   1.860   3.235   6.270 -0.4369 -0.1904  1.5821
 1016MOL0     H37098   2.001   3.319   6.309  1.2617 -1.4993 -0.3767
 1016MOL0     H37099   1.984   3.214   6.024 -1.5332 -1.0397  0.3627
 1016MOL0     H37100   2.019   3.117   6.158 -0.8054  0.4502  1.0685
 1016MOL0     H37101   2.175   3.385   6.118 -1.6623  0.8259  2.3796
 1016MOL0     H37102   2.208   3.256   6.233 -0.0971  0.8816  0.4121
 1016MOL0     H37103   2.270   3.099   6.042  2.4396  0.5805 -0.4735
 1016MOL0     H37104   2.201   3.218   5.929  1.6429 -0.8127 -1.0374
 1016MOL0     H37105   2.380   3.376   6.011  1.0229  0.5883 -0.4606
 1016MOL0     H37106   2.428   3.271   6.134 -0.4151  1.6115  0.4779
 1016MOL0     H37107   2.436   3.188   5.838  0.6921 -1.2100 -0.8954
 1016MOL0     H37108   2.489   3.089   5.977  0.1962  0.8117  0.7522
 1016MOL0     H37109   2.644   3.273   6.030 -3.3862  0.7158  0.6067
 1016MOL0     H37110   2.673   3.168   5.888  0.6007  0.6787 -0.0160
 1016MOL0     H37111   2.644   3.299   5.647  0.8077  0.1713  0.4947
 1016MOL0     H37112   2.573   3.516   5.473  4.5234 -1.5795 -0.2749
 1016MOL0     H37113   2.557   3.681   5.557  2.2386  1.3138  0.2874
 1016MOL0     H37114   2.769   3.733   5.549  1.3585 -0.4507  0.3381
 1016MOL0     H37115   2.823   3.570   5.586 -0.9955  0.8835  2.1102
 1016MOL0     H37116   2.724   3.678   5.316  1.9221 -0.8969 -2.2346
 1016MOL0     H37117   2.767   3.514   5.344 -0.3968  1.0626 -1.1303
 1016MOL0     H37118   3.002   3.573   5.415  0.1454 -1.5401 -1.8965
 1016MOL0     H37119   2.970   3.740   5.397  1.2748 -1.0636 -0.0755
 1016MOL0     H37120   3.008   3.656   4.996 -1.6916  1.8641  0.8022
 1016MOL0     H37121   3.202   3.765   4.879  0.2509 -0.7746 -0.3637
 1016MOL0     H37122   3.506   4.087   4.842  1.3502  1.6445  2.3341
 1016MOL0     H37123   3.717   4.179   4.742  0.6213 -0.5512  0.5748
 1016MOL0     H37124   3.994   3.900   4.542 -0.4193 -1.7099  2.9121
 1016MOL0     H37125   4.042   4.068   4.501  0.7222 -0.0372  0.9420
 1016MOL0     H37126   4.096   3.940   4.768  0.1885 -1.0174 -0.1459
 1016MOL0     H37127   4.213   3.918   4.641  4.7734  2.0882  3.6071
 1016MOL0     H37128   4.289   4.104   4.775  1.6806  2.6180 -0.5700
 1016MOL0     H37129   4.260   4.129   4.599  0.7982 -0.5855  0.1220
 1016MOL0     H37130   4.073   4.220   4.844 -1.8792  1.5255 -0.0880
 1016MOL0     H37131   4.056   4.281   4.681 -2.1418 -0.6840  1.5215
 1016MOL0     H37132   4.282   4.386   4.702  1.5134 -1.0033 -0.4404
 1016MOL0     H37133   4.322   4.288   4.841 -1.2178 -0.6906  1.4712
 1016MOL0     H37134   4.281   4.534   4.879  3.5841 -4.6856 -1.5421
 1016MOL0     H37135   4.110   4.507   4.817  0.0224 -0.0579 -0.6978
 1016MOL0     H37136   4.224   4.448   5.091 -0.9509 -2.4992  1.5430
 1016MOL0     H37137   4.090   4.355   5.036  2.4748 -1.7380 -1.5041
 1016MOL0     H37138   3.971   4.591   4.971  0.1738 -2.5701 -0.4383
 1016MOL0     H37139   3.979   4.554   5.131 -0.0163 -2.0565 -1.2541
 1016MOL0     H37140   3.879   3.796   4.691 -0.5835 -0.0298 -1.5322
 1016MOL0     H37141   3.661   3.693   4.776 -2.0906  1.7659  1.1496
 1016MOL0     H37142   3.414   3.755   5.250  1.2848  0.9818 -2.0095
 1016MOL0     H37143   3.189   3.691   5.368 -1.2541 -0.1100 -0.9234
 1016MOL0     H37144   1.611   3.283   5.908 -0.2526  0.5764  0.6496
 1016MOL0     H37145   1.504   3.413   5.702 -0.6840  1.7459 -0.5478
 1016MOL0     H37146   1.601   3.826   5.495  2.5237 -3.0899 -0.9443
 1016MOL0     H37147   1.592   3.907   5.286  0.1925  1.8591  3.1824
 1016MOL0     H37148   1.593   3.955   5.076 -0.3498  1.3386  0.8817
 1016MOL0     H37149   1.456   4.056   5.130  1.0601 -2.1411  2.4725
 1016MOL0     H37150   1.531   4.105   4.894 -2.7753  2.9035  1.6672
 1016MOL0     H37151   1.369   4.079   4.928 -0.3777 -0.3688  1.8160
 1016MOL0     H37152   1.345   3.859   4.837 -0.6451  0.1072  2.0789
 1016MOL0     H37153   1.526   3.856   4.795 -0.1650  1.7161 -2.8594
 1016MOL0     H37154   1.387   4.079   4.668  1.2006  0.7440 -0.5610
 1016MOL0     H37155   1.515   3.966   4.619  0.4447 -0.1435  1.4908
 1016MOL0     H37156   1.208   3.750   4.478 -1.3732  0.7176  1.8802
 1016MOL0     H37157   1.214   3.740   5.188  1.2395 -0.2268 -2.4265
 1016MOL0     H37158   1.158   3.540   5.460 -0.3929 -0.1363 -1.3345
 1016MOL0     H37159   1.104   3.703   5.513 -0.4881  1.6898 -1.6248
 1016MOL0     H37160   1.082   3.644   5.344 -1.1495  2.7072  0.2460
 1017MOL0     O37161   2.692   1.764   2.509  0.3244  0.1648 -0.3341
 1017MOL0     C37162   2.643   1.742   2.616 -0.0354 -0.4538 -0.4869
 1017MOL0     O37163   2.716   1.724   2.735  0.2007  0.2489  0.0838
 1017MOL0     C37164   2.851   1.752   2.725 -0.7248  0.1870  0.1805
 1017MOL0     C37165   2.936   1.654   2.776  0.4354 -0.9119  0.7431
 1017MOL0     C37166   3.073   1.664   2.769  0.1445 -0.0548  1.0259
 1017MOL0     C37167   3.134   1.784   2.712  0.1637  0.4033 -0.0212
 1017MOL0     O37168   3.274   1.782   2.701 -0.0562 -0.2723 -0.1048
 1017MOL0     C37169   3.337   1.909   2.677  0.3470 -0.0131  0.8082
 1017MOL0     C37170   3.489   1.906   2.711  1.1487 -0.7108  0.7261
 1017MOL0     C37171   3.498   1.901   2.868 -0.1581 -0.0353 -0.6040
 1017MOL0     C37172   3.624   1.848   2.932 -0.4302  0.2990 -0.6510
 1017MOL0     C37173   3.746   1.946   2.932  0.6729  0.3802  0.9089
 1017MOL0     C37174   3.882   1.890   2.974 -0.6745 -0.4847  0.3862
 1017MOL0     C37175   3.990   2.002   2.974  0.1220 -0.3624 -0.0573
 1017MOL0     C37176   4.129   1.964   2.996  0.2912 -0.5435 -0.7788
 1017MOL0     N37177   4.223   2.086   2.986  0.0688  0.1289  0.0453
 1017MOL0     C37178   4.309   2.113   2.878  0.1627 -0.5097  0.4005
 1017MOL0     C37179   4.414   2.189   2.932 -0.1142  1.0199  0.3367
 1017MOL0     C37180   4.536   2.242   2.844 -0.2419 -0.1252 -0.1656
 1017MOL0     C37181   4.634   2.315   2.933  0.6796 -0.4748  0.9948
 1017MOL0     C37182   4.761   2.346   2.850  0.0074 -0.3479  0.4975
 1017MOL0     C37183   4.855   2.437   2.936 -0.1787  0.1347 -0.4599
 1017MOL0     O37184   4.952   2.361   3.014  0.4660  0.9172 -0.2796
 1017MOL0     C37185   5.068   2.317   2.948  0.1475 -0.5275  0.3008
 1017MOL0     C37186   5.149   2.229   3.017 -0.8610  0.0417  0.4075
 1017MOL0     C37187   5.279   2.193   2.963 -0.2308  0.3063  0.6375
 1017MOL0     C37188   5.334   2.250   2.845 -0.0446 -0.1951 -0.9084
 1017MOL0     C37189   5.475   2.226   2.813 -0.1193 -0.5207  0.1265
 1017MOL0     O37190   5.570   2.180   2.906  0.0387  0.2170  0.1492
 1017MOL0     C37191   5.700   2.182   2.861 -0.0323  0.0829  0.2406
 1017MOL0     C37192   5.758   2.090   2.777 -0.7957  0.3782  0.8050
 1017MOL0     C37193   5.896   2.107   2.734 -0.5699  0.7315  0.0503
 1017MOL0     C37194   5.969   2.224   2.774 -0.5956  0.0417  0.7582
 1017MOL0     O37195   6.099   2.257   2.757  0.0044 -0.4532 -1.0280
 1017MOL0     C37196   6.184   2.164   2.690  0.6350 -0.3506  0.3024
 1017MOL0     C37197   6.302   2.142   2.783 -0.4577 -0.3480  0.3284
 1017MOL0     C37198   6.409   2.062   2.697  0.1266  0.1255 -1.2660
 1017MOL0     C37199   6.520   2.013   2.785 -0.4822 -0.2355  0.7037
 1017MOL0     C37200   6.611   1.919   2.713  0.2703  0.9215 -0.6218
 1017MOL0     C37201   6.728   1.870   2.799 -0.5243 -0.2773 -0.0916
 1017MOL0     C37202   6.824   1.775   2.726  0.5887  0.4540  0.2395
 1017MOL0     C37203   6.929   1.722   2.832 -0.0614 -0.7624  0.0937
 1017MOL0    Cl37204   6.871   1.607   2.955  0.0153  0.5242 -0.0709
 1017MOL0     C37205   5.903   2.315   2.849 -0.6254 -0.7336  0.1800
 1017MOL0     C37206   5.771   2.295   2.886  0.4937 -0.1809  0.1990
 1017MOL0     O37207   5.497   2.268   2.696 -0.1103 -0.5249 -0.1060
 1017MOL0     C37208   5.242   2.341   2.779  0.0129  0.0507  0.1633
 1017MOL0     C37209   5.117   2.368   2.824  0.4589  0.6697  0.0586
 1017MOL0     N37210   4.383   2.196   3.070  0.5416 -0.8721 -0.4005
 1017MOL0     N37211   4.279   2.135   3.097  0.0508  0.6978 -0.2893
 1017MOL0     C37212   3.045   1.877   2.661  0.3259 -0.0800 -0.3140
 1017MOL0     C37213   2.911   1.863   2.674 -0.2340  0.6095 -0.4758
 1017MOL0     C37214   2.498   1.701   2.624 -0.1389  0.5474 -0.7806
 1017MOL0     C37215   2.468   1.605   2.722  0.1891 -0.3792  0.1825
 1017MOL0     C37216   2.339   1.548   2.734 -0.6557 -0.0497 -0.2874
 1017MOL0     C37217   2.234   1.588   2.641 -0.4431  0.6884 -1.0371
 1017MOL0     O37218   2.108   1.543   2.642 -0.6514 -0.2793 -0.1597
 1017MOL0     C37219   2.071   1.436   2.724  0.0098 -0.5429  0.5030
 1017MOL0     C37220   1.978   1.354   2.634  0.1727 -0.4058  0.3738
 1017MOL0     C37221   1.998   1.201   2.659 -0.5275 -0.3059  0.0891
 1017MOL0     C37222   1.919   1.115   2.558 -0.3082  0.0223  0.4525
 1017MOL0     C37223   2.008   1.087   2.438  0.2165  0.1359 -0.5876
 1017MOL0     C37224   2.074   1.060   2.335 -0.4846 -0.0523 -0.0176
 1017MOL0     C37225   2.271   1.685   2.549  0.1653  0.2116  0.6208
 1017MOL0     C37226   2.398   1.740   2.529 -0.0558  0.1427 -0.3959
 1017MOL0     C37227   2.424   1.839   2.415  0.0654 -0.5273 -0.0844
 1017MOL0     H37228   2.877   1.575   2.821 -3.9416  1.1879 -0.7689
 1017MOL0     H37229   3.131   1.592   2.825  0.3059  0.8147  2.0050
 1017MOL0     H37230   3.315   1.932   2.573 -1.1008 -0.1253  1.0739
 1017MOL0     H37231   3.294   1.991   2.735 -1.9774 -2.1042  2.2554
 1017MOL0     H37232   3.531   2.002   2.679  2.5940 -1.2237  0.9665
 1017MOL0     H37233   3.548   1.824   2.667  1.1908 -1.4641  2.1148
 1017MOL0     H37234   3.415   1.839   2.904 -0.8395  2.2819  2.2282
 1017MOL0     H37235   3.470   1.999   2.909 -0.8442 -0.6934  0.5581
 1017MOL0     H37236   3.618   1.818   3.037  2.8811  1.9256  0.1311
 1017MOL0     H37237   3.661   1.764   2.873 -0.8178  0.3542 -0.9793
 1017MOL0     H37238   3.756   1.967   2.825 -0.6030 -3.4525 -0.1004
 1017MOL0     H37239   3.731   2.048   2.970 -0.7318  0.7613 -0.5281
 1017MOL0     H37240   3.871   1.840   3.071 -2.3745  2.1733  1.6878
 1017MOL0     H37241   3.910   1.814   2.901 -0.5548 -1.1348  1.0890
 1017MOL0     H37242   3.949   2.064   3.054 -2.5790  1.0020 -2.3199
 1017MOL0     H37243   4.001   2.056   2.879  4.7282  0.2638  0.5919
 1017MOL0     H37244   4.136   1.915   3.093  0.9428 -0.7117 -0.9015
 1017MOL0     H37245   4.173   1.886   2.933  0.7235 -1.2684  0.3886
 1017MOL0     H37246   4.303   2.087   2.773 -2.5001 -2.6815  0.9795
 1017MOL0     H37247   4.593   2.162   2.795 -0.1364 -0.9665  1.2572
 1017MOL0     H37248   4.484   2.302   2.770  0.3572  0.5655 -0.0378
 1017MOL0     H37249   4.589   2.406   2.975  1.0046  0.3847 -0.4423
 1017MOL0     H37250   4.676   2.246   3.007  0.6101  0.2960  1.7729
 1017MOL0     H37251   4.733   2.411   2.766  1.6457  2.3984  1.9182
 1017MOL0     H37252   4.827   2.266   2.816  0.2002 -0.9653  2.2386
 1017MOL0     H37253   4.795   2.494   3.007 -0.0560  0.1876 -0.3985
 1017MOL0     H37254   4.903   2.516   2.878  0.0779 -0.7267 -1.4528
 1017MOL0     H37255   5.113   2.186   3.110 -0.1105 -2.4228 -0.3668
 1017MOL0     H37256   5.334   2.113   3.011  2.4747 -0.7425 -3.6612
 1017MOL0     H37257   5.684   2.015   2.750  1.7248 -1.8582 -0.3179
 1017MOL0     H37258   5.941   2.025   2.680 -0.9228  1.4691 -1.4035
 1017MOL0     H37259   6.137   2.069   2.665 -1.1511  1.0502 -2.0575
 1017MOL0     H37260   6.231   2.209   2.602  1.6223 -1.4869  0.2265
 1017MOL0     H37261   6.348   2.241   2.794 -0.2290  0.1837 -3.7914
 1017MOL0     H37262   6.274   2.089   2.874  1.2986  0.4715  1.4199
 1017MOL0     H37263   6.359   1.981   2.644 -3.4476  2.5569 -2.0057
 1017MOL0     H37264   6.448   2.133   2.623  1.7418  4.2833  3.0099
 1017MOL0     H37265   6.478   1.959   2.870  1.8777 -0.7653  1.6142
 1017MOL0     H37266   6.584   2.098   2.813  1.0398 -0.9332 -0.4491
 1017MOL0     H37267   6.652   1.968   2.624  0.5779  3.0208  0.6028
 1017MOL0     H37268   6.562   1.827   2.679 -0.4407  0.7995  0.6879
 1017MOL0     H37269   6.780   1.955   2.843 -0.7721 -0.1550 -0.0357
 1017MOL0     H37270   6.687   1.807   2.878 -1.1883 -0.3742 -0.5039
 1017MOL0     H37271   6.879   1.833   2.651 -0.4918  2.5449  0.9969
 1017MOL0     H37272   6.777   1.689   2.676 -0.0580  0.4242  0.8838
 1017MOL0     H37273   7.002   1.655   2.784  1.5344 -0.2550  1.7391
 1017MOL0     H37274   6.980   1.808   2.876 -1.6730  0.8390 -1.0000
 1017MOL0     H37275   5.957   2.409   2.861  2.3970 -2.3186  0.0097
 1017MOL0     H37276   5.720   2.382   2.927  3.1203  1.2363  0.6407
 1017MOL0     H37277   5.263   2.389   2.685 -0.6530 -1.1323 -0.6176
 1017MOL0     H37278   5.058   2.443   2.772  0.4794 -0.1547 -1.1780
 1017MOL0     H37279   3.084   1.958   2.600  0.8169  2.1497  2.7555
 1017MOL0     H37280   2.850   1.937   2.622 -2.0889 -0.4691  0.0448
 1017MOL0     H37281   2.547   1.580   2.793  2.6297  0.1473 -2.1531
 1017MOL0     H37282   2.323   1.484   2.820  2.1637 -0.2221  0.2037
 1017MOL0     H37283   2.038   1.454   2.826  1.9758  0.4002  1.0278
 1017MOL0     H37284   2.159   1.372   2.737 -0.9602 -1.3783  3.5902
 1017MOL0     H37285   1.997   1.369   2.528 -1.9875  0.3079  0.0389
 1017MOL0     H37286   1.877   1.390   2.655  1.0757  1.4702  1.8563
 1017MOL0     H37287   1.959   1.167   2.755 -1.1044 -2.3332 -0.8175
 1017MOL0     H37288   2.103   1.170   2.654 -0.1970  0.5933  1.0740
 1017MOL0     H37289   1.898   1.024   2.615  0.1321 -0.5917 -0.3322
 1017MOL0     H37290   1.824   1.153   2.520 -0.4389 -2.8313 -2.5773
 1017MOL0     H37291   2.128   1.048   2.244 -1.9829 -2.5233 -0.6916
 1017MOL0     H37292   2.187   1.697   2.481  0.9839 -2.0097 -0.8892
 1017MOL0     H37293   2.331   1.880   2.373  0.8512  1.6626  0.1952
 1017MOL0     H37294   2.487   1.915   2.462 -2.9219  1.5276  0.9067
 1017MOL0     H37295   2.476   1.802   2.327 -2.5443 -2.3860 -0.9660
 1018MOL0     O37296  11.136   1.895   5.844  0.7794 -0.5906  0.0213
 1018MOL0     C37297  11.209   1.979   5.793 -0.1830  0.0015 -0.5333
 1018MOL0     O37298  11.223   1.985   5.664 -0.5037 -1.4890  0.8001
 1018MOL0     C37299  11.138   1.921   5.575 -0.1418  0.4482  0.3816
 1018MOL0     C37300  11.018   1.849   5.591 -0.1671 -0.8084 -0.4355
 1018MOL0     C37301  10.951   1.783   5.484 -0.5023 -0.1154  0.3792
 1018MOL0     C37302  11.020   1.775   5.357 -0.2342  0.1399  0.2752
 1018MOL0     O37303  10.975   1.707   5.248 -0.0745  0.6314 -0.4186
 1018MOL0     C37304  10.869   1.614   5.268  0.4316 -0.0186  0.0203
 1018MOL0     C37305  10.837   1.527   5.143  0.1258  0.0480 -0.3600
 1018MOL0     C37306  10.935   1.415   5.094 -0.3325  0.1998  0.2343
 1018MOL0     C37307  10.991   1.322   5.202  0.3809 -0.8190 -0.2029
 1018MOL0     C37308  11.076   1.226   5.114  0.8372 -0.2090  0.6959
 1018MOL0     C37309  11.161   1.137   5.194  1.4265  0.1586 -0.1307
 1018MOL0     C37310  11.242   1.052   5.091  0.2733 -0.3237 -0.0353
 1018MOL0     C37311  11.322   0.939   5.163 -0.2585 -0.0926  0.0017
 1018MOL0     N37312  11.426   0.887   5.070  0.0514  0.0251 -0.1735
 1018MOL0     C37313  11.557   0.931   5.068  0.0238 -0.0281  0.3113
 1018MOL0     C37314  11.627   0.851   4.982 -1.2411  0.2180 -0.1512
 1018MOL0     C37315  11.763   0.864   4.924  0.7658 -0.4401 -0.4663
 1018MOL0     C37316  11.826   0.738   4.878  0.6116  1.2975 -0.1375
 1018MOL0     C37317  11.949   0.762   4.799 -0.5023 -0.0581 -0.7277
 1018MOL0     C37318  12.008   0.632   4.732 -0.2510 -0.5744 -0.1761
 1018MOL0     O37319  12.131   0.672   4.674  0.4108 -0.2586 -0.2647
 1018MOL0     C37320  12.172   0.581   4.576 -0.0392  0.2803  0.8189
 1018MOL0     C37321  12.238   0.637   4.462 -0.1876  0.5968  0.0766
 1018MOL0     C37322  12.288   0.544   4.353 -0.0118  0.0072 -0.3631
 1018MOL0     C37323  12.267   0.405   4.368  0.4550  0.3904  0.9156
 1018MOL0     C37324  12.310   0.303   4.256  0.1007 -0.5329  0.0831
 1018MOL0     O37325  12.311   0.175   4.297 -0.3087 -0.1490  0.3991
 1018MOL0     C37326  12.345   0.084   4.203 -0.4388 -0.5098 -0.7465
 1018MOL0     C37327  12.242   0.008   4.141  0.4709  0.7800 -0.0100
 1018MOL0     C37328  12.286  -0.075   4.029  0.0863  0.2587  0.8016
 1018MOL0     C37329  12.421  -0.087   3.991  0.1449  0.9152  0.5810
 1018MOL0     O37330  12.439  -0.171   3.882  0.0328 -0.0709 -0.1008
 1018MOL0     C37331  12.576  -0.183   3.829  0.1745  0.4561  0.3938
 1018MOL0     C37332  12.583  -0.304   3.730 -0.1609  0.7398  0.1411
 1018MOL0     C37333  12.698  -0.282   3.632 -0.3700  0.3920  0.4074
 1018MOL0     C37334  12.672  -0.356   3.495 -0.8253  0.1876  0.2229
 1018MOL0     C37335  12.796  -0.347   3.405 -0.0863  0.3358 -0.1908
 1018MOL0     C37336  12.753  -0.380   3.258 -0.4070  0.0045  0.4411
 1018MOL0     C37337  12.863  -0.391   3.162 -0.6338  0.4981  0.4845
 1018MOL0     C37338  12.835  -0.458   3.021 -0.5682 -0.3145 -0.0078
 1018MOL0    Cl37339  12.979  -0.471   2.913 -0.3443  0.7203  0.4259
 1018MOL0     C37340  12.523  -0.023   4.060 -0.0003  0.5420  0.2605
 1018MOL0     C37341  12.484   0.064   4.164  0.5375 -0.1418  0.1320
 1018MOL0     O37342  12.333   0.347   4.144  0.7587 -0.2334 -0.5494
 1018MOL0     C37343  12.211   0.352   4.487 -0.6090  0.0438 -0.6365
 1018MOL0     C37344  12.162   0.440   4.586  0.6685  0.0745 -0.1979
 1018MOL0     N37345  11.533   0.756   4.957  0.0591  0.3698 -0.1708
 1018MOL0     N37346  11.411   0.783   4.996  0.3319 -0.0566 -0.3235
 1018MOL0     C37347  11.128   1.854   5.338 -0.6144  0.0636 -0.0060
 1018MOL0     C37348  11.189   1.918   5.446 -0.0921  0.2386  0.5411
 1018MOL0     C37349  11.286   2.077   5.892  0.5759  0.9077  0.3341
 1018MOL0     C37350  11.336   2.191   5.832  0.8709  0.4993  0.5032
 1018MOL0     C37351  11.390   2.295   5.909 -0.1262 -0.4650 -0.1053
 1018MOL0     C37352  11.425   2.274   6.046  0.5500  0.5799 -0.2760
 1018MOL0     O37353  11.488   2.364   6.112  0.3890 -0.7600  0.0384
 1018MOL0     C37354  11.403   2.429   6.206 -0.3896 -0.4075 -0.3684
 1018MOL0     C37355  11.275   2.510   6.160 -0.7742  0.2471  0.0952
 1018MOL0     C37356  11.330   2.639   6.108 -0.2872 -0.1826  0.8292
 1018MOL0     C37357  11.252   2.716   5.997  0.6734 -0.7932 -0.8964
 1018MOL0     C37358  11.113   2.740   6.032  0.4778  0.2616  0.2504
 1018MOL0     C37359  11.001   2.762   6.071  0.2492 -0.0485 -0.4617
 1018MOL0     C37360  11.396   2.150   6.100 -0.2767  0.2188  0.3711
 1018MOL0     C37361  11.327   2.051   6.024 -0.3825  0.7096 -0.3710
 1018MOL0     C37362  11.300   1.915   6.090 -0.2032  0.1427 -0.6381
 1018MOL0     H37363  10.980   1.839   5.692 -0.4062 -0.4425 -0.4887
 1018MOL0     H37364  10.857   1.731   5.499 -0.2503 -1.2356 -1.5626
 1018MOL0     H37365  10.916   1.555   5.347  0.0957  0.1030  0.3154
 1018MOL0     H37366  10.777   1.667   5.292  0.2359  0.5206 -1.7491
 1018MOL0     H37367  10.818   1.596   5.060 -1.5080  1.6777  1.2674
 1018MOL0     H37368  10.738   1.484   5.161  0.5830 -1.2456 -0.8337
 1018MOL0     H37369  11.013   1.466   5.036  1.0179 -1.4385  0.5266
 1018MOL0     H37370  10.880   1.345   5.030  0.7297 -2.5506  2.1097
 1018MOL0     H37371  11.057   1.367   5.277 -1.2323  1.2946  0.0593
 1018MOL0     H37372  10.903   1.285   5.255  1.5316 -1.8675  1.0710
 1018MOL0     H37373  11.011   1.170   5.046 -0.4123  0.6787  1.1423
 1018MOL0     H37374  11.136   1.283   5.043  0.3974  1.8895  1.9262
 1018MOL0     H37375  11.222   1.194   5.263  0.7970 -0.9434  1.3889
 1018MOL0     H37376  11.096   1.074   5.256 -1.1444  2.0725 -0.7291
 1018MOL0     H37377  11.310   1.118   5.037 -0.2997 -2.0231 -3.0450
 1018MOL0     H37378  11.176   1.008   5.015  0.5700  0.1422 -0.5652
 1018MOL0     H37379  11.367   0.978   5.254 -1.8144  1.3460  0.2107
 1018MOL0     H37380  11.243   0.866   5.186 -0.8945  0.1462 -1.3217
 1018MOL0     H37381  11.600   1.015   5.122  0.0898 -1.2342  2.2493
 1018MOL0     H37382  11.746   0.907   4.825 -2.5593 -2.0550 -0.7309
 1018MOL0     H37383  11.836   0.922   4.981  1.1439  0.1600 -1.5280
 1018MOL0     H37384  11.839   0.662   4.955 -2.8444  1.1393  0.4258
 1018MOL0     H37385  11.756   0.691   4.808 -0.2574  0.5676  1.1858
 1018MOL0     H37386  12.024   0.803   4.867  1.5833  1.1189 -3.5450
 1018MOL0     H37387  11.926   0.829   4.715  0.0471  0.0981 -0.7550
 1018MOL0     H37388  11.942   0.585   4.659 -2.5416  2.7259 -0.4335
 1018MOL0     H37389  12.030   0.558   4.809 -0.8042  0.8392  1.4111
 1018MOL0     H37390  12.253   0.741   4.438 -0.3256  0.3785 -1.0158
 1018MOL0     H37391  12.332   0.589   4.265 -1.4165  0.0555 -1.0631
 1018MOL0     H37392  12.145   0.036   4.179  0.6127 -1.0788  1.8828
 1018MOL0     H37393  12.207  -0.114   3.966 -0.6656  2.9665 -0.0831
 1018MOL0     H37394  12.609  -0.090   3.782  2.6122  0.6838  2.3327
 1018MOL0     H37395  12.656  -0.208   3.899 -0.5103 -1.7209  0.4643
 1018MOL0     H37396  12.593  -0.394   3.790 -1.8953  0.5245  0.1807
 1018MOL0     H37397  12.485  -0.304   3.680 -0.7275  0.1759  1.2232
 1018MOL0     H37398  12.700  -0.177   3.599 -3.3901 -1.0337 -5.8624
 1018MOL0     H37399  12.797  -0.308   3.670 -1.5352 -0.8355  2.8226
 1018MOL0     H37400  12.593  -0.302   3.442  0.6623  0.2064 -2.1584
 1018MOL0     H37401  12.636  -0.458   3.506 -0.5826 -0.1920 -1.9425
 1018MOL0     H37402  12.875  -0.413   3.442  1.3696  1.9542 -0.2565
 1018MOL0     H37403  12.835  -0.245   3.412  0.1054  0.1476  2.0802
 1018MOL0     H37404  12.692  -0.470   3.251  0.4138 -0.5675  0.6332
 1018MOL0     H37405  12.695  -0.293   3.224  1.6423  1.0914 -0.4328
 1018MOL0     H37406  12.947  -0.447   3.204  1.4863  1.4765 -2.1421
 1018MOL0     H37407  12.896  -0.291   3.134 -3.7424  0.7214 -3.2767
 1018MOL0     H37408  12.785  -0.553   3.042 -1.5071 -0.1550 -1.4124
 1018MOL0     H37409  12.759  -0.403   2.965  0.5136  1.3205  0.0534
 1018MOL0     H37410  12.629  -0.040   4.042  0.3670 -2.6892  4.1440
 1018MOL0     H37411  12.567   0.117   4.211  2.1651 -1.3729 -1.2226
 1018MOL0     H37412  12.195   0.246   4.500 -0.9619  0.1517 -0.1574
 1018MOL0     H37413  12.113   0.390   4.669 -0.1336 -0.4963 -0.9964
 1018MOL0     H37414  11.175   1.856   5.240  0.6237  0.1342  0.5694
 1018MOL0     H37415  11.286   1.961   5.423 -0.8896  1.5811 -0.4527
 1018MOL0     H37416  11.324   2.208   5.726  0.3976 -0.7189  0.3505
 1018MOL0     H37417  11.427   2.387   5.867  0.2634 -0.3490  0.4785
 1018MOL0     H37418  11.469   2.490   6.267  0.3845 -1.2514 -0.3318
 1018MOL0     H37419  11.373   2.346   6.270  2.1542 -0.5437  0.7866
 1018MOL0     H37420  11.204   2.536   6.238  0.2508  1.7193  0.5785
 1018MOL0     H37421  11.211   2.455   6.090 -0.9337 -1.5022  1.5383
 1018MOL0     H37422  11.427   2.634   6.059 -1.8402  1.0519 -2.7089
 1018MOL0     H37423  11.341   2.714   6.187  1.6655  3.8269 -2.8071
 1018MOL0     H37424  11.294   2.817   5.988  1.5358 -1.0564 -0.0101
 1018MOL0     H37425  11.257   2.664   5.902  0.4959 -1.0380 -0.7710
 1018MOL0     H37426  10.903   2.784   6.108  0.1882  0.7471 -1.0623
 1018MOL0     H37427  11.424   2.132   6.203 -1.3248 -0.8492  0.4887
 1018MOL0     H37428  11.196   1.900   6.120  0.1213 -3.9655 -0.9711
 1018MOL0     H37429  11.318   1.833   6.020  1.9761  1.0945 -1.2611
 1018MOL0     H37430  11.356   1.905   6.183 -1.1368  2.3901  0.2656
 1019MOL0     O37431   3.954   9.829   5.064  0.5696 -0.1036  0.3355
 1019MOL0     C37432   3.962   9.865   5.181  0.9763  0.1307 -0.0391
 1019MOL0     O37433   4.046   9.960   5.228 -0.9172  0.1371  0.8638
 1019MOL0     C37434   4.124  10.012   5.121 -0.0039  0.5308 -1.0454
 1019MOL0     C37435   4.083  10.139   5.066 -0.0990 -0.7615  0.0453
 1019MOL0     C37436   4.158  10.209   4.972 -0.2285 -0.1453  0.1728
 1019MOL0     C37437   4.280  10.157   4.924 -0.0878 -0.3580 -0.0736
 1019MOL0     O37438   4.370  10.219   4.853 -0.4786  0.4988 -0.4887
 1019MOL0     C37439   4.344  10.330   4.781  0.3227  0.0739  1.0231
 1019MOL0     C37440   4.490  10.373   4.739  0.3479 -0.3862 -0.6921
 1019MOL0     C37441   4.576  10.265   4.660  0.0087  0.3006 -0.5716
 1019MOL0     C37442   4.685  10.335   4.587  0.3827 -1.0350  0.3722
 1019MOL0     C37443   4.797  10.246   4.542 -0.2638  0.1634  0.1196
 1019MOL0     C37444   4.909  10.301   4.446 -0.5670  0.3607 -0.6161
 1019MOL0     C37445   5.012  10.404   4.513  0.0588  0.4027  0.5757
 1019MOL0     C37446   5.077  10.349   4.639 -0.2300 -0.1864 -0.0746
 1019MOL0     N37447   5.149  10.227   4.606 -0.3367  0.2894 -0.0202
 1019MOL0     C37448   5.268  10.232   4.531 -0.4564 -0.5885 -0.6926
 1019MOL0     C37449   5.318  10.105   4.544  0.7088  1.3570  0.6868
 1019MOL0     C37450   5.439  10.048   4.459 -0.4071  0.2329 -0.4930
 1019MOL0     C37451   5.550  10.003   4.552 -0.0528  0.9185  0.2236
 1019MOL0     C37452   5.521   9.866   4.622 -0.8189 -0.0271 -0.0860
 1019MOL0     C37453   5.629   9.819   4.716 -0.9430 -0.7473  0.0254
 1019MOL0     O37454   5.671   9.927   4.798 -0.1494 -0.1134 -0.3271
 1019MOL0     C37455   5.801   9.928   4.852  1.5422  0.0465  0.5291
 1019MOL0     C37456   5.857  10.053   4.891 -0.7065  0.8600  0.1559
 1019MOL0     C37457   5.980  10.047   4.951 -0.0558  0.7609 -0.1341
 1019MOL0     C37458   6.058   9.929   4.967 -0.9352  0.2372  0.0103
 1019MOL0     C37459   6.190   9.922   5.044  0.1837 -0.0194  0.0488
 1019MOL0     O37460   6.252   9.797   5.059 -0.0876  0.2747 -0.2581
 1019MOL0     C37461   6.372   9.776   5.132 -0.5463  0.3959  0.8127
 1019MOL0     C37462   6.393   9.656   5.200 -0.4298 -0.1979 -1.0761
 1019MOL0     C37463   6.511   9.629   5.268 -0.0533 -0.1960 -0.8725
 1019MOL0     C37464   6.618   9.717   5.266  0.6505  0.6552 -0.0108
 1019MOL0     O37465   6.728   9.675   5.333 -0.6467 -0.4719  0.0106
 1019MOL0     C37466   6.835   9.764   5.341  0.9324 -1.0386  0.3826
 1019MOL0     C37467   6.937   9.703   5.426 -0.6823  0.9047 -0.9068
 1019MOL0     C37468   7.037   9.809   5.472  0.4874 -0.6768 -0.2241
 1019MOL0     C37469   7.158   9.739   5.537 -0.2884  0.7188 -0.6019
 1019MOL0     C37470   7.282   9.824   5.569 -0.4797  0.3453  0.2898
 1019MOL0     C37471   7.250   9.900   5.696 -0.3585  0.6113 -0.2869
 1019MOL0     C37472   7.357  10.006   5.712 -0.7475 -0.0896  0.5138
 1019MOL0     C37473   7.387  10.045   5.854 -0.8330 -0.0045  0.1461
 1019MOL0    Cl37474   7.356  10.211   5.906  0.0356  0.1342 -0.0385
 1019MOL0     C37475   6.606   9.837   5.186 -0.0352  0.3185 -0.1909
 1019MOL0     C37476   6.485   9.869   5.120 -0.0066  0.4805 -0.3324
 1019MOL0     O37477   6.235  10.030   5.069 -0.3194 -0.5347  0.3100
 1019MOL0     C37478   5.997   9.800   4.937 -0.0585 -0.7651  0.4311
 1019MOL0     C37479   5.864   9.811   4.887  1.3204  0.2727  0.0294
 1019MOL0     N37480   5.226  10.031   4.616  0.0440  0.0253  0.5504
 1019MOL0     N37481   5.131  10.106   4.661 -0.1267 -1.1607 -0.5538
 1019MOL0     C37482   4.314  10.035   4.975  0.3994  0.9586  0.5986
 1019MOL0     C37483   4.241   9.965   5.068 -0.4187 -0.3682 -0.4890
 1019MOL0     C37484   3.879   9.785   5.278 -0.2527  0.1775 -0.4524
 1019MOL0     C37485   3.747   9.755   5.243  0.2882 -0.1710 -0.2463
 1019MOL0     C37486   3.661   9.683   5.322 -0.7573  1.1732 -0.2105
 1019MOL0     C37487   3.705   9.637   5.444  0.0796  0.4015 -0.5855
 1019MOL0     O37488   3.630   9.568   5.537  0.3624  0.3701 -0.1702
 1019MOL0     C37489   3.508   9.500   5.484 -0.1390  0.7446  0.3067
 1019MOL0     C37490   3.463   9.400   5.597  0.0649  0.0769  0.4969
 1019MOL0     C37491   3.361   9.308   5.543  0.0024  0.0352 -0.7398
 1019MOL0     C37492   3.220   9.370   5.530  0.3381 -0.1135 -0.4580
 1019MOL0     C37493   3.133   9.329   5.644  0.3914  0.2437 -0.3344
 1019MOL0     C37494   3.060   9.294   5.741 -0.7144  0.4418 -0.3990
 1019MOL0     C37495   3.834   9.672   5.487  0.2005  0.0190  0.0902
 1019MOL0     C37496   3.916   9.756   5.409  0.6980 -0.3053 -0.0551
 1019MOL0     C37497   4.053   9.780   5.477 -0.1273 -0.6385  0.6199
 1019MOL0     H37498   3.984  10.172   5.096  0.3979  1.1163 -0.3128
 1019MOL0     H37499   4.125  10.303   4.927 -1.6480 -0.2853  0.8634
 1019MOL0     H37500   4.286  10.289   4.698 -1.1502 -0.2940  2.2047
 1019MOL0     H37501   4.295  10.406   4.842  0.3334  0.6118  0.3642
 1019MOL0     H37502   4.535  10.392   4.836 -0.2232 -2.0437 -0.0637
 1019MOL0     H37503   4.473  10.467   4.685 -0.3085  1.7575  2.9290
 1019MOL0     H37504   4.502  10.220   4.592 -2.5077  1.4744  1.2382
 1019MOL0     H37505   4.624  10.197   4.731 -1.0228  1.2121  1.0435
 1019MOL0     H37506   4.646  10.385   4.498 -2.1234 -4.0684 -0.4026
 1019MOL0     H37507   4.726  10.411   4.654 -1.8342 -0.4126  1.1127
 1019MOL0     H37508   4.844  10.211   4.635  1.8902  0.0649 -0.9367
 1019MOL0     H37509   4.746  10.164   4.491  0.6142 -0.4316  0.1646
 1019MOL0     H37510   4.963  10.221   4.394  1.2972 -0.6776  2.6454
 1019MOL0     H37511   4.867  10.356   4.361  1.5203  1.0849 -1.2440
 1019MOL0     H37512   4.954  10.491   4.544 -3.5581 -1.2469 -0.9356
 1019MOL0     H37513   5.077  10.424   4.427 -0.6272  1.6655  0.3221
 1019MOL0     H37514   5.150  10.419   4.680 -0.7987 -0.4505  1.4619
 1019MOL0     H37515   5.003  10.316   4.713  0.4847 -3.9456 -0.8098
 1019MOL0     H37516   5.301  10.301   4.453 -0.3892 -0.5941 -0.6690
 1019MOL0     H37517   5.404   9.964   4.397  0.5299  0.9540 -2.0463
 1019MOL0     H37518   5.468  10.126   4.388  0.7045  0.3838  0.1050
 1019MOL0     H37519   5.644   9.987   4.499  0.0586 -2.3052  1.1635
 1019MOL0     H37520   5.572  10.076   4.631 -1.7750  0.9890  0.6736
 1019MOL0     H37521   5.504   9.789   4.545 -0.2766 -1.5269  1.2453
 1019MOL0     H37522   5.432   9.885   4.683 -0.5895 -0.8129  0.4950
 1019MOL0     H37523   5.711   9.782   4.654 -4.3701 -1.8111 -4.4247
 1019MOL0     H37524   5.595   9.738   4.781  1.8634 -0.0142  2.6419
 1019MOL0     H37525   5.794  10.140   4.880 -2.3975  0.0929  2.9041
 1019MOL0     H37526   6.005  10.136   5.008  1.1614 -0.3787  1.1909
 1019MOL0     H37527   6.310   9.587   5.204 -1.4997  0.9308 -2.6921
 1019MOL0     H37528   6.511   9.536   5.325  0.8743  0.2647 -0.0828
 1019MOL0     H37529   6.881   9.788   5.245  2.4305 -1.3104  1.0006
 1019MOL0     H37530   6.804   9.861   5.380 -1.6478 -2.5704  2.4532
 1019MOL0     H37531   6.897   9.652   5.514  0.3999 -0.3630 -1.1125
 1019MOL0     H37532   6.979   9.622   5.367  0.4966  0.4456  0.4936
 1019MOL0     H37533   7.062   9.864   5.381  0.5417 -0.0857  0.1451
 1019MOL0     H37534   6.993   9.877   5.546  2.8714  1.0994 -0.3032
 1019MOL0     H37535   7.186   9.648   5.483  0.8540 -1.3505  3.0906
 1019MOL0     H37536   7.125   9.697   5.632  0.8015 -0.3985 -0.6854
 1019MOL0     H37537   7.298   9.892   5.485 -0.7987  0.3643  0.2454
 1019MOL0     H37538   7.371   9.760   5.576 -0.5029  0.3931  1.0875
 1019MOL0     H37539   7.149   9.941   5.699 -0.6361 -0.0416  2.6584
 1019MOL0     H37540   7.259   9.825   5.776 -0.7961 -1.3232 -1.9692
 1019MOL0     H37541   7.339  10.099   5.656  1.1380  0.1019  0.1593
 1019MOL0     H37542   7.455   9.972   5.677  0.3557  1.5290  1.8644
 1019MOL0     H37543   7.333   9.978   5.922  2.1855 -1.1616  1.6220
 1019MOL0     H37544   7.493  10.023   5.872 -1.5179 -1.9788  2.2211
 1019MOL0     H37545   6.675   9.921   5.181 -0.0576  0.5968  2.4930
 1019MOL0     H37546   6.473   9.963   5.066 -2.2712 -1.6294 -3.8429
 1019MOL0     H37547   6.036   9.702   4.964  0.5376 -0.3124  1.2748
 1019MOL0     H37548   5.818   9.714   4.869  0.4347  0.9021 -1.1851
 1019MOL0     H37549   4.402   9.989   4.931 -1.4938 -0.7570 -1.6312
 1019MOL0     H37550   4.277   9.868   5.100 -0.5705 -0.5908 -0.9972
 1019MOL0     H37551   3.710   9.795   5.149  1.6676  2.4609  0.2390
 1019MOL0     H37552   3.559   9.660   5.292  0.1902 -2.8249 -0.8497
 1019MOL0     H37553   3.540   9.447   5.394  3.0900 -0.3543  1.9181
 1019MOL0     H37554   3.427   9.566   5.452 -2.9517 -1.4916  2.3144
 1019MOL0     H37555   3.423   9.458   5.681  0.0232  0.7723  0.0090
 1019MOL0     H37556   3.551   9.345   5.629 -0.0837 -2.2561 -2.6725
 1019MOL0     H37557   3.354   9.217   5.604 -0.2854  0.4288 -0.1779
 1019MOL0     H37558   3.403   9.266   5.451 -1.0648 -2.1160 -0.3261
 1019MOL0     H37559   3.225   9.479   5.538  1.6627 -0.2016  0.2753
 1019MOL0     H37560   3.172   9.349   5.434  1.1583  0.4542 -0.9942
 1019MOL0     H37561   3.002   9.271   5.828 -0.8027  1.8293 -0.0689
 1019MOL0     H37562   3.859   9.632   5.585  1.6531  0.4632 -0.0817
 1019MOL0     H37563   4.075   9.714   5.561 -0.4492 -0.2024  1.0546
 1019MOL0     H37564   4.131   9.789   5.401 -1.0174  1.5151 -0.1306
 1019MOL0     H37565   4.045   9.878   5.525 -0.6137 -0.5506  0.3656
 1020MOL0     O37566   0.736   0.432   9.856 -0.1851  0.2235 -0.1762
 1020MOL0     C37567   0.655   0.415   9.762 -0.2587 -0.0712 -0.0780
 1020MOL0     O37568   0.688   0.425   9.631  0.3538 -0.1987 -0.6949
 1020MOL0     C37569   0.821   0.449   9.610  0.1622 -0.8419 -1.1876
 1020MOL0     C37570   0.895   0.572   9.637  0.4197 -0.5577 -0.8519
 1020MOL0     C37571   1.031   0.566   9.609  0.5037 -0.4288  0.0353
 1020MOL0     C37572   1.099   0.453   9.554  0.1667 -0.9713  0.0954
 1020MOL0     O37573   1.233   0.463   9.523  0.0300  1.2692 -0.1015
 1020MOL0     C37574   1.317   0.500   9.630  0.1041  0.4110  0.5300
 1020MOL0     C37575   1.459   0.543   9.591  0.4922 -0.1147 -0.9693
 1020MOL0     C37576   1.558   0.462   9.509  0.7655  0.1126  0.0621
 1020MOL0     C37577   1.683   0.540   9.486 -0.7697  0.1831 -0.3667
 1020MOL0     C37578   1.788   0.450   9.410  0.2557  0.6921  0.4292
 1020MOL0     C37579   1.723   0.360   9.307 -0.2329  0.5092  0.0829
 1020MOL0     C37580   1.831   0.301   9.212 -0.3951 -0.1011 -0.0139
 1020MOL0     C37581   1.775   0.199   9.114 -0.1198 -0.9859  0.2166
 1020MOL0     N37582   1.868   0.156   9.007 -0.1914  0.6061  0.4818
 1020MOL0     C37583   1.982   0.077   9.015  0.2340 -0.7848 -0.2208
 1020MOL0     C37584   2.018   0.053   8.886  0.5313  0.3499  0.1580
 1020MOL0     C37585   2.134  -0.033   8.851  0.1472  0.3187  0.2507
 1020MOL0     C37586   2.183  -0.014   8.711 -0.4535  0.5875  0.5628
 1020MOL0     C37587   2.236   0.135   8.692  0.7186  0.4284 -0.1032
 1020MOL0     C37588   2.371   0.148   8.770 -0.9938 -0.4768  0.3226
 1020MOL0     O37589   2.476   0.052   8.742  0.4324  0.2200 -0.0555
 1020MOL0     C37590   2.601   0.089   8.769  0.1278 -0.3380  0.3215
 1020MOL0     C37591   2.657   0.049   8.886  0.1258 -0.5119  0.2950
 1020MOL0     C37592   2.790   0.078   8.917 -0.2449 -0.3202 -0.7664
 1020MOL0     C37593   2.873   0.143   8.828  0.6809  0.4992 -1.0036
 1020MOL0     C37594   3.015   0.165   8.858 -0.1965 -0.5676 -1.2654
 1020MOL0     O37595   3.050   0.145   8.991 -0.9851 -0.4509 -0.1771
 1020MOL0     C37596   3.181   0.162   9.031 -0.2337 -0.1762  0.2273
 1020MOL0     C37597   3.252   0.064   9.097  0.0905  0.8837 -0.5607
 1020MOL0     C37598   3.386   0.088   9.141  0.1594  0.3628  0.3093
 1020MOL0     C37599   3.450   0.211   9.118  0.0677  0.5838  0.7465
 1020MOL0     O37600   3.581   0.222   9.157 -0.5710 -0.0038 -0.3223
 1020MOL0     C37601   3.670   0.247   9.052  0.3384 -0.9368 -0.1171
 1020MOL0     C37602   3.806   0.283   9.097  0.0288 -0.3965 -0.4431
 1020MOL0     C37603   3.893   0.330   8.982  0.4267 -0.1215 -0.1759
 1020MOL0     C37604   3.960   0.457   9.025 -0.2030 -0.6217  0.6425
 1020MOL0     C37605   4.079   0.427   9.116  0.2962  0.5009 -0.0283
 1020MOL0     C37606   4.199   0.522   9.093 -0.2897  0.7666  0.5112
 1020MOL0     C37607   4.167   0.651   9.160 -0.5348  0.7186  0.1794
 1020MOL0     C37608   4.304   0.730   9.176  0.4258  0.9247  0.0993
 1020MOL0    Cl37609   4.304   0.864   9.292 -0.0559 -0.1874 -0.0500
 1020MOL0     C37610   3.369   0.313   9.056 -0.4092  0.7912 -0.4529
 1020MOL0     C37611   3.237   0.286   9.018 -0.5705 -0.0868  0.1666
 1020MOL0     O37612   3.085   0.191   8.760 -0.7051  0.1790  0.0658
 1020MOL0     C37613   2.817   0.182   8.710  0.0825  0.1304  0.1843
 1020MOL0     C37614   2.688   0.162   8.676 -0.1066  0.1537  0.4406
 1020MOL0     N37615   1.923   0.110   8.799  1.0002  0.5025 -0.8777
 1020MOL0     N37616   1.844   0.181   8.870 -0.1580  0.2654 -0.7807
 1020MOL0     C37617   1.030   0.341   9.526 -0.1231  0.7841 -0.6038
 1020MOL0     C37618   0.889   0.337   9.546 -0.1028 -0.4613 -1.1132
 1020MOL0     C37619   0.519   0.371   9.804 -0.4152 -0.2668  0.1141
 1020MOL0     C37620   0.485   0.366   9.943 -0.2059 -0.5076 -1.2148
 1020MOL0     C37621   0.358   0.324   9.986  0.0665  0.2347  0.0663
 1020MOL0     C37622   0.265   0.281   9.894  0.1948  0.1812 -0.4092
 1020MOL0     O37623   0.137   0.236   9.920  1.2049  0.4627 -0.4707
 1020MOL0     C37624   0.121   0.201  10.057  0.3166 -0.6250 -0.6607
 1020MOL0     C37625  -0.005   0.116  10.075 -0.7714 -0.0432 -1.0280
 1020MOL0     C37626  -0.134   0.187  10.041 -0.4498 -0.6684  0.5396
 1020MOL0     C37627  -0.262   0.141  10.115 -0.9969 -0.0518  0.3692
 1020MOL0     C37628  -0.385   0.152  10.033  1.0410  0.1317 -0.1043
 1020MOL0     C37629  -0.492   0.160   9.976 -0.0881  0.2081  0.3578
 1020MOL0     C37630   0.288   0.299   9.762 -0.7911 -0.4132  0.2381
 1020MOL0     C37631   0.418   0.341   9.709 -0.1337 -0.5550  1.1672
 1020MOL0     C37632   0.426   0.361   9.556  0.4029  0.1178  0.2399
 1020MOL0     H37633   0.850   0.661   9.678  1.0372 -0.5317 -0.2054
 1020MOL0     H37634   1.094   0.650   9.635  0.0286 -0.5823  1.8097
 1020MOL0     H37635   1.279   0.583   9.689  0.8497  1.6075 -0.6170
 1020MOL0     H37636   1.327   0.410   9.691  0.4523  0.7215  0.9305
 1020MOL0     H37637   1.516   0.568   9.682  0.8736  0.1470 -1.2767
 1020MOL0     H37638   1.437   0.641   9.548 -2.5958 -0.2087  0.2023
 1020MOL0     H37639   1.508   0.431   9.416  0.5705  3.0976 -0.9413
 1020MOL0     H37640   1.583   0.377   9.572  0.0350  1.0562  1.6811
 1020MOL0     H37641   1.658   0.634   9.435 -0.3375  1.2242  1.2404
 1020MOL0     H37642   1.722   0.560   9.587  1.4571 -0.9868 -0.9523
 1020MOL0     H37643   1.854   0.521   9.359 -0.5786  0.2328 -1.3774
 1020MOL0     H37644   1.839   0.391   9.487 -0.5983  2.2335  2.2725
 1020MOL0     H37645   1.669   0.278   9.356 -0.2574  0.3484 -0.2134
 1020MOL0     H37646   1.647   0.403   9.241  0.7988 -0.0739 -1.5352
 1020MOL0     H37647   1.914   0.270   9.277  0.3899  0.1890 -0.8599
 1020MOL0     H37648   1.862   0.383   9.146  3.1555 -1.0399  0.2856
 1020MOL0     H37649   1.752   0.109   9.171  4.5157 -4.3463 -2.4618
 1020MOL0     H37650   1.675   0.232   9.083 -1.8873 -3.0661  3.1819
 1020MOL0     H37651   2.030   0.039   9.105 -1.1326  0.0663  0.9256
 1020MOL0     H37652   2.213  -0.024   8.926  0.1085  0.6275  0.2542
 1020MOL0     H37653   2.088  -0.132   8.859 -1.1128  0.6849 -1.6464
 1020MOL0     H37654   2.264  -0.082   8.683 -0.9153 -1.1942  3.1764
 1020MOL0     H37655   2.101  -0.036   8.641  0.7304 -2.5056 -0.0155
 1020MOL0     H37656   2.161   0.198   8.740 -0.2226  1.2254 -2.4888
 1020MOL0     H37657   2.240   0.176   8.591 -2.0898  1.9727  0.3250
 1020MOL0     H37658   2.357   0.155   8.879  0.7680  1.5159  0.5104
 1020MOL0     H37659   2.403   0.246   8.733  0.6540 -1.7953 -2.0459
 1020MOL0     H37660   2.607  -0.037   8.930  3.4632 -3.7468 -1.6501
 1020MOL0     H37661   2.816   0.047   9.018  0.7605 -0.2503 -0.9991
 1020MOL0     H37662   3.200  -0.031   9.110  0.2228  0.6971 -1.3469
 1020MOL0     H37663   3.440   0.005   9.187  1.6516  0.4414 -1.2031
 1020MOL0     H37664   3.675   0.153   8.996 -0.3569 -1.1527  0.1761
 1020MOL0     H37665   3.626   0.322   8.985 -2.7801 -3.2061 -0.8392
 1020MOL0     H37666   3.800   0.353   9.181  3.4795  1.0494 -1.1958
 1020MOL0     H37667   3.856   0.196   9.141 -0.1390 -0.3128 -0.0806
 1020MOL0     H37668   3.966   0.256   8.948  0.9594  0.1853  0.2778
 1020MOL0     H37669   3.831   0.349   8.894  1.5251  0.6351 -0.8118
 1020MOL0     H37670   3.888   0.526   9.069  1.7203  2.6867 -0.9782
 1020MOL0     H37671   3.998   0.524   8.947 -0.6968  1.3423  2.0328
 1020MOL0     H37672   4.113   0.326   9.092  3.2672  0.8149  2.3532
 1020MOL0     H37673   4.050   0.431   9.221 -0.6877  2.7788 -0.3414
 1020MOL0     H37674   4.289   0.479   9.139 -0.0400  0.9529  0.1987
 1020MOL0     H37675   4.224   0.547   8.990 -2.4843  2.7727  0.3851
 1020MOL0     H37676   4.126   0.638   9.260 -0.2551 -1.5318  0.0582
 1020MOL0     H37677   4.105   0.715   9.097 -1.0715  1.5277  1.4897
 1020MOL0     H37678   4.385   0.667   9.214 -1.4459  0.3797  3.6336
 1020MOL0     H37679   4.327   0.762   9.074 -0.6295  0.9329 -0.1435
 1020MOL0     H37680   3.401   0.414   9.035 -0.7423  0.6298 -1.7861
 1020MOL0     H37681   3.184   0.362   8.961  1.9973 -0.3510 -2.8884
 1020MOL0     H37682   2.871   0.239   8.635 -0.8690  0.1835 -0.4840
 1020MOL0     H37683   2.646   0.213   8.590  0.9478  1.5074  0.6977
 1020MOL0     H37684   1.082   0.254   9.486  2.9656  2.8537 -1.4193
 1020MOL0     H37685   0.830   0.252   9.513 -1.6713 -0.2738  0.9759
 1020MOL0     H37686   0.571   0.381  10.007 -0.4860 -1.0443 -0.7060
 1020MOL0     H37687   0.349   0.332  10.094 -0.4661  0.5054  0.0041
 1020MOL0     H37688   0.119   0.291  10.119  1.1064 -0.6407 -0.6112
 1020MOL0     H37689   0.205   0.138  10.087  3.9025  3.4071 -1.3280
 1020MOL0     H37690  -0.008   0.100  10.183 -1.3757 -1.3109 -1.2155
 1020MOL0     H37691   0.012   0.018  10.030  1.5605  0.3294 -1.0589
 1020MOL0     H37692  -0.157   0.177   9.935 -1.4686  1.3479  0.5286
 1020MOL0     H37693  -0.113   0.293  10.058  1.4423 -0.8359 -0.4495
 1020MOL0     H37694  -0.247   0.034  10.127  0.9612  0.0400 -0.9368
 1020MOL0     H37695  -0.277   0.196  10.209  2.5445 -0.1650  1.1151
 1020MOL0     H37696  -0.585   0.173   9.924 -0.6683  3.9843  1.9864
 1020MOL0     H37697   0.211   0.268   9.693 -1.2842  0.6658  0.2847
 1020MOL0     H37698   0.449   0.463   9.523  0.3724 -0.0135 -0.1944
 1020MOL0     H37699   0.501   0.297   9.508 -2.0007 -2.5231 -0.2897
 1020MOL0     H37700   0.324   0.343   9.521  0.8199 -2.9419  0.2718
 1021MOL0     O37701   5.697   7.032   2.611 -0.9074  0.1579 -0.7106
 1021MOL0     C37702   5.753   7.082   2.513 -0.1422  0.8725  0.5640
 1021MOL0     O37703   5.700   7.085   2.390  0.4756 -0.1270  0.3700
 1021MOL0     C37704   5.561   7.061   2.379 -0.5482  0.5184  1.2838
 1021MOL0     C37705   5.474   7.142   2.450 -0.3831  0.0482  0.4734
 1021MOL0     C37706   5.341   7.128   2.447 -0.6683 -0.0153  0.0291
 1021MOL0     C37707   5.284   7.011   2.391  0.4077  0.4929  0.3315
 1021MOL0     O37708   5.146   7.011   2.393  0.2952  0.5813 -0.4690
 1021MOL0     C37709   5.078   6.899   2.330  0.3913  0.4205  0.2592
 1021MOL0     C37710   4.932   6.918   2.362 -0.3541  0.2641 -0.0176
 1021MOL0     C37711   4.853   6.808   2.284 -0.3721 -0.3883 -0.1802
 1021MOL0     C37712   4.705   6.825   2.321  0.3202  0.1409  0.3500
 1021MOL0     C37713   4.636   6.699   2.276 -0.3479 -0.5534 -0.2002
 1021MOL0     C37714   4.491   6.681   2.334  0.6277  0.2907 -0.7959
 1021MOL0     C37715   4.494   6.681   2.487  0.0253  0.0844 -0.4604
 1021MOL0     C37716   4.431   6.811   2.546 -0.1710  0.1932 -0.4895
 1021MOL0     N37717   4.447   6.824   2.695  0.0670  0.5371  0.6810
 1021MOL0     C37718   4.354   6.781   2.790 -0.2213 -0.3013  0.2087
 1021MOL0     C37719   4.413   6.817   2.910 -0.8864 -0.2139  0.4159
 1021MOL0     C37720   4.356   6.792   3.053 -0.1599 -0.7736  0.2085
 1021MOL0     C37721   4.296   6.651   3.063 -0.4428 -0.2317  0.4694
 1021MOL0     C37722   4.400   6.547   3.023 -0.2236 -1.0264  0.2615
 1021MOL0     C37723   4.538   6.559   3.090 -0.1585 -0.1306  0.1010
 1021MOL0     O37724   4.596   6.434   3.075  0.0693  0.1285 -0.0952
 1021MOL0     C37725   4.709   6.416   3.151  0.4481  0.4773 -0.0036
 1021MOL0     C37726   4.770   6.287   3.134 -0.6498 -0.6318 -0.2469
 1021MOL0     C37727   4.894   6.263   3.203  0.3797 -0.3311  0.5241
 1021MOL0     C37728   4.954   6.355   3.295  0.6473  0.3107 -0.4044
 1021MOL0     C37729   5.066   6.320   3.385  0.1827  0.4046  0.2470
 1021MOL0     O37730   5.103   6.189   3.398  0.5325 -0.0453  0.5601
 1021MOL0     C37731   5.191   6.149   3.491  0.0335 -0.9162  0.3714
 1021MOL0     C37732   5.215   6.200   3.620  0.6389 -0.4959 -0.0604
 1021MOL0     C37733   5.328   6.171   3.688 -0.8050 -0.1270  0.6114
 1021MOL0     C37734   5.415   6.072   3.633  0.8458 -0.1631 -0.2741
 1021MOL0     O37735   5.529   6.049   3.709  0.3472  0.1171 -0.8798
 1021MOL0     C37736   5.636   6.137   3.701  0.7751 -0.7212 -0.2577
 1021MOL0     C37737   5.771   6.079   3.733  0.4307 -0.2177  0.0530
 1021MOL0     C37738   5.776   5.924   3.711 -0.0179 -0.0562 -0.7309
 1021MOL0     C37739   5.922   5.877   3.699 -0.3266 -0.2706 -0.0991
 1021MOL0     C37740   5.929   5.725   3.692  0.0972  0.4723  0.8104
 1021MOL0     C37741   6.067   5.668   3.691  0.0386  0.2572 -0.4715
 1021MOL0     C37742   6.171   5.737   3.787  0.0542  0.3209  0.1122
 1021MOL0     C37743   6.168   5.680   3.932 -0.5103  1.1280  0.1583
 1021MOL0    Cl37744   6.005   5.686   4.008 -0.0920 -0.2035  0.0922
 1021MOL0     C37745   5.390   6.009   3.507  0.1542 -0.2878 -0.1840
 1021MOL0     C37746   5.289   6.061   3.432 -0.2236 -0.7442 -0.6073
 1021MOL0     O37747   5.123   6.415   3.433 -0.5359  0.4860  0.0051
 1021MOL0     C37748   4.890   6.479   3.307  0.1376 -0.2525  0.4565
 1021MOL0     C37749   4.775   6.512   3.230  0.7828 -0.3440  0.7872
 1021MOL0     N37750   4.535   6.869   2.901 -0.9764  0.4273 -0.7864
 1021MOL0     N37751   4.547   6.885   2.768  0.4880  0.3750 -0.9687
 1021MOL0     C37752   5.366   6.920   2.321 -0.1495  0.0329  0.0491
 1021MOL0     C37753   5.504   6.950   2.324  0.1061  0.3903  0.9276
 1021MOL0     C37754   5.897   7.121   2.525 -0.0258  0.8629  0.1623
 1021MOL0     C37755   5.947   7.170   2.648  0.9541  1.0653 -0.2843
 1021MOL0     C37756   6.080   7.201   2.672  0.4380 -0.6084  0.4488
 1021MOL0     C37757   6.170   7.195   2.568 -1.2048 -0.8062 -0.1235
 1021MOL0     O37758   6.306   7.221   2.599  0.2648  0.4742 -0.0850
 1021MOL0     C37759   6.407   7.206   2.500 -0.8006 -0.4473  0.1042
 1021MOL0     C37760   6.524   7.314   2.524 -0.0514  0.4876 -0.5730
 1021MOL0     C37761   6.598   7.295   2.656  0.3695 -0.0007  0.0845
 1021MOL0     C37762   6.659   7.433   2.709  0.3593 -0.7875  0.1917
 1021MOL0     C37763   6.772   7.473   2.621  0.3253  0.4008 -0.4402
 1021MOL0     C37764   6.869   7.491   2.548 -0.0752 -0.2408 -0.0946
 1021MOL0     C37765   6.123   7.159   2.444  0.6241  0.1523 -0.0947
 1021MOL0     C37766   5.991   7.120   2.422  0.6341  0.3636 -0.7365
 1021MOL0     C37767   5.956   7.067   2.273  0.2403 -0.7475  0.6064
 1021MOL0     H37768   5.518   7.231   2.493  2.7812 -1.2901  0.2468
 1021MOL0     H37769   5.276   7.205   2.489 -2.9789 -0.0660 -3.1315
 1021MOL0     H37770   5.096   6.888   2.223 -0.5155 -0.7207  0.2039
 1021MOL0     H37771   5.114   6.805   2.372  3.3664  0.7570 -1.3151
 1021MOL0     H37772   4.911   7.020   2.327 -2.2587 -0.0569  0.0915
 1021MOL0     H37773   4.903   6.913   2.468 -0.7240 -0.4897 -0.1529
 1021MOL0     H37774   4.888   6.710   2.317 -1.0931 -0.7604 -0.4868
 1021MOL0     H37775   4.859   6.819   2.175  1.2875  0.7116 -0.0042
 1021MOL0     H37776   4.701   6.832   2.430  0.5521 -2.9524  0.6488
 1021MOL0     H37777   4.656   6.908   2.271 -1.3300 -0.8608  0.2426
 1021MOL0     H37778   4.618   6.711   2.168 -0.7173  2.1117  0.0987
 1021MOL0     H37779   4.693   6.608   2.294 -2.6124 -2.3543 -1.5175
 1021MOL0     H37780   4.426   6.762   2.300 -3.9063 -2.2271  1.0660
 1021MOL0     H37781   4.449   6.589   2.292  0.0952 -0.0364  0.4365
 1021MOL0     H37782   4.595   6.681   2.529 -0.0959  4.4817  0.3339
 1021MOL0     H37783   4.442   6.596   2.530 -0.1242  0.8447  0.9316
 1021MOL0     H37784   4.467   6.906   2.506 -2.4563  0.6948 -1.5144
 1021MOL0     H37785   4.322   6.801   2.534 -0.3898 -0.5626  1.5685
 1021MOL0     H37786   4.255   6.741   2.772 -0.5225  0.8853 -0.9644
 1021MOL0     H37787   4.429   6.818   3.129 -0.7913 -0.2705  0.6541
 1021MOL0     H37788   4.281   6.870   3.072 -2.7088 -2.9344 -0.3414
 1021MOL0     H37789   4.264   6.633   3.166 -1.7396  0.7129  0.2697
 1021MOL0     H37790   4.205   6.641   3.002  0.5924  1.6828 -1.5504
 1021MOL0     H37791   4.411   6.538   2.914  2.8500 -1.3403  0.5337
 1021MOL0     H37792   4.353   6.457   3.063  3.0071 -2.4737  1.0872
 1021MOL0     H37793   4.536   6.599   3.192  2.3668 -0.4017  0.3093
 1021MOL0     H37794   4.577   6.638   3.025 -2.3426  1.0509  0.1082
 1021MOL0     H37795   4.721   6.204   3.083  0.5775 -1.6205  0.1454
 1021MOL0     H37796   4.943   6.166   3.191 -0.4847 -0.9246  1.6495
 1021MOL0     H37797   5.156   6.282   3.662  1.2139  1.2866 -2.5116
 1021MOL0     H37798   5.344   6.209   3.788 -2.1274 -2.6412  1.8630
 1021MOL0     H37799   5.630   6.181   3.601 -3.4694 -0.0276  0.1263
 1021MOL0     H37800   5.621   6.228   3.760  0.4212  2.1546 -4.2774
 1021MOL0     H37801   5.855   6.117   3.674 -1.4119  1.5549 -1.5392
 1021MOL0     H37802   5.796   6.107   3.836  2.4503  2.0358 -0.9483
 1021MOL0     H37803   5.724   5.884   3.799 -0.8991  3.2800  0.4549
 1021MOL0     H37804   5.726   5.900   3.617  0.1807  1.9055 -1.3863
 1021MOL0     H37805   5.966   5.902   3.796 -1.3742  0.9383  0.0897
 1021MOL0     H37806   5.976   5.932   3.622  0.4405  0.8236  1.1739
 1021MOL0     H37807   5.872   5.690   3.605  0.7715 -0.3886  0.7069
 1021MOL0     H37808   5.872   5.689   3.777 -3.4318  2.5218 -0.4658
 1021MOL0     H37809   6.057   5.560   3.710 -1.7718  0.3819 -0.5668
 1021MOL0     H37810   6.104   5.667   3.589  1.6617 -1.5647  0.0692
 1021MOL0     H37811   6.166   5.846   3.785 -1.7594  0.3502  2.0671
 1021MOL0     H37812   6.275   5.710   3.772  0.4283 -0.5672  3.4894
 1021MOL0     H37813   6.201   5.576   3.922  0.8150  1.6510 -1.1127
 1021MOL0     H37814   6.237   5.731   3.999 -1.0770 -1.6455  3.1061
 1021MOL0     H37815   5.458   5.937   3.464  1.7381  1.9349 -1.5568
 1021MOL0     H37816   5.284   6.020   3.332  2.0328 -6.1728  1.1395
 1021MOL0     H37817   4.925   6.559   3.370  3.8537 -2.7417  1.9158
 1021MOL0     H37818   4.743   6.615   3.239  3.1051  0.4010  1.0381
 1021MOL0     H37819   5.332   6.828   2.275 -2.3147 -0.2641  2.0473
 1021MOL0     H37820   5.572   6.883   2.274  2.4295  3.4690 -0.3249
 1021MOL0     H37821   5.879   7.170   2.732 -0.3523  0.9307 -1.3086
 1021MOL0     H37822   6.096   7.238   2.772  0.9342 -0.5184  0.3382
 1021MOL0     H37823   6.370   7.226   2.399 -0.6420  0.1274  0.1562
 1021MOL0     H37824   6.454   7.107   2.495  3.5036  1.3867 -0.1694
 1021MOL0     H37825   6.468   7.407   2.529 -1.6695 -0.4295 -0.9165
 1021MOL0     H37826   6.600   7.302   2.446  0.3192 -0.0434 -0.1460
 1021MOL0     H37827   6.676   7.218   2.660  1.1707  0.8170  0.4338
 1021MOL0     H37828   6.525   7.251   2.724  1.0881 -1.9745 -0.3525
 1021MOL0     H37829   6.588   7.512   2.737  0.9443 -0.6913  1.5185
 1021MOL0     H37830   6.712   7.408   2.802 -0.9498 -1.7729  0.7049
 1021MOL0     H37831   6.946   7.492   2.474 -1.3670 -0.5088 -1.5091
 1021MOL0     H37832   6.195   7.137   2.365  0.2865 -0.1022 -0.3348
 1021MOL0     H37833   6.052   7.055   2.222  0.1352  0.6893  0.0240
 1021MOL0     H37834   5.901   6.974   2.284  0.2082 -0.6504  1.2710
 1021MOL0     H37835   5.901   7.143   2.217 -1.6642 -1.6935  1.1112
 1022MOL0     O37836   1.551   0.156   5.261  0.5331  0.0041  0.1033
 1022MOL0     C37837   1.448   0.201   5.311 -0.2034 -0.3191 -0.0823
 1022MOL0     O37838   1.436   0.333   5.357  0.3696  0.2741 -0.1461
 1022MOL0     C37839   1.544   0.403   5.404 -0.2175  0.4968  0.0132
 1022MOL0     C37840   1.668   0.349   5.443 -0.3713 -0.2577  0.3013
 1022MOL0     C37841   1.769   0.429   5.500 -0.1837  0.0120 -0.4691
 1022MOL0     C37842   1.753   0.565   5.510  0.4321 -0.5748  0.0412
 1022MOL0     O37843   1.853   0.656   5.556  0.4600  0.5659 -0.6379
 1022MOL0     C37844   1.995   0.627   5.555 -0.2556  0.7047  0.1929
 1022MOL0     C37845   2.060   0.672   5.424 -0.0536 -0.0493  0.4837
 1022MOL0     C37846   2.186   0.580   5.408  0.4450  0.0224  0.3961
 1022MOL0     C37847   2.240   0.585   5.268  1.0157 -0.2737 -0.1090
 1022MOL0     C37848   2.360   0.487   5.257  0.4211 -0.3833  0.6320
 1022MOL0     C37849   2.426   0.517   5.122 -0.8898  0.6152  0.2484
 1022MOL0     C37850   2.542   0.415   5.118  0.0787  0.3882 -0.7536
 1022MOL0     C37851   2.631   0.423   4.992  0.4624  0.1246 -0.1829
 1022MOL0     N37852   2.733   0.322   4.984 -0.5204 -0.0643 -0.1057
 1022MOL0     C37853   2.856   0.336   5.043  0.5963  0.1632  0.0880
 1022MOL0     C37854   2.921   0.233   4.983 -0.6808  0.5519  0.0491
 1022MOL0     C37855   3.071   0.209   4.997  0.7851  0.4574 -1.1833
 1022MOL0     C37856   3.126   0.277   4.866 -1.1668  0.0364  0.1661
 1022MOL0     C37857   3.271   0.240   4.832  0.2996 -0.4752  0.2702
 1022MOL0     C37858   3.360   0.339   4.891 -0.3865  0.8268  0.1046
 1022MOL0     O37859   3.485   0.276   4.905  0.9967 -0.5063  0.0077
 1022MOL0     C37860   3.594   0.353   4.924 -0.1552  0.0557 -0.2112
 1022MOL0     C37861   3.598   0.489   4.957  0.8002  0.1974  0.6356
 1022MOL0     C37862   3.728   0.536   4.984 -0.0602  0.0503 -0.2966
 1022MOL0     C37863   3.845   0.456   5.001 -0.3628 -0.3868 -0.9367
 1022MOL0     C37864   3.983   0.512   5.033 -0.2335 -0.1011 -0.0814
 1022MOL0     O37865   4.085   0.448   4.977 -0.5564  0.6771  0.5482
 1022MOL0     C37866   4.215   0.496   4.994  0.1070 -0.2641 -0.9621
 1022MOL0     C37867   4.294   0.526   4.877 -0.7690 -0.5872 -0.8009
 1022MOL0     C37868   4.423   0.587   4.894  0.3587  0.5789 -0.0442
 1022MOL0     C37869   4.478   0.607   5.022 -0.1407  0.2479 -0.4979
 1022MOL0     O37870   4.605   0.647   5.050 -0.0599 -0.4211  0.5146
 1022MOL0     C37871   4.702   0.568   4.980  0.5818  0.2956 -0.7091
 1022MOL0     C37872   4.842   0.597   5.029  0.0078 -0.9024  0.2879
 1022MOL0     C37873   4.897   0.724   4.965  0.1688  0.1525 -0.5428
 1022MOL0     C37874   5.053   0.759   4.984  1.3255  0.5913  0.2561
 1022MOL0     C37875   5.087   0.906   4.953 -1.0384 -0.2024 -0.1258
 1022MOL0     C37876   5.033   0.971   4.827  0.6304 -0.3314  0.3180
 1022MOL0     C37877   5.086   1.122   4.818  0.2607 -0.0099 -0.3572
 1022MOL0     C37878   5.063   1.197   4.691  0.0470  0.3052 -0.7912
 1022MOL0    Cl37879   4.890   1.224   4.646  0.1055  0.1371  0.2826
 1022MOL0     C37880   4.390   0.590   5.124 -0.5722 -0.0687 -0.0430
 1022MOL0     C37881   4.265   0.542   5.118 -0.5449 -0.0322 -0.3127
 1022MOL0     O37882   3.984   0.612   5.100 -0.1692  0.0959 -0.2805
 1022MOL0     C37883   3.839   0.321   4.962  0.4210 -0.2414 -0.5417
 1022MOL0     C37884   3.711   0.270   4.914 -1.1764 -0.8388 -0.3685
 1022MOL0     N37885   2.833   0.153   4.909  0.0011 -0.9334  0.4788
 1022MOL0     N37886   2.721   0.207   4.913  0.2736 -0.3573 -0.0158
 1022MOL0     C37887   1.625   0.614   5.478  0.9297 -0.6306  0.4605
 1022MOL0     C37888   1.526   0.538   5.426  0.7067 -0.1765 -0.0574
 1022MOL0     C37889   1.329   0.116   5.319  0.5371 -0.5562  0.1417
 1022MOL0     C37890   1.210   0.187   5.361  1.2293 -0.5152  0.6286
 1022MOL0     C37891   1.088   0.135   5.383 -1.0921  0.0035  0.9743
 1022MOL0     C37892   1.068  -0.007   5.341 -0.1310 -0.9415  0.1370
 1022MOL0     O37893   0.954  -0.085   5.352  0.2222 -0.0338 -0.3978
 1022MOL0     C37894   0.839  -0.021   5.395  0.8529 -0.0737 -0.4762
 1022MOL0     C37895   0.732  -0.115   5.453  0.1657  0.9574 -0.5941
 1022MOL0     C37896   0.617  -0.055   5.531  0.8326  0.7240  0.5357
 1022MOL0     C37897   0.496  -0.161   5.558 -0.4428  0.4209  0.7386
 1022MOL0     C37898   0.379  -0.075   5.584 -0.5482 -0.6496 -0.3609
 1022MOL0     C37899   0.279  -0.014   5.602 -0.1040 -0.9555 -0.3590
 1022MOL0     C37900   1.180  -0.075   5.283 -0.7102 -0.5589  0.4083
 1022MOL0     C37901   1.308  -0.011   5.267  0.2154  0.8070  0.4090
 1022MOL0     C37902   1.417  -0.102   5.210  0.4352  0.5484 -0.4733
 1022MOL0     H37903   1.697   0.246   5.425 -1.1405 -0.5517  0.7117
 1022MOL0     H37904   1.868   0.387   5.514 -0.9084 -1.1997  1.4538
 1022MOL0     H37905   2.033   0.675   5.646 -2.5626  2.2696  0.4039
 1022MOL0     H37906   2.002   0.520   5.576  0.3139  0.5183 -0.9234
 1022MOL0     H37907   2.091   0.776   5.433  2.9983 -0.9745  1.9672
 1022MOL0     H37908   1.990   0.656   5.341  0.3758 -2.7010  0.5428
 1022MOL0     H37909   2.161   0.476   5.428 -3.1901  1.2221  3.0812
 1022MOL0     H37910   2.262   0.605   5.483 -0.8563 -0.7567  2.0420
 1022MOL0     H37911   2.166   0.576   5.188 -0.2438  0.0816  0.9751
 1022MOL0     H37912   2.291   0.681   5.259 -1.4873  1.2285  0.7058
 1022MOL0     H37913   2.442   0.501   5.329  1.4767  0.9374 -0.7374
 1022MOL0     H37914   2.320   0.386   5.249 -1.8051  0.5370 -0.9508
 1022MOL0     H37915   2.359   0.499   5.037  2.3451 -0.7091 -2.2525
 1022MOL0     H37916   2.471   0.617   5.123  2.7667 -0.8719  0.9531
 1022MOL0     H37917   2.502   0.314   5.127 -1.1661  0.8068 -1.3975
 1022MOL0     H37918   2.613   0.435   5.199 -0.0721 -0.4578 -0.4124
 1022MOL0     H37919   2.557   0.424   4.912  1.1379  0.1418 -0.8149
 1022MOL0     H37920   2.679   0.521   4.997 -2.8705  1.8397  1.3184
 1022MOL0     H37921   2.895   0.416   5.104 -0.2504  1.8449 -1.4845
 1022MOL0     H37922   3.113   0.253   5.088 -0.1970 -2.4657  0.8284
 1022MOL0     H37923   3.096   0.104   5.014 -0.3053  0.7767  4.0663
 1022MOL0     H37924   3.062   0.257   4.780 -0.3204  0.6565 -0.6192
 1022MOL0     H37925   3.114   0.386   4.878 -0.8900  0.0549  0.2756
 1022MOL0     H37926   3.290   0.235   4.725  0.4344  0.6693  0.2239
 1022MOL0     H37927   3.289   0.137   4.865  1.6996 -0.6032 -0.8236
 1022MOL0     H37928   3.318   0.375   4.985 -2.4532  1.0433 -0.8558
 1022MOL0     H37929   3.366   0.425   4.824  1.4956  0.2899 -0.4948
 1022MOL0     H37930   3.506   0.546   4.948  1.8363  2.0185  1.0202
 1022MOL0     H37931   3.742   0.641   5.005  2.4411 -0.3344  0.3092
 1022MOL0     H37932   4.257   0.492   4.781 -2.1259 -0.3969 -0.3718
 1022MOL0     H37933   4.487   0.615   4.811  2.7265  0.1267  1.5070
 1022MOL0     H37934   4.684   0.461   4.991  0.9096  0.2061 -1.0368
 1022MOL0     H37935   4.700   0.586   4.872  1.5052 -0.9196 -0.9454
 1022MOL0     H37936   4.830   0.621   5.135  0.8180 -1.7595  0.5815
 1022MOL0     H37937   4.903   0.507   5.019 -0.1948 -1.1355  1.1524
 1022MOL0     H37938   4.859   0.729   4.862  2.4808 -2.0548 -1.5852
 1022MOL0     H37939   4.849   0.805   5.021  1.7670  0.1002  0.9881
 1022MOL0     H37940   5.097   0.690   4.911 -2.5831  0.4807 -2.2572
 1022MOL0     H37941   5.080   0.733   5.087 -2.1650 -4.9292  0.1861
 1022MOL0     H37942   5.196   0.913   4.953 -1.1337  2.0682  0.5218
 1022MOL0     H37943   5.056   0.972   5.035 -1.1238 -2.2022  1.5297
 1022MOL0     H37944   5.077   0.915   4.744  0.7211  1.7774 -1.1311
 1022MOL0     H37945   4.924   0.971   4.834  0.6957  0.3611  1.6726
 1022MOL0     H37946   5.187   1.124   4.858 -0.9967 -0.3216  3.2259
 1022MOL0     H37947   5.036   1.179   4.897  0.0094  1.3423 -1.4622
 1022MOL0     H37948   5.113   1.294   4.695  0.3681  0.0960  0.5729
 1022MOL0     H37949   5.116   1.135   4.618  2.0324 -1.2244  1.7833
 1022MOL0     H37950   4.431   0.617   5.220 -2.2161  0.4615  0.5365
 1022MOL0     H37951   4.209   0.515   5.206 -1.4811  1.0479 -0.5492
 1022MOL0     H37952   3.922   0.252   4.956  0.1550 -0.6107 -0.0515
 1022MOL0     H37953   3.691   0.170   4.877  0.3956 -1.3141 -0.0251
 1022MOL0     H37954   1.610   0.719   5.501 -0.8330 -0.0430 -2.8168
 1022MOL0     H37955   1.430   0.588   5.419  1.7377  1.7424 -1.4714
 1022MOL0     H37956   1.218   0.294   5.378 -5.3979  0.3891  0.4837
 1022MOL0     H37957   1.004   0.203   5.389 -1.1703  0.0043  0.0179
 1022MOL0     H37958   0.785   0.040   5.323  0.6411  2.8131  1.9527
 1022MOL0     H37959   0.872   0.051   5.470  0.4984  0.1056 -0.4921
 1022MOL0     H37960   0.777  -0.191   5.517 -1.5182  1.1214  0.8660
 1022MOL0     H37961   0.690  -0.169   5.368 -0.4346  2.3760 -1.2283
 1022MOL0     H37962   0.578   0.018   5.459 -0.7952 -1.4425 -0.9174
 1022MOL0     H37963   0.650   0.008   5.613  0.6955  2.8405 -0.9556
 1022MOL0     H37964   0.485  -0.209   5.460 -0.1034  2.9008 -0.5761
 1022MOL0     H37965   0.526  -0.241   5.626 -0.0053 -1.3326 -1.4103
 1022MOL0     H37966   0.179   0.023   5.594 -0.2360 -0.5313  2.4025
 1022MOL0     H37967   1.175  -0.180   5.257 -4.3899  0.0339 -2.0717
 1022MOL0     H37968   1.409  -0.207   5.240  1.7157  0.6292  0.2209
 1022MOL0     H37969   1.401  -0.089   5.103 -1.9388  1.9943 -0.0366
 1022MOL0     H37970   1.515  -0.061   5.237  0.1133  0.6993  0.5290
 1023MOL0     O37971   7.864   1.883   3.500 -0.3094 -0.1435  0.6057
 1023MOL0     C37972   7.766   1.813   3.496  0.7742 -0.1240 -0.2820
 1023MOL0     O37973   7.772   1.681   3.463  0.0429  0.3162  0.4447
 1023MOL0     C37974   7.890   1.618   3.437 -0.0112  0.4076  0.5883
 1023MOL0     C37975   7.903   1.519   3.338 -0.9109  0.0289  0.5468
 1023MOL0     C37976   8.021   1.438   3.329 -0.0591 -0.1518  0.7721
 1023MOL0     C37977   8.134   1.464   3.409  0.6339 -1.4317 -0.3547
 1023MOL0     O37978   8.246   1.391   3.369  0.2139 -0.1376 -0.0162
 1023MOL0     C37979   8.367   1.416   3.438 -0.0240 -0.5801 -0.0042
 1023MOL0     C37980   8.379   1.349   3.578  0.6458 -0.2524 -1.1292
 1023MOL0     C37981   8.475   1.226   3.581 -0.3599 -0.8397  0.9512
 1023MOL0     C37982   8.458   1.135   3.693 -0.0304  0.1018 -0.8838
 1023MOL0     C37983   8.553   1.011   3.696 -0.0936  0.5055 -0.2525
 1023MOL0     C37984   8.685   1.047   3.744  0.0628  0.0963  0.6226
 1023MOL0     C37985   8.800   0.938   3.707  0.2727 -0.3930 -0.7990
 1023MOL0     C37986   8.865   0.950   3.569  0.5714 -0.6016 -0.3323
 1023MOL0     N37987   8.922   1.081   3.533 -0.1043  0.2811  0.6206
 1023MOL0     C37988   9.002   1.157   3.617 -0.4633 -0.1182 -0.1781
 1023MOL0     C37989   9.033   1.265   3.529  0.9796  0.6125  1.0507
 1023MOL0     C37990   9.119   1.389   3.539  0.8130  0.1375  0.8588
 1023MOL0     C37991   9.268   1.378   3.582 -0.8644 -0.9013 -0.5101
 1023MOL0     C37992   9.350   1.291   3.483 -0.6701  0.0718  0.1520
 1023MOL0     C37993   9.483   1.248   3.540 -0.2482  0.2953  0.2138
 1023MOL0     O37994   9.546   1.372   3.571 -0.0452 -0.1636 -0.7660
 1023MOL0     C37995   9.673   1.378   3.616 -0.7812  0.5259 -0.1248
 1023MOL0     C37996   9.761   1.264   3.630  0.5218 -0.9918  0.1468
 1023MOL0     C37997   9.888   1.278   3.689  0.5143 -0.5692 -0.2645
 1023MOL0     C37998   9.924   1.408   3.741  0.2381 -1.0351 -0.6360
 1023MOL0     C37999  10.059   1.422   3.808  0.7807 -0.0121  0.1112
 1023MOL0     O38000  10.104   1.310   3.869 -0.6251  0.8786 -0.1221
 1023MOL0     C38001  10.223   1.298   3.940  0.4762 -1.0870  0.1240
 1023MOL0     C38002  10.348   1.339   3.887 -0.6729 -0.2054 -0.0042
 1023MOL0     C38003  10.467   1.314   3.959 -0.6170 -0.2903 -0.1255
 1023MOL0     C38004  10.465   1.242   4.079  0.3106 -0.1500  0.1058
 1023MOL0     O38005  10.575   1.232   4.155 -0.7859 -0.0488 -0.2564
 1023MOL0     C38006  10.673   1.141   4.117  1.0181  0.7116  0.0089
 1023MOL0     C38007  10.632   0.997   4.131 -0.3419 -0.2287  0.1417
 1023MOL0     C38008  10.760   0.918   4.136 -0.3038 -1.2103 -0.1355
 1023MOL0     C38009  10.713   0.771   4.138 -0.4305  0.2497  0.7718
 1023MOL0     C38010  10.817   0.676   4.099 -0.1691  0.6443  0.4075
 1023MOL0     C38011  10.947   0.686   4.173  0.6183 -0.4319 -0.0706
 1023MOL0     C38012  11.046   0.579   4.147  0.1298  1.0174 -0.0244
 1023MOL0     C38013  11.101   0.564   4.000 -0.5453  0.2905 -0.1608
 1023MOL0    Cl38014  11.204   0.709   3.955  0.0641 -0.1644  0.3521
 1023MOL0     C38015  10.343   1.204   4.128 -1.1339  0.2555 -0.0076
 1023MOL0     C38016  10.226   1.239   4.066  0.2281 -0.1282 -0.3204
 1023MOL0     O38017  10.118   1.530   3.809  0.0352 -0.2882 -1.0290
 1023MOL0     C38018   9.835   1.522   3.729  0.2973  0.2367  0.3606
 1023MOL0     C38019   9.704   1.503   3.678 -0.9235  0.1578 -0.5780
 1023MOL0     N38020   8.963   1.251   3.409 -0.2566 -0.2884  0.5276
 1023MOL0     N38021   8.894   1.145   3.415  0.4138 -0.8926  0.6767
 1023MOL0     C38022   8.111   1.564   3.514 -0.6011  0.0952 -0.4477
 1023MOL0     C38023   7.990   1.635   3.530  0.0495  0.4741  0.6010
 1023MOL0     C38024   7.642   1.878   3.515  0.2412 -0.3845  0.3716
 1023MOL0     C38025   7.531   1.803   3.549 -0.5319  0.1031  0.2574
 1023MOL0     C38026   7.411   1.858   3.559 -0.1714  0.3196 -0.1455
 1023MOL0     C38027   7.385   1.992   3.537 -0.0219 -0.8828  0.5017
 1023MOL0     O38028   7.258   2.045   3.558  0.2813  0.3206 -0.8016
 1023MOL0     C38029   7.231   2.096   3.690 -0.6681 -0.1133 -0.6761
 1023MOL0     C38030   7.080   2.147   3.697 -0.7259 -0.0560 -0.6491
 1023MOL0     C38031   6.980   2.034   3.675  0.4759 -0.0856  0.7587
 1023MOL0     C38032   6.923   2.037   3.531 -0.5899  0.7827  0.0914
 1023MOL0     C38033   6.876   2.165   3.482  0.3090  0.4462 -0.6405
 1023MOL0     C38034   6.833   2.265   3.430  0.4063  0.2716  0.0977
 1023MOL0     C38035   7.494   2.068   3.507 -0.7185 -0.1746 -0.7836
 1023MOL0     C38036   7.625   2.015   3.484  0.6556  0.6654 -0.1646
 1023MOL0     C38037   7.722   2.119   3.459  0.6780 -0.1051 -0.1363
 1023MOL0     H38038   7.821   1.499   3.270 -2.3296  1.6999  1.6879
 1023MOL0     H38039   8.020   1.360   3.254 -2.3448  0.0567  0.5059
 1023MOL0     H38040   8.451   1.385   3.375 -0.5985 -3.0319  0.3423
 1023MOL0     H38041   8.383   1.522   3.459  1.5887  0.6423 -5.7377
 1023MOL0     H38042   8.281   1.307   3.601  0.5736  1.8057  3.4906
 1023MOL0     H38043   8.407   1.422   3.655  0.8415 -1.9439  0.4817
 1023MOL0     H38044   8.571   1.277   3.569 -0.4200 -0.8989  0.1577
 1023MOL0     H38045   8.455   1.174   3.487  1.6673  1.9886 -1.2356
 1023MOL0     H38046   8.463   1.198   3.782 -1.8776  0.6506 -1.1224
 1023MOL0     H38047   8.366   1.076   3.693  0.0320 -0.0099  0.2818
 1023MOL0     H38048   8.500   0.939   3.760  2.6009 -2.0382 -0.6286
 1023MOL0     H38049   8.559   0.959   3.600  1.0505  1.5948 -0.8037
 1023MOL0     H38050   8.710   1.147   3.707 -2.1013  0.6018  0.4005
 1023MOL0     H38051   8.671   1.060   3.852 -1.1530  1.0500  0.3686
 1023MOL0     H38052   8.771   0.833   3.718 -1.8524 -0.0414 -2.4005
 1023MOL0     H38053   8.876   0.956   3.783  2.0090 -0.9523 -2.3279
 1023MOL0     H38054   8.951   0.883   3.571 -0.1803 -1.5966 -0.2123
 1023MOL0     H38055   8.792   0.916   3.496  0.8031  0.4018 -1.0555
 1023MOL0     H38056   9.039   1.131   3.716  0.8325 -3.2480 -1.3792
 1023MOL0     H38057   9.122   1.440   3.441  5.9434 -2.5527 -0.7282
 1023MOL0     H38058   9.076   1.457   3.614 -2.4193  1.0429 -1.5433
 1023MOL0     H38059   9.306   1.479   3.601  0.4048 -1.9293  3.5151
 1023MOL0     H38060   9.284   1.335   3.682  0.4502 -2.3063 -1.2894
 1023MOL0     H38061   9.363   1.361   3.400  0.4000 -0.4943 -0.1712
 1023MOL0     H38062   9.288   1.212   3.441 -1.8906  1.7128 -1.2945
 1023MOL0     H38063   9.534   1.202   3.455 -0.4890 -0.5010  0.4820
 1023MOL0     H38064   9.473   1.183   3.627  1.7065 -1.2593 -0.6388
 1023MOL0     H38065   9.736   1.165   3.593  0.0374 -0.9237  0.2873
 1023MOL0     H38066   9.954   1.192   3.698 -1.7787 -2.3283  0.5795
 1023MOL0     H38067  10.345   1.399   3.796 -2.0237 -1.1160 -0.6048
 1023MOL0     H38068  10.558   1.354   3.916  0.4511 -4.1659 -1.9013
 1023MOL0     H38069  10.689   1.150   4.009  0.2219 -3.3777 -0.6364
 1023MOL0     H38070  10.752   1.183   4.179 -0.0608  0.1152  1.8530
 1023MOL0     H38071  10.564   0.992   4.216  0.2580  1.3086  0.7479
 1023MOL0     H38072  10.577   0.968   4.041  0.4885 -0.6863 -0.2289
 1023MOL0     H38073  10.830   0.938   4.055 -1.4757  0.4342 -0.8103
 1023MOL0     H38074  10.816   0.939   4.227  0.8070 -1.8139 -0.6591
 1023MOL0     H38075  10.632   0.757   4.066  1.4938 -2.3385 -1.1172
 1023MOL0     H38076  10.682   0.743   4.239 -1.6438  1.9719  0.9082
 1023MOL0     H38077  10.834   0.691   3.992 -3.1138  0.6712 -0.1508
 1023MOL0     H38078  10.779   0.576   4.120  0.9567  0.4738  1.7461
 1023MOL0     H38079  10.990   0.786   4.175  1.2442 -0.6595  2.7960
 1023MOL0     H38080  10.933   0.663   4.279 -0.6092 -0.4437 -0.2205
 1023MOL0     H38081  10.993   0.485   4.165  1.6316  0.0980 -0.2298
 1023MOL0     H38082  11.131   0.595   4.214  1.2696  1.7036 -1.5630
 1023MOL0     H38083  11.156   0.469   4.001 -0.5119 -0.0777 -6.1235
 1023MOL0     H38084  11.027   0.543   3.922 -0.0337 -2.4280 -0.0333
 1023MOL0     H38085  10.334   1.149   4.221 -0.0280  4.1058  2.6594
 1023MOL0     H38086  10.130   1.207   4.104 -1.0794 -0.6652 -3.7827
 1023MOL0     H38087   9.873   1.609   3.782  2.5338 -0.6036  0.2529
 1023MOL0     H38088   9.645   1.593   3.662  0.1804  0.8586 -0.8583
 1023MOL0     H38089   8.181   1.589   3.593 -0.7154 -0.6945 -0.0928
 1023MOL0     H38090   7.966   1.692   3.619  4.5510 -0.2722  2.5820
 1023MOL0     H38091   7.537   1.695   3.564 -1.9761  0.1462  1.3421
 1023MOL0     H38092   7.324   1.794   3.573 -1.0422  1.2343 -1.2144
 1023MOL0     H38093   7.301   2.178   3.705  1.2156 -1.8134  0.4481
 1023MOL0     H38094   7.243   2.026   3.773 -3.3352 -1.0390 -0.9681
 1023MOL0     H38095   7.078   2.226   3.621 -1.3484  0.9304  0.3611
 1023MOL0     H38096   7.042   2.186   3.792  1.2464  0.2276  0.0686
 1023MOL0     H38097   6.900   2.050   3.747  1.1810  1.0370  1.3160
 1023MOL0     H38098   7.034   1.942   3.700 -0.5319 -0.7851  0.3947
 1023MOL0     H38099   7.005   1.995   3.473 -0.2580  0.2851  0.9102
 1023MOL0     H38100   6.842   1.965   3.519 -0.0534  0.0812  0.5557
 1023MOL0     H38101   6.799   2.355   3.383 -0.4364  0.4541  1.0106
 1023MOL0     H38102   7.475   2.175   3.500  0.8727  0.1642 -0.4106
 1023MOL0     H38103   7.823   2.106   3.418  1.3515  3.2744  0.1749
 1023MOL0     H38104   7.675   2.190   3.391  0.1941  0.2068  0.5170
 1023MOL0     H38105   7.736   2.157   3.560 -1.1139 -0.3690  0.2339
 1024MOL0     O38106   1.191   8.732   1.470  0.3245 -0.3696  0.5829
 1024MOL0     C38107   1.264   8.816   1.415 -0.8904 -0.1499  0.4304
 1024MOL0     O38108   1.230   8.910   1.319 -0.5037  1.3469  0.7203
 1024MOL0     C38109   1.098   8.907   1.286  0.3596 -0.3891  0.2481
 1024MOL0     C38110   1.053   8.862   1.164  0.4455  0.1605  0.0749
 1024MOL0     C38111   0.914   8.854   1.130 -0.1384 -0.9961  0.3162
 1024MOL0     C38112   0.824   8.892   1.223  1.1974  1.1450  0.5374
 1024MOL0     O38113   0.692   8.877   1.186 -0.5998 -0.5219 -0.1027
 1024MOL0     C38114   0.601   8.852   1.295  0.5586  0.1996 -0.4288
 1024MOL0     C38115   0.458   8.896   1.261  0.1044  0.2803 -0.5287
 1024MOL0     C38116   0.405   8.808   1.142  0.2495  0.6377  0.5417
 1024MOL0     C38117   0.257   8.802   1.138  0.4472 -1.1263 -0.3510
 1024MOL0     C38118   0.197   8.745   1.007 -0.5408 -0.0618  0.3637
 1024MOL0     C38119   0.054   8.762   0.994  0.3960 -0.2872  0.0137
 1024MOL0     C38120  -0.024   8.685   0.895  0.4416 -0.5813 -1.0437
 1024MOL0     C38121  -0.178   8.720   0.900  0.2807 -1.3787 -1.2174
 1024MOL0     N38122  -0.267   8.624   0.851 -0.4524  0.2085  0.2536
 1024MOL0     C38123  -0.328   8.639   0.733  0.2690  0.3959  0.3520
 1024MOL0     C38124  -0.360   8.515   0.680  0.5396  0.2871 -1.6512
 1024MOL0     C38125  -0.435   8.486   0.557  0.0448 -0.2641  0.0926
 1024MOL0     C38126  -0.354   8.431   0.440  0.4097  0.2403  0.0811
 1024MOL0     C38127  -0.282   8.303   0.480  0.2536 -0.2521  0.3671
 1024MOL0     C38128  -0.203   8.241   0.365 -0.1436 -0.8137  0.0036
 1024MOL0     O38129  -0.283   8.236   0.245  0.1249  0.0011 -0.5065
 1024MOL0     C38130  -0.322   8.107   0.203 -0.1529  0.5551  0.0721
 1024MOL0     C38131  -0.389   8.114   0.080  0.9992 -0.5896  0.5581
 1024MOL0     C38132  -0.407   7.988   0.007  0.4495 -0.0301 -0.5137
 1024MOL0     C38133  -0.375   7.866   0.066  0.2156  0.0954  0.0351
 1024MOL0     C38134  -0.391   7.749  -0.012  0.6481  0.5089  0.1497
 1024MOL0     O38135  -0.432   7.764  -0.141 -0.0710 -0.2688  0.4010
 1024MOL0     C38136  -0.425   7.663  -0.228  0.6244 -0.1145 -0.6054
 1024MOL0     C38137  -0.513   7.549  -0.225 -0.4336 -1.2223 -1.1175
 1024MOL0     C38138  -0.496   7.450  -0.313  0.1716 -0.7281  0.0765
 1024MOL0     C38139  -0.419   7.460  -0.428 -0.8516 -0.0578 -1.2011
 1024MOL0     O38140  -0.418   7.356  -0.508 -0.6338  0.1473  0.3963
 1024MOL0     C38141  -0.312   7.353  -0.611  0.1203  0.3410  0.8533
 1024MOL0     C38142  -0.309   7.213  -0.675  0.0509 -0.3181  0.7196
 1024MOL0     C38143  -0.422   7.203  -0.775 -0.1399  0.5961 -0.1693
 1024MOL0     C38144  -0.415   7.061  -0.842 -0.5706  1.0386  0.8214
 1024MOL0     C38145  -0.532   7.027  -0.928  0.8995 -0.1282 -0.4939
 1024MOL0     C38146  -0.522   6.879  -0.977 -0.6113 -0.3490 -0.0326
 1024MOL0     C38147  -0.643   6.833  -1.047  0.6260  0.4293  0.5738
 1024MOL0     C38148  -0.633   6.683  -1.085 -0.0363  0.0363  0.7710
 1024MOL0    Cl38149  -0.503   6.635  -1.200  0.5066 -0.2385 -0.2636
 1024MOL0     C38150  -0.333   7.576  -0.434 -0.4427  0.7251  0.3042
 1024MOL0     C38151  -0.343   7.678  -0.337  0.9163 -0.7312 -0.2903
 1024MOL0     O38152  -0.362   7.646   0.046 -0.5472  0.0592 -0.1605
 1024MOL0     C38153  -0.338   7.865   0.204  0.1004 -0.1609 -0.1084
 1024MOL0     C38154  -0.312   7.982   0.273  0.0533 -0.8622  0.5940
 1024MOL0     N38155  -0.311   8.431   0.780  0.1412 -0.6646  0.3347
 1024MOL0     N38156  -0.253   8.496   0.874  0.2331 -0.2206  0.2844
 1024MOL0     C38157   0.876   8.956   1.340  1.3509  0.2404  0.4111
 1024MOL0     C38158   1.011   8.959   1.375 -0.5379  0.7420  0.5156
 1024MOL0     C38159   1.408   8.823   1.437  0.2015  0.1452 -0.4643
 1024MOL0     C38160   1.502   8.872   1.347  0.4388 -0.0936  0.0389
 1024MOL0     C38161   1.636   8.876   1.369 -0.4315  0.0928  0.3722
 1024MOL0     C38162   1.689   8.825   1.492 -0.8101  0.5262 -0.9608
 1024MOL0     O38163   1.825   8.816   1.518 -0.1304 -0.0262  0.0338
 1024MOL0     C38164   1.921   8.842   1.410  0.3552 -0.5284 -0.7932
 1024MOL0     C38165   2.073   8.815   1.447 -0.3424  0.5130 -0.2575
 1024MOL0     C38166   2.093   8.678   1.499 -0.1978  0.0906 -0.0441
 1024MOL0     C38167   2.253   8.652   1.504 -0.1436 -0.8139  0.1077
 1024MOL0     C38168   2.279   8.510   1.525  0.5775  0.2774 -0.5333
 1024MOL0     C38169   2.288   8.391   1.554 -0.4292  0.8485  0.0970
 1024MOL0     C38170   1.606   8.776   1.587  0.7054  0.3503  0.2010
 1024MOL0     C38171   1.469   8.767   1.558 -0.0902  0.4309 -0.0240
 1024MOL0     C38172   1.397   8.693   1.673 -0.5129 -0.1754  0.3753
 1024MOL0     H38173   1.125   8.822   1.094  0.3765  1.2014 -0.6061
 1024MOL0     H38174   0.871   8.828   1.033  0.3943 -0.2233 -0.1398
 1024MOL0     H38175   0.586   8.747   1.322  2.7725 -0.4725 -1.5873
 1024MOL0     H38176   0.626   8.906   1.387 -0.1746  0.1872 -0.2138
 1024MOL0     H38177   0.452   9.002   1.235  0.9546 -0.3076 -3.4435
 1024MOL0     H38178   0.398   8.885   1.351  1.6299 -1.8123  0.2982
 1024MOL0     H38179   0.451   8.708   1.148  3.0489  1.8722  1.6222
 1024MOL0     H38180   0.433   8.851   1.046  0.2200  0.0623  0.2687
 1024MOL0     H38181   0.218   8.741   1.220 -2.0858  2.2278  1.2070
 1024MOL0     H38182   0.220   8.904   1.151 -0.9678 -1.5149 -1.1561
 1024MOL0     H38183   0.249   8.790   0.923 -1.4410 -1.9476 -1.2865
 1024MOL0     H38184   0.223   8.640   0.994  0.0450  0.2511 -1.2646
 1024MOL0     H38185   0.004   8.745   1.090 -1.9752  0.1825 -1.0574
 1024MOL0     H38186   0.035   8.869   0.987  0.3211 -0.1156  2.1183
 1024MOL0     H38187  -0.003   8.582   0.924  3.3023  0.5015  1.2714
 1024MOL0     H38188   0.022   8.692   0.796  1.2461 -2.6576 -0.8569
 1024MOL0     H38189  -0.224   8.726   0.999 -3.9101 -2.3527 -2.8947
 1024MOL0     H38190  -0.184   8.816   0.847  0.2232 -1.3202 -1.1054
 1024MOL0     H38191  -0.347   8.731   0.678  1.7195 -0.9672 -2.7038
 1024MOL0     H38192  -0.523   8.422   0.567 -1.1357  0.5717 -3.4358
 1024MOL0     H38193  -0.475   8.584   0.528 -0.4431  0.7961  3.8052
 1024MOL0     H38194  -0.422   8.413   0.357 -0.2868 -0.0125  0.6973
 1024MOL0     H38195  -0.278   8.507   0.421 -0.3496  1.5850  2.0348
 1024MOL0     H38196  -0.365   8.235   0.500  0.5088 -0.8844 -0.6742
 1024MOL0     H38197  -0.214   8.308   0.566  0.9062  0.1367 -0.1596
 1024MOL0     H38198  -0.158   8.146   0.396  1.7295  0.5404  1.6198
 1024MOL0     H38199  -0.113   8.301   0.348 -0.3034 -1.1652 -2.5282
 1024MOL0     H38200  -0.408   8.211   0.036  0.7162 -0.7349  0.3641
 1024MOL0     H38201  -0.460   7.992  -0.087  0.0599  0.7442 -0.2697
 1024MOL0     H38202  -0.585   7.545  -0.144 -0.8366 -0.0153 -1.3897
 1024MOL0     H38203  -0.553   7.361  -0.295 -3.6052  1.8299  1.9918
 1024MOL0     H38204  -0.330   7.430  -0.686  0.8340  1.8239  2.1423
 1024MOL0     H38205  -0.222   7.378  -0.555 -0.5727  2.0634  1.2400
 1024MOL0     H38206  -0.216   7.215  -0.731 -0.7493  0.6369 -0.6288
 1024MOL0     H38207  -0.295   7.134  -0.601  2.2250  0.4943  1.2373
 1024MOL0     H38208  -0.523   7.215  -0.732  0.5743  1.1396  1.4484
 1024MOL0     H38209  -0.405   7.283  -0.847  2.3754  1.9800  1.8055
 1024MOL0     H38210  -0.402   6.983  -0.766 -0.6062  1.5541  1.3623
 1024MOL0     H38211  -0.332   7.070  -0.912 -0.0203 -3.5162  0.5882
 1024MOL0     H38212  -0.547   7.098  -1.011 -0.4124  0.0803 -0.0969
 1024MOL0     H38213  -0.622   7.029  -0.866  1.6722 -2.5311  0.8360
 1024MOL0     H38214  -0.433   6.868  -1.041 -1.1995 -0.8690 -0.7720
 1024MOL0     H38215  -0.504   6.811  -0.893  4.1513 -3.3036 -2.9347
 1024MOL0     H38216  -0.658   6.892  -1.138  1.7297  2.0246  1.3760
 1024MOL0     H38217  -0.729   6.852  -0.981  0.2657  0.7799  0.0143
 1024MOL0     H38218  -0.612   6.621  -0.997  0.1105 -1.2313 -0.1298
 1024MOL0     H38219  -0.728   6.643  -1.122 -0.1262  0.9966 -0.0689
 1024MOL0     H38220  -0.260   7.587  -0.513  0.9740 -1.4210  1.2153
 1024MOL0     H38221  -0.276   7.763  -0.335 -2.3630  2.1541  2.5343
 1024MOL0     H38222  -0.325   7.769   0.253 -0.1037 -0.1154  0.0380
 1024MOL0     H38223  -0.274   7.988   0.374 -0.4719  1.9290  0.7065
 1024MOL0     H38224   0.807   9.001   1.411 -0.1131 -1.5126  0.1408
 1024MOL0     H38225   1.034   9.001   1.473 -0.4757 -2.8676  2.2101
 1024MOL0     H38226   1.463   8.907   1.253 -0.3137 -0.3256  0.2594
 1024MOL0     H38227   1.696   8.918   1.289 -4.7930  2.1692 -2.1908
 1024MOL0     H38228   1.919   8.948   1.382  2.3263 -1.0226 -3.2038
 1024MOL0     H38229   1.888   8.783   1.323 -2.3884  0.9754 -0.8953
 1024MOL0     H38230   2.098   8.888   1.525 -0.0249  0.9225 -0.7416
 1024MOL0     H38231   2.140   8.843   1.366  2.8259  0.7571  2.2382
 1024MOL0     H38232   2.055   8.595   1.438 -0.3505 -0.5916  0.9578
 1024MOL0     H38233   2.049   8.664   1.598  0.9919 -0.0146  0.4752
 1024MOL0     H38234   2.297   8.682   1.408 -0.7443  2.1717  0.6632
 1024MOL0     H38235   2.292   8.710   1.588  0.5868 -3.1946  1.4927
 1024MOL0     H38236   2.294   8.290   1.589 -3.7021  1.1814  2.0376
 1024MOL0     H38237   1.651   8.742   1.680  0.8841  4.8756  2.0387
 1024MOL0     H38238   1.458   8.671   1.762 -0.7369  0.6699  0.7518
 1024MOL0     H38239   1.305   8.738   1.711 -0.8450 -0.6389  0.1276
 1024MOL0     H38240   1.357   8.595   1.648 -1.5835 -0.3562  2.5409
  11.36393  11.36393  11.36393
